<event>
 4    1  0.7691552E-001  0.2652032E+03  0.7546771E-02  0.1104057E+00
         -2   -1    0    0    0  501 -0.00000000000E+00  0.00000000000E+00  0.39969398809E+02  0.39969398809E+02  0.00000000000E+00 0. -1.
          2   -1    0    0  502    0  0.00000000000E+00 -0.00000000000E+00 -0.17729976943E+04  0.17729976943E+04  0.00000000000E+00 0.  1.
          6    1    1    2  502    0 -0.18331735956E+03  0.82452802152E+02 -0.78790404714E+03  0.83133958549E+03  0.17300000000E+03 0.  1.
         -6    1    1    2    0  501  0.18331735956E+03 -0.82452802152E+02 -0.94512424832E+03  0.98162750759E+03  0.17300000000E+03 0. -1.
<mgrwt>
<rscale>  2 0.26520317E+03</rscale>
<asrwt>0</asrwt>
<pdfrwt beam="2">  1        2 0.27276882E+00 0.26520317E+03</pdfrwt>
<pdfrwt beam="1">  1       -2 0.61491396E-02 0.26520317E+03</pdfrwt>
<totfact> 0.13943356E+03</totfact>
</mgrwt>
</event>
<event>
 4    1  0.7691552E-001  0.1767862E+03  0.7546771E-02  0.1170950E+00
          1   -1    0    0  502    0  0.00000000000E+00  0.00000000000E+00  0.18125136222E+04  0.18125136222E+04  0.00000000000E+00 0. -1.
         -1   -1    0    0    0  501 -0.00000000000E+00 -0.00000000000E+00 -0.19217256443E+02  0.19217256443E+02  0.00000000000E+00 0.  1.
          6    1    1    2  502    0  0.15896990080E+02 -0.32736052558E+02  0.60310218291E+03  0.62847880351E+03  0.17300000000E+03 0.  1.
         -6    1    1    2    0  501 -0.15896990080E+02  0.32736052558E+02  0.11901941828E+04  0.12032520751E+04  0.17300000000E+03 0. -1.
<mgrwt>
<rscale>  2 0.17678621E+03</rscale>
<asrwt>0</asrwt>
<pdfrwt beam="1">  1        1 0.27884812E+00 0.17678621E+03</pdfrwt>
<pdfrwt beam="2">  1       -1 0.29565024E-02 0.17678621E+03</pdfrwt>
<totfact> 0.17266700E+03</totfact>
</mgrwt>
</event>
<event>
 4    1  0.7691552E-001  0.1739342E+03  0.7546771E-02  0.1173806E+00
          1   -1    0    0  502    0  0.00000000000E+00  0.00000000000E+00  0.53073482237E+03  0.53073482237E+03  0.00000000000E+00 0. -1.
         -1   -1    0    0    0  501 -0.00000000000E+00 -0.00000000000E+00 -0.58377218145E+02  0.58377218145E+02  0.00000000000E+00 0.  1.
          6    1    1    2  502    0 -0.98607918847E+01 -0.15062127638E+02  0.28138369233E+03  0.33080188212E+03  0.17300000000E+03 0. -1.
         -6    1    1    2    0  501  0.98607918847E+01  0.15062127638E+02  0.19097391190E+03  0.25831015840E+03  0.17300000000E+03 0.  1.
<mgrwt>
<rscale>  2 0.17393419E+03</rscale>
<asrwt>0</asrwt>
<pdfrwt beam="1">  1        1 0.81651508E-01 0.17393419E+03</pdfrwt>
<pdfrwt beam="2">  1       -1 0.89811109E-02 0.17393419E+03</pdfrwt>
<totfact> 0.29517961E+03</totfact>
</mgrwt>
</event>
<event>
 4    1  0.7691552E-001  0.1968400E+03  0.7546771E-02  0.1152433E+00
         -2   -1    0    0    0  501 -0.00000000000E+00  0.00000000000E+00  0.26516706354E+02  0.26516706354E+02  0.00000000000E+00 0.  1.
          2   -1    0    0  502    0  0.00000000000E+00 -0.00000000000E+00 -0.15453055994E+04  0.15453055994E+04  0.00000000000E+00 0. -1.
          6    1    1    2  502    0 -0.44673438220E+02  0.82590925798E+02 -0.57603574636E+03  0.60873899020E+03  0.17300000000E+03 0.  1.
         -6    1    1    2    0  501  0.44673438220E+02 -0.82590925798E+02 -0.94275314665E+03  0.96308331552E+03  0.17300000000E+03 0.  1.
<mgrwt>
<rscale>  2 0.19683998E+03</rscale>
<asrwt>0</asrwt>
<pdfrwt beam="2">  1        2 0.23773940E+00 0.19683998E+03</pdfrwt>
<pdfrwt beam="1">  1       -2 0.40794920E-02 0.19683998E+03</pdfrwt>
<totfact> 0.34341651E+03</totfact>
</mgrwt>
</event>
<event>
 4    1  0.7691552E-001  0.1903452E+03  0.7546771E-02  0.1158150E+00
          2   -1    0    0  502    0  0.00000000000E+00  0.00000000000E+00  0.95556569875E+02  0.95556569875E+02  0.00000000000E+00 0. -1.
         -2   -1    0    0    0  501 -0.00000000000E+00 -0.00000000000E+00 -0.37917692357E+03  0.37917692357E+03  0.00000000000E+00 0.  1.
          6    1    1    2  502    0  0.52063957980E+02 -0.59930219832E+02 -0.14025305482E+03  0.23643647425E+03  0.17300000000E+03 0.  1.
         -6    1    1    2    0  501 -0.52063957980E+02  0.59930219832E+02 -0.14336729887E+03  0.23829701919E+03  0.17300000000E+03 0.  1.
<mgrwt>
<rscale>  2 0.19034518E+03</rscale>
<asrwt>0</asrwt>
<pdfrwt beam="1">  1        2 0.14701010E-01 0.19034518E+03</pdfrwt>
<pdfrwt beam="2">  1       -2 0.58334912E-01 0.19034518E+03</pdfrwt>
<totfact> 0.11077550E+03</totfact>
</mgrwt>
</event>
<event>
 4    1  0.7691552E-001  0.3052593E+03  0.7546771E-02  0.1082641E+00
          1   -1    0    0  502    0  0.00000000000E+00  0.00000000000E+00  0.10948309164E+04  0.10948309164E+04  0.00000000000E+00 0. -1.
         -1   -1    0    0    0  501 -0.00000000000E+00 -0.00000000000E+00 -0.10829751911E+03  0.10829751911E+03  0.00000000000E+00 0.  1.
          6    1    1    2  502    0  0.13970745820E+03 -0.20913163513E+03  0.77161043127E+03  0.82979869386E+03  0.17300000000E+03 0. -1.
         -6    1    1    2    0  501 -0.13970745820E+03  0.20913163513E+03  0.21492296607E+03  0.37332974169E+03  0.17300000000E+03 0.  1.
<mgrwt>
<rscale>  2 0.30525926E+03</rscale>
<asrwt>0</asrwt>
<pdfrwt beam="1">  1        1 0.16843552E+00 0.30525926E+03</pdfrwt>
<pdfrwt beam="2">  1       -1 0.16661158E-01 0.30525926E+03</pdfrwt>
<totfact> 0.37007976E+02</totfact>
</mgrwt>
</event>
<event>
 4    1  0.7691552E-001  0.2269402E+03  0.7546771E-02  0.1128812E+00
          2   -1    0    0  502    0  0.00000000000E+00  0.00000000000E+00  0.55132384352E+02  0.55132384352E+02  0.00000000000E+00 0.  1.
         -2   -1    0    0    0  501 -0.00000000000E+00 -0.00000000000E+00 -0.94220783714E+03  0.94220783714E+03  0.00000000000E+00 0. -1.
          6    1    1    2  502    0 -0.12132559859E+03 -0.82782682326E+02 -0.39741972533E+03  0.45765086195E+03  0.17300000000E+03 0.  1.
         -6    1    1    2    0  501  0.12132559859E+03  0.82782682326E+02 -0.48965572746E+03  0.53968935954E+03  0.17300000000E+03 0. -1.
<mgrwt>
<rscale>  2 0.22694024E+03</rscale>
<asrwt>0</asrwt>
<pdfrwt beam="1">  1        2 0.84819052E-02 0.22694024E+03</pdfrwt>
<pdfrwt beam="2">  1       -2 0.14495505E+00 0.22694024E+03</pdfrwt>
<totfact> 0.27301244E+02</totfact>
</mgrwt>
</event>
<event>
 4    1  0.7691552E-001  0.2746280E+03  0.7546771E-02  0.1098660E+00
          2   -1    0    0  502    0  0.00000000000E+00  0.00000000000E+00  0.16002437175E+04  0.16002437175E+04  0.00000000000E+00 0.  1.
         -2   -1    0    0    0  501 -0.00000000000E+00 -0.00000000000E+00 -0.48481122522E+02  0.48481122522E+02  0.00000000000E+00 0. -1.
          6    1    1    2  502    0 -0.20125874994E+03 -0.70614691932E+02  0.63829490819E+03  0.69486754779E+03  0.17300000000E+03 0. -1.
         -6    1    1    2    0  501  0.20125874994E+03  0.70614691932E+02  0.91346768677E+03  0.95385729222E+03  0.17300000000E+03 0.  1.
<mgrwt>
<rscale>  2 0.27462796E+03</rscale>
<asrwt>0</asrwt>
<pdfrwt beam="1">  1        2 0.24619130E+00 0.27462796E+03</pdfrwt>
<pdfrwt beam="2">  1       -2 0.74586355E-02 0.27462796E+03</pdfrwt>
<totfact> 0.12738268E+03</totfact>
</mgrwt>
</event>
<event>
 4    1  0.7691552E-001  0.1923575E+03  0.7546771E-02  0.1156352E+00
          2   -1    0    0  502    0  0.00000000000E+00  0.00000000000E+00  0.14351127937E+04  0.14351127937E+04  0.00000000000E+00 0. -1.
         -2   -1    0    0    0  501 -0.00000000000E+00 -0.00000000000E+00 -0.29166960909E+02  0.29166960909E+02  0.00000000000E+00 0.  1.
          6    1    1    2  502    0 -0.31073518257E+02 -0.78146372463E+02  0.95235505698E+03  0.97158714155E+03  0.17300000000E+03 0. -1.
         -6    1    1    2    0  501  0.31073518257E+02  0.78146372463E+02  0.45359077583E+03  0.49269261308E+03  0.17300000000E+03 0.  1.
<mgrwt>
<rscale>  2 0.19235753E+03</rscale>
<asrwt>0</asrwt>
<pdfrwt beam="1">  1        2 0.22078653E+00 0.19235753E+03</pdfrwt>
<pdfrwt beam="2">  1       -2 0.44872259E-02 0.19235753E+03</pdfrwt>
<totfact> 0.34033371E+03</totfact>
</mgrwt>
</event>
<event>
 4    1  0.7691552E-001  0.1741632E+03  0.7546771E-02  0.1173575E+00
          2   -1    0    0  502    0  0.00000000000E+00  0.00000000000E+00  0.92042373301E+03  0.92042373301E+03  0.00000000000E+00 0.  1.
         -2   -1    0    0    0  501 -0.00000000000E+00 -0.00000000000E+00 -0.32955296840E+02  0.32955296840E+02  0.00000000000E+00 0. -1.
          6    1    1    2  502    0 -0.19557981026E+02  0.46147740391E+01  0.44328800024E+03  0.47627414576E+03  0.17300000000E+03 0.  1.
         -6    1    1    2    0  501  0.19557981026E+02 -0.46147740391E+01  0.44418043593E+03  0.47710488409E+03  0.17300000000E+03 0.  1.
<mgrwt>
<rscale>  2 0.17416317E+03</rscale>
<asrwt>0</asrwt>
<pdfrwt beam="1">  1        2 0.14160363E+00 0.17416317E+03</pdfrwt>
<pdfrwt beam="2">  1       -2 0.50700464E-02 0.17416317E+03</pdfrwt>
<totfact> 0.55498032E+03</totfact>
</mgrwt>
</event>
<event>
 4    1  0.7691552E-001  0.1779250E+03  0.7546771E-02  0.1169826E+00
         -2   -1    0    0    0  501 -0.00000000000E+00  0.00000000000E+00  0.34605602764E+02  0.34605602764E+02  0.00000000000E+00 0.  1.
          2   -1    0    0  502    0  0.00000000000E+00 -0.00000000000E+00 -0.94152545726E+03  0.94152545726E+03  0.00000000000E+00 0. -1.
          6    1    1    2  502    0 -0.41370409253E+02  0.40991904798E+01 -0.53568403093E+03  0.56445964880E+03  0.17300000000E+03 0. -1.
         -6    1    1    2    0  501  0.41370409253E+02 -0.40991904798E+01 -0.37123582356E+03  0.41167141123E+03  0.17300000000E+03 0. -1.
<mgrwt>
<rscale>  2 0.17792502E+03</rscale>
<asrwt>0</asrwt>
<pdfrwt beam="2">  1        2 0.14485004E+00 0.17792502E+03</pdfrwt>
<pdfrwt beam="1">  1       -2 0.53239398E-02 0.17792502E+03</pdfrwt>
<totfact> 0.50033967E+03</totfact>
</mgrwt>
</event>
<event>
 4    1  0.7691552E-001  0.2631587E+03  0.7546771E-02  0.1105260E+00
         -2   -1    0    0    0  501 -0.00000000000E+00  0.00000000000E+00  0.14499568899E+03  0.14499568899E+03  0.00000000000E+00 0. -1.
          2   -1    0    0  502    0  0.00000000000E+00 -0.00000000000E+00 -0.48207487477E+03  0.48207487477E+03  0.00000000000E+00 0.  1.
          6    1    1    2  502    0 -0.14082520984E+03  0.13961288614E+03 -0.13839133033E+03  0.29732920814E+03  0.17300000000E+03 0. -1.
         -6    1    1    2    0  501  0.14082520984E+03 -0.13961288614E+03 -0.19868785544E+03  0.32974135562E+03  0.17300000000E+03 0.  1.
<mgrwt>
<rscale>  2 0.26315869E+03</rscale>
<asrwt>0</asrwt>
<pdfrwt beam="2">  1        2 0.74165366E-01 0.26315869E+03</pdfrwt>
<pdfrwt beam="1">  1       -2 0.22307029E-01 0.26315869E+03</pdfrwt>
<totfact> 0.11286882E+03</totfact>
</mgrwt>
</event>
<event>
 4    1  0.7691552E-001  0.2053039E+03  0.7546771E-02  0.1145340E+00
          2   -1    0    0  502    0  0.00000000000E+00  0.00000000000E+00  0.88983831509E+03  0.88983831509E+03  0.00000000000E+00 0.  1.
         -2   -1    0    0    0  501 -0.00000000000E+00 -0.00000000000E+00 -0.81682360584E+02  0.81682360584E+02  0.00000000000E+00 0. -1.
          6    1    1    2  502    0  0.22740290910E+02 -0.10818312911E+03  0.89232875289E+02  0.22385758037E+03  0.17300000000E+03 0. -1.
         -6    1    1    2    0  501 -0.22740290910E+02  0.10818312911E+03  0.71892307922E+03  0.74766309531E+03  0.17300000000E+03 0.  1.
<mgrwt>
<rscale>  2 0.20530395E+03</rscale>
<asrwt>0</asrwt>
<pdfrwt beam="1">  1        2 0.13689820E+00 0.20530395E+03</pdfrwt>
<pdfrwt beam="2">  1       -2 0.12566518E-01 0.20530395E+03</pdfrwt>
<totfact> 0.14141331E+03</totfact>
</mgrwt>
</event>
<event>
 4    1  0.7691552E-001  0.1753758E+03  0.7546771E-02  0.1172355E+00
          1   -1    0    0  502    0  0.00000000000E+00  0.00000000000E+00  0.79895152840E+03  0.79895152840E+03  0.00000000000E+00 0. -1.
         -1   -1    0    0    0  501 -0.00000000000E+00 -0.00000000000E+00 -0.68831240836E+02  0.68831240836E+02  0.00000000000E+00 0.  1.
          6    1    1    2  502    0  0.23084036256E+02 -0.17169972957E+02  0.77015517903E+02  0.19154130285E+03  0.17300000000E+03 0.  1.
         -6    1    1    2    0  501 -0.23084036256E+02  0.17169972957E+02  0.65310476966E+03  0.67624146638E+03  0.17300000000E+03 0. -1.
<mgrwt>
<rscale>  2 0.17537583E+03</rscale>
<asrwt>0</asrwt>
<pdfrwt beam="1">  1        1 0.12291561E+00 0.17537583E+03</pdfrwt>
<pdfrwt beam="2">  1       -1 0.10589422E-01 0.17537583E+03</pdfrwt>
<totfact> 0.12860105E+03</totfact>
</mgrwt>
</event>
<event>
 4    1  0.7691552E-001  0.2273579E+03  0.7546771E-02  0.1128513E+00
         -2   -1    0    0    0  501 -0.00000000000E+00  0.00000000000E+00  0.14155046379E+03  0.14155046379E+03  0.00000000000E+00 0. -1.
          2   -1    0    0  502    0  0.00000000000E+00 -0.00000000000E+00 -0.36704066671E+03  0.36704066671E+03  0.00000000000E+00 0.  1.
          6    1    1    2  502    0 -0.48369229342E+02 -0.13936646577E+03 -0.94646103665E+02  0.24627114948E+03  0.17300000000E+03 0. -1.
         -6    1    1    2    0  501  0.48369229342E+02  0.13936646577E+03 -0.13084409925E+03  0.26231998101E+03  0.17300000000E+03 0.  1.
<mgrwt>
<rscale>  2 0.22735785E+03</rscale>
<asrwt>0</asrwt>
<pdfrwt beam="2">  1        2 0.56467795E-01 0.22735785E+03</pdfrwt>
<pdfrwt beam="1">  1       -2 0.21776994E-01 0.22735785E+03</pdfrwt>
<totfact> 0.15838114E+03</totfact>
</mgrwt>
</event>
<event>
 4    1  0.7691552E-001  0.2269345E+03  0.7546771E-02  0.1128816E+00
         -2   -1    0    0    0  501 -0.00000000000E+00  0.00000000000E+00  0.33200691993E+03  0.33200691993E+03  0.00000000000E+00 0. -1.
          2   -1    0    0  502    0  0.00000000000E+00 -0.00000000000E+00 -0.23397971453E+03  0.23397971453E+03  0.00000000000E+00 0.  1.
          6    1    1    2  502    0 -0.13388214232E+03  0.60380804511E+02  0.21331010204E+03  0.31144898333E+03  0.17300000000E+03 0. -1.
         -6    1    1    2    0  501  0.13388214232E+03 -0.60380804511E+02 -0.11528289664E+03  0.25453765113E+03  0.17300000000E+03 0.  1.
<mgrwt>
<rscale>  2 0.22693451E+03</rscale>
<asrwt>0</asrwt>
<pdfrwt beam="2">  1        2 0.35996879E-01 0.22693451E+03</pdfrwt>
<pdfrwt beam="1">  1       -2 0.51077987E-01 0.22693451E+03</pdfrwt>
<totfact> 0.52926410E+02</totfact>
</mgrwt>
</event>
<event>
 4    1  0.7691552E-001  0.1861608E+03  0.7546771E-02  0.1161970E+00
         -1   -1    0    0    0  501 -0.00000000000E+00  0.00000000000E+00  0.14085421042E+03  0.14085421042E+03  0.00000000000E+00 0.  1.
          1   -1    0    0  502    0  0.00000000000E+00 -0.00000000000E+00 -0.24899900432E+03  0.24899900432E+03  0.00000000000E+00 0. -1.
          6    1    1    2  502    0 -0.40476055515E+02  0.55574597677E+02 -0.75319756812E+02  0.20082059840E+03  0.17300000000E+03 0. -1.
         -6    1    1    2    0  501  0.40476055515E+02 -0.55574597677E+02 -0.32825037087E+02  0.18903261633E+03  0.17300000000E+03 0.  1.
<mgrwt>
<rscale>  2 0.18616081E+03</rscale>
<asrwt>0</asrwt>
<pdfrwt beam="2">  1        1 0.38307539E-01 0.18616081E+03</pdfrwt>
<pdfrwt beam="1">  1       -1 0.21669879E-01 0.18616081E+03</pdfrwt>
<totfact> 0.19372415E+03</totfact>
</mgrwt>
</event>
<event>
 4    1  0.7691552E-001  0.2247501E+03  0.7546771E-02  0.1130390E+00
          2   -1    0    0  502    0  0.00000000000E+00  0.00000000000E+00  0.23839156840E+03  0.23839156840E+03  0.00000000000E+00 0.  1.
         -2   -1    0    0    0  501 -0.00000000000E+00 -0.00000000000E+00 -0.26872425177E+03  0.26872425177E+03  0.00000000000E+00 0. -1.
          6    1    1    2  502    0  0.85437554182E+02 -0.11525646619E+03  0.10144247340E+03  0.24658305715E+03  0.17300000000E+03 0.  1.
         -6    1    1    2    0  501 -0.85437554182E+02  0.11525646619E+03 -0.13177515677E+03  0.26053276302E+03  0.17300000000E+03 0. -1.
<mgrwt>
<rscale>  2 0.22475015E+03</rscale>
<asrwt>0</asrwt>
<pdfrwt beam="1">  1        2 0.36675626E-01 0.22475015E+03</pdfrwt>
<pdfrwt beam="2">  1       -2 0.41342193E-01 0.22475015E+03</pdfrwt>
<totfact> 0.78547016E+02</totfact>
</mgrwt>
</event>
<event>
 4    1  0.7691552E-001  0.1986116E+03  0.7546771E-02  0.1150916E+00
          2   -1    0    0  502    0  0.00000000000E+00  0.00000000000E+00  0.12587097226E+04  0.12587097226E+04  0.00000000000E+00 0.  1.
         -2   -1    0    0    0  501 -0.00000000000E+00 -0.00000000000E+00 -0.31946357476E+02  0.31946357476E+02  0.00000000000E+00 0. -1.
          6    1    1    2  502    0  0.95541666546E+02  0.19731956436E+02  0.52439338310E+03  0.56074502262E+03  0.17300000000E+03 0. -1.
         -6    1    1    2    0  501 -0.95541666546E+02 -0.19731956436E+02  0.70236998202E+03  0.72991105745E+03  0.17300000000E+03 0.  1.
<mgrwt>
<rscale>  2 0.19861158E+03</rscale>
<asrwt>0</asrwt>
<pdfrwt beam="1">  1        2 0.19364761E+00 0.19861158E+03</pdfrwt>
<pdfrwt beam="2">  1       -2 0.49148252E-02 0.19861158E+03</pdfrwt>
<totfact> 0.36995197E+03</totfact>
</mgrwt>
</event>
<event>
 4    1  0.7691552E-001  0.1802810E+03  0.7546771E-02  0.1167531E+00
         -2   -1    0    0    0  501 -0.00000000000E+00  0.00000000000E+00  0.28087723493E+03  0.28087723493E+03  0.00000000000E+00 0. -1.
          2   -1    0    0  502    0  0.00000000000E+00 -0.00000000000E+00 -0.11983936213E+03  0.11983936213E+03  0.00000000000E+00 0.  1.
          6    1    1    2  502    0  0.48345133285E+02 -0.15329650821E+02  0.11769573877E+03  0.21529871581E+03  0.17300000000E+03 0. -1.
         -6    1    1    2    0  501 -0.48345133285E+02  0.15329650821E+02  0.43342134031E+02  0.18541788125E+03  0.17300000000E+03 0.  1.
<mgrwt>
<rscale>  2 0.18028103E+03</rscale>
<asrwt>0</asrwt>
<pdfrwt beam="2">  1        2 0.18436825E-01 0.18028103E+03</pdfrwt>
<pdfrwt beam="1">  1       -2 0.43211882E-01 0.18028103E+03</pdfrwt>
<totfact> 0.15429439E+03</totfact>
</mgrwt>
</event>
<event>
 4    1  0.7691552E-001  0.2184913E+03  0.7546771E-02  0.1135013E+00
         -2   -1    0    0    0  501 -0.00000000000E+00  0.00000000000E+00  0.90214904226E+02  0.90214904226E+02  0.00000000000E+00 0.  1.
          2   -1    0    0  502    0  0.00000000000E+00 -0.00000000000E+00 -0.75158533414E+03  0.75158533414E+03  0.00000000000E+00 0. -1.
          6    1    1    2  502    0  0.14626543002E+02 -0.13264802924E+03 -0.10171520722E+03  0.24100709284E+03  0.17300000000E+03 0.  1.
         -6    1    1    2    0  501 -0.14626543002E+02  0.13264802924E+03 -0.55965522269E+03  0.60079314552E+03  0.17300000000E+03 0. -1.
<mgrwt>
<rscale>  2 0.21849127E+03</rscale>
<asrwt>0</asrwt>
<pdfrwt beam="2">  1        2 0.11562852E+00 0.21849127E+03</pdfrwt>
<pdfrwt beam="1">  1       -2 0.13879216E-01 0.21849127E+03</pdfrwt>
<totfact> 0.14933331E+03</totfact>
</mgrwt>
</event>
<event>
 4    1  0.7691552E-001  0.2895662E+03  0.7546771E-02  0.1090576E+00
         -2   -1    0    0    0  501 -0.00000000000E+00  0.00000000000E+00  0.47079978811E+02  0.47079978811E+02  0.00000000000E+00 0.  1.
          2   -1    0    0  502    0  0.00000000000E+00 -0.00000000000E+00 -0.24451442294E+04  0.24451442294E+04  0.00000000000E+00 0. -1.
          6    1    1    2  502    0  0.23182369814E+03 -0.13316849318E+02 -0.54958744409E+03  0.62120441418E+03  0.17300000000E+03 0.  1.
         -6    1    1    2    0  501 -0.23182369814E+03  0.13316849318E+02 -0.18484768065E+04  0.18710197941E+04  0.17300000000E+03 0. -1.
<mgrwt>
<rscale>  2 0.28956617E+03</rscale>
<asrwt>0</asrwt>
<pdfrwt beam="2">  1        2 0.37617602E+00 0.28956617E+03</pdfrwt>
<pdfrwt beam="1">  1       -2 0.72430740E-02 0.28956617E+03</pdfrwt>
<totfact> 0.47339682E+02</totfact>
</mgrwt>
</event>
<event>
 4    1  0.7691552E-001  0.2468375E+03  0.7546771E-02  0.1115320E+00
         -1   -1    0    0    0  501 -0.00000000000E+00  0.00000000000E+00  0.25932831476E+03  0.25932831476E+03  0.00000000000E+00 0.  1.
          1   -1    0    0  502    0  0.00000000000E+00 -0.00000000000E+00 -0.24078843661E+03  0.24078843661E+03  0.00000000000E+00 0. -1.
          6    1    1    2  502    0  0.13382843711E+03 -0.11441021697E+03 -0.29673550227E+02  0.24861469769E+03  0.17300000000E+03 0. -1.
         -6    1    1    2    0  501 -0.13382843711E+03  0.11441021697E+03  0.48213428377E+02  0.25150205367E+03  0.17300000000E+03 0.  1.
<mgrwt>
<rscale>  2 0.24683749E+03</rscale>
<asrwt>0</asrwt>
<pdfrwt beam="2">  1        1 0.37044375E-01 0.24683749E+03</pdfrwt>
<pdfrwt beam="1">  1       -1 0.39896664E-01 0.24683749E+03</pdfrwt>
<totfact> 0.72020956E+02</totfact>
</mgrwt>
</event>
<event>
 4    1  0.7691552E-001  0.1845061E+03  0.7546771E-02  0.1163512E+00
         -2   -1    0    0    0  501 -0.00000000000E+00  0.00000000000E+00  0.17261706642E+02  0.17261706642E+02  0.00000000000E+00 0.  1.
          2   -1    0    0  502    0  0.00000000000E+00 -0.00000000000E+00 -0.25541579088E+04  0.25541579088E+04  0.00000000000E+00 0. -1.
          6    1    1    2  502    0  0.61748479896E+02  0.17338903285E+02 -0.65470441315E+03  0.68020613121E+03  0.17300000000E+03 0.  1.
         -6    1    1    2    0  501 -0.61748479896E+02 -0.17338903285E+02 -0.18821917890E+04  0.18912134842E+04  0.17300000000E+03 0. -1.
<mgrwt>
<rscale>  2 0.18450613E+03</rscale>
<asrwt>0</asrwt>
<pdfrwt beam="2">  1        2 0.39294718E+00 0.18450613E+03</pdfrwt>
<pdfrwt beam="1">  1       -2 0.26556485E-02 0.18450613E+03</pdfrwt>
<totfact> 0.19207796E+03</totfact>
</mgrwt>
</event>
<event>
 4    1  0.7691552E-001  0.3038842E+03  0.7546771E-02  0.1083315E+00
         -1   -1    0    0    0  501 -0.00000000000E+00  0.00000000000E+00  0.51148687497E+03  0.51148687497E+03  0.00000000000E+00 0.  1.
          1   -1    0    0  502    0  0.00000000000E+00 -0.00000000000E+00 -0.20936695861E+03  0.20936695861E+03  0.00000000000E+00 0. -1.
          6    1    1    2  502    0 -0.23986666927E+03 -0.69861250912E+02  0.28479229822E+03  0.41647600955E+03  0.17300000000E+03 0.  1.
         -6    1    1    2    0  501  0.23986666927E+03  0.69861250912E+02  0.17327618139E+02  0.30437782402E+03  0.17300000000E+03 0.  1.
<mgrwt>
<rscale>  2 0.30388421E+03</rscale>
<asrwt>0</asrwt>
<pdfrwt beam="2">  1        1 0.32210301E-01 0.30388421E+03</pdfrwt>
<pdfrwt beam="1">  1       -1 0.78690288E-01 0.30388421E+03</pdfrwt>
<totfact> 0.23446180E+02</totfact>
</mgrwt>
</event>
<event>
 4    1  0.7691552E-001  0.3196273E+03  0.7546771E-02  0.1075821E+00
          2   -1    0    0  502    0  0.00000000000E+00  0.00000000000E+00  0.42951660406E+03  0.42951660406E+03  0.00000000000E+00 0.  1.
         -2   -1    0    0    0  501 -0.00000000000E+00 -0.00000000000E+00 -0.25974274987E+03  0.25974274987E+03  0.00000000000E+00 0. -1.
          6    1    1    2  502    0  0.10113340607E+03  0.24900729336E+03 -0.15160590589E+02  0.31998662703E+03  0.17300000000E+03 0.  1.
         -6    1    1    2    0  501 -0.10113340607E+03 -0.24900729336E+03  0.18493444478E+03  0.36927272691E+03  0.17300000000E+03 0. -1.
<mgrwt>
<rscale>  2 0.31962728E+03</rscale>
<asrwt>0</asrwt>
<pdfrwt beam="1">  1        2 0.66079478E-01 0.31962728E+03</pdfrwt>
<pdfrwt beam="2">  1       -2 0.39960423E-01 0.31962728E+03</pdfrwt>
<totfact> 0.44231092E+02</totfact>
</mgrwt>
</event>
<event>
 4    1  0.7691552E-001  0.2529658E+03  0.7546771E-02  0.1111445E+00
          2   -1    0    0  502    0  0.00000000000E+00  0.00000000000E+00  0.16674434897E+04  0.16674434897E+04  0.00000000000E+00 0. -1.
         -2   -1    0    0    0  501 -0.00000000000E+00 -0.00000000000E+00 -0.38602653793E+02  0.38602653793E+02  0.00000000000E+00 0.  1.
          6    1    1    2  502    0 -0.15497849693E+03  0.10022160664E+03  0.74922111277E+03  0.79077429192E+03  0.17300000000E+03 0.  1.
         -6    1    1    2    0  501  0.15497849693E+03 -0.10022160664E+03  0.87961972316E+03  0.91527185160E+03  0.17300000000E+03 0. -1.
<mgrwt>
<rscale>  2 0.25296582E+03</rscale>
<asrwt>0</asrwt>
<pdfrwt beam="1">  1        2 0.25652971E+00 0.25296582E+03</pdfrwt>
<pdfrwt beam="2">  1       -2 0.59388711E-02 0.25296582E+03</pdfrwt>
<totfact> 0.16730757E+03</totfact>
</mgrwt>
</event>
<event>
 4    1  0.7691552E-001  0.1800161E+03  0.7546771E-02  0.1167787E+00
         -2   -1    0    0    0  501 -0.00000000000E+00  0.00000000000E+00  0.34335095424E+02  0.34335095424E+02  0.00000000000E+00 0.  1.
          2   -1    0    0  502    0  0.00000000000E+00 -0.00000000000E+00 -0.10505096226E+04  0.10505096226E+04  0.00000000000E+00 0. -1.
          6    1    1    2  502    0 -0.45877994539E+02 -0.19287441703E+02 -0.68095726562E+03  0.70434976638E+03  0.17300000000E+03 0. -1.
         -6    1    1    2    0  501  0.45877994539E+02  0.19287441703E+02 -0.33521726160E+03  0.38049495169E+03  0.17300000000E+03 0.  1.
<mgrwt>
<rscale>  2 0.18001610E+03</rscale>
<asrwt>0</asrwt>
<pdfrwt beam="2">  1        2 0.16161687E+00 0.18001610E+03</pdfrwt>
<pdfrwt beam="1">  1       -2 0.52823221E-02 0.18001610E+03</pdfrwt>
<totfact> 0.43504200E+03</totfact>
</mgrwt>
</event>
<event>
 4    1  0.7691552E-001  0.1902642E+03  0.7546771E-02  0.1158223E+00
         -1   -1    0    0    0  501 -0.00000000000E+00  0.00000000000E+00  0.83909624634E+02  0.83909624634E+02  0.00000000000E+00 0. -1.
          1   -1    0    0  502    0  0.00000000000E+00 -0.00000000000E+00 -0.43601234148E+03  0.43601234148E+03  0.00000000000E+00 0.  1.
          6    1    1    2  502    0  0.18452306706E+02  0.77012734950E+02 -0.14937746490E+03  0.24189682922E+03  0.17300000000E+03 0. -1.
         -6    1    1    2    0  501 -0.18452306706E+02 -0.77012734950E+02 -0.20272525195E+03  0.27802513689E+03  0.17300000000E+03 0.  1.
<mgrwt>
<rscale>  2 0.19026416E+03</rscale>
<asrwt>0</asrwt>
<pdfrwt beam="2">  1        1 0.67078822E-01 0.19026416E+03</pdfrwt>
<pdfrwt beam="1">  1       -1 0.12909173E-01 0.19026416E+03</pdfrwt>
<totfact> 0.21861365E+03</totfact>
</mgrwt>
</event>
<event>
 4    1  0.7691552E-001  0.1868406E+03  0.7546771E-02  0.1161342E+00
         -1   -1    0    0    0  501 -0.00000000000E+00  0.00000000000E+00  0.20288977947E+02  0.20288977947E+02  0.00000000000E+00 0.  1.
          1   -1    0    0  502    0  0.00000000000E+00 -0.00000000000E+00 -0.18592707025E+04  0.18592707025E+04  0.00000000000E+00 0. -1.
          6    1    1    2  502    0  0.35812054710E+02  0.60810339504E+02 -0.66284582245E+03  0.68867552955E+03  0.17300000000E+03 0. -1.
         -6    1    1    2    0  501 -0.35812054710E+02 -0.60810339504E+02 -0.11761359021E+04  0.11908841509E+04  0.17300000000E+03 0. -1.
<mgrwt>
<rscale>  2 0.18684058E+03</rscale>
<asrwt>0</asrwt>
<pdfrwt beam="2">  1        1 0.28604166E+00 0.18684058E+03</pdfrwt>
<pdfrwt beam="1">  1       -1 0.31213810E-02 0.18684058E+03</pdfrwt>
<totfact> 0.14873234E+03</totfact>
</mgrwt>
</event>
<event>
 4    1  0.7691552E-001  0.4430376E+03  0.7546771E-02  0.1029819E+00
          2   -1    0    0  502    0  0.00000000000E+00  0.00000000000E+00  0.23449832438E+04  0.23449832438E+04  0.00000000000E+00 0.  1.
         -2   -1    0    0    0  501 -0.00000000000E+00 -0.00000000000E+00 -0.83708044033E+02  0.83708044033E+02  0.00000000000E+00 0. -1.
          6    1    1    2  502    0  0.29958984837E+03 -0.27676569393E+03  0.11212888363E+04  0.12056413152E+04  0.17300000000E+03 0. -1.
         -6    1    1    2    0  501 -0.29958984837E+03  0.27676569393E+03  0.11399863634E+04  0.12230499726E+04  0.17300000000E+03 0.  1.
<mgrwt>
<rscale>  2 0.44303761E+03</rscale>
<asrwt>0</asrwt>
<pdfrwt beam="1">  1        2 0.36076660E+00 0.44303761E+03</pdfrwt>
<pdfrwt beam="2">  1       -2 0.12878162E-01 0.44303761E+03</pdfrwt>
<totfact> 0.20770546E+02</totfact>
</mgrwt>
</event>
<event>
 4    1  0.7691552E-001  0.2263794E+03  0.7546771E-02  0.1129214E+00
         -4   -1    0    0    0  501 -0.00000000000E+00  0.00000000000E+00  0.58626269287E+03  0.58626269287E+03  0.00000000000E+00 0. -1.
          4   -1    0    0  502    0  0.00000000000E+00 -0.00000000000E+00 -0.13289104538E+03  0.13289104538E+03  0.00000000000E+00 0.  1.
          6    1    1    2  502    0  0.13577972467E+03 -0.53688928717E+02  0.16337305434E+02  0.22696815249E+03  0.17300000000E+03 0.  1.
         -6    1    1    2    0  501 -0.13577972467E+03  0.53688928717E+02  0.43703434206E+03  0.49218558576E+03  0.17300000000E+03 0. -1.
<mgrwt>
<rscale>  2 0.22637940E+03</rscale>
<asrwt>0</asrwt>
<pdfrwt beam="2">  1        4 0.20444777E-01 0.22637940E+03</pdfrwt>
<pdfrwt beam="1">  1       -4 0.90194259E-01 0.22637940E+03</pdfrwt>
<totfact> 0.42345553E+01</totfact>
</mgrwt>
</event>
<event>
 4    1  0.7691552E-001  0.1772629E+03  0.7546771E-02  0.1170479E+00
         -2   -1    0    0    0  501 -0.00000000000E+00  0.00000000000E+00  0.34079702798E+03  0.34079702798E+03  0.00000000000E+00 0.  1.
          2   -1    0    0  502    0  0.00000000000E+00 -0.00000000000E+00 -0.29134564037E+03  0.29134564037E+03  0.00000000000E+00 0. -1.
          6    1    1    2  502    0  0.16973289836E+02 -0.34713894266E+02  0.28604057022E+03  0.33651352846E+03  0.17300000000E+03 0.  1.
         -6    1    1    2    0  501 -0.16973289836E+02  0.34713894266E+02 -0.23658918261E+03  0.29562913989E+03  0.17300000000E+03 0. -1.
<mgrwt>
<rscale>  2 0.17726293E+03</rscale>
<asrwt>0</asrwt>
<pdfrwt beam="2">  1        2 0.44822406E-01 0.17726293E+03</pdfrwt>
<pdfrwt beam="1">  1       -2 0.52430312E-01 0.17726293E+03</pdfrwt>
<totfact> 0.39643339E+02</totfact>
</mgrwt>
</event>
<event>
 4    1  0.7691552E-001  0.3391507E+03  0.7546771E-02  0.1067158E+00
         -2   -1    0    0    0  501 -0.00000000000E+00  0.00000000000E+00  0.77340074110E+02  0.77340074110E+02  0.00000000000E+00 0. -1.
          2   -1    0    0  502    0  0.00000000000E+00 -0.00000000000E+00 -0.15122341519E+04  0.15122341519E+04  0.00000000000E+00 0.  1.
          6    1    1    2  502    0  0.39406864724E+01 -0.29168250459E+03 -0.81962680765E+03  0.88702385329E+03  0.17300000000E+03 0. -1.
         -6    1    1    2    0  501 -0.39406864724E+01  0.29168250459E+03 -0.61526727012E+03  0.70255037269E+03  0.17300000000E+03 0.  1.
<mgrwt>
<rscale>  2 0.33915072E+03</rscale>
<asrwt>0</asrwt>
<pdfrwt beam="2">  1        2 0.23265140E+00 0.33915072E+03</pdfrwt>
<pdfrwt beam="1">  1       -2 0.11898473E-01 0.33915072E+03</pdfrwt>
<totfact> 0.67094603E+02</totfact>
</mgrwt>
</event>
<event>
 4    1  0.7691552E-001  0.1921349E+03  0.7546771E-02  0.1156550E+00
          2   -1    0    0  502    0  0.00000000000E+00  0.00000000000E+00  0.23387690112E+04  0.23387690112E+04  0.00000000000E+00 0. -1.
         -2   -1    0    0    0  501 -0.00000000000E+00 -0.00000000000E+00 -0.15904472556E+02  0.15904472556E+02  0.00000000000E+00 0.  1.
          6    1    1    2  502    0 -0.66199032722E+02 -0.51034464691E+02  0.12637724482E+04  0.12782944220E+04  0.17300000000E+03 0.  1.
         -6    1    1    2    0  501  0.66199032722E+02  0.51034464691E+02  0.10590920905E+04  0.10763790618E+04  0.17300000000E+03 0. -1.
<mgrwt>
<rscale>  2 0.19213492E+03</rscale>
<asrwt>0</asrwt>
<pdfrwt beam="1">  1        2 0.35981034E+00 0.19213492E+03</pdfrwt>
<pdfrwt beam="2">  1       -2 0.24468438E-02 0.19213492E+03</pdfrwt>
<totfact> 0.28270220E+03</totfact>
</mgrwt>
</event>
<event>
 4    1  0.7691552E-001  0.3551210E+03  0.7546771E-02  0.1060533E+00
         -2   -1    0    0    0  501 -0.00000000000E+00  0.00000000000E+00  0.16952061671E+03  0.16952061671E+03  0.00000000000E+00 0. -1.
          2   -1    0    0  502    0  0.00000000000E+00 -0.00000000000E+00 -0.79079379575E+03  0.79079379575E+03  0.00000000000E+00 0.  1.
          6    1    1    2  502    0  0.29575483071E+03 -0.93332935694E+02 -0.19374462751E+03  0.40453422286E+03  0.17300000000E+03 0. -1.
         -6    1    1    2    0  501 -0.29575483071E+03  0.93332935694E+02 -0.42752855152E+03  0.55578018959E+03  0.17300000000E+03 0.  1.
<mgrwt>
<rscale>  2 0.35512105E+03</rscale>
<asrwt>0</asrwt>
<pdfrwt beam="2">  1        2 0.12166059E+00 0.35512105E+03</pdfrwt>
<pdfrwt beam="1">  1       -2 0.26080094E-01 0.35512105E+03</pdfrwt>
<totfact> 0.47476099E+02</totfact>
</mgrwt>
</event>
<event>
 4    1  0.7691552E-001  0.4072879E+03  0.7546771E-02  0.1041285E+00
          2   -1    0    0  502    0  0.00000000000E+00  0.00000000000E+00  0.23877192200E+03  0.23877192200E+03  0.00000000000E+00 0. -1.
         -2   -1    0    0    0  501 -0.00000000000E+00 -0.00000000000E+00 -0.10777339450E+04  0.10777339450E+04  0.00000000000E+00 0.  1.
          6    1    1    2  502    0  0.25148649908E+03  0.26964597572E+03 -0.81188673724E+03  0.90831904392E+03  0.17300000000E+03 0.  1.
         -6    1    1    2    0  501 -0.25148649908E+03 -0.26964597572E+03 -0.27075285764E+02  0.40818682309E+03  0.17300000000E+03 0. -1.
<mgrwt>
<rscale>  2 0.40728787E+03</rscale>
<asrwt>0</asrwt>
<pdfrwt beam="1">  1        2 0.36734142E-01 0.40728787E+03</pdfrwt>
<pdfrwt beam="2">  1       -2 0.16580522E+00 0.40728787E+03</pdfrwt>
<totfact> 0.33766273E+01</totfact>
</mgrwt>
</event>
<event>
 4    1  0.7691552E-001  0.1985201E+03  0.7546771E-02  0.1150994E+00
          2   -1    0    0  502    0  0.00000000000E+00  0.00000000000E+00  0.30392566300E+04  0.30392566300E+04  0.00000000000E+00 0. -1.
         -2   -1    0    0    0  501 -0.00000000000E+00 -0.00000000000E+00 -0.13086342290E+02  0.13086342290E+02  0.00000000000E+00 0.  1.
          6    1    1    2  502    0  0.32650601113E+02  0.91734218933E+02  0.13673786770E+04  0.13817143970E+04  0.17300000000E+03 0.  1.
         -6    1    1    2    0  501 -0.32650601113E+02 -0.91734218933E+02  0.16587916107E+04  0.16706285753E+04  0.17300000000E+03 0. -1.
<mgrwt>
<rscale>  2 0.19852010E+03</rscale>
<asrwt>0</asrwt>
<pdfrwt beam="1">  1        2 0.46757738E+00 0.19852010E+03</pdfrwt>
<pdfrwt beam="2">  1       -2 0.20132858E-02 0.19852010E+03</pdfrwt>
<totfact> 0.15303846E+03</totfact>
</mgrwt>
</event>
<event>
 4    1  0.7691552E-001  0.1805976E+03  0.7546771E-02  0.1167226E+00
          2   -1    0    0  502    0  0.00000000000E+00  0.00000000000E+00  0.61980752893E+02  0.61980752893E+02  0.00000000000E+00 0. -1.
         -2   -1    0    0    0  501 -0.00000000000E+00 -0.00000000000E+00 -0.74017484252E+03  0.74017484252E+03  0.00000000000E+00 0.  1.
          6    1    1    2  502    0 -0.32880406803E+02 -0.40067080985E+02 -0.55473382761E+03  0.58339104521E+03  0.17300000000E+03 0.  1.
         -6    1    1    2    0  501  0.32880406803E+02  0.40067080985E+02 -0.12346026201E+03  0.21876455021E+03  0.17300000000E+03 0. -1.
<mgrwt>
<rscale>  2 0.18059760E+03</rscale>
<asrwt>0</asrwt>
<pdfrwt beam="1">  1        2 0.95355010E-02 0.18059760E+03</pdfrwt>
<pdfrwt beam="2">  1       -2 0.11387305E+00 0.18059760E+03</pdfrwt>
<totfact> 0.42608669E+02</totfact>
</mgrwt>
</event>
<event>
 4    1  0.7691552E-001  0.2468298E+03  0.7546771E-02  0.1115325E+00
          1   -1    0    0  502    0  0.00000000000E+00  0.00000000000E+00  0.73150715227E+03  0.73150715227E+03  0.00000000000E+00 0. -1.
         -1   -1    0    0    0  501 -0.00000000000E+00 -0.00000000000E+00 -0.92918418380E+02  0.92918418380E+02  0.00000000000E+00 0.  1.
          6    1    1    2  502    0 -0.54122171217E+02  0.16753133503E+03  0.45200878254E+03  0.51501155048E+03  0.17300000000E+03 0.  1.
         -6    1    1    2    0  501  0.54122171217E+02 -0.16753133503E+03  0.18657995135E+03  0.30941402017E+03  0.17300000000E+03 0. -1.
<mgrwt>
<rscale>  2 0.24682982E+03</rscale>
<asrwt>0</asrwt>
<pdfrwt beam="1">  1        1 0.11253956E+00 0.24682982E+03</pdfrwt>
<pdfrwt beam="2">  1       -1 0.14295142E-01 0.24682982E+03</pdfrwt>
<totfact> 0.91899547E+02</totfact>
</mgrwt>
</event>
<event>
 4    1  0.7691552E-001  0.2551072E+03  0.7546771E-02  0.1110119E+00
         -1   -1    0    0    0  501 -0.00000000000E+00  0.00000000000E+00  0.25541023247E+02  0.25541023247E+02  0.00000000000E+00 0. -1.
          1   -1    0    0  502    0  0.00000000000E+00 -0.00000000000E+00 -0.42901977625E+04  0.42901977625E+04  0.00000000000E+00 0.  1.
          6    1    1    2  502    0  0.18700051215E+03  0.13472770639E+02 -0.75724361521E+03  0.79906044820E+03  0.17300000000E+03 0. -1.
         -6    1    1    2    0  501 -0.18700051215E+03 -0.13472770639E+02 -0.35074131241E+04  0.35166783376E+04  0.17300000000E+03 0.  1.
<mgrwt>
<rscale>  2 0.25510725E+03</rscale>
<asrwt>0</asrwt>
<pdfrwt beam="2">  1        1 0.66003060E+00 0.25510725E+03</pdfrwt>
<pdfrwt beam="1">  1       -1 0.39293871E-02 0.25510725E+03</pdfrwt>
<totfact> 0.17759905E+01</totfact>
</mgrwt>
</event>
<event>
 4    1  0.7691552E-001  0.2464588E+03  0.7546771E-02  0.1115563E+00
          2   -1    0    0  502    0  0.00000000000E+00  0.00000000000E+00  0.15901638526E+03  0.15901638526E+03  0.00000000000E+00 0. -1.
         -2   -1    0    0    0  501 -0.00000000000E+00 -0.00000000000E+00 -0.48040802170E+03  0.48040802170E+03  0.00000000000E+00 0.  1.
          6    1    1    2  502    0 -0.17499878669E+03  0.13724665803E+02 -0.30540680130E+03  0.39244777496E+03  0.17300000000E+03 0.  1.
         -6    1    1    2    0  501  0.17499878669E+03 -0.13724665803E+02 -0.15984835145E+02  0.24697663199E+03  0.17300000000E+03 0. -1.
<mgrwt>
<rscale>  2 0.24645880E+03</rscale>
<asrwt>0</asrwt>
<pdfrwt beam="1">  1        2 0.24464060E-01 0.24645880E+03</pdfrwt>
<pdfrwt beam="2">  1       -2 0.73908925E-01 0.24645880E+03</pdfrwt>
<totfact> 0.37503041E+02</totfact>
</mgrwt>
</event>
<event>
 4    1  0.7691552E-001  0.2082812E+03  0.7546771E-02  0.1142934E+00
          2   -1    0    0  502    0  0.00000000000E+00  0.00000000000E+00  0.48067713496E+02  0.48067713496E+02  0.00000000000E+00 0.  1.
         -2   -1    0    0    0  501 -0.00000000000E+00 -0.00000000000E+00 -0.90353119857E+03  0.90353119857E+03  0.00000000000E+00 0. -1.
          6    1    1    2  502    0  0.69513622475E+02 -0.92843507698E+02 -0.41164952454E+03  0.46134194659E+03  0.17300000000E+03 0.  1.
         -6    1    1    2    0  501 -0.69513622475E+02  0.92843507698E+02 -0.44381396053E+03  0.49025696547E+03  0.17300000000E+03 0. -1.
<mgrwt>
<rscale>  2 0.20828121E+03</rscale>
<asrwt>0</asrwt>
<pdfrwt beam="1">  1        2 0.73950323E-02 0.20828121E+03</pdfrwt>
<pdfrwt beam="2">  1       -2 0.13900481E+00 0.20828121E+03</pdfrwt>
<totfact> 0.36123393E+02</totfact>
</mgrwt>
</event>
<event>
 4    1  0.7691552E-001  0.2427893E+03  0.7546771E-02  0.1117948E+00
          2   -1    0    0  502    0  0.00000000000E+00  0.00000000000E+00  0.16654099632E+04  0.16654099632E+04  0.00000000000E+00 0.  1.
         -2   -1    0    0    0  501 -0.00000000000E+00 -0.00000000000E+00 -0.38656667890E+02  0.38656667890E+02  0.00000000000E+00 0. -1.
          6    1    1    2  502    0  0.25038137623E+02 -0.16849552128E+03  0.56587067238E+03  0.61575666207E+03  0.17300000000E+03 0. -1.
         -6    1    1    2    0  501 -0.25038137623E+02  0.16849552128E+03  0.10608826230E+04  0.10883099691E+04  0.17300000000E+03 0.  1.
<mgrwt>
<rscale>  2 0.24278931E+03</rscale>
<asrwt>0</asrwt>
<pdfrwt beam="1">  1        2 0.25621686E+00 0.24278931E+03</pdfrwt>
<pdfrwt beam="2">  1       -2 0.59471810E-02 0.24278931E+03</pdfrwt>
<totfact> 0.16745305E+03</totfact>
</mgrwt>
</event>
<event>
 4    1  0.7691552E-001  0.2267288E+03  0.7546771E-02  0.1128964E+00
          2   -1    0    0  502    0  0.00000000000E+00  0.00000000000E+00  0.97501057510E+03  0.97501057510E+03  0.00000000000E+00 0. -1.
         -2   -1    0    0    0  501 -0.00000000000E+00 -0.00000000000E+00 -0.67823225427E+02  0.67823225427E+02  0.00000000000E+00 0.  1.
          6    1    1    2  502    0  0.58364859583E+02 -0.13442645912E+03  0.20756767613E+03  0.30739269660E+03  0.17300000000E+03 0.  1.
         -6    1    1    2    0  501 -0.58364859583E+02  0.13442645912E+03  0.69961967355E+03  0.73544110394E+03  0.17300000000E+03 0. -1.
<mgrwt>
<rscale>  2 0.22672876E+03</rscale>
<asrwt>0</asrwt>
<pdfrwt beam="1">  1        2 0.15000162E+00 0.22672876E+03</pdfrwt>
<pdfrwt beam="2">  1       -2 0.10434343E-01 0.22672876E+03</pdfrwt>
<totfact> 0.16852985E+03</totfact>
</mgrwt>
</event>
<event>
 4    1  0.7691552E-001  0.2504068E+03  0.7546771E-02  0.1113048E+00
         -2   -1    0    0    0  501 -0.00000000000E+00  0.00000000000E+00  0.65955099417E+03  0.65955099417E+03  0.00000000000E+00 0. -1.
          2   -1    0    0  502    0  0.00000000000E+00 -0.00000000000E+00 -0.30252288394E+03  0.30252288394E+03  0.00000000000E+00 0.  1.
          6    1    1    2  502    0 -0.87799421600E+02 -0.15832188166E+03 -0.21983058732E+03  0.33321020958E+03  0.17300000000E+03 0.  1.
         -6    1    1    2    0  501  0.87799421600E+02  0.15832188166E+03  0.57685869755E+03  0.62886366852E+03  0.17300000000E+03 0. -1.
<mgrwt>
<rscale>  2 0.25040678E+03</rscale>
<asrwt>0</asrwt>
<pdfrwt beam="2">  1        2 0.46541982E-01 0.25040678E+03</pdfrwt>
<pdfrwt beam="1">  1       -2 0.10146938E+00 0.25040678E+03</pdfrwt>
<totfact> 0.90820073E+01</totfact>
</mgrwt>
</event>
<event>
 4    1  0.7691552E-001  0.2376568E+03  0.7546771E-02  0.1121364E+00
         -1   -1    0    0    0  501 -0.00000000000E+00  0.00000000000E+00  0.14855090980E+03  0.14855090980E+03  0.00000000000E+00 0.  1.
          1   -1    0    0  502    0  0.00000000000E+00 -0.00000000000E+00 -0.40200081300E+03  0.40200081300E+03  0.00000000000E+00 0. -1.
          6    1    1    2  502    0  0.16291160131E+03 -0.34000591510E+01 -0.62636855147E+02  0.24577250836E+03  0.17300000000E+03 0. -1.
         -6    1    1    2    0  501 -0.16291160131E+03  0.34000591510E+01 -0.19081304805E+03  0.30477921443E+03  0.17300000000E+03 0.  1.
<mgrwt>
<rscale>  2 0.23765679E+03</rscale>
<asrwt>0</asrwt>
<pdfrwt beam="2">  1        1 0.61846279E-01 0.23765679E+03</pdfrwt>
<pdfrwt beam="1">  1       -1 0.22853986E-01 0.23765679E+03</pdfrwt>
<totfact> 0.97487182E+02</totfact>
</mgrwt>
</event>
<event>
 4    1  0.7691552E-001  0.2340596E+03  0.7546771E-02  0.1123815E+00
         -1   -1    0    0    0  501 -0.00000000000E+00  0.00000000000E+00  0.15536204739E+02  0.15536204739E+02  0.00000000000E+00 0.  1.
          1   -1    0    0  502    0  0.00000000000E+00 -0.00000000000E+00 -0.36510061130E+04  0.36510061130E+04  0.00000000000E+00 0. -1.
          6    1    1    2  502    0  0.33615289356E+02  0.15402892707E+03 -0.21566754582E+04  0.21693392842E+04  0.17300000000E+03 0.  1.
         -6    1    1    2    0  501 -0.33615289356E+02 -0.15402892707E+03 -0.14787944501E+04  0.14972030335E+04  0.17300000000E+03 0. -1.
<mgrwt>
<rscale>  2 0.23405960E+03</rscale>
<asrwt>0</asrwt>
<pdfrwt beam="2">  1        1 0.56169357E+00 0.23405960E+03</pdfrwt>
<pdfrwt beam="1">  1       -1 0.23901840E-02 0.23405960E+03</pdfrwt>
<totfact> 0.12821038E+02</totfact>
</mgrwt>
</event>
<event>
 4    1  0.7691552E-001  0.2815406E+03  0.7546771E-02  0.1094850E+00
          2   -1    0    0  502    0  0.00000000000E+00  0.00000000000E+00  0.82504099385E+02  0.82504099385E+02  0.00000000000E+00 0.  1.
         -2   -1    0    0    0  501 -0.00000000000E+00 -0.00000000000E+00 -0.10340015693E+04  0.10340015693E+04  0.00000000000E+00 0. -1.
          6    1    1    2  502    0 -0.54886237651E+02 -0.21522923181E+03 -0.62434355595E+03  0.68488684990E+03  0.17300000000E+03 0.  1.
         -6    1    1    2    0  501  0.54886237651E+02  0.21522923181E+03 -0.32715391396E+03  0.43161881878E+03  0.17300000000E+03 0. -1.
<mgrwt>
<rscale>  2 0.28154062E+03</rscale>
<asrwt>0</asrwt>
<pdfrwt beam="1">  1        2 0.12692939E-01 0.28154062E+03</pdfrwt>
<pdfrwt beam="2">  1       -2 0.15907716E+00 0.28154062E+03</pdfrwt>
<totfact> 0.12985496E+02</totfact>
</mgrwt>
</event>
<event>
 4    1  0.7691552E-001  0.2134275E+03  0.7546771E-02  0.1138880E+00
          2   -1    0    0  502    0  0.00000000000E+00  0.00000000000E+00  0.72810561811E+03  0.72810561811E+03  0.00000000000E+00 0. -1.
         -2   -1    0    0    0  501 -0.00000000000E+00 -0.00000000000E+00 -0.12828739857E+03  0.12828739857E+03  0.00000000000E+00 0.  1.
          6    1    1    2  502    0 -0.48015622349E+02 -0.11539833864E+03  0.60640161298E+03  0.64286405466E+03  0.17300000000E+03 0. -1.
         -6    1    1    2    0  501  0.48015622349E+02  0.11539833864E+03 -0.65833934357E+01  0.21352896202E+03  0.17300000000E+03 0.  1.
<mgrwt>
<rscale>  2 0.21342745E+03</rscale>
<asrwt>0</asrwt>
<pdfrwt beam="1">  1        2 0.11201625E+00 0.21342745E+03</pdfrwt>
<pdfrwt beam="2">  1       -2 0.19736523E-01 0.21342745E+03</pdfrwt>
<totfact> 0.86239464E+02</totfact>
</mgrwt>
</event>
<event>
 4    1  0.7691552E-001  0.1896673E+03  0.7546771E-02  0.1158762E+00
         -2   -1    0    0    0  501 -0.00000000000E+00  0.00000000000E+00  0.36017070551E+02  0.36017070551E+02  0.00000000000E+00 0. -1.
          2   -1    0    0  502    0  0.00000000000E+00 -0.00000000000E+00 -0.11186765853E+04  0.11186765853E+04  0.00000000000E+00 0.  1.
          6    1    1    2  502    0  0.96093309743E+00  0.77741649689E+02 -0.35233059989E+03  0.40013815003E+03  0.17300000000E+03 0. -1.
         -6    1    1    2    0  501 -0.96093309743E+00 -0.77741649689E+02 -0.73032891482E+03  0.75455550579E+03  0.17300000000E+03 0.  1.
<mgrwt>
<rscale>  2 0.18966731E+03</rscale>
<asrwt>0</asrwt>
<pdfrwt beam="2">  1        2 0.17210407E+00 0.18966731E+03</pdfrwt>
<pdfrwt beam="1">  1       -2 0.55410884E-02 0.18966731E+03</pdfrwt>
<totfact> 0.36961612E+03</totfact>
</mgrwt>
</event>
<event>
 4    1  0.7691552E-001  0.1893152E+03  0.7546771E-02  0.1159080E+00
         -1   -1    0    0    0  501 -0.00000000000E+00  0.00000000000E+00  0.21143567633E+04  0.21143567633E+04  0.00000000000E+00 0. -1.
          1   -1    0    0  502    0  0.00000000000E+00 -0.00000000000E+00 -0.17237513712E+02  0.17237513712E+02  0.00000000000E+00 0.  1.
          6    1    1    2  502    0  0.72660386356E+02 -0.25134148411E+02  0.11859901401E+04  0.12010049415E+04  0.17300000000E+03 0. -1.
         -6    1    1    2    0  501 -0.72660386356E+02  0.25134148411E+02  0.91112910951E+03  0.93058933551E+03  0.17300000000E+03 0.  1.
<mgrwt>
<rscale>  2 0.18931523E+03</rscale>
<asrwt>0</asrwt>
<pdfrwt beam="2">  1        1 0.26519269E-02 0.18931523E+03</pdfrwt>
<pdfrwt beam="1">  1       -1 0.32528545E+00 0.18931523E+03</pdfrwt>
<totfact> 0.10983458E+02</totfact>
</mgrwt>
</event>
<event>
 4    1  0.7691552E-001  0.1730963E+03  0.7546771E-02  0.1174657E+00
          1   -1    0    0  502    0  0.00000000000E+00  0.00000000000E+00  0.74101105329E+03  0.74101105329E+03  0.00000000000E+00 0. -1.
         -1   -1    0    0    0  501 -0.00000000000E+00 -0.00000000000E+00 -0.41507035558E+02  0.41507035558E+02  0.00000000000E+00 0.  1.
          6    1    1    2  502    0 -0.43955165532E+01  0.37424590301E+01  0.28685462702E+03  0.33503418275E+03  0.17300000000E+03 0.  1.
         -6    1    1    2    0  501  0.43955165532E+01 -0.37424590301E+01  0.41264939071E+03  0.44748390610E+03  0.17300000000E+03 0. -1.
<mgrwt>
<rscale>  2 0.17309629E+03</rscale>
<asrwt>0</asrwt>
<pdfrwt beam="1">  1        1 0.11400169E+00 0.17309629E+03</pdfrwt>
<pdfrwt beam="2">  1       -1 0.63856983E-02 0.17309629E+03</pdfrwt>
<totfact> 0.31052677E+03</totfact>
</mgrwt>
</event>
<event>
 4    1  0.7691552E-001  0.1853673E+03  0.7546771E-02  0.1162707E+00
          2   -1    0    0  502    0  0.00000000000E+00  0.00000000000E+00  0.12281954705E+04  0.12281954705E+04  0.00000000000E+00 0. -1.
         -2   -1    0    0    0  501 -0.00000000000E+00 -0.00000000000E+00 -0.43657180215E+02  0.43657180215E+02  0.00000000000E+00 0.  1.
          6    1    1    2  502    0  0.54962748058E+02 -0.37564793950E+02  0.97338483204E+03  0.99087791814E+03  0.17300000000E+03 0.  1.
         -6    1    1    2    0  501 -0.54962748058E+02  0.37564793950E+02  0.21115345827E+03  0.28097473260E+03  0.17300000000E+03 0.  1.
<mgrwt>
<rscale>  2 0.18536725E+03</rscale>
<asrwt>0</asrwt>
<pdfrwt beam="1">  1        2 0.18895312E+00 0.18536725E+03</pdfrwt>
<pdfrwt beam="2">  1       -2 0.67164902E-02 0.18536725E+03</pdfrwt>
<totfact> 0.23866220E+03</totfact>
</mgrwt>
</event>
<event>
 4    1  0.7691552E-001  0.1802209E+03  0.7546771E-02  0.1167589E+00
         -1   -1    0    0    0  501 -0.00000000000E+00  0.00000000000E+00  0.18138415517E+02  0.18138415517E+02  0.00000000000E+00 0.  1.
          1   -1    0    0  502    0  0.00000000000E+00 -0.00000000000E+00 -0.23153740802E+04  0.23153740802E+04  0.00000000000E+00 0. -1.
          6    1    1    2  502    0 -0.33783878222E+02 -0.37539373761E+02 -0.17040551056E+04  0.17135586824E+04  0.17300000000E+03 0. -1.
         -6    1    1    2    0  501  0.33783878222E+02  0.37539373761E+02 -0.59318055912E+03  0.61995381338E+03  0.17300000000E+03 0.  1.
<mgrwt>
<rscale>  2 0.18022085E+03</rscale>
<asrwt>0</asrwt>
<pdfrwt beam="2">  1        1 0.35621145E+00 0.18022085E+03</pdfrwt>
<pdfrwt beam="1">  1       -1 0.27905250E-02 0.18022085E+03</pdfrwt>
<totfact> 0.89188875E+02</totfact>
</mgrwt>
</event>
<event>
 4    1  0.7691552E-001  0.2966444E+03  0.7546771E-02  0.1086930E+00
         -1   -1    0    0    0  501 -0.00000000000E+00  0.00000000000E+00  0.89649225125E+02  0.89649225125E+02  0.00000000000E+00 0. -1.
          1   -1    0    0  502    0  0.00000000000E+00 -0.00000000000E+00 -0.15498450235E+04  0.15498450235E+04  0.00000000000E+00 0.  1.
          6    1    1    2  502    0 -0.23656587718E+03  0.45885468219E+02 -0.12264743976E+04  0.12618388718E+04  0.17300000000E+03 0.  1.
         -6    1    1    2    0  501  0.23656587718E+03 -0.45885468219E+02 -0.23372140071E+03  0.37765537675E+03  0.17300000000E+03 0. -1.
<mgrwt>
<rscale>  2 0.29664438E+03</rscale>
<asrwt>0</asrwt>
<pdfrwt beam="2">  1        1 0.23843766E+00 0.29664438E+03</pdfrwt>
<pdfrwt beam="1">  1       -1 0.13792190E-01 0.29664438E+03</pdfrwt>
<totfact> 0.24380402E+02</totfact>
</mgrwt>
</event>
<event>
 4    1  0.7691552E-001  0.2675426E+03  0.7546771E-02  0.1102694E+00
         -2   -1    0    0    0  501 -0.00000000000E+00  0.00000000000E+00  0.39556672077E+03  0.39556672077E+03  0.00000000000E+00 0. -1.
          2   -1    0    0  502    0  0.00000000000E+00 -0.00000000000E+00 -0.20729702580E+03  0.20729702580E+03  0.00000000000E+00 0.  1.
          6    1    1    2  502    0 -0.10869496186E+02 -0.20379376066E+03 -0.13321605207E+02  0.26787405249E+03  0.17300000000E+03 0.  1.
         -6    1    1    2    0  501  0.10869496186E+02  0.20379376066E+03  0.20159130019E+03  0.33498969408E+03  0.17300000000E+03 0. -1.
<mgrwt>
<rscale>  2 0.26754260E+03</rscale>
<asrwt>0</asrwt>
<pdfrwt beam="2">  1        2 0.31891850E-01 0.26754260E+03</pdfrwt>
<pdfrwt beam="1">  1       -2 0.60856418E-01 0.26754260E+03</pdfrwt>
<totfact> 0.42243128E+02</totfact>
</mgrwt>
</event>
<event>
 4    1  0.7691552E-001  0.2436787E+03  0.7546771E-02  0.1117366E+00
          2   -1    0    0  502    0  0.00000000000E+00  0.00000000000E+00  0.14457240962E+04  0.14457240962E+04  0.00000000000E+00 0. -1.
         -2   -1    0    0    0  501 -0.00000000000E+00 -0.00000000000E+00 -0.44194173373E+02  0.44194173373E+02  0.00000000000E+00 0.  1.
          6    1    1    2  502    0  0.11353522869E+03  0.12868589538E+03  0.50277049155E+03  0.55871054670E+03  0.17300000000E+03 0.  1.
         -6    1    1    2    0  501 -0.11353522869E+03 -0.12868589538E+03  0.89875943123E+03  0.93120772283E+03  0.17300000000E+03 0. -1.
<mgrwt>
<rscale>  2 0.24367870E+03</rscale>
<asrwt>0</asrwt>
<pdfrwt beam="1">  1        2 0.22241906E+00 0.24367870E+03</pdfrwt>
<pdfrwt beam="2">  1       -2 0.67991047E-02 0.24367870E+03</pdfrwt>
<totfact> 0.17818637E+03</totfact>
</mgrwt>
</event>
<event>
 4    1  0.7691552E-001  0.2804051E+03  0.7546771E-02  0.1095468E+00
         -1   -1    0    0    0  501 -0.00000000000E+00  0.00000000000E+00  0.13231826799E+04  0.13231826799E+04  0.00000000000E+00 0.  1.
          1   -1    0    0  502    0  0.00000000000E+00 -0.00000000000E+00 -0.59443273574E+02  0.59443273574E+02  0.00000000000E+00 0. -1.
          6    1    1    2  502    0  0.13369479932E+03 -0.17556691204E+03  0.61899739205E+03  0.67954750484E+03  0.17300000000E+03 0. -1.
         -6    1    1    2    0  501 -0.13369479932E+03  0.17556691204E+03  0.64474201430E+03  0.70307844866E+03  0.17300000000E+03 0.  1.
<mgrwt>
<rscale>  2 0.28040514E+03</rscale>
<asrwt>0</asrwt>
<pdfrwt beam="2">  1        1 0.91451200E-02 0.28040514E+03</pdfrwt>
<pdfrwt beam="1">  1       -1 0.20356654E+00 0.28040514E+03</pdfrwt>
<totfact> 0.11454810E+02</totfact>
</mgrwt>
</event>
<event>
 4    1  0.7691552E-001  0.1922404E+03  0.7546771E-02  0.1156456E+00
         -4   -1    0    0    0  501 -0.00000000000E+00  0.00000000000E+00  0.20324082215E+04  0.20324082215E+04  0.00000000000E+00 0.  1.
          4   -1    0    0  502    0  0.00000000000E+00 -0.00000000000E+00 -0.18900166391E+02  0.18900166391E+02  0.00000000000E+00 0. -1.
          6    1    1    2  502    0  0.82053215950E+02 -0.17165408339E+02  0.12064704396E+04  0.12216903466E+04  0.17300000000E+03 0.  1.
         -6    1    1    2    0  501 -0.82053215950E+02  0.17165408339E+02  0.80703761552E+03  0.82961804124E+03  0.17300000000E+03 0. -1.
<mgrwt>
<rscale>  2 0.19224043E+03</rscale>
<asrwt>0</asrwt>
<pdfrwt beam="2">  1        4 0.29077195E-02 0.19224043E+03</pdfrwt>
<pdfrwt beam="1">  1       -4 0.31267802E+00 0.19224043E+03</pdfrwt>
<totfact> 0.31359633E+01</totfact>
</mgrwt>
</event>
<event>
 4    1  0.7691552E-001  0.1777503E+03  0.7546771E-02  0.1169998E+00
          2   -1    0    0  502    0  0.00000000000E+00  0.00000000000E+00  0.28619493891E+04  0.28619493891E+04  0.00000000000E+00 0.  1.
         -2   -1    0    0    0  501 -0.00000000000E+00 -0.00000000000E+00 -0.12682243993E+02  0.12682243993E+02  0.00000000000E+00 0. -1.
          6    1    1    2  502    0 -0.17526893698E+02  0.36864293731E+02  0.19418922499E+04  0.19500104303E+04  0.17300000000E+03 0.  1.
         -6    1    1    2    0  501  0.17526893698E+02 -0.36864293731E+02  0.90737489517E+03  0.92462120273E+03  0.17300000000E+03 0. -1.
<mgrwt>
<rscale>  2 0.17775030E+03</rscale>
<asrwt>0</asrwt>
<pdfrwt beam="1">  1        2 0.44029939E+00 0.17775030E+03</pdfrwt>
<pdfrwt beam="2">  1       -2 0.19511167E-02 0.17775030E+03</pdfrwt>
<totfact> 0.20380234E+03</totfact>
</mgrwt>
</event>
<event>
 4    1  0.7691552E-001  0.2790046E+03  0.7546771E-02  0.1096234E+00
          2   -1    0    0  502    0  0.00000000000E+00  0.00000000000E+00  0.43015614293E+03  0.43015614293E+03  0.00000000000E+00 0.  1.
         -2   -1    0    0    0  501 -0.00000000000E+00 -0.00000000000E+00 -0.21592244861E+03  0.21592244861E+03  0.00000000000E+00 0. -1.
          6    1    1    2  502    0 -0.87046567487E+02  0.20084182103E+03 -0.22861638972E+02  0.27993963014E+03  0.17300000000E+03 0. -1.
         -6    1    1    2    0  501  0.87046567487E+02 -0.20084182103E+03  0.23709533330E+03  0.36613896140E+03  0.17300000000E+03 0.  1.
<mgrwt>
<rscale>  2 0.27900456E+03</rscale>
<asrwt>0</asrwt>
<pdfrwt beam="1">  1        2 0.66177868E-01 0.27900456E+03</pdfrwt>
<pdfrwt beam="2">  1       -2 0.33218838E-01 0.27900456E+03</pdfrwt>
<totfact> 0.62652648E+02</totfact>
</mgrwt>
</event>
<event>
 4    1  0.7691552E-001  0.1865315E+03  0.7546771E-02  0.1161627E+00
          2   -1    0    0  502    0  0.00000000000E+00  0.00000000000E+00  0.59913864452E+03  0.59913864452E+03  0.00000000000E+00 0. -1.
         -2   -1    0    0    0  501 -0.00000000000E+00 -0.00000000000E+00 -0.80419737986E+02  0.80419737986E+02  0.00000000000E+00 0.  1.
          6    1    1    2  502    0 -0.69727259074E+02 -0.17582142199E+01  0.80249706521E+02  0.20306156055E+03  0.17300000000E+03 0. -1.
         -6    1    1    2    0  501  0.69727259074E+02  0.17582142199E+01  0.43846920001E+03  0.47649682196E+03  0.17300000000E+03 0. -1.
<mgrwt>
<rscale>  2 0.18653145E+03</rscale>
<asrwt>0</asrwt>
<pdfrwt beam="1">  1        2 0.92175173E-01 0.18653145E+03</pdfrwt>
<pdfrwt beam="2">  1       -2 0.12372268E-01 0.18653145E+03</pdfrwt>
<totfact> 0.23526641E+03</totfact>
</mgrwt>
</event>
<event>
 4    1  0.7691552E-001  0.1825860E+03  0.7546771E-02  0.1165323E+00
         -2   -1    0    0    0  501 -0.00000000000E+00  0.00000000000E+00  0.21714568745E+02  0.21714568745E+02  0.00000000000E+00 0. -1.
          2   -1    0    0  502    0  0.00000000000E+00 -0.00000000000E+00 -0.16814814258E+04  0.16814814258E+04  0.00000000000E+00 0.  1.
          6    1    1    2  502    0  0.14563352256E+02  0.56538204871E+02 -0.57876200047E+03  0.60687981762E+03  0.17300000000E+03 0. -1.
         -6    1    1    2    0  501 -0.14563352256E+02 -0.56538204871E+02 -0.10810048566E+04  0.10963161769E+04  0.17300000000E+03 0.  1.
<mgrwt>
<rscale>  2 0.18258603E+03</rscale>
<asrwt>0</asrwt>
<pdfrwt beam="2">  1        2 0.25868953E+00 0.18258603E+03</pdfrwt>
<pdfrwt beam="1">  1       -2 0.33407019E-02 0.18258603E+03</pdfrwt>
<totfact> 0.39257135E+03</totfact>
</mgrwt>
</event>
<event>
 4    1  0.7691552E-001  0.1899041E+03  0.7546771E-02  0.1158548E+00
         -1   -1    0    0    0  501 -0.00000000000E+00  0.00000000000E+00  0.13959513717E+03  0.13959513717E+03  0.00000000000E+00 0. -1.
          1   -1    0    0  502    0  0.00000000000E+00 -0.00000000000E+00 -0.26465625875E+03  0.26465625875E+03  0.00000000000E+00 0.  1.
          6    1    1    2  502    0 -0.67829895053E+02  0.39162179717E+02 -0.31314963758E+02  0.19246869340E+03  0.17300000000E+03 0. -1.
         -6    1    1    2    0  501  0.67829895053E+02 -0.39162179717E+02 -0.93746157823E+02  0.21178270253E+03  0.17300000000E+03 0.  1.
<mgrwt>
<rscale>  2 0.18990411E+03</rscale>
<asrwt>0</asrwt>
<pdfrwt beam="2">  1        1 0.40716347E-01 0.18990411E+03</pdfrwt>
<pdfrwt beam="1">  1       -1 0.21476175E-01 0.18990411E+03</pdfrwt>
<totfact> 0.18227719E+03</totfact>
</mgrwt>
</event>
<event>
 4    1  0.7691552E-001  0.1824080E+03  0.7546771E-02  0.1165493E+00
          2   -1    0    0  502    0  0.00000000000E+00  0.00000000000E+00  0.12702073748E+04  0.12702073748E+04  0.00000000000E+00 0. -1.
         -2   -1    0    0    0  501 -0.00000000000E+00 -0.00000000000E+00 -0.29050818959E+02  0.29050818959E+02  0.00000000000E+00 0.  1.
          6    1    1    2  502    0  0.57404556954E+02  0.69574621786E+01  0.82427081805E+03  0.84421269295E+03  0.17300000000E+03 0. -1.
         -6    1    1    2    0  501 -0.57404556954E+02 -0.69574621786E+01  0.41688573779E+03  0.45504550082E+03  0.17300000000E+03 0.  1.
<mgrwt>
<rscale>  2 0.18240803E+03</rscale>
<asrwt>0</asrwt>
<pdfrwt beam="1">  1        2 0.19541648E+00 0.18240803E+03</pdfrwt>
<pdfrwt beam="2">  1       -2 0.44693578E-02 0.18240803E+03</pdfrwt>
<totfact> 0.42012073E+03</totfact>
</mgrwt>
</event>
<event>
 4    1  0.7691552E-001  0.2126373E+03  0.7546771E-02  0.1139494E+00
         -2   -1    0    0    0  501 -0.00000000000E+00  0.00000000000E+00  0.15972763032E+03  0.15972763032E+03  0.00000000000E+00 0.  1.
          2   -1    0    0  502    0  0.00000000000E+00 -0.00000000000E+00 -0.42109091881E+03  0.42109091881E+03  0.00000000000E+00 0. -1.
          6    1    1    2  502    0  0.89695132110E+02  0.85090473418E+02  0.35579217164E+02  0.21559333497E+03  0.17300000000E+03 0. -1.
         -6    1    1    2    0  501 -0.89695132110E+02 -0.85090473418E+02 -0.29694250566E+03  0.36522521416E+03  0.17300000000E+03 0. -1.
<mgrwt>
<rscale>  2 0.21263726E+03</rscale>
<asrwt>0</asrwt>
<pdfrwt beam="2">  1        2 0.64783217E-01 0.21263726E+03</pdfrwt>
<pdfrwt beam="1">  1       -2 0.24573482E-01 0.21263726E+03</pdfrwt>
<totfact> 0.11038812E+03</totfact>
</mgrwt>
</event>
<event>
 4    1  0.7691552E-001  0.1735363E+03  0.7546771E-02  0.1174209E+00
         -2   -1    0    0    0  501 -0.00000000000E+00  0.00000000000E+00  0.24461058794E+03  0.24461058794E+03  0.00000000000E+00 0. -1.
          2   -1    0    0  502    0  0.00000000000E+00 -0.00000000000E+00 -0.13689147475E+03  0.13689147475E+03  0.00000000000E+00 0.  1.
          6    1    1    2  502    0 -0.43721180577E+01  0.12912552235E+02 -0.66567520927E+01  0.17366393342E+03  0.17300000000E+03 0.  1.
         -6    1    1    2    0  501  0.43721180577E+01 -0.12912552235E+02  0.11437586529E+03  0.20783812928E+03  0.17300000000E+03 0. -1.
<mgrwt>
<rscale>  2 0.17353631E+03</rscale>
<asrwt>0</asrwt>
<pdfrwt beam="2">  1        2 0.21060227E-01 0.17353631E+03</pdfrwt>
<pdfrwt beam="1">  1       -2 0.37632398E-01 0.17353631E+03</pdfrwt>
<totfact> 0.17227573E+03</totfact>
</mgrwt>
</event>
<event>
 4    1  0.7691552E-001  0.1756162E+03  0.7546771E-02  0.1172114E+00
         -2   -1    0    0    0  501 -0.00000000000E+00  0.00000000000E+00  0.25158407731E+03  0.25158407731E+03  0.00000000000E+00 0.  1.
          2   -1    0    0  502    0  0.00000000000E+00 -0.00000000000E+00 -0.19454993557E+03  0.19454993557E+03  0.00000000000E+00 0. -1.
          6    1    1    2  502    0  0.25845842215E+02  0.15622060367E+02 -0.10714948542E+03  0.20572328151E+03  0.17300000000E+03 0. -1.
         -6    1    1    2    0  501 -0.25845842215E+02 -0.15622060367E+02  0.16418362716E+03  0.24041073137E+03  0.17300000000E+03 0.  1.
<mgrwt>
<rscale>  2 0.17561622E+03</rscale>
<asrwt>0</asrwt>
<pdfrwt beam="2">  1        2 0.29930759E-01 0.17561622E+03</pdfrwt>
<pdfrwt beam="1">  1       -2 0.38705243E-01 0.17561622E+03</pdfrwt>
<totfact> 0.11060591E+03</totfact>
</mgrwt>
</event>
<event>
 4    1  0.7691552E-001  0.2339180E+03  0.7546771E-02  0.1123912E+00
          2   -1    0    0  502    0  0.00000000000E+00  0.00000000000E+00  0.12183701044E+04  0.12183701044E+04  0.00000000000E+00 0. -1.
         -2   -1    0    0    0  501 -0.00000000000E+00 -0.00000000000E+00 -0.49723647759E+02  0.49723647759E+02  0.00000000000E+00 0.  1.
          6    1    1    2  502    0 -0.29904265791E+02 -0.15457803860E+03  0.78158983062E+03  0.81584330509E+03  0.17300000000E+03 0.  1.
         -6    1    1    2    0  501  0.29904265791E+02  0.15457803860E+03  0.38705662604E+03  0.45225044709E+03  0.17300000000E+03 0.  1.
<mgrwt>
<rscale>  2 0.23391801E+03</rscale>
<asrwt>0</asrwt>
<pdfrwt beam="1">  1        2 0.18744153E+00 0.23391801E+03</pdfrwt>
<pdfrwt beam="2">  1       -2 0.76497929E-02 0.23391801E+03</pdfrwt>
<totfact> 0.19781446E+03</totfact>
</mgrwt>
</event>
<event>
 4    1  0.7691552E-001  0.3271349E+03  0.7546771E-02  0.1072412E+00
          2   -1    0    0  502    0  0.00000000000E+00  0.00000000000E+00  0.25827330400E+03  0.25827330400E+03  0.00000000000E+00 0. -1.
         -2   -1    0    0    0  501 -0.00000000000E+00 -0.00000000000E+00 -0.45928678953E+03  0.45928678953E+03  0.00000000000E+00 0.  1.
          6    1    1    2  502    0 -0.27717640703E+03  0.16169521246E+02 -0.21272307461E+03  0.39021573585E+03  0.17300000000E+03 0.  1.
         -6    1    1    2    0  501  0.27717640703E+03 -0.16169521246E+02  0.11709589075E+02  0.32734435769E+03  0.17300000000E+03 0. -1.
<mgrwt>
<rscale>  2 0.32713486E+03</rscale>
<asrwt>0</asrwt>
<pdfrwt beam="1">  1        2 0.39734355E-01 0.32713486E+03</pdfrwt>
<pdfrwt beam="2">  1       -2 0.70659506E-01 0.32713486E+03</pdfrwt>
<totfact> 0.24154659E+02</totfact>
</mgrwt>
</event>
<event>
 4    1  0.7691552E-001  0.2128980E+03  0.7546771E-02  0.1139291E+00
          2   -1    0    0  502    0  0.00000000000E+00  0.00000000000E+00  0.34828628730E+04  0.34828628730E+04  0.00000000000E+00 0. -1.
         -2   -1    0    0    0  501 -0.00000000000E+00 -0.00000000000E+00 -0.13872880860E+02  0.13872880860E+02  0.00000000000E+00 0.  1.
          6    1    1    2  502    0  0.26002648330E+02 -0.12132767550E+03  0.21695533555E+04  0.21799741523E+04  0.17300000000E+03 0. -1.
         -6    1    1    2    0  501 -0.26002648330E+02  0.12132767550E+03  0.12994366366E+04  0.13167616015E+04  0.17300000000E+03 0. -1.
<mgrwt>
<rscale>  2 0.21289796E+03</rscale>
<asrwt>0</asrwt>
<pdfrwt beam="1">  1        2 0.53582436E+00 0.21289796E+03</pdfrwt>
<pdfrwt beam="2">  1       -2 0.21342921E-02 0.21289796E+03</pdfrwt>
<totfact> 0.74248824E+02</totfact>
</mgrwt>
</event>
<event>
 4    1  0.7691552E-001  0.1766456E+03  0.7546771E-02  0.1171089E+00
         -1   -1    0    0    0  501 -0.00000000000E+00  0.00000000000E+00  0.25300860876E+02  0.25300860876E+02  0.00000000000E+00 0. -1.
          1   -1    0    0  502    0  0.00000000000E+00 -0.00000000000E+00 -0.12398757515E+04  0.12398757515E+04  0.00000000000E+00 0.  1.
          6    1    1    2  502    0  0.34585656652E+02  0.88605849580E+01 -0.65333858636E+03  0.67679759606E+03  0.17300000000E+03 0. -1.
         -6    1    1    2    0  501 -0.34585656652E+02 -0.88605849580E+01 -0.56123630428E+03  0.58837901633E+03  0.17300000000E+03 0. -1.
<mgrwt>
<rscale>  2 0.17664563E+03</rscale>
<asrwt>0</asrwt>
<pdfrwt beam="2">  1        1 0.19075009E+00 0.17664563E+03</pdfrwt>
<pdfrwt beam="1">  1       -1 0.38924406E-02 0.17664563E+03</pdfrwt>
<totfact> 0.27360085E+03</totfact>
</mgrwt>
</event>
<event>
 4    1  0.7691552E-001  0.2246907E+03  0.7546771E-02  0.1130433E+00
         -2   -1    0    0    0  501 -0.00000000000E+00  0.00000000000E+00  0.25499060315E+02  0.25499060315E+02  0.00000000000E+00 0. -1.
          2   -1    0    0  502    0  0.00000000000E+00 -0.00000000000E+00 -0.32577286353E+04  0.32577286353E+04  0.00000000000E+00 0.  1.
          6    1    1    2  502    0 -0.13307185519E+03 -0.53374086830E+02 -0.26442440368E+04  0.26537732454E+04  0.17300000000E+03 0. -1.
         -6    1    1    2    0  501  0.13307185519E+03  0.53374086830E+02 -0.58798553812E+03  0.62945445016E+03  0.17300000000E+03 0. -1.
<mgrwt>
<rscale>  2 0.22469070E+03</rscale>
<asrwt>0</asrwt>
<pdfrwt beam="2">  1        2 0.50118863E+00 0.22469070E+03</pdfrwt>
<pdfrwt beam="1">  1       -2 0.39229354E-02 0.22469070E+03</pdfrwt>
<totfact> 0.41670304E+02</totfact>
</mgrwt>
</event>
<event>
 4    1  0.7691552E-001  0.1837611E+03  0.7546771E-02  0.1164212E+00
          1   -1    0    0  502    0  0.00000000000E+00  0.00000000000E+00  0.12756716629E+03  0.12756716629E+03  0.00000000000E+00 0. -1.
         -1   -1    0    0    0  501 -0.00000000000E+00 -0.00000000000E+00 -0.66508134861E+03  0.66508134861E+03  0.00000000000E+00 0.  1.
          6    1    1    2  502    0 -0.61549231536E+02  0.71288074494E+01  0.38743190094E+02  0.18780085883E+03  0.17300000000E+03 0. -1.
         -6    1    1    2    0  501  0.61549231536E+02 -0.71288074494E+01 -0.57625737241E+03  0.60484765607E+03  0.17300000000E+03 0.  1.
<mgrwt>
<rscale>  2 0.18376106E+03</rscale>
<asrwt>0</asrwt>
<pdfrwt beam="1">  1        1 0.19625718E-01 0.18376106E+03</pdfrwt>
<pdfrwt beam="2">  1       -1 0.10232021E+00 0.18376106E+03</pdfrwt>
<totfact> 0.25321289E+02</totfact>
</mgrwt>
</event>
<event>
 4    1  0.7691552E-001  0.2106334E+03  0.7546771E-02  0.1141065E+00
          2   -1    0    0  502    0  0.00000000000E+00  0.00000000000E+00  0.80609731981E+03  0.80609731981E+03  0.00000000000E+00 0.  1.
         -2   -1    0    0    0  501 -0.00000000000E+00 -0.00000000000E+00 -0.56323212365E+02  0.56323212365E+02  0.00000000000E+00 0. -1.
          6    1    1    2  502    0  0.28307950557E+02  0.11677374835E+03  0.30976388294E+03  0.37459326148E+03  0.17300000000E+03 0. -1.
         -6    1    1    2    0  501 -0.28307950557E+02 -0.11677374835E+03  0.44001022451E+03  0.48782727070E+03  0.17300000000E+03 0.  1.
<mgrwt>
<rscale>  2 0.21063345E+03</rscale>
<asrwt>0</asrwt>
<pdfrwt beam="1">  1        2 0.12401496E+00 0.21063345E+03</pdfrwt>
<pdfrwt beam="2">  1       -2 0.86651102E-02 0.21063345E+03</pdfrwt>
<totfact> 0.29071529E+03</totfact>
</mgrwt>
</event>
<event>
 4    1  0.7691552E-001  0.1937367E+03  0.7546771E-02  0.1155134E+00
          2   -1    0    0  502    0  0.00000000000E+00  0.00000000000E+00  0.21119812514E+04  0.21119812514E+04  0.00000000000E+00 0.  1.
         -2   -1    0    0    0  501 -0.00000000000E+00 -0.00000000000E+00 -0.17904902818E+02  0.17904902818E+02  0.00000000000E+00 0. -1.
          6    1    1    2  502    0 -0.81193929393E+02 -0.31819256292E+02  0.11388230474E+04  0.11551847699E+04  0.17300000000E+03 0.  1.
         -6    1    1    2    0  501  0.81193929393E+02  0.31819256292E+02  0.95525330119E+03  0.97470138436E+03  0.17300000000E+03 0. -1.
<mgrwt>
<rscale>  2 0.19373673E+03</rscale>
<asrwt>0</asrwt>
<pdfrwt beam="1">  1        2 0.32492000E+00 0.19373673E+03</pdfrwt>
<pdfrwt beam="2">  1       -2 0.27546021E-02 0.19373673E+03</pdfrwt>
<totfact> 0.31246106E+03</totfact>
</mgrwt>
</event>
<event>
 4    1  0.7691552E-001  0.1886564E+03  0.7546771E-02  0.1159679E+00
          1   -1    0    0  502    0  0.00000000000E+00  0.00000000000E+00  0.16929571540E+04  0.16929571540E+04  0.00000000000E+00 0.  1.
         -1   -1    0    0    0  501 -0.00000000000E+00 -0.00000000000E+00 -0.22648985455E+02  0.22648985455E+02  0.00000000000E+00 0. -1.
          6    1    1    2  502    0 -0.16656673859E+02 -0.73381113293E+02  0.60532434830E+03  0.63404163839E+03  0.17300000000E+03 0.  1.
         -6    1    1    2    0  501  0.16656673859E+02  0.73381113293E+02  0.10649838203E+04  0.10815645011E+04  0.17300000000E+03 0.  1.
<mgrwt>
<rscale>  2 0.18865639E+03</rscale>
<asrwt>0</asrwt>
<pdfrwt beam="1">  1        1 0.26045485E+00 0.18865639E+03</pdfrwt>
<pdfrwt beam="2">  1       -1 0.34844606E-02 0.18865639E+03</pdfrwt>
<totfact> 0.16184129E+03</totfact>
</mgrwt>
</event>
<event>
 4    1  0.7691552E-001  0.1780863E+03  0.7546771E-02  0.1169668E+00
         -2   -1    0    0    0  501 -0.00000000000E+00  0.00000000000E+00  0.67869416807E+02  0.67869416807E+02  0.00000000000E+00 0.  1.
          2   -1    0    0  502    0  0.00000000000E+00 -0.00000000000E+00 -0.51280339637E+03  0.51280339637E+03  0.00000000000E+00 0. -1.
          6    1    1    2  502    0  0.42254755441E+02 -0.49921956431E+00 -0.13597125276E+03  0.22406002579E+03  0.17300000000E+03 0.  1.
         -6    1    1    2    0  501 -0.42254755441E+02  0.49921956431E+00 -0.30896272680E+03  0.35661278739E+03  0.17300000000E+03 0. -1.
<mgrwt>
<rscale>  2 0.17808625E+03</rscale>
<asrwt>0</asrwt>
<pdfrwt beam="2">  1        2 0.78892829E-01 0.17808625E+03</pdfrwt>
<pdfrwt beam="1">  1       -2 0.10441449E-01 0.17808625E+03</pdfrwt>
<totfact> 0.36751248E+03</totfact>
</mgrwt>
</event>
<event>
 4    1  0.7691552E-001  0.1799796E+03  0.7546771E-02  0.1167823E+00
          1   -1    0    0  502    0  0.00000000000E+00  0.00000000000E+00  0.12161560812E+03  0.12161560812E+03  0.00000000000E+00 0. -1.
         -1   -1    0    0    0  501 -0.00000000000E+00 -0.00000000000E+00 -0.27289024226E+03  0.27289024226E+03  0.00000000000E+00 0.  1.
          6    1    1    2  502    0  0.34867539297E+02 -0.35325879686E+02 -0.10616767718E+03  0.20895989747E+03  0.17300000000E+03 0.  1.
         -6    1    1    2    0  501 -0.34867539297E+02  0.35325879686E+02 -0.45106956960E+02  0.18554595290E+03  0.17300000000E+03 0. -1.
<mgrwt>
<rscale>  2 0.17997962E+03</rscale>
<asrwt>0</asrwt>
<pdfrwt beam="1">  1        1 0.18710094E-01 0.17997962E+03</pdfrwt>
<pdfrwt beam="2">  1       -1 0.41983114E-01 0.17997962E+03</pdfrwt>
<totfact> 0.15576577E+03</totfact>
</mgrwt>
</event>
<event>
 4    1  0.7691552E-001  0.2093643E+03  0.7546771E-02  0.1142070E+00
         -1   -1    0    0    0  501 -0.00000000000E+00  0.00000000000E+00  0.21327835983E+02  0.21327835983E+02  0.00000000000E+00 0.  1.
          1   -1    0    0  502    0  0.00000000000E+00 -0.00000000000E+00 -0.25159192996E+04  0.25159192996E+04  0.00000000000E+00 0. -1.
          6    1    1    2  502    0  0.15768288045E+02 -0.11685786760E+03 -0.17901622865E+04  0.18023635627E+04  0.17300000000E+03 0. -1.
         -6    1    1    2    0  501 -0.15768288045E+02  0.11685786760E+03 -0.70442917717E+03  0.73488357294E+03  0.17300000000E+03 0. -1.
<mgrwt>
<rscale>  2 0.20936428E+03</rscale>
<asrwt>0</asrwt>
<pdfrwt beam="2">  1        1 0.38706436E+00 0.20936428E+03</pdfrwt>
<pdfrwt beam="1">  1       -1 0.32812068E-02 0.20936428E+03</pdfrwt>
<totfact> 0.51668978E+02</totfact>
</mgrwt>
</event>
<event>
 4    1  0.7691552E-001  0.2347828E+03  0.7546771E-02  0.1123318E+00
          2   -1    0    0  502    0  0.00000000000E+00  0.00000000000E+00  0.34199483887E+04  0.34199483887E+04  0.00000000000E+00 0. -1.
         -2   -1    0    0    0  501 -0.00000000000E+00 -0.00000000000E+00 -0.16306466346E+02  0.16306466346E+02  0.00000000000E+00 0.  1.
          6    1    1    2  502    0  0.91568433270E+02 -0.12965026278E+03  0.18864973241E+04  0.19010510573E+04  0.17300000000E+03 0. -1.
         -6    1    1    2    0  501 -0.91568433270E+02  0.12965026278E+03  0.15171445982E+04  0.15352037977E+04  0.17300000000E+03 0.  1.
<mgrwt>
<rscale>  2 0.23478281E+03</rscale>
<asrwt>0</asrwt>
<pdfrwt beam="1">  1        2 0.52614533E+00 0.23478281E+03</pdfrwt>
<pdfrwt beam="2">  1       -2 0.25086899E-02 0.23478281E+03</pdfrwt>
<totfact> 0.63862118E+02</totfact>
</mgrwt>
</event>
<event>
 4    1  0.7691552E-001  0.5172017E+03  0.7546771E-02  0.1009384E+00
         -2   -1    0    0    0  501 -0.00000000000E+00  0.00000000000E+00  0.14700928405E+03  0.14700928405E+03  0.00000000000E+00 0.  1.
          2   -1    0    0  502    0  0.00000000000E+00 -0.00000000000E+00 -0.21377732819E+04  0.21377732819E+04  0.00000000000E+00 0. -1.
          6    1    1    2  502    0  0.18857434484E+02  0.48704514020E+03 -0.14361076566E+04  0.15264019041E+04  0.17300000000E+03 0. -1.
         -6    1    1    2    0  501 -0.18857434484E+02 -0.48704514020E+03 -0.55465634127E+03  0.75838066190E+03  0.17300000000E+03 0.  1.
<mgrwt>
<rscale>  2 0.51720167E+03</rscale>
<asrwt>0</asrwt>
<pdfrwt beam="2">  1        2 0.32888818E+00 0.51720167E+03</pdfrwt>
<pdfrwt beam="1">  1       -2 0.22616814E-01 0.51720167E+03</pdfrwt>
<totfact> 0.10192084E+02</totfact>
</mgrwt>
</event>
<event>
 4    1  0.7691552E-001  0.2028974E+03  0.7546771E-02  0.1147317E+00
         -2   -1    0    0    0  501 -0.00000000000E+00  0.00000000000E+00  0.27088259300E+02  0.27088259300E+02  0.00000000000E+00 0.  1.
          2   -1    0    0  502    0  0.00000000000E+00 -0.00000000000E+00 -0.24899354826E+04  0.24899354826E+04  0.00000000000E+00 0. -1.
          6    1    1    2  502    0  0.73693862358E+02  0.76207467121E+02 -0.20170043194E+04  0.20271837085E+04  0.17300000000E+03 0. -1.
         -6    1    1    2    0  501 -0.73693862358E+02 -0.76207467121E+02 -0.44584290388E+03  0.48984003341E+03  0.17300000000E+03 0.  1.
<mgrwt>
<rscale>  2 0.20289742E+03</rscale>
<asrwt>0</asrwt>
<pdfrwt beam="2">  1        2 0.38306693E+00 0.20289742E+03</pdfrwt>
<pdfrwt beam="1">  1       -2 0.41674252E-02 0.20289742E+03</pdfrwt>
<totfact> 0.10611088E+03</totfact>
</mgrwt>
</event>
<event>
 4    1  0.7691552E-001  0.1936621E+03  0.7546771E-02  0.1155199E+00
         -2   -1    0    0    0  501 -0.00000000000E+00  0.00000000000E+00  0.11079263208E+03  0.11079263208E+03  0.00000000000E+00 0. -1.
          2   -1    0    0  502    0  0.00000000000E+00 -0.00000000000E+00 -0.34803455426E+03  0.34803455426E+03  0.00000000000E+00 0.  1.
          6    1    1    2  502    0  0.28967913161E+02  0.82078515063E+02 -0.80680291348E+02  0.20979592951E+03  0.17300000000E+03 0.  1.
         -6    1    1    2    0  501 -0.28967913161E+02 -0.82078515063E+02 -0.15656163083E+03  0.24903125683E+03  0.17300000000E+03 0.  1.
<mgrwt>
<rscale>  2 0.19366214E+03</rscale>
<asrwt>0</asrwt>
<pdfrwt beam="2">  1        2 0.53543777E-01 0.19366214E+03</pdfrwt>
<pdfrwt beam="1">  1       -2 0.17045021E-01 0.19366214E+03</pdfrwt>
<totfact> 0.25332761E+03</totfact>
</mgrwt>
</event>
<event>
 4    1  0.7691552E-001  0.2205528E+03  0.7546771E-02  0.1133472E+00
          1   -1    0    0  502    0  0.00000000000E+00  0.00000000000E+00  0.46815727021E+03  0.46815727021E+03  0.00000000000E+00 0. -1.
         -1   -1    0    0    0  501 -0.00000000000E+00 -0.00000000000E+00 -0.10544440531E+03  0.10544440531E+03  0.00000000000E+00 0.  1.
          6    1    1    2  502    0 -0.52627347297E+02  0.12627304959E+03  0.21601843945E+03  0.30871910682E+03  0.17300000000E+03 0. -1.
         -6    1    1    2    0  501  0.52627347297E+02 -0.12627304959E+03  0.14669442546E+03  0.26488256869E+03  0.17300000000E+03 0.  1.
<mgrwt>
<rscale>  2 0.22055276E+03</rscale>
<asrwt>0</asrwt>
<pdfrwt beam="1">  1        1 0.72024194E-01 0.22055276E+03</pdfrwt>
<pdfrwt beam="2">  1       -1 0.16222216E-01 0.22055276E+03</pdfrwt>
<totfact> 0.13936137E+03</totfact>
</mgrwt>
</event>
<event>
 4    1  0.7691552E-001  0.2266558E+03  0.7546771E-02  0.1129016E+00
          2   -1    0    0  502    0  0.00000000000E+00  0.00000000000E+00  0.33729744410E+04  0.33729744410E+04  0.00000000000E+00 0. -1.
         -2   -1    0    0    0  501 -0.00000000000E+00 -0.00000000000E+00 -0.17520384549E+02  0.17520384549E+02  0.00000000000E+00 0.  1.
          6    1    1    2  502    0  0.10124417730E+03  0.10579922133E+03  0.22905660020E+04  0.23017526949E+04  0.17300000000E+03 0. -1.
         -6    1    1    2    0  501 -0.10124417730E+03 -0.10579922133E+03  0.10648880544E+04  0.10887421306E+04  0.17300000000E+03 0.  1.
<mgrwt>
<rscale>  2 0.22665582E+03</rscale>
<asrwt>0</asrwt>
<pdfrwt beam="1">  1        2 0.51891863E+00 0.22665582E+03</pdfrwt>
<pdfrwt beam="2">  1       -2 0.26954465E-02 0.22665582E+03</pdfrwt>
<totfact> 0.61692905E+02</totfact>
</mgrwt>
</event>
<event>
 4    1  0.7691552E-001  0.1842938E+03  0.7546771E-02  0.1163711E+00
         -1   -1    0    0    0  501 -0.00000000000E+00  0.00000000000E+00  0.18570958362E+03  0.18570958362E+03  0.00000000000E+00 0.  1.
          1   -1    0    0  502    0  0.00000000000E+00 -0.00000000000E+00 -0.42221192181E+03  0.42221192181E+03  0.00000000000E+00 0. -1.
          6    1    1    2  502    0  0.37403767976E+02 -0.51343731713E+02  0.11059545395E+03  0.21493155906E+03  0.17300000000E+03 0.  1.
         -6    1    1    2    0  501 -0.37403767976E+02  0.51343731713E+02 -0.34709779213E+03  0.39298994637E+03  0.17300000000E+03 0. -1.
<mgrwt>
<rscale>  2 0.18429384E+03</rscale>
<asrwt>0</asrwt>
<pdfrwt beam="2">  1        1 0.64955679E-01 0.18429384E+03</pdfrwt>
<pdfrwt beam="1">  1       -1 0.28570706E-01 0.18429384E+03</pdfrwt>
<totfact> 0.63096499E+02</totfact>
</mgrwt>
</event>
<event>
 4    1  0.7691552E-001  0.2420880E+03  0.7546771E-02  0.1118410E+00
          1   -1    0    0  502    0  0.00000000000E+00  0.00000000000E+00  0.30637887060E+03  0.30637887060E+03  0.00000000000E+00 0. -1.
         -1   -1    0    0    0  501 -0.00000000000E+00 -0.00000000000E+00 -0.19973548460E+03  0.19973548460E+03  0.00000000000E+00 0.  1.
          6    1    1    2  502    0 -0.20881522638E+02 -0.16805226088E+03  0.10536379584E+03  0.26402297219E+03  0.17300000000E+03 0.  1.
         -6    1    1    2    0  501  0.20881522638E+02  0.16805226088E+03  0.12795901646E+01  0.24209138300E+03  0.17300000000E+03 0. -1.
<mgrwt>
<rscale>  2 0.24208800E+03</rscale>
<asrwt>0</asrwt>
<pdfrwt beam="1">  1        1 0.47135211E-01 0.24208800E+03</pdfrwt>
<pdfrwt beam="2">  1       -1 0.30728536E-01 0.24208800E+03</pdfrwt>
<totfact> 0.83794758E+02</totfact>
</mgrwt>
</event>
<event>
 4    1  0.7691552E-001  0.1909978E+03  0.7546771E-02  0.1157564E+00
          1   -1    0    0  502    0  0.00000000000E+00  0.00000000000E+00  0.27799913000E+03  0.27799913000E+03  0.00000000000E+00 0.  1.
         -1   -1    0    0    0  501 -0.00000000000E+00 -0.00000000000E+00 -0.13841389240E+03  0.13841389240E+03  0.00000000000E+00 0. -1.
          6    1    1    2  502    0  0.59044155241E+02  0.55362096339E+02  0.22339593237E+02  0.19229984765E+03  0.17300000000E+03 0. -1.
         -6    1    1    2    0  501 -0.59044155241E+02 -0.55362096339E+02  0.11724564436E+03  0.22411317476E+03  0.17300000000E+03 0.  1.
<mgrwt>
<rscale>  2 0.19099784E+03</rscale>
<asrwt>0</asrwt>
<pdfrwt beam="1">  1        1 0.42769097E-01 0.19099784E+03</pdfrwt>
<pdfrwt beam="2">  1       -1 0.21294445E-01 0.19099784E+03</pdfrwt>
<totfact> 0.17383926E+03</totfact>
</mgrwt>
</event>
<event>
 4    1  0.7691552E-001  0.1909636E+03  0.7546771E-02  0.1157595E+00
         -4   -1    0    0    0  501 -0.00000000000E+00  0.00000000000E+00  0.28424497982E+02  0.28424497982E+02  0.00000000000E+00 0.  1.
          4   -1    0    0  502    0  0.00000000000E+00 -0.00000000000E+00 -0.12898847053E+04  0.12898847053E+04  0.00000000000E+00 0. -1.
          6    1    1    2  502    0  0.41311440073E+02  0.69508735420E+02 -0.67907463203E+03  0.70541438548E+03  0.17300000000E+03 0.  1.
         -6    1    1    2    0  501 -0.41311440073E+02 -0.69508735420E+02 -0.58238557529E+03  0.61289481780E+03  0.17300000000E+03 0.  1.
<mgrwt>
<rscale>  2 0.19096361E+03</rscale>
<asrwt>0</asrwt>
<pdfrwt beam="2">  1        4 0.19844378E+00 0.19096361E+03</pdfrwt>
<pdfrwt beam="1">  1       -4 0.43730002E-02 0.19096361E+03</pdfrwt>
<totfact> 0.77899961E+01</totfact>
</mgrwt>
</event>
<event>
 4    1  0.7691552E-001  0.2900156E+03  0.7546771E-02  0.1090341E+00
         -1   -1    0    0    0  501 -0.00000000000E+00  0.00000000000E+00  0.27108523188E+03  0.27108523188E+03  0.00000000000E+00 0.  1.
          1   -1    0    0  502    0  0.00000000000E+00 -0.00000000000E+00 -0.33545001610E+03  0.33545001610E+03  0.00000000000E+00 0. -1.
          6    1    1    2  502    0 -0.12656418254E+03  0.19534989764E+03 -0.11527403050E+03  0.31208520779E+03  0.17300000000E+03 0.  1.
         -6    1    1    2    0  501  0.12656418254E+03 -0.19534989764E+03  0.50909246276E+02  0.29445004019E+03  0.17300000000E+03 0. -1.
<mgrwt>
<rscale>  2 0.29001565E+03</rscale>
<asrwt>0</asrwt>
<pdfrwt beam="2">  1        1 0.51607694E-01 0.29001565E+03</pdfrwt>
<pdfrwt beam="1">  1       -1 0.41705421E-01 0.29001565E+03</pdfrwt>
<totfact> 0.43731220E+02</totfact>
</mgrwt>
</event>
<event>
 4    1  0.7691552E-001  0.1993014E+03  0.7546771E-02  0.1150330E+00
          2   -1    0    0  502    0  0.00000000000E+00  0.00000000000E+00  0.16796955237E+03  0.16796955237E+03  0.00000000000E+00 0.  1.
         -2   -1    0    0    0  501 -0.00000000000E+00 -0.00000000000E+00 -0.31130730154E+03  0.31130730154E+03  0.00000000000E+00 0. -1.
          6    1    1    2  502    0  0.98317905084E+02  0.11208796567E+02 -0.18915825776E+03  0.27477607986E+03  0.17300000000E+03 0.  1.
         -6    1    1    2    0  501 -0.98317905084E+02 -0.11208796567E+02  0.45820508591E+02  0.20450077405E+03  0.17300000000E+03 0. -1.
<mgrwt>
<rscale>  2 0.19930140E+03</rscale>
<asrwt>0</asrwt>
<pdfrwt beam="1">  1        2 0.25841470E-01 0.19930140E+03</pdfrwt>
<pdfrwt beam="2">  1       -2 0.47893430E-01 0.19930140E+03</pdfrwt>
<totfact> 0.86403378E+02</totfact>
</mgrwt>
</event>
<event>
 4    1  0.7691552E-001  0.2168783E+03  0.7546771E-02  0.1136232E+00
         -2   -1    0    0    0  501 -0.00000000000E+00  0.00000000000E+00  0.32920202189E+03  0.32920202189E+03  0.00000000000E+00 0. -1.
          2   -1    0    0  502    0  0.00000000000E+00 -0.00000000000E+00 -0.14885463823E+03  0.14885463823E+03  0.00000000000E+00 0.  1.
          6    1    1    2  502    0 -0.12705772872E+03 -0.31040945536E+02  0.42283820880E+02  0.22096182529E+03  0.17300000000E+03 0. -1.
         -6    1    1    2    0  501  0.12705772872E+03  0.31040945536E+02  0.13806356279E+03  0.25709483483E+03  0.17300000000E+03 0. -1.
<mgrwt>
<rscale>  2 0.21687832E+03</rscale>
<asrwt>0</asrwt>
<pdfrwt beam="2">  1        2 0.22900714E-01 0.21687832E+03</pdfrwt>
<pdfrwt beam="1">  1       -2 0.50646465E-01 0.21687832E+03</pdfrwt>
<totfact> 0.88663019E+02</totfact>
</mgrwt>
</event>
<event>
 4    1  0.7691552E-001  0.2642994E+03  0.7546771E-02  0.1104587E+00
         -1   -1    0    0    0  501 -0.00000000000E+00  0.00000000000E+00  0.11500511013E+03  0.11500511013E+03  0.00000000000E+00 0.  1.
          1   -1    0    0  502    0  0.00000000000E+00 -0.00000000000E+00 -0.68388675871E+03  0.68388675871E+03  0.00000000000E+00 0. -1.
          6    1    1    2  502    0 -0.13727486232E+03 -0.14519230691E+03 -0.15085609445E+03  0.30432179522E+03  0.17300000000E+03 0.  1.
         -6    1    1    2    0  501  0.13727486232E+03  0.14519230691E+03 -0.41802555413E+03  0.49457007362E+03  0.17300000000E+03 0. -1.
<mgrwt>
<rscale>  2 0.26429944E+03</rscale>
<asrwt>0</asrwt>
<pdfrwt beam="2">  1        1 0.10521335E+00 0.26429944E+03</pdfrwt>
<pdfrwt beam="1">  1       -1 0.17693094E-01 0.26429944E+03</pdfrwt>
<totfact> 0.72107690E+02</totfact>
</mgrwt>
</event>
<event>
 4    1  0.7691552E-001  0.2925832E+03  0.7546771E-02  0.1089008E+00
         -1   -1    0    0    0  501 -0.00000000000E+00  0.00000000000E+00  0.33778228091E+03  0.33778228091E+03  0.00000000000E+00 0.  1.
          1   -1    0    0  502    0  0.00000000000E+00 -0.00000000000E+00 -0.25392559268E+03  0.25392559268E+03  0.00000000000E+00 0. -1.
          6    1    1    2  502    0 -0.17618674157E+03 -0.15695272176E+03  0.54968919433E+02  0.29770204379E+03  0.17300000000E+03 0. -1.
         -6    1    1    2    0  501  0.17618674157E+03  0.15695272176E+03  0.28887768790E+02  0.29400582980E+03  0.17300000000E+03 0.  1.
<mgrwt>
<rscale>  2 0.29258319E+03</rscale>
<asrwt>0</asrwt>
<pdfrwt beam="2">  1        1 0.39065476E-01 0.29258319E+03</pdfrwt>
<pdfrwt beam="1">  1       -1 0.51966504E-01 0.29258319E+03</pdfrwt>
<totfact> 0.41562652E+02</totfact>
</mgrwt>
</event>
<event>
 4    1  0.7691552E-001  0.2758276E+03  0.7546771E-02  0.1097990E+00
         -1   -1    0    0    0  501 -0.00000000000E+00  0.00000000000E+00  0.65473422655E+03  0.65473422655E+03  0.00000000000E+00 0.  1.
          1   -1    0    0  502    0  0.00000000000E+00 -0.00000000000E+00 -0.12472674531E+03  0.12472674531E+03  0.00000000000E+00 0. -1.
          6    1    1    2  502    0  0.54689088967E+02  0.20775215475E+03  0.16310998821E+03  0.32044613043E+03  0.17300000000E+03 0. -1.
         -6    1    1    2    0  501 -0.54689088967E+02 -0.20775215475E+03  0.36689749303E+03  0.45901484142E+03  0.17300000000E+03 0.  1.
<mgrwt>
<rscale>  2 0.27582758E+03</rscale>
<asrwt>0</asrwt>
<pdfrwt beam="2">  1        1 0.19188730E-01 0.27582758E+03</pdfrwt>
<pdfrwt beam="1">  1       -1 0.10072834E+00 0.27582758E+03</pdfrwt>
<totfact> 0.26826524E+02</totfact>
</mgrwt>
</event>
<event>
 4    1  0.7691552E-001  0.1818261E+03  0.7546771E-02  0.1166047E+00
         -2   -1    0    0    0  501 -0.00000000000E+00  0.00000000000E+00  0.92644701152E+01  0.92644701152E+01  0.00000000000E+00 0. -1.
          2   -1    0    0  502    0  0.00000000000E+00 -0.00000000000E+00 -0.36931234007E+04  0.36931234007E+04  0.00000000000E+00 0.  1.
          6    1    1    2  502    0  0.55953784710E+02 -0.95237929367E+00 -0.21819194490E+04  0.21894824080E+04  0.17300000000E+03 0. -1.
         -6    1    1    2    0  501 -0.55953784710E+02  0.95237929367E+00 -0.15019394816E+04  0.15129054628E+04  0.17300000000E+03 0.  1.
<mgrwt>
<rscale>  2 0.18182611E+03</rscale>
<asrwt>0</asrwt>
<pdfrwt beam="2">  1        2 0.56817354E+00 0.18182611E+03</pdfrwt>
<pdfrwt beam="1">  1       -2 0.14253013E-02 0.18182611E+03</pdfrwt>
<totfact> 0.97675306E+02</totfact>
</mgrwt>
</event>
<event>
 4    1  0.7691552E-001  0.3322779E+03  0.7546771E-02  0.1070133E+00
         -2   -1    0    0    0  501 -0.00000000000E+00  0.00000000000E+00  0.17051017512E+03  0.17051017512E+03  0.00000000000E+00 0. -1.
          2   -1    0    0  502    0  0.00000000000E+00 -0.00000000000E+00 -0.16961892152E+04  0.16961892152E+04  0.00000000000E+00 0.  1.
          6    1    1    2  502    0  0.27728875142E+01 -0.28367571384E+03 -0.28956766544E+02  0.33353724508E+03  0.17300000000E+03 0. -1.
         -6    1    1    2    0  501 -0.27728875142E+01  0.28367571384E+03 -0.14967222736E+04  0.15331621453E+04  0.17300000000E+03 0.  1.
<mgrwt>
<rscale>  2 0.33227790E+03</rscale>
<asrwt>0</asrwt>
<pdfrwt beam="2">  1        2 0.26095220E+00 0.33227790E+03</pdfrwt>
<pdfrwt beam="1">  1       -2 0.26232333E-01 0.33227790E+03</pdfrwt>
<totfact> 0.13940711E+02</totfact>
</mgrwt>
</event>
<event>
 4    1  0.7691552E-001  0.1903386E+03  0.7546771E-02  0.1158156E+00
          2   -1    0    0  502    0  0.00000000000E+00  0.00000000000E+00  0.18132332875E+03  0.18132332875E+03  0.00000000000E+00 0. -1.
         -2   -1    0    0    0  501 -0.00000000000E+00 -0.00000000000E+00 -0.20090489965E+03  0.20090489965E+03  0.00000000000E+00 0.  1.
          6    1    1    2  502    0  0.30667537890E+02  0.73207032415E+02  0.43691551671E+01  0.19038869975E+03  0.17300000000E+03 0.  1.
         -6    1    1    2    0  501 -0.30667537890E+02 -0.73207032415E+02 -0.23950726060E+02  0.19183952865E+03  0.17300000000E+03 0.  1.
<mgrwt>
<rscale>  2 0.19033856E+03</rscale>
<asrwt>0</asrwt>
<pdfrwt beam="1">  1        2 0.27895897E-01 0.19033856E+03</pdfrwt>
<pdfrwt beam="2">  1       -2 0.30908446E-01 0.19033856E+03</pdfrwt>
<totfact> 0.18173824E+03</totfact>
</mgrwt>
</event>
<event>
 4    1  0.7691552E-001  0.1941426E+03  0.7546771E-02  0.1154777E+00
         -1   -1    0    0    0  501 -0.00000000000E+00  0.00000000000E+00  0.26516418674E+03  0.26516418674E+03  0.00000000000E+00 0. -1.
          1   -1    0    0  502    0  0.00000000000E+00 -0.00000000000E+00 -0.16373213248E+03  0.16373213248E+03  0.00000000000E+00 0.  1.
          6    1    1    2  502    0 -0.27502704203E+02  0.83701658542E+02  0.12858561935E+03  0.23286396863E+03  0.17300000000E+03 0. -1.
         -6    1    1    2    0  501  0.27502704203E+02 -0.83701658542E+02 -0.27153565092E+02  0.19603235059E+03  0.17300000000E+03 0.  1.
<mgrwt>
<rscale>  2 0.19414264E+03</rscale>
<asrwt>0</asrwt>
<pdfrwt beam="2">  1        1 0.25189559E-01 0.19414264E+03</pdfrwt>
<pdfrwt beam="1">  1       -1 0.40794490E-01 0.19414264E+03</pdfrwt>
<totfact> 0.11234233E+03</totfact>
</mgrwt>
</event>
<event>
 4    1  0.7691552E-001  0.2295546E+03  0.7546771E-02  0.1126954E+00
         -1   -1    0    0    0  501 -0.00000000000E+00  0.00000000000E+00  0.48559609742E+02  0.48559609742E+02  0.00000000000E+00 0.  1.
          1   -1    0    0  502    0  0.00000000000E+00 -0.00000000000E+00 -0.10990929374E+04  0.10990929374E+04  0.00000000000E+00 0. -1.
          6    1    1    2  502    0  0.10030146664E+03  0.11272060200E+03 -0.58985663172E+03  0.63295036481E+03  0.17300000000E+03 0.  1.
         -6    1    1    2    0  501 -0.10030146664E+03 -0.11272060200E+03 -0.46067669597E+03  0.51470218237E+03  0.17300000000E+03 0. -1.
<mgrwt>
<rscale>  2 0.22955461E+03</rscale>
<asrwt>0</asrwt>
<pdfrwt beam="2">  1        1 0.16909121E+00 0.22955461E+03</pdfrwt>
<pdfrwt beam="1">  1       -1 0.74707095E-02 0.22955461E+03</pdfrwt>
<totfact> 0.12941601E+03</totfact>
</mgrwt>
</event>
<event>
 4    1  0.7691552E-001  0.2629853E+03  0.7546771E-02  0.1105363E+00
         -2   -1    0    0    0  501 -0.00000000000E+00  0.00000000000E+00  0.18053008154E+03  0.18053008154E+03  0.00000000000E+00 0. -1.
          2   -1    0    0  502    0  0.00000000000E+00 -0.00000000000E+00 -0.41156700874E+03  0.41156700874E+03  0.00000000000E+00 0.  1.
          6    1    1    2  502    0 -0.13399597832E+03 -0.14586748486E+03 -0.37659908242E+02  0.26566805234E+03  0.17300000000E+03 0. -1.
         -6    1    1    2    0  501  0.13399597832E+03  0.14586748486E+03 -0.19337701896E+03  0.32642903793E+03  0.17300000000E+03 0.  1.
<mgrwt>
<rscale>  2 0.26298526E+03</rscale>
<asrwt>0</asrwt>
<pdfrwt beam="2">  1        2 0.63318001E-01 0.26298526E+03</pdfrwt>
<pdfrwt beam="1">  1       -2 0.27773859E-01 0.26298526E+03</pdfrwt>
<totfact> 0.91209944E+02</totfact>
</mgrwt>
</event>
<event>
 4    1  0.7691552E-001  0.1810750E+03  0.7546771E-02  0.1166767E+00
          4   -1    0    0  502    0  0.00000000000E+00  0.00000000000E+00  0.10850542936E+03  0.10850542936E+03  0.00000000000E+00 0.  1.
         -4   -1    0    0    0  501 -0.00000000000E+00 -0.00000000000E+00 -0.37325119655E+03  0.37325119655E+03  0.00000000000E+00 0. -1.
          6    1    1    2  502    0  0.37116177868E+02 -0.38490653988E+02 -0.23748305444E+03  0.29864082482E+03  0.17300000000E+03 0. -1.
         -6    1    1    2    0  501 -0.37116177868E+02  0.38490653988E+02 -0.27262712752E+02  0.18311580109E+03  0.17300000000E+03 0.  1.
<mgrwt>
<rscale>  2 0.18107496E+03</rscale>
<asrwt>0</asrwt>
<pdfrwt beam="1">  1        4 0.16693143E-01 0.18107496E+03</pdfrwt>
<pdfrwt beam="2">  1       -4 0.57423262E-01 0.18107496E+03</pdfrwt>
<totfact> 0.15906819E+02</totfact>
</mgrwt>
</event>
<event>
 4    1  0.7691552E-001  0.2665098E+03  0.7546771E-02  0.1103294E+00
          1   -1    0    0  502    0  0.00000000000E+00  0.00000000000E+00  0.60971777886E+03  0.60971777886E+03  0.00000000000E+00 0.  1.
         -1   -1    0    0    0  501 -0.00000000000E+00 -0.00000000000E+00 -0.14295988918E+03  0.14295988918E+03  0.00000000000E+00 0. -1.
          6    1    1    2  502    0  0.31676139929E+02 -0.20023761401E+03  0.71448538243E+02  0.27592095520E+03  0.17300000000E+03 0. -1.
         -6    1    1    2    0  501 -0.31676139929E+02  0.20023761401E+03  0.39530935144E+03  0.47675671284E+03  0.17300000000E+03 0.  1.
<mgrwt>
<rscale>  2 0.26650981E+03</rscale>
<asrwt>0</asrwt>
<pdfrwt beam="1">  1        1 0.93802734E-01 0.26650981E+03</pdfrwt>
<pdfrwt beam="2">  1       -1 0.21993829E-01 0.26650981E+03</pdfrwt>
<totfact> 0.59566366E+02</totfact>
</mgrwt>
</event>
<event>
 4    1  0.7691552E-001  0.2114102E+03  0.7546771E-02  0.1140454E+00
          2   -1    0    0  502    0  0.00000000000E+00  0.00000000000E+00  0.24768918133E+03  0.24768918133E+03  0.00000000000E+00 0. -1.
         -2   -1    0    0    0  501 -0.00000000000E+00 -0.00000000000E+00 -0.18051051005E+03  0.18051051005E+03  0.00000000000E+00 0.  1.
          6    1    1    2  502    0 -0.11575979313E+03 -0.36945090164E+02  0.29510041152E+02  0.21345986021E+03  0.17300000000E+03 0. -1.
         -6    1    1    2    0  501  0.11575979313E+03  0.36945090164E+02  0.37668630124E+02  0.21473983116E+03  0.17300000000E+03 0. -1.
<mgrwt>
<rscale>  2 0.21141019E+03</rscale>
<asrwt>0</asrwt>
<pdfrwt beam="1">  1        2 0.38106028E-01 0.21141019E+03</pdfrwt>
<pdfrwt beam="2">  1       -2 0.27770848E-01 0.21141019E+03</pdfrwt>
<totfact> 0.15745184E+03</totfact>
</mgrwt>
</event>
<event>
 4    1  0.7691552E-001  0.2217591E+03  0.7546771E-02  0.1132578E+00
          4   -1    0    0  502    0  0.00000000000E+00  0.00000000000E+00  0.21468473370E+03  0.21468473370E+03  0.00000000000E+00 0. -1.
         -4   -1    0    0    0  501 -0.00000000000E+00 -0.00000000000E+00 -0.24553076099E+03  0.24553076099E+03  0.00000000000E+00 0.  1.
          6    1    1    2  502    0 -0.13277888916E+03 -0.40222922683E+02 -0.75009417101E+02  0.23410153688E+03  0.17300000000E+03 0. -1.
         -6    1    1    2    0  501  0.13277888916E+03  0.40222922683E+02  0.44163389808E+02  0.22611395781E+03  0.17300000000E+03 0.  1.
<mgrwt>
<rscale>  2 0.22175914E+03</rscale>
<asrwt>0</asrwt>
<pdfrwt beam="1">  1        4 0.33028421E-01 0.22175914E+03</pdfrwt>
<pdfrwt beam="2">  1       -4 0.37773963E-01 0.22175914E+03</pdfrwt>
<totfact> 0.10849799E+02</totfact>
</mgrwt>
</event>
<event>
 4    1  0.7691552E-001  0.4037047E+03  0.7546771E-02  0.1042504E+00
          1   -1    0    0  502    0  0.00000000000E+00  0.00000000000E+00  0.16649289921E+03  0.16649289921E+03  0.00000000000E+00 0. -1.
         -1   -1    0    0    0  501 -0.00000000000E+00 -0.00000000000E+00 -0.10709779025E+04  0.10709779025E+04  0.00000000000E+00 0.  1.
          6    1    1    2  502    0  0.36382909860E+03  0.26016801592E+02 -0.63367980478E+03  0.75135050538E+03  0.17300000000E+03 0.  1.
         -6    1    1    2    0  501 -0.36382909860E+03 -0.26016801592E+02 -0.27080519849E+03  0.48612029630E+03  0.17300000000E+03 0. -1.
<mgrwt>
<rscale>  2 0.40370470E+03</rscale>
<asrwt>0</asrwt>
<pdfrwt beam="1">  1        1 0.25614293E-01 0.40370470E+03</pdfrwt>
<pdfrwt beam="2">  1       -1 0.16476583E+00 0.40370470E+03</pdfrwt>
<totfact> 0.53683080E+01</totfact>
</mgrwt>
</event>
<event>
 4    1  0.7691552E-001  0.1917103E+03  0.7546771E-02  0.1156928E+00
         -2   -1    0    0    0  501 -0.00000000000E+00  0.00000000000E+00  0.27872113720E+02  0.27872113720E+02  0.00000000000E+00 0.  1.
          2   -1    0    0  502    0  0.00000000000E+00 -0.00000000000E+00 -0.22693844711E+04  0.22693844711E+04  0.00000000000E+00 0. -1.
          6    1    1    2  502    0 -0.43775994402E+02  0.70053510308E+02 -0.37729023650E+03  0.42320297086E+03  0.17300000000E+03 0.  1.
         -6    1    1    2    0  501  0.43775994402E+02 -0.70053510308E+02 -0.18642221209E+04  0.18740536139E+04  0.17300000000E+03 0. -1.
<mgrwt>
<rscale>  2 0.19171028E+03</rscale>
<asrwt>0</asrwt>
<pdfrwt beam="2">  1        2 0.34913628E+00 0.19171028E+03</pdfrwt>
<pdfrwt beam="1">  1       -2 0.42880149E-02 0.19171028E+03</pdfrwt>
<totfact> 0.13361021E+03</totfact>
</mgrwt>
</event>
<event>
 4    1  0.7691552E-001  0.1895745E+03  0.7546771E-02  0.1158846E+00
         -1   -1    0    0    0  501 -0.00000000000E+00  0.00000000000E+00  0.84358729049E+02  0.84358729049E+02  0.00000000000E+00 0.  1.
          1   -1    0    0  502    0  0.00000000000E+00 -0.00000000000E+00 -0.45064317897E+03  0.45064317897E+03  0.00000000000E+00 0. -1.
          6    1    1    2  502    0  0.76412002653E+02 -0.13064847490E+02 -0.12061297374E+03  0.22469084054E+03  0.17300000000E+03 0. -1.
         -6    1    1    2    0  501 -0.76412002653E+02  0.13064847490E+02 -0.24567147619E+03  0.31031106748E+03  0.17300000000E+03 0. -1.
<mgrwt>
<rscale>  2 0.18957448E+03</rscale>
<asrwt>0</asrwt>
<pdfrwt beam="2">  1        1 0.69329719E-01 0.18957448E+03</pdfrwt>
<pdfrwt beam="1">  1       -1 0.12978266E-01 0.18957448E+03</pdfrwt>
<totfact> 0.20772450E+03</totfact>
</mgrwt>
</event>
<event>
 4    1  0.7691552E-001  0.1744345E+03  0.7546771E-02  0.1173301E+00
         -2   -1    0    0    0  501 -0.00000000000E+00  0.00000000000E+00  0.20517178139E+02  0.20517178139E+02  0.00000000000E+00 0.  1.
          2   -1    0    0  502    0  0.00000000000E+00 -0.00000000000E+00 -0.15306329722E+04  0.15306329722E+04  0.00000000000E+00 0. -1.
          6    1    1    2  502    0  0.16089985914E+02  0.15476392205E+02 -0.61827042431E+03  0.64240619855E+03  0.17300000000E+03 0.  1.
         -6    1    1    2    0  501 -0.16089985914E+02 -0.15476392205E+02 -0.89184536977E+03  0.90874395180E+03  0.17300000000E+03 0. -1.
<mgrwt>
<rscale>  2 0.17443453E+03</rscale>
<asrwt>0</asrwt>
<pdfrwt beam="2">  1        2 0.23548189E+00 0.17443453E+03</pdfrwt>
<pdfrwt beam="1">  1       -2 0.31564903E-02 0.17443453E+03</pdfrwt>
<totfact> 0.51153446E+03</totfact>
</mgrwt>
</event>
<event>
 4    1  0.7691552E-001  0.1782682E+03  0.7546771E-02  0.1169490E+00
         -1   -1    0    0    0  501 -0.00000000000E+00  0.00000000000E+00  0.30928790677E+03  0.30928790677E+03  0.00000000000E+00 0. -1.
          1   -1    0    0  502    0  0.00000000000E+00 -0.00000000000E+00 -0.24235399876E+03  0.24235399876E+03  0.00000000000E+00 0.  1.
          6    1    1    2  502    0 -0.17737471717E+02  0.39191099714E+02 -0.17587194850E+03  0.25042065104E+03  0.17300000000E+03 0.  1.
         -6    1    1    2    0  501  0.17737471717E+02 -0.39191099714E+02  0.24280585651E+03  0.30122125449E+03  0.17300000000E+03 0. -1.
<mgrwt>
<rscale>  2 0.17826823E+03</rscale>
<asrwt>0</asrwt>
<pdfrwt beam="2">  1        1 0.37285231E-01 0.17826823E+03</pdfrwt>
<pdfrwt beam="1">  1       -1 0.47582755E-01 0.17826823E+03</pdfrwt>
<totfact> 0.52034090E+02</totfact>
</mgrwt>
</event>
<event>
 4    1  0.7691552E-001  0.3939385E+03  0.7546771E-02  0.1045899E+00
         -2   -1    0    0    0  501 -0.00000000000E+00  0.00000000000E+00  0.31941178378E+03  0.31941178378E+03  0.00000000000E+00 0. -1.
          2   -1    0    0  502    0  0.00000000000E+00 -0.00000000000E+00 -0.68092777763E+03  0.68092777763E+03  0.00000000000E+00 0.  1.
          6    1    1    2  502    0 -0.19210876700E+02  0.35339710104E+03  0.86952934864E+02  0.40342084934E+03  0.17300000000E+03 0. -1.
         -6    1    1    2    0  501  0.19210876700E+02 -0.35339710104E+03 -0.44846892871E+03  0.59691871207E+03  0.17300000000E+03 0.  1.
<mgrwt>
<rscale>  2 0.39393853E+03</rscale>
<asrwt>0</asrwt>
<pdfrwt beam="2">  1        2 0.10475812E+00 0.39393853E+03</pdfrwt>
<pdfrwt beam="1">  1       -2 0.49140274E-01 0.39393853E+03</pdfrwt>
<totfact> 0.17208342E+02</totfact>
</mgrwt>
</event>
<event>
 4    1  0.7691552E-001  0.2714998E+03  0.7546771E-02  0.1100424E+00
          1   -1    0    0  502    0  0.00000000000E+00  0.00000000000E+00  0.82785203014E+03  0.82785203014E+03  0.00000000000E+00 0.  1.
         -1   -1    0    0    0  501 -0.00000000000E+00 -0.00000000000E+00 -0.94316031229E+02  0.94316031229E+02  0.00000000000E+00 0. -1.
          6    1    1    2  502    0 -0.15369512758E+03 -0.14198932166E+03  0.47581916572E+03  0.54782847514E+03  0.17300000000E+03 0. -1.
         -6    1    1    2    0  501  0.15369512758E+03  0.14198932166E+03  0.25771683318E+03  0.37433958622E+03  0.17300000000E+03 0.  1.
<mgrwt>
<rscale>  2 0.27149983E+03</rscale>
<asrwt>0</asrwt>
<pdfrwt beam="1">  1        1 0.12736185E+00 0.27149983E+03</pdfrwt>
<pdfrwt beam="2">  1       -1 0.14510159E-01 0.27149983E+03</pdfrwt>
<totfact> 0.74255645E+02</totfact>
</mgrwt>
</event>
<event>
 4    1  0.7691552E-001  0.2696338E+03  0.7546771E-02  0.1101489E+00
          2   -1    0    0  502    0  0.00000000000E+00  0.00000000000E+00  0.62473112455E+03  0.62473112455E+03  0.00000000000E+00 0.  1.
         -2   -1    0    0    0  501 -0.00000000000E+00 -0.00000000000E+00 -0.13999742444E+03  0.13999742444E+03  0.00000000000E+00 0. -1.
          6    1    1    2  502    0 -0.20017511920E+03  0.51993556625E+02  0.85298214555E+02  0.28280416136E+03  0.17300000000E+03 0. -1.
         -6    1    1    2    0  501  0.20017511920E+03 -0.51993556625E+02  0.39943548556E+03  0.48192438764E+03  0.17300000000E+03 0.  1.
<mgrwt>
<rscale>  2 0.26963384E+03</rscale>
<asrwt>0</asrwt>
<pdfrwt beam="1">  1        2 0.96112479E-01 0.26963384E+03</pdfrwt>
<pdfrwt beam="2">  1       -2 0.21538066E-01 0.26963384E+03</pdfrwt>
<totfact> 0.89147902E+02</totfact>
</mgrwt>
</event>
<event>
 4    1  0.7691552E-001  0.1792206E+03  0.7546771E-02  0.1168559E+00
         -2   -1    0    0    0  501 -0.00000000000E+00  0.00000000000E+00  0.37642477579E+02  0.37642477579E+02  0.00000000000E+00 0. -1.
          2   -1    0    0  502    0  0.00000000000E+00 -0.00000000000E+00 -0.10321598666E+04  0.10321598666E+04  0.00000000000E+00 0.  1.
          6    1    1    2  502    0  0.97439480355E+01  0.45783126092E+02 -0.27458661163E+03  0.32789914065E+03  0.17300000000E+03 0. -1.
         -6    1    1    2    0  501 -0.97439480355E+01 -0.45783126092E+02 -0.71993077736E+03  0.74190320349E+03  0.17300000000E+03 0.  1.
<mgrwt>
<rscale>  2 0.17922064E+03</rscale>
<asrwt>0</asrwt>
<pdfrwt beam="2">  1        2 0.15879384E+00 0.17922064E+03</pdfrwt>
<pdfrwt beam="1">  1       -2 0.57911499E-02 0.17922064E+03</pdfrwt>
<totfact> 0.38785651E+03</totfact>
</mgrwt>
</event>
<event>
 4    1  0.7691552E-001  0.2394245E+03  0.7546771E-02  0.1120177E+00
         -1   -1    0    0    0  501 -0.00000000000E+00  0.00000000000E+00  0.50190597795E+03  0.50190597795E+03  0.00000000000E+00 0.  1.
          1   -1    0    0  502    0  0.00000000000E+00 -0.00000000000E+00 -0.13651993595E+03  0.13651993595E+03  0.00000000000E+00 0. -1.
          6    1    1    2  502    0 -0.16138818965E+03  0.36727924472E+02  0.31172707989E+03  0.39306215861E+03  0.17300000000E+03 0.  1.
         -6    1    1    2    0  501  0.16138818965E+03 -0.36727924472E+02  0.53658962113E+02  0.24536375529E+03  0.17300000000E+03 0.  1.
<mgrwt>
<rscale>  2 0.23942449E+03</rscale>
<asrwt>0</asrwt>
<pdfrwt beam="2">  1        1 0.21003067E-01 0.23942449E+03</pdfrwt>
<pdfrwt beam="1">  1       -1 0.77216304E-01 0.23942449E+03</pdfrwt>
<totfact> 0.42241437E+02</totfact>
</mgrwt>
</event>
<event>
 4    1  0.7691552E-001  0.1766548E+03  0.7546771E-02  0.1171080E+00
          2   -1    0    0  502    0  0.00000000000E+00  0.00000000000E+00  0.37806037107E+03  0.37806037107E+03  0.00000000000E+00 0. -1.
         -2   -1    0    0    0  501 -0.00000000000E+00 -0.00000000000E+00 -0.95754847445E+02  0.95754847445E+02  0.00000000000E+00 0.  1.
          6    1    1    2  502    0  0.34573735967E+02 -0.90864390294E+01  0.53159118812E+02  0.18447980514E+03  0.17300000000E+03 0.  1.
         -6    1    1    2    0  501 -0.34573735967E+02  0.90864390294E+01  0.22914640482E+03  0.28933541338E+03  0.17300000000E+03 0. -1.
<mgrwt>
<rscale>  2 0.17665477E+03</rscale>
<asrwt>0</asrwt>
<pdfrwt beam="1">  1        2 0.58163133E-01 0.17665477E+03</pdfrwt>
<pdfrwt beam="2">  1       -2 0.14731515E-01 0.17665477E+03</pdfrwt>
<totfact> 0.29410081E+03</totfact>
</mgrwt>
</event>
<event>
 4    1  0.7691552E-001  0.1989836E+03  0.7546771E-02  0.1150599E+00
         -3   -1    0    0    0  501 -0.00000000000E+00  0.00000000000E+00  0.12156808234E+04  0.12156808234E+04  0.00000000000E+00 0.  1.
          3   -1    0    0  502    0  0.00000000000E+00 -0.00000000000E+00 -0.35557046590E+02  0.35557046590E+02  0.00000000000E+00 0. -1.
          6    1    1    2  502    0  0.71485058524E+02  0.67493377425E+02  0.77139757483E+03  0.79664840930E+03  0.17300000000E+03 0.  1.
         -6    1    1    2    0  501 -0.71485058524E+02 -0.67493377425E+02  0.40872620203E+03  0.45458946074E+03  0.17300000000E+03 0. -1.
<mgrwt>
<rscale>  2 0.19898359E+03</rscale>
<asrwt>0</asrwt>
<pdfrwt beam="2">  1        3 0.54703158E-02 0.19898359E+03</pdfrwt>
<pdfrwt beam="1">  1       -3 0.18702779E+00 0.19898359E+03</pdfrwt>
<totfact> 0.92864663E+01</totfact>
</mgrwt>
</event>
<event>
 4    1  0.7691552E-001  0.2041265E+03  0.7546771E-02  0.1146303E+00
          3   -1    0    0  502    0  0.00000000000E+00  0.00000000000E+00  0.25409637936E+02  0.25409637936E+02  0.00000000000E+00 0. -1.
         -3   -1    0    0    0  501 -0.00000000000E+00 -0.00000000000E+00 -0.16459954243E+04  0.16459954243E+04  0.00000000000E+00 0.  1.
          6    1    1    2  502    0  0.10596606137E+03 -0.22578808554E+02 -0.75916599215E+03  0.78613014978E+03  0.17300000000E+03 0. -1.
         -6    1    1    2    0  501 -0.10596606137E+03  0.22578808554E+02 -0.86141979420E+03  0.88527491244E+03  0.17300000000E+03 0.  1.
<mgrwt>
<rscale>  2 0.20412645E+03</rscale>
<asrwt>0</asrwt>
<pdfrwt beam="1">  1        3 0.39091755E-02 0.20412645E+03</pdfrwt>
<pdfrwt beam="2">  1       -3 0.25323004E+00 0.20412645E+03</pdfrwt>
<totfact> 0.65349604E+01</totfact>
</mgrwt>
</event>
<event>
 4    1  0.7691552E-001  0.2124846E+03  0.7546771E-02  0.1139613E+00
          4   -1    0    0  502    0  0.00000000000E+00  0.00000000000E+00  0.23070413554E+03  0.23070413554E+03  0.00000000000E+00 0. -1.
         -4   -1    0    0    0  501 -0.00000000000E+00 -0.00000000000E+00 -0.34585136880E+03  0.34585136880E+03  0.00000000000E+00 0.  1.
          6    1    1    2  502    0  0.12025245352E+03 -0.27569366942E+02 -0.24751746722E+03  0.32621253678E+03  0.17300000000E+03 0. -1.
         -6    1    1    2    0  501 -0.12025245352E+03  0.27569366942E+02  0.13237023395E+03  0.25034296756E+03  0.17300000000E+03 0. -1.
<mgrwt>
<rscale>  2 0.21248464E+03</rscale>
<asrwt>0</asrwt>
<pdfrwt beam="1">  1        4 0.35492944E-01 0.21248464E+03</pdfrwt>
<pdfrwt beam="2">  1       -4 0.53207903E-01 0.21248464E+03</pdfrwt>
<totfact> 0.46940776E+01</totfact>
</mgrwt>
</event>
<event>
 4    1  0.7691552E-001  0.1842451E+03  0.7546771E-02  0.1163757E+00
          1   -1    0    0  502    0  0.00000000000E+00  0.00000000000E+00  0.95651557164E+03  0.95651557164E+03  0.00000000000E+00 0. -1.
         -1   -1    0    0    0  501 -0.00000000000E+00 -0.00000000000E+00 -0.40551096241E+02  0.40551096241E+02  0.00000000000E+00 0.  1.
          6    1    1    2  502    0  0.78431135136E+01 -0.62894557576E+02  0.28185053634E+03  0.33672832468E+03  0.17300000000E+03 0.  1.
         -6    1    1    2    0  501 -0.78431135136E+01  0.62894557576E+02  0.63411393906E+03  0.66033834321E+03  0.17300000000E+03 0. -1.
<mgrwt>
<rscale>  2 0.18424505E+03</rscale>
<asrwt>0</asrwt>
<pdfrwt beam="1">  1        1 0.14715623E+00 0.18424505E+03</pdfrwt>
<pdfrwt beam="2">  1       -1 0.62386309E-02 0.18424505E+03</pdfrwt>
<totfact> 0.21618065E+03</totfact>
</mgrwt>
</event>
<event>
 4    1  0.7691552E-001  0.1888474E+03  0.7546771E-02  0.1159505E+00
         -1   -1    0    0    0  501 -0.00000000000E+00  0.00000000000E+00  0.19688363818E+02  0.19688363818E+02  0.00000000000E+00 0.  1.
          1   -1    0    0  502    0  0.00000000000E+00 -0.00000000000E+00 -0.18405456541E+04  0.18405456541E+04  0.00000000000E+00 0. -1.
          6    1    1    2  502    0  0.72763127510E+02  0.20972979558E+02 -0.10274898801E+04  0.10447003362E+04  0.17300000000E+03 0. -1.
         -6    1    1    2    0  501 -0.72763127510E+02 -0.20972979558E+02 -0.79336741017E+03  0.81553368178E+03  0.17300000000E+03 0.  1.
<mgrwt>
<rscale>  2 0.18884739E+03</rscale>
<asrwt>0</asrwt>
<pdfrwt beam="2">  1        1 0.28316089E+00 0.18884739E+03</pdfrwt>
<pdfrwt beam="1">  1       -1 0.30289789E-02 0.18884739E+03</pdfrwt>
<totfact> 0.15979460E+03</totfact>
</mgrwt>
</event>
<event>
 4    1  0.7691552E-001  0.2242416E+03  0.7546771E-02  0.1130760E+00
         -2   -1    0    0    0  501 -0.00000000000E+00  0.00000000000E+00  0.18527757705E+02  0.18527757705E+02  0.00000000000E+00 0.  1.
          2   -1    0    0  502    0  0.00000000000E+00 -0.00000000000E+00 -0.27630894703E+04  0.27630894703E+04  0.00000000000E+00 0. -1.
          6    1    1    2  502    0 -0.97657647809E+02  0.10401088220E+03 -0.15576669318E+04  0.15737250555E+04  0.17300000000E+03 0. -1.
         -6    1    1    2    0  501  0.97657647809E+02 -0.10401088220E+03 -0.11868947808E+04  0.12078921725E+04  0.17300000000E+03 0.  1.
<mgrwt>
<rscale>  2 0.22424157E+03</rscale>
<asrwt>0</asrwt>
<pdfrwt beam="2">  1        2 0.42509052E+00 0.22424157E+03</pdfrwt>
<pdfrwt beam="1">  1       -2 0.28504254E-02 0.22424157E+03</pdfrwt>
<totfact> 0.13166622E+03</totfact>
</mgrwt>
</event>
<event>
 4    1  0.7691552E-001  0.2028497E+03  0.7546771E-02  0.1147357E+00
          2   -1    0    0  502    0  0.00000000000E+00  0.00000000000E+00  0.73351909930E+03  0.73351909930E+03  0.00000000000E+00 0. -1.
         -2   -1    0    0    0  501 -0.00000000000E+00 -0.00000000000E+00 -0.56831814775E+02  0.56831814775E+02  0.00000000000E+00 0.  1.
          6    1    1    2  502    0 -0.76469696414E+02  0.73289651815E+02  0.38328820337E+03  0.43365635516E+03  0.17300000000E+03 0.  1.
         -6    1    1    2    0  501  0.76469696414E+02 -0.73289651815E+02  0.29339908116E+03  0.35669455892E+03  0.17300000000E+03 0.  1.
<mgrwt>
<rscale>  2 0.20284967E+03</rscale>
<asrwt>0</asrwt>
<pdfrwt beam="1">  1        2 0.11284909E+00 0.20284967E+03</pdfrwt>
<pdfrwt beam="2">  1       -2 0.87433566E-02 0.20284967E+03</pdfrwt>
<totfact> 0.32213865E+03</totfact>
</mgrwt>
</event>
<event>
 4    1  0.7691552E-001  0.2143274E+03  0.7546771E-02  0.1138184E+00
          1   -1    0    0  502    0  0.00000000000E+00  0.00000000000E+00  0.14692022772E+04  0.14692022772E+04  0.00000000000E+00 0. -1.
         -1   -1    0    0    0  501 -0.00000000000E+00 -0.00000000000E+00 -0.45494314339E+02  0.45494314339E+02  0.00000000000E+00 0.  1.
          6    1    1    2  502    0  0.68265676614E+02 -0.10652242308E+03  0.28831611025E+03  0.35925256944E+03  0.17300000000E+03 0.  1.
         -6    1    1    2    0  501 -0.68265676614E+02  0.10652242308E+03  0.11353918526E+04  0.11554440221E+04  0.17300000000E+03 0. -1.
<mgrwt>
<rscale>  2 0.21432739E+03</rscale>
<asrwt>0</asrwt>
<pdfrwt beam="1">  1        1 0.22603108E+00 0.21432739E+03</pdfrwt>
<pdfrwt beam="2">  1       -1 0.69991264E-02 0.21432739E+03</pdfrwt>
<totfact> 0.79770992E+02</totfact>
</mgrwt>
</event>
<event>
 4    1  0.7691552E-001  0.2257289E+03  0.7546771E-02  0.1129683E+00
          2   -1    0    0  502    0  0.00000000000E+00  0.00000000000E+00  0.18489103831E+03  0.18489103831E+03  0.00000000000E+00 0.  1.
         -2   -1    0    0    0  501 -0.00000000000E+00 -0.00000000000E+00 -0.45626141573E+03  0.45626141573E+03  0.00000000000E+00 0. -1.
          6    1    1    2  502    0 -0.66435200923E+02  0.12888321541E+03  0.66046014680E+02  0.23519267674E+03  0.17300000000E+03 0.  1.
         -6    1    1    2    0  501  0.66435200923E+02 -0.12888321541E+03 -0.33741639210E+03  0.40595977731E+03  0.17300000000E+03 0. -1.
<mgrwt>
<rscale>  2 0.22572886E+03</rscale>
<asrwt>0</asrwt>
<pdfrwt beam="1">  1        2 0.28444775E-01 0.22572886E+03</pdfrwt>
<pdfrwt beam="2">  1       -2 0.70194064E-01 0.22572886E+03</pdfrwt>
<totfact> 0.35431732E+02</totfact>
</mgrwt>
</event>
<event>
 4    1  0.7691552E-001  0.1811674E+03  0.7546771E-02  0.1166678E+00
          4   -1    0    0  502    0  0.00000000000E+00  0.00000000000E+00  0.80190515818E+02  0.80190515818E+02  0.00000000000E+00 0. -1.
         -4   -1    0    0    0  501 -0.00000000000E+00 -0.00000000000E+00 -0.46081141223E+03  0.46081141223E+03  0.00000000000E+00 0.  1.
          6    1    1    2  502    0 -0.19001001645E+02 -0.50314969516E+02 -0.28075387529E+03  0.33413226829E+03  0.17300000000E+03 0.  1.
         -6    1    1    2    0  501  0.19001001645E+02  0.50314969516E+02 -0.99867021121E+02  0.20686965976E+03  0.17300000000E+03 0. -1.
<mgrwt>
<rscale>  2 0.18116742E+03</rscale>
<asrwt>0</asrwt>
<pdfrwt beam="1">  1        4 0.12337002E-01 0.18116742E+03</pdfrwt>
<pdfrwt beam="2">  1       -4 0.70894064E-01 0.18116742E+03</pdfrwt>
<totfact> 0.17214332E+02</totfact>
</mgrwt>
</event>
<event>
 4    1  0.7691552E-001  0.1930331E+03  0.7546771E-02  0.1155754E+00
         -4   -1    0    0    0  501 -0.00000000000E+00  0.00000000000E+00  0.17463006541E+03  0.17463006541E+03  0.00000000000E+00 0.  1.
          4   -1    0    0  502    0  0.00000000000E+00 -0.00000000000E+00 -0.25609952155E+03  0.25609952155E+03  0.00000000000E+00 0. -1.
          6    1    1    2  502    0  0.74305692745E+02  0.42561168613E+02  0.47229491234E+02  0.19872698330E+03  0.17300000000E+03 0.  1.
         -6    1    1    2    0  501 -0.74305692745E+02 -0.42561168613E+02 -0.12869894737E+03  0.23200260366E+03  0.17300000000E+03 0. -1.
<mgrwt>
<rscale>  2 0.19303313E+03</rscale>
<asrwt>0</asrwt>
<pdfrwt beam="2">  1        4 0.39399926E-01 0.19303313E+03</pdfrwt>
<pdfrwt beam="1">  1       -4 0.26866164E-01 0.19303313E+03</pdfrwt>
<totfact> 0.14516878E+02</totfact>
</mgrwt>
</event>
<event>
 4    1  0.7691552E-001  0.2025615E+03  0.7546771E-02  0.1147596E+00
          2   -1    0    0  502    0  0.00000000000E+00  0.00000000000E+00  0.53542102281E+03  0.53542102281E+03  0.00000000000E+00 0. -1.
         -2   -1    0    0    0  501 -0.00000000000E+00 -0.00000000000E+00 -0.80388523219E+02  0.80388523219E+02  0.00000000000E+00 0.  1.
          6    1    1    2  502    0 -0.34622430403E+02 -0.99515995979E+02  0.29406350033E+03  0.35707770635E+03  0.17300000000E+03 0. -1.
         -6    1    1    2    0  501  0.34622430403E+02  0.99515995979E+02  0.16096899926E+03  0.25873183968E+03  0.17300000000E+03 0.  1.
<mgrwt>
<rscale>  2 0.20256146E+03</rscale>
<asrwt>0</asrwt>
<pdfrwt beam="1">  1        2 0.82372463E-01 0.20256146E+03</pdfrwt>
<pdfrwt beam="2">  1       -2 0.12367465E-01 0.20256146E+03</pdfrwt>
<totfact> 0.26816146E+03</totfact>
</mgrwt>
</event>
<event>
 4    1  0.7691552E-001  0.1751096E+03  0.7546771E-02  0.1172622E+00
          2   -1    0    0  502    0  0.00000000000E+00  0.00000000000E+00  0.14799757125E+04  0.14799757125E+04  0.00000000000E+00 0. -1.
         -2   -1    0    0    0  501 -0.00000000000E+00 -0.00000000000E+00 -0.21835553437E+02  0.21835553437E+02  0.00000000000E+00 0.  1.
          6    1    1    2  502    0  0.20166519386E+02 -0.18102190164E+02  0.55925571665E+03  0.58602929483E+03  0.17300000000E+03 0.  1.
         -6    1    1    2    0  501 -0.20166519386E+02  0.18102190164E+02  0.89888444241E+03  0.91578197111E+03  0.17300000000E+03 0. -1.
<mgrwt>
<rscale>  2 0.17510962E+03</rscale>
<asrwt>0</asrwt>
<pdfrwt beam="1">  1        2 0.22768849E+00 0.17510962E+03</pdfrwt>
<pdfrwt beam="2">  1       -2 0.33593171E-02 0.17510962E+03</pdfrwt>
<totfact> 0.49596639E+03</totfact>
</mgrwt>
</event>
<event>
 4    1  0.7691552E-001  0.1977431E+03  0.7546771E-02  0.1151657E+00
          1   -1    0    0  502    0  0.00000000000E+00  0.00000000000E+00  0.10371839990E+03  0.10371839990E+03  0.00000000000E+00 0.  1.
         -1   -1    0    0    0  501 -0.00000000000E+00 -0.00000000000E+00 -0.40085000220E+03  0.40085000220E+03  0.00000000000E+00 0. -1.
          6    1    1    2  502    0 -0.80830086008E+02  0.51379224806E+02 -0.21009768820E+03  0.28851926475E+03  0.17300000000E+03 0. -1.
         -6    1    1    2    0  501  0.80830086008E+02 -0.51379224806E+02 -0.87033914089E+02  0.21604913734E+03  0.17300000000E+03 0.  1.
<mgrwt>
<rscale>  2 0.19774308E+03</rscale>
<asrwt>0</asrwt>
<pdfrwt beam="1">  1        1 0.15956677E-01 0.19774308E+03</pdfrwt>
<pdfrwt beam="2">  1       -1 0.61669230E-01 0.19774308E+03</pdfrwt>
<totfact> 0.94213114E+02</totfact>
</mgrwt>
</event>
<event>
 4    1  0.7691552E-001  0.2076396E+03  0.7546771E-02  0.1143449E+00
          1   -1    0    0  502    0  0.00000000000E+00  0.00000000000E+00  0.60312693742E+03  0.60312693742E+03  0.00000000000E+00 0. -1.
         -1   -1    0    0    0  501 -0.00000000000E+00 -0.00000000000E+00 -0.81644675239E+02  0.81644675239E+02  0.00000000000E+00 0.  1.
          6    1    1    2  502    0 -0.41324015657E+02  0.10713324621E+03  0.13995886942E+03  0.25040505555E+03  0.17300000000E+03 0.  1.
         -6    1    1    2    0  501  0.41324015657E+02 -0.10713324621E+03  0.38152339276E+03  0.43436655711E+03  0.17300000000E+03 0. -1.
<mgrwt>
<rscale>  2 0.20763961E+03</rscale>
<asrwt>0</asrwt>
<pdfrwt beam="1">  1        1 0.92788757E-01 0.20763961E+03</pdfrwt>
<pdfrwt beam="2">  1       -1 0.12560720E-01 0.20763961E+03</pdfrwt>
<totfact> 0.14839496E+03</totfact>
</mgrwt>
</event>
<event>
 4    1  0.7691552E-001  0.1868352E+03  0.7546771E-02  0.1161347E+00
         -1   -1    0    0    0  501 -0.00000000000E+00  0.00000000000E+00  0.82849136020E+02  0.82849136020E+02  0.00000000000E+00 0. -1.
          1   -1    0    0  502    0  0.00000000000E+00 -0.00000000000E+00 -0.55989226468E+03  0.55989226468E+03  0.00000000000E+00 0.  1.
          6    1    1    2  502    0  0.66095996791E+02  0.24692644166E+02 -0.39839103680E+03  0.44002593749E+03  0.17300000000E+03 0.  1.
         -6    1    1    2    0  501 -0.66095996791E+02 -0.24692644166E+02 -0.78652091861E+02  0.20271546320E+03  0.17300000000E+03 0. -1.
<mgrwt>
<rscale>  2 0.18683524E+03</rscale>
<asrwt>0</asrwt>
<pdfrwt beam="2">  1        1 0.86137272E-01 0.18683524E+03</pdfrwt>
<pdfrwt beam="1">  1       -1 0.12746021E-01 0.18683524E+03</pdfrwt>
<totfact> 0.16033635E+03</totfact>
</mgrwt>
</event>
<event>
 4    1  0.7691552E-001  0.2006016E+03  0.7546771E-02  0.1149232E+00
         -2   -1    0    0    0  501 -0.00000000000E+00  0.00000000000E+00  0.11648963788E+03  0.11648963788E+03  0.00000000000E+00 0.  1.
          2   -1    0    0  502    0  0.00000000000E+00 -0.00000000000E+00 -0.39153643857E+03  0.39153643857E+03  0.00000000000E+00 0. -1.
          6    1    1    2  502    0 -0.63601578777E+02 -0.79163296472E+02 -0.22467411095E+03  0.30119668733E+03  0.17300000000E+03 0. -1.
         -6    1    1    2    0  501  0.63601578777E+02  0.79163296472E+02 -0.50372689737E+02  0.20682938912E+03  0.17300000000E+03 0.  1.
<mgrwt>
<rscale>  2 0.20060157E+03</rscale>
<asrwt>0</asrwt>
<pdfrwt beam="2">  1        2 0.60236375E-01 0.20060157E+03</pdfrwt>
<pdfrwt beam="1">  1       -2 0.17921483E-01 0.20060157E+03</pdfrwt>
<totfact> 0.20534262E+03</totfact>
</mgrwt>
</event>
<event>
 4    1  0.7691552E-001  0.1811536E+03  0.7546771E-02  0.1166691E+00
         -2   -1    0    0    0  501 -0.00000000000E+00  0.00000000000E+00  0.50819833946E+03  0.50819833946E+03  0.00000000000E+00 0.  1.
          2   -1    0    0  502    0  0.00000000000E+00 -0.00000000000E+00 -0.12401753353E+03  0.12401753353E+03  0.00000000000E+00 0. -1.
          6    1    1    2  502    0  0.45790205268E+02  0.28122752990E+02 -0.26758559451E+02  0.18311923066E+03  0.17300000000E+03 0. -1.
         -6    1    1    2    0  501 -0.45790205268E+02 -0.28122752990E+02  0.41093936538E+03  0.44909664233E+03  0.17300000000E+03 0.  1.
<mgrwt>
<rscale>  2 0.18115361E+03</rscale>
<asrwt>0</asrwt>
<pdfrwt beam="2">  1        2 0.19079621E-01 0.18115361E+03</pdfrwt>
<pdfrwt beam="1">  1       -2 0.78184359E-01 0.18115361E+03</pdfrwt>
<totfact> 0.43895019E+02</totfact>
</mgrwt>
</event>
<event>
 4    1  0.7691552E-001  0.2255441E+03  0.7546771E-02  0.1129816E+00
         -2   -1    0    0    0  501 -0.00000000000E+00  0.00000000000E+00  0.50453927750E+03  0.50453927750E+03  0.00000000000E+00 0.  1.
          2   -1    0    0  502    0  0.00000000000E+00 -0.00000000000E+00 -0.10234710201E+03  0.10234710201E+03  0.00000000000E+00 0. -1.
          6    1    1    2  502    0  0.92643154664E+02  0.11116832038E+03  0.16409043837E+03  0.27891902324E+03  0.17300000000E+03 0.  1.
         -6    1    1    2    0  501 -0.92643154664E+02 -0.11116832038E+03  0.23810173711E+03  0.32796735627E+03  0.17300000000E+03 0. -1.
<mgrwt>
<rscale>  2 0.22554412E+03</rscale>
<asrwt>0</asrwt>
<pdfrwt beam="2">  1        2 0.15745708E-01 0.22554412E+03</pdfrwt>
<pdfrwt beam="1">  1       -2 0.77621426E-01 0.22554412E+03</pdfrwt>
<totfact> 0.55925779E+02</totfact>
</mgrwt>
</event>
<event>
 4    1  0.7691552E-001  0.1844440E+03  0.7546771E-02  0.1163570E+00
          1   -1    0    0  502    0  0.00000000000E+00  0.00000000000E+00  0.24684657783E+03  0.24684657783E+03  0.00000000000E+00 0. -1.
         -1   -1    0    0    0  501 -0.00000000000E+00 -0.00000000000E+00 -0.13782228308E+03  0.13782228308E+03  0.00000000000E+00 0.  1.
          6    1    1    2  502    0 -0.34556471827E+02  0.53818520662E+02  0.53288952715E+02  0.19198774803E+03  0.17300000000E+03 0.  1.
         -6    1    1    2    0  501  0.34556471827E+02 -0.53818520662E+02  0.55735342037E+02  0.19268111289E+03  0.17300000000E+03 0. -1.
<mgrwt>
<rscale>  2 0.18444398E+03</rscale>
<asrwt>0</asrwt>
<pdfrwt beam="1">  1        1 0.37976397E-01 0.18444398E+03</pdfrwt>
<pdfrwt beam="2">  1       -1 0.21203428E-01 0.18444398E+03</pdfrwt>
<totfact> 0.20284411E+03</totfact>
</mgrwt>
</event>
<event>
 4    1  0.7691552E-001  0.2627053E+03  0.7546771E-02  0.1105529E+00
         -2   -1    0    0    0  501 -0.00000000000E+00  0.00000000000E+00  0.47596018143E+02  0.47596018143E+02  0.00000000000E+00 0.  1.
          2   -1    0    0  502    0  0.00000000000E+00 -0.00000000000E+00 -0.16002437453E+04  0.16002437453E+04  0.00000000000E+00 0. -1.
          6    1    1    2  502    0  0.13816418796E+03 -0.14140627419E+03 -0.10287850632E+04  0.10617969597E+04  0.17300000000E+03 0. -1.
         -6    1    1    2    0  501 -0.13816418796E+03  0.14140627419E+03 -0.52386266394E+03  0.58604280380E+03  0.17300000000E+03 0. -1.
<mgrwt>
<rscale>  2 0.26270530E+03</rscale>
<asrwt>0</asrwt>
<pdfrwt beam="2">  1        2 0.24619134E+00 0.26270530E+03</pdfrwt>
<pdfrwt beam="1">  1       -2 0.73224646E-02 0.26270530E+03</pdfrwt>
<totfact> 0.13120673E+03</totfact>
</mgrwt>
</event>
<event>
 4    1  0.7691552E-001  0.1871568E+03  0.7546771E-02  0.1161051E+00
          2   -1    0    0  502    0  0.00000000000E+00  0.00000000000E+00  0.12994090145E+04  0.12994090145E+04  0.00000000000E+00 0.  1.
         -2   -1    0    0    0  501 -0.00000000000E+00 -0.00000000000E+00 -0.80682474651E+02  0.80682474651E+02  0.00000000000E+00 0. -1.
          6    1    1    2  502    0  0.61103615168E+02  0.36945987345E+02  0.11724560994E+04  0.11872998622E+04  0.17300000000E+03 0.  1.
         -6    1    1    2    0  501 -0.61103615168E+02 -0.36945987345E+02  0.46270440470E+02  0.19279162697E+03  0.17300000000E+03 0. -1.
<mgrwt>
<rscale>  2 0.18715677E+03</rscale>
<asrwt>0</asrwt>
<pdfrwt beam="1">  1        2 0.19990906E+00 0.18715677E+03</pdfrwt>
<pdfrwt beam="2">  1       -2 0.12412689E-01 0.18715677E+03</pdfrwt>
<totfact> 0.82971540E+02</totfact>
</mgrwt>
</event>
<event>
 4    1  0.7691552E-001  0.2454338E+03  0.7546771E-02  0.1116225E+00
         -1   -1    0    0    0  501 -0.00000000000E+00  0.00000000000E+00  0.85727691059E+02  0.85727691059E+02  0.00000000000E+00 0. -1.
          1   -1    0    0  502    0  0.00000000000E+00 -0.00000000000E+00 -0.17114749230E+04  0.17114749230E+04  0.00000000000E+00 0.  1.
          6    1    1    2  502    0 -0.10660423776E+03  0.13763818691E+03 -0.15027745532E+04  0.15226848301E+04  0.17300000000E+03 0.  1.
         -6    1    1    2    0  501  0.10660423776E+03 -0.13763818691E+03 -0.12297267874E+03  0.27451778398E+03  0.17300000000E+03 0. -1.
<mgrwt>
<rscale>  2 0.24543377E+03</rscale>
<asrwt>0</asrwt>
<pdfrwt beam="2">  1        1 0.26330383E+00 0.24543377E+03</pdfrwt>
<pdfrwt beam="1">  1       -1 0.13188876E-01 0.24543377E+03</pdfrwt>
<totfact> 0.20707688E+02</totfact>
</mgrwt>
</event>
<event>
 4    1  0.7691552E-001  0.1826049E+03  0.7546771E-02  0.1165306E+00
          2   -1    0    0  502    0  0.00000000000E+00  0.00000000000E+00  0.35651736281E+03  0.35651736281E+03  0.00000000000E+00 0. -1.
         -2   -1    0    0    0  501 -0.00000000000E+00 -0.00000000000E+00 -0.19260595368E+03  0.19260595368E+03  0.00000000000E+00 0.  1.
          6    1    1    2  502    0 -0.58069567567E+02 -0.65927605913E+01 -0.11496547244E+03  0.21578136857E+03  0.17300000000E+03 0.  1.
         -6    1    1    2    0  501  0.58069567567E+02  0.65927605913E+01  0.27887688157E+03  0.33334194792E+03  0.17300000000E+03 0. -1.
<mgrwt>
<rscale>  2 0.18260487E+03</rscale>
<asrwt>0</asrwt>
<pdfrwt beam="1">  1        2 0.54848825E-01 0.18260487E+03</pdfrwt>
<pdfrwt beam="2">  1       -2 0.29631685E-01 0.18260487E+03</pdfrwt>
<totfact> 0.94497696E+02</totfact>
</mgrwt>
</event>
<event>
 4    1  0.7691552E-001  0.1817993E+03  0.7546771E-02  0.1166073E+00
          2   -1    0    0  502    0  0.00000000000E+00  0.00000000000E+00  0.14438125101E+04  0.14438125101E+04  0.00000000000E+00 0.  1.
         -2   -1    0    0    0  501 -0.00000000000E+00 -0.00000000000E+00 -0.26629247112E+02  0.26629247112E+02  0.00000000000E+00 0. -1.
          6    1    1    2  502    0  0.27785689483E+02  0.48476088734E+02  0.43313978183E+03  0.46974572518E+03  0.17300000000E+03 0. -1.
         -6    1    1    2    0  501 -0.27785689483E+02 -0.48476088734E+02  0.98404348115E+03  0.10006960320E+04  0.17300000000E+03 0.  1.
<mgrwt>
<rscale>  2 0.18179927E+03</rscale>
<asrwt>0</asrwt>
<pdfrwt beam="1">  1        2 0.22212494E+00 0.18179927E+03</pdfrwt>
<pdfrwt beam="2">  1       -2 0.40968084E-02 0.18179927E+03</pdfrwt>
<totfact> 0.38578174E+03</totfact>
</mgrwt>
</event>
<event>
 4    1  0.7691552E-001  0.1820168E+03  0.7546771E-02  0.1165865E+00
         -1   -1    0    0    0  501 -0.00000000000E+00  0.00000000000E+00  0.10657391401E+03  0.10657391401E+03  0.00000000000E+00 0.  1.
          1   -1    0    0  502    0  0.00000000000E+00 -0.00000000000E+00 -0.31846393174E+03  0.31846393174E+03  0.00000000000E+00 0. -1.
          6    1    1    2  502    0 -0.56373599880E+02  0.48093561577E+01 -0.73117321050E+02  0.19615365229E+03  0.17300000000E+03 0. -1.
         -6    1    1    2    0  501  0.56373599880E+02 -0.48093561577E+01 -0.13877269667E+03  0.22888419345E+03  0.17300000000E+03 0.  1.
<mgrwt>
<rscale>  2 0.18201679E+03</rscale>
<asrwt>0</asrwt>
<pdfrwt beam="2">  1        1 0.48994450E-01 0.18201679E+03</pdfrwt>
<pdfrwt beam="1">  1       -1 0.16395987E-01 0.18201679E+03</pdfrwt>
<totfact> 0.22303399E+03</totfact>
</mgrwt>
</event>
<event>
 4    1  0.7691552E-001  0.1741162E+03  0.7546771E-02  0.1173622E+00
          1   -1    0    0  502    0  0.00000000000E+00  0.00000000000E+00  0.13398473572E+03  0.13398473572E+03  0.00000000000E+00 0.  1.
         -1   -1    0    0    0  501 -0.00000000000E+00 -0.00000000000E+00 -0.28370250721E+03  0.28370250721E+03  0.00000000000E+00 0. -1.
          6    1    1    2  502    0  0.13175695535E+02 -0.14624223794E+02  0.19108216196E+02  0.17516161338E+03  0.17300000000E+03 0.  1.
         -6    1    1    2    0  501 -0.13175695535E+02  0.14624223794E+02 -0.16882598768E+03  0.24252562956E+03  0.17300000000E+03 0. -1.
<mgrwt>
<rscale>  2 0.17411625E+03</rscale>
<asrwt>0</asrwt>
<pdfrwt beam="1">  1        1 0.20613037E-01 0.17411625E+03</pdfrwt>
<pdfrwt beam="2">  1       -1 0.43646539E-01 0.17411625E+03</pdfrwt>
<totfact> 0.12824458E+03</totfact>
</mgrwt>
</event>
<event>
 4    1  0.7691552E-001  0.1990071E+03  0.7546771E-02  0.1150579E+00
         -2   -1    0    0    0  501 -0.00000000000E+00  0.00000000000E+00  0.61251528297E+03  0.61251528297E+03  0.00000000000E+00 0. -1.
          2   -1    0    0  502    0  0.00000000000E+00 -0.00000000000E+00 -0.66320210765E+02  0.66320210765E+02  0.00000000000E+00 0.  1.
          6    1    1    2  502    0 -0.97376643870E+02  0.13879133507E+02  0.21935831914E+03  0.29617885355E+03  0.17300000000E+03 0. -1.
         -6    1    1    2    0  501  0.97376643870E+02 -0.13879133507E+02  0.32683675307E+03  0.38265664018E+03  0.17300000000E+03 0.  1.
<mgrwt>
<rscale>  2 0.19900714E+03</rscale>
<asrwt>0</asrwt>
<pdfrwt beam="2">  1        2 0.10203110E-01 0.19900714E+03</pdfrwt>
<pdfrwt beam="1">  1       -2 0.94233117E-01 0.19900714E+03</pdfrwt>
<totfact> 0.61093528E+02</totfact>
</mgrwt>
</event>
<event>
 4    1  0.7691552E-001  0.3456442E+03  0.7546771E-02  0.1064417E+00
          2   -1    0    0  502    0  0.00000000000E+00  0.00000000000E+00  0.53097348494E+03  0.53097348494E+03  0.00000000000E+00 0. -1.
         -2   -1    0    0    0  501 -0.00000000000E+00 -0.00000000000E+00 -0.27234281965E+03  0.27234281965E+03  0.00000000000E+00 0.  1.
          6    1    1    2  502    0 -0.13178025001E+03  0.26865386191E+03  0.29677797003E+03  0.45557336984E+03  0.17300000000E+03 0. -1.
         -6    1    1    2    0  501  0.13178025001E+03 -0.26865386191E+03 -0.38147304736E+02  0.34774293475E+03  0.17300000000E+03 0.  1.
<mgrwt>
<rscale>  2 0.34564423E+03</rscale>
<asrwt>0</asrwt>
<pdfrwt beam="1">  1        2 0.81688228E-01 0.34564423E+03</pdfrwt>
<pdfrwt beam="2">  1       -2 0.41898896E-01 0.34564423E+03</pdfrwt>
<totfact> 0.31755603E+02</totfact>
</mgrwt>
</event>
<event>
 4    1  0.7691552E-001  0.1930254E+03  0.7546771E-02  0.1155761E+00
         -4   -1    0    0    0  501 -0.00000000000E+00  0.00000000000E+00  0.19101310843E+03  0.19101310843E+03  0.00000000000E+00 0.  1.
          4   -1    0    0  502    0  0.00000000000E+00 -0.00000000000E+00 -0.19942614627E+03  0.19942614627E+03  0.00000000000E+00 0. -1.
          6    1    1    2  502    0  0.80131326785E+02 -0.30145836216E+02 -0.33095870400E+02  0.19584212420E+03  0.17300000000E+03 0. -1.
         -6    1    1    2    0  501 -0.80131326785E+02  0.30145836216E+02  0.24682832563E+02  0.19459713050E+03  0.17300000000E+03 0. -1.
<mgrwt>
<rscale>  2 0.19302539E+03</rscale>
<asrwt>0</asrwt>
<pdfrwt beam="2">  1        4 0.30680945E-01 0.19302539E+03</pdfrwt>
<pdfrwt beam="1">  1       -4 0.29386632E-01 0.19302539E+03</pdfrwt>
<totfact> 0.19923778E+02</totfact>
</mgrwt>
</event>
<event>
 4    1  0.7691552E-001  0.1754536E+03  0.7546771E-02  0.1172277E+00
          2   -1    0    0  502    0  0.00000000000E+00  0.00000000000E+00  0.10829491860E+04  0.10829491860E+04  0.00000000000E+00 0. -1.
         -2   -1    0    0    0  501 -0.00000000000E+00 -0.00000000000E+00 -0.38244339781E+02  0.38244339781E+02  0.00000000000E+00 0.  1.
          6    1    1    2  502    0 -0.28826828475E+02 -0.48955214090E+01  0.80639617589E+03  0.82526283369E+03  0.17300000000E+03 0. -1.
         -6    1    1    2    0  501  0.28826828475E+02  0.48955214090E+01  0.23830867031E+03  0.29593069208E+03  0.17300000000E+03 0.  1.
<mgrwt>
<rscale>  2 0.17545356E+03</rscale>
<asrwt>0</asrwt>
<pdfrwt beam="1">  1        2 0.16660754E+00 0.17545356E+03</pdfrwt>
<pdfrwt beam="2">  1       -2 0.58837454E-02 0.17545356E+03</pdfrwt>
<totfact> 0.35321398E+03</totfact>
</mgrwt>
</event>
<event>
 4    1  0.7691552E-001  0.1971411E+03  0.7546771E-02  0.1152174E+00
         -1   -1    0    0    0  501 -0.00000000000E+00  0.00000000000E+00  0.20187321095E+03  0.20187321095E+03  0.00000000000E+00 0. -1.
          1   -1    0    0  502    0  0.00000000000E+00 -0.00000000000E+00 -0.19258580585E+03  0.19258580585E+03  0.00000000000E+00 0.  1.
          6    1    1    2  502    0  0.93977276662E+02  0.10192444073E+02  0.99569729909E+00  0.19714361734E+03  0.17300000000E+03 0.  1.
         -6    1    1    2    0  501 -0.93977276662E+02 -0.10192444073E+02  0.82917077952E+01  0.19731539946E+03  0.17300000000E+03 0. -1.
<mgrwt>
<rscale>  2 0.19714110E+03</rscale>
<asrwt>0</asrwt>
<pdfrwt beam="2">  1        1 0.29628586E-01 0.19714110E+03</pdfrwt>
<pdfrwt beam="1">  1       -1 0.31057417E-01 0.19714110E+03</pdfrwt>
<totfact> 0.14701324E+03</totfact>
</mgrwt>
</event>
<event>
 4    1  0.7691552E-001  0.1757834E+03  0.7546771E-02  0.1171947E+00
          2   -1    0    0  502    0  0.00000000000E+00  0.00000000000E+00  0.27175683935E+04  0.27175683935E+04  0.00000000000E+00 0. -1.
         -2   -1    0    0    0  501 -0.00000000000E+00 -0.00000000000E+00 -0.12194130268E+02  0.12194130268E+02  0.00000000000E+00 0.  1.
          6    1    1    2  502    0  0.20263403518E+02  0.23668434125E+02  0.17074317267E+04  0.17164564957E+04  0.17300000000E+03 0. -1.
         -6    1    1    2    0  501 -0.20263403518E+02 -0.23668434125E+02  0.99794253655E+03  0.10133060281E+04  0.17300000000E+03 0.  1.
<mgrwt>
<rscale>  2 0.17578339E+03</rscale>
<asrwt>0</asrwt>
<pdfrwt beam="1">  1        2 0.41808696E+00 0.17578339E+03</pdfrwt>
<pdfrwt beam="2">  1       -2 0.18760222E-02 0.17578339E+03</pdfrwt>
<totfact> 0.26028292E+03</totfact>
</mgrwt>
</event>
<event>
 4    1  0.7691552E-001  0.2435265E+03  0.7546771E-02  0.1117466E+00
         -1   -1    0    0    0  501 -0.00000000000E+00  0.00000000000E+00  0.47962698993E+03  0.47962698993E+03  0.00000000000E+00 0. -1.
          1   -1    0    0  502    0  0.00000000000E+00 -0.00000000000E+00 -0.31251788021E+03  0.31251788021E+03  0.00000000000E+00 0.  1.
          6    1    1    2  502    0  0.16850529522E+03 -0.31338841669E+02  0.39146042020E+03  0.46102756761E+03  0.17300000000E+03 0. -1.
         -6    1    1    2    0  501 -0.16850529522E+03  0.31338841669E+02 -0.22435131048E+03  0.33111730252E+03  0.17300000000E+03 0.  1.
<mgrwt>
<rscale>  2 0.24352650E+03</rscale>
<asrwt>0</asrwt>
<pdfrwt beam="2">  1        1 0.48079674E-01 0.24352650E+03</pdfrwt>
<pdfrwt beam="1">  1       -1 0.73788768E-01 0.24352650E+03</pdfrwt>
<totfact> 0.16231493E+02</totfact>
</mgrwt>
</event>
<event>
 4    1  0.7691552E-001  0.1813608E+03  0.7546771E-02  0.1166493E+00
         -2   -1    0    0    0  501 -0.00000000000E+00  0.00000000000E+00  0.27754704708E+03  0.27754704708E+03  0.00000000000E+00 0. -1.
          2   -1    0    0  502    0  0.00000000000E+00 -0.00000000000E+00 -0.12657976290E+03  0.12657976290E+03  0.00000000000E+00 0.  1.
          6    1    1    2  502    0 -0.49032353598E+02  0.23633969261E+02  0.12650725849E+03  0.22112399837E+03  0.17300000000E+03 0. -1.
         -6    1    1    2    0  501  0.49032353598E+02 -0.23633969261E+02  0.24460025696E+02  0.18300281162E+03  0.17300000000E+03 0.  1.
<mgrwt>
<rscale>  2 0.18136079E+03</rscale>
<asrwt>0</asrwt>
<pdfrwt beam="2">  1        2 0.19473810E-01 0.18136079E+03</pdfrwt>
<pdfrwt beam="1">  1       -2 0.42699546E-01 0.18136079E+03</pdfrwt>
<totfact> 0.14830919E+03</totfact>
</mgrwt>
</event>
<event>
 4    1  0.7691552E-001  0.1763656E+03  0.7546771E-02  0.1171367E+00
          2   -1    0    0  502    0  0.00000000000E+00  0.00000000000E+00  0.52276811821E+03  0.52276811821E+03  0.00000000000E+00 0. -1.
         -2   -1    0    0    0  501 -0.00000000000E+00 -0.00000000000E+00 -0.61603314554E+02  0.61603314554E+02  0.00000000000E+00 0.  1.
          6    1    1    2  502    0  0.23501666848E+02 -0.24970025871E+02  0.17659606336E+03  0.24958165023E+03  0.17300000000E+03 0.  1.
         -6    1    1    2    0  501 -0.23501666848E+02  0.24970025871E+02  0.28456874030E+03  0.33478978254E+03  0.17300000000E+03 0. -1.
<mgrwt>
<rscale>  2 0.17636562E+03</rscale>
<asrwt>0</asrwt>
<pdfrwt beam="1">  1        2 0.80425862E-01 0.17636562E+03</pdfrwt>
<pdfrwt beam="2">  1       -2 0.94774333E-02 0.17636562E+03</pdfrwt>
<totfact> 0.41906109E+03</totfact>
</mgrwt>
</event>
<event>
 4    1  0.7691552E-001  0.2146522E+03  0.7546771E-02  0.1137934E+00
         -2   -1    0    0    0  501 -0.00000000000E+00  0.00000000000E+00  0.42629360701E+02  0.42629360701E+02  0.00000000000E+00 0. -1.
          2   -1    0    0  502    0  0.00000000000E+00 -0.00000000000E+00 -0.15895750352E+04  0.15895750352E+04  0.00000000000E+00 0.  1.
          6    1    1    2  502    0 -0.95385326909E+02 -0.83953711003E+02 -0.31178421290E+03  0.37853002734E+03  0.17300000000E+03 0. -1.
         -6    1    1    2    0  501  0.95385326909E+02  0.83953711003E+02 -0.12351614616E+04  0.12536743686E+04  0.17300000000E+03 0.  1.
<mgrwt>
<rscale>  2 0.21465224E+03</rscale>
<asrwt>0</asrwt>
<pdfrwt beam="2">  1        2 0.24454999E+00 0.21465224E+03</pdfrwt>
<pdfrwt beam="1">  1       -2 0.65583635E-02 0.21465224E+03</pdfrwt>
<totfact> 0.15815392E+03</totfact>
</mgrwt>
</event>
<event>
 4    1  0.7691552E-001  0.1772348E+03  0.7546771E-02  0.1170506E+00
          3   -1    0    0  502    0  0.00000000000E+00  0.00000000000E+00  0.20230539018E+03  0.20230539018E+03  0.00000000000E+00 0.  1.
         -3   -1    0    0    0  501 -0.00000000000E+00 -0.00000000000E+00 -0.19938324251E+03  0.19938324251E+03  0.00000000000E+00 0. -1.
          6    1    1    2  502    0 -0.26334624979E+02 -0.28100810095E+02  0.95931222391E+02  0.20153155443E+03  0.17300000000E+03 0.  1.
         -6    1    1    2    0  501  0.26334624979E+02  0.28100810095E+02 -0.93009074717E+02  0.20015707827E+03  0.17300000000E+03 0. -1.
<mgrwt>
<rscale>  2 0.17723478E+03</rscale>
<asrwt>0</asrwt>
<pdfrwt beam="1">  1        3 0.31123906E-01 0.17723478E+03</pdfrwt>
<pdfrwt beam="2">  1       -3 0.30674345E-01 0.17723478E+03</pdfrwt>
<totfact> 0.24872772E+02</totfact>
</mgrwt>
</event>
<event>
 4    1  0.7691552E-001  0.1783210E+03  0.7546771E-02  0.1169438E+00
         -2   -1    0    0    0  501 -0.00000000000E+00  0.00000000000E+00  0.38830760075E+02  0.38830760075E+02  0.00000000000E+00 0.  1.
          2   -1    0    0  502    0  0.00000000000E+00 -0.00000000000E+00 -0.85794578513E+03  0.85794578513E+03  0.00000000000E+00 0. -1.
          6    1    1    2  502    0  0.18530423923E+02  0.39064192523E+02 -0.50521717160E+03  0.53576373359E+03  0.17300000000E+03 0. -1.
         -6    1    1    2    0  501 -0.18530423923E+02 -0.39064192523E+02 -0.31389785345E+03  0.36101281162E+03  0.17300000000E+03 0.  1.
<mgrwt>
<rscale>  2 0.17832102E+03</rscale>
<asrwt>0</asrwt>
<pdfrwt beam="2">  1        2 0.13199165E+00 0.17832102E+03</pdfrwt>
<pdfrwt beam="1">  1       -2 0.59739633E-02 0.17832102E+03</pdfrwt>
<totfact> 0.47484685E+03</totfact>
</mgrwt>
</event>
<event>
 4    1  0.7691552E-001  0.1747186E+03  0.7546771E-02  0.1173015E+00
          2   -1    0    0  502    0  0.00000000000E+00  0.00000000000E+00  0.15399834521E+04  0.15399834521E+04  0.00000000000E+00 0. -1.
         -2   -1    0    0    0  501 -0.00000000000E+00 -0.00000000000E+00 -0.26906458618E+02  0.26906458618E+02  0.00000000000E+00 0.  1.
          6    1    1    2  502    0  0.15377761582E+02 -0.19002688765E+02  0.11585265396E+04  0.11716272106E+04  0.17300000000E+03 0. -1.
         -6    1    1    2    0  501 -0.15377761582E+02  0.19002688765E+02  0.35455045387E+03  0.39526270007E+03  0.17300000000E+03 0.  1.
<mgrwt>
<rscale>  2 0.17471857E+03</rscale>
<asrwt>0</asrwt>
<pdfrwt beam="1">  1        2 0.23692046E+00 0.17471857E+03</pdfrwt>
<pdfrwt beam="2">  1       -2 0.41394564E-02 0.17471857E+03</pdfrwt>
<totfact> 0.33778145E+03</totfact>
</mgrwt>
</event>
<event>
 4    1  0.7691552E-001  0.2413688E+03  0.7546771E-02  0.1118884E+00
         -1   -1    0    0    0  501 -0.00000000000E+00  0.00000000000E+00  0.23637026472E+02  0.23637026472E+02  0.00000000000E+00 0. -1.
          1   -1    0    0  502    0  0.00000000000E+00 -0.00000000000E+00 -0.26799920170E+04  0.26799920170E+04  0.00000000000E+00 0.  1.
          6    1    1    2  502    0 -0.13869904844E+03 -0.95354449713E+02 -0.17112964876E+04  0.17282345227E+04  0.17300000000E+03 0.  1.
         -6    1    1    2    0  501  0.13869904844E+03  0.95354449713E+02 -0.94505850298E+03  0.97539452079E+03  0.17300000000E+03 0. -1.
<mgrwt>
<rscale>  2 0.24136880E+03</rscale>
<asrwt>0</asrwt>
<pdfrwt beam="2">  1        1 0.41230655E+00 0.24136880E+03</pdfrwt>
<pdfrwt beam="1">  1       -1 0.36364648E-02 0.24136880E+03</pdfrwt>
<totfact> 0.34245302E+02</totfact>
</mgrwt>
</event>
<event>
 4    1  0.7691552E-001  0.1776934E+03  0.7546771E-02  0.1170054E+00
          2   -1    0    0  502    0  0.00000000000E+00  0.00000000000E+00  0.52354278558E+03  0.52354278558E+03  0.00000000000E+00 0. -1.
         -2   -1    0    0    0  501 -0.00000000000E+00 -0.00000000000E+00 -0.62184330971E+02  0.62184330971E+02  0.00000000000E+00 0.  1.
          6    1    1    2  502    0  0.84054449042E+01  0.39689877906E+02  0.28152231827E+03  0.33291102955E+03  0.17300000000E+03 0. -1.
         -6    1    1    2    0  501 -0.84054449042E+01 -0.39689877906E+02  0.17983613633E+03  0.25281608699E+03  0.17300000000E+03 0.  1.
<mgrwt>
<rscale>  2 0.17769338E+03</rscale>
<asrwt>0</asrwt>
<pdfrwt beam="1">  1        2 0.80545041E-01 0.17769338E+03</pdfrwt>
<pdfrwt beam="2">  1       -2 0.95668205E-02 0.17769338E+03</pdfrwt>
<totfact> 0.41235512E+03</totfact>
</mgrwt>
</event>
<event>
 4    1  0.7691552E-001  0.2700645E+03  0.7546771E-02  0.1101243E+00
         -2   -1    0    0    0  501 -0.00000000000E+00  0.00000000000E+00  0.30985313138E+03  0.30985313138E+03  0.00000000000E+00 0.  1.
          2   -1    0    0  502    0  0.00000000000E+00 -0.00000000000E+00 -0.28607864320E+03  0.28607864320E+03  0.00000000000E+00 0. -1.
          6    1    1    2  502    0  0.20624601748E+03 -0.21643403905E+02  0.13731669203E+03  0.30296985092E+03  0.17300000000E+03 0.  1.
         -6    1    1    2    0  501 -0.20624601748E+03  0.21643403905E+02 -0.11354220386E+03  0.29296192366E+03  0.17300000000E+03 0. -1.
<mgrwt>
<rscale>  2 0.27006454E+03</rscale>
<asrwt>0</asrwt>
<pdfrwt beam="2">  1        2 0.44012099E-01 0.27006454E+03</pdfrwt>
<pdfrwt beam="1">  1       -2 0.47669712E-01 0.27006454E+03</pdfrwt>
<totfact> 0.48868737E+02</totfact>
</mgrwt>
</event>
<event>
 4    1  0.7691552E-001  0.2002005E+03  0.7546771E-02  0.1149570E+00
         -1   -1    0    0    0  501 -0.00000000000E+00  0.00000000000E+00  0.97948217881E+02  0.97948217881E+02  0.00000000000E+00 0. -1.
          1   -1    0    0  502    0  0.00000000000E+00 -0.00000000000E+00 -0.50179246163E+03  0.50179246163E+03  0.00000000000E+00 0.  1.
          6    1    1    2  502    0  0.51565826467E+02 -0.86557610354E+02 -0.73108140112E+02  0.21313154276E+03  0.17300000000E+03 0.  1.
         -6    1    1    2    0  501 -0.51565826467E+02  0.86557610354E+02 -0.33073610364E+03  0.38660913675E+03  0.17300000000E+03 0.  1.
<mgrwt>
<rscale>  2 0.20020054E+03</rscale>
<asrwt>0</asrwt>
<pdfrwt beam="2">  1        1 0.77198840E-01 0.20020054E+03</pdfrwt>
<pdfrwt beam="1">  1       -1 0.15068957E-01 0.20020054E+03</pdfrwt>
<totfact> 0.14282666E+03</totfact>
</mgrwt>
</event>
<event>
 4    1  0.7691552E-001  0.2293139E+03  0.7546771E-02  0.1127124E+00
          3   -1    0    0  502    0  0.00000000000E+00  0.00000000000E+00  0.98635426001E+02  0.98635426001E+02  0.00000000000E+00 0. -1.
         -3   -1    0    0    0  501 -0.00000000000E+00 -0.00000000000E+00 -0.53551802736E+03  0.53551802736E+03  0.00000000000E+00 0.  1.
          6    1    1    2  502    0 -0.14847344067E+03 -0.24728843047E+02 -0.19723945461E+03  0.30247029725E+03  0.17300000000E+03 0. -1.
         -6    1    1    2    0  501  0.14847344067E+03  0.24728843047E+02 -0.23964314675E+03  0.33168315611E+03  0.17300000000E+03 0.  1.
<mgrwt>
<rscale>  2 0.22931393E+03</rscale>
<asrwt>0</asrwt>
<pdfrwt beam="1">  1        3 0.15174681E-01 0.22931393E+03</pdfrwt>
<pdfrwt beam="2">  1       -3 0.82387388E-01 0.22931393E+03</pdfrwt>
<totfact> 0.12575089E+02</totfact>
</mgrwt>
</event>
<event>
 4    1  0.7691552E-001  0.2261236E+03  0.7546771E-02  0.1129398E+00
          3   -1    0    0  502    0  0.00000000000E+00  0.00000000000E+00  0.11492517740E+03  0.11492517740E+03  0.00000000000E+00 0.  1.
         -3   -1    0    0    0  501 -0.00000000000E+00 -0.00000000000E+00 -0.45881522101E+03  0.45881522101E+03  0.00000000000E+00 0. -1.
          6    1    1    2  502    0  0.44216799734E+02 -0.13873626107E+03 -0.12201226934E+03  0.25694137344E+03  0.17300000000E+03 0.  1.
         -6    1    1    2    0  501 -0.44216799734E+02  0.13873626107E+03 -0.22187777426E+03  0.31679902498E+03  0.17300000000E+03 0. -1.
<mgrwt>
<rscale>  2 0.22612358E+03</rscale>
<asrwt>0</asrwt>
<pdfrwt beam="1">  1        3 0.17680796E-01 0.22612358E+03</pdfrwt>
<pdfrwt beam="2">  1       -3 0.70586958E-01 0.22612358E+03</pdfrwt>
<totfact> 0.13465719E+02</totfact>
</mgrwt>
</event>
<event>
 4    1  0.7691552E-001  0.2971786E+03  0.7546771E-02  0.1086660E+00
         -2   -1    0    0    0  501 -0.00000000000E+00  0.00000000000E+00  0.27434172271E+03  0.27434172271E+03  0.00000000000E+00 0. -1.
          2   -1    0    0  502    0  0.00000000000E+00 -0.00000000000E+00 -0.94012644410E+03  0.94012644410E+03  0.00000000000E+00 0.  1.
          6    1    1    2  502    0 -0.42330859384E+02 -0.23789539074E+03 -0.82530706130E+03  0.87718120364E+03  0.17300000000E+03 0.  1.
         -6    1    1    2    0  501  0.42330859384E+02  0.23789539074E+03  0.15952233991E+03  0.33728696316E+03  0.17300000000E+03 0. -1.
<mgrwt>
<rscale>  2 0.29717860E+03</rscale>
<asrwt>0</asrwt>
<pdfrwt beam="2">  1        2 0.14463484E+00 0.29717860E+03</pdfrwt>
<pdfrwt beam="1">  1       -2 0.42206418E-01 0.29717860E+03</pdfrwt>
<totfact> 0.15479573E+02</totfact>
</mgrwt>
</event>
<event>
 4    1  0.7691552E-001  0.2402382E+03  0.7546771E-02  0.1119634E+00
          2   -1    0    0  502    0  0.00000000000E+00  0.00000000000E+00  0.13449779341E+04  0.13449779341E+04  0.00000000000E+00 0. -1.
         -2   -1    0    0    0  501 -0.00000000000E+00 -0.00000000000E+00 -0.61802017058E+02  0.61802017058E+02  0.00000000000E+00 0.  1.
          6    1    1    2  502    0 -0.70627528499E+02  0.15098720382E+03  0.10304738770E+04  0.10581071754E+04  0.17300000000E+03 0. -1.
         -6    1    1    2    0  501  0.70627528499E+02 -0.15098720382E+03  0.25270204004E+03  0.34867277573E+03  0.17300000000E+03 0.  1.
<mgrwt>
<rscale>  2 0.24023818E+03</rscale>
<asrwt>0</asrwt>
<pdfrwt beam="1">  1        2 0.20691966E+00 0.24023818E+03</pdfrwt>
<pdfrwt beam="2">  1       -2 0.95080037E-02 0.24023818E+03</pdfrwt>
<totfact> 0.11952412E+03</totfact>
</mgrwt>
</event>
<event>
 4    1  0.7691552E-001  0.1820520E+03  0.7546771E-02  0.1165832E+00
         -2   -1    0    0    0  501 -0.00000000000E+00  0.00000000000E+00  0.20028782413E+03  0.20028782413E+03  0.00000000000E+00 0.  1.
          2   -1    0    0  502    0  0.00000000000E+00 -0.00000000000E+00 -0.16549883382E+03  0.16549883382E+03  0.00000000000E+00 0. -1.
          6    1    1    2  502    0 -0.69670796568E+01  0.56261648501E+02  0.19522639166E+02  0.18309573106E+03  0.17300000000E+03 0. -1.
         -6    1    1    2    0  501  0.69670796568E+01 -0.56261648501E+02  0.15266351151E+02  0.18269092689E+03  0.17300000000E+03 0. -1.
<mgrwt>
<rscale>  2 0.18205195E+03</rscale>
<asrwt>0</asrwt>
<pdfrwt beam="2">  1        2 0.25461359E-01 0.18205195E+03</pdfrwt>
<pdfrwt beam="1">  1       -2 0.30813511E-01 0.18205195E+03</pdfrwt>
<totfact> 0.20185615E+03</totfact>
</mgrwt>
</event>
<event>
 4    1  0.7691552E-001  0.2872121E+03  0.7546771E-02  0.1091814E+00
          2   -1    0    0  502    0  0.00000000000E+00  0.00000000000E+00  0.40130267384E+03  0.40130267384E+03  0.00000000000E+00 0. -1.
         -2   -1    0    0    0  501 -0.00000000000E+00 -0.00000000000E+00 -0.25637872383E+03  0.25637872383E+03  0.00000000000E+00 0.  1.
          6    1    1    2  502    0  0.10421482273E+03 -0.20420834308E+03 -0.73946800034E+02  0.29657866729E+03  0.17300000000E+03 0. -1.
         -6    1    1    2    0  501 -0.10421482273E+03  0.20420834308E+03  0.21887075004E+03  0.36110273037E+03  0.17300000000E+03 0. -1.
<mgrwt>
<rscale>  2 0.28721208E+03</rscale>
<asrwt>0</asrwt>
<pdfrwt beam="1">  1        2 0.61738873E-01 0.28721208E+03</pdfrwt>
<pdfrwt beam="2">  1       -2 0.39442880E-01 0.28721208E+03</pdfrwt>
<totfact> 0.48919325E+02</totfact>
</mgrwt>
</event>
<event>
 4    1  0.7691552E-001  0.1786657E+03  0.7546771E-02  0.1169101E+00
          1   -1    0    0  502    0  0.00000000000E+00  0.00000000000E+00  0.51013778331E+02  0.51013778331E+02  0.00000000000E+00 0. -1.
         -1   -1    0    0    0  501 -0.00000000000E+00 -0.00000000000E+00 -0.62788155092E+03  0.62788155092E+03  0.00000000000E+00 0.  1.
          6    1    1    2  502    0  0.17002269623E+02 -0.41271872850E+02 -0.30825066750E+03  0.35628628752E+03  0.17300000000E+03 0.  1.
         -6    1    1    2    0  501 -0.17002269623E+02  0.41271872850E+02 -0.26861710509E+03  0.32260904174E+03  0.17300000000E+03 0.  1.
<mgrwt>
<rscale>  2 0.17866573E+03</rscale>
<asrwt>0</asrwt>
<pdfrwt beam="1">  1        1 0.78482743E-02 0.17866573E+03</pdfrwt>
<pdfrwt beam="2">  1       -1 0.96597153E-01 0.17866573E+03</pdfrwt>
<totfact> 0.96358703E+02</totfact>
</mgrwt>
</event>
<event>
 4    1  0.7691552E-001  0.2030816E+03  0.7546771E-02  0.1147165E+00
         -3   -1    0    0    0  501 -0.00000000000E+00  0.00000000000E+00  0.16101305760E+03  0.16101305760E+03  0.00000000000E+00 0. -1.
          3   -1    0    0  502    0  0.00000000000E+00 -0.00000000000E+00 -0.26259066390E+03  0.26259066390E+03  0.00000000000E+00 0.  1.
          6    1    1    2  502    0  0.22817621246E+02  0.10388697092E+03 -0.17596487127E+02  0.20384254444E+03  0.17300000000E+03 0.  1.
         -6    1    1    2    0  501 -0.22817621246E+02 -0.10388697092E+03 -0.83981119176E+02  0.21976117706E+03  0.17300000000E+03 0. -1.
<mgrwt>
<rscale>  2 0.20308163E+03</rscale>
<asrwt>0</asrwt>
<pdfrwt beam="2">  1        3 0.40398564E-01 0.20308163E+03</pdfrwt>
<pdfrwt beam="1">  1       -3 0.24771240E-01 0.20308163E+03</pdfrwt>
<totfact> 0.22768786E+02</totfact>
</mgrwt>
</event>
<event>
 4    1  0.7691552E-001  0.2620611E+03  0.7546771E-02  0.1105911E+00
         -2   -1    0    0    0  501 -0.00000000000E+00  0.00000000000E+00  0.78426361171E+03  0.78426361171E+03  0.00000000000E+00 0.  1.
          2   -1    0    0  502    0  0.00000000000E+00 -0.00000000000E+00 -0.92586392429E+02  0.92586392429E+02  0.00000000000E+00 0. -1.
          6    1    1    2  502    0  0.15668958529E+03  0.11914452547E+03  0.44791456508E+03  0.51894460369E+03  0.17300000000E+03 0.  1.
         -6    1    1    2    0  501 -0.15668958529E+03 -0.11914452547E+03  0.24376265420E+03  0.35790540045E+03  0.17300000000E+03 0. -1.
<mgrwt>
<rscale>  2 0.26206115E+03</rscale>
<asrwt>0</asrwt>
<pdfrwt beam="2">  1        2 0.14244061E-01 0.26206115E+03</pdfrwt>
<pdfrwt beam="1">  1       -2 0.12065594E+00 0.26206115E+03</pdfrwt>
<totfact> 0.22778176E+02</totfact>
</mgrwt>
</event>
<event>
 4    1  0.7691552E-001  0.1845843E+03  0.7546771E-02  0.1163439E+00
          1   -1    0    0  502    0  0.00000000000E+00  0.00000000000E+00  0.15326192560E+04  0.15326192560E+04  0.00000000000E+00 0. -1.
         -1   -1    0    0    0  501 -0.00000000000E+00 -0.00000000000E+00 -0.23786238602E+02  0.23786238602E+02  0.00000000000E+00 0.  1.
          6    1    1    2  502    0  0.62106123293E+02  0.16887150988E+02  0.55541478727E+03  0.58528363409E+03  0.17300000000E+03 0.  1.
         -6    1    1    2    0  501 -0.62106123293E+02 -0.16887150988E+02  0.95341823015E+03  0.97112186053E+03  0.17300000000E+03 0. -1.
<mgrwt>
<rscale>  2 0.18458425E+03</rscale>
<asrwt>0</asrwt>
<pdfrwt beam="1">  1        1 0.23578750E+00 0.18458425E+03</pdfrwt>
<pdfrwt beam="2">  1       -1 0.36594225E-02 0.18458425E+03</pdfrwt>
<totfact> 0.19134194E+03</totfact>
</mgrwt>
</event>
<event>
 4    1  0.7691552E-001  0.1847087E+03  0.7546771E-02  0.1163322E+00
          2   -1    0    0  502    0  0.00000000000E+00  0.00000000000E+00  0.34098444644E+03  0.34098444644E+03  0.00000000000E+00 0.  1.
         -2   -1    0    0    0  501 -0.00000000000E+00 -0.00000000000E+00 -0.11020095814E+03  0.11020095814E+03  0.00000000000E+00 0. -1.
          6    1    1    2  502    0 -0.28369267345E+02  0.58167851333E+02  0.46942028758E+02  0.19058034611E+03  0.17300000000E+03 0. -1.
         -6    1    1    2    0  501  0.28369267345E+02 -0.58167851333E+02  0.18384145954E+03  0.26060505847E+03  0.17300000000E+03 0.  1.
<mgrwt>
<rscale>  2 0.18470873E+03</rscale>
<asrwt>0</asrwt>
<pdfrwt beam="1">  1        2 0.52459145E-01 0.18470873E+03</pdfrwt>
<pdfrwt beam="2">  1       -2 0.16953994E-01 0.18470873E+03</pdfrwt>
<totfact> 0.26084610E+03</totfact>
</mgrwt>
</event>
<event>
 4    1  0.7691552E-001  0.1808477E+03  0.7546771E-02  0.1166985E+00
          1   -1    0    0  502    0  0.00000000000E+00  0.00000000000E+00  0.48326698233E+03  0.48326698233E+03  0.00000000000E+00 0.  1.
         -1   -1    0    0    0  501 -0.00000000000E+00 -0.00000000000E+00 -0.67833051736E+02  0.67833051736E+02  0.00000000000E+00 0. -1.
          6    1    1    2  502    0  0.52450154391E+02  0.50880576149E+01  0.19448717881E+03  0.26557705049E+03  0.17300000000E+03 0. -1.
         -6    1    1    2    0  501 -0.52450154391E+02 -0.50880576149E+01  0.22094675178E+03  0.28552298357E+03  0.17300000000E+03 0. -1.
<mgrwt>
<rscale>  2 0.18084775E+03</rscale>
<asrwt>0</asrwt>
<pdfrwt beam="1">  1        1 0.74348764E-01 0.18084775E+03</pdfrwt>
<pdfrwt beam="2">  1       -1 0.10435854E-01 0.18084775E+03</pdfrwt>
<totfact> 0.26566713E+03</totfact>
</mgrwt>
</event>
<event>
 4    1  0.7691552E-001  0.1786350E+03  0.7546771E-02  0.1169131E+00
         -1   -1    0    0    0  501 -0.00000000000E+00  0.00000000000E+00  0.25008097575E+02  0.25008097575E+02  0.00000000000E+00 0. -1.
          1   -1    0    0  502    0  0.00000000000E+00 -0.00000000000E+00 -0.17764150259E+04  0.17764150259E+04  0.00000000000E+00 0.  1.
          6    1    1    2  502    0 -0.15018562232E+02 -0.41903615647E+02 -0.13537567414E+04  0.13654917741E+04  0.17300000000E+03 0. -1.
         -6    1    1    2    0  501  0.15018562232E+02  0.41903615647E+02 -0.39765018692E+03  0.43593134938E+03  0.17300000000E+03 0. -1.
<mgrwt>
<rscale>  2 0.17863502E+03</rscale>
<asrwt>0</asrwt>
<pdfrwt beam="2">  1        1 0.27329467E+00 0.17863502E+03</pdfrwt>
<pdfrwt beam="1">  1       -1 0.38473989E-02 0.17863502E+03</pdfrwt>
<totfact> 0.12361946E+03</totfact>
</mgrwt>
</event>
<event>
 4    1  0.7691552E-001  0.2158440E+03  0.7546771E-02  0.1137020E+00
          1   -1    0    0  502    0  0.00000000000E+00  0.00000000000E+00  0.28612081202E+03  0.28612081202E+03  0.00000000000E+00 0.  1.
         -1   -1    0    0    0  501 -0.00000000000E+00 -0.00000000000E+00 -0.16842338571E+03  0.16842338571E+03  0.00000000000E+00 0. -1.
          6    1    1    2  502    0 -0.12040557583E+03  0.46498870568E+02  0.17426133450E+02  0.21654634096E+03  0.17300000000E+03 0.  1.
         -6    1    1    2    0  501  0.12040557583E+03 -0.46498870568E+02  0.10027129285E+03  0.23799785677E+03  0.17300000000E+03 0. -1.
<mgrwt>
<rscale>  2 0.21584404E+03</rscale>
<asrwt>0</asrwt>
<pdfrwt beam="1">  1        1 0.44018587E-01 0.21584404E+03</pdfrwt>
<pdfrwt beam="2">  1       -1 0.25911290E-01 0.21584404E+03</pdfrwt>
<totfact> 0.12164503E+03</totfact>
</mgrwt>
</event>
<event>
 4    1  0.7691552E-001  0.2337926E+03  0.7546771E-02  0.1123998E+00
          1   -1    0    0  502    0  0.00000000000E+00  0.00000000000E+00  0.10223997695E+04  0.10223997695E+04  0.00000000000E+00 0. -1.
         -1   -1    0    0    0  501 -0.00000000000E+00 -0.00000000000E+00 -0.53756510660E+02  0.53756510660E+02  0.00000000000E+00 0.  1.
          6    1    1    2  502    0  0.13466711934E+03 -0.81208155160E+02  0.44445874994E+03  0.50219774780E+03  0.17300000000E+03 0.  1.
         -6    1    1    2    0  501 -0.13466711934E+03  0.81208155160E+02  0.52418450889E+03  0.57395853235E+03  0.17300000000E+03 0.  1.
<mgrwt>
<rscale>  2 0.23379264E+03</rscale>
<asrwt>0</asrwt>
<pdfrwt beam="1">  1        1 0.15729226E+00 0.23379264E+03</pdfrwt>
<pdfrwt beam="2">  1       -1 0.82702331E-02 0.23379264E+03</pdfrwt>
<totfact> 0.12601879E+03</totfact>
</mgrwt>
</event>
<event>
 4    1  0.7691552E-001  0.2066052E+03  0.7546771E-02  0.1144283E+00
         -1   -1    0    0    0  501 -0.00000000000E+00  0.00000000000E+00  0.93503856611E+02  0.93503856611E+02  0.00000000000E+00 0. -1.
          1   -1    0    0  502    0  0.00000000000E+00 -0.00000000000E+00 -0.58843530799E+03  0.58843530799E+03  0.00000000000E+00 0.  1.
          6    1    1    2  502    0  0.93650134243E+02 -0.63137630461E+02 -0.86020311297E+02  0.22379723408E+03  0.17300000000E+03 0. -1.
         -6    1    1    2    0  501 -0.93650134243E+02  0.63137630461E+02 -0.40891114009E+03  0.45814193053E+03  0.17300000000E+03 0.  1.
<mgrwt>
<rscale>  2 0.20660520E+03</rscale>
<asrwt>0</asrwt>
<pdfrwt beam="2">  1        1 0.90528508E-01 0.20660520E+03</pdfrwt>
<pdfrwt beam="1">  1       -1 0.14385209E-01 0.20660520E+03</pdfrwt>
<totfact> 0.12406128E+03</totfact>
</mgrwt>
</event>
<event>
 4    1  0.7691552E-001  0.1958208E+03  0.7546771E-02  0.1153314E+00
         -2   -1    0    0    0  501 -0.00000000000E+00  0.00000000000E+00  0.10778901375E+03  0.10778901375E+03  0.00000000000E+00 0. -1.
          2   -1    0    0  502    0  0.00000000000E+00 -0.00000000000E+00 -0.38540374423E+03  0.38540374423E+03  0.00000000000E+00 0.  1.
          6    1    1    2  502    0  0.81353758351E+02  0.42407103083E+02 -0.20721087200E+03  0.28510023126E+03  0.17300000000E+03 0.  1.
         -6    1    1    2    0  501 -0.81353758351E+02 -0.42407103083E+02 -0.70403858485E+02  0.20809252673E+03  0.17300000000E+03 0. -1.
<mgrwt>
<rscale>  2 0.19582083E+03</rscale>
<asrwt>0</asrwt>
<pdfrwt beam="2">  1        2 0.59292884E-01 0.19582083E+03</pdfrwt>
<pdfrwt beam="1">  1       -2 0.16582925E-01 0.19582083E+03</pdfrwt>
<totfact> 0.23770615E+03</totfact>
</mgrwt>
</event>
<event>
 4    1  0.7691552E-001  0.2075031E+03  0.7546771E-02  0.1143559E+00
          2   -1    0    0  502    0  0.00000000000E+00  0.00000000000E+00  0.48778547007E+03  0.48778547007E+03  0.00000000000E+00 0. -1.
         -2   -1    0    0    0  501 -0.00000000000E+00 -0.00000000000E+00 -0.10457224745E+03  0.10457224745E+03  0.00000000000E+00 0.  1.
          6    1    1    2  502    0  0.61174019703E+02 -0.96882866097E+02  0.30854301198E+03  0.37182837529E+03  0.17300000000E+03 0.  1.
         -6    1    1    2    0  501 -0.61174019703E+02  0.96882866097E+02  0.74670210644E+02  0.22052934224E+03  0.17300000000E+03 0.  1.
<mgrwt>
<rscale>  2 0.20750313E+03</rscale>
<asrwt>0</asrwt>
<pdfrwt beam="1">  1        2 0.75043917E-01 0.20750313E+03</pdfrwt>
<pdfrwt beam="2">  1       -2 0.16088038E-01 0.20750313E+03</pdfrwt>
<totfact> 0.19352996E+03</totfact>
</mgrwt>
</event>
<event>
 4    1  0.7691552E-001  0.2213105E+03  0.7546771E-02  0.1132910E+00
         -1   -1    0    0    0  501 -0.00000000000E+00  0.00000000000E+00  0.34120937899E+02  0.34120937899E+02  0.00000000000E+00 0. -1.
          1   -1    0    0  502    0  0.00000000000E+00 -0.00000000000E+00 -0.19259113769E+04  0.19259113769E+04  0.00000000000E+00 0.  1.
          6    1    1    2  502    0 -0.10729428929E+03 -0.86817429440E+02 -0.45132850308E+03  0.50266862670E+03  0.17300000000E+03 0. -1.
         -6    1    1    2    0  501  0.10729428929E+03  0.86817429440E+02 -0.14404619359E+04  0.14573636881E+04  0.17300000000E+03 0.  1.
<mgrwt>
<rscale>  2 0.22131048E+03</rscale>
<asrwt>0</asrwt>
<pdfrwt beam="2">  1        1 0.29629406E+00 0.22131048E+03</pdfrwt>
<pdfrwt beam="1">  1       -1 0.52493750E-02 0.22131048E+03</pdfrwt>
<totfact> 0.62063204E+02</totfact>
</mgrwt>
</event>
<event>
 4    1  0.7691552E-001  0.1858488E+03  0.7546771E-02  0.1162260E+00
         -2   -1    0    0    0  501 -0.00000000000E+00  0.00000000000E+00  0.23516433188E+03  0.23516433188E+03  0.00000000000E+00 0. -1.
          2   -1    0    0  502    0  0.00000000000E+00 -0.00000000000E+00 -0.14689185662E+03  0.14689185662E+03  0.00000000000E+00 0.  1.
          6    1    1    2  502    0 -0.61732023745E+02 -0.28283003496E+02  0.42092400770E+02  0.19055587434E+03  0.17300000000E+03 0. -1.
         -6    1    1    2    0  501  0.61732023745E+02  0.28283003496E+02  0.46180074490E+02  0.19150031416E+03  0.17300000000E+03 0. -1.
<mgrwt>
<rscale>  2 0.18584879E+03</rscale>
<asrwt>0</asrwt>
<pdfrwt beam="2">  1        2 0.22598747E-01 0.18584879E+03</pdfrwt>
<pdfrwt beam="1">  1       -2 0.36179128E-01 0.18584879E+03</pdfrwt>
<totfact> 0.17170786E+03</totfact>
</mgrwt>
</event>
<event>
 4    1  0.7691552E-001  0.1877927E+03  0.7546771E-02  0.1160467E+00
          1   -1    0    0  502    0  0.00000000000E+00  0.00000000000E+00  0.10815615194E+04  0.10815615194E+04  0.00000000000E+00 0. -1.
         -1   -1    0    0    0  501 -0.00000000000E+00 -0.00000000000E+00 -0.36821473822E+02  0.36821473822E+02  0.00000000000E+00 0.  1.
          6    1    1    2  502    0  0.66033196804E+02  0.31252520979E+02  0.71156057234E+03  0.73592428365E+03  0.17300000000E+03 0. -1.
         -6    1    1    2    0  501 -0.66033196804E+02 -0.31252520979E+02  0.33317947326E+03  0.38245870960E+03  0.17300000000E+03 0.  1.
<mgrwt>
<rscale>  2 0.18779271E+03</rscale>
<asrwt>0</asrwt>
<pdfrwt beam="1">  1        1 0.16639406E+00 0.18779271E+03</pdfrwt>
<pdfrwt beam="2">  1       -1 0.56648430E-02 0.18779271E+03</pdfrwt>
<totfact> 0.20223193E+03</totfact>
</mgrwt>
</event>
<event>
 4    1  0.7691552E-001  0.2445721E+03  0.7546771E-02  0.1116784E+00
          1   -1    0    0  502    0  0.00000000000E+00  0.00000000000E+00  0.77922805815E+03  0.77922805815E+03  0.00000000000E+00 0. -1.
         -1   -1    0    0    0  501 -0.00000000000E+00 -0.00000000000E+00 -0.97622259168E+02  0.97622259168E+02  0.00000000000E+00 0.  1.
          6    1    1    2  502    0 -0.24821350247E+02  0.17108603928E+03  0.54346622852E+03  0.59596230905E+03  0.17300000000E+03 0. -1.
         -6    1    1    2    0  501  0.24821350247E+02 -0.17108603928E+03  0.13813957047E+03  0.28088800827E+03  0.17300000000E+03 0.  1.
<mgrwt>
<rscale>  2 0.24457214E+03</rscale>
<asrwt>0</asrwt>
<pdfrwt beam="1">  1        1 0.11988124E+00 0.24457214E+03</pdfrwt>
<pdfrwt beam="2">  1       -1 0.15018810E-01 0.24457214E+03</pdfrwt>
<totfact> 0.77279719E+02</totfact>
</mgrwt>
</event>
<event>
 4    1  0.7691552E-001  0.2601051E+03  0.7546771E-02  0.1107080E+00
         -2   -1    0    0    0  501 -0.00000000000E+00  0.00000000000E+00  0.32133166728E+03  0.32133166728E+03  0.00000000000E+00 0.  1.
          2   -1    0    0  502    0  0.00000000000E+00 -0.00000000000E+00 -0.24543643096E+03  0.24543643096E+03  0.00000000000E+00 0. -1.
          6    1    1    2  502    0 -0.94724481052E+02  0.16956692251E+03 -0.68900618146E+02  0.26907612994E+03  0.17300000000E+03 0. -1.
         -6    1    1    2    0  501  0.94724481052E+02 -0.16956692251E+03  0.14479585446E+03  0.29769196830E+03  0.17300000000E+03 0.  1.
<mgrwt>
<rscale>  2 0.26010511E+03</rscale>
<asrwt>0</asrwt>
<pdfrwt beam="2">  1        2 0.37759451E-01 0.26010511E+03</pdfrwt>
<pdfrwt beam="1">  1       -2 0.49435641E-01 0.26010511E+03</pdfrwt>
<totfact> 0.53668428E+02</totfact>
</mgrwt>
</event>
<event>
 4    1  0.7691552E-001  0.1919713E+03  0.7546771E-02  0.1156695E+00
          2   -1    0    0  502    0  0.00000000000E+00  0.00000000000E+00  0.15331328712E+04  0.15331328712E+04  0.00000000000E+00 0. -1.
         -2   -1    0    0    0  501 -0.00000000000E+00 -0.00000000000E+00 -0.25058652177E+02  0.25058652177E+02  0.00000000000E+00 0.  1.
          6    1    1    2  502    0  0.24913457805E+02 -0.79393386722E+02  0.59677851859E+03  0.62689519896E+03  0.17300000000E+03 0. -1.
         -6    1    1    2    0  501 -0.24913457805E+02  0.79393386722E+02  0.91129570039E+03  0.93129632437E+03  0.17300000000E+03 0. -1.
<mgrwt>
<rscale>  2 0.19197133E+03</rscale>
<asrwt>0</asrwt>
<pdfrwt beam="1">  1        2 0.23586652E+00 0.19197133E+03</pdfrwt>
<pdfrwt beam="2">  1       -2 0.38551785E-02 0.19197133E+03</pdfrwt>
<totfact> 0.37925516E+03</totfact>
</mgrwt>
</event>
<event>
 4    1  0.7691552E-001  0.1750838E+03  0.7546771E-02  0.1172648E+00
         -2   -1    0    0    0  501 -0.00000000000E+00  0.00000000000E+00  0.36207369132E+02  0.36207369132E+02  0.00000000000E+00 0. -1.
          2   -1    0    0  502    0  0.00000000000E+00 -0.00000000000E+00 -0.84757259593E+03  0.84757259593E+03  0.00000000000E+00 0.  1.
          6    1    1    2  502    0 -0.21210397069E+02  0.16596805091E+02 -0.42039948097E+03  0.45540098648E+03  0.17300000000E+03 0.  1.
         -6    1    1    2    0  501  0.21210397069E+02 -0.16596805091E+02 -0.39096574582E+03  0.42837897858E+03  0.17300000000E+03 0. -1.
<mgrwt>
<rscale>  2 0.17508379E+03</rscale>
<asrwt>0</asrwt>
<pdfrwt beam="2">  1        2 0.13039578E+00 0.17508379E+03</pdfrwt>
<pdfrwt beam="1">  1       -2 0.55703647E-02 0.17508379E+03</pdfrwt>
<totfact> 0.53620817E+03</totfact>
</mgrwt>
</event>
<event>
 4    1  0.7691552E-001  0.1895009E+03  0.7546771E-02  0.1158912E+00
          2   -1    0    0  502    0  0.00000000000E+00  0.00000000000E+00  0.24542912980E+04  0.24542912980E+04  0.00000000000E+00 0.  1.
         -2   -1    0    0    0  501 -0.00000000000E+00 -0.00000000000E+00 -0.21181472269E+02  0.21181472269E+02  0.00000000000E+00 0. -1.
          6    1    1    2  502    0  0.63715155258E+02 -0.43840473852E+02  0.19048284999E+04  0.19142314965E+04  0.17300000000E+03 0.  1.
         -6    1    1    2    0  501 -0.63715155258E+02  0.43840473852E+02  0.52828132577E+03  0.56124127371E+03  0.17300000000E+03 0. -1.
<mgrwt>
<rscale>  2 0.18950095E+03</rscale>
<asrwt>0</asrwt>
<pdfrwt beam="1">  1        2 0.37758305E+00 0.18950095E+03</pdfrwt>
<pdfrwt beam="2">  1       -2 0.32586900E-02 0.18950095E+03</pdfrwt>
<totfact> 0.16055407E+03</totfact>
</mgrwt>
</event>
<event>
 4    1  0.7691552E-001  0.1784102E+03  0.7546771E-02  0.1169351E+00
         -1   -1    0    0    0  501 -0.00000000000E+00  0.00000000000E+00  0.54232810879E+02  0.54232810879E+02  0.00000000000E+00 0. -1.
          1   -1    0    0  502    0  0.00000000000E+00 -0.00000000000E+00 -0.74952169357E+03  0.74952169357E+03  0.00000000000E+00 0.  1.
          6    1    1    2  502    0 -0.34919108326E+01  0.43462807903E+02 -0.53482753335E+03  0.56380023017E+03  0.17300000000E+03 0.  1.
         -6    1    1    2    0  501  0.34919108326E+01 -0.43462807903E+02 -0.16046134934E+03  0.23995427428E+03  0.17300000000E+03 0. -1.
<mgrwt>
<rscale>  2 0.17841023E+03</rscale>
<asrwt>0</asrwt>
<pdfrwt beam="2">  1        1 0.11531102E+00 0.17841023E+03</pdfrwt>
<pdfrwt beam="1">  1       -1 0.83435099E-02 0.17841023E+03</pdfrwt>
<totfact> 0.20392806E+03</totfact>
</mgrwt>
</event>
<event>
 4    1  0.7691552E-001  0.1884485E+03  0.7546771E-02  0.1159868E+00
          2   -1    0    0  502    0  0.00000000000E+00  0.00000000000E+00  0.25020210790E+04  0.25020210790E+04  0.00000000000E+00 0. -1.
         -2   -1    0    0    0  501 -0.00000000000E+00 -0.00000000000E+00 -0.26779729766E+02  0.26779729766E+02  0.00000000000E+00 0.  1.
          6    1    1    2  502    0 -0.72693559075E+02 -0.17305737907E+02  0.37080539172E+03  0.41594408353E+03  0.17300000000E+03 0.  1.
         -6    1    1    2    0  501  0.72693559075E+02  0.17305737907E+02  0.21044359575E+04  0.21128567252E+04  0.17300000000E+03 0. -1.
<mgrwt>
<rscale>  2 0.18844851E+03</rscale>
<asrwt>0</asrwt>
<pdfrwt beam="1">  1        2 0.38492613E+00 0.18844851E+03</pdfrwt>
<pdfrwt beam="2">  1       -2 0.41199604E-02 0.18844851E+03</pdfrwt>
<totfact> 0.10663656E+03</totfact>
</mgrwt>
</event>
<event>
 4    1  0.7691552E-001  0.2200153E+03  0.7546771E-02  0.1133872E+00
          1   -1    0    0  502    0  0.00000000000E+00  0.00000000000E+00  0.13107703220E+04  0.13107703220E+04  0.00000000000E+00 0. -1.
         -1   -1    0    0    0  501 -0.00000000000E+00 -0.00000000000E+00 -0.49351773841E+02  0.49351773841E+02  0.00000000000E+00 0.  1.
          6    1    1    2  502    0  0.13541672890E+03  0.11833322163E+02  0.28952521946E+03  0.36363659151E+03  0.17300000000E+03 0.  1.
         -6    1    1    2    0  501 -0.13541672890E+03 -0.11833322163E+02  0.97189332873E+03  0.99648550437E+03  0.17300000000E+03 0. -1.
<mgrwt>
<rscale>  2 0.22001527E+03</rscale>
<asrwt>0</asrwt>
<pdfrwt beam="1">  1        1 0.20165695E+00 0.22001527E+03</pdfrwt>
<pdfrwt beam="2">  1       -1 0.75925816E-02 0.22001527E+03</pdfrwt>
<totfact> 0.89942978E+02</totfact>
</mgrwt>
</event>
<event>
 4    1  0.7691552E-001  0.2253883E+03  0.7546771E-02  0.1129928E+00
         -2   -1    0    0    0  501 -0.00000000000E+00  0.00000000000E+00  0.30127050227E+03  0.30127050227E+03  0.00000000000E+00 0. -1.
          2   -1    0    0  502    0  0.00000000000E+00 -0.00000000000E+00 -0.23809096548E+03  0.23809096548E+03  0.00000000000E+00 0.  1.
          6    1    1    2  502    0  0.14446360614E+03  0.10696618781E+01 -0.11408482268E+03  0.25261675408E+03  0.17300000000E+03 0.  1.
         -6    1    1    2    0  501 -0.14446360614E+03 -0.10696618781E+01  0.17726435947E+03  0.28674471367E+03  0.17300000000E+03 0. -1.
<mgrwt>
<rscale>  2 0.22538828E+03</rscale>
<asrwt>0</asrwt>
<pdfrwt beam="2">  1        2 0.36629379E-01 0.22538828E+03</pdfrwt>
<pdfrwt beam="1">  1       -2 0.46349308E-01 0.22538828E+03</pdfrwt>
<totfact> 0.62980521E+02</totfact>
</mgrwt>
</event>
<event>
 4    1  0.7691552E-001  0.2201526E+03  0.7546771E-02  0.1133769E+00
          2   -1    0    0  502    0  0.00000000000E+00  0.00000000000E+00  0.23087160940E+04  0.23087160940E+04  0.00000000000E+00 0. -1.
         -2   -1    0    0    0  501 -0.00000000000E+00 -0.00000000000E+00 -0.20999426446E+02  0.20999426446E+02  0.00000000000E+00 0.  1.
          6    1    1    2  502    0 -0.85137105186E+02  0.10625375465E+03  0.11236947344E+04  0.11450576593E+04  0.17300000000E+03 0. -1.
         -6    1    1    2    0  501  0.85137105186E+02 -0.10625375465E+03  0.11640219332E+04  0.11846578611E+04  0.17300000000E+03 0.  1.
<mgrwt>
<rscale>  2 0.22015264E+03</rscale>
<asrwt>0</asrwt>
<pdfrwt beam="1">  1        2 0.35518689E+00 0.22015264E+03</pdfrwt>
<pdfrwt beam="2">  1       -2 0.32306828E-02 0.22015264E+03</pdfrwt>
<totfact> 0.19387802E+03</totfact>
</mgrwt>
</event>
<event>
 4    1  0.7691552E-001  0.3748167E+03  0.7546771E-02  0.1052866E+00
          2   -1    0    0  502    0  0.00000000000E+00  0.00000000000E+00  0.18261359587E+04  0.18261359587E+04  0.00000000000E+00 0. -1.
         -2   -1    0    0    0  501 -0.00000000000E+00 -0.00000000000E+00 -0.77010825871E+02  0.77010825871E+02  0.00000000000E+00 0.  1.
          6    1    1    2  502    0 -0.15497468374E+03 -0.29417924922E+03  0.84404382161E+03  0.92352452922E+03  0.17300000000E+03 0. -1.
         -6    1    1    2    0  501  0.15497468374E+03  0.29417924922E+03  0.90508131127E+03  0.97962225540E+03  0.17300000000E+03 0.  1.
<mgrwt>
<rscale>  2 0.37481673E+03</rscale>
<asrwt>0</asrwt>
<pdfrwt beam="1">  1        2 0.28094396E+00 0.37481673E+03</pdfrwt>
<pdfrwt beam="2">  1       -2 0.11847821E-01 0.37481673E+03</pdfrwt>
<totfact> 0.45724881E+02</totfact>
</mgrwt>
</event>
<event>
 4    1  0.7691552E-001  0.2495876E+03  0.7546771E-02  0.1113566E+00
          2   -1    0    0  502    0  0.00000000000E+00  0.00000000000E+00  0.50718316341E+03  0.50718316341E+03  0.00000000000E+00 0.  1.
         -2   -1    0    0    0  501 -0.00000000000E+00 -0.00000000000E+00 -0.12286665024E+03  0.12286665024E+03  0.00000000000E+00 0. -1.
          6    1    1    2  502    0  0.16366714610E+03  0.74686253210E+02  0.19806730253E+03  0.31862929474E+03  0.17300000000E+03 0.  1.
         -6    1    1    2    0  501 -0.16366714610E+03 -0.74686253210E+02  0.18624921065E+03  0.31142051891E+03  0.17300000000E+03 0. -1.
<mgrwt>
<rscale>  2 0.24958760E+03</rscale>
<asrwt>0</asrwt>
<pdfrwt beam="1">  1        2 0.78028178E-01 0.24958760E+03</pdfrwt>
<pdfrwt beam="2">  1       -2 0.18902562E-01 0.24958760E+03</pdfrwt>
<totfact> 0.14172507E+03</totfact>
</mgrwt>
</event>
<event>
 4    1  0.7691552E-001  0.2108054E+03  0.7546771E-02  0.1140930E+00
          2   -1    0    0  502    0  0.00000000000E+00  0.00000000000E+00  0.16206981236E+04  0.16206981236E+04  0.00000000000E+00 0. -1.
         -2   -1    0    0    0  501 -0.00000000000E+00 -0.00000000000E+00 -0.27497376789E+02  0.27497376789E+02  0.00000000000E+00 0.  1.
          6    1    1    2  502    0 -0.11450156572E+03  0.37407074623E+02  0.84042841337E+03  0.86646339552E+03  0.17300000000E+03 0.  1.
         -6    1    1    2    0  501  0.11450156572E+03 -0.37407074623E+02  0.75277233344E+03  0.78173210487E+03  0.17300000000E+03 0.  1.
<mgrwt>
<rscale>  2 0.21080536E+03</rscale>
<asrwt>0</asrwt>
<pdfrwt beam="1">  1        2 0.24933810E+00 0.21080536E+03</pdfrwt>
<pdfrwt beam="2">  1       -2 0.42303669E-02 0.21080536E+03</pdfrwt>
<totfact> 0.29693091E+03</totfact>
</mgrwt>
</event>
<event>
 4    1  0.7691552E-001  0.1937280E+03  0.7546771E-02  0.1155141E+00
         -2   -1    0    0    0  501 -0.00000000000E+00  0.00000000000E+00  0.95067504051E+02  0.95067504051E+02  0.00000000000E+00 0.  1.
          2   -1    0    0  502    0  0.00000000000E+00 -0.00000000000E+00 -0.49473014412E+03  0.49473014412E+03  0.00000000000E+00 0. -1.
          6    1    1    2  502    0  0.49543910187E+02  0.71742244558E+02 -0.67279666446E+02  0.20507828312E+03  0.17300000000E+03 0.  1.
         -6    1    1    2    0  501 -0.49543910187E+02 -0.71742244558E+02 -0.33238297363E+03  0.38471936505E+03  0.17300000000E+03 0. -1.
<mgrwt>
<rscale>  2 0.19372803E+03</rscale>
<asrwt>0</asrwt>
<pdfrwt beam="2">  1        2 0.76112330E-01 0.19372803E+03</pdfrwt>
<pdfrwt beam="1">  1       -2 0.14625770E-01 0.19372803E+03</pdfrwt>
<totfact> 0.22265053E+03</totfact>
</mgrwt>
</event>
<event>
 4    1  0.7691552E-001  0.1792787E+03  0.7546771E-02  0.1168503E+00
         -4   -1    0    0    0  501 -0.00000000000E+00  0.00000000000E+00  0.25296952715E+03  0.25296952715E+03  0.00000000000E+00 0. -1.
          4   -1    0    0  502    0  0.00000000000E+00 -0.00000000000E+00 -0.13576498696E+03  0.13576498696E+03  0.00000000000E+00 0.  1.
          6    1    1    2  502    0 -0.29360292112E+02  0.36740078688E+02  0.10783523777E+03  0.20921113412E+03  0.17300000000E+03 0. -1.
         -6    1    1    2    0  501  0.29360292112E+02 -0.36740078688E+02  0.93693024087E+01  0.17952337999E+03  0.17300000000E+03 0. -1.
<mgrwt>
<rscale>  2 0.17927872E+03</rscale>
<asrwt>0</asrwt>
<pdfrwt beam="2">  1        4 0.20886921E-01 0.17927872E+03</pdfrwt>
<pdfrwt beam="1">  1       -4 0.38918389E-01 0.17927872E+03</pdfrwt>
<totfact> 0.23405439E+02</totfact>
</mgrwt>
</event>
<event>
 4    1  0.7691552E-001  0.4197059E+03  0.7546771E-02  0.1037162E+00
          1   -1    0    0  502    0  0.00000000000E+00  0.00000000000E+00  0.17602666498E+03  0.17602666498E+03  0.00000000000E+00 0.  1.
         -1   -1    0    0    0  501 -0.00000000000E+00 -0.00000000000E+00 -0.10539616446E+04  0.10539616446E+04  0.00000000000E+00 0. -1.
          6    1    1    2  502    0 -0.50396440275E+02  0.37905699196E+03 -0.57719471179E+03  0.71365729847E+03  0.17300000000E+03 0. -1.
         -6    1    1    2    0  501  0.50396440275E+02 -0.37905699196E+03 -0.30074026784E+03  0.51633101112E+03  0.17300000000E+03 0.  1.
<mgrwt>
<rscale>  2 0.41970585E+03</rscale>
<asrwt>0</asrwt>
<pdfrwt beam="1">  1        1 0.27081025E-01 0.41970585E+03</pdfrwt>
<pdfrwt beam="2">  1       -1 0.16214795E+00 0.41970585E+03</pdfrwt>
<totfact> 0.52120239E+01</totfact>
</mgrwt>
</event>
<event>
 4    1  0.7691552E-001  0.2061436E+03  0.7546771E-02  0.1144657E+00
         -2   -1    0    0    0  501 -0.00000000000E+00  0.00000000000E+00  0.18824828416E+02  0.18824828416E+02  0.00000000000E+00 0. -1.
          2   -1    0    0  502    0  0.00000000000E+00 -0.00000000000E+00 -0.35356378645E+04  0.35356378645E+04  0.00000000000E+00 0.  1.
          6    1    1    2  502    0 -0.64104853773E+02  0.91960685133E+02 -0.68980539850E+03  0.71994908687E+03  0.17300000000E+03 0. -1.
         -6    1    1    2    0  501  0.64104853773E+02 -0.91960685133E+02 -0.28270076376E+04  0.28345136060E+04  0.17300000000E+03 0.  1.
<mgrwt>
<rscale>  2 0.20614364E+03</rscale>
<asrwt>0</asrwt>
<pdfrwt beam="2">  1        2 0.54394483E+00 0.20614364E+03</pdfrwt>
<pdfrwt beam="1">  1       -2 0.28961246E-02 0.20614364E+03</pdfrwt>
<totfact> 0.43770118E+02</totfact>
</mgrwt>
</event>
<event>
 4    1  0.7691552E-001  0.1744683E+03  0.7546771E-02  0.1173267E+00
          2   -1    0    0  502    0  0.00000000000E+00  0.00000000000E+00  0.33864463316E+04  0.33864463316E+04  0.00000000000E+00 0.  1.
         -2   -1    0    0    0  501 -0.00000000000E+00 -0.00000000000E+00 -0.97162424965E+01  0.97162424965E+01  0.00000000000E+00 0. -1.
          6    1    1    2  502    0 -0.15429271689E+02  0.16496088443E+02  0.12236481788E+04  0.12360234824E+04  0.17300000000E+03 0. -1.
         -6    1    1    2    0  501  0.15429271689E+02 -0.16496088443E+02  0.21530819103E+04  0.21601390917E+04  0.17300000000E+03 0.  1.
<mgrwt>
<rscale>  2 0.17446829E+03</rscale>
<asrwt>0</asrwt>
<pdfrwt beam="1">  1        2 0.52099080E+00 0.17446829E+03</pdfrwt>
<pdfrwt beam="2">  1       -2 0.14948092E-02 0.17446829E+03</pdfrwt>
<totfact> 0.14565370E+03</totfact>
</mgrwt>
</event>
<event>
 4    1  0.7691552E-001  0.2686224E+03  0.7546771E-02  0.1102071E+00
          2   -1    0    0  502    0  0.00000000000E+00  0.00000000000E+00  0.13765957263E+03  0.13765957263E+03  0.00000000000E+00 0. -1.
         -2   -1    0    0    0  501 -0.00000000000E+00 -0.00000000000E+00 -0.67950617147E+03  0.67950617147E+03  0.00000000000E+00 0.  1.
          6    1    1    2  502    0 -0.17865528838E+03 -0.10154458413E+03 -0.46627159828E+03  0.53811450268E+03  0.17300000000E+03 0.  1.
         -6    1    1    2    0  501  0.17865528838E+03  0.10154458413E+03 -0.75575000559E+02  0.27905124143E+03  0.17300000000E+03 0. -1.
<mgrwt>
<rscale>  2 0.26862244E+03</rscale>
<asrwt>0</asrwt>
<pdfrwt beam="1">  1        2 0.21178396E-01 0.26862244E+03</pdfrwt>
<pdfrwt beam="2">  1       -2 0.10453941E+00 0.26862244E+03</pdfrwt>
<totfact> 0.20168032E+02</totfact>
</mgrwt>
</event>
<event>
 4    1  0.7691552E-001  0.1765647E+03  0.7546771E-02  0.1171170E+00
          1   -1    0    0  502    0  0.00000000000E+00  0.00000000000E+00  0.17123856387E+04  0.17123856387E+04  0.00000000000E+00 0. -1.
         -1   -1    0    0    0  501 -0.00000000000E+00 -0.00000000000E+00 -0.18526050544E+02  0.18526050544E+02  0.00000000000E+00 0.  1.
          6    1    1    2  502    0 -0.29392179993E+02  0.19549780999E+02  0.73311469371E+03  0.75407708381E+03  0.17300000000E+03 0.  1.
         -6    1    1    2    0  501  0.29392179993E+02 -0.19549780999E+02  0.96074489440E+03  0.97683460540E+03  0.17300000000E+03 0. -1.
<mgrwt>
<rscale>  2 0.17656470E+03</rscale>
<asrwt>0</asrwt>
<pdfrwt beam="1">  1        1 0.26344382E+00 0.17656470E+03</pdfrwt>
<pdfrwt beam="2">  1       -1 0.28501630E-02 0.17656470E+03</pdfrwt>
<totfact> 0.21127594E+03</totfact>
</mgrwt>
</event>
<event>
 4    1  0.7691552E-001  0.2027158E+03  0.7546771E-02  0.1147468E+00
          2   -1    0    0  502    0  0.00000000000E+00  0.00000000000E+00  0.14392801835E+04  0.14392801835E+04  0.00000000000E+00 0. -1.
         -2   -1    0    0    0  501 -0.00000000000E+00 -0.00000000000E+00 -0.30446289513E+02  0.30446289513E+02  0.00000000000E+00 0.  1.
          6    1    1    2  502    0  0.98537886912E+02 -0.38144396287E+02  0.88773772925E+03  0.91058881283E+03  0.17300000000E+03 0. -1.
         -6    1    1    2    0  501 -0.98537886912E+02  0.38144396287E+02  0.52109616474E+03  0.55913766018E+03  0.17300000000E+03 0.  1.
<mgrwt>
<rscale>  2 0.20271584E+03</rscale>
<asrwt>0</asrwt>
<pdfrwt beam="1">  1        2 0.22142767E+00 0.20271584E+03</pdfrwt>
<pdfrwt beam="2">  1       -2 0.46840457E-02 0.20271584E+03</pdfrwt>
<totfact> 0.31751919E+03</totfact>
</mgrwt>
</event>
<event>
 4    1  0.7691552E-001  0.1993637E+03  0.7546771E-02  0.1150277E+00
         -1   -1    0    0    0  501 -0.00000000000E+00  0.00000000000E+00  0.51121218294E+03  0.51121218294E+03  0.00000000000E+00 0.  1.
          1   -1    0    0  502    0  0.00000000000E+00 -0.00000000000E+00 -0.19402505785E+03  0.19402505785E+03  0.00000000000E+00 0. -1.
          6    1    1    2  502    0 -0.54785274733E+02 -0.82555793182E+02  0.43156849169E+03  0.47539167886E+03  0.17300000000E+03 0.  1.
         -6    1    1    2    0  501  0.54785274733E+02  0.82555793182E+02 -0.11438136659E+03  0.22984556193E+03  0.17300000000E+03 0. -1.
<mgrwt>
<rscale>  2 0.19936370E+03</rscale>
<asrwt>0</asrwt>
<pdfrwt beam="2">  1        1 0.29850009E-01 0.19936370E+03</pdfrwt>
<pdfrwt beam="1">  1       -1 0.78648028E-01 0.19936370E+03</pdfrwt>
<totfact> 0.26065492E+02</totfact>
</mgrwt>
</event>
<event>
 4    1  0.7691552E-001  0.1744988E+03  0.7546771E-02  0.1173236E+00
         -1   -1    0    0    0  501 -0.00000000000E+00  0.00000000000E+00  0.85486429389E+03  0.85486429389E+03  0.00000000000E+00 0. -1.
          1   -1    0    0  502    0  0.00000000000E+00 -0.00000000000E+00 -0.35812683607E+02  0.35812683607E+02  0.00000000000E+00 0.  1.
          6    1    1    2  502    0 -0.12198579749E+02  0.19288177164E+02  0.37681762400E+03  0.41526059395E+03  0.17300000000E+03 0.  1.
         -6    1    1    2    0  501  0.12198579749E+02 -0.19288177164E+02  0.44223398628E+03  0.47541638355E+03  0.17300000000E+03 0. -1.
<mgrwt>
<rscale>  2 0.17449882E+03</rscale>
<asrwt>0</asrwt>
<pdfrwt beam="2">  1        1 0.55096443E-02 0.17449882E+03</pdfrwt>
<pdfrwt beam="1">  1       -1 0.13151757E+00 0.17449882E+03</pdfrwt>
<totfact> 0.76394248E+02</totfact>
</mgrwt>
</event>
<event>
 4    1  0.7691552E-001  0.2855951E+03  0.7546771E-02  0.1092672E+00
          2   -1    0    0  502    0  0.00000000000E+00  0.00000000000E+00  0.36146446487E+03  0.36146446487E+03  0.00000000000E+00 0. -1.
         -2   -1    0    0    0  501 -0.00000000000E+00 -0.00000000000E+00 -0.32768036423E+03  0.32768036423E+03  0.00000000000E+00 0.  1.
          6    1    1    2  502    0  0.20691363491E+03  0.93927168940E+02 -0.17538142436E+03  0.33514654912E+03  0.17300000000E+03 0.  1.
         -6    1    1    2    0  501 -0.20691363491E+03 -0.93927168940E+02  0.20916552500E+03  0.35399827998E+03  0.17300000000E+03 0. -1.
<mgrwt>
<rscale>  2 0.28559511E+03</rscale>
<asrwt>0</asrwt>
<pdfrwt beam="1">  1        2 0.55609917E-01 0.28559511E+03</pdfrwt>
<pdfrwt beam="2">  1       -2 0.50412364E-01 0.28559511E+03</pdfrwt>
<totfact> 0.33901540E+02</totfact>
</mgrwt>
</event>
<event>
 4    1  0.7691552E-001  0.1920358E+03  0.7546771E-02  0.1156638E+00
         -2   -1    0    0    0  501 -0.00000000000E+00  0.00000000000E+00  0.13296120355E+03  0.13296120355E+03  0.00000000000E+00 0. -1.
          2   -1    0    0  502    0  0.00000000000E+00 -0.00000000000E+00 -0.42155351554E+03  0.42155351554E+03  0.00000000000E+00 0.  1.
          6    1    1    2  502    0  0.37522728844E+02 -0.74436570448E+02 -0.30645240196E+03  0.36165015259E+03  0.17300000000E+03 0.  1.
         -6    1    1    2    0  501 -0.37522728844E+02  0.74436570448E+02  0.17860089974E+02  0.19286456651E+03  0.17300000000E+03 0. -1.
<mgrwt>
<rscale>  2 0.19203583E+03</rscale>
<asrwt>0</asrwt>
<pdfrwt beam="2">  1        2 0.64854386E-01 0.19203583E+03</pdfrwt>
<pdfrwt beam="1">  1       -2 0.20455570E-01 0.19203583E+03</pdfrwt>
<totfact> 0.15129864E+03</totfact>
</mgrwt>
</event>
<event>
 4    1  0.7691552E-001  0.2203729E+03  0.7546771E-02  0.1133605E+00
          1   -1    0    0  502    0  0.00000000000E+00  0.00000000000E+00  0.29060709184E+03  0.29060709184E+03  0.00000000000E+00 0. -1.
         -1   -1    0    0    0  501 -0.00000000000E+00 -0.00000000000E+00 -0.20814968065E+03  0.20814968065E+03  0.00000000000E+00 0.  1.
          6    1    1    2  502    0 -0.61563701693E+02  0.12184058450E+03  0.15195662740E+03  0.26768457932E+03  0.17300000000E+03 0. -1.
         -6    1    1    2    0  501  0.61563701693E+02 -0.12184058450E+03 -0.69499216211E+02  0.23107219316E+03  0.17300000000E+03 0.  1.
<mgrwt>
<rscale>  2 0.22037291E+03</rscale>
<asrwt>0</asrwt>
<pdfrwt beam="1">  1        1 0.44708783E-01 0.22037291E+03</pdfrwt>
<pdfrwt beam="2">  1       -1 0.32023028E-01 0.22037291E+03</pdfrwt>
<totfact> 0.83408510E+02</totfact>
</mgrwt>
</event>
<event>
 4    1  0.7691552E-001  0.2057000E+03  0.7546771E-02  0.1145017E+00
         -2   -1    0    0    0  501 -0.00000000000E+00  0.00000000000E+00  0.24777765733E+03  0.24777765733E+03  0.00000000000E+00 0. -1.
          2   -1    0    0  502    0  0.00000000000E+00 -0.00000000000E+00 -0.17079072788E+03  0.17079072788E+03  0.00000000000E+00 0.  1.
          6    1    1    2  502    0  0.61425793075E+02 -0.92791928038E+02  0.36073848503E+02  0.20883915464E+03  0.17300000000E+03 0. -1.
         -6    1    1    2    0  501 -0.61425793075E+02  0.92791928038E+02  0.40913080943E+02  0.20972923057E+03  0.17300000000E+03 0. -1.
<mgrwt>
<rscale>  2 0.20569995E+03</rscale>
<asrwt>0</asrwt>
<pdfrwt beam="2">  1        2 0.26275497E-01 0.20569995E+03</pdfrwt>
<pdfrwt beam="1">  1       -2 0.38119639E-01 0.20569995E+03</pdfrwt>
<totfact> 0.13190981E+03</totfact>
</mgrwt>
</event>
<event>
 4    1  0.7691552E-001  0.2022745E+03  0.7546771E-02  0.1147834E+00
         -1   -1    0    0    0  501 -0.00000000000E+00  0.00000000000E+00  0.47278968228E+02  0.47278968228E+02  0.00000000000E+00 0.  1.
          1   -1    0    0  502    0  0.00000000000E+00 -0.00000000000E+00 -0.87194436206E+03  0.87194436206E+03  0.00000000000E+00 0. -1.
          6    1    1    2  502    0  0.35345753270E+02 -0.98674538621E+02 -0.37249967505E+03  0.42387615498E+03  0.17300000000E+03 0.  1.
         -6    1    1    2    0  501 -0.35345753270E+02  0.98674538621E+02 -0.45216571878E+03  0.49534717531E+03  0.17300000000E+03 0. -1.
<mgrwt>
<rscale>  2 0.20227453E+03</rscale>
<asrwt>0</asrwt>
<pdfrwt beam="2">  1        1 0.13414528E+00 0.20227453E+03</pdfrwt>
<pdfrwt beam="1">  1       -1 0.72736878E-02 0.20227453E+03</pdfrwt>
<totfact> 0.19956252E+03</totfact>
</mgrwt>
</event>
<event>
 4    1  0.7691552E-001  0.1993048E+03  0.7546771E-02  0.1150327E+00
          1   -1    0    0  502    0  0.00000000000E+00  0.00000000000E+00  0.21914919552E+04  0.21914919552E+04  0.00000000000E+00 0.  1.
         -1   -1    0    0    0  501 -0.00000000000E+00 -0.00000000000E+00 -0.18423987506E+02  0.18423987506E+02  0.00000000000E+00 0. -1.
          6    1    1    2  502    0 -0.87751194279E+02 -0.45750758507E+02  0.12271210844E+04  0.12432009330E+04  0.17300000000E+03 0.  1.
         -6    1    1    2    0  501  0.87751194279E+02  0.45750758507E+02  0.94594688326E+03  0.96671500969E+03  0.17300000000E+03 0. -1.
<mgrwt>
<rscale>  2 0.19930480E+03</rscale>
<asrwt>0</asrwt>
<pdfrwt beam="1">  1        1 0.33715240E+00 0.19930480E+03</pdfrwt>
<pdfrwt beam="2">  1       -1 0.28344614E-02 0.19930480E+03</pdfrwt>
<totfact> 0.10460367E+03</totfact>
</mgrwt>
</event>
<event>
 4    1  0.7691552E-001  0.2298129E+03  0.7546771E-02  0.1126772E+00
          2   -1    0    0  502    0  0.00000000000E+00  0.00000000000E+00  0.93393774962E+03  0.93393774962E+03  0.00000000000E+00 0.  1.
         -2   -1    0    0    0  501 -0.00000000000E+00 -0.00000000000E+00 -0.59445423726E+02  0.59445423726E+02  0.00000000000E+00 0. -1.
          6    1    1    2  502    0 -0.84232504909E+02  0.12565764512E+03  0.32762323261E+03  0.40018863203E+03  0.17300000000E+03 0. -1.
         -6    1    1    2    0  501  0.84232504909E+02 -0.12565764512E+03  0.54686909328E+03  0.59319454132E+03  0.17300000000E+03 0.  1.
<mgrwt>
<rscale>  2 0.22981288E+03</rscale>
<asrwt>0</asrwt>
<pdfrwt beam="1">  1        2 0.14368272E+00 0.22981288E+03</pdfrwt>
<pdfrwt beam="2">  1       -2 0.91454505E-02 0.22981288E+03</pdfrwt>
<totfact> 0.22044038E+03</totfact>
</mgrwt>
</event>
<event>
 4    1  0.7691552E-001  0.2156889E+03  0.7546771E-02  0.1137139E+00
          1   -1    0    0  502    0  0.00000000000E+00  0.00000000000E+00  0.39468326617E+03  0.39468326617E+03  0.00000000000E+00 0.  1.
         -1   -1    0    0    0  501 -0.00000000000E+00 -0.00000000000E+00 -0.13622715855E+03  0.13622715855E+03  0.00000000000E+00 0. -1.
          6    1    1    2  502    0 -0.74599261525E+02  0.10501261006E+03  0.31785040994E+02  0.21801831786E+03  0.17300000000E+03 0.  1.
         -6    1    1    2    0  501  0.74599261525E+02 -0.10501261006E+03  0.22667106663E+03  0.31289210686E+03  0.17300000000E+03 0.  1.
<mgrwt>
<rscale>  2 0.21568889E+03</rscale>
<asrwt>0</asrwt>
<pdfrwt beam="1">  1        1 0.60720502E-01 0.21568889E+03</pdfrwt>
<pdfrwt beam="2">  1       -1 0.20958025E-01 0.21568889E+03</pdfrwt>
<totfact> 0.11494736E+03</totfact>
</mgrwt>
</event>
<event>
 4    1  0.7691552E-001  0.1744154E+03  0.7546771E-02  0.1173320E+00
          2   -1    0    0  502    0  0.00000000000E+00  0.00000000000E+00  0.74462917294E+02  0.74462917294E+02  0.00000000000E+00 0.  1.
         -2   -1    0    0    0  501 -0.00000000000E+00 -0.00000000000E+00 -0.47408438112E+03  0.47408438112E+03  0.00000000000E+00 0. -1.
          6    1    1    2  502    0  0.16732620307E+02  0.14552233941E+02 -0.97825151601E+02  0.19997626954E+03  0.17300000000E+03 0.  1.
         -6    1    1    2    0  501 -0.16732620307E+02 -0.14552233941E+02 -0.30179631223E+03  0.34857102887E+03  0.17300000000E+03 0. -1.
<mgrwt>
<rscale>  2 0.17441545E+03</rscale>
<asrwt>0</asrwt>
<pdfrwt beam="1">  1        2 0.11455833E-01 0.17441545E+03</pdfrwt>
<pdfrwt beam="2">  1       -2 0.72936059E-01 0.17441545E+03</pdfrwt>
<totfact> 0.93189167E+02</totfact>
</mgrwt>
</event>
<event>
 4    1  0.7691552E-001  0.2300555E+03  0.7546771E-02  0.1126601E+00
         -1   -1    0    0    0  501 -0.00000000000E+00  0.00000000000E+00  0.83603940254E+02  0.83603940254E+02  0.00000000000E+00 0.  1.
          1   -1    0    0  502    0  0.00000000000E+00 -0.00000000000E+00 -0.10446384615E+04  0.10446384615E+04  0.00000000000E+00 0. -1.
          6    1    1    2  502    0 -0.14355003154E+03 -0.48886767472E+02 -0.83461297921E+03  0.86573919436E+03  0.17300000000E+03 0. -1.
         -6    1    1    2    0  501  0.14355003154E+03  0.48886767472E+02 -0.12642154200E+03  0.26250320735E+03  0.17300000000E+03 0.  1.
<mgrwt>
<rscale>  2 0.23005549E+03</rscale>
<asrwt>0</asrwt>
<pdfrwt beam="2">  1        1 0.16071362E+00 0.23005549E+03</pdfrwt>
<pdfrwt beam="1">  1       -1 0.12862144E-01 0.23005549E+03</pdfrwt>
<totfact> 0.61228637E+02</totfact>
</mgrwt>
</event>
<event>
 4    1  0.7691552E-001  0.1940942E+03  0.7546771E-02  0.1154820E+00
         -2   -1    0    0    0  501 -0.00000000000E+00  0.00000000000E+00  0.22866092233E+03  0.22866092233E+03  0.00000000000E+00 0.  1.
          2   -1    0    0  502    0  0.00000000000E+00 -0.00000000000E+00 -0.16477100388E+03  0.16477100388E+03  0.00000000000E+00 0. -1.
          6    1    1    2  502    0  0.68217795982E+02  0.55586945822E+02  0.29889503081E+02  0.19638217493E+03  0.17300000000E+03 0.  1.
         -6    1    1    2    0  501 -0.68217795982E+02 -0.55586945822E+02  0.34000415368E+02  0.19704975128E+03  0.17300000000E+03 0.  1.
<mgrwt>
<rscale>  2 0.19409425E+03</rscale>
<asrwt>0</asrwt>
<pdfrwt beam="2">  1        2 0.25349385E-01 0.19409425E+03</pdfrwt>
<pdfrwt beam="1">  1       -2 0.35178603E-01 0.19409425E+03</pdfrwt>
<totfact> 0.15933872E+03</totfact>
</mgrwt>
</event>
<event>
 4    1  0.7691552E-001  0.1735665E+03  0.7546771E-02  0.1174179E+00
         -2   -1    0    0    0  501 -0.00000000000E+00  0.00000000000E+00  0.25361410896E+03  0.25361410896E+03  0.00000000000E+00 0. -1.
          2   -1    0    0  502    0  0.00000000000E+00 -0.00000000000E+00 -0.14443000550E+03  0.14443000550E+03  0.00000000000E+00 0.  1.
          6    1    1    2  502    0 -0.13957155869E+02  0.12344092433E+01  0.13845718467E+03  0.22202639022E+03  0.17300000000E+03 0. -1.
         -6    1    1    2    0  501  0.13957155869E+02 -0.12344092433E+01 -0.29273081203E+02  0.17601772425E+03  0.17300000000E+03 0.  1.
<mgrwt>
<rscale>  2 0.17356649E+03</rscale>
<asrwt>0</asrwt>
<pdfrwt beam="2">  1        2 0.22220001E-01 0.17356649E+03</pdfrwt>
<pdfrwt beam="1">  1       -2 0.39017555E-01 0.17356649E+03</pdfrwt>
<totfact> 0.15147672E+03</totfact>
</mgrwt>
</event>
<event>
 4    1  0.7691552E-001  0.1899372E+03  0.7546771E-02  0.1158518E+00
         -2   -1    0    0    0  501 -0.00000000000E+00  0.00000000000E+00  0.15529159464E+04  0.15529159464E+04  0.00000000000E+00 0. -1.
          2   -1    0    0  502    0  0.00000000000E+00 -0.00000000000E+00 -0.27176233058E+02  0.27176233058E+02  0.00000000000E+00 0.  1.
          6    1    1    2  502    0 -0.44179656379E+02 -0.64771230282E+02  0.46185964424E+03  0.49939011333E+03  0.17300000000E+03 0.  1.
         -6    1    1    2    0  501  0.44179656379E+02  0.64771230282E+02  0.10638800691E+04  0.10807020661E+04  0.17300000000E+03 0. -1.
<mgrwt>
<rscale>  2 0.18993724E+03</rscale>
<asrwt>0</asrwt>
<pdfrwt beam="2">  1        2 0.41809601E-02 0.18993724E+03</pdfrwt>
<pdfrwt beam="1">  1       -2 0.23891008E+00 0.18993724E+03</pdfrwt>
<totfact> 0.16649838E+02</totfact>
</mgrwt>
</event>
<event>
 4    1  0.7691552E-001  0.1756394E+03  0.7546771E-02  0.1172091E+00
         -2   -1    0    0    0  501 -0.00000000000E+00  0.00000000000E+00  0.32263342102E+03  0.32263342102E+03  0.00000000000E+00 0.  1.
          2   -1    0    0  502    0  0.00000000000E+00 -0.00000000000E+00 -0.14905280886E+03  0.14905280886E+03  0.00000000000E+00 0. -1.
          6    1    1    2  502    0  0.11837277059E+02  0.27930117056E+02 -0.54421060839E+02  0.18387730809E+03  0.17300000000E+03 0. -1.
         -6    1    1    2    0  501 -0.11837277059E+02 -0.27930117056E+02  0.22800167300E+03  0.28780892178E+03  0.17300000000E+03 0.  1.
<mgrwt>
<rscale>  2 0.17563944E+03</rscale>
<asrwt>0</asrwt>
<pdfrwt beam="2">  1        2 0.22931201E-01 0.17563944E+03</pdfrwt>
<pdfrwt beam="1">  1       -2 0.49635911E-01 0.17563944E+03</pdfrwt>
<totfact> 0.91745599E+02</totfact>
</mgrwt>
</event>
<event>
 4    1  0.7691552E-001  0.1790381E+03  0.7546771E-02  0.1168737E+00
         -2   -1    0    0    0  501 -0.00000000000E+00  0.00000000000E+00  0.10669722253E+02  0.10669722253E+02  0.00000000000E+00 0. -1.
          2   -1    0    0  502    0  0.00000000000E+00 -0.00000000000E+00 -0.32039205953E+04  0.32039205953E+04  0.00000000000E+00 0.  1.
          6    1    1    2  502    0 -0.38940130818E+00 -0.46102926180E+02 -0.11953895616E+04  0.12087228117E+04  0.17300000000E+03 0.  1.
         -6    1    1    2    0  501  0.38940130818E+00  0.46102926180E+02 -0.19978613115E+04  0.20058675059E+04  0.17300000000E+03 0. -1.
<mgrwt>
<rscale>  2 0.17903807E+03</rscale>
<asrwt>0</asrwt>
<pdfrwt beam="2">  1        2 0.49291067E+00 0.17903807E+03</pdfrwt>
<pdfrwt beam="1">  1       -2 0.16414964E-02 0.17903807E+03</pdfrwt>
<totfact> 0.16491061E+03</totfact>
</mgrwt>
</event>
<event>
 4    1  0.7691552E-001  0.1888288E+03  0.7546771E-02  0.1159522E+00
         -2   -1    0    0    0  501 -0.00000000000E+00  0.00000000000E+00  0.51478963524E+02  0.51478963524E+02  0.00000000000E+00 0. -1.
          2   -1    0    0  502    0  0.00000000000E+00 -0.00000000000E+00 -0.91788204047E+03  0.91788204047E+03  0.00000000000E+00 0.  1.
          6    1    1    2  502    0  0.47355615569E+02  0.59031828726E+02 -0.67329940618E+03  0.69927705632E+03  0.17300000000E+03 0.  1.
         -6    1    1    2    0  501 -0.47355615569E+02 -0.59031828726E+02 -0.19310367076E+03  0.27008394767E+03  0.17300000000E+03 0. -1.
<mgrwt>
<rscale>  2 0.18882879E+03</rscale>
<asrwt>0</asrwt>
<pdfrwt beam="2">  1        2 0.14121261E+00 0.18882879E+03</pdfrwt>
<pdfrwt beam="1">  1       -2 0.79198410E-02 0.18882879E+03</pdfrwt>
<totfact> 0.28187153E+03</totfact>
</mgrwt>
</event>
<event>
 4    1  0.7691552E-001  0.1767035E+03  0.7546771E-02  0.1171032E+00
          2   -1    0    0  502    0  0.00000000000E+00  0.00000000000E+00  0.19496332119E+04  0.19496332119E+04  0.00000000000E+00 0.  1.
         -2   -1    0    0    0  501 -0.00000000000E+00 -0.00000000000E+00 -0.16107459858E+02  0.16107459858E+02  0.00000000000E+00 0. -1.
          6    1    1    2  502    0 -0.22880452241E+02  0.27777937238E+02  0.10410734012E+04  0.10559630465E+04  0.17300000000E+03 0.  1.
         -6    1    1    2    0  501  0.22880452241E+02 -0.27777937238E+02  0.89245235081E+03  0.90977762522E+03  0.17300000000E+03 0. -1.
<mgrwt>
<rscale>  2 0.17670351E+03</rscale>
<asrwt>0</asrwt>
<pdfrwt beam="1">  1        2 0.29994339E+00 0.17670351E+03</pdfrwt>
<pdfrwt beam="2">  1       -2 0.24780723E-02 0.17670351E+03</pdfrwt>
<totfact> 0.44342282E+03</totfact>
</mgrwt>
</event>
<event>
 4    1  0.7691552E-001  0.2116818E+03  0.7546771E-02  0.1140241E+00
          2   -1    0    0  502    0  0.00000000000E+00  0.00000000000E+00  0.65915543998E+03  0.65915543998E+03  0.00000000000E+00 0.  1.
         -2   -1    0    0    0  501 -0.00000000000E+00 -0.00000000000E+00 -0.89869134703E+02  0.89869134703E+02  0.00000000000E+00 0. -1.
          6    1    1    2  502    0  0.42158101371E+02 -0.11446777633E+03  0.46947561128E+03  0.51499177363E+03  0.17300000000E+03 0.  1.
         -6    1    1    2    0  501 -0.42158101371E+02  0.11446777633E+03  0.99810693999E+02  0.23403280105E+03  0.17300000000E+03 0. -1.
<mgrwt>
<rscale>  2 0.21168178E+03</rscale>
<asrwt>0</asrwt>
<pdfrwt beam="1">  1        2 0.10140853E+00 0.21168178E+03</pdfrwt>
<pdfrwt beam="2">  1       -2 0.13826021E-01 0.21168178E+03</pdfrwt>
<totfact> 0.17611252E+03</totfact>
</mgrwt>
</event>
<event>
 4    1  0.7691552E-001  0.4502819E+03  0.7546771E-02  0.1027638E+00
          2   -1    0    0  502    0  0.00000000000E+00  0.00000000000E+00  0.14052636954E+04  0.14052636954E+04  0.00000000000E+00 0. -1.
         -2   -1    0    0    0  501 -0.00000000000E+00 -0.00000000000E+00 -0.19803997746E+03  0.19803997746E+03  0.00000000000E+00 0.  1.
          6    1    1    2  502    0 -0.36620857280E+03 -0.19676394368E+03  0.10212808386E+04  0.11161399194E+04  0.17300000000E+03 0. -1.
         -6    1    1    2    0  501  0.36620857280E+03  0.19676394368E+03  0.18594287933E+03  0.48716375348E+03  0.17300000000E+03 0.  1.
<mgrwt>
<rscale>  2 0.45028188E+03</rscale>
<asrwt>0</asrwt>
<pdfrwt beam="1">  1        2 0.21619441E+00 0.45028188E+03</pdfrwt>
<pdfrwt beam="2">  1       -2 0.30467690E-01 0.45028188E+03</pdfrwt>
<totfact> 0.14974133E+02</totfact>
</mgrwt>
</event>
<event>
 4    1  0.7691552E-001  0.3199132E+03  0.7546771E-02  0.1075689E+00
         -1   -1    0    0    0  501 -0.00000000000E+00  0.00000000000E+00  0.35959865810E+02  0.35959865810E+02  0.00000000000E+00 0. -1.
          1   -1    0    0  502    0  0.00000000000E+00 -0.00000000000E+00 -0.34216213032E+04  0.34216213032E+04  0.00000000000E+00 0.  1.
          6    1    1    2  502    0  0.25902282207E+03 -0.72956164722E+02 -0.98379667996E+03  0.10345048728E+04  0.17300000000E+03 0.  1.
         -6    1    1    2    0  501 -0.25902282207E+03  0.72956164722E+02 -0.24018647574E+04  0.24230762962E+04  0.17300000000E+03 0.  1.
<mgrwt>
<rscale>  2 0.31991315E+03</rscale>
<asrwt>0</asrwt>
<pdfrwt beam="2">  1        1 0.52640338E+00 0.31991315E+03</pdfrwt>
<pdfrwt beam="1">  1       -1 0.55322860E-02 0.31991315E+03</pdfrwt>
<totfact> 0.53381927E+01</totfact>
</mgrwt>
</event>
<event>
 4    1  0.7691552E-001  0.1789976E+03  0.7546771E-02  0.1168777E+00
         -1   -1    0    0    0  501 -0.00000000000E+00  0.00000000000E+00  0.29520330289E+02  0.29520330289E+02  0.00000000000E+00 0.  1.
          1   -1    0    0  502    0  0.00000000000E+00 -0.00000000000E+00 -0.11876826578E+04  0.11876826578E+04  0.00000000000E+00 0. -1.
          6    1    1    2  502    0 -0.84596733439E+01 -0.45161704273E+02 -0.75771823654E+03  0.77857374191E+03  0.17300000000E+03 0. -1.
         -6    1    1    2    0  501  0.84596733439E+01  0.45161704273E+02 -0.40044409092E+03  0.43862924613E+03  0.17300000000E+03 0. -1.
<mgrwt>
<rscale>  2 0.17899761E+03</rscale>
<asrwt>0</asrwt>
<pdfrwt beam="2">  1        1 0.18272044E+00 0.17899761E+03</pdfrwt>
<pdfrwt beam="1">  1       -1 0.45415886E-02 0.17899761E+03</pdfrwt>
<totfact> 0.23656327E+03</totfact>
</mgrwt>
</event>
<event>
 4    1  0.7691552E-001  0.5997316E+03  0.7546771E-02  0.9905963E-01
         -1   -1    0    0    0  501 -0.00000000000E+00  0.00000000000E+00  0.87246164475E+03  0.87246164475E+03  0.00000000000E+00 0. -1.
          1   -1    0    0  502    0  0.00000000000E+00 -0.00000000000E+00 -0.44306270533E+03  0.44306270533E+03  0.00000000000E+00 0.  1.
          6    1    1    2  502    0 -0.48607204575E+03  0.30574984248E+03  0.41257070148E+02  0.60114902119E+03  0.17300000000E+03 0.  1.
         -6    1    1    2    0  501  0.48607204575E+03 -0.30574984248E+03  0.38814186927E+03  0.71437532889E+03  0.17300000000E+03 0. -1.
<mgrwt>
<rscale>  2 0.59973161E+03</rscale>
<asrwt>0</asrwt>
<pdfrwt beam="2">  1        1 0.68163493E-01 0.59973161E+03</pdfrwt>
<pdfrwt beam="1">  1       -1 0.13422487E+00 0.59973161E+03</pdfrwt>
<totfact> 0.25470387E+01</totfact>
</mgrwt>
</event>
<event>
 4    1  0.7691552E-001  0.2310553E+03  0.7546771E-02  0.1125899E+00
          2   -1    0    0  502    0  0.00000000000E+00  0.00000000000E+00  0.16492967103E+04  0.16492967103E+04  0.00000000000E+00 0. -1.
         -2   -1    0    0    0  501 -0.00000000000E+00 -0.00000000000E+00 -0.41707536459E+02  0.41707536459E+02  0.00000000000E+00 0.  1.
          6    1    1    2  502    0  0.18281706606E+02  0.15206350676E+03  0.12038687998E+04  0.12258411879E+04  0.17300000000E+03 0.  1.
         -6    1    1    2    0  501 -0.18281706606E+02 -0.15206350676E+03  0.40372037403E+03  0.46516305882E+03  0.17300000000E+03 0. -1.
<mgrwt>
<rscale>  2 0.23105526E+03</rscale>
<asrwt>0</asrwt>
<pdfrwt beam="1">  1        2 0.25373790E+00 0.23105526E+03</pdfrwt>
<pdfrwt beam="2">  1       -2 0.64165453E-02 0.23105526E+03</pdfrwt>
<totfact> 0.15201616E+03</totfact>
</mgrwt>
</event>
<event>
 4    1  0.7691552E-001  0.2260434E+03  0.7546771E-02  0.1129456E+00
          1   -1    0    0  502    0  0.00000000000E+00  0.00000000000E+00  0.18998750706E+04  0.18998750706E+04  0.00000000000E+00 0. -1.
         -1   -1    0    0    0  501 -0.00000000000E+00 -0.00000000000E+00 -0.33753153686E+02  0.33753153686E+02  0.00000000000E+00 0.  1.
          6    1    1    2  502    0  0.79343940295E+02  0.12194742319E+03  0.49723359719E+03  0.54620223824E+03  0.17300000000E+03 0.  1.
         -6    1    1    2    0  501 -0.79343940295E+02 -0.12194742319E+03  0.13688883198E+04  0.13874259861E+04  0.17300000000E+03 0. -1.
<mgrwt>
<rscale>  2 0.22604344E+03</rscale>
<asrwt>0</asrwt>
<pdfrwt beam="1">  1        1 0.29228839E+00 0.22604344E+03</pdfrwt>
<pdfrwt beam="2">  1       -1 0.51927944E-02 0.22604344E+03</pdfrwt>
<totfact> 0.65523837E+02</totfact>
</mgrwt>
</event>
<event>
 4    1  0.7691552E-001  0.3953105E+03  0.7546771E-02  0.1045416E+00
         -2   -1    0    0    0  501 -0.00000000000E+00  0.00000000000E+00  0.11537898543E+03  0.11537898543E+03  0.00000000000E+00 0.  1.
          2   -1    0    0  502    0  0.00000000000E+00 -0.00000000000E+00 -0.16201883937E+04  0.16201883937E+04  0.00000000000E+00 0. -1.
          6    1    1    2  502    0  0.30785219473E+03  0.17767499687E+03 -0.40093404150E+03  0.56304394495E+03  0.17300000000E+03 0.  1.
         -6    1    1    2    0  501 -0.30785219473E+03 -0.17767499687E+03 -0.11038753668E+04  0.11725234342E+04  0.17300000000E+03 0. -1.
<mgrwt>
<rscale>  2 0.39531048E+03</rscale>
<asrwt>0</asrwt>
<pdfrwt beam="2">  1        2 0.24925974E+00 0.39531048E+03</pdfrwt>
<pdfrwt beam="1">  1       -2 0.17750614E-01 0.39531048E+03</pdfrwt>
<totfact> 0.29963409E+02</totfact>
</mgrwt>
</event>
<event>
 4    1  0.7691552E-001  0.1988110E+03  0.7546771E-02  0.1150746E+00
          1   -1    0    0  502    0  0.00000000000E+00  0.00000000000E+00  0.14773038756E+04  0.14773038756E+04  0.00000000000E+00 0.  1.
         -1   -1    0    0    0  501 -0.00000000000E+00 -0.00000000000E+00 -0.28194270491E+02  0.28194270491E+02  0.00000000000E+00 0. -1.
          6    1    1    2  502    0 -0.89771427484E+02 -0.39215883013E+02  0.55450077285E+03  0.58906442921E+03  0.17300000000E+03 0. -1.
         -6    1    1    2    0  501  0.89771427484E+02  0.39215883013E+02  0.89460883223E+03  0.91643371685E+03  0.17300000000E+03 0.  1.
<mgrwt>
<rscale>  2 0.19881095E+03</rscale>
<asrwt>0</asrwt>
<pdfrwt beam="1">  1        1 0.22727746E+00 0.19881095E+03</pdfrwt>
<pdfrwt beam="2">  1       -1 0.43375812E-02 0.19881095E+03</pdfrwt>
<totfact> 0.16169812E+03</totfact>
</mgrwt>
</event>
<event>
 4    1  0.7691552E-001  0.2161570E+03  0.7546771E-02  0.1136781E+00
         -1   -1    0    0    0  501 -0.00000000000E+00  0.00000000000E+00  0.31193891493E+03  0.31193891493E+03  0.00000000000E+00 0.  1.
          1   -1    0    0  502    0  0.00000000000E+00 -0.00000000000E+00 -0.15224813677E+03  0.15224813677E+03  0.00000000000E+00 0. -1.
          6    1    1    2  502    0  0.37973010602E+02 -0.12390678906E+03  0.50325747662E+02  0.22193810576E+03  0.17300000000E+03 0.  1.
         -6    1    1    2    0  501 -0.37973010602E+02  0.12390678906E+03  0.10936503050E+03  0.24224894593E+03  0.17300000000E+03 0.  1.
<mgrwt>
<rscale>  2 0.21615698E+03</rscale>
<asrwt>0</asrwt>
<pdfrwt beam="2">  1        1 0.23422790E-01 0.21615698E+03</pdfrwt>
<pdfrwt beam="1">  1       -1 0.47990602E-01 0.21615698E+03</pdfrwt>
<totfact> 0.92095686E+02</totfact>
</mgrwt>
</event>
<event>
 4    1  0.7691552E-001  0.2503465E+03  0.7546771E-02  0.1113086E+00
         -2   -1    0    0    0  501 -0.00000000000E+00  0.00000000000E+00  0.11100640913E+03  0.11100640913E+03  0.00000000000E+00 0. -1.
          2   -1    0    0  502    0  0.00000000000E+00 -0.00000000000E+00 -0.67719881960E+03  0.67719881960E+03  0.00000000000E+00 0.  1.
          6    1    1    2  502    0  0.31307605567E+02 -0.17822513759E+03 -0.12238988651E+03  0.27866225104E+03  0.17300000000E+03 0. -1.
         -6    1    1    2    0  501 -0.31307605567E+02  0.17822513759E+03 -0.44380252396E+03  0.50954297769E+03  0.17300000000E+03 0.  1.
<mgrwt>
<rscale>  2 0.25034649E+03</rscale>
<asrwt>0</asrwt>
<pdfrwt beam="2">  1        2 0.10418443E+00 0.25034649E+03</pdfrwt>
<pdfrwt beam="1">  1       -2 0.17077909E-01 0.25034649E+03</pdfrwt>
<totfact> 0.12032208E+03</totfact>
</mgrwt>
</event>
<event>
 4    1  0.7691552E-001  0.1769748E+03  0.7546771E-02  0.1170763E+00
         -2   -1    0    0    0  501 -0.00000000000E+00  0.00000000000E+00  0.13826892903E+02  0.13826892903E+02  0.00000000000E+00 0.  1.
          2   -1    0    0  502    0  0.00000000000E+00 -0.00000000000E+00 -0.25824057941E+04  0.25824057941E+04  0.00000000000E+00 0. -1.
          6    1    1    2  502    0  0.35055964038E+02 -0.12733807112E+02 -0.17392796031E+04  0.17482601661E+04  0.17300000000E+03 0. -1.
         -6    1    1    2    0  501 -0.35055964038E+02  0.12733807112E+02 -0.82929929808E+03  0.84797252093E+03  0.17300000000E+03 0.  1.
<mgrwt>
<rscale>  2 0.17697477E+03</rscale>
<asrwt>0</asrwt>
<pdfrwt beam="2">  1        2 0.39729283E+00 0.17697477E+03</pdfrwt>
<pdfrwt beam="1">  1       -2 0.21272163E-02 0.17697477E+03</pdfrwt>
<totfact> 0.25707503E+03</totfact>
</mgrwt>
</event>
<event>
 4    1  0.7691552E-001  0.1888380E+03  0.7546771E-02  0.1159514E+00
         -2   -1    0    0    0  501 -0.00000000000E+00  0.00000000000E+00  0.11533940137E+03  0.11533940137E+03  0.00000000000E+00 0.  1.
          2   -1    0    0  502    0  0.00000000000E+00 -0.00000000000E+00 -0.32507031540E+03  0.32507031540E+03  0.00000000000E+00 0. -1.
          6    1    1    2  502    0  0.71022515782E+02 -0.26202909110E+02 -0.56168177466E+02  0.19701435063E+03  0.17300000000E+03 0.  1.
         -6    1    1    2    0  501 -0.71022515782E+02  0.26202909110E+02 -0.15356273656E+03  0.24339536613E+03  0.17300000000E+03 0.  1.
<mgrwt>
<rscale>  2 0.18883800E+03</rscale>
<asrwt>0</asrwt>
<pdfrwt beam="2">  1        2 0.50010817E-01 0.18883800E+03</pdfrwt>
<pdfrwt beam="1">  1       -2 0.17744524E-01 0.18883800E+03</pdfrwt>
<totfact> 0.25460128E+03</totfact>
</mgrwt>
</event>
<event>
 4    1  0.7691552E-001  0.2016875E+03  0.7546771E-02  0.1148323E+00
         -2   -1    0    0    0  501 -0.00000000000E+00  0.00000000000E+00  0.44363182310E+03  0.44363182310E+03  0.00000000000E+00 0. -1.
          2   -1    0    0  502    0  0.00000000000E+00 -0.00000000000E+00 -0.11894761126E+03  0.11894761126E+03  0.00000000000E+00 0.  1.
          6    1    1    2  502    0 -0.94491033814E+02 -0.42664855070E+02  0.29698937829E+03  0.35899935396E+03  0.17300000000E+03 0. -1.
         -6    1    1    2    0  501  0.94491033814E+02  0.42664855070E+02  0.27694833556E+02  0.20358008040E+03  0.17300000000E+03 0.  1.
<mgrwt>
<rscale>  2 0.20168749E+03</rscale>
<asrwt>0</asrwt>
<pdfrwt beam="2">  1        2 0.18299633E-01 0.20168749E+03</pdfrwt>
<pdfrwt beam="1">  1       -2 0.68251049E-01 0.20168749E+03</pdfrwt>
<totfact> 0.61836455E+02</totfact>
</mgrwt>
</event>
<event>
 4    1  0.7691552E-001  0.1996243E+03  0.7546771E-02  0.1150056E+00
         -1   -1    0    0    0  501 -0.00000000000E+00  0.00000000000E+00  0.12185699169E+03  0.12185699169E+03  0.00000000000E+00 0. -1.
          1   -1    0    0  502    0  0.00000000000E+00 -0.00000000000E+00 -0.34831095650E+03  0.34831095650E+03  0.00000000000E+00 0.  1.
          6    1    1    2  502    0 -0.65339364005E+01 -0.99389006523E+02 -0.55107619566E+02  0.20709108304E+03  0.17300000000E+03 0.  1.
         -6    1    1    2    0  501  0.65339364005E+01  0.99389006523E+02 -0.17134634525E+03  0.26307686514E+03  0.17300000000E+03 0.  1.
<mgrwt>
<rscale>  2 0.19962431E+03</rscale>
<asrwt>0</asrwt>
<pdfrwt beam="2">  1        1 0.53586301E-01 0.19962431E+03</pdfrwt>
<pdfrwt beam="1">  1       -1 0.18747230E-01 0.19962431E+03</pdfrwt>
<totfact> 0.16120895E+03</totfact>
</mgrwt>
</event>
<event>
 4    1  0.7691552E-001  0.2728446E+03  0.7546771E-02  0.1099663E+00
         -2   -1    0    0    0  501 -0.00000000000E+00  0.00000000000E+00  0.45961519631E+02  0.45961519631E+02  0.00000000000E+00 0.  1.
          2   -1    0    0  502    0  0.00000000000E+00 -0.00000000000E+00 -0.32736867016E+04  0.32736867016E+04  0.00000000000E+00 0. -1.
          6    1    1    2  502    0  0.78791242652E+02  0.19572199903E+03 -0.27936634208E+04  0.28069555518E+04  0.17300000000E+03 0. -1.
         -6    1    1    2    0  501 -0.78791242652E+02 -0.19572199903E+03 -0.43406176116E+03  0.51269266946E+03  0.17300000000E+03 0.  1.
<mgrwt>
<rscale>  2 0.27284457E+03</rscale>
<asrwt>0</asrwt>
<pdfrwt beam="2">  1        2 0.50364411E+00 0.27284457E+03</pdfrwt>
<pdfrwt beam="1">  1       -2 0.70710030E-02 0.27284457E+03</pdfrwt>
<totfact> 0.16285746E+02</totfact>
</mgrwt>
</event>
<event>
 4    1  0.7691552E-001  0.3380941E+03  0.7546771E-02  0.1067611E+00
          1   -1    0    0  502    0  0.00000000000E+00  0.00000000000E+00  0.29784695589E+03  0.29784695589E+03  0.00000000000E+00 0.  1.
         -1   -1    0    0    0  501 -0.00000000000E+00 -0.00000000000E+00 -0.38427296552E+03  0.38427296552E+03  0.00000000000E+00 0. -1.
          6    1    1    2  502    0 -0.17129534360E+03  0.23459860848E+03 -0.55433004896E+02  0.34260826007E+03  0.17300000000E+03 0. -1.
         -6    1    1    2    0  501  0.17129534360E+03 -0.23459860848E+03 -0.30993004740E+02  0.33951166133E+03  0.17300000000E+03 0.  1.
<mgrwt>
<rscale>  2 0.33809407E+03</rscale>
<asrwt>0</asrwt>
<pdfrwt beam="1">  1        1 0.45822609E-01 0.33809407E+03</pdfrwt>
<pdfrwt beam="2">  1       -1 0.59118918E-01 0.33809407E+03</pdfrwt>
<totfact> 0.26503219E+02</totfact>
</mgrwt>
</event>
<event>
 4    1  0.7691552E-001  0.2275945E+03  0.7546771E-02  0.1128344E+00
         -2   -1    0    0    0  501 -0.00000000000E+00  0.00000000000E+00  0.26460604209E+03  0.26460604209E+03  0.00000000000E+00 0. -1.
          2   -1    0    0  502    0  0.00000000000E+00 -0.00000000000E+00 -0.20186653612E+03  0.20186653612E+03  0.00000000000E+00 0.  1.
          6    1    1    2  502    0  0.33922630548E+02 -0.14394266765E+03  0.71936213465E+02  0.23869238622E+03  0.17300000000E+03 0.  1.
         -6    1    1    2    0  501 -0.33922630548E+02  0.14394266765E+03 -0.91967074906E+01  0.22778019199E+03  0.17300000000E+03 0. -1.
<mgrwt>
<rscale>  2 0.22759446E+03</rscale>
<asrwt>0</asrwt>
<pdfrwt beam="2">  1        2 0.31056390E-01 0.22759446E+03</pdfrwt>
<pdfrwt beam="1">  1       -2 0.40708622E-01 0.22759446E+03</pdfrwt>
<totfact> 0.97012652E+02</totfact>
</mgrwt>
</event>
<event>
 4    1  0.7691552E-001  0.2233725E+03  0.7546771E-02  0.1131393E+00
         -2   -1    0    0    0  501 -0.00000000000E+00  0.00000000000E+00  0.48823548118E+02  0.48823548118E+02  0.00000000000E+00 0.  1.
          2   -1    0    0  502    0  0.00000000000E+00 -0.00000000000E+00 -0.20518199874E+04  0.20518199874E+04  0.00000000000E+00 0. -1.
          6    1    1    2  502    0  0.44073983365E+02  0.13425255116E+03 -0.25737685650E+03  0.34079041912E+03  0.17300000000E+03 0.  1.
         -6    1    1    2    0  501 -0.44073983365E+02 -0.13425255116E+03 -0.17456195828E+04  0.17598531164E+04  0.17300000000E+03 0. -1.
<mgrwt>
<rscale>  2 0.22337248E+03</rscale>
<asrwt>0</asrwt>
<pdfrwt beam="2">  1        2 0.31566465E+00 0.22337248E+03</pdfrwt>
<pdfrwt beam="1">  1       -2 0.75113143E-02 0.22337248E+03</pdfrwt>
<totfact> 0.73442342E+02</totfact>
</mgrwt>
</event>
<event>
 4    1  0.7691552E-001  0.2297626E+03  0.7546771E-02  0.1126807E+00
          2   -1    0    0  502    0  0.00000000000E+00  0.00000000000E+00  0.18896130775E+04  0.18896130775E+04  0.00000000000E+00 0.  1.
         -2   -1    0    0    0  501 -0.00000000000E+00 -0.00000000000E+00 -0.30683614786E+02  0.30683614786E+02  0.00000000000E+00 0. -1.
          6    1    1    2  502    0  0.75722059859E+02 -0.13087407689E+03  0.64221922056E+03  0.68208238623E+03  0.17300000000E+03 0. -1.
         -6    1    1    2    0  501 -0.75722059859E+02  0.13087407689E+03  0.12167102421E+04  0.12382143060E+04  0.17300000000E+03 0.  1.
<mgrwt>
<rscale>  2 0.22976260E+03</rscale>
<asrwt>0</asrwt>
<pdfrwt beam="1">  1        2 0.29070961E+00 0.22976260E+03</pdfrwt>
<pdfrwt beam="2">  1       -2 0.47205576E-02 0.22976260E+03</pdfrwt>
<totfact> 0.18196500E+03</totfact>
</mgrwt>
</event>
<event>
 4    1  0.7691552E-001  0.2424069E+03  0.7546771E-02  0.1118200E+00
         -3   -1    0    0    0  501 -0.00000000000E+00  0.00000000000E+00  0.26643803882E+03  0.26643803882E+03  0.00000000000E+00 0. -1.
          3   -1    0    0  502    0  0.00000000000E+00 -0.00000000000E+00 -0.22123443740E+03  0.22123443740E+03  0.00000000000E+00 0.  1.
          6    1    1    2  502    0 -0.14129324956E+03  0.94171843172E+02  0.36230708401E+02  0.24509953621E+03  0.17300000000E+03 0.  1.
         -6    1    1    2    0  501  0.14129324956E+03 -0.94171843172E+02  0.89728930201E+01  0.24257294001E+03  0.17300000000E+03 0. -1.
<mgrwt>
<rscale>  2 0.24240693E+03</rscale>
<asrwt>0</asrwt>
<pdfrwt beam="2">  1        3 0.34036067E-01 0.24240693E+03</pdfrwt>
<pdfrwt beam="1">  1       -3 0.40990468E-01 0.24240693E+03</pdfrwt>
<totfact> 0.12458845E+02</totfact>
</mgrwt>
</event>
<event>
 4    1  0.7691552E-001  0.2056337E+03  0.7546771E-02  0.1145071E+00
          2   -1    0    0  502    0  0.00000000000E+00  0.00000000000E+00  0.79330906254E+03  0.79330906254E+03  0.00000000000E+00 0.  1.
         -2   -1    0    0    0  501 -0.00000000000E+00 -0.00000000000E+00 -0.53302308955E+02  0.53302308955E+02  0.00000000000E+00 0. -1.
          6    1    1    2  502    0 -0.84563837141E+02  0.72146794420E+02  0.37010104630E+03  0.42339105679E+03  0.17300000000E+03 0.  1.
         -6    1    1    2    0  501  0.84563837141E+02 -0.72146794420E+02  0.36990570729E+03  0.42322031471E+03  0.17300000000E+03 0. -1.
<mgrwt>
<rscale>  2 0.20563366E+03</rscale>
<asrwt>0</asrwt>
<pdfrwt beam="1">  1        2 0.12204754E+00 0.20563366E+03</pdfrwt>
<pdfrwt beam="2">  1       -2 0.82003558E-02 0.20563366E+03</pdfrwt>
<totfact> 0.32322389E+03</totfact>
</mgrwt>
</event>
<event>
 4    1  0.7691552E-001  0.2160511E+03  0.7546771E-02  0.1136862E+00
         -3   -1    0    0    0  501 -0.00000000000E+00  0.00000000000E+00  0.60620587999E+03  0.60620587999E+03  0.00000000000E+00 0. -1.
          3   -1    0    0  502    0  0.00000000000E+00 -0.00000000000E+00 -0.10428459148E+03  0.10428459148E+03  0.00000000000E+00 0.  1.
          6    1    1    2  502    0 -0.12935279200E+03  0.41155267322E+01  0.69252704786E+02  0.22687886521E+03  0.17300000000E+03 0.  1.
         -6    1    1    2    0  501  0.12935279200E+03 -0.41155267322E+01  0.43266858373E+03  0.48361160626E+03  0.17300000000E+03 0. -1.
<mgrwt>
<rscale>  2 0.21605111E+03</rscale>
<asrwt>0</asrwt>
<pdfrwt beam="2">  1        3 0.16043784E-01 0.21605111E+03</pdfrwt>
<pdfrwt beam="1">  1       -3 0.93262440E-01 0.21605111E+03</pdfrwt>
<totfact> 0.86120428E+01</totfact>
</mgrwt>
</event>
<event>
 4    1  0.7691552E-001  0.2577673E+03  0.7546771E-02  0.1108492E+00
          2   -1    0    0  502    0  0.00000000000E+00  0.00000000000E+00  0.19679519166E+03  0.19679519166E+03  0.00000000000E+00 0. -1.
         -2   -1    0    0    0  501 -0.00000000000E+00 -0.00000000000E+00 -0.35874838909E+03  0.35874838909E+03  0.00000000000E+00 0.  1.
          6    1    1    2  502    0  0.53504757413E+02 -0.18344538637E+03 -0.13582306162E+02  0.25812486879E+03  0.17300000000E+03 0. -1.
         -6    1    1    2    0  501 -0.53504757413E+02  0.18344538637E+03 -0.14837089127E+03  0.29741871195E+03  0.17300000000E+03 0.  1.
<mgrwt>
<rscale>  2 0.25776728E+03</rscale>
<asrwt>0</asrwt>
<pdfrwt beam="1">  1        2 0.30276184E-01 0.25776728E+03</pdfrwt>
<pdfrwt beam="2">  1       -2 0.55192059E-01 0.25776728E+03</pdfrwt>
<totfact> 0.54712098E+02</totfact>
</mgrwt>
</event>
<event>
 4    1  0.7691552E-001  0.2063318E+03  0.7546771E-02  0.1144504E+00
         -2   -1    0    0    0  501 -0.00000000000E+00  0.00000000000E+00  0.27501829844E+02  0.27501829844E+02  0.00000000000E+00 0. -1.
          2   -1    0    0  502    0  0.00000000000E+00 -0.00000000000E+00 -0.15584537890E+04  0.15584537890E+04  0.00000000000E+00 0.  1.
          6    1    1    2  502    0 -0.40825581031E+02 -0.10477152683E+03 -0.83042533931E+03  0.85567461401E+03  0.17300000000E+03 0.  1.
         -6    1    1    2    0  501  0.40825581031E+02  0.10477152683E+03 -0.70052661985E+03  0.73028100483E+03  0.17300000000E+03 0. -1.
<mgrwt>
<rscale>  2 0.20633177E+03</rscale>
<asrwt>0</asrwt>
<pdfrwt beam="2">  1        2 0.23976213E+00 0.20633177E+03</pdfrwt>
<pdfrwt beam="1">  1       -2 0.42310505E-02 0.20633177E+03</pdfrwt>
<totfact> 0.32006215E+03</totfact>
</mgrwt>
</event>
<event>
 4    1  0.7691552E-001  0.2448802E+03  0.7546771E-02  0.1116584E+00
          1   -1    0    0  502    0  0.00000000000E+00  0.00000000000E+00  0.99588950884E+03  0.99588950884E+03  0.00000000000E+00 0.  1.
         -1   -1    0    0    0  501 -0.00000000000E+00 -0.00000000000E+00 -0.64169123125E+02  0.64169123125E+02  0.00000000000E+00 0. -1.
          6    1    1    2  502    0  0.16554641176E+03  0.51300104412E+02  0.33426908893E+03  0.41436956810E+03  0.17300000000E+03 0. -1.
         -6    1    1    2    0  501 -0.16554641176E+03 -0.51300104412E+02  0.59745129679E+03  0.64568906386E+03  0.17300000000E+03 0. -1.
<mgrwt>
<rscale>  2 0.24488021E+03</rscale>
<asrwt>0</asrwt>
<pdfrwt beam="1">  1        1 0.15321376E+00 0.24488021E+03</pdfrwt>
<pdfrwt beam="2">  1       -1 0.98721735E-02 0.24488021E+03</pdfrwt>
<totfact> 0.10039552E+03</totfact>
</mgrwt>
</event>
<event>
 4    1  0.7691552E-001  0.1936466E+03  0.7546771E-02  0.1155213E+00
          1   -1    0    0  502    0  0.00000000000E+00  0.00000000000E+00  0.26547183967E+03  0.26547183967E+03  0.00000000000E+00 0. -1.
         -1   -1    0    0    0  501 -0.00000000000E+00 -0.00000000000E+00 -0.18924295672E+03  0.18924295672E+03  0.00000000000E+00 0.  1.
          6    1    1    2  502    0  0.35110393418E+02  0.79607004359E+02 -0.76375922049E+02  0.20816410915E+03  0.17300000000E+03 0.  1.
         -6    1    1    2    0  501 -0.35110393418E+02 -0.79607004359E+02  0.15260480500E+03  0.24655068724E+03  0.17300000000E+03 0. -1.
<mgrwt>
<rscale>  2 0.19364662E+03</rscale>
<asrwt>0</asrwt>
<pdfrwt beam="1">  1        1 0.40841822E-01 0.19364662E+03</pdfrwt>
<pdfrwt beam="2">  1       -1 0.29114301E-01 0.19364662E+03</pdfrwt>
<totfact> 0.10969795E+03</totfact>
</mgrwt>
</event>
<event>
 4    1  0.7691552E-001  0.1735764E+03  0.7546771E-02  0.1174169E+00
         -2   -1    0    0    0  501 -0.00000000000E+00  0.00000000000E+00  0.68421009547E+03  0.68421009547E+03  0.00000000000E+00 0.  1.
          2   -1    0    0  502    0  0.00000000000E+00 -0.00000000000E+00 -0.52286785281E+02  0.52286785281E+02  0.00000000000E+00 0. -1.
          6    1    1    2  502    0 -0.83620514207E+01 -0.11394610920E+02  0.46225866885E+03  0.49377306325E+03  0.17300000000E+03 0.  1.
         -6    1    1    2    0  501  0.83620514207E+01  0.11394610920E+02  0.16966464134E+03  0.24272381750E+03  0.17300000000E+03 0. -1.
<mgrwt>
<rscale>  2 0.17357638E+03</rscale>
<asrwt>0</asrwt>
<pdfrwt beam="2">  1        2 0.80441213E-02 0.17357638E+03</pdfrwt>
<pdfrwt beam="1">  1       -2 0.10526309E+00 0.17357638E+03</pdfrwt>
<totfact> 0.63428924E+02</totfact>
</mgrwt>
</event>
<event>
 4    1  0.7691552E-001  0.2733470E+03  0.7546771E-02  0.1099379E+00
          4   -1    0    0  502    0  0.00000000000E+00  0.00000000000E+00  0.33213561231E+03  0.33213561231E+03  0.00000000000E+00 0. -1.
         -4   -1    0    0    0  501 -0.00000000000E+00 -0.00000000000E+00 -0.22717259544E+03  0.22717259544E+03  0.00000000000E+00 0.  1.
          6    1    1    2  502    0  0.19428473557E+03 -0.83922733644E+02  0.80055083588E+02  0.28482872065E+03  0.17300000000E+03 0.  1.
         -6    1    1    2    0  501 -0.19428473557E+03  0.83922733644E+02  0.24907933288E+02  0.27447948710E+03  0.17300000000E+03 0. -1.
<mgrwt>
<rscale>  2 0.27334700E+03</rscale>
<asrwt>0</asrwt>
<pdfrwt beam="1">  1        4 0.51097786E-01 0.27334700E+03</pdfrwt>
<pdfrwt beam="2">  1       -4 0.34949630E-01 0.27334700E+03</pdfrwt>
<totfact> 0.54118431E+01</totfact>
</mgrwt>
</event>
<event>
 4    1  0.7691552E-001  0.2247865E+03  0.7546771E-02  0.1130364E+00
         -2   -1    0    0    0  501 -0.00000000000E+00  0.00000000000E+00  0.30995942721E+03  0.30995942721E+03  0.00000000000E+00 0.  1.
          2   -1    0    0  502    0  0.00000000000E+00 -0.00000000000E+00 -0.18781569412E+03  0.18781569412E+03  0.00000000000E+00 0. -1.
          6    1    1    2  502    0  0.12299506617E+02 -0.14299891621E+03 -0.29364445648E+02  0.22669635764E+03  0.17300000000E+03 0. -1.
         -6    1    1    2    0  501 -0.12299506617E+02  0.14299891621E+03  0.15150817874E+03  0.27107876369E+03  0.17300000000E+03 0.  1.
<mgrwt>
<rscale>  2 0.22478649E+03</rscale>
<asrwt>0</asrwt>
<pdfrwt beam="2">  1        2 0.28894722E-01 0.22478649E+03</pdfrwt>
<pdfrwt beam="1">  1       -2 0.47686066E-01 0.22478649E+03</pdfrwt>
<totfact> 0.77165061E+02</totfact>
</mgrwt>
</event>
<event>
 4    1  0.7691552E-001  0.2515264E+03  0.7546771E-02  0.1112344E+00
          1   -1    0    0  502    0  0.00000000000E+00  0.00000000000E+00  0.73911772109E+03  0.73911772109E+03  0.00000000000E+00 0.  1.
         -1   -1    0    0    0  501 -0.00000000000E+00 -0.00000000000E+00 -0.87712616932E+02  0.87712616932E+02  0.00000000000E+00 0. -1.
          6    1    1    2  502    0 -0.15498651287E+03  0.96517984855E+02  0.26148204742E+03  0.36282006793E+03  0.17300000000E+03 0. -1.
         -6    1    1    2    0  501  0.15498651287E+03 -0.96517984855E+02  0.38992305674E+03  0.46401027009E+03  0.17300000000E+03 0.  1.
<mgrwt>
<rscale>  2 0.25152642E+03</rscale>
<asrwt>0</asrwt>
<pdfrwt beam="1">  1        1 0.11371041E+00 0.25152642E+03</pdfrwt>
<pdfrwt beam="2">  1       -1 0.13494249E-01 0.25152642E+03</pdfrwt>
<totfact> 0.99127014E+02</totfact>
</mgrwt>
</event>
<event>
 4    1  0.7691552E-001  0.1888065E+03  0.7546771E-02  0.1159542E+00
         -2   -1    0    0    0  501 -0.00000000000E+00  0.00000000000E+00  0.49014193481E+02  0.49014193481E+02  0.00000000000E+00 0.  1.
          2   -1    0    0  502    0  0.00000000000E+00 -0.00000000000E+00 -0.10147897700E+04  0.10147897700E+04  0.00000000000E+00 0. -1.
          6    1    1    2  502    0 -0.71839999352E+02 -0.23620381158E+02 -0.76599865422E+03  0.78892448700E+03  0.17300000000E+03 0. -1.
         -6    1    1    2    0  501  0.71839999352E+02  0.23620381158E+02 -0.19977692232E+03  0.27487947651E+03  0.17300000000E+03 0.  1.
<mgrwt>
<rscale>  2 0.18880654E+03</rscale>
<asrwt>0</asrwt>
<pdfrwt beam="2">  1        2 0.15612150E+00 0.18880654E+03</pdfrwt>
<pdfrwt beam="1">  1       -2 0.75406455E-02 0.18880654E+03</pdfrwt>
<totfact> 0.26508960E+03</totfact>
</mgrwt>
</event>
<event>
 4    1  0.7691552E-001  0.2030213E+03  0.7546771E-02  0.1147215E+00
         -1   -1    0    0    0  501 -0.00000000000E+00  0.00000000000E+00  0.13105312195E+03  0.13105312195E+03  0.00000000000E+00 0. -1.
          1   -1    0    0  502    0  0.00000000000E+00 -0.00000000000E+00 -0.12352668403E+04  0.12352668403E+04  0.00000000000E+00 0.  1.
          6    1    1    2  502    0  0.97088275233E+02  0.43156936596E+02  0.37706026896E+02  0.20649309632E+03  0.17300000000E+03 0. -1.
         -6    1    1    2    0  501 -0.97088275233E+02 -0.43156936596E+02 -0.11419197453E+04  0.11598268659E+04  0.17300000000E+03 0.  1.
<mgrwt>
<rscale>  2 0.20302132E+03</rscale>
<asrwt>0</asrwt>
<pdfrwt beam="2">  1        1 0.19004106E+00 0.20302132E+03</pdfrwt>
<pdfrwt beam="1">  1       -1 0.20162018E-01 0.20302132E+03</pdfrwt>
<totfact> 0.21997901E+02</totfact>
</mgrwt>
</event>
<event>
 4    1  0.7691552E-001  0.4452951E+03  0.7546771E-02  0.1029134E+00
         -2   -1    0    0    0  501 -0.00000000000E+00  0.00000000000E+00  0.26433271320E+03  0.26433271320E+03  0.00000000000E+00 0.  1.
          2   -1    0    0  502    0  0.00000000000E+00 -0.00000000000E+00 -0.13073672618E+04  0.13073672618E+04  0.00000000000E+00 0. -1.
          6    1    1    2  502    0 -0.40986973337E+03 -0.19118347275E+02 -0.10345620904E+04  0.11263242998E+04  0.17300000000E+03 0. -1.
         -6    1    1    2    0  501  0.40986973337E+03  0.19118347275E+02 -0.84724582883E+01  0.44537567523E+03  0.17300000000E+03 0.  1.
<mgrwt>
<rscale>  2 0.44529508E+03</rscale>
<asrwt>0</asrwt>
<pdfrwt beam="2">  1        2 0.20113342E+00 0.44529508E+03</pdfrwt>
<pdfrwt beam="1">  1       -2 0.40666572E-01 0.44529508E+03</pdfrwt>
<totfact> 0.98469405E+01</totfact>
</mgrwt>
</event>
<event>
 4    1  0.7691552E-001  0.2487754E+03  0.7546771E-02  0.1114081E+00
          2   -1    0    0  502    0  0.00000000000E+00  0.00000000000E+00  0.99217480871E+03  0.99217480871E+03  0.00000000000E+00 0.  1.
         -2   -1    0    0    0  501 -0.00000000000E+00 -0.00000000000E+00 -0.10358445575E+03  0.10358445575E+03  0.00000000000E+00 0. -1.
          6    1    1    2  502    0 -0.42051454172E+02  0.17375808843E+03  0.98734659520E+02  0.26765225776E+03  0.17300000000E+03 0. -1.
         -6    1    1    2    0  501  0.42051454172E+02 -0.17375808843E+03  0.78985569344E+03  0.82810700670E+03  0.17300000000E+03 0.  1.
<mgrwt>
<rscale>  2 0.24877540E+03</rscale>
<asrwt>0</asrwt>
<pdfrwt beam="1">  1        2 0.15264227E+00 0.24877540E+03</pdfrwt>
<pdfrwt beam="2">  1       -2 0.15936071E-01 0.24877540E+03</pdfrwt>
<totfact> 0.82452022E+02</totfact>
</mgrwt>
</event>
<event>
 4    1  0.7691552E-001  0.1765877E+03  0.7546771E-02  0.1171147E+00
         -1   -1    0    0    0  501 -0.00000000000E+00  0.00000000000E+00  0.10584125001E+03  0.10584125001E+03  0.00000000000E+00 0. -1.
          1   -1    0    0  502    0  0.00000000000E+00 -0.00000000000E+00 -0.29712020282E+03  0.29712020282E+03  0.00000000000E+00 0.  1.
          6    1    1    2  502    0 -0.40520770771E+01  0.35182404500E+02 -0.77166713458E+02  0.19271201981E+03  0.17300000000E+03 0.  1.
         -6    1    1    2    0  501  0.40520770771E+01 -0.35182404500E+02 -0.11411223935E+03  0.21024943302E+03  0.17300000000E+03 0. -1.
<mgrwt>
<rscale>  2 0.17658771E+03</rscale>
<asrwt>0</asrwt>
<pdfrwt beam="2">  1        1 0.45710800E-01 0.17658771E+03</pdfrwt>
<pdfrwt beam="1">  1       -1 0.16283269E-01 0.17658771E+03</pdfrwt>
<totfact> 0.24567022E+03</totfact>
</mgrwt>
</event>
<event>
 4    1  0.7691552E-001  0.1738735E+03  0.7546771E-02  0.1173868E+00
          2   -1    0    0  502    0  0.00000000000E+00  0.00000000000E+00  0.18800010882E+04  0.18800010882E+04  0.00000000000E+00 0.  1.
         -2   -1    0    0    0  501 -0.00000000000E+00 -0.00000000000E+00 -0.21142774861E+02  0.21142774861E+02  0.00000000000E+00 0. -1.
          6    1    1    2  502    0  0.11748009302E+02 -0.12843861553E+02  0.13945466130E+04  0.14053441701E+04  0.17300000000E+03 0.  1.
         -6    1    1    2    0  501 -0.11748009302E+02  0.12843861553E+02  0.46431170030E+03  0.49579969296E+03  0.17300000000E+03 0. -1.
<mgrwt>
<rscale>  2 0.17387346E+03</rscale>
<asrwt>0</asrwt>
<pdfrwt beam="1">  1        2 0.28923080E+00 0.17387346E+03</pdfrwt>
<pdfrwt beam="2">  1       -2 0.32527361E-02 0.17387346E+03</pdfrwt>
<totfact> 0.32235066E+03</totfact>
</mgrwt>
</event>
<event>
 4    1  0.7691552E-001  0.2071413E+03  0.7546771E-02  0.1143850E+00
         -2   -1    0    0    0  501 -0.00000000000E+00  0.00000000000E+00  0.12907946198E+03  0.12907946198E+03  0.00000000000E+00 0. -1.
          2   -1    0    0  502    0  0.00000000000E+00 -0.00000000000E+00 -0.48717183823E+03  0.48717183823E+03  0.00000000000E+00 0.  1.
          6    1    1    2  502    0  0.26506217323E+02 -0.11079686015E+03 -0.35271279363E+03  0.40904014298E+03  0.17300000000E+03 0.  1.
         -6    1    1    2    0  501 -0.26506217323E+02  0.11079686015E+03 -0.53795826182E+01  0.20721115724E+03  0.17300000000E+03 0. -1.
<mgrwt>
<rscale>  2 0.20714131E+03</rscale>
<asrwt>0</asrwt>
<pdfrwt beam="2">  1        2 0.74949514E-01 0.20714131E+03</pdfrwt>
<pdfrwt beam="1">  1       -2 0.19858379E-01 0.20714131E+03</pdfrwt>
<totfact> 0.13595048E+03</totfact>
</mgrwt>
</event>
<event>
 4    1  0.7691552E-001  0.1811985E+03  0.7546771E-02  0.1166648E+00
          1   -1    0    0  502    0  0.00000000000E+00  0.00000000000E+00  0.54698956266E+03  0.54698956266E+03  0.00000000000E+00 0. -1.
         -1   -1    0    0    0  501 -0.00000000000E+00 -0.00000000000E+00 -0.77512776903E+02  0.77512776903E+02  0.00000000000E+00 0.  1.
          6    1    1    2  502    0  0.53474899102E+01 -0.53621790979E+02  0.86422299325E+02  0.20075284789E+03  0.17300000000E+03 0.  1.
         -6    1    1    2    0  501 -0.53474899102E+01  0.53621790979E+02  0.38305448643E+03  0.42374949167E+03  0.17300000000E+03 0. -1.
<mgrwt>
<rscale>  2 0.18119849E+03</rscale>
<asrwt>0</asrwt>
<pdfrwt beam="1">  1        1 0.84152238E-01 0.18119849E+03</pdfrwt>
<pdfrwt beam="2">  1       -1 0.11925043E-01 0.18119849E+03</pdfrwt>
<totfact> 0.18342388E+03</totfact>
</mgrwt>
</event>
<event>
 4    1  0.7691552E-001  0.1807549E+03  0.7546771E-02  0.1167074E+00
          2   -1    0    0  502    0  0.00000000000E+00  0.00000000000E+00  0.43175548848E+03  0.43175548848E+03  0.00000000000E+00 0. -1.
         -2   -1    0    0    0  501 -0.00000000000E+00 -0.00000000000E+00 -0.76319749287E+02  0.76319749287E+02  0.00000000000E+00 0.  1.
          6    1    1    2  502    0  0.28455948038E+02 -0.43972668804E+02  0.20109908287E+03  0.27039448536E+03  0.17300000000E+03 0. -1.
         -6    1    1    2    0  501 -0.28455948038E+02  0.43972668804E+02  0.15433665632E+03  0.23768075240E+03  0.17300000000E+03 0.  1.
<mgrwt>
<rscale>  2 0.18075491E+03</rscale>
<asrwt>0</asrwt>
<pdfrwt beam="1">  1        2 0.66423920E-01 0.18075491E+03</pdfrwt>
<pdfrwt beam="2">  1       -2 0.11741500E-01 0.18075491E+03</pdfrwt>
<totfact> 0.36844932E+03</totfact>
</mgrwt>
</event>
<event>
 4    1  0.7691552E-001  0.2080574E+03  0.7546771E-02  0.1143114E+00
          2   -1    0    0  502    0  0.00000000000E+00  0.00000000000E+00  0.24902856902E+03  0.24902856902E+03  0.00000000000E+00 0.  1.
         -2   -1    0    0    0  501 -0.00000000000E+00 -0.00000000000E+00 -0.27022317048E+03  0.27022317048E+03  0.00000000000E+00 0. -1.
          6    1    1    2  502    0 -0.10289426978E+03 -0.52646598383E+02 -0.16566327353E+03  0.26595528811E+03  0.17300000000E+03 0. -1.
         -6    1    1    2    0  501  0.10289426978E+03  0.52646598383E+02  0.14446867207E+03  0.25329645139E+03  0.17300000000E+03 0.  1.
<mgrwt>
<rscale>  2 0.20805743E+03</rscale>
<asrwt>0</asrwt>
<pdfrwt beam="1">  1        2 0.38312088E-01 0.20805743E+03</pdfrwt>
<pdfrwt beam="2">  1       -2 0.41572795E-01 0.20805743E+03</pdfrwt>
<totfact> 0.74058855E+02</totfact>
</mgrwt>
</event>
<event>
 4    1  0.7691552E-001  0.1845072E+03  0.7546771E-02  0.1163511E+00
          2   -1    0    0  502    0  0.00000000000E+00  0.00000000000E+00  0.38044640269E+03  0.38044640269E+03  0.00000000000E+00 0.  1.
         -2   -1    0    0    0  501 -0.00000000000E+00 -0.00000000000E+00 -0.25216889348E+03  0.25216889348E+03  0.00000000000E+00 0. -1.
          6    1    1    2  502    0 -0.50960417556E+02  0.38948083412E+02  0.31820143643E+03  0.36782478371E+03  0.17300000000E+03 0.  1.
         -6    1    1    2    0  501  0.50960417556E+02 -0.38948083412E+02 -0.18992392722E+03  0.26479051246E+03  0.17300000000E+03 0. -1.
<mgrwt>
<rscale>  2 0.18450723E+03</rscale>
<asrwt>0</asrwt>
<pdfrwt beam="1">  1        2 0.58530215E-01 0.18450723E+03</pdfrwt>
<pdfrwt beam="2">  1       -2 0.38795215E-01 0.18450723E+03</pdfrwt>
<totfact> 0.53562863E+02</totfact>
</mgrwt>
</event>
<event>
 4    1  0.7691552E-001  0.1960378E+03  0.7546771E-02  0.1153126E+00
          2   -1    0    0  502    0  0.00000000000E+00  0.00000000000E+00  0.94775735356E+02  0.94775735356E+02  0.00000000000E+00 0.  1.
         -2   -1    0    0    0  501 -0.00000000000E+00 -0.00000000000E+00 -0.15301416538E+04  0.15301416538E+04  0.00000000000E+00 0. -1.
          6    1    1    2  502    0 -0.20601606760E+02 -0.89874235577E+02 -0.14142198048E+04  0.14277424350E+04  0.17300000000E+03 0. -1.
         -6    1    1    2    0  501  0.20601606760E+02  0.89874235577E+02 -0.21146113642E+02  0.19717495415E+03  0.17300000000E+03 0.  1.
<mgrwt>
<rscale>  2 0.19603776E+03</rscale>
<asrwt>0</asrwt>
<pdfrwt beam="1">  1        2 0.14580884E-01 0.19603776E+03</pdfrwt>
<pdfrwt beam="2">  1       -2 0.23540639E+00 0.19603776E+03</pdfrwt>
<totfact> 0.35845014E+01</totfact>
</mgrwt>
</event>
<event>
 4    1  0.7691552E-001  0.1784975E+03  0.7546771E-02  0.1169265E+00
         -1   -1    0    0    0  501 -0.00000000000E+00  0.00000000000E+00  0.51345613970E+02  0.51345613970E+02  0.00000000000E+00 0.  1.
          1   -1    0    0  502    0  0.00000000000E+00 -0.00000000000E+00 -0.69562652949E+03  0.69562652949E+03  0.00000000000E+00 0. -1.
          6    1    1    2  502    0 -0.96590203254E+01 -0.42884116125E+02 -0.19942346371E+03  0.26763979892E+03  0.17300000000E+03 0.  1.
         -6    1    1    2    0  501  0.96590203254E+01  0.42884116125E+02 -0.44485745181E+03  0.47933234454E+03  0.17300000000E+03 0. -1.
<mgrwt>
<rscale>  2 0.17849746E+03</rscale>
<asrwt>0</asrwt>
<pdfrwt beam="2">  1        1 0.10701946E+00 0.17849746E+03</pdfrwt>
<pdfrwt beam="1">  1       -1 0.78993257E-02 0.17849746E+03</pdfrwt>
<totfact> 0.24712685E+03</totfact>
</mgrwt>
</event>
<event>
 4    1  0.7691552E-001  0.2263099E+03  0.7546771E-02  0.1129264E+00
          3   -1    0    0  502    0  0.00000000000E+00  0.00000000000E+00  0.15907196368E+03  0.15907196368E+03  0.00000000000E+00 0. -1.
         -3   -1    0    0    0  501 -0.00000000000E+00 -0.00000000000E+00 -0.39427928975E+03  0.39427928975E+03  0.00000000000E+00 0.  1.
          6    1    1    2  502    0  0.69889731552E+02 -0.12807262899E+03  0.88321539480E+00  0.22631162794E+03  0.17300000000E+03 0. -1.
         -6    1    1    2    0  501 -0.69889731552E+02  0.12807262899E+03 -0.23609054146E+03  0.32703962549E+03  0.17300000000E+03 0.  1.
<mgrwt>
<rscale>  2 0.22630990E+03</rscale>
<asrwt>0</asrwt>
<pdfrwt beam="1">  1        3 0.24472610E-01 0.22630990E+03</pdfrwt>
<pdfrwt beam="2">  1       -3 0.60658352E-01 0.22630990E+03</pdfrwt>
<totfact> 0.10375082E+02</totfact>
</mgrwt>
</event>
<event>
 4    1  0.7691552E-001  0.2681653E+03  0.7546771E-02  0.1102334E+00
          1   -1    0    0  502    0  0.00000000000E+00  0.00000000000E+00  0.14984845671E+03  0.14984845671E+03  0.00000000000E+00 0. -1.
         -1   -1    0    0    0  501 -0.00000000000E+00 -0.00000000000E+00 -0.54315819664E+03  0.54315819664E+03  0.00000000000E+00 0.  1.
          6    1    1    2  502    0 -0.13533997728E+03  0.15383990797E+03 -0.31490307885E+03  0.41361404208E+03  0.17300000000E+03 0.  1.
         -6    1    1    2    0  501  0.13533997728E+03 -0.15383990797E+03 -0.78406661083E+02  0.27939261128E+03  0.17300000000E+03 0. -1.
<mgrwt>
<rscale>  2 0.26816530E+03</rscale>
<asrwt>0</asrwt>
<pdfrwt beam="1">  1        1 0.23053609E-01 0.26816530E+03</pdfrwt>
<pdfrwt beam="2">  1       -1 0.83562800E-01 0.26816530E+03</pdfrwt>
<totfact> 0.31760913E+02</totfact>
</mgrwt>
</event>
<event>
 4    1  0.7691552E-001  0.3658752E+03  0.7546771E-02  0.1056281E+00
          1   -1    0    0  502    0  0.00000000000E+00  0.00000000000E+00  0.70687231708E+03  0.70687231708E+03  0.00000000000E+00 0. -1.
         -1   -1    0    0    0  501 -0.00000000000E+00 -0.00000000000E+00 -0.18980919962E+03  0.18980919962E+03  0.00000000000E+00 0.  1.
          6    1    1    2  502    0 -0.21364015809E+03  0.24144053850E+03  0.23711279341E+03  0.43598982509E+03  0.17300000000E+03 0. -1.
         -6    1    1    2    0  501  0.21364015809E+03 -0.24144053850E+03  0.27995032405E+03  0.46069169161E+03  0.17300000000E+03 0.  1.
<mgrwt>
<rscale>  2 0.36587518E+03</rscale>
<asrwt>0</asrwt>
<pdfrwt beam="1">  1        1 0.10874959E+00 0.36587518E+03</pdfrwt>
<pdfrwt beam="2">  1       -1 0.29201416E-01 0.36587518E+03</pdfrwt>
<totfact> 0.29705078E+02</totfact>
</mgrwt>
</event>
<event>
 4    1  0.7691552E-001  0.1779624E+03  0.7546771E-02  0.1169790E+00
          1   -1    0    0  502    0  0.00000000000E+00  0.00000000000E+00  0.97499979587E+02  0.97499979587E+02  0.00000000000E+00 0. -1.
         -1   -1    0    0    0  501 -0.00000000000E+00 -0.00000000000E+00 -0.60465604702E+03  0.60465604702E+03  0.00000000000E+00 0.  1.
          6    1    1    2  502    0  0.30068182730E+02 -0.28939730509E+02 -0.49241195310E+03  0.52358393326E+03  0.17300000000E+03 0.  1.
         -6    1    1    2    0  501 -0.30068182730E+02  0.28939730509E+02 -0.14744114334E+02  0.17857209335E+03  0.17300000000E+03 0. -1.
<mgrwt>
<rscale>  2 0.17796237E+03</rscale>
<asrwt>0</asrwt>
<pdfrwt beam="1">  1        1 0.14999997E-01 0.17796237E+03</pdfrwt>
<pdfrwt beam="2">  1       -1 0.93024006E-01 0.17796237E+03</pdfrwt>
<totfact> 0.44200866E+02</totfact>
</mgrwt>
</event>
<event>
 4    1  0.7691552E-001  0.1978022E+03  0.7546771E-02  0.1151607E+00
          1   -1    0    0  502    0  0.00000000000E+00  0.00000000000E+00  0.81261824113E+03  0.81261824113E+03  0.00000000000E+00 0. -1.
         -1   -1    0    0    0  501 -0.00000000000E+00 -0.00000000000E+00 -0.72596941385E+02  0.72596941385E+02  0.00000000000E+00 0.  1.
          6    1    1    2  502    0 -0.84178267647E+02  0.45942538732E+02  0.11315305655E+03  0.22788003821E+03  0.17300000000E+03 0.  1.
         -6    1    1    2    0  501  0.84178267647E+02 -0.45942538732E+02  0.62686824319E+03  0.65733514430E+03  0.17300000000E+03 0. -1.
<mgrwt>
<rscale>  2 0.19780217E+03</rscale>
<asrwt>0</asrwt>
<pdfrwt beam="1">  1        1 0.12501818E+00 0.19780217E+03</pdfrwt>
<pdfrwt beam="2">  1       -1 0.11168761E-01 0.19780217E+03</pdfrwt>
<totfact> 0.11545670E+03</totfact>
</mgrwt>
</event>
<event>
 4    1  0.7691552E-001  0.2074767E+03  0.7546771E-02  0.1143580E+00
         -1   -1    0    0    0  501 -0.00000000000E+00  0.00000000000E+00  0.38037041504E+03  0.38037041504E+03  0.00000000000E+00 0. -1.
          1   -1    0    0  502    0  0.00000000000E+00 -0.00000000000E+00 -0.11334682481E+03  0.11334682481E+03  0.00000000000E+00 0.  1.
          6    1    1    2  502    0  0.11245704270E+03 -0.21702047892E+02  0.12376485305E+03  0.24158705302E+03  0.17300000000E+03 0.  1.
         -6    1    1    2    0  501 -0.11245704270E+03  0.21702047892E+02  0.14325873718E+03  0.25213018683E+03  0.17300000000E+03 0. -1.
<mgrwt>
<rscale>  2 0.20747666E+03</rscale>
<asrwt>0</asrwt>
<pdfrwt beam="2">  1        1 0.17437973E-01 0.20747666E+03</pdfrwt>
<pdfrwt beam="1">  1       -1 0.58518525E-01 0.20747666E+03</pdfrwt>
<totfact> 0.92891901E+02</totfact>
</mgrwt>
</event>
<event>
 4    1  0.7691552E-001  0.1743347E+03  0.7546771E-02  0.1173401E+00
          1   -1    0    0  502    0  0.00000000000E+00  0.00000000000E+00  0.16793934539E+04  0.16793934539E+04  0.00000000000E+00 0.  1.
         -1   -1    0    0    0  501 -0.00000000000E+00 -0.00000000000E+00 -0.18160892164E+02  0.18160892164E+02  0.00000000000E+00 0. -1.
          6    1    1    2  502    0  0.27512779516E+01 -0.21354706396E+02  0.88081718648E+03  0.89790395311E+03  0.17300000000E+03 0.  1.
         -6    1    1    2    0  501 -0.27512779516E+01  0.21354706396E+02  0.78041537530E+03  0.79965039300E+03  0.17300000000E+03 0. -1.
<mgrwt>
<rscale>  2 0.17433472E+03</rscale>
<asrwt>0</asrwt>
<pdfrwt beam="1">  1        1 0.25836810E+00 0.17433472E+03</pdfrwt>
<pdfrwt beam="2">  1       -1 0.27939847E-02 0.17433472E+03</pdfrwt>
<totfact> 0.22842414E+03</totfact>
</mgrwt>
</event>
<event>
 4    1  0.7691552E-001  0.3262666E+03  0.7546771E-02  0.1072801E+00
         -2   -1    0    0    0  501 -0.00000000000E+00  0.00000000000E+00  0.17215141755E+03  0.17215141755E+03  0.00000000000E+00 0. -1.
          2   -1    0    0  502    0  0.00000000000E+00 -0.00000000000E+00 -0.63128655872E+03  0.63128655872E+03  0.00000000000E+00 0.  1.
          6    1    1    2  502    0  0.80959536120E+02  0.26451165497E+03 -0.17206129420E+03  0.36885627427E+03  0.17300000000E+03 0.  1.
         -6    1    1    2    0  501 -0.80959536120E+02 -0.26451165497E+03 -0.28707384697E+03  0.43458170201E+03  0.17300000000E+03 0.  1.
<mgrwt>
<rscale>  2 0.32626655E+03</rscale>
<asrwt>0</asrwt>
<pdfrwt beam="2">  1        2 0.97121010E-01 0.32626655E+03</pdfrwt>
<pdfrwt beam="1">  1       -2 0.26484833E-01 0.32626655E+03</pdfrwt>
<totfact> 0.61081718E+02</totfact>
</mgrwt>
</event>
<event>
 4    1  0.7691552E-001  0.2100171E+03  0.7546771E-02  0.1141552E+00
         -2   -1    0    0    0  501 -0.00000000000E+00  0.00000000000E+00  0.90625116698E+02  0.90625116698E+02  0.00000000000E+00 0. -1.
          2   -1    0    0  502    0  0.00000000000E+00 -0.00000000000E+00 -0.62542200873E+03  0.62542200873E+03  0.00000000000E+00 0.  1.
          6    1    1    2  502    0 -0.64322447539E+02 -0.10020387617E+03 -0.43601436821E+03  0.48395839009E+03  0.17300000000E+03 0.  1.
         -6    1    1    2    0  501  0.64322447539E+02  0.10020387617E+03 -0.98782523826E+02  0.23208873534E+03  0.17300000000E+03 0. -1.
<mgrwt>
<rscale>  2 0.21001713E+03</rscale>
<asrwt>0</asrwt>
<pdfrwt beam="2">  1        2 0.96218766E-01 0.21001713E+03</pdfrwt>
<pdfrwt beam="1">  1       -2 0.13942326E-01 0.21001713E+03</pdfrwt>
<totfact> 0.18478066E+03</totfact>
</mgrwt>
</event>
<event>
 4    1  0.7691552E-001  0.1831667E+03  0.7546771E-02  0.1164773E+00
          2   -1    0    0  502    0  0.00000000000E+00  0.00000000000E+00  0.20368389318E+04  0.20368389318E+04  0.00000000000E+00 0. -1.
         -2   -1    0    0    0  501 -0.00000000000E+00 -0.00000000000E+00 -0.18599195024E+02  0.18599195024E+02  0.00000000000E+00 0.  1.
          6    1    1    2  502    0  0.37950585748E+02 -0.46699036441E+02  0.13567114703E+04  0.13690201097E+04  0.17300000000E+03 0. -1.
         -6    1    1    2    0  501 -0.37950585748E+02  0.46699036441E+02  0.66152826645E+03  0.68641801715E+03  0.17300000000E+03 0.  1.
<mgrwt>
<rscale>  2 0.18316672E+03</rscale>
<asrwt>0</asrwt>
<pdfrwt beam="1">  1        2 0.31335966E+00 0.18316672E+03</pdfrwt>
<pdfrwt beam="2">  1       -2 0.28614162E-02 0.18316672E+03</pdfrwt>
<totfact> 0.32329932E+03</totfact>
</mgrwt>
</event>
<event>
 4    1  0.7691552E-001  0.1854235E+03  0.7546771E-02  0.1162655E+00
          2   -1    0    0  502    0  0.00000000000E+00  0.00000000000E+00  0.24063102991E+02  0.24063102991E+02  0.00000000000E+00 0.  1.
         -2   -1    0    0    0  501 -0.00000000000E+00 -0.00000000000E+00 -0.14293372717E+04  0.14293372717E+04  0.00000000000E+00 0. -1.
          6    1    1    2  502    0 -0.43159404029E+02 -0.50893422678E+02 -0.71644383830E+03  0.74004976053E+03  0.17300000000E+03 0.  1.
         -6    1    1    2    0  501  0.43159404029E+02  0.50893422678E+02 -0.68883033040E+03  0.71335061415E+03  0.17300000000E+03 0. -1.
<mgrwt>
<rscale>  2 0.18542350E+03</rscale>
<asrwt>0</asrwt>
<pdfrwt beam="1">  1        2 0.37020153E-02 0.18542350E+03</pdfrwt>
<pdfrwt beam="2">  1       -2 0.21989807E+00 0.18542350E+03</pdfrwt>
<totfact> 0.25419438E+02</totfact>
</mgrwt>
</event>
<event>
 4    1  0.7691552E-001  0.1782041E+03  0.7546771E-02  0.1169553E+00
          2   -1    0    0  502    0  0.00000000000E+00  0.00000000000E+00  0.31422197016E+03  0.31422197016E+03  0.00000000000E+00 0.  1.
         -2   -1    0    0    0  501 -0.00000000000E+00 -0.00000000000E+00 -0.10209838186E+03  0.10209838186E+03  0.00000000000E+00 0. -1.
          6    1    1    2  502    0  0.42748153810E+02  0.54163179922E+00  0.12700850528E+03  0.21883294640E+03  0.17300000000E+03 0. -1.
         -6    1    1    2    0  501 -0.42748153810E+02 -0.54163179922E+00  0.85115083021E+02  0.19748740562E+03  0.17300000000E+03 0.  1.
<mgrwt>
<rscale>  2 0.17820409E+03</rscale>
<asrwt>0</asrwt>
<pdfrwt beam="1">  1        2 0.48341841E-01 0.17820409E+03</pdfrwt>
<pdfrwt beam="2">  1       -2 0.15707443E-01 0.17820409E+03</pdfrwt>
<totfact> 0.32274069E+03</totfact>
</mgrwt>
</event>
<event>
 4    1  0.7691552E-001  0.1799652E+03  0.7546771E-02  0.1167837E+00
          2   -1    0    0  502    0  0.00000000000E+00  0.00000000000E+00  0.63086545283E+03  0.63086545283E+03  0.00000000000E+00 0.  1.
         -2   -1    0    0    0  501 -0.00000000000E+00 -0.00000000000E+00 -0.73648595464E+02  0.73648595464E+02  0.00000000000E+00 0. -1.
          6    1    1    2  502    0  0.48890365289E+02  0.82585617968E+01  0.84729125868E+02  0.19891328873E+03  0.17300000000E+03 0. -1.
         -6    1    1    2    0  501 -0.48890365289E+02 -0.82585617968E+01  0.47248773150E+03  0.50560075957E+03  0.17300000000E+03 0.  1.
<mgrwt>
<rscale>  2 0.17996520E+03</rscale>
<asrwt>0</asrwt>
<pdfrwt beam="1">  1        2 0.97056220E-01 0.17996520E+03</pdfrwt>
<pdfrwt beam="2">  1       -2 0.11330554E-01 0.17996520E+03</pdfrwt>
<totfact> 0.25500018E+03</totfact>
</mgrwt>
</event>
<event>
 4    1  0.7691552E-001  0.1763846E+03  0.7546771E-02  0.1171349E+00
          2   -1    0    0  502    0  0.00000000000E+00  0.00000000000E+00  0.11323473844E+04  0.11323473844E+04  0.00000000000E+00 0.  1.
         -2   -1    0    0    0  501 -0.00000000000E+00 -0.00000000000E+00 -0.10603038442E+03  0.10603038442E+03  0.00000000000E+00 0. -1.
          6    1    1    2  502    0 -0.28305150357E+02  0.19528400113E+02 -0.19802267761E+02  0.17749273156E+03  0.17300000000E+03 0. -1.
         -6    1    1    2    0  501  0.28305150357E+02 -0.19528400113E+02  0.10461192677E+04  0.10608850373E+04  0.17300000000E+03 0.  1.
<mgrwt>
<rscale>  2 0.17638464E+03</rscale>
<asrwt>0</asrwt>
<pdfrwt beam="1">  1        2 0.17420728E+00 0.17638464E+03</pdfrwt>
<pdfrwt beam="2">  1       -2 0.16312368E-01 0.17638464E+03</pdfrwt>
<totfact> 0.65855370E+02</totfact>
</mgrwt>
</event>
<event>
 4    1  0.7691552E-001  0.2329542E+03  0.7546771E-02  0.1124578E+00
          2   -1    0    0  502    0  0.00000000000E+00  0.00000000000E+00  0.24017135888E+03  0.24017135888E+03  0.00000000000E+00 0.  1.
         -2   -1    0    0    0  501 -0.00000000000E+00 -0.00000000000E+00 -0.28732135258E+03  0.28732135258E+03  0.00000000000E+00 0. -1.
          6    1    1    2  502    0 -0.54287830446E+02 -0.14625838012E+03 -0.14546586359E+03  0.27464158418E+03  0.17300000000E+03 0. -1.
         -6    1    1    2    0  501  0.54287830446E+02  0.14625838012E+03  0.98315869890E+02  0.25285112727E+03  0.17300000000E+03 0.  1.
<mgrwt>
<rscale>  2 0.23295425E+03</rscale>
<asrwt>0</asrwt>
<pdfrwt beam="1">  1        2 0.36949440E-01 0.23295425E+03</pdfrwt>
<pdfrwt beam="2">  1       -2 0.44203285E-01 0.23295425E+03</pdfrwt>
<totfact> 0.68476123E+02</totfact>
</mgrwt>
</event>
<event>
 4    1  0.7691552E-001  0.5828474E+03  0.7546771E-02  0.9941645E-01
         -1   -1    0    0    0  501 -0.00000000000E+00  0.00000000000E+00  0.13276917592E+03  0.13276917592E+03  0.00000000000E+00 0.  1.
          1   -1    0    0  502    0  0.00000000000E+00 -0.00000000000E+00 -0.26768551253E+04  0.26768551253E+04  0.00000000000E+00 0. -1.
          6    1    1    2  502    0 -0.38210741943E+03  0.40469244381E+03 -0.15672368495E+04  0.16721071726E+04  0.17300000000E+03 0.  1.
         -6    1    1    2    0  501  0.38210741943E+03 -0.40469244381E+03 -0.97684909981E+03  0.11375171286E+04  0.17300000000E+03 0. -1.
<mgrwt>
<rscale>  2 0.58284737E+03</rscale>
<asrwt>0</asrwt>
<pdfrwt beam="2">  1        1 0.41182389E+00 0.58284737E+03</pdfrwt>
<pdfrwt beam="1">  1       -1 0.20426026E-01 0.58284737E+03</pdfrwt>
<totfact> 0.21726948E+01</totfact>
</mgrwt>
</event>
<event>
 4    1  0.7691552E-001  0.2129063E+03  0.7546771E-02  0.1139285E+00
         -1   -1    0    0    0  501 -0.00000000000E+00  0.00000000000E+00  0.16666395416E+03  0.16666395416E+03  0.00000000000E+00 0. -1.
          1   -1    0    0  502    0  0.00000000000E+00 -0.00000000000E+00 -0.27516551996E+03  0.27516551996E+03  0.00000000000E+00 0.  1.
          6    1    1    2  502    0 -0.10129363825E+03 -0.71691755151E+02 -0.30477970763E+02  0.21507676678E+03  0.17300000000E+03 0. -1.
         -6    1    1    2    0  501  0.10129363825E+03  0.71691755151E+02 -0.78023595034E+02  0.22675270735E+03  0.17300000000E+03 0.  1.
<mgrwt>
<rscale>  2 0.21290634E+03</rscale>
<asrwt>0</asrwt>
<pdfrwt beam="2">  1        1 0.42333157E-01 0.21290634E+03</pdfrwt>
<pdfrwt beam="1">  1       -1 0.25640608E-01 0.21290634E+03</pdfrwt>
<totfact> 0.12997243E+03</totfact>
</mgrwt>
</event>
<event>
 4    1  0.7691552E-001  0.2731091E+03  0.7546771E-02  0.1099513E+00
         -2   -1    0    0    0  501 -0.00000000000E+00  0.00000000000E+00  0.12371698473E+03  0.12371698473E+03  0.00000000000E+00 0. -1.
          2   -1    0    0  502    0  0.00000000000E+00 -0.00000000000E+00 -0.21748869837E+04  0.21748869837E+04  0.00000000000E+00 0.  1.
          6    1    1    2  502    0 -0.77182219769E+02  0.19672948464E+03 -0.48481177470E+02  0.27737881993E+03  0.17300000000E+03 0. -1.
         -6    1    1    2    0  501  0.77182219769E+02 -0.19672948464E+03 -0.20026888215E+04  0.20212251485E+04  0.17300000000E+03 0.  1.
<mgrwt>
<rscale>  2 0.27310911E+03</rscale>
<asrwt>0</asrwt>
<pdfrwt beam="2">  1        2 0.33459798E+00 0.27310911E+03</pdfrwt>
<pdfrwt beam="1">  1       -2 0.19033384E-01 0.27310911E+03</pdfrwt>
<totfact> 0.13826446E+02</totfact>
</mgrwt>
</event>
<event>
 4    1  0.7691552E-001  0.2503596E+03  0.7546771E-02  0.1113078E+00
          2   -1    0    0  502    0  0.00000000000E+00  0.00000000000E+00  0.34171216230E+03  0.34171216230E+03  0.00000000000E+00 0.  1.
         -2   -1    0    0    0  501 -0.00000000000E+00 -0.00000000000E+00 -0.18539301489E+03  0.18539301489E+03  0.00000000000E+00 0. -1.
          6    1    1    2  502    0  0.13628847038E+03 -0.11906455090E+03  0.10528614232E+03  0.27159728681E+03  0.17300000000E+03 0.  1.
         -6    1    1    2    0  501 -0.13628847038E+03  0.11906455090E+03  0.51033005084E+02  0.25550789038E+03  0.17300000000E+03 0. -1.
<mgrwt>
<rscale>  2 0.25035957E+03</rscale>
<asrwt>0</asrwt>
<pdfrwt beam="1">  1        2 0.52571102E-01 0.25035957E+03</pdfrwt>
<pdfrwt beam="2">  1       -2 0.28522002E-01 0.25035957E+03</pdfrwt>
<totfact> 0.10639834E+03</totfact>
</mgrwt>
</event>
<event>
 4    1  0.7691552E-001  0.2750688E+03  0.7546771E-02  0.1098413E+00
         -1   -1    0    0    0  501 -0.00000000000E+00  0.00000000000E+00  0.78949279738E+03  0.78949279738E+03  0.00000000000E+00 0. -1.
          1   -1    0    0  502    0  0.00000000000E+00 -0.00000000000E+00 -0.13589807121E+04  0.13589807121E+04  0.00000000000E+00 0.  1.
          6    1    1    2  502    0 -0.14120618007E+03  0.16060707935E+03  0.75092199804E+03  0.79971661629E+03  0.17300000000E+03 0. -1.
         -6    1    1    2    0  501  0.14120618007E+03 -0.16060707935E+03 -0.13204099128E+04  0.13487568932E+04  0.17300000000E+03 0.  1.
<mgrwt>
<rscale>  2 0.27506875E+03</rscale>
<asrwt>0</asrwt>
<pdfrwt beam="2">  1        1 0.20907396E+00 0.27506875E+03</pdfrwt>
<pdfrwt beam="1">  1       -1 0.12146043E+00 0.27506875E+03</pdfrwt>
<totfact> 0.58236608E+00</totfact>
</mgrwt>
</event>
<event>
 4    1  0.7691552E-001  0.2065426E+03  0.7546771E-02  0.1144334E+00
         -2   -1    0    0    0  501 -0.00000000000E+00  0.00000000000E+00  0.14087735270E+03  0.14087735270E+03  0.00000000000E+00 0. -1.
          2   -1    0    0  502    0  0.00000000000E+00 -0.00000000000E+00 -0.35463381311E+03  0.35463381311E+03  0.00000000000E+00 0.  1.
          6    1    1    2  502    0  0.73500621475E+02 -0.85606634753E+02 -0.20158374601E+03  0.28861019373E+03  0.17300000000E+03 0.  1.
         -6    1    1    2    0  501 -0.73500621475E+02  0.85606634753E+02 -0.12172714403E+02  0.20690097208E+03  0.17300000000E+03 0. -1.
<mgrwt>
<rscale>  2 0.20654258E+03</rscale>
<asrwt>0</asrwt>
<pdfrwt beam="2">  1        2 0.54559048E-01 0.20654258E+03</pdfrwt>
<pdfrwt beam="1">  1       -2 0.21673439E-01 0.20654258E+03</pdfrwt>
<totfact> 0.16538728E+03</totfact>
</mgrwt>
</event>
<event>
 4    1  0.7691552E-001  0.2102256E+03  0.7546771E-02  0.1141387E+00
          3   -1    0    0  502    0  0.00000000000E+00  0.00000000000E+00  0.30684186317E+03  0.30684186317E+03  0.00000000000E+00 0. -1.
         -3   -1    0    0    0  501 -0.00000000000E+00 -0.00000000000E+00 -0.14602719258E+03  0.14602719258E+03  0.00000000000E+00 0.  1.
          6    1    1    2  502    0  0.11942404444E+03  0.19250353637E+01  0.53934346279E+02  0.21703391869E+03  0.17300000000E+03 0.  1.
         -6    1    1    2    0  501 -0.11942404444E+03 -0.19250353637E+01  0.10688032431E+03  0.23583513707E+03  0.17300000000E+03 0. -1.
<mgrwt>
<rscale>  2 0.21022561E+03</rscale>
<asrwt>0</asrwt>
<pdfrwt beam="1">  1        3 0.47206440E-01 0.21022561E+03</pdfrwt>
<pdfrwt beam="2">  1       -3 0.22465722E-01 0.21022561E+03</pdfrwt>
<totfact> 0.20067112E+02</totfact>
</mgrwt>
</event>
<event>
 4    1  0.7691552E-001  0.1980381E+03  0.7546771E-02  0.1151405E+00
         -1   -1    0    0    0  501 -0.00000000000E+00  0.00000000000E+00  0.33683352760E+02  0.33683352760E+02  0.00000000000E+00 0.  1.
          1   -1    0    0  502    0  0.00000000000E+00 -0.00000000000E+00 -0.12836334333E+04  0.12836334333E+04  0.00000000000E+00 0. -1.
          6    1    1    2  502    0 -0.28430325852E+02 -0.92096622910E+02 -0.82576286458E+03  0.84917806136E+03  0.17300000000E+03 0. -1.
         -6    1    1    2    0  501  0.28430325852E+02  0.92096622910E+02 -0.42418721598E+03  0.46813872472E+03  0.17300000000E+03 0.  1.
<mgrwt>
<rscale>  2 0.19803806E+03</rscale>
<asrwt>0</asrwt>
<pdfrwt beam="2">  1        1 0.19748207E+00 0.19803806E+03</pdfrwt>
<pdfrwt beam="1">  1       -1 0.51820543E-02 0.19803806E+03</pdfrwt>
<totfact> 0.16710886E+03</totfact>
</mgrwt>
</event>
<event>
 4    1  0.7691552E-001  0.3090935E+03  0.7546771E-02  0.1080781E+00
         -2   -1    0    0    0  501 -0.00000000000E+00  0.00000000000E+00  0.48923160292E+02  0.48923160292E+02  0.00000000000E+00 0. -1.
          2   -1    0    0  502    0  0.00000000000E+00 -0.00000000000E+00 -0.19926516106E+04  0.19926516106E+04  0.00000000000E+00 0.  1.
          6    1    1    2  502    0 -0.20553490910E+03 -0.15285687248E+03 -0.11161607662E+04  0.11581682427E+04  0.17300000000E+03 0. -1.
         -6    1    1    2    0  501  0.20553490910E+03  0.15285687248E+03 -0.82756768406E+03  0.88340652818E+03  0.17300000000E+03 0.  1.
<mgrwt>
<rscale>  2 0.30909355E+03</rscale>
<asrwt>0</asrwt>
<pdfrwt beam="2">  1        2 0.30656182E+00 0.30909355E+03</pdfrwt>
<pdfrwt beam="1">  1       -2 0.75266393E-02 0.30909355E+03</pdfrwt>
<totfact> 0.77661604E+02</totfact>
</mgrwt>
</event>
<event>
 4    1  0.7691552E-001  0.2080666E+03  0.7546771E-02  0.1143106E+00
         -1   -1    0    0    0  501 -0.00000000000E+00  0.00000000000E+00  0.36375099478E+03  0.36375099478E+03  0.00000000000E+00 0. -1.
          1   -1    0    0  502    0  0.00000000000E+00 -0.00000000000E+00 -0.14665917067E+03  0.14665917067E+03  0.00000000000E+00 0.  1.
          6    1    1    2  502    0  0.73558455371E+02 -0.89173160938E+02 -0.22539458588E+01  0.20807878138E+03  0.17300000000E+03 0. -1.
         -6    1    1    2    0  501 -0.73558455371E+02  0.89173160938E+02  0.21934576997E+03  0.30233138407E+03  0.17300000000E+03 0. -1.
<mgrwt>
<rscale>  2 0.20806657E+03</rscale>
<asrwt>0</asrwt>
<pdfrwt beam="2">  1        1 0.22562950E-01 0.20806657E+03</pdfrwt>
<pdfrwt beam="1">  1       -1 0.55961691E-01 0.20806657E+03</pdfrwt>
<totfact> 0.72573386E+02</totfact>
</mgrwt>
</event>
<event>
 4    1  0.7691552E-001  0.1755966E+03  0.7546771E-02  0.1172134E+00
          2   -1    0    0  502    0  0.00000000000E+00  0.00000000000E+00  0.14666149910E+03  0.14666149910E+03  0.00000000000E+00 0. -1.
         -2   -1    0    0    0  501 -0.00000000000E+00 -0.00000000000E+00 -0.22526638921E+03  0.22526638921E+03  0.00000000000E+00 0.  1.
          6    1    1    2  502    0  0.52928599525E+01  0.29616586007E+02  0.87265647849E+01  0.17581328012E+03  0.17300000000E+03 0. -1.
         -6    1    1    2    0  501 -0.52928599525E+01 -0.29616586007E+02 -0.87331454894E+02  0.19611460819E+03  0.17300000000E+03 0. -1.
<mgrwt>
<rscale>  2 0.17559657E+03</rscale>
<asrwt>0</asrwt>
<pdfrwt beam="1">  1        2 0.22563308E-01 0.17559657E+03</pdfrwt>
<pdfrwt beam="2">  1       -2 0.34656368E-01 0.17559657E+03</pdfrwt>
<totfact> 0.18596155E+03</totfact>
</mgrwt>
</event>
<event>
 4    1  0.7691552E-001  0.1731022E+03  0.7546771E-02  0.1174651E+00
         -2   -1    0    0    0  501 -0.00000000000E+00  0.00000000000E+00  0.48515346401E+03  0.48515346401E+03  0.00000000000E+00 0.  1.
          2   -1    0    0  502    0  0.00000000000E+00 -0.00000000000E+00 -0.63447449038E+02  0.63447449038E+02  0.00000000000E+00 0. -1.
          6    1    1    2  502    0  0.59329750773E+01  0.40931091926E+00  0.25555145117E+03  0.30865986445E+03  0.17300000000E+03 0. -1.
         -6    1    1    2    0  501 -0.59329750773E+01 -0.40931091926E+00  0.16615456380E+03  0.23994104859E+03  0.17300000000E+03 0. -1.
<mgrwt>
<rscale>  2 0.17310219E+03</rscale>
<asrwt>0</asrwt>
<pdfrwt beam="2">  1        2 0.97611463E-02 0.17310219E+03</pdfrwt>
<pdfrwt beam="1">  1       -2 0.74638992E-01 0.17310219E+03</pdfrwt>
<totfact> 0.10789176E+03</totfact>
</mgrwt>
</event>
<event>
 4    1  0.7691552E-001  0.2530639E+03  0.7546771E-02  0.1111384E+00
         -1   -1    0    0    0  501 -0.00000000000E+00  0.00000000000E+00  0.39913197040E+03  0.39913197040E+03  0.00000000000E+00 0.  1.
          1   -1    0    0  502    0  0.00000000000E+00 -0.00000000000E+00 -0.19247424247E+03  0.19247424247E+03  0.00000000000E+00 0. -1.
          6    1    1    2  502    0 -0.62975708717E+01  0.18458779655E+03 -0.17326279578E+02  0.25365629106E+03  0.17300000000E+03 0. -1.
         -6    1    1    2    0  501  0.62975708717E+01 -0.18458779655E+03  0.22398400751E+03  0.33794992181E+03  0.17300000000E+03 0. -1.
<mgrwt>
<rscale>  2 0.25306385E+03</rscale>
<asrwt>0</asrwt>
<pdfrwt beam="2">  1        1 0.29611422E-01 0.25306385E+03</pdfrwt>
<pdfrwt beam="1">  1       -1 0.61404919E-01 0.25306385E+03</pdfrwt>
<totfact> 0.43000206E+02</totfact>
</mgrwt>
</event>
<event>
 4    1  0.7691552E-001  0.2329282E+03  0.7546771E-02  0.1124596E+00
         -1   -1    0    0    0  501 -0.00000000000E+00  0.00000000000E+00  0.67683134645E+02  0.67683134645E+02  0.00000000000E+00 0.  1.
          1   -1    0    0  502    0  0.00000000000E+00 -0.00000000000E+00 -0.12422026437E+04  0.12422026437E+04  0.00000000000E+00 0. -1.
          6    1    1    2  502    0  0.15508940488E+03  0.16547038739E+02 -0.19720510395E+03  0.30519728213E+03  0.17300000000E+03 0.  1.
         -6    1    1    2    0  501 -0.15508940488E+03 -0.16547038739E+02 -0.97731440512E+03  0.10046884962E+04  0.17300000000E+03 0. -1.
<mgrwt>
<rscale>  2 0.23292816E+03</rscale>
<asrwt>0</asrwt>
<pdfrwt beam="2">  1        1 0.19110810E+00 0.23292816E+03</pdfrwt>
<pdfrwt beam="1">  1       -1 0.10412790E-01 0.23292816E+03</pdfrwt>
<totfact> 0.61618560E+02</totfact>
</mgrwt>
</event>
<event>
 4    1  0.7691552E-001  0.2219429E+03  0.7546771E-02  0.1132443E+00
         -2   -1    0    0    0  501 -0.00000000000E+00  0.00000000000E+00  0.93027180111E+02  0.93027180111E+02  0.00000000000E+00 0.  1.
          2   -1    0    0  502    0  0.00000000000E+00 -0.00000000000E+00 -0.57296349843E+03  0.57296349843E+03  0.00000000000E+00 0. -1.
          6    1    1    2  502    0 -0.11599032476E+03 -0.76654333855E+02 -0.14826237910E+03  0.26690892715E+03  0.17300000000E+03 0.  1.
         -6    1    1    2    0  501  0.11599032476E+03  0.76654333855E+02 -0.33167393922E+03  0.39908175139E+03  0.17300000000E+03 0. -1.
<mgrwt>
<rscale>  2 0.22194288E+03</rscale>
<asrwt>0</asrwt>
<pdfrwt beam="2">  1        2 0.88148229E-01 0.22194288E+03</pdfrwt>
<pdfrwt beam="1">  1       -2 0.14311874E-01 0.22194288E+03</pdfrwt>
<totfact> 0.19611215E+03</totfact>
</mgrwt>
</event>
<event>
 4    1  0.7691552E-001  0.2145425E+03  0.7546771E-02  0.1138018E+00
         -1   -1    0    0    0  501 -0.00000000000E+00  0.00000000000E+00  0.46466974010E+03  0.46466974010E+03  0.00000000000E+00 0.  1.
          1   -1    0    0  502    0  0.00000000000E+00 -0.00000000000E+00 -0.11118054922E+03  0.11118054922E+03  0.00000000000E+00 0. -1.
          6    1    1    2  502    0  0.44376714369E+02  0.11887056456E+03  0.27182502195E+03  0.34629084085E+03  0.17300000000E+03 0. -1.
         -6    1    1    2    0  501 -0.44376714369E+02 -0.11887056456E+03  0.81664168929E+02  0.22955944847E+03  0.17300000000E+03 0.  1.
<mgrwt>
<rscale>  2 0.21454255E+03</rscale>
<asrwt>0</asrwt>
<pdfrwt beam="2">  1        1 0.17104700E-01 0.21454255E+03</pdfrwt>
<pdfrwt beam="1">  1       -1 0.71487651E-01 0.21454255E+03</pdfrwt>
<totfact> 0.64421205E+02</totfact>
</mgrwt>
</event>
<event>
 4    1  0.7691552E-001  0.1745863E+03  0.7546771E-02  0.1173148E+00
          1   -1    0    0  502    0  0.00000000000E+00  0.00000000000E+00  0.16534602437E+03  0.16534602437E+03  0.00000000000E+00 0. -1.
         -1   -1    0    0    0  501 -0.00000000000E+00 -0.00000000000E+00 -0.20256527625E+03  0.20256527625E+03  0.00000000000E+00 0.  1.
          6    1    1    2  502    0 -0.21605101912E+02  0.91983477717E+01  0.36563981226E+02  0.17837408655E+03  0.17300000000E+03 0. -1.
         -6    1    1    2    0  501  0.21605101912E+02 -0.91983477717E+01 -0.73783233107E+02  0.18953721407E+03  0.17300000000E+03 0.  1.
<mgrwt>
<rscale>  2 0.17458634E+03</rscale>
<asrwt>0</asrwt>
<pdfrwt beam="1">  1        1 0.25437850E-01 0.17458634E+03</pdfrwt>
<pdfrwt beam="2">  1       -1 0.31163889E-01 0.17458634E+03</pdfrwt>
<totfact> 0.17655332E+03</totfact>
</mgrwt>
</event>
<event>
 4    1  0.7691552E-001  0.4777380E+03  0.7546771E-02  0.1019759E+00
         -1   -1    0    0    0  501 -0.00000000000E+00  0.00000000000E+00  0.42422101583E+03  0.42422101583E+03  0.00000000000E+00 0.  1.
          1   -1    0    0  502    0  0.00000000000E+00 -0.00000000000E+00 -0.59009482271E+03  0.59009482271E+03  0.00000000000E+00 0. -1.
          6    1    1    2  502    0  0.20151812996E+02  0.44485783255E+03  0.67742278752E+02  0.48251694590E+03  0.17300000000E+03 0.  1.
         -6    1    1    2    0  501 -0.20151812996E+02 -0.44485783255E+03 -0.23361608564E+03  0.53179889264E+03  0.17300000000E+03 0. -1.
<mgrwt>
<rscale>  2 0.47773799E+03</rscale>
<asrwt>0</asrwt>
<pdfrwt beam="2">  1        1 0.90783819E-01 0.47773799E+03</pdfrwt>
<pdfrwt beam="1">  1       -1 0.65264772E-01 0.47773799E+03</pdfrwt>
<totfact> 0.87212471E+01</totfact>
</mgrwt>
</event>
<event>
 4    1  0.7691552E-001  0.1933291E+03  0.7546771E-02  0.1155492E+00
         -1   -1    0    0    0  501 -0.00000000000E+00  0.00000000000E+00  0.48489839797E+03  0.48489839797E+03  0.00000000000E+00 0. -1.
          1   -1    0    0  502    0  0.00000000000E+00 -0.00000000000E+00 -0.77142639946E+02  0.77142639946E+02  0.00000000000E+00 0.  1.
          6    1    1    2  502    0  0.83562147056E+02 -0.21552738336E+02  0.21186138952E+03  0.28681248459E+03  0.17300000000E+03 0. -1.
         -6    1    1    2    0  501 -0.83562147056E+02  0.21552738336E+02  0.19589436850E+03  0.27522855332E+03  0.17300000000E+03 0. -1.
<mgrwt>
<rscale>  2 0.19332913E+03</rscale>
<asrwt>0</asrwt>
<pdfrwt beam="2">  1        1 0.11868099E-01 0.19332913E+03</pdfrwt>
<pdfrwt beam="1">  1       -1 0.74599752E-01 0.19332913E+03</pdfrwt>
<totfact> 0.95432462E+02</totfact>
</mgrwt>
</event>
<event>
 4    1  0.7691552E-001  0.1843717E+03  0.7546771E-02  0.1163638E+00
         -2   -1    0    0    0  501 -0.00000000000E+00  0.00000000000E+00  0.11858813431E+02  0.11858813431E+02  0.00000000000E+00 0.  1.
          2   -1    0    0  502    0  0.00000000000E+00 -0.00000000000E+00 -0.30285719855E+04  0.30285719855E+04  0.00000000000E+00 0. -1.
          6    1    1    2  502    0 -0.59640281936E+02 -0.22515920152E+02 -0.18600633239E+04  0.18691785626E+04  0.17300000000E+03 0. -1.
         -6    1    1    2    0  501  0.59640281936E+02  0.22515920152E+02 -0.11566498482E+04  0.11712522363E+04  0.17300000000E+03 0.  1.
<mgrwt>
<rscale>  2 0.18437172E+03</rscale>
<asrwt>0</asrwt>
<pdfrwt beam="2">  1        2 0.46593409E+00 0.18437172E+03</pdfrwt>
<pdfrwt beam="1">  1       -2 0.18244331E-02 0.18437172E+03</pdfrwt>
<totfact> 0.17982226E+03</totfact>
</mgrwt>
</event>
<event>
 4    1  0.7691552E-001  0.2368694E+03  0.7546771E-02  0.1121896E+00
         -2   -1    0    0    0  501 -0.00000000000E+00  0.00000000000E+00  0.47333835711E+02  0.47333835711E+02  0.00000000000E+00 0. -1.
          2   -1    0    0  502    0  0.00000000000E+00 -0.00000000000E+00 -0.13184590087E+04  0.13184590087E+04  0.00000000000E+00 0.  1.
          6    1    1    2  502    0 -0.16159857485E+03 -0.80013519648E+01 -0.85254606319E+03  0.88484004819E+03  0.17300000000E+03 0.  1.
         -6    1    1    2    0  501  0.16159857485E+03  0.80013519648E+01 -0.41857910980E+03  0.48095279622E+03  0.17300000000E+03 0. -1.
<mgrwt>
<rscale>  2 0.23686942E+03</rscale>
<asrwt>0</asrwt>
<pdfrwt beam="2">  1        2 0.20283988E+00 0.23686942E+03</pdfrwt>
<pdfrwt beam="1">  1       -2 0.72821273E-02 0.23686942E+03</pdfrwt>
<totfact> 0.18787231E+03</totfact>
</mgrwt>
</event>
<event>
 4    1  0.7691552E-001  0.1933826E+03  0.7546771E-02  0.1155445E+00
          1   -1    0    0  502    0  0.00000000000E+00  0.00000000000E+00  0.43299642446E+03  0.43299642446E+03  0.00000000000E+00 0. -1.
         -1   -1    0    0    0  501 -0.00000000000E+00 -0.00000000000E+00 -0.87964168119E+02  0.87964168119E+02  0.00000000000E+00 0.  1.
          6    1    1    2  502    0 -0.17054835058E+02 -0.84716850192E+02  0.20761000700E+03  0.28372297600E+03  0.17300000000E+03 0. -1.
         -6    1    1    2    0  501  0.17054835058E+02  0.84716850192E+02  0.13742224935E+03  0.23723761658E+03  0.17300000000E+03 0.  1.
<mgrwt>
<rscale>  2 0.19338255E+03</rscale>
<asrwt>0</asrwt>
<pdfrwt beam="1">  1        1 0.66614833E-01 0.19338255E+03</pdfrwt>
<pdfrwt beam="2">  1       -1 0.13532949E-01 0.19338255E+03</pdfrwt>
<totfact> 0.20495129E+03</totfact>
</mgrwt>
</event>
<event>
 4    1  0.7691552E-001  0.2201173E+03  0.7546771E-02  0.1133796E+00
         -3   -1    0    0    0  501 -0.00000000000E+00  0.00000000000E+00  0.70564368869E+02  0.70564368869E+02  0.00000000000E+00 0. -1.
          3   -1    0    0  502    0  0.00000000000E+00 -0.00000000000E+00 -0.69682647560E+03  0.69682647560E+03  0.00000000000E+00 0.  1.
          6    1    1    2  502    0  0.95820476117E+02 -0.96649239004E+02 -0.26671786999E+03  0.34581795965E+03  0.17300000000E+03 0. -1.
         -6    1    1    2    0  501 -0.95820476117E+02  0.96649239004E+02 -0.35954423674E+03  0.42157288482E+03  0.17300000000E+03 0.  1.
<mgrwt>
<rscale>  2 0.22011733E+03</rscale>
<asrwt>0</asrwt>
<pdfrwt beam="2">  1        3 0.10720407E+00 0.22011733E+03</pdfrwt>
<pdfrwt beam="1">  1       -3 0.10856057E-01 0.22011733E+03</pdfrwt>
<totfact> 0.12237285E+02</totfact>
</mgrwt>
</event>
<event>
 4    1  0.7691552E-001  0.1934856E+03  0.7546771E-02  0.1155355E+00
         -1   -1    0    0    0  501 -0.00000000000E+00  0.00000000000E+00  0.19378544993E+02  0.19378544993E+02  0.00000000000E+00 0. -1.
          1   -1    0    0  502    0  0.00000000000E+00 -0.00000000000E+00 -0.20777893035E+04  0.20777893035E+04  0.00000000000E+00 0.  1.
          6    1    1    2  502    0 -0.86395160430E+02 -0.66002154952E+01 -0.13070933880E+04  0.13213363734E+04  0.17300000000E+03 0.  1.
         -6    1    1    2    0  501  0.86395160430E+02  0.66002154952E+01 -0.75131737046E+03  0.77583147509E+03  0.17300000000E+03 0. -1.
<mgrwt>
<rscale>  2 0.19348562E+03</rscale>
<asrwt>0</asrwt>
<pdfrwt beam="2">  1        1 0.31965974E+00 0.19348562E+03</pdfrwt>
<pdfrwt beam="1">  1       -1 0.29813161E-02 0.19348562E+03</pdfrwt>
<totfact> 0.11508085E+03</totfact>
</mgrwt>
</event>
<event>
 4    1  0.7691552E-001  0.3040965E+03  0.7546771E-02  0.1083211E+00
         -2   -1    0    0    0  501 -0.00000000000E+00  0.00000000000E+00  0.33930560122E+03  0.33930560122E+03  0.00000000000E+00 0.  1.
          2   -1    0    0  502    0  0.00000000000E+00 -0.00000000000E+00 -0.27262852043E+03  0.27262852043E+03  0.00000000000E+00 0. -1.
          6    1    1    2  502    0 -0.22967795846E+03 -0.98963074336E+02  0.27853419288E+02  0.30536939540E+03  0.17300000000E+03 0. -1.
         -6    1    1    2    0  501  0.22967795846E+03  0.98963074336E+02  0.38823661501E+02  0.30656472624E+03  0.17300000000E+03 0.  1.
<mgrwt>
<rscale>  2 0.30409646E+03</rscale>
<asrwt>0</asrwt>
<pdfrwt beam="2">  1        2 0.41942849E-01 0.30409646E+03</pdfrwt>
<pdfrwt beam="1">  1       -2 0.52200862E-01 0.30409646E+03</pdfrwt>
<totfact> 0.42910776E+02</totfact>
</mgrwt>
</event>
<event>
 4    1  0.7691552E-001  0.1732532E+03  0.7546771E-02  0.1174497E+00
          1   -1    0    0  502    0  0.00000000000E+00  0.00000000000E+00  0.28634977217E+03  0.28634977217E+03  0.00000000000E+00 0.  1.
         -1   -1    0    0    0  501 -0.00000000000E+00 -0.00000000000E+00 -0.11916835306E+03  0.11916835306E+03  0.00000000000E+00 0. -1.
          6    1    1    2  502    0  0.69653744877E+01  0.62586800850E+01  0.13247641008E+02  0.17375899260E+03  0.17300000000E+03 0. -1.
         -6    1    1    2    0  501 -0.69653744877E+01 -0.62586800850E+01  0.15393377810E+03  0.23175913263E+03  0.17300000000E+03 0.  1.
<mgrwt>
<rscale>  2 0.17325325E+03</rscale>
<asrwt>0</asrwt>
<pdfrwt beam="1">  1        1 0.44053811E-01 0.17325325E+03</pdfrwt>
<pdfrwt beam="2">  1       -1 0.18333593E-01 0.17325325E+03</pdfrwt>
<totfact> 0.21278189E+03</totfact>
</mgrwt>
</event>
<event>
 4    1  0.7691552E-001  0.1762316E+03  0.7546771E-02  0.1171501E+00
         -1   -1    0    0    0  501 -0.00000000000E+00  0.00000000000E+00  0.27554988173E+03  0.27554988173E+03  0.00000000000E+00 0. -1.
          1   -1    0    0  502    0  0.00000000000E+00 -0.00000000000E+00 -0.14246752787E+03  0.14246752787E+03  0.00000000000E+00 0.  1.
          6    1    1    2  502    0  0.83806459222E+01 -0.32532282096E+02 -0.28979059424E+02  0.17859834963E+03  0.17300000000E+03 0.  1.
         -6    1    1    2    0  501 -0.83806459222E+01  0.32532282096E+02  0.16206141328E+03  0.23941905998E+03  0.17300000000E+03 0. -1.
<mgrwt>
<rscale>  2 0.17623162E+03</rscale>
<asrwt>0</asrwt>
<pdfrwt beam="2">  1        1 0.21918081E-01 0.17623162E+03</pdfrwt>
<pdfrwt beam="1">  1       -1 0.42392290E-01 0.17623162E+03</pdfrwt>
<totfact> 0.12495878E+03</totfact>
</mgrwt>
</event>
<event>
 4    1  0.7691552E-001  0.1925033E+03  0.7546771E-02  0.1156223E+00
          2   -1    0    0  502    0  0.00000000000E+00  0.00000000000E+00  0.99360402761E+03  0.99360402761E+03  0.00000000000E+00 0. -1.
         -2   -1    0    0    0  501 -0.00000000000E+00 -0.00000000000E+00 -0.40194872240E+02  0.40194872240E+02  0.00000000000E+00 0.  1.
          6    1    1    2  502    0 -0.74532700005E+02 -0.39666107116E+02  0.61551759177E+03  0.64491815698E+03  0.17300000000E+03 0. -1.
         -6    1    1    2    0  501  0.74532700005E+02  0.39666107116E+02  0.33789156361E+03  0.38888074288E+03  0.17300000000E+03 0.  1.
<mgrwt>
<rscale>  2 0.19250331E+03</rscale>
<asrwt>0</asrwt>
<pdfrwt beam="1">  1        2 0.15286214E+00 0.19250331E+03</pdfrwt>
<pdfrwt beam="2">  1       -2 0.61838273E-02 0.19250331E+03</pdfrwt>
<totfact> 0.37079708E+03</totfact>
</mgrwt>
</event>
<event>
 4    1  0.7691552E-001  0.1745807E+03  0.7546771E-02  0.1173153E+00
         -1   -1    0    0    0  501 -0.00000000000E+00  0.00000000000E+00  0.70516885867E+03  0.70516885867E+03  0.00000000000E+00 0.  1.
          1   -1    0    0  502    0  0.00000000000E+00 -0.00000000000E+00 -0.50080435783E+02  0.50080435783E+02  0.00000000000E+00 0. -1.
          6    1    1    2  502    0  0.22617198680E+02 -0.61554954575E+01  0.18779289439E+03  0.25640709620E+03  0.17300000000E+03 0. -1.
         -6    1    1    2    0  501 -0.22617198680E+02  0.61554954575E+01  0.46729552850E+03  0.49884219825E+03  0.17300000000E+03 0.  1.
<mgrwt>
<rscale>  2 0.17458072E+03</rscale>
<asrwt>0</asrwt>
<pdfrwt beam="2">  1        1 0.77046830E-02 0.17458072E+03</pdfrwt>
<pdfrwt beam="1">  1       -1 0.10848751E+00 0.17458072E+03</pdfrwt>
<totfact> 0.76212023E+02</totfact>
</mgrwt>
</event>
<event>
 4    1  0.7691552E-001  0.1869022E+03  0.7546771E-02  0.1161285E+00
          1   -1    0    0  502    0  0.00000000000E+00  0.00000000000E+00  0.25753855791E+03  0.25753855791E+03  0.00000000000E+00 0.  1.
         -1   -1    0    0    0  501 -0.00000000000E+00 -0.00000000000E+00 -0.14539114219E+03  0.14539114219E+03  0.00000000000E+00 0. -1.
          6    1    1    2  502    0  0.70478736320E+02 -0.60148585750E+01  0.10824920944E+03  0.21598685641E+03  0.17300000000E+03 0.  1.
         -6    1    1    2    0  501 -0.70478736320E+02  0.60148585750E+01  0.38982062829E+01  0.18694284370E+03  0.17300000000E+03 0. -1.
<mgrwt>
<rscale>  2 0.18690220E+03</rscale>
<asrwt>0</asrwt>
<pdfrwt beam="1">  1        1 0.39621316E-01 0.18690220E+03</pdfrwt>
<pdfrwt beam="2">  1       -1 0.22367868E-01 0.18690220E+03</pdfrwt>
<totfact> 0.17638367E+03</totfact>
</mgrwt>
</event>
<event>
 4    1  0.7691552E-001  0.2169484E+03  0.7546771E-02  0.1136179E+00
          3   -1    0    0  502    0  0.00000000000E+00  0.00000000000E+00  0.42924061411E+03  0.42924061411E+03  0.00000000000E+00 0. -1.
         -3   -1    0    0    0  501 -0.00000000000E+00 -0.00000000000E+00 -0.10972950300E+03  0.10972950300E+03  0.00000000000E+00 0.  1.
          6    1    1    2  502    0 -0.50400017634E+02 -0.12081986448E+03  0.15254099647E+03  0.26520813908E+03  0.17300000000E+03 0.  1.
         -6    1    1    2    0  501  0.50400017634E+02  0.12081986448E+03  0.16697011464E+03  0.27376197803E+03  0.17300000000E+03 0. -1.
<mgrwt>
<rscale>  2 0.21694838E+03</rscale>
<asrwt>0</asrwt>
<pdfrwt beam="1">  1        3 0.66037017E-01 0.21694838E+03</pdfrwt>
<pdfrwt beam="2">  1       -3 0.16881462E-01 0.21694838E+03</pdfrwt>
<totfact> 0.16778417E+02</totfact>
</mgrwt>
</event>
<event>
 4    1  0.7691552E-001  0.1886312E+03  0.7546771E-02  0.1159702E+00
          1   -1    0    0  502    0  0.00000000000E+00  0.00000000000E+00  0.28230773144E+03  0.28230773144E+03  0.00000000000E+00 0. -1.
         -1   -1    0    0    0  501 -0.00000000000E+00 -0.00000000000E+00 -0.12701136304E+03  0.12701136304E+03  0.00000000000E+00 0.  1.
          6    1    1    2  502    0 -0.44172782052E+02  0.60839885025E+02  0.95557158830E+02  0.21145424301E+03  0.17300000000E+03 0. -1.
         -6    1    1    2    0  501  0.44172782052E+02 -0.60839885025E+02  0.59739209574E+02  0.19786485146E+03  0.17300000000E+03 0.  1.
<mgrwt>
<rscale>  2 0.18863119E+03</rscale>
<asrwt>0</asrwt>
<pdfrwt beam="1">  1        1 0.43431958E-01 0.18863119E+03</pdfrwt>
<pdfrwt beam="2">  1       -1 0.19540210E-01 0.18863119E+03</pdfrwt>
<totfact> 0.19598347E+03</totfact>
</mgrwt>
</event>
<event>
 4    1  0.7691552E-001  0.2157744E+03  0.7546771E-02  0.1137073E+00
          1   -1    0    0  502    0  0.00000000000E+00  0.00000000000E+00  0.17442421121E+04  0.17442421121E+04  0.00000000000E+00 0. -1.
         -1   -1    0    0    0  501 -0.00000000000E+00 -0.00000000000E+00 -0.45927727393E+02  0.45927727393E+02  0.00000000000E+00 0.  1.
          6    1    1    2  502    0  0.75753590403E+02  0.10435979128E+03  0.14284163401E+04  0.14446216851E+04  0.17300000000E+03 0. -1.
         -6    1    1    2    0  501 -0.75753590403E+02 -0.10435979128E+03  0.26989804458E+03  0.34554815433E+03  0.17300000000E+03 0.  1.
<mgrwt>
<rscale>  2 0.21577436E+03</rscale>
<asrwt>0</asrwt>
<pdfrwt beam="1">  1        1 0.26834489E+00 0.21577436E+03</pdfrwt>
<pdfrwt beam="2">  1       -1 0.70658056E-02 0.21577436E+03</pdfrwt>
<totfact> 0.51991746E+02</totfact>
</mgrwt>
</event>
<event>
 4    1  0.7691552E-001  0.1822751E+03  0.7546771E-02  0.1165619E+00
          2   -1    0    0  502    0  0.00000000000E+00  0.00000000000E+00  0.14171829045E+04  0.14171829045E+04  0.00000000000E+00 0.  1.
         -2   -1    0    0    0  501 -0.00000000000E+00 -0.00000000000E+00 -0.25764191497E+02  0.25764191497E+02  0.00000000000E+00 0. -1.
          6    1    1    2  502    0  0.48197910688E+02  0.31179880496E+02  0.47919430133E+03  0.51269035681E+03  0.17300000000E+03 0. -1.
         -6    1    1    2    0  501 -0.48197910688E+02 -0.31179880496E+02  0.91222441164E+03  0.93025673915E+03  0.17300000000E+03 0.  1.
<mgrwt>
<rscale>  2 0.18227513E+03</rscale>
<asrwt>0</asrwt>
<pdfrwt beam="1">  1        2 0.21802808E+00 0.18227513E+03</pdfrwt>
<pdfrwt beam="2">  1       -2 0.39637229E-02 0.18227513E+03</pdfrwt>
<totfact> 0.41881332E+03</totfact>
</mgrwt>
</event>
<event>
 4    1  0.7691552E-001  0.2365211E+03  0.7546771E-02  0.1122132E+00
         -1   -1    0    0    0  501 -0.00000000000E+00  0.00000000000E+00  0.58361521228E+02  0.58361521228E+02  0.00000000000E+00 0. -1.
          1   -1    0    0  502    0  0.00000000000E+00 -0.00000000000E+00 -0.95878671130E+03  0.95878671130E+03  0.00000000000E+00 0.  1.
          6    1    1    2  502    0 -0.14194309725E+01 -0.16127990419E+03 -0.45826524935E+03  0.51570268667E+03  0.17300000000E+03 0. -1.
         -6    1    1    2    0  501  0.14194309725E+01  0.16127990419E+03 -0.44215994072E+03  0.50144554586E+03  0.17300000000E+03 0. -1.
<mgrwt>
<rscale>  2 0.23652108E+03</rscale>
<asrwt>0</asrwt>
<pdfrwt beam="2">  1        1 0.14750566E+00 0.23652108E+03</pdfrwt>
<pdfrwt beam="1">  1       -1 0.89786951E-02 0.23652108E+03</pdfrwt>
<totfact> 0.12398477E+03</totfact>
</mgrwt>
</event>
<event>
 4    1  0.7691552E-001  0.1800711E+03  0.7546771E-02  0.1167734E+00
         -1   -1    0    0    0  501 -0.00000000000E+00  0.00000000000E+00  0.72660084112E+02  0.72660084112E+02  0.00000000000E+00 0.  1.
          1   -1    0    0  502    0  0.00000000000E+00 -0.00000000000E+00 -0.44772770129E+03  0.44772770129E+03  0.00000000000E+00 0. -1.
          6    1    1    2  502    0 -0.49844135385E+02  0.34888659970E+01 -0.20240872685E+03  0.27091493633E+03  0.17300000000E+03 0. -1.
         -6    1    1    2    0  501  0.49844135385E+02 -0.34888659970E+01 -0.17265889033E+03  0.24947284908E+03  0.17300000000E+03 0. -1.
<mgrwt>
<rscale>  2 0.18007112E+03</rscale>
<asrwt>0</asrwt>
<pdfrwt beam="2">  1        1 0.68881184E-01 0.18007112E+03</pdfrwt>
<pdfrwt beam="1">  1       -1 0.11178475E-01 0.18007112E+03</pdfrwt>
<totfact> 0.26382133E+03</totfact>
</mgrwt>
</event>
<event>
 4    1  0.7691552E-001  0.1740170E+03  0.7546771E-02  0.1173722E+00
         -2   -1    0    0    0  501 -0.00000000000E+00  0.00000000000E+00  0.86006708829E+01  0.86006708829E+01  0.00000000000E+00 0.  1.
          2   -1    0    0  502    0  0.00000000000E+00 -0.00000000000E+00 -0.36906833598E+04  0.36906833598E+04  0.00000000000E+00 0. -1.
          6    1    1    2  502    0 -0.10073195099E+02  0.15857075609E+02 -0.14442981292E+04  0.14547436207E+04  0.17300000000E+03 0.  1.
         -6    1    1    2    0  501  0.10073195099E+02 -0.15857075609E+02 -0.22377845598E+04  0.22445404100E+04  0.17300000000E+03 0. -1.
<mgrwt>
<rscale>  2 0.17401700E+03</rscale>
<asrwt>0</asrwt>
<pdfrwt beam="2">  1        2 0.56779764E+00 0.17401700E+03</pdfrwt>
<pdfrwt beam="1">  1       -2 0.13231797E-02 0.17401700E+03</pdfrwt>
<totfact> 0.10948136E+03</totfact>
</mgrwt>
</event>
<event>
 4    1  0.7691552E-001  0.1739321E+03  0.7546771E-02  0.1173808E+00
         -1   -1    0    0    0  501 -0.00000000000E+00  0.00000000000E+00  0.20417179876E+02  0.20417179876E+02  0.00000000000E+00 0. -1.
          1   -1    0    0  502    0  0.00000000000E+00 -0.00000000000E+00 -0.15265366735E+04  0.15265366735E+04  0.00000000000E+00 0.  1.
          6    1    1    2  502    0 -0.17793897707E+02 -0.25976578947E+01 -0.88560208763E+03  0.90252059713E+03  0.17300000000E+03 0.  1.
         -6    1    1    2    0  501  0.17793897707E+02  0.25976578947E+01 -0.62051740604E+03  0.64443325630E+03  0.17300000000E+03 0. -1.
<mgrwt>
<rscale>  2 0.17393209E+03</rscale>
<asrwt>0</asrwt>
<pdfrwt beam="2">  1        1 0.23485183E+00 0.17393209E+03</pdfrwt>
<pdfrwt beam="1">  1       -1 0.31411041E-02 0.17393209E+03</pdfrwt>
<totfact> 0.24170251E+03</totfact>
</mgrwt>
</event>
<event>
 4    1  0.7691552E-001  0.1750044E+03  0.7546771E-02  0.1172727E+00
          3   -1    0    0  502    0  0.00000000000E+00  0.00000000000E+00  0.79124251879E+03  0.79124251879E+03  0.00000000000E+00 0.  1.
         -3   -1    0    0    0  501 -0.00000000000E+00 -0.00000000000E+00 -0.45158948199E+02  0.45158948199E+02  0.00000000000E+00 0. -1.
          6    1    1    2  502    0  0.21712539239E+02 -0.15036511010E+02  0.21496711695E+03  0.27719558509E+03  0.17300000000E+03 0. -1.
         -6    1    1    2    0  501 -0.21712539239E+02  0.15036511010E+02  0.53111645364E+03  0.55920588190E+03  0.17300000000E+03 0.  1.
<mgrwt>
<rscale>  2 0.17500437E+03</rscale>
<asrwt>0</asrwt>
<pdfrwt beam="1">  1        3 0.12172961E+00 0.17500437E+03</pdfrwt>
<pdfrwt beam="2">  1       -3 0.69475311E-02 0.17500437E+03</pdfrwt>
<totfact> 0.18538457E+02</totfact>
</mgrwt>
</event>
<event>
 4    1  0.7691552E-001  0.2222113E+03  0.7546771E-02  0.1132245E+00
         -1   -1    0    0    0  501 -0.00000000000E+00  0.00000000000E+00  0.39627809796E+02  0.39627809796E+02  0.00000000000E+00 0. -1.
          1   -1    0    0  502    0  0.00000000000E+00 -0.00000000000E+00 -0.21594467124E+04  0.21594467124E+04  0.00000000000E+00 0.  1.
          6    1    1    2  502    0 -0.52171571847E+01 -0.13936161021E+03 -0.17750156768E+04  0.17888707415E+04  0.17300000000E+03 0.  1.
         -6    1    1    2    0  501  0.52171571847E+01  0.13936161021E+03 -0.34480322586E+03  0.41020378069E+03  0.17300000000E+03 0. -1.
<mgrwt>
<rscale>  2 0.22221133E+03</rscale>
<asrwt>0</asrwt>
<pdfrwt beam="2">  1        1 0.33222261E+00 0.22221133E+03</pdfrwt>
<pdfrwt beam="1">  1       -1 0.60965853E-02 0.22221133E+03</pdfrwt>
<totfact> 0.34996570E+02</totfact>
</mgrwt>
</event>
<event>
 4    1  0.7691552E-001  0.2202049E+03  0.7546771E-02  0.1133730E+00
          1   -1    0    0  502    0  0.00000000000E+00  0.00000000000E+00  0.21910286672E+03  0.21910286672E+03  0.00000000000E+00 0.  1.
         -1   -1    0    0    0  501 -0.00000000000E+00 -0.00000000000E+00 -0.26181216561E+03  0.26181216561E+03  0.00000000000E+00 0. -1.
          6    1    1    2  502    0  0.13567763274E+03 -0.12360652409E+02 -0.11592807092E+03  0.24885643126E+03  0.17300000000E+03 0. -1.
         -6    1    1    2    0  501 -0.13567763274E+03  0.12360652409E+02  0.73218772020E+02  0.23205860107E+03  0.17300000000E+03 0.  1.
<mgrwt>
<rscale>  2 0.22020492E+03</rscale>
<asrwt>0</asrwt>
<pdfrwt beam="1">  1        1 0.33708134E-01 0.22020492E+03</pdfrwt>
<pdfrwt beam="2">  1       -1 0.40278794E-01 0.22020492E+03</pdfrwt>
<totfact> 0.79697002E+02</totfact>
</mgrwt>
</event>
<event>
 4    1  0.7691552E-001  0.2312123E+03  0.7546771E-02  0.1125789E+00
          1   -1    0    0  502    0  0.00000000000E+00  0.00000000000E+00  0.22622674751E+04  0.22622674751E+04  0.00000000000E+00 0.  1.
         -1   -1    0    0    0  501 -0.00000000000E+00 -0.00000000000E+00 -0.25662999804E+02  0.25662999804E+02  0.00000000000E+00 0. -1.
          6    1    1    2  502    0 -0.12780855023E+03  0.84823898454E+02  0.14402205429E+04  0.14586618291E+04  0.17300000000E+03 0.  1.
         -6    1    1    2    0  501  0.12780855023E+03 -0.84823898454E+02  0.79638393236E+03  0.82926864585E+03  0.17300000000E+03 0. -1.
<mgrwt>
<rscale>  2 0.23121228E+03</rscale>
<asrwt>0</asrwt>
<pdfrwt beam="1">  1        1 0.34804099E+00 0.23121228E+03</pdfrwt>
<pdfrwt beam="2">  1       -1 0.39481556E-02 0.23121228E+03</pdfrwt>
<totfact> 0.57399075E+02</totfact>
</mgrwt>
</event>
<event>
 4    1  0.7691552E-001  0.1798745E+03  0.7546771E-02  0.1167925E+00
          2   -1    0    0  502    0  0.00000000000E+00  0.00000000000E+00  0.12585904548E+04  0.12585904548E+04  0.00000000000E+00 0.  1.
         -2   -1    0    0    0  501 -0.00000000000E+00 -0.00000000000E+00 -0.29926746284E+02  0.29926746284E+02  0.00000000000E+00 0. -1.
          6    1    1    2  502    0 -0.30404150372E+02  0.38748396377E+02  0.85624684285E+03  0.87493628709E+03  0.17300000000E+03 0.  1.
         -6    1    1    2    0  501  0.30404150372E+02 -0.38748396377E+02  0.37241686562E+03  0.41358091395E+03  0.17300000000E+03 0. -1.
<mgrwt>
<rscale>  2 0.17987454E+03</rscale>
<asrwt>0</asrwt>
<pdfrwt beam="1">  1        2 0.19362926E+00 0.17987454E+03</pdfrwt>
<pdfrwt beam="2">  1       -2 0.46041158E-02 0.17987454E+03</pdfrwt>
<totfact> 0.40759181E+03</totfact>
</mgrwt>
</event>
<event>
 4    1  0.7691552E-001  0.2454188E+03  0.7546771E-02  0.1116235E+00
          1   -1    0    0  502    0  0.00000000000E+00  0.00000000000E+00  0.90313896893E+02  0.90313896893E+02  0.00000000000E+00 0.  1.
         -1   -1    0    0    0  501 -0.00000000000E+00 -0.00000000000E+00 -0.73693547050E+03  0.73693547050E+03  0.00000000000E+00 0. -1.
          6    1    1    2  502    0 -0.15625678165E+03  0.76715108865E+02 -0.45082217126E+03  0.51329428191E+03  0.17300000000E+03 0. -1.
         -6    1    1    2    0  501  0.15625678165E+03 -0.76715108865E+02 -0.19579940234E+03  0.31395508548E+03  0.17300000000E+03 0.  1.
<mgrwt>
<rscale>  2 0.24541880E+03</rscale>
<asrwt>0</asrwt>
<pdfrwt beam="1">  1        1 0.13894446E-01 0.24541880E+03</pdfrwt>
<pdfrwt beam="2">  1       -1 0.11337469E+00 0.24541880E+03</pdfrwt>
<totfact> 0.31305544E+02</totfact>
</mgrwt>
</event>
<event>
 4    1  0.7691552E-001  0.4114990E+03  0.7546771E-02  0.1039869E+00
          2   -1    0    0  502    0  0.00000000000E+00  0.00000000000E+00  0.16481298370E+04  0.16481298370E+04  0.00000000000E+00 0. -1.
         -2   -1    0    0    0  501 -0.00000000000E+00 -0.00000000000E+00 -0.11985915430E+03  0.11985915430E+03  0.00000000000E+00 0.  1.
          6    1    1    2  502    0  0.24805237287E+03 -0.27905629975E+03  0.10982038747E+04  0.11727673036E+04  0.17300000000E+03 0. -1.
         -6    1    1    2    0  501 -0.24805237287E+03  0.27905629975E+03  0.43006680808E+03  0.59522168772E+03  0.17300000000E+03 0.  1.
<mgrwt>
<rscale>  2 0.41149896E+03</rscale>
<asrwt>0</asrwt>
<pdfrwt beam="1">  1        2 0.25355842E+00 0.41149896E+03</pdfrwt>
<pdfrwt beam="2">  1       -2 0.18439871E-01 0.41149896E+03</pdfrwt>
<totfact> 0.27063606E+02</totfact>
</mgrwt>
</event>
<event>
 4    1  0.7691552E-001  0.1773059E+03  0.7546771E-02  0.1170436E+00
          1   -1    0    0  502    0  0.00000000000E+00  0.00000000000E+00  0.40878305949E+03  0.40878305949E+03  0.00000000000E+00 0. -1.
         -1   -1    0    0    0  501 -0.00000000000E+00 -0.00000000000E+00 -0.83913424791E+02  0.83913424791E+02  0.00000000000E+00 0.  1.
          6    1    1    2  502    0 -0.36604684506E+02  0.12980381069E+02  0.23362975347E+03  0.29329209830E+03  0.17300000000E+03 0. -1.
         -6    1    1    2    0  501  0.36604684506E+02 -0.12980381069E+02  0.91239881227E+02  0.19940438598E+03  0.17300000000E+03 0.  1.
<mgrwt>
<rscale>  2 0.17730593E+03</rscale>
<asrwt>0</asrwt>
<pdfrwt beam="1">  1        1 0.62889700E-01 0.17730593E+03</pdfrwt>
<pdfrwt beam="2">  1       -1 0.12909758E-01 0.17730593E+03</pdfrwt>
<totfact> 0.23694898E+03</totfact>
</mgrwt>
</event>
<event>
 4    1  0.7691552E-001  0.2206185E+03  0.7546771E-02  0.1133423E+00
          3   -1    0    0  502    0  0.00000000000E+00  0.00000000000E+00  0.11149873928E+04  0.11149873928E+04  0.00000000000E+00 0. -1.
         -3   -1    0    0    0  501 -0.00000000000E+00 -0.00000000000E+00 -0.44442857843E+02  0.44442857843E+02  0.00000000000E+00 0.  1.
          6    1    1    2  502    0 -0.44236521480E+02 -0.12956335298E+03  0.45798798755E+03  0.50835571110E+03  0.17300000000E+03 0.  1.
         -6    1    1    2    0  501  0.44236521480E+02  0.12956335298E+03  0.61255654737E+03  0.65107453951E+03  0.17300000000E+03 0. -1.
<mgrwt>
<rscale>  2 0.22061852E+03</rscale>
<asrwt>0</asrwt>
<pdfrwt beam="1">  1        3 0.17153650E+00 0.22061852E+03</pdfrwt>
<pdfrwt beam="2">  1       -3 0.68373636E-02 0.22061852E+03</pdfrwt>
<totfact> 0.82706290E+01</totfact>
</mgrwt>
</event>
<event>
 4    1  0.7691552E-001  0.2348168E+03  0.7546771E-02  0.1123295E+00
          2   -1    0    0  502    0  0.00000000000E+00  0.00000000000E+00  0.11353333778E+04  0.11353333778E+04  0.00000000000E+00 0. -1.
         -2   -1    0    0    0  501 -0.00000000000E+00 -0.00000000000E+00 -0.11832755223E+03  0.11832755223E+03  0.00000000000E+00 0.  1.
          6    1    1    2  502    0 -0.13928703945E+03  0.76217151874E+02  0.27204631583E+02  0.23638744802E+03  0.17300000000E+03 0.  1.
         -6    1    1    2    0  501  0.13928703945E+03 -0.76217151874E+02  0.98980119400E+03  0.10172734820E+04  0.17300000000E+03 0. -1.
<mgrwt>
<rscale>  2 0.23481681E+03</rscale>
<asrwt>0</asrwt>
<pdfrwt beam="1">  1        2 0.17466667E+00 0.23481681E+03</pdfrwt>
<pdfrwt beam="2">  1       -2 0.18204240E-01 0.23481681E+03</pdfrwt>
<totfact> 0.54245756E+02</totfact>
</mgrwt>
</event>
<event>
 4    1  0.7691552E-001  0.1764774E+03  0.7546771E-02  0.1171256E+00
         -2   -1    0    0    0  501 -0.00000000000E+00  0.00000000000E+00  0.44965423312E+02  0.44965423312E+02  0.00000000000E+00 0.  1.
          2   -1    0    0  502    0  0.00000000000E+00 -0.00000000000E+00 -0.75137729348E+03  0.75137729348E+03  0.00000000000E+00 0. -1.
          6    1    1    2  502    0  0.28811113265E+02 -0.19625894155E+02 -0.46454481526E+03  0.49693675790E+03  0.17300000000E+03 0. -1.
         -6    1    1    2    0  501 -0.28811113265E+02  0.19625894155E+02 -0.24186705491E+03  0.29940595889E+03  0.17300000000E+03 0.  1.
<mgrwt>
<rscale>  2 0.17647735E+03</rscale>
<asrwt>0</asrwt>
<pdfrwt beam="2">  1        2 0.11559650E+00 0.17647735E+03</pdfrwt>
<pdfrwt beam="1">  1       -2 0.69177581E-02 0.17647735E+03</pdfrwt>
<totfact> 0.44807477E+03</totfact>
</mgrwt>
</event>
<event>
 4    1  0.7691552E-001  0.1878088E+03  0.7546771E-02  0.1160453E+00
         -1   -1    0    0    0  501 -0.00000000000E+00  0.00000000000E+00  0.60005695216E+02  0.60005695216E+02  0.00000000000E+00 0.  1.
          1   -1    0    0  502    0  0.00000000000E+00 -0.00000000000E+00 -0.64304614746E+03  0.64304614746E+03  0.00000000000E+00 0. -1.
          6    1    1    2  502    0  0.12307449725E+01 -0.73086535583E+02 -0.18849720036E+03  0.26608899068E+03  0.17300000000E+03 0.  1.
         -6    1    1    2    0  501 -0.12307449725E+01  0.73086535583E+02 -0.39454325188E+03  0.43696285200E+03  0.17300000000E+03 0. -1.
<mgrwt>
<rscale>  2 0.18780883E+03</rscale>
<asrwt>0</asrwt>
<pdfrwt beam="2">  1        1 0.98930179E-01 0.18780883E+03</pdfrwt>
<pdfrwt beam="1">  1       -1 0.92316452E-02 0.18780883E+03</pdfrwt>
<totfact> 0.21817248E+03</totfact>
</mgrwt>
</event>
<event>
 4    1  0.7691552E-001  0.1859053E+03  0.7546771E-02  0.1162207E+00
          2   -1    0    0  502    0  0.00000000000E+00  0.00000000000E+00  0.13922893537E+03  0.13922893537E+03  0.00000000000E+00 0.  1.
         -2   -1    0    0    0  501 -0.00000000000E+00 -0.00000000000E+00 -0.30245042756E+03  0.30245042756E+03  0.00000000000E+00 0. -1.
          6    1    1    2  502    0 -0.40461961164E+02  0.54723008060E+02  0.11893659855E+02  0.18628536458E+03  0.17300000000E+03 0.  1.
         -6    1    1    2    0  501  0.40461961164E+02 -0.54723008060E+02 -0.17511515205E+03  0.25539399834E+03  0.17300000000E+03 0. -1.
<mgrwt>
<rscale>  2 0.18590529E+03</rscale>
<asrwt>0</asrwt>
<pdfrwt beam="1">  1        2 0.21419836E-01 0.18590529E+03</pdfrwt>
<pdfrwt beam="2">  1       -2 0.46530834E-01 0.18590529E+03</pdfrwt>
<totfact> 0.11269558E+03</totfact>
</mgrwt>
</event>
<event>
 4    1  0.7691552E-001  0.1967090E+03  0.7546771E-02  0.1152546E+00
          1   -1    0    0  502    0  0.00000000000E+00  0.00000000000E+00  0.56639504292E+03  0.56639504292E+03  0.00000000000E+00 0. -1.
         -1   -1    0    0    0  501 -0.00000000000E+00 -0.00000000000E+00 -0.68459731158E+02  0.68459731158E+02  0.00000000000E+00 0.  1.
          6    1    1    2  502    0 -0.59421326620E+02  0.72350006278E+02  0.26346093096E+03  0.32879488988E+03  0.17300000000E+03 0. -1.
         -6    1    1    2    0  501  0.59421326620E+02 -0.72350006278E+02  0.23447438080E+03  0.30605988420E+03  0.17300000000E+03 0. -1.
<mgrwt>
<rscale>  2 0.19670897E+03</rscale>
<asrwt>0</asrwt>
<pdfrwt beam="1">  1        1 0.87137696E-01 0.19670897E+03</pdfrwt>
<pdfrwt beam="2">  1       -1 0.10532267E-01 0.19670897E+03</pdfrwt>
<totfact> 0.21248266E+03</totfact>
</mgrwt>
</event>
<event>
 4    1  0.7691552E-001  0.2143918E+03  0.7546771E-02  0.1138135E+00
          2   -1    0    0  502    0  0.00000000000E+00  0.00000000000E+00  0.12885076473E+03  0.12885076473E+03  0.00000000000E+00 0. -1.
         -2   -1    0    0    0  501 -0.00000000000E+00 -0.00000000000E+00 -0.11676927180E+04  0.11676927180E+04  0.00000000000E+00 0.  1.
          6    1    1    2  502    0  0.68976613521E+02  0.10619358039E+03  0.20829926006E+02  0.21540133599E+03  0.17300000000E+03 0. -1.
         -6    1    1    2    0  501 -0.68976613521E+02 -0.10619358039E+03 -0.10596718793E+04  0.10811421468E+04  0.17300000000E+03 0.  1.
<mgrwt>
<rscale>  2 0.21439181E+03</rscale>
<asrwt>0</asrwt>
<pdfrwt beam="1">  1        2 0.19823194E-01 0.21439181E+03</pdfrwt>
<pdfrwt beam="2">  1       -2 0.17964504E+00 0.21439181E+03</pdfrwt>
<totfact> 0.55522806E+01</totfact>
</mgrwt>
</event>
<event>
 4    1  0.7691552E-001  0.1769801E+03  0.7546771E-02  0.1170758E+00
          1   -1    0    0  502    0  0.00000000000E+00  0.00000000000E+00  0.10322014036E+04  0.10322014036E+04  0.00000000000E+00 0. -1.
         -1   -1    0    0    0  501 -0.00000000000E+00 -0.00000000000E+00 -0.40324087192E+02  0.40324087192E+02  0.00000000000E+00 0.  1.
          6    1    1    2  502    0 -0.36614509763E+02  0.72331169470E+01  0.22916360361E+03  0.28954774654E+03  0.17300000000E+03 0.  1.
         -6    1    1    2    0  501  0.36614509763E+02 -0.72331169470E+01  0.76271371280E+03  0.78297774425E+03  0.17300000000E+03 0. -1.
<mgrwt>
<rscale>  2 0.17698006E+03</rscale>
<asrwt>0</asrwt>
<pdfrwt beam="1">  1        1 0.15880020E+00 0.17698006E+03</pdfrwt>
<pdfrwt beam="2">  1       -1 0.62037065E-02 0.17698006E+03</pdfrwt>
<totfact> 0.19147583E+03</totfact>
</mgrwt>
</event>
<event>
 4    1  0.7691552E-001  0.1881106E+03  0.7546771E-02  0.1160177E+00
         -1   -1    0    0    0  501 -0.00000000000E+00  0.00000000000E+00  0.25775986047E+03  0.25775986047E+03  0.00000000000E+00 0.  1.
          1   -1    0    0  502    0  0.00000000000E+00 -0.00000000000E+00 -0.13823034968E+03  0.13823034968E+03  0.00000000000E+00 0. -1.
          6    1    1    2  502    0  0.52947829793E+02 -0.51508466370E+02  0.43358494877E+02  0.19304288090E+03  0.17300000000E+03 0. -1.
         -6    1    1    2    0  501 -0.52947829793E+02  0.51508466370E+02  0.76171015908E+02  0.20294732926E+03  0.17300000000E+03 0. -1.
<mgrwt>
<rscale>  2 0.18811059E+03</rscale>
<asrwt>0</asrwt>
<pdfrwt beam="2">  1        1 0.21266208E-01 0.18811059E+03</pdfrwt>
<pdfrwt beam="1">  1       -1 0.39655363E-01 0.18811059E+03</pdfrwt>
<totfact> 0.14641633E+03</totfact>
</mgrwt>
</event>
<event>
 4    1  0.7691552E-001  0.1789723E+03  0.7546771E-02  0.1168801E+00
         -2   -1    0    0    0  501 -0.00000000000E+00  0.00000000000E+00  0.24949989734E+02  0.24949989734E+02  0.00000000000E+00 0.  1.
          2   -1    0    0  502    0  0.00000000000E+00 -0.00000000000E+00 -0.14061906845E+04  0.14061906845E+04  0.00000000000E+00 0. -1.
          6    1    1    2  502    0  0.19639690170E+02  0.41429126063E+02 -0.90171807551E+03  0.91930766211E+03  0.17300000000E+03 0. -1.
         -6    1    1    2    0  501 -0.19639690170E+02 -0.41429126063E+02 -0.47952261921E+03  0.51183301208E+03  0.17300000000E+03 0.  1.
<mgrwt>
<rscale>  2 0.17897232E+03</rscale>
<asrwt>0</asrwt>
<pdfrwt beam="2">  1        2 0.21633707E+00 0.17897232E+03</pdfrwt>
<pdfrwt beam="1">  1       -2 0.38384593E-02 0.17897232E+03</pdfrwt>
<totfact> 0.44523901E+03</totfact>
</mgrwt>
</event>
<event>
 4    1  0.7691552E-001  0.2157136E+03  0.7546771E-02  0.1137120E+00
          2   -1    0    0  502    0  0.00000000000E+00  0.00000000000E+00  0.88001029616E+02  0.88001029616E+02  0.00000000000E+00 0.  1.
         -2   -1    0    0    0  501 -0.00000000000E+00 -0.00000000000E+00 -0.52944022323E+03  0.52944022323E+03  0.00000000000E+00 0. -1.
          6    1    1    2  502    0 -0.12493350172E+03 -0.31543021237E+02 -0.20973893794E+03  0.30087001202E+03  0.17300000000E+03 0. -1.
         -6    1    1    2    0  501  0.12493350172E+03  0.31543021237E+02 -0.23170025567E+03  0.31657124083E+03  0.17300000000E+03 0.  1.
<mgrwt>
<rscale>  2 0.21571356E+03</rscale>
<asrwt>0</asrwt>
<pdfrwt beam="1">  1        2 0.13538620E-01 0.21571356E+03</pdfrwt>
<pdfrwt beam="2">  1       -2 0.81452342E-01 0.21571356E+03</pdfrwt>
<totfact> 0.60151167E+02</totfact>
</mgrwt>
</event>
<event>
 4    1  0.7691552E-001  0.4113476E+03  0.7546771E-02  0.1039920E+00
         -2   -1    0    0    0  501 -0.00000000000E+00  0.00000000000E+00  0.13672624208E+03  0.13672624208E+03  0.00000000000E+00 0.  1.
          2   -1    0    0  502    0  0.00000000000E+00 -0.00000000000E+00 -0.13968732461E+04  0.13968732461E+04  0.00000000000E+00 0. -1.
          6    1    1    2  502    0 -0.33041330593E+03  0.17350761534E+03 -0.37111496750E+03  0.55401549113E+03  0.17300000000E+03 0. -1.
         -6    1    1    2    0  501  0.33041330593E+03 -0.17350761534E+03 -0.88903203649E+03  0.97958399702E+03  0.17300000000E+03 0.  1.
<mgrwt>
<rscale>  2 0.41134760E+03</rscale>
<asrwt>0</asrwt>
<pdfrwt beam="2">  1        2 0.21490358E+00 0.41134760E+03</pdfrwt>
<pdfrwt beam="1">  1       -2 0.21034806E-01 0.41134760E+03</pdfrwt>
<totfact> 0.29534789E+02</totfact>
</mgrwt>
</event>
<event>
 4    1  0.7691552E-001  0.1846290E+03  0.7546771E-02  0.1163397E+00
          2   -1    0    0  502    0  0.00000000000E+00  0.00000000000E+00  0.32557110701E+03  0.32557110701E+03  0.00000000000E+00 0.  1.
         -2   -1    0    0    0  501 -0.00000000000E+00 -0.00000000000E+00 -0.11124772783E+03  0.11124772783E+03  0.00000000000E+00 0. -1.
          6    1    1    2  502    0  0.28563735536E+02  0.57818621077E+02  0.54181745707E+02  0.19241502410E+03  0.17300000000E+03 0. -1.
         -6    1    1    2    0  501 -0.28563735536E+02 -0.57818621077E+02  0.16014163348E+03  0.24440381074E+03  0.17300000000E+03 0.  1.
<mgrwt>
<rscale>  2 0.18462903E+03</rscale>
<asrwt>0</asrwt>
<pdfrwt beam="1">  1        2 0.50087862E-01 0.18462903E+03</pdfrwt>
<pdfrwt beam="2">  1       -2 0.17115035E-01 0.18462903E+03</pdfrwt>
<totfact> 0.26980549E+03</totfact>
</mgrwt>
</event>
<event>
 4    1  0.7691552E-001  0.2569560E+03  0.7546771E-02  0.1108986E+00
         -2   -1    0    0    0  501 -0.00000000000E+00  0.00000000000E+00  0.21311624016E+02  0.21311624016E+02  0.00000000000E+00 0. -1.
          2   -1    0    0  502    0  0.00000000000E+00 -0.00000000000E+00 -0.31062450781E+04  0.31062450781E+04  0.00000000000E+00 0.  1.
          6    1    1    2  502    0 -0.18430678113E+03  0.46134514949E+02 -0.16223490639E+04  0.16425720283E+04  0.17300000000E+03 0. -1.
         -6    1    1    2    0  501  0.18430678113E+03 -0.46134514949E+02 -0.14625843902E+04  0.14849846738E+04  0.17300000000E+03 0.  1.
<mgrwt>
<rscale>  2 0.25695599E+03</rscale>
<asrwt>0</asrwt>
<pdfrwt beam="2">  1        2 0.47788388E+00 0.25695599E+03</pdfrwt>
<pdfrwt beam="1">  1       -2 0.32787113E-02 0.25695599E+03</pdfrwt>
<totfact> 0.66926876E+02</totfact>
</mgrwt>
</event>
<event>
 4    1  0.7691552E-001  0.2312054E+03  0.7546771E-02  0.1125794E+00
         -1   -1    0    0    0  501 -0.00000000000E+00  0.00000000000E+00  0.11849200235E+04  0.11849200235E+04  0.00000000000E+00 0.  1.
          1   -1    0    0  502    0  0.00000000000E+00 -0.00000000000E+00 -0.13261917312E+03  0.13261917312E+03  0.00000000000E+00 0. -1.
          6    1    1    2  502    0 -0.14816105247E+03  0.39689455268E+02 -0.89661066722E+01  0.23137921557E+03  0.17300000000E+03 0. -1.
         -6    1    1    2    0  501  0.14816105247E+03 -0.39689455268E+02  0.10612669571E+04  0.10861599811E+04  0.17300000000E+03 0.  1.
<mgrwt>
<rscale>  2 0.23120543E+03</rscale>
<asrwt>0</asrwt>
<pdfrwt beam="2">  1        1 0.20402951E-01 0.23120543E+03</pdfrwt>
<pdfrwt beam="1">  1       -1 0.18229538E+00 0.23120543E+03</pdfrwt>
<totfact> 0.55618500E+01</totfact>
</mgrwt>
</event>
<event>
 4    1  0.7691552E-001  0.1951201E+03  0.7546771E-02  0.1153923E+00
          3   -1    0    0  502    0  0.00000000000E+00  0.00000000000E+00  0.11241484604E+03  0.11241484604E+03  0.00000000000E+00 0.  1.
         -3   -1    0    0    0  501 -0.00000000000E+00 -0.00000000000E+00 -0.36179500149E+03  0.36179500149E+03  0.00000000000E+00 0. -1.
          6    1    1    2  502    0 -0.31346374471E+02 -0.84618282451E+02 -0.18463108387E+03  0.26862703894E+03  0.17300000000E+03 0. -1.
         -6    1    1    2    0  501  0.31346374471E+02  0.84618282451E+02 -0.64749071576E+02  0.20558280859E+03  0.17300000000E+03 0.  1.
<mgrwt>
<rscale>  2 0.19512009E+03</rscale>
<asrwt>0</asrwt>
<pdfrwt beam="1">  1        3 0.17294591E-01 0.19512009E+03</pdfrwt>
<pdfrwt beam="2">  1       -3 0.55660770E-01 0.19512009E+03</pdfrwt>
<totfact> 0.22691144E+02</totfact>
</mgrwt>
</event>
<event>
 4    1  0.7691552E-001  0.1934105E+03  0.7546771E-02  0.1155421E+00
          2   -1    0    0  502    0  0.00000000000E+00  0.00000000000E+00  0.45343692453E+03  0.45343692453E+03  0.00000000000E+00 0.  1.
         -2   -1    0    0    0  501 -0.00000000000E+00 -0.00000000000E+00 -0.91705925062E+02  0.91705925062E+02  0.00000000000E+00 0. -1.
          6    1    1    2  502    0 -0.32224646147E+02 -0.80250887382E+02  0.94495511487E+02  0.21526038752E+03  0.17300000000E+03 0. -1.
         -6    1    1    2    0  501  0.32224646147E+02  0.80250887382E+02  0.26723548798E+03  0.32988246207E+03  0.17300000000E+03 0.  1.
<mgrwt>
<rscale>  2 0.19341053E+03</rscale>
<asrwt>0</asrwt>
<pdfrwt beam="1">  1        2 0.69759525E-01 0.19341053E+03</pdfrwt>
<pdfrwt beam="2">  1       -2 0.14108604E-01 0.19341053E+03</pdfrwt>
<totfact> 0.26001745E+03</totfact>
</mgrwt>
</event>
<event>
 4    1  0.7691552E-001  0.1828838E+03  0.7546771E-02  0.1165041E+00
          1   -1    0    0  502    0  0.00000000000E+00  0.00000000000E+00  0.16875788460E+03  0.16875788460E+03  0.00000000000E+00 0.  1.
         -1   -1    0    0    0  501 -0.00000000000E+00 -0.00000000000E+00 -0.21506617868E+03  0.21506617868E+03  0.00000000000E+00 0. -1.
          6    1    1    2  502    0  0.56905687821E+02 -0.16709655347E+02 -0.76910143245E+02  0.19839768149E+03  0.17300000000E+03 0. -1.
         -6    1    1    2    0  501 -0.56905687821E+02  0.16709655347E+02  0.30601849161E+02  0.18542638178E+03  0.17300000000E+03 0. -1.
<mgrwt>
<rscale>  2 0.18288376E+03</rscale>
<asrwt>0</asrwt>
<pdfrwt beam="1">  1        1 0.25962751E-01 0.18288376E+03</pdfrwt>
<pdfrwt beam="2">  1       -1 0.33087105E-01 0.18288376E+03</pdfrwt>
<totfact> 0.15554590E+03</totfact>
</mgrwt>
</event>
<event>
 4    1  0.7691552E-001  0.2569267E+03  0.7546771E-02  0.1109004E+00
          1   -1    0    0  502    0  0.00000000000E+00  0.00000000000E+00  0.74828337292E+03  0.74828337292E+03  0.00000000000E+00 0.  1.
         -1   -1    0    0    0  501 -0.00000000000E+00 -0.00000000000E+00 -0.92611635386E+02  0.92611635386E+02  0.00000000000E+00 0. -1.
          6    1    1    2  502    0  0.10027227152E+03  0.16133140401E+03  0.23624798042E+03  0.34903360670E+03  0.17300000000E+03 0. -1.
         -6    1    1    2    0  501 -0.10027227152E+03 -0.16133140401E+03  0.41942375712E+03  0.49186140160E+03  0.17300000000E+03 0.  1.
<mgrwt>
<rscale>  2 0.25692674E+03</rscale>
<asrwt>0</asrwt>
<pdfrwt beam="1">  1        1 0.11512051E+00 0.25692674E+03</pdfrwt>
<pdfrwt beam="2">  1       -1 0.14247944E-01 0.25692674E+03</pdfrwt>
<totfact> 0.89291457E+02</totfact>
</mgrwt>
</event>
<event>
 4    1  0.7691552E-001  0.2580672E+03  0.7546771E-02  0.1108310E+00
         -2   -1    0    0    0  501 -0.00000000000E+00  0.00000000000E+00  0.18752104902E+02  0.18752104902E+02  0.00000000000E+00 0.  1.
          2   -1    0    0  502    0  0.00000000000E+00 -0.00000000000E+00 -0.43791297560E+04  0.43791297560E+04  0.00000000000E+00 0. -1.
          6    1    1    2  502    0  0.96311648576E+02 -0.16551055084E+03 -0.12242509885E+04  0.12511551298E+04  0.17300000000E+03 0.  1.
         -6    1    1    2    0  501 -0.96311648576E+02  0.16551055084E+03 -0.31361266626E+04  0.31467267311E+04  0.17300000000E+03 0. -1.
<mgrwt>
<rscale>  2 0.25806719E+03</rscale>
<asrwt>0</asrwt>
<pdfrwt beam="2">  1        2 0.67371190E+00 0.25806719E+03</pdfrwt>
<pdfrwt beam="1">  1       -2 0.28849408E-02 0.25806719E+03</pdfrwt>
<totfact> 0.98707961E+01</totfact>
</mgrwt>
</event>
<event>
 4    1  0.7691552E-001  0.2009241E+03  0.7546771E-02  0.1148962E+00
         -2   -1    0    0    0  501 -0.00000000000E+00  0.00000000000E+00  0.16874824880E+02  0.16874824880E+02  0.00000000000E+00 0.  1.
          2   -1    0    0  502    0  0.00000000000E+00 -0.00000000000E+00 -0.23938404576E+04  0.23938404576E+04  0.00000000000E+00 0. -1.
          6    1    1    2  502    0 -0.88454162035E+02 -0.51160228317E+02 -0.12185471508E+04  0.12350010795E+04  0.17300000000E+03 0.  1.
         -6    1    1    2    0  501  0.88454162035E+02  0.51160228317E+02 -0.11584184820E+04  0.11757142030E+04  0.17300000000E+03 0.  1.
<mgrwt>
<rscale>  2 0.20092413E+03</rscale>
<asrwt>0</asrwt>
<pdfrwt beam="2">  1        2 0.36828333E+00 0.20092413E+03</pdfrwt>
<pdfrwt beam="1">  1       -2 0.25961256E-02 0.20092413E+03</pdfrwt>
<totfact> 0.24196047E+03</totfact>
</mgrwt>
</event>
<event>
 4    1  0.7691552E-001  0.1913075E+03  0.7546771E-02  0.1157287E+00
         -1   -1    0    0    0  501 -0.00000000000E+00  0.00000000000E+00  0.46628145364E+02  0.46628145364E+02  0.00000000000E+00 0.  1.
          1   -1    0    0  502    0  0.00000000000E+00 -0.00000000000E+00 -0.81077946343E+03  0.81077946343E+03  0.00000000000E+00 0. -1.
          6    1    1    2  502    0  0.81344046656E+02 -0.72594302829E+01 -0.30548749583E+03  0.36044578422E+03  0.17300000000E+03 0.  1.
         -6    1    1    2    0  501 -0.81344046656E+02  0.72594302829E+01 -0.45866382223E+03  0.49696182457E+03  0.17300000000E+03 0. -1.
<mgrwt>
<rscale>  2 0.19130748E+03</rscale>
<asrwt>0</asrwt>
<pdfrwt beam="2">  1        1 0.12473529E+00 0.19130748E+03</pdfrwt>
<pdfrwt beam="1">  1       -1 0.71735616E-02 0.19130748E+03</pdfrwt>
<totfact> 0.22813338E+03</totfact>
</mgrwt>
</event>
<event>
 4    1  0.7691552E-001  0.2132173E+03  0.7546771E-02  0.1139043E+00
         -1   -1    0    0    0  501 -0.00000000000E+00  0.00000000000E+00  0.22963755165E+03  0.22963755165E+03  0.00000000000E+00 0. -1.
          1   -1    0    0  502    0  0.00000000000E+00 -0.00000000000E+00 -0.20221926538E+03  0.20221926538E+03  0.00000000000E+00 0.  1.
          6    1    1    2  502    0  0.78984074742E+02  0.96406108168E+02  0.45005522392E+02  0.21791539368E+03  0.17300000000E+03 0.  1.
         -6    1    1    2    0  501 -0.78984074742E+02 -0.96406108168E+02 -0.17587236122E+02  0.21394142336E+03  0.17300000000E+03 0. -1.
<mgrwt>
<rscale>  2 0.21321731E+03</rscale>
<asrwt>0</asrwt>
<pdfrwt beam="2">  1        1 0.31110656E-01 0.21321731E+03</pdfrwt>
<pdfrwt beam="1">  1       -1 0.35328854E-01 0.21321731E+03</pdfrwt>
<totfact> 0.11093531E+03</totfact>
</mgrwt>
</event>
<event>
 4    1  0.7691552E-001  0.1823190E+03  0.7546771E-02  0.1165577E+00
          3   -1    0    0  502    0  0.00000000000E+00  0.00000000000E+00  0.73547121087E+02  0.73547121087E+02  0.00000000000E+00 0.  1.
         -3   -1    0    0    0  501 -0.00000000000E+00 -0.00000000000E+00 -0.50773533867E+03  0.50773533867E+03  0.00000000000E+00 0. -1.
          6    1    1    2  502    0 -0.22324869990E+02 -0.53035900386E+02 -0.31342544639E+03  0.36259580389E+03  0.17300000000E+03 0. -1.
         -6    1    1    2    0  501  0.22324869990E+02  0.53035900386E+02 -0.12076277119E+03  0.21868665587E+03  0.17300000000E+03 0.  1.
<mgrwt>
<rscale>  2 0.18231897E+03</rscale>
<asrwt>0</asrwt>
<pdfrwt beam="1">  1        3 0.11314941E-01 0.18231897E+03</pdfrwt>
<pdfrwt beam="2">  1       -3 0.78113132E-01 0.18231897E+03</pdfrwt>
<totfact> 0.22780455E+02</totfact>
</mgrwt>
</event>
<event>
 4    1  0.7691552E-001  0.1933872E+03  0.7546771E-02  0.1155441E+00
         -1   -1    0    0    0  501 -0.00000000000E+00  0.00000000000E+00  0.24846591537E+02  0.24846591537E+02  0.00000000000E+00 0.  1.
          1   -1    0    0  502    0  0.00000000000E+00 -0.00000000000E+00 -0.15660532458E+04  0.15660532458E+04  0.00000000000E+00 0. -1.
          6    1    1    2  502    0 -0.39621194509E+02 -0.76809923770E+02 -0.92743048048E+03  0.94737843525E+03  0.17300000000E+03 0. -1.
         -6    1    1    2    0  501  0.39621194509E+02  0.76809923770E+02 -0.61377617375E+03  0.64352140206E+03  0.17300000000E+03 0. -1.
<mgrwt>
<rscale>  2 0.19338719E+03</rscale>
<asrwt>0</asrwt>
<pdfrwt beam="2">  1        1 0.24093130E+00 0.19338719E+03</pdfrwt>
<pdfrwt beam="1">  1       -1 0.38225521E-02 0.19338719E+03</pdfrwt>
<totfact> 0.17059631E+03</totfact>
</mgrwt>
</event>
<event>
 4    1  0.7691552E-001  0.1957258E+03  0.7546771E-02  0.1153396E+00
         -1   -1    0    0    0  501 -0.00000000000E+00  0.00000000000E+00  0.40262010765E+02  0.40262010765E+02  0.00000000000E+00 0. -1.
          1   -1    0    0  502    0  0.00000000000E+00 -0.00000000000E+00 -0.96373856109E+03  0.96373856109E+03  0.00000000000E+00 0.  1.
          6    1    1    2  502    0 -0.13225579439E+02  0.90579591764E+02 -0.51835030422E+03  0.55407185119E+03  0.17300000000E+03 0.  1.
         -6    1    1    2    0  501  0.13225579439E+02 -0.90579591764E+02 -0.40512624610E+03  0.44992872066E+03  0.17300000000E+03 0.  1.
<mgrwt>
<rscale>  2 0.19572577E+03</rscale>
<asrwt>0</asrwt>
<pdfrwt beam="2">  1        1 0.14826746E+00 0.19572577E+03</pdfrwt>
<pdfrwt beam="1">  1       -1 0.61941558E-02 0.19572577E+03</pdfrwt>
<totfact> 0.21597592E+03</totfact>
</mgrwt>
</event>
<event>
 4    1  0.7691552E-001  0.1789552E+03  0.7546771E-02  0.1168818E+00
         -1   -1    0    0    0  501 -0.00000000000E+00  0.00000000000E+00  0.32239505261E+02  0.32239505261E+02  0.00000000000E+00 0. -1.
          1   -1    0    0  502    0  0.00000000000E+00 -0.00000000000E+00 -0.99823837831E+03  0.99823837831E+03  0.00000000000E+00 0.  1.
          6    1    1    2  502    0 -0.47570059606E+01 -0.45533980612E+02 -0.44692771739E+03  0.48142430046E+03  0.17300000000E+03 0. -1.
         -6    1    1    2    0  501  0.47570059606E+01  0.45533980612E+02 -0.51907115566E+03  0.54905358312E+03  0.17300000000E+03 0.  1.
<mgrwt>
<rscale>  2 0.17895522E+03</rscale>
<asrwt>0</asrwt>
<pdfrwt beam="2">  1        1 0.15357513E+00 0.17895522E+03</pdfrwt>
<pdfrwt beam="1">  1       -1 0.49599239E-02 0.17895522E+03</pdfrwt>
<totfact> 0.28342709E+03</totfact>
</mgrwt>
</event>
<event>
 4    1  0.7691552E-001  0.1769203E+03  0.7546771E-02  0.1170817E+00
         -2   -1    0    0    0  501 -0.00000000000E+00  0.00000000000E+00  0.15958569819E+03  0.15958569819E+03  0.00000000000E+00 0. -1.
          2   -1    0    0  502    0  0.00000000000E+00 -0.00000000000E+00 -0.24850558137E+03  0.24850558137E+03  0.00000000000E+00 0.  1.
          6    1    1    2  502    0 -0.37035750925E+02  0.36445562286E+00  0.49208122088E+02  0.18363610471E+03  0.17300000000E+03 0. -1.
         -6    1    1    2    0  501  0.37035750925E+02 -0.36445562286E+00 -0.13812800527E+03  0.22445517485E+03  0.17300000000E+03 0.  1.
<mgrwt>
<rscale>  2 0.17692026E+03</rscale>
<asrwt>0</asrwt>
<pdfrwt beam="2">  1        2 0.38231628E-01 0.17692026E+03</pdfrwt>
<pdfrwt beam="1">  1       -2 0.24551646E-01 0.17692026E+03</pdfrwt>
<totfact> 0.19415000E+03</totfact>
</mgrwt>
</event>
<event>
 4    1  0.7691552E-001  0.1949301E+03  0.7546771E-02  0.1154088E+00
          1   -1    0    0  502    0  0.00000000000E+00  0.00000000000E+00  0.10498432183E+04  0.10498432183E+04  0.00000000000E+00 0.  1.
         -1   -1    0    0    0  501 -0.00000000000E+00 -0.00000000000E+00 -0.42684601090E+02  0.42684601090E+02  0.00000000000E+00 0. -1.
          6    1    1    2  502    0 -0.60990507420E+02  0.65946207507E+02  0.71659829513E+03  0.74263777231E+03  0.17300000000E+03 0.  1.
         -6    1    1    2    0  501  0.60990507420E+02 -0.65946207507E+02  0.29056032210E+03  0.34989004710E+03  0.17300000000E+03 0. -1.
<mgrwt>
<rscale>  2 0.19493010E+03</rscale>
<asrwt>0</asrwt>
<pdfrwt beam="1">  1        1 0.16151432E+00 0.19493010E+03</pdfrwt>
<pdfrwt beam="2">  1       -1 0.65668625E-02 0.19493010E+03</pdfrwt>
<totfact> 0.17077209E+03</totfact>
</mgrwt>
</event>
<event>
 4    1  0.7691552E-001  0.1865953E+03  0.7546771E-02  0.1161569E+00
         -2   -1    0    0    0  501 -0.00000000000E+00  0.00000000000E+00  0.11894635815E+03  0.11894635815E+03  0.00000000000E+00 0.  1.
          2   -1    0    0  502    0  0.00000000000E+00 -0.00000000000E+00 -0.41849565164E+03  0.41849565164E+03  0.00000000000E+00 0. -1.
          6    1    1    2  502    0 -0.22364887718E+02 -0.66246513829E+02 -0.29709310786E+03  0.35083059094E+03  0.17300000000E+03 0. -1.
         -6    1    1    2    0  501  0.22364887718E+02  0.66246513829E+02 -0.24561856307E+01  0.18661141885E+03  0.17300000000E+03 0.  1.
<mgrwt>
<rscale>  2 0.18659525E+03</rscale>
<asrwt>0</asrwt>
<pdfrwt beam="2">  1        2 0.64383947E-01 0.18659525E+03</pdfrwt>
<pdfrwt beam="1">  1       -2 0.18299440E-01 0.18659525E+03</pdfrwt>
<totfact> 0.18411366E+03</totfact>
</mgrwt>
</event>
<event>
 4    1  0.7691552E-001  0.2467692E+03  0.7546771E-02  0.1115364E+00
         -2   -1    0    0    0  501 -0.00000000000E+00  0.00000000000E+00  0.84978645447E+02  0.84978645447E+02  0.00000000000E+00 0.  1.
          2   -1    0    0  502    0  0.00000000000E+00 -0.00000000000E+00 -0.18559692233E+04  0.18559692233E+04  0.00000000000E+00 0. -1.
          6    1    1    2  502    0  0.17264431830E+03  0.34058499780E+02 -0.16458779443E+04  0.16642743913E+04  0.17300000000E+03 0. -1.
         -6    1    1    2    0  501 -0.17264431830E+03 -0.34058499780E+02 -0.12511263358E+03  0.27667347746E+03  0.17300000000E+03 0.  1.
<mgrwt>
<rscale>  2 0.24676921E+03</rscale>
<asrwt>0</asrwt>
<pdfrwt beam="2">  1        2 0.28553369E+00 0.24676921E+03</pdfrwt>
<pdfrwt beam="1">  1       -2 0.13073639E-01 0.24676921E+03</pdfrwt>
<totfact> 0.38323272E+02</totfact>
</mgrwt>
</event>
<event>
 4    1  0.7691552E-001  0.2145932E+03  0.7546771E-02  0.1137979E+00
          1   -1    0    0  502    0  0.00000000000E+00  0.00000000000E+00  0.12327643400E+03  0.12327643400E+03  0.00000000000E+00 0.  1.
         -1   -1    0    0    0  501 -0.00000000000E+00 -0.00000000000E+00 -0.38924923430E+03  0.38924923430E+03  0.00000000000E+00 0. -1.
          6    1    1    2  502    0  0.39549882754E+02 -0.12065255895E+03 -0.81525790682E+02  0.22955759136E+03  0.17300000000E+03 0.  1.
         -6    1    1    2    0  501 -0.39549882754E+02  0.12065255895E+03 -0.18444700962E+03  0.28296807693E+03  0.17300000000E+03 0.  1.
<mgrwt>
<rscale>  2 0.21459318E+03</rscale>
<asrwt>0</asrwt>
<pdfrwt beam="1">  1        1 0.18965605E-01 0.21459318E+03</pdfrwt>
<pdfrwt beam="2">  1       -1 0.59884497E-01 0.21459318E+03</pdfrwt>
<totfact> 0.79754222E+02</totfact>
</mgrwt>
</event>
<event>
 4    1  0.7691552E-001  0.2808995E+03  0.7546771E-02  0.1095199E+00
          2   -1    0    0  502    0  0.00000000000E+00  0.00000000000E+00  0.11436322304E+04  0.11436322304E+04  0.00000000000E+00 0. -1.
         -2   -1    0    0    0  501 -0.00000000000E+00 -0.00000000000E+00 -0.69180761818E+02  0.69180761818E+02  0.00000000000E+00 0.  1.
          6    1    1    2  502    0  0.26177642572E+02 -0.21975046627E+03  0.56867616465E+03  0.63426896238E+03  0.17300000000E+03 0.  1.
         -6    1    1    2    0  501 -0.26177642572E+02  0.21975046627E+03  0.50577530396E+03  0.57854402986E+03  0.17300000000E+03 0.  1.
<mgrwt>
<rscale>  2 0.28089951E+03</rscale>
<asrwt>0</asrwt>
<pdfrwt beam="1">  1        2 0.17594341E+00 0.28089951E+03</pdfrwt>
<pdfrwt beam="2">  1       -2 0.10643195E-01 0.28089951E+03</pdfrwt>
<totfact> 0.12938033E+03</totfact>
</mgrwt>
</event>
<event>
 4    1  0.7691552E-001  0.2106968E+03  0.7546771E-02  0.1141015E+00
         -1   -1    0    0    0  501 -0.00000000000E+00  0.00000000000E+00  0.82247707212E+02  0.82247707212E+02  0.00000000000E+00 0. -1.
          1   -1    0    0  502    0  0.00000000000E+00 -0.00000000000E+00 -0.89700525349E+03  0.89700525349E+03  0.00000000000E+00 0.  1.
          6    1    1    2  502    0  0.10996907407E+03  0.48692496972E+02 -0.98379799137E+02  0.23253331243E+03  0.17300000000E+03 0.  1.
         -6    1    1    2    0  501 -0.10996907407E+03 -0.48692496972E+02 -0.71637774714E+03  0.74671964827E+03  0.17300000000E+03 0.  1.
<mgrwt>
<rscale>  2 0.21069684E+03</rscale>
<asrwt>0</asrwt>
<pdfrwt beam="2">  1        1 0.13800081E+00 0.21069684E+03</pdfrwt>
<pdfrwt beam="1">  1       -1 0.12653493E-01 0.21069684E+03</pdfrwt>
<totfact> 0.81328701E+02</totfact>
</mgrwt>
</event>
<event>
 4    1  0.7691552E-001  0.2870723E+03  0.7546771E-02  0.1091888E+00
         -1   -1    0    0    0  501 -0.00000000000E+00  0.00000000000E+00  0.38092237594E+02  0.38092237594E+02  0.00000000000E+00 0.  1.
          1   -1    0    0  502    0  0.00000000000E+00 -0.00000000000E+00 -0.23790014000E+04  0.23790014000E+04  0.00000000000E+00 0. -1.
          6    1    1    2  502    0  0.17940642498E+03  0.14245997899E+03 -0.80666917728E+03  0.85622758220E+03  0.17300000000E+03 0.  1.
         -6    1    1    2    0  501 -0.17940642498E+03 -0.14245997899E+03 -0.15342399851E+04  0.15608660554E+04  0.17300000000E+03 0. -1.
<mgrwt>
<rscale>  2 0.28707231E+03</rscale>
<asrwt>0</asrwt>
<pdfrwt beam="2">  1        1 0.36600017E+00 0.28707231E+03</pdfrwt>
<pdfrwt beam="1">  1       -1 0.58603450E-02 0.28707231E+03</pdfrwt>
<totfact> 0.26317117E+02</totfact>
</mgrwt>
</event>
<event>
 4    1  0.7691552E-001  0.1819203E+03  0.7546771E-02  0.1165957E+00
         -2   -1    0    0    0  501 -0.00000000000E+00  0.00000000000E+00  0.53129548422E+02  0.53129548422E+02  0.00000000000E+00 0.  1.
          2   -1    0    0  502    0  0.00000000000E+00 -0.00000000000E+00 -0.85965193656E+03  0.85965193656E+03  0.00000000000E+00 0. -1.
          6    1    1    2  502    0  0.51550840455E+02  0.22550201168E+02 -0.16375771366E+03  0.24476844059E+03  0.17300000000E+03 0.  1.
         -6    1    1    2    0  501 -0.51550840455E+02 -0.22550201168E+02 -0.64276467448E+03  0.66801304440E+03  0.17300000000E+03 0. -1.
<mgrwt>
<rscale>  2 0.18192031E+03</rscale>
<asrwt>0</asrwt>
<pdfrwt beam="2">  1        2 0.13225415E+00 0.18192031E+03</pdfrwt>
<pdfrwt beam="1">  1       -2 0.81737763E-02 0.18192031E+03</pdfrwt>
<totfact> 0.29230360E+03</totfact>
</mgrwt>
</event>
<event>
 4    1  0.7691552E-001  0.2114076E+03  0.7546771E-02  0.1140456E+00
          1   -1    0    0  502    0  0.00000000000E+00  0.00000000000E+00  0.31658433927E+03  0.31658433927E+03  0.00000000000E+00 0. -1.
         -1   -1    0    0    0  501 -0.00000000000E+00 -0.00000000000E+00 -0.17446344964E+03  0.17446344964E+03  0.00000000000E+00 0.  1.
          6    1    1    2  502    0  0.11841333619E+03  0.27248232196E+02 -0.36190440176E+02  0.21448294176E+03  0.17300000000E+03 0.  1.
         -6    1    1    2    0  501 -0.11841333619E+03 -0.27248232196E+02  0.17831132980E+03  0.27656484715E+03  0.17300000000E+03 0. -1.
<mgrwt>
<rscale>  2 0.21140763E+03</rscale>
<asrwt>0</asrwt>
<pdfrwt beam="1">  1        1 0.48705283E-01 0.21140763E+03</pdfrwt>
<pdfrwt beam="2">  1       -1 0.26840531E-01 0.21140763E+03</pdfrwt>
<totfact> 0.10098119E+03</totfact>
</mgrwt>
</event>
<event>
 4    1  0.7691552E-001  0.1806789E+03  0.7546771E-02  0.1167148E+00
          4   -1    0    0  502    0  0.00000000000E+00  0.00000000000E+00  0.22314791930E+04  0.22314791930E+04  0.00000000000E+00 0.  1.
         -4   -1    0    0    0  501 -0.00000000000E+00 -0.00000000000E+00 -0.18869498178E+02  0.18869498178E+02  0.00000000000E+00 0. -1.
          6    1    1    2  502    0 -0.26393795854E+02  0.44935866182E+02  0.16396831448E+04  0.16496077351E+04  0.17300000000E+03 0.  1.
         -6    1    1    2    0  501  0.26393795854E+02 -0.44935866182E+02  0.57292655006E+03  0.60074095607E+03  0.17300000000E+03 0. -1.
<mgrwt>
<rscale>  2 0.18067890E+03</rscale>
<asrwt>0</asrwt>
<pdfrwt beam="1">  1        4 0.34330428E+00 0.18067890E+03</pdfrwt>
<pdfrwt beam="2">  1       -4 0.29030015E-02 0.18067890E+03</pdfrwt>
<totfact> 0.20513767E+01</totfact>
</mgrwt>
</event>
<event>
 4    1  0.7691552E-001  0.2450385E+03  0.7546771E-02  0.1116481E+00
          1   -1    0    0  502    0  0.00000000000E+00  0.00000000000E+00  0.29845814279E+04  0.29845814279E+04  0.00000000000E+00 0. -1.
         -1   -1    0    0    0  501 -0.00000000000E+00 -0.00000000000E+00 -0.22534395208E+02  0.22534395208E+02  0.00000000000E+00 0.  1.
          6    1    1    2  502    0  0.53345457774E+02  0.16513361579E+03  0.19733803755E+04  0.19885356309E+04  0.17300000000E+03 0. -1.
         -6    1    1    2    0  501 -0.53345457774E+02 -0.16513361579E+03  0.98866665723E+03  0.10185801923E+04  0.17300000000E+03 0.  1.
<mgrwt>
<rscale>  2 0.24503846E+03</rscale>
<asrwt>0</asrwt>
<pdfrwt beam="1">  1        1 0.45916606E+00 0.24503846E+03</pdfrwt>
<pdfrwt beam="2">  1       -1 0.34668324E-02 0.24503846E+03</pdfrwt>
<totfact> 0.22720761E+02</totfact>
</mgrwt>
</event>
<event>
 4    1  0.7691552E-001  0.2317392E+03  0.7546771E-02  0.1125422E+00
         -4   -1    0    0    0  501 -0.00000000000E+00  0.00000000000E+00  0.19705378693E+03  0.19705378693E+03  0.00000000000E+00 0.  1.
          4   -1    0    0  502    0  0.00000000000E+00 -0.00000000000E+00 -0.28643736464E+03  0.28643736464E+03  0.00000000000E+00 0. -1.
          6    1    1    2  502    0  0.65188230358E+01 -0.15405057191E+03  0.85761273697E+01  0.23189787347E+03  0.17300000000E+03 0.  1.
         -6    1    1    2    0  501 -0.65188230358E+01  0.15405057191E+03 -0.97959705083E+02  0.25159327809E+03  0.17300000000E+03 0. -1.
<mgrwt>
<rscale>  2 0.23173924E+03</rscale>
<asrwt>0</asrwt>
<pdfrwt beam="2">  1        4 0.44067287E-01 0.23173924E+03</pdfrwt>
<pdfrwt beam="1">  1       -4 0.30315967E-01 0.23173924E+03</pdfrwt>
<totfact> 0.94633220E+01</totfact>
</mgrwt>
</event>
<event>
 4    1  0.7691552E-001  0.1789508E+03  0.7546771E-02  0.1168822E+00
          2   -1    0    0  502    0  0.00000000000E+00  0.00000000000E+00  0.54526026196E+03  0.54526026196E+03  0.00000000000E+00 0. -1.
         -2   -1    0    0    0  501 -0.00000000000E+00 -0.00000000000E+00 -0.87248564374E+02  0.87248564374E+02  0.00000000000E+00 0.  1.
          6    1    1    2  502    0 -0.12459813245E+02 -0.44035882859E+02  0.48197908583E+02  0.18532793723E+03  0.17300000000E+03 0. -1.
         -6    1    1    2    0  501  0.12459813245E+02  0.44035882859E+02  0.40981378901E+03  0.44718088911E+03  0.17300000000E+03 0. -1.
<mgrwt>
<rscale>  2 0.17895085E+03</rscale>
<asrwt>0</asrwt>
<pdfrwt beam="1">  1        2 0.83886192E-01 0.17895085E+03</pdfrwt>
<pdfrwt beam="2">  1       -2 0.13422856E-01 0.17895085E+03</pdfrwt>
<totfact> 0.22928045E+03</totfact>
</mgrwt>
</event>
<event>
 4    1  0.7691552E-001  0.1754163E+03  0.7546771E-02  0.1172314E+00
          2   -1    0    0  502    0  0.00000000000E+00  0.00000000000E+00  0.16102431002E+04  0.16102431002E+04  0.00000000000E+00 0. -1.
         -2   -1    0    0    0  501 -0.00000000000E+00 -0.00000000000E+00 -0.29648865834E+02  0.29648865834E+02  0.00000000000E+00 0.  1.
          6    1    1    2  502    0 -0.21015797990E+02  0.20005438599E+02  0.30143183360E+03  0.34875784098E+03  0.17300000000E+03 0.  1.
         -6    1    1    2    0  501  0.21015797990E+02 -0.20005438599E+02  0.12791624008E+04  0.12911341251E+04  0.17300000000E+03 0. -1.
<mgrwt>
<rscale>  2 0.17541631E+03</rscale>
<asrwt>0</asrwt>
<pdfrwt beam="1">  1        2 0.24772964E+00 0.17541631E+03</pdfrwt>
<pdfrwt beam="2">  1       -2 0.45613653E-02 0.17541631E+03</pdfrwt>
<totfact> 0.26832804E+03</totfact>
</mgrwt>
</event>
<event>
 4    1  0.7691552E-001  0.1782073E+03  0.7546771E-02  0.1169549E+00
          1   -1    0    0  502    0  0.00000000000E+00  0.00000000000E+00  0.35327905407E+03  0.35327905407E+03  0.00000000000E+00 0.  1.
         -1   -1    0    0    0  501 -0.00000000000E+00 -0.00000000000E+00 -0.89923455371E+02  0.89923455371E+02  0.00000000000E+00 0. -1.
          6    1    1    2  502    0 -0.30361255361E+02 -0.30117210054E+02  0.12770290815E+03  0.21923933251E+03  0.17300000000E+03 0.  1.
         -6    1    1    2    0  501  0.30361255361E+02  0.30117210054E+02  0.13565269055E+03  0.22396317693E+03  0.17300000000E+03 0. -1.
<mgrwt>
<rscale>  2 0.17820733E+03</rscale>
<asrwt>0</asrwt>
<pdfrwt beam="1">  1        1 0.54350623E-01 0.17820733E+03</pdfrwt>
<pdfrwt beam="2">  1       -1 0.13834378E-01 0.17820733E+03</pdfrwt>
<totfact> 0.25584395E+03</totfact>
</mgrwt>
</event>
<event>
 4    1  0.7691552E-001  0.1957915E+03  0.7546771E-02  0.1153339E+00
         -1   -1    0    0    0  501 -0.00000000000E+00  0.00000000000E+00  0.41425249169E+03  0.41425249169E+03  0.00000000000E+00 0.  1.
          1   -1    0    0  502    0  0.00000000000E+00 -0.00000000000E+00 -0.10313890809E+03  0.10313890809E+03  0.00000000000E+00 0. -1.
          6    1    1    2  502    0  0.68194668288E+02 -0.61276424453E+02  0.72621609501E+02  0.20882579137E+03  0.17300000000E+03 0.  1.
         -6    1    1    2    0  501 -0.68194668288E+02  0.61276424453E+02  0.23849197411E+03  0.30856560840E+03  0.17300000000E+03 0. -1.
<mgrwt>
<rscale>  2 0.19579150E+03</rscale>
<asrwt>0</asrwt>
<pdfrwt beam="2">  1        1 0.15867525E-01 0.19579150E+03</pdfrwt>
<pdfrwt beam="1">  1       -1 0.63731151E-01 0.19579150E+03</pdfrwt>
<totfact> 0.89034724E+02</totfact>
</mgrwt>
</event>
<event>
 4    1  0.7691552E-001  0.1788676E+03  0.7546771E-02  0.1168903E+00
          1   -1    0    0  502    0  0.00000000000E+00  0.00000000000E+00  0.11266528453E+04  0.11266528453E+04  0.00000000000E+00 0.  1.
         -1   -1    0    0    0  501 -0.00000000000E+00 -0.00000000000E+00 -0.35237051350E+02  0.35237051350E+02  0.00000000000E+00 0. -1.
          6    1    1    2  502    0 -0.26011077441E+02  0.37256561306E+02  0.80166253437E+03  0.82137472966E+03  0.17300000000E+03 0.  1.
         -6    1    1    2    0  501  0.26011077441E+02 -0.37256561306E+02  0.28975325955E+03  0.34051516696E+03  0.17300000000E+03 0. -1.
<mgrwt>
<rscale>  2 0.17886763E+03</rscale>
<asrwt>0</asrwt>
<pdfrwt beam="1">  1        1 0.17333118E+00 0.17886763E+03</pdfrwt>
<pdfrwt beam="2">  1       -1 0.54210857E-02 0.17886763E+03</pdfrwt>
<totfact> 0.20050895E+03</totfact>
</mgrwt>
</event>
<event>
 4    1  0.7691552E-001  0.2033645E+03  0.7546771E-02  0.1146931E+00
         -2   -1    0    0    0  501 -0.00000000000E+00  0.00000000000E+00  0.64153079893E+02  0.64153079893E+02  0.00000000000E+00 0. -1.
          2   -1    0    0  502    0  0.00000000000E+00 -0.00000000000E+00 -0.10141819766E+04  0.10141819766E+04  0.00000000000E+00 0.  1.
          6    1    1    2  502    0  0.26663030743E+02  0.10352398087E+03 -0.80046425765E+03  0.82589355222E+03  0.17300000000E+03 0.  1.
         -6    1    1    2    0  501 -0.26663030743E+02 -0.10352398087E+03 -0.14956463906E+03  0.25244150428E+03  0.17300000000E+03 0. -1.
<mgrwt>
<rscale>  2 0.20336453E+03</rscale>
<asrwt>0</asrwt>
<pdfrwt beam="2">  1        2 0.15602798E+00 0.20336453E+03</pdfrwt>
<pdfrwt beam="1">  1       -2 0.98697055E-02 0.20336453E+03</pdfrwt>
<totfact> 0.17415737E+03</totfact>
</mgrwt>
</event>
<event>
 4    1  0.7691552E-001  0.1974833E+03  0.7546771E-02  0.1151880E+00
         -2   -1    0    0    0  501 -0.00000000000E+00  0.00000000000E+00  0.57480213958E+02  0.57480213958E+02  0.00000000000E+00 0. -1.
          2   -1    0    0  502    0  0.00000000000E+00 -0.00000000000E+00 -0.99990693313E+03  0.99990693313E+03  0.00000000000E+00 0.  1.
          6    1    1    2  502    0 -0.15436340971E+02  0.93980693699E+02 -0.77096376635E+03  0.79585474833E+03  0.17300000000E+03 0.  1.
         -6    1    1    2    0  501  0.15436340971E+02 -0.93980693699E+02 -0.17146295282E+03  0.26153239876E+03  0.17300000000E+03 0. -1.
<mgrwt>
<rscale>  2 0.19748329E+03</rscale>
<asrwt>0</asrwt>
<pdfrwt beam="2">  1        2 0.15383184E+00 0.19748329E+03</pdfrwt>
<pdfrwt beam="1">  1       -2 0.88431097E-02 0.19748329E+03</pdfrwt>
<totfact> 0.21121255E+03</totfact>
</mgrwt>
</event>
<event>
 4    1  0.7691552E-001  0.1881195E+03  0.7546771E-02  0.1160168E+00
         -2   -1    0    0    0  501 -0.00000000000E+00  0.00000000000E+00  0.19929152400E+02  0.19929152400E+02  0.00000000000E+00 0.  1.
          2   -1    0    0  502    0  0.00000000000E+00 -0.00000000000E+00 -0.19389545843E+04  0.19389545843E+04  0.00000000000E+00 0. -1.
          6    1    1    2  502    0  0.28788674705E+02  0.68052539914E+02 -0.12436826590E+04  0.12578296754E+04  0.17300000000E+03 0. -1.
         -6    1    1    2    0  501 -0.28788674705E+02 -0.68052539914E+02 -0.67534277291E+03  0.70105406132E+03  0.17300000000E+03 0.  1.
<mgrwt>
<rscale>  2 0.18811947E+03</rscale>
<asrwt>0</asrwt>
<pdfrwt beam="2">  1        2 0.29830079E+00 0.18811947E+03</pdfrwt>
<pdfrwt beam="1">  1       -2 0.30660226E-02 0.18811947E+03</pdfrwt>
<totfact> 0.32804449E+03</totfact>
</mgrwt>
</event>
<event>
 4    1  0.7691552E-001  0.2337763E+03  0.7546771E-02  0.1124010E+00
          2   -1    0    0  502    0  0.00000000000E+00  0.00000000000E+00  0.25798282738E+04  0.25798282738E+04  0.00000000000E+00 0.  1.
         -2   -1    0    0    0  501 -0.00000000000E+00 -0.00000000000E+00 -0.22281690317E+02  0.22281690317E+02  0.00000000000E+00 0. -1.
          6    1    1    2  502    0 -0.13597076175E+03 -0.78957573929E+02  0.15675360795E+04  0.15848724577E+04  0.17300000000E+03 0. -1.
         -6    1    1    2    0  501  0.13597076175E+03  0.78957573929E+02  0.99001050391E+03  0.10172375064E+04  0.17300000000E+03 0.  1.
<mgrwt>
<rscale>  2 0.23377627E+03</rscale>
<asrwt>0</asrwt>
<pdfrwt beam="1">  1        2 0.39689642E+00 0.23377627E+03</pdfrwt>
<pdfrwt beam="2">  1       -2 0.34279544E-02 0.23377627E+03</pdfrwt>
<totfact> 0.12633873E+03</totfact>
</mgrwt>
</event>
<event>
 4    1  0.7691552E-001  0.1817722E+03  0.7546771E-02  0.1166099E+00
         -1   -1    0    0    0  501 -0.00000000000E+00  0.00000000000E+00  0.96095441546E+02  0.96095441546E+02  0.00000000000E+00 0.  1.
          1   -1    0    0  502    0  0.00000000000E+00 -0.00000000000E+00 -0.45619852765E+03  0.45619852765E+03  0.00000000000E+00 0. -1.
          6    1    1    2  502    0 -0.20095722686E+02 -0.52041135271E+02 -0.31709969983E+03  0.36550422359E+03  0.17300000000E+03 0. -1.
         -6    1    1    2    0  501  0.20095722686E+02  0.52041135271E+02 -0.43003386269E+02  0.18678974560E+03  0.17300000000E+03 0.  1.
<mgrwt>
<rscale>  2 0.18177216E+03</rscale>
<asrwt>0</asrwt>
<pdfrwt beam="2">  1        1 0.70184390E-01 0.18177216E+03</pdfrwt>
<pdfrwt beam="1">  1       -1 0.14783914E-01 0.18177216E+03</pdfrwt>
<totfact> 0.16646851E+03</totfact>
</mgrwt>
</event>
<event>
 4    1  0.7691552E-001  0.2077812E+03  0.7546771E-02  0.1143335E+00
          2   -1    0    0  502    0  0.00000000000E+00  0.00000000000E+00  0.36839434981E+04  0.36839434981E+04  0.00000000000E+00 0. -1.
         -2   -1    0    0    0  501 -0.00000000000E+00 -0.00000000000E+00 -0.11724797023E+02  0.11724797023E+02  0.00000000000E+00 0.  1.
          6    1    1    2  502    0 -0.11196390006E+02 -0.11453675253E+03  0.18763289496E+04  0.18877985470E+04  0.17300000000E+03 0. -1.
         -6    1    1    2    0  501  0.11196390006E+02  0.11453675253E+03  0.17958897514E+04  0.18078697481E+04  0.17300000000E+03 0.  1.
<mgrwt>
<rscale>  2 0.20778120E+03</rscale>
<asrwt>0</asrwt>
<pdfrwt beam="1">  1        2 0.56675961E+00 0.20778120E+03</pdfrwt>
<pdfrwt beam="2">  1       -2 0.18038179E-02 0.20778120E+03</pdfrwt>
<totfact> 0.69737963E+02</totfact>
</mgrwt>
</event>
<event>
 4    1  0.7691552E-001  0.3137209E+03  0.7546771E-02  0.1078576E+00
         -2   -1    0    0    0  501 -0.00000000000E+00  0.00000000000E+00  0.20240838093E+03  0.20240838093E+03  0.00000000000E+00 0. -1.
          2   -1    0    0  502    0  0.00000000000E+00 -0.00000000000E+00 -0.50055932239E+03  0.50055932239E+03  0.00000000000E+00 0.  1.
          6    1    1    2  502    0 -0.17040910740E+03  0.19862660377E+03 -0.89645105836E+02  0.32627754537E+03  0.17300000000E+03 0.  1.
         -6    1    1    2    0  501  0.17040910740E+03 -0.19862660377E+03 -0.20850583562E+03  0.37669015795E+03  0.17300000000E+03 0.  1.
<mgrwt>
<rscale>  2 0.31372088E+03</rscale>
<asrwt>0</asrwt>
<pdfrwt beam="2">  1        2 0.77009127E-01 0.31372088E+03</pdfrwt>
<pdfrwt beam="1">  1       -2 0.31139751E-01 0.31372088E+03</pdfrwt>
<totfact> 0.59576656E+02</totfact>
</mgrwt>
</event>
<event>
 4    1  0.7691552E-001  0.1763195E+03  0.7546771E-02  0.1171413E+00
         -2   -1    0    0    0  501 -0.00000000000E+00  0.00000000000E+00  0.83491256009E+02  0.83491256009E+02  0.00000000000E+00 0. -1.
          2   -1    0    0  502    0  0.00000000000E+00 -0.00000000000E+00 -0.37961970849E+03  0.37961970849E+03  0.00000000000E+00 0.  1.
          6    1    1    2  502    0  0.10225730458E+02 -0.32480607239E+02 -0.18009219198E+03  0.25203522179E+03  0.17300000000E+03 0.  1.
         -6    1    1    2    0  501 -0.10225730458E+02  0.32480607239E+02 -0.11603626050E+03  0.21107574271E+03  0.17300000000E+03 0. -1.
<mgrwt>
<rscale>  2 0.17631947E+03</rscale>
<asrwt>0</asrwt>
<pdfrwt beam="2">  1        2 0.58403032E-01 0.17631947E+03</pdfrwt>
<pdfrwt beam="1">  1       -2 0.12844809E-01 0.17631947E+03</pdfrwt>
<totfact> 0.36601316E+03</totfact>
</mgrwt>
</event>
<event>
 4    1  0.7691552E-001  0.2736781E+03  0.7546771E-02  0.1099193E+00
         -3   -1    0    0    0  501 -0.00000000000E+00  0.00000000000E+00  0.85614118587E+03  0.85614118587E+03  0.00000000000E+00 0. -1.
          3   -1    0    0  502    0  0.00000000000E+00 -0.00000000000E+00 -0.88734492310E+02  0.88734492310E+02  0.00000000000E+00 0.  1.
          6    1    1    2  502    0  0.18757242211E+03  0.98930675026E+02  0.32764650568E+03  0.42690973833E+03  0.17300000000E+03 0. -1.
         -6    1    1    2    0  501 -0.18757242211E+03 -0.98930675026E+02  0.43976018788E+03  0.51796593985E+03  0.17300000000E+03 0.  1.
<mgrwt>
<rscale>  2 0.27367808E+03</rscale>
<asrwt>0</asrwt>
<pdfrwt beam="2">  1        3 0.13651461E-01 0.27367808E+03</pdfrwt>
<pdfrwt beam="1">  1       -3 0.13171402E+00 0.27367808E+03</pdfrwt>
<totfact> 0.51431392E+01</totfact>
</mgrwt>
</event>
<event>
 4    1  0.7691552E-001  0.1875049E+03  0.7546771E-02  0.1160731E+00
          2   -1    0    0  502    0  0.00000000000E+00  0.00000000000E+00  0.12137142181E+04  0.12137142181E+04  0.00000000000E+00 0. -1.
         -2   -1    0    0    0  501 -0.00000000000E+00 -0.00000000000E+00 -0.33308364659E+02  0.33308364659E+02  0.00000000000E+00 0.  1.
          6    1    1    2  502    0 -0.67673524588E+02 -0.25482861165E+02  0.81529665421E+03  0.83658037062E+03  0.17300000000E+03 0. -1.
         -6    1    1    2    0  501  0.67673524588E+02  0.25482861165E+02  0.36510919926E+03  0.41044221216E+03  0.17300000000E+03 0.  1.
<mgrwt>
<rscale>  2 0.18750489E+03</rscale>
<asrwt>0</asrwt>
<pdfrwt beam="1">  1        2 0.18672523E+00 0.18750489E+03</pdfrwt>
<pdfrwt beam="2">  1       -2 0.51243647E-02 0.18750489E+03</pdfrwt>
<totfact> 0.36751010E+03</totfact>
</mgrwt>
</event>
<event>
 4    1  0.7691552E-001  0.2265251E+03  0.7546771E-02  0.1129110E+00
          1   -1    0    0  502    0  0.00000000000E+00  0.00000000000E+00  0.39550677335E+03  0.39550677335E+03  0.00000000000E+00 0. -1.
         -1   -1    0    0    0  501 -0.00000000000E+00 -0.00000000000E+00 -0.13291169042E+03  0.13291169042E+03  0.00000000000E+00 0.  1.
          6    1    1    2  502    0  0.80354756476E+01  0.14601391964E+03  0.90492809083E+02  0.24393151107E+03  0.17300000000E+03 0.  1.
         -6    1    1    2    0  501 -0.80354756476E+01 -0.14601391964E+03  0.17210227384E+03  0.28448695270E+03  0.17300000000E+03 0.  1.
<mgrwt>
<rscale>  2 0.22652513E+03</rscale>
<asrwt>0</asrwt>
<pdfrwt beam="1">  1        1 0.60847195E-01 0.22652513E+03</pdfrwt>
<pdfrwt beam="2">  1       -1 0.20447953E-01 0.22652513E+03</pdfrwt>
<totfact> 0.11940599E+03</totfact>
</mgrwt>
</event>
<event>
 4    1  0.7691552E-001  0.1916151E+03  0.7546771E-02  0.1157013E+00
          2   -1    0    0  502    0  0.00000000000E+00  0.00000000000E+00  0.36522777153E+03  0.36522777153E+03  0.00000000000E+00 0. -1.
         -2   -1    0    0    0  501 -0.00000000000E+00 -0.00000000000E+00 -0.22274477238E+03  0.22274477238E+03  0.00000000000E+00 0.  1.
          6    1    1    2  502    0 -0.71042957248E+02 -0.41716393486E+02  0.28900499904E+03  0.34675675730E+03  0.17300000000E+03 0. -1.
         -6    1    1    2    0  501  0.71042957248E+02  0.41716393486E+02 -0.14652199989E+03  0.24121578662E+03  0.17300000000E+03 0.  1.
<mgrwt>
<rscale>  2 0.19161513E+03</rscale>
<asrwt>0</asrwt>
<pdfrwt beam="1">  1        2 0.56188888E-01 0.19161513E+03</pdfrwt>
<pdfrwt beam="2">  1       -2 0.34268427E-01 0.19161513E+03</pdfrwt>
<totfact> 0.70616927E+02</totfact>
</mgrwt>
</event>
<event>
 4    1  0.7691552E-001  0.2225073E+03  0.7546771E-02  0.1132027E+00
          2   -1    0    0  502    0  0.00000000000E+00  0.00000000000E+00  0.13311978757E+04  0.13311978757E+04  0.00000000000E+00 0.  1.
         -2   -1    0    0    0  501 -0.00000000000E+00 -0.00000000000E+00 -0.49578951612E+02  0.49578951612E+02  0.00000000000E+00 0. -1.
          6    1    1    2  502    0  0.29141335150E+02 -0.13686232764E+03  0.98589938424E+03  0.10106963491E+04  0.17300000000E+03 0.  1.
         -6    1    1    2    0  501 -0.29141335150E+02  0.13686232764E+03  0.29571953984E+03  0.37008047825E+03  0.17300000000E+03 0. -1.
<mgrwt>
<rscale>  2 0.22250734E+03</rscale>
<asrwt>0</asrwt>
<pdfrwt beam="1">  1        2 0.20479965E+00 0.22250734E+03</pdfrwt>
<pdfrwt beam="2">  1       -2 0.76275320E-02 0.22250734E+03</pdfrwt>
<totfact> 0.17204580E+03</totfact>
</mgrwt>
</event>
<event>
 4    1  0.7691552E-001  0.1730453E+03  0.7546771E-02  0.1174709E+00
         -2   -1    0    0    0  501 -0.00000000000E+00  0.00000000000E+00  0.60343583940E+03  0.60343583940E+03  0.00000000000E+00 0. -1.
          2   -1    0    0  502    0  0.00000000000E+00 -0.00000000000E+00 -0.49866151731E+02  0.49866151731E+02  0.00000000000E+00 0.  1.
          6    1    1    2  502    0  0.35842512038E+01  0.16785238089E+01  0.29956595857E+03  0.34595437248E+03  0.17300000000E+03 0. -1.
         -6    1    1    2    0  501 -0.35842512038E+01 -0.16785238089E+01  0.25400372910E+03  0.30734761866E+03  0.17300000000E+03 0.  1.
<mgrwt>
<rscale>  2 0.17304527E+03</rscale>
<asrwt>0</asrwt>
<pdfrwt beam="2">  1        2 0.76717161E-02 0.17304527E+03</pdfrwt>
<pdfrwt beam="1">  1       -2 0.92836278E-01 0.17304527E+03</pdfrwt>
<totfact> 0.89986627E+02</totfact>
</mgrwt>
</event>
<event>
 4    1  0.7691552E-001  0.1823764E+03  0.7546771E-02  0.1165523E+00
          2   -1    0    0  502    0  0.00000000000E+00  0.00000000000E+00  0.81565377494E+03  0.81565377494E+03  0.00000000000E+00 0. -1.
         -2   -1    0    0    0  501 -0.00000000000E+00 -0.00000000000E+00 -0.52107473473E+02  0.52107473473E+02  0.00000000000E+00 0.  1.
          6    1    1    2  502    0  0.57720020229E+02  0.74676612621E+00  0.17946422860E+03  0.25586826247E+03  0.17300000000E+03 0.  1.
         -6    1    1    2    0  501 -0.57720020229E+02 -0.74676612621E+00  0.58408207288E+03  0.61189298595E+03  0.17300000000E+03 0. -1.
<mgrwt>
<rscale>  2 0.18237642E+03</rscale>
<asrwt>0</asrwt>
<pdfrwt beam="1">  1        2 0.12548519E+00 0.18237642E+03</pdfrwt>
<pdfrwt beam="2">  1       -2 0.80165350E-02 0.18237642E+03</pdfrwt>
<totfact> 0.32229445E+03</totfact>
</mgrwt>
</event>
<event>
 4    1  0.7691552E-001  0.2619546E+03  0.7546771E-02  0.1105975E+00
          2   -1    0    0  502    0  0.00000000000E+00  0.00000000000E+00  0.91735427656E+03  0.91735427656E+03  0.00000000000E+00 0. -1.
         -2   -1    0    0    0  501 -0.00000000000E+00 -0.00000000000E+00 -0.75694926113E+02  0.75694926113E+02  0.00000000000E+00 0.  1.
          6    1    1    2  502    0  0.18864136191E+03  0.55728425797E+02  0.36691099582E+03  0.45082579753E+03  0.17300000000E+03 0.  1.
         -6    1    1    2    0  501 -0.18864136191E+03 -0.55728425797E+02  0.47474835463E+03  0.54222340515E+03  0.17300000000E+03 0. -1.
<mgrwt>
<rscale>  2 0.26195462E+03</rscale>
<asrwt>0</asrwt>
<pdfrwt beam="1">  1        2 0.14113142E+00 0.26195462E+03</pdfrwt>
<pdfrwt beam="2">  1       -2 0.11645374E-01 0.26195462E+03</pdfrwt>
<totfact> 0.15366374E+03</totfact>
</mgrwt>
</event>
<event>
 4    1  0.7691552E-001  0.1826171E+03  0.7546771E-02  0.1165294E+00
         -1   -1    0    0    0  501 -0.00000000000E+00  0.00000000000E+00  0.18859763729E+03  0.18859763729E+03  0.00000000000E+00 0. -1.
          1   -1    0    0  502    0  0.00000000000E+00 -0.00000000000E+00 -0.23068622199E+03  0.23068622199E+03  0.00000000000E+00 0.  1.
          6    1    1    2  502    0  0.53773740578E+02 -0.22987051531E+02  0.80253559917E+02  0.19947344082E+03  0.17300000000E+03 0. -1.
         -6    1    1    2    0  501 -0.53773740578E+02  0.22987051531E+02 -0.12234214462E+03  0.21981041846E+03  0.17300000000E+03 0.  1.
<mgrwt>
<rscale>  2 0.18261714E+03</rscale>
<asrwt>0</asrwt>
<pdfrwt beam="2">  1        1 0.35490188E-01 0.18261714E+03</pdfrwt>
<pdfrwt beam="1">  1       -1 0.29015021E-01 0.18261714E+03</pdfrwt>
<totfact> 0.13134632E+03</totfact>
</mgrwt>
</event>
<event>
 4    1  0.7691552E-001  0.1831238E+03  0.7546771E-02  0.1164814E+00
         -2   -1    0    0    0  501 -0.00000000000E+00  0.00000000000E+00  0.13314035830E+02  0.13314035830E+02  0.00000000000E+00 0.  1.
          2   -1    0    0  502    0  0.00000000000E+00 -0.00000000000E+00 -0.31822626683E+04  0.31822626683E+04  0.00000000000E+00 0. -1.
          6    1    1    2  502    0 -0.10241674129E+02  0.59164563262E+02 -0.85487327975E+03  0.87426692827E+03  0.17300000000E+03 0.  1.
         -6    1    1    2    0  501  0.10241674129E+02 -0.59164563262E+02 -0.23140753527E+04  0.23213097758E+04  0.17300000000E+03 0.  1.
<mgrwt>
<rscale>  2 0.18312383E+03</rscale>
<asrwt>0</asrwt>
<pdfrwt beam="2">  1        2 0.48957885E+00 0.18312383E+03</pdfrwt>
<pdfrwt beam="1">  1       -2 0.20483133E-02 0.18312383E+03</pdfrwt>
<totfact> 0.12294260E+03</totfact>
</mgrwt>
</event>
<event>
 4    1  0.7691552E-001  0.2471305E+03  0.7546771E-02  0.1115132E+00
          2   -1    0    0  502    0  0.00000000000E+00  0.00000000000E+00  0.19932527024E+03  0.19932527024E+03  0.00000000000E+00 0.  1.
         -2   -1    0    0    0  501 -0.00000000000E+00 -0.00000000000E+00 -0.30708008373E+03  0.30708008373E+03  0.00000000000E+00 0. -1.
          6    1    1    2  502    0  0.62406367019E+02  0.16507554814E+03 -0.41971638489E+02  0.25066932336E+03  0.17300000000E+03 0. -1.
         -6    1    1    2    0  501 -0.62406367019E+02 -0.16507554814E+03 -0.65783175003E+02  0.25573603061E+03  0.17300000000E+03 0. -1.
<mgrwt>
<rscale>  2 0.24713051E+03</rscale>
<asrwt>0</asrwt>
<pdfrwt beam="1">  1        2 0.30665427E-01 0.24713051E+03</pdfrwt>
<pdfrwt beam="2">  1       -2 0.47243089E-01 0.24713051E+03</pdfrwt>
<totfact> 0.73705589E+02</totfact>
</mgrwt>
</event>
<event>
 4    1  0.7691552E-001  0.1741927E+03  0.7546771E-02  0.1173545E+00
          1   -1    0    0  502    0  0.00000000000E+00  0.00000000000E+00  0.44967156628E+03  0.44967156628E+03  0.00000000000E+00 0. -1.
         -1   -1    0    0    0  501 -0.00000000000E+00 -0.00000000000E+00 -0.14626456296E+03  0.14626456296E+03  0.00000000000E+00 0.  1.
          6    1    1    2  502    0  0.16254883051E+02 -0.12241907795E+02  0.37039169368E+03  0.40930806525E+03  0.17300000000E+03 0. -1.
         -6    1    1    2    0  501 -0.16254883051E+02  0.12241907795E+02 -0.66984690362E+02  0.18662806400E+03  0.17300000000E+03 0.  1.
<mgrwt>
<rscale>  2 0.17419267E+03</rscale>
<asrwt>0</asrwt>
<pdfrwt beam="1">  1        1 0.69180240E-01 0.17419267E+03</pdfrwt>
<pdfrwt beam="2">  1       -1 0.22502241E-01 0.17419267E+03</pdfrwt>
<totfact> 0.86417653E+02</totfact>
</mgrwt>
</event>
<event>
 4    1  0.7691552E-001  0.2460949E+03  0.7546771E-02  0.1115798E+00
          2   -1    0    0  502    0  0.00000000000E+00  0.00000000000E+00  0.75514731826E+03  0.75514731826E+03  0.00000000000E+00 0.  1.
         -2   -1    0    0    0  501 -0.00000000000E+00 -0.00000000000E+00 -0.82292881393E+02  0.82292881393E+02  0.00000000000E+00 0. -1.
          6    1    1    2  502    0  0.16280897792E+03  0.64241356274E+02  0.26964994366E+03  0.36506685314E+03  0.17300000000E+03 0. -1.
         -6    1    1    2    0  501 -0.16280897792E+03 -0.64241356274E+02  0.40320449321E+03  0.47237334651E+03  0.17300000000E+03 0.  1.
<mgrwt>
<rscale>  2 0.24609493E+03</rscale>
<asrwt>0</asrwt>
<pdfrwt beam="1">  1        2 0.11617651E+00 0.24609493E+03</pdfrwt>
<pdfrwt beam="2">  1       -2 0.12660444E-01 0.24609493E+03</pdfrwt>
<totfact> 0.17267391E+03</totfact>
</mgrwt>
</event>
<event>
 4    1  0.7691552E-001  0.4363400E+03  0.7546771E-02  0.1031876E+00
          2   -1    0    0  502    0  0.00000000000E+00  0.00000000000E+00  0.37099772913E+03  0.37099772913E+03  0.00000000000E+00 0. -1.
         -2   -1    0    0    0  501 -0.00000000000E+00 -0.00000000000E+00 -0.60570360386E+03  0.60570360386E+03  0.00000000000E+00 0.  1.
          6    1    1    2  502    0 -0.27981717366E+03 -0.28664602745E+03  0.73501732262E+02  0.44248740137E+03  0.17300000000E+03 0. -1.
         -6    1    1    2    0  501  0.27981717366E+03  0.28664602745E+03 -0.30820760698E+03  0.53421393162E+03  0.17300000000E+03 0.  1.
<mgrwt>
<rscale>  2 0.43634000E+03</rscale>
<asrwt>0</asrwt>
<pdfrwt beam="1">  1        2 0.57076575E-01 0.43634000E+03</pdfrwt>
<pdfrwt beam="2">  1       -2 0.93185168E-01 0.43634000E+03</pdfrwt>
<totfact> 0.86991558E+01</totfact>
</mgrwt>
</event>
<event>
 4    1  0.7691552E-001  0.2520712E+03  0.7546771E-02  0.1112003E+00
          2   -1    0    0  502    0  0.00000000000E+00  0.00000000000E+00  0.12091657318E+04  0.12091657318E+04  0.00000000000E+00 0. -1.
         -2   -1    0    0    0  501 -0.00000000000E+00 -0.00000000000E+00 -0.52653414563E+02  0.52653414563E+02  0.00000000000E+00 0.  1.
          6    1    1    2  502    0  0.63866242826E+02  0.17184876582E+03  0.55009915549E+03  0.60510245096E+03  0.17300000000E+03 0.  1.
         -6    1    1    2    0  501 -0.63866242826E+02 -0.17184876582E+03  0.60641316178E+03  0.65671669544E+03  0.17300000000E+03 0. -1.
<mgrwt>
<rscale>  2 0.25207121E+03</rscale>
<asrwt>0</asrwt>
<pdfrwt beam="1">  1        2 0.18602548E+00 0.25207121E+03</pdfrwt>
<pdfrwt beam="2">  1       -2 0.81005262E-02 0.25207121E+03</pdfrwt>
<totfact> 0.18305131E+03</totfact>
</mgrwt>
</event>
<event>
 4    1  0.7691552E-001  0.1777595E+03  0.7546771E-02  0.1169989E+00
         -2   -1    0    0    0  501 -0.00000000000E+00  0.00000000000E+00  0.41032896440E+03  0.41032896440E+03  0.00000000000E+00 0. -1.
          2   -1    0    0  502    0  0.00000000000E+00 -0.00000000000E+00 -0.78288147992E+02  0.78288147992E+02  0.00000000000E+00 0.  1.
          6    1    1    2  502    0  0.25383416916E+02 -0.32017570070E+02  0.19726617037E+03  0.26554168151E+03  0.17300000000E+03 0. -1.
         -6    1    1    2    0  501 -0.25383416916E+02  0.32017570070E+02  0.13477464603E+03  0.22307543088E+03  0.17300000000E+03 0.  1.
<mgrwt>
<rscale>  2 0.17775951E+03</rscale>
<asrwt>0</asrwt>
<pdfrwt beam="2">  1        2 0.12044331E-01 0.17775951E+03</pdfrwt>
<pdfrwt beam="1">  1       -2 0.63127532E-01 0.17775951E+03</pdfrwt>
<totfact> 0.11916760E+03</totfact>
</mgrwt>
</event>
<event>
 4    1  0.7691552E-001  0.1768244E+03  0.7546771E-02  0.1170912E+00
          2   -1    0    0  502    0  0.00000000000E+00  0.00000000000E+00  0.55703069509E+03  0.55703069509E+03  0.00000000000E+00 0. -1.
         -2   -1    0    0    0  501 -0.00000000000E+00 -0.00000000000E+00 -0.56284067845E+02  0.56284067845E+02  0.00000000000E+00 0.  1.
          6    1    1    2  502    0  0.27586479001E+02 -0.24017450640E+02  0.23439649976E+03  0.29361296098E+03  0.17300000000E+03 0.  1.
         -6    1    1    2    0  501 -0.27586479001E+02  0.24017450640E+02  0.26635012749E+03  0.31970180196E+03  0.17300000000E+03 0. -1.
<mgrwt>
<rscale>  2 0.17682435E+03</rscale>
<asrwt>0</asrwt>
<pdfrwt beam="1">  1        2 0.85697026E-01 0.17682435E+03</pdfrwt>
<pdfrwt beam="2">  1       -2 0.86590878E-02 0.17682435E+03</pdfrwt>
<totfact> 0.44963971E+03</totfact>
</mgrwt>
</event>
<event>
 4    1  0.7691552E-001  0.1934694E+03  0.7546771E-02  0.1155369E+00
          2   -1    0    0  502    0  0.00000000000E+00  0.00000000000E+00  0.13298314478E+04  0.13298314478E+04  0.00000000000E+00 0. -1.
         -2   -1    0    0    0  501 -0.00000000000E+00 -0.00000000000E+00 -0.29609379447E+02  0.29609379447E+02  0.00000000000E+00 0.  1.
          6    1    1    2  502    0  0.70858408393E+02 -0.49804411270E+02  0.80118417871E+03  0.82421264346E+03  0.17300000000E+03 0. -1.
         -6    1    1    2    0  501 -0.70858408393E+02  0.49804411270E+02  0.49903788964E+03  0.53522818378E+03  0.17300000000E+03 0. -1.
<mgrwt>
<rscale>  2 0.19346936E+03</rscale>
<asrwt>0</asrwt>
<pdfrwt beam="1">  1        2 0.20458941E+00 0.19346936E+03</pdfrwt>
<pdfrwt beam="2">  1       -2 0.45552902E-02 0.19346936E+03</pdfrwt>
<totfact> 0.37912780E+03</totfact>
</mgrwt>
</event>
<event>
 4    1  0.7691552E-001  0.2187244E+03  0.7546771E-02  0.1134838E+00
         -1   -1    0    0    0  501 -0.00000000000E+00  0.00000000000E+00  0.61161051220E+03  0.61161051220E+03  0.00000000000E+00 0. -1.
          1   -1    0    0  502    0  0.00000000000E+00 -0.00000000000E+00 -0.80454661114E+02  0.80454661114E+02  0.00000000000E+00 0.  1.
          6    1    1    2  502    0 -0.12617443347E+03  0.44625058963E+02  0.20791270243E+03  0.30177487533E+03  0.17300000000E+03 0.  1.
         -6    1    1    2    0  501  0.12617443347E+03 -0.44625058963E+02  0.32324314866E+03  0.39029029799E+03  0.17300000000E+03 0. -1.
<mgrwt>
<rscale>  2 0.21872445E+03</rscale>
<asrwt>0</asrwt>
<pdfrwt beam="2">  1        1 0.12377641E-01 0.21872445E+03</pdfrwt>
<pdfrwt beam="1">  1       -1 0.94093922E-01 0.21872445E+03</pdfrwt>
<totfact> 0.55542588E+02</totfact>
</mgrwt>
</event>
<event>
 4    1  0.7691552E-001  0.2187299E+03  0.7546771E-02  0.1134834E+00
          2   -1    0    0  502    0  0.00000000000E+00  0.00000000000E+00  0.25781196304E+04  0.25781196304E+04  0.00000000000E+00 0. -1.
         -2   -1    0    0    0  501 -0.00000000000E+00 -0.00000000000E+00 -0.27875861399E+02  0.27875861399E+02  0.00000000000E+00 0.  1.
          6    1    1    2  502    0  0.51937642465E+02  0.12335411305E+03  0.20284871803E+04  0.20402458177E+04  0.17300000000E+03 0. -1.
         -6    1    1    2    0  501 -0.51937642465E+02 -0.12335411305E+03  0.52175658869E+03  0.56574967410E+03  0.17300000000E+03 0.  1.
<mgrwt>
<rscale>  2 0.21872987E+03</rscale>
<asrwt>0</asrwt>
<pdfrwt beam="1">  1        2 0.39663360E+00 0.21872987E+03</pdfrwt>
<pdfrwt beam="2">  1       -2 0.42885961E-02 0.21872987E+03</pdfrwt>
<totfact> 0.90692661E+02</totfact>
</mgrwt>
</event>
<event>
 4    1  0.7691552E-001  0.2014724E+03  0.7546771E-02  0.1148503E+00
          2   -1    0    0  502    0  0.00000000000E+00  0.00000000000E+00  0.50037765532E+03  0.50037765532E+03  0.00000000000E+00 0. -1.
         -2   -1    0    0    0  501 -0.00000000000E+00 -0.00000000000E+00 -0.82550482483E+02  0.82550482483E+02  0.00000000000E+00 0.  1.
          6    1    1    2  502    0  0.30624701204E+02 -0.98611577876E+02  0.17055869522E+03  0.26397231698E+03  0.17300000000E+03 0.  1.
         -6    1    1    2    0  501 -0.30624701204E+02  0.98611577876E+02  0.24726847761E+03  0.31895582082E+03  0.17300000000E+03 0.  1.
<mgrwt>
<rscale>  2 0.20147237E+03</rscale>
<asrwt>0</asrwt>
<pdfrwt beam="1">  1        2 0.76981176E-01 0.20147237E+03</pdfrwt>
<pdfrwt beam="2">  1       -2 0.12700075E-01 0.20147237E+03</pdfrwt>
<totfact> 0.27709723E+03</totfact>
</mgrwt>
</event>
<event>
 4    1  0.7691552E-001  0.1892041E+03  0.7546771E-02  0.1159181E+00
         -2   -1    0    0    0  501 -0.00000000000E+00  0.00000000000E+00  0.79969863587E+02  0.79969863587E+02  0.00000000000E+00 0.  1.
          2   -1    0    0  502    0  0.00000000000E+00 -0.00000000000E+00 -0.46143307131E+03  0.46143307131E+03  0.00000000000E+00 0. -1.
          6    1    1    2  502    0  0.54862272040E+02  0.53472547989E+02 -0.23752382866E+03  0.30367046525E+03  0.17300000000E+03 0.  1.
         -6    1    1    2    0  501 -0.54862272040E+02 -0.53472547989E+02 -0.14393937907E+03  0.23773246965E+03  0.17300000000E+03 0. -1.
<mgrwt>
<rscale>  2 0.18920408E+03</rscale>
<asrwt>0</asrwt>
<pdfrwt beam="2">  1        2 0.70989703E-01 0.18920408E+03</pdfrwt>
<pdfrwt beam="1">  1       -2 0.12303056E-01 0.18920408E+03</pdfrwt>
<totfact> 0.31839137E+03</totfact>
</mgrwt>
</event>
<event>
 4    1  0.7691552E-001  0.2008799E+03  0.7546771E-02  0.1148999E+00
         -1   -1    0    0    0  501 -0.00000000000E+00  0.00000000000E+00  0.75581298052E+03  0.75581298052E+03  0.00000000000E+00 0.  1.
          1   -1    0    0  502    0  0.00000000000E+00 -0.00000000000E+00 -0.53949358181E+02  0.53949358181E+02  0.00000000000E+00 0. -1.
          6    1    1    2  502    0  0.49397383918E+02 -0.89351096725E+02  0.30969844731E+03  0.36914204351E+03  0.17300000000E+03 0. -1.
         -6    1    1    2    0  501 -0.49397383918E+02  0.89351096725E+02  0.39216517503E+03  0.44062029518E+03  0.17300000000E+03 0.  1.
<mgrwt>
<rscale>  2 0.20087986E+03</rscale>
<asrwt>0</asrwt>
<pdfrwt beam="2">  1        1 0.82999018E-02 0.20087986E+03</pdfrwt>
<pdfrwt beam="1">  1       -1 0.11627891E+00 0.20087986E+03</pdfrwt>
<totfact> 0.58826574E+02</totfact>
</mgrwt>
</event>
<event>
 4    1  0.7691552E-001  0.2484330E+03  0.7546771E-02  0.1114299E+00
          2   -1    0    0  502    0  0.00000000000E+00  0.00000000000E+00  0.28472528525E+03  0.28472528525E+03  0.00000000000E+00 0. -1.
         -2   -1    0    0    0  501 -0.00000000000E+00 -0.00000000000E+00 -0.21706950187E+03  0.21706950187E+03  0.00000000000E+00 0.  1.
          6    1    1    2  502    0  0.85556305184E+02  0.15642915307E+03  0.43198634431E+02  0.25216082825E+03  0.17300000000E+03 0. -1.
         -6    1    1    2    0  501 -0.85556305184E+02 -0.15642915307E+03  0.24457148948E+02  0.24963395887E+03  0.17300000000E+03 0.  1.
<mgrwt>
<rscale>  2 0.24843301E+03</rscale>
<asrwt>0</asrwt>
<pdfrwt beam="1">  1        2 0.43803890E-01 0.24843301E+03</pdfrwt>
<pdfrwt beam="2">  1       -2 0.33395308E-01 0.24843301E+03</pdfrwt>
<totfact> 0.97094439E+02</totfact>
</mgrwt>
</event>
<event>
 4    1  0.7691552E-001  0.2249606E+03  0.7546771E-02  0.1130238E+00
          1   -1    0    0  502    0  0.00000000000E+00  0.00000000000E+00  0.59227683244E+03  0.59227683244E+03  0.00000000000E+00 0.  1.
         -1   -1    0    0    0  501 -0.00000000000E+00 -0.00000000000E+00 -0.16716900669E+03  0.16716900669E+03  0.00000000000E+00 0. -1.
          6    1    1    2  502    0  0.14111124413E+03  0.27674659083E+02 -0.52945133821E+02  0.23110702536E+03  0.17300000000E+03 0. -1.
         -6    1    1    2    0  501 -0.14111124413E+03 -0.27674659083E+02  0.47805295957E+03  0.52833881377E+03  0.17300000000E+03 0.  1.
<mgrwt>
<rscale>  2 0.22496060E+03</rscale>
<asrwt>0</asrwt>
<pdfrwt beam="1">  1        1 0.91119511E-01 0.22496060E+03</pdfrwt>
<pdfrwt beam="2">  1       -1 0.25718309E-01 0.22496060E+03</pdfrwt>
<totfact> 0.47965485E+02</totfact>
</mgrwt>
</event>
<event>
 4    1  0.7691552E-001  0.1904532E+03  0.7546771E-02  0.1158053E+00
         -2   -1    0    0    0  501 -0.00000000000E+00  0.00000000000E+00  0.49415975283E+02  0.49415975283E+02  0.00000000000E+00 0. -1.
          2   -1    0    0  502    0  0.00000000000E+00 -0.00000000000E+00 -0.76242700566E+03  0.76242700566E+03  0.00000000000E+00 0.  1.
          6    1    1    2  502    0 -0.22209285896E+02  0.76486499896E+02 -0.43485508757E+03  0.47473296097E+03  0.17300000000E+03 0.  1.
         -6    1    1    2    0  501  0.22209285896E+02 -0.76486499896E+02 -0.27815594280E+03  0.33711001997E+03  0.17300000000E+03 0. -1.
<mgrwt>
<rscale>  2 0.19045324E+03</rscale>
<asrwt>0</asrwt>
<pdfrwt beam="2">  1        2 0.11729646E+00 0.19045324E+03</pdfrwt>
<pdfrwt beam="1">  1       -2 0.76024577E-02 0.19045324E+03</pdfrwt>
<totfact> 0.38134907E+03</totfact>
</mgrwt>
</event>
<event>
 4    1  0.7691552E-001  0.5464424E+03  0.7546771E-02  0.1002321E+00
         -2   -1    0    0    0  501 -0.00000000000E+00  0.00000000000E+00  0.25228629910E+03  0.25228629910E+03  0.00000000000E+00 0.  1.
          2   -1    0    0  502    0  0.00000000000E+00 -0.00000000000E+00 -0.12025315105E+04  0.12025315105E+04  0.00000000000E+00 0. -1.
          6    1    1    2  502    0 -0.24022345006E+03  0.45930708856E+03 -0.38378913540E+03  0.66775250506E+03  0.17300000000E+03 0.  1.
         -6    1    1    2    0  501  0.24022345006E+03 -0.45930708856E+03 -0.56645607595E+03  0.78706530449E+03  0.17300000000E+03 0. -1.
<mgrwt>
<rscale>  2 0.54644241E+03</rscale>
<asrwt>0</asrwt>
<pdfrwt beam="2">  1        2 0.18500484E+00 0.54644241E+03</pdfrwt>
<pdfrwt beam="1">  1       -2 0.38813277E-01 0.54644241E+03</pdfrwt>
<totfact> 0.12228569E+02</totfact>
</mgrwt>
</event>
<event>
 4    1  0.7691552E-001  0.1813756E+03  0.7546771E-02  0.1166478E+00
          3   -1    0    0  502    0  0.00000000000E+00  0.00000000000E+00  0.43467910833E+03  0.43467910833E+03  0.00000000000E+00 0.  1.
         -3   -1    0    0    0  501 -0.00000000000E+00 -0.00000000000E+00 -0.10803964316E+03  0.10803964316E+03  0.00000000000E+00 0. -1.
          6    1    1    2  502    0 -0.11372754788E+01 -0.54468324235E+02  0.31182649080E+03  0.36073931322E+03  0.17300000000E+03 0.  1.
         -6    1    1    2    0  501  0.11372754788E+01  0.54468324235E+02  0.14812974372E+02  0.18197943826E+03  0.17300000000E+03 0. -1.
<mgrwt>
<rscale>  2 0.18137555E+03</rscale>
<asrwt>0</asrwt>
<pdfrwt beam="1">  1        3 0.66873708E-01 0.18137555E+03</pdfrwt>
<pdfrwt beam="2">  1       -3 0.16621484E-01 0.18137555E+03</pdfrwt>
<totfact> 0.16488044E+02</totfact>
</mgrwt>
</event>
<event>
 4    1  0.7691552E-001  0.1798910E+03  0.7546771E-02  0.1167909E+00
         -2   -1    0    0    0  501 -0.00000000000E+00  0.00000000000E+00  0.65920277564E+02  0.65920277564E+02  0.00000000000E+00 0. -1.
          2   -1    0    0  502    0  0.00000000000E+00 -0.00000000000E+00 -0.50776986312E+03  0.50776986312E+03  0.00000000000E+00 0.  1.
          6    1    1    2  502    0 -0.42189250041E+02  0.25531046716E+02 -0.27319707799E+03  0.32710458662E+03  0.17300000000E+03 0.  1.
         -6    1    1    2    0  501  0.42189250041E+02 -0.25531046716E+02 -0.16865250757E+03  0.24658555407E+03  0.17300000000E+03 0. -1.
<mgrwt>
<rscale>  2 0.17989099E+03</rscale>
<asrwt>0</asrwt>
<pdfrwt beam="2">  1        2 0.78118442E-01 0.17989099E+03</pdfrwt>
<pdfrwt beam="1">  1       -2 0.10141581E-01 0.17989099E+03</pdfrwt>
<totfact> 0.38929274E+03</totfact>
</mgrwt>
</event>
<event>
 4    1  0.7691552E-001  0.1978011E+03  0.7546771E-02  0.1151608E+00
          2   -1    0    0  502    0  0.00000000000E+00  0.00000000000E+00  0.80896146833E+03  0.80896146833E+03  0.00000000000E+00 0. -1.
         -2   -1    0    0    0  501 -0.00000000000E+00 -0.00000000000E+00 -0.48365138396E+02  0.48365138396E+02  0.00000000000E+00 0.  1.
          6    1    1    2  502    0  0.60304330407E+02 -0.74563260290E+02  0.37923356963E+03  0.42771882398E+03  0.17300000000E+03 0.  1.
         -6    1    1    2    0  501 -0.60304330407E+02  0.74563260290E+02  0.38136276031E+03  0.42960778275E+03  0.17300000000E+03 0. -1.
<mgrwt>
<rscale>  2 0.19780114E+03</rscale>
<asrwt>0</asrwt>
<pdfrwt beam="1">  1        2 0.12445560E+00 0.19780114E+03</pdfrwt>
<pdfrwt beam="2">  1       -2 0.74407911E-02 0.19780114E+03</pdfrwt>
<totfact> 0.36646355E+03</totfact>
</mgrwt>
</event>
<event>
 4    1  0.7691552E-001  0.1999691E+03  0.7546771E-02  0.1149765E+00
          2   -1    0    0  502    0  0.00000000000E+00  0.00000000000E+00  0.15595988588E+03  0.15595988588E+03  0.00000000000E+00 0.  1.
         -2   -1    0    0    0  501 -0.00000000000E+00 -0.00000000000E+00 -0.26951336452E+03  0.26951336452E+03  0.00000000000E+00 0. -1.
          6    1    1    2  502    0 -0.28539236469E+02 -0.96146441323E+02 -0.98456057005E+01  0.20021129376E+03  0.17300000000E+03 0. -1.
         -6    1    1    2    0  501  0.28539236469E+02  0.96146441323E+02 -0.10370787295E+03  0.22526195664E+03  0.17300000000E+03 0. -1.
<mgrwt>
<rscale>  2 0.19996906E+03</rscale>
<asrwt>0</asrwt>
<pdfrwt beam="1">  1        2 0.23993829E-01 0.19996906E+03</pdfrwt>
<pdfrwt beam="2">  1       -2 0.41463594E-01 0.19996906E+03</pdfrwt>
<totfact> 0.12427975E+03</totfact>
</mgrwt>
</event>
<event>
 4    1  0.7691552E-001  0.2395555E+03  0.7546771E-02  0.1120089E+00
         -2   -1    0    0    0  501 -0.00000000000E+00  0.00000000000E+00  0.79134616319E+03  0.79134616319E+03  0.00000000000E+00 0. -1.
          2   -1    0    0  502    0  0.00000000000E+00 -0.00000000000E+00 -0.73212080763E+02  0.73212080763E+02  0.00000000000E+00 0.  1.
          6    1    1    2  502    0  0.80283171948E+02 -0.14495677141E+03  0.40115647289E+03  0.46724016203E+03  0.17300000000E+03 0. -1.
         -6    1    1    2    0  501 -0.80283171948E+02  0.14495677141E+03  0.31697760954E+03  0.39731808192E+03  0.17300000000E+03 0. -1.
<mgrwt>
<rscale>  2 0.23955553E+03</rscale>
<asrwt>0</asrwt>
<pdfrwt beam="2">  1        2 0.11263398E-01 0.23955553E+03</pdfrwt>
<pdfrwt beam="1">  1       -2 0.12174556E+00 0.23955553E+03</pdfrwt>
<totfact> 0.29629779E+02</totfact>
</mgrwt>
</event>
<event>
 4    1  0.7691552E-001  0.2241855E+03  0.7546771E-02  0.1130801E+00
         -1   -1    0    0    0  501 -0.00000000000E+00  0.00000000000E+00  0.36979695026E+03  0.36979695026E+03  0.00000000000E+00 0. -1.
          1   -1    0    0  502    0  0.00000000000E+00 -0.00000000000E+00 -0.13953119626E+03  0.13953119626E+03  0.00000000000E+00 0.  1.
          6    1    1    2  502    0  0.86357367015E+02  0.11345726805E+03  0.15615811227E+03  0.27321146122E+03  0.17300000000E+03 0.  1.
         -6    1    1    2    0  501 -0.86357367015E+02 -0.11345726805E+03  0.74107641727E+02  0.23611668529E+03  0.17300000000E+03 0.  1.
<mgrwt>
<rscale>  2 0.22418552E+03</rscale>
<asrwt>0</asrwt>
<pdfrwt beam="2">  1        1 0.21466338E-01 0.22418552E+03</pdfrwt>
<pdfrwt beam="1">  1       -1 0.56891838E-01 0.22418552E+03</pdfrwt>
<totfact> 0.75020192E+02</totfact>
</mgrwt>
</event>
<event>
 4    1  0.7691552E-001  0.1857147E+03  0.7546771E-02  0.1162384E+00
          1   -1    0    0  502    0  0.00000000000E+00  0.00000000000E+00  0.14043990198E+04  0.14043990198E+04  0.00000000000E+00 0.  1.
         -1   -1    0    0    0  501 -0.00000000000E+00 -0.00000000000E+00 -0.24985427994E+02  0.24985427994E+02  0.00000000000E+00 0. -1.
          6    1    1    2  502    0 -0.40407701274E+02  0.54112703258E+02  0.59628659654E+03  0.62453796697E+03  0.17300000000E+03 0. -1.
         -6    1    1    2    0  501  0.40407701274E+02 -0.54112703258E+02  0.78312699526E+03  0.80484648082E+03  0.17300000000E+03 0. -1.
<mgrwt>
<rscale>  2 0.18571475E+03</rscale>
<asrwt>0</asrwt>
<pdfrwt beam="1">  1        1 0.21606133E+00 0.18571475E+03</pdfrwt>
<pdfrwt beam="2">  1       -1 0.38439131E-02 0.18571475E+03</pdfrwt>
<totfact> 0.21610094E+03</totfact>
</mgrwt>
</event>
<event>
 4    1  0.7691552E-001  0.2476676E+03  0.7546771E-02  0.1114788E+00
         -2   -1    0    0    0  501 -0.00000000000E+00  0.00000000000E+00  0.23203598908E+03  0.23203598908E+03  0.00000000000E+00 0. -1.
          2   -1    0    0  502    0  0.00000000000E+00 -0.00000000000E+00 -0.26775322322E+03  0.26775322322E+03  0.00000000000E+00 0.  1.
          6    1    1    2  502    0  0.12864000019E+03 -0.12190985589E+03  0.10304696797E+02  0.24788192630E+03  0.17300000000E+03 0. -1.
         -6    1    1    2    0  501 -0.12864000019E+03  0.12190985589E+03 -0.46021930943E+02  0.25190728600E+03  0.17300000000E+03 0. -1.
<mgrwt>
<rscale>  2 0.24766765E+03</rscale>
<asrwt>0</asrwt>
<pdfrwt beam="2">  1        2 0.41192803E-01 0.24766765E+03</pdfrwt>
<pdfrwt beam="1">  1       -2 0.35697845E-01 0.24766765E+03</pdfrwt>
<totfact> 0.91629607E+02</totfact>
</mgrwt>
</event>
<event>
 4    1  0.7691552E-001  0.1858524E+03  0.7546771E-02  0.1162256E+00
         -1   -1    0    0    0  501 -0.00000000000E+00  0.00000000000E+00  0.57605045436E+02  0.57605045436E+02  0.00000000000E+00 0. -1.
          1   -1    0    0  502    0  0.00000000000E+00 -0.00000000000E+00 -0.60012034588E+03  0.60012034588E+03  0.00000000000E+00 0.  1.
          6    1    1    2  502    0  0.31890734921E+02 -0.59959117497E+02 -0.28075715134E+03  0.33669822211E+03  0.17300000000E+03 0.  1.
         -6    1    1    2    0  501 -0.31890734921E+02  0.59959117497E+02 -0.26175814910E+03  0.32102716920E+03  0.17300000000E+03 0.  1.
<mgrwt>
<rscale>  2 0.18585240E+03</rscale>
<asrwt>0</asrwt>
<pdfrwt beam="2">  1        1 0.92326199E-01 0.18585240E+03</pdfrwt>
<pdfrwt beam="1">  1       -1 0.88623155E-02 0.18585240E+03</pdfrwt>
<totfact> 0.25559707E+03</totfact>
</mgrwt>
</event>
<event>
 4    1  0.7691552E-001  0.5159260E+03  0.7546771E-02  0.1009704E+00
          2   -1    0    0  502    0  0.00000000000E+00  0.00000000000E+00  0.21957881428E+04  0.21957881428E+04  0.00000000000E+00 0.  1.
         -2   -1    0    0    0  501 -0.00000000000E+00 -0.00000000000E+00 -0.12178994640E+03  0.12178994640E+03  0.00000000000E+00 0. -1.
          6    1    1    2  502    0 -0.43562513226E+03  0.21559535846E+03  0.11160745066E+04  0.12295535445E+04  0.17300000000E+03 0. -1.
         -6    1    1    2    0  501  0.43562513226E+03 -0.21559535846E+03  0.95792368977E+03  0.10880245447E+04  0.17300000000E+03 0.  1.
<mgrwt>
<rscale>  2 0.51592598E+03</rscale>
<asrwt>0</asrwt>
<pdfrwt beam="1">  1        2 0.33781353E+00 0.51592598E+03</pdfrwt>
<pdfrwt beam="2">  1       -2 0.18736916E-01 0.51592598E+03</pdfrwt>
<totfact> 0.13167518E+02</totfact>
</mgrwt>
</event>
<event>
 4    1  0.7691552E-001  0.3368463E+03  0.7546771E-02  0.1068147E+00
         -2   -1    0    0    0  501 -0.00000000000E+00  0.00000000000E+00  0.58100630971E+02  0.58100630971E+02  0.00000000000E+00 0.  1.
          2   -1    0    0  502    0  0.00000000000E+00 -0.00000000000E+00 -0.27320886855E+04  0.27320886855E+04  0.00000000000E+00 0. -1.
          6    1    1    2  502    0  0.15601978670E+03 -0.24329874407E+03 -0.59196345492E+03  0.68109190618E+03  0.17300000000E+03 0.  1.
         -6    1    1    2    0  501 -0.15601978670E+03  0.24329874407E+03 -0.20820245996E+04  0.21090974103E+04  0.17300000000E+03 0. -1.
<mgrwt>
<rscale>  2 0.33684633E+03</rscale>
<asrwt>0</asrwt>
<pdfrwt beam="2">  1        2 0.42032131E+00 0.33684633E+03</pdfrwt>
<pdfrwt beam="1">  1       -2 0.89385591E-02 0.33684633E+03</pdfrwt>
<totfact> 0.23277690E+02</totfact>
</mgrwt>
</event>
<event>
 4    1  0.7691552E-001  0.1779265E+03  0.7546771E-02  0.1169825E+00
          2   -1    0    0  502    0  0.00000000000E+00  0.00000000000E+00  0.63935461672E+03  0.63935461672E+03  0.00000000000E+00 0.  1.
         -2   -1    0    0    0  501 -0.00000000000E+00 -0.00000000000E+00 -0.58154948090E+02  0.58154948090E+02  0.00000000000E+00 0. -1.
          6    1    1    2  502    0  0.30921119600E+02 -0.27798092790E+02  0.42502306034E+03  0.46076290152E+03  0.17300000000E+03 0.  1.
         -6    1    1    2    0  501 -0.30921119600E+02  0.27798092790E+02  0.15617660829E+03  0.23674666329E+03  0.17300000000E+03 0. -1.
<mgrwt>
<rscale>  2 0.17792653E+03</rscale>
<asrwt>0</asrwt>
<pdfrwt beam="1">  1        2 0.98362244E-01 0.17792653E+03</pdfrwt>
<pdfrwt beam="2">  1       -2 0.89469155E-02 0.17792653E+03</pdfrwt>
<totfact> 0.36472881E+03</totfact>
</mgrwt>
</event>
<event>
 4    1  0.7691552E-001  0.1968912E+03  0.7546771E-02  0.1152389E+00
          2   -1    0    0  502    0  0.00000000000E+00  0.00000000000E+00  0.17729421871E+04  0.17729421871E+04  0.00000000000E+00 0. -1.
         -2   -1    0    0    0  501 -0.00000000000E+00 -0.00000000000E+00 -0.28426830176E+02  0.28426830176E+02  0.00000000000E+00 0.  1.
          6    1    1    2  502    0  0.80154873568E+02 -0.49115461998E+02  0.43953770431E+03  0.48162176640E+03  0.17300000000E+03 0. -1.
         -6    1    1    2    0  501 -0.80154873568E+02  0.49115461998E+02  0.13049776526E+04  0.13197472509E+04  0.17300000000E+03 0. -1.
<mgrwt>
<rscale>  2 0.19689117E+03</rscale>
<asrwt>0</asrwt>
<pdfrwt beam="1">  1        2 0.27276025E+00 0.19689117E+03</pdfrwt>
<pdfrwt beam="2">  1       -2 0.43733599E-02 0.19689117E+03</pdfrwt>
<totfact> 0.23526125E+03</totfact>
</mgrwt>
</event>
<event>
 4    1  0.7691552E-001  0.1743901E+03  0.7546771E-02  0.1173345E+00
          2   -1    0    0  502    0  0.00000000000E+00  0.00000000000E+00  0.16448408337E+04  0.16448408337E+04  0.00000000000E+00 0. -1.
         -2   -1    0    0    0  501 -0.00000000000E+00 -0.00000000000E+00 -0.18616643925E+02  0.18616643925E+02  0.00000000000E+00 0.  1.
          6    1    1    2  502    0 -0.15756790740E+02  0.15317968258E+02  0.88190768127E+03  0.89898446865E+03  0.17300000000E+03 0. -1.
         -6    1    1    2    0  501  0.15756790740E+02 -0.15317968258E+02  0.74431650854E+03  0.76447300900E+03  0.17300000000E+03 0.  1.
<mgrwt>
<rscale>  2 0.17439013E+03</rscale>
<asrwt>0</asrwt>
<pdfrwt beam="1">  1        2 0.25305232E+00 0.17439013E+03</pdfrwt>
<pdfrwt beam="2">  1       -2 0.28641004E-02 0.17439013E+03</pdfrwt>
<totfact> 0.51488175E+03</totfact>
</mgrwt>
</event>
<event>
 4    1  0.7691552E-001  0.4101887E+03  0.7546771E-02  0.1040308E+00
          2   -1    0    0  502    0  0.00000000000E+00  0.00000000000E+00  0.24011569872E+04  0.24011569872E+04  0.00000000000E+00 0.  1.
         -2   -1    0    0    0  501 -0.00000000000E+00 -0.00000000000E+00 -0.70701347308E+02  0.70701347308E+02  0.00000000000E+00 0. -1.
          6    1    1    2  502    0  0.73702657828E+02 -0.36454591990E+03  0.10486568983E+04  0.11260266870E+04  0.17300000000E+03 0. -1.
         -6    1    1    2    0  501 -0.73702657828E+02  0.36454591990E+03  0.12817987415E+04  0.13458316474E+04  0.17300000000E+03 0. -1.
<mgrwt>
<rscale>  2 0.41018875E+03</rscale>
<asrwt>0</asrwt>
<pdfrwt beam="1">  1        2 0.36940870E+00 0.41018875E+03</pdfrwt>
<pdfrwt beam="2">  1       -2 0.10877132E-01 0.41018875E+03</pdfrwt>
<totfact> 0.25637517E+02</totfact>
</mgrwt>
</event>
<event>
 4    1  0.7691552E-001  0.1843420E+03  0.7546771E-02  0.1163666E+00
         -2   -1    0    0    0  501 -0.00000000000E+00  0.00000000000E+00  0.27857142283E+02  0.27857142283E+02  0.00000000000E+00 0.  1.
          2   -1    0    0  502    0  0.00000000000E+00 -0.00000000000E+00 -0.12244912300E+04  0.12244912300E+04  0.00000000000E+00 0. -1.
          6    1    1    2  502    0  0.45228131512E+02 -0.44803838349E+02 -0.55983077971E+03  0.58940009308E+03  0.17300000000E+03 0.  1.
         -6    1    1    2    0  501 -0.45228131512E+02  0.44803838349E+02 -0.63680330802E+03  0.66294827922E+03  0.17300000000E+03 0. -1.
<mgrwt>
<rscale>  2 0.18434199E+03</rscale>
<asrwt>0</asrwt>
<pdfrwt beam="2">  1        2 0.18838329E+00 0.18434199E+03</pdfrwt>
<pdfrwt beam="1">  1       -2 0.42857137E-02 0.18434199E+03</pdfrwt>
<totfact> 0.47443205E+03</totfact>
</mgrwt>
</event>
<event>
 4    1  0.7691552E-001  0.2996930E+03  0.7546771E-02  0.1085394E+00
         -2   -1    0    0    0  501 -0.00000000000E+00  0.00000000000E+00  0.63351192383E+02  0.63351192383E+02  0.00000000000E+00 0.  1.
          2   -1    0    0  502    0  0.00000000000E+00 -0.00000000000E+00 -0.15477318246E+04  0.15477318246E+04  0.00000000000E+00 0. -1.
          6    1    1    2  502    0  0.60103873847E+02  0.23722234077E+03 -0.97563697817E+03  0.10206289374E+04  0.17300000000E+03 0. -1.
         -6    1    1    2    0  501 -0.60103873847E+02 -0.23722234077E+03 -0.50874365406E+03  0.59045407963E+03  0.17300000000E+03 0.  1.
<mgrwt>
<rscale>  2 0.29969303E+03</rscale>
<asrwt>0</asrwt>
<pdfrwt beam="2">  1        2 0.23811258E+00 0.29969303E+03</pdfrwt>
<pdfrwt beam="1">  1       -2 0.97463377E-02 0.29969303E+03</pdfrwt>
<totfact> 0.88886583E+02</totfact>
</mgrwt>
</event>
<event>
 4    1  0.7691552E-001  0.2564169E+03  0.7546771E-02  0.1109315E+00
          1   -1    0    0  502    0  0.00000000000E+00  0.00000000000E+00  0.68624990647E+03  0.68624990647E+03  0.00000000000E+00 0. -1.
         -1   -1    0    0    0  501 -0.00000000000E+00 -0.00000000000E+00 -0.96907386078E+02  0.96907386078E+02  0.00000000000E+00 0.  1.
          6    1    1    2  502    0 -0.89055460341E+02  0.16700219125E+03  0.25300166172E+03  0.36022138711E+03  0.17300000000E+03 0. -1.
         -6    1    1    2    0  501  0.89055460341E+02 -0.16700219125E+03  0.33634085867E+03  0.42293590544E+03  0.17300000000E+03 0. -1.
<mgrwt>
<rscale>  2 0.25641686E+03</rscale>
<asrwt>0</asrwt>
<pdfrwt beam="1">  1        1 0.10557691E+00 0.25641686E+03</pdfrwt>
<pdfrwt beam="2">  1       -1 0.14908829E-01 0.25641686E+03</pdfrwt>
<totfact> 0.94403089E+02</totfact>
</mgrwt>
</event>
<event>
 4    1  0.7691552E-001  0.1804944E+03  0.7546771E-02  0.1167325E+00
         -1   -1    0    0    0  501 -0.00000000000E+00  0.00000000000E+00  0.97472123060E+02  0.97472123060E+02  0.00000000000E+00 0.  1.
          1   -1    0    0  502    0  0.00000000000E+00 -0.00000000000E+00 -0.33452017316E+03  0.33452017316E+03  0.00000000000E+00 0. -1.
          6    1    1    2  502    0  0.48644735775E+01 -0.51240225852E+02 -0.11217554390E+03  0.21251253257E+03  0.17300000000E+03 0.  1.
         -6    1    1    2    0  501 -0.48644735775E+01  0.51240225852E+02 -0.12487250620E+03  0.21947976365E+03  0.17300000000E+03 0.  1.
<mgrwt>
<rscale>  2 0.18049439E+03</rscale>
<asrwt>0</asrwt>
<pdfrwt beam="2">  1        1 0.51464641E-01 0.18049439E+03</pdfrwt>
<pdfrwt beam="1">  1       -1 0.14995711E-01 0.18049439E+03</pdfrwt>
<totfact> 0.24147572E+03</totfact>
</mgrwt>
</event>
<event>
 4    1  0.7691552E-001  0.1892258E+03  0.7546771E-02  0.1159161E+00
         -1   -1    0    0    0  501 -0.00000000000E+00  0.00000000000E+00  0.89663249503E+02  0.89663249503E+02  0.00000000000E+00 0.  1.
          1   -1    0    0  502    0  0.00000000000E+00 -0.00000000000E+00 -0.89153865596E+03  0.89153865596E+03  0.00000000000E+00 0. -1.
          6    1    1    2  502    0  0.59268098067E+02 -0.48628181787E+02 -0.36412882340E+02  0.19269744553E+03  0.17300000000E+03 0.  1.
         -6    1    1    2    0  501 -0.59268098067E+02  0.48628181787E+02 -0.76546252412E+03  0.78850445994E+03  0.17300000000E+03 0. -1.
<mgrwt>
<rscale>  2 0.18922581E+03</rscale>
<asrwt>0</asrwt>
<pdfrwt beam="2">  1        1 0.13715979E+00 0.18922581E+03</pdfrwt>
<pdfrwt beam="1">  1       -1 0.13794346E-01 0.18922581E+03</pdfrwt>
<totfact> 0.71817983E+02</totfact>
</mgrwt>
</event>
<event>
 4    1  0.7691552E-001  0.2649448E+03  0.7546771E-02  0.1104208E+00
          1   -1    0    0  502    0  0.00000000000E+00  0.00000000000E+00  0.17001716206E+03  0.17001716206E+03  0.00000000000E+00 0.  1.
         -1   -1    0    0    0  501 -0.00000000000E+00 -0.00000000000E+00 -0.41501951456E+03  0.41501951456E+03  0.00000000000E+00 0. -1.
          6    1    1    2  502    0  0.11018437177E+03 -0.16770852228E+03 -0.10147124472E+03  0.28371139866E+03  0.17300000000E+03 0.  1.
         -6    1    1    2    0  501 -0.11018437177E+03  0.16770852228E+03 -0.14353110779E+03  0.30132527795E+03  0.17300000000E+03 0. -1.
<mgrwt>
<rscale>  2 0.26494479E+03</rscale>
<asrwt>0</asrwt>
<pdfrwt beam="1">  1        1 0.26156487E-01 0.26494479E+03</pdfrwt>
<pdfrwt beam="2">  1       -1 0.63849155E-01 0.26494479E+03</pdfrwt>
<totfact> 0.46642605E+02</totfact>
</mgrwt>
</event>
<event>
 4    1  0.7691552E-001  0.2470165E+03  0.7546771E-02  0.1115205E+00
         -3   -1    0    0    0  501 -0.00000000000E+00  0.00000000000E+00  0.64755186623E+03  0.64755186623E+03  0.00000000000E+00 0. -1.
          3   -1    0    0  502    0  0.00000000000E+00 -0.00000000000E+00 -0.15362857775E+03  0.15362857775E+03  0.00000000000E+00 0.  1.
          6    1    1    2  502    0 -0.14338962700E+03  0.10260400509E+03 -0.21314292187E+01  0.24702572737E+03  0.17300000000E+03 0.  1.
         -6    1    1    2    0  501  0.14338962700E+03 -0.10260400509E+03  0.49605471770E+03  0.55415471661E+03  0.17300000000E+03 0. -1.
<mgrwt>
<rscale>  2 0.24701653E+03</rscale>
<asrwt>0</asrwt>
<pdfrwt beam="2">  1        3 0.23635166E-01 0.24701653E+03</pdfrwt>
<pdfrwt beam="1">  1       -3 0.99623363E-01 0.24701653E+03</pdfrwt>
<totfact> 0.37601149E+01</totfact>
</mgrwt>
</event>
<event>
 4    1  0.7691552E-001  0.2195801E+03  0.7546771E-02  0.1134196E+00
         -2   -1    0    0    0  501 -0.00000000000E+00  0.00000000000E+00  0.74699799940E+02  0.74699799940E+02  0.00000000000E+00 0.  1.
          2   -1    0    0  502    0  0.00000000000E+00 -0.00000000000E+00 -0.75178063960E+03  0.75178063960E+03  0.00000000000E+00 0. -1.
          6    1    1    2  502    0 -0.21508485977E+02  0.13350584132E+03 -0.49394872807E+03  0.54055598285E+03  0.17300000000E+03 0. -1.
         -6    1    1    2    0  501  0.21508485977E+02 -0.13350584132E+03 -0.18313211158E+03  0.28592445668E+03  0.17300000000E+03 0.  1.
<mgrwt>
<rscale>  2 0.21958011E+03</rscale>
<asrwt>0</asrwt>
<pdfrwt beam="2">  1        2 0.11565856E+00 0.21958011E+03</pdfrwt>
<pdfrwt beam="1">  1       -2 0.11492277E-01 0.21958011E+03</pdfrwt>
<totfact> 0.20278305E+03</totfact>
</mgrwt>
</event>
<event>
 4    1  0.7691552E-001  0.2278072E+03  0.7546771E-02  0.1128193E+00
         -2   -1    0    0    0  501 -0.00000000000E+00  0.00000000000E+00  0.43458405339E+03  0.43458405339E+03  0.00000000000E+00 0. -1.
          2   -1    0    0  502    0  0.00000000000E+00 -0.00000000000E+00 -0.16045182932E+03  0.16045182932E+03  0.00000000000E+00 0.  1.
          6    1    1    2  502    0  0.11369170893E+03 -0.95085796988E+02 -0.13395105742E+02  0.22820066241E+03  0.17300000000E+03 0.  1.
         -6    1    1    2    0  501 -0.11369170893E+03  0.95085796988E+02  0.28752732981E+03  0.36683522030E+03  0.17300000000E+03 0. -1.
<mgrwt>
<rscale>  2 0.22780718E+03</rscale>
<asrwt>0</asrwt>
<pdfrwt beam="2">  1        2 0.24684897E-01 0.22780718E+03</pdfrwt>
<pdfrwt beam="1">  1       -2 0.66859085E-01 0.22780718E+03</pdfrwt>
<totfact> 0.46025648E+02</totfact>
</mgrwt>
</event>
<event>
 4    1  0.7691552E-001  0.2894198E+03  0.7546771E-02  0.1090652E+00
         -1   -1    0    0    0  501 -0.00000000000E+00  0.00000000000E+00  0.12545132962E+03  0.12545132962E+03  0.00000000000E+00 0. -1.
          1   -1    0    0  502    0  0.00000000000E+00 -0.00000000000E+00 -0.77566842523E+03  0.77566842523E+03  0.00000000000E+00 0.  1.
          6    1    1    2  502    0 -0.17493042513E+03 -0.15242764112E+03 -0.15701035042E+03  0.32926598602E+03  0.17300000000E+03 0. -1.
         -6    1    1    2    0  501  0.17493042513E+03  0.15242764112E+03 -0.49320674519E+03  0.57185376882E+03  0.17300000000E+03 0. -1.
<mgrwt>
<rscale>  2 0.28941983E+03</rscale>
<asrwt>0</asrwt>
<pdfrwt beam="2">  1        1 0.11933360E+00 0.28941983E+03</pdfrwt>
<pdfrwt beam="1">  1       -1 0.19300205E-01 0.28941983E+03</pdfrwt>
<totfact> 0.51856178E+02</totfact>
</mgrwt>
</event>
<event>
 4    1  0.7691552E-001  0.2466409E+03  0.7546771E-02  0.1115446E+00
         -1   -1    0    0    0  501 -0.00000000000E+00  0.00000000000E+00  0.13443127201E+03  0.13443127201E+03  0.00000000000E+00 0.  1.
          1   -1    0    0  502    0  0.00000000000E+00 -0.00000000000E+00 -0.46695461689E+03  0.46695461689E+03  0.00000000000E+00 0. -1.
          6    1    1    2  502    0  0.14923290655E+03 -0.92909911216E+02 -0.11337884884E+03  0.27145252875E+03  0.17300000000E+03 0.  1.
         -6    1    1    2    0  501 -0.14923290655E+03  0.92909911216E+02 -0.21914449603E+03  0.32993336015E+03  0.17300000000E+03 0. -1.
<mgrwt>
<rscale>  2 0.24664086E+03</rscale>
<asrwt>0</asrwt>
<pdfrwt beam="2">  1        1 0.71839173E-01 0.24664086E+03</pdfrwt>
<pdfrwt beam="1">  1       -1 0.20681734E-01 0.24664086E+03</pdfrwt>
<totfact> 0.94568717E+02</totfact>
</mgrwt>
</event>
<event>
 4    1  0.7691552E-001  0.1923304E+03  0.7546771E-02  0.1156376E+00
         -1   -1    0    0    0  501 -0.00000000000E+00  0.00000000000E+00  0.63722557176E+02  0.63722557176E+02  0.00000000000E+00 0.  1.
          1   -1    0    0  502    0  0.00000000000E+00 -0.00000000000E+00 -0.58602605759E+03  0.58602605759E+03  0.00000000000E+00 0. -1.
          6    1    1    2  502    0  0.52368121304E+02 -0.65723382130E+02 -0.29269749408E+03  0.35023250296E+03  0.17300000000E+03 0. -1.
         -6    1    1    2    0  501 -0.52368121304E+02  0.65723382130E+02 -0.22960600633E+03  0.29951611181E+03  0.17300000000E+03 0. -1.
<mgrwt>
<rscale>  2 0.19233040E+03</rscale>
<asrwt>0</asrwt>
<pdfrwt beam="2">  1        1 0.90157853E-01 0.19233040E+03</pdfrwt>
<pdfrwt beam="1">  1       -1 0.98034706E-02 0.19233040E+03</pdfrwt>
<totfact> 0.22642245E+03</totfact>
</mgrwt>
</event>
<event>
 4    1  0.7691552E-001  0.2231953E+03  0.7546771E-02  0.1131523E+00
          2   -1    0    0  502    0  0.00000000000E+00  0.00000000000E+00  0.11409486658E+04  0.11409486658E+04  0.00000000000E+00 0. -1.
         -2   -1    0    0    0  501 -0.00000000000E+00 -0.00000000000E+00 -0.44105024016E+02  0.44105024016E+02  0.00000000000E+00 0.  1.
          6    1    1    2  502    0  0.13257368970E+03  0.48076589056E+02  0.48903910809E+03  0.53756431323E+03  0.17300000000E+03 0.  1.
         -6    1    1    2    0  501 -0.13257368970E+03 -0.48076589056E+02  0.60780453370E+03  0.64748937660E+03  0.17300000000E+03 0. -1.
<mgrwt>
<rscale>  2 0.22319530E+03</rscale>
<asrwt>0</asrwt>
<pdfrwt beam="1">  1        2 0.17553054E+00 0.22319530E+03</pdfrwt>
<pdfrwt beam="2">  1       -2 0.67853892E-02 0.22319530E+03</pdfrwt>
<totfact> 0.26368574E+03</totfact>
</mgrwt>
</event>
<event>
 4    1  0.7691552E-001  0.2072633E+03  0.7546771E-02  0.1143752E+00
         -1   -1    0    0    0  501 -0.00000000000E+00  0.00000000000E+00  0.25116822096E+03  0.25116822096E+03  0.00000000000E+00 0.  1.
          1   -1    0    0  502    0  0.00000000000E+00 -0.00000000000E+00 -0.17142046112E+03  0.17142046112E+03  0.00000000000E+00 0. -1.
          6    1    1    2  502    0  0.66001621860E+02 -0.93128220394E+02  0.49918057784E+02  0.21318980279E+03  0.17300000000E+03 0. -1.
         -6    1    1    2    0  501 -0.66001621860E+02  0.93128220394E+02  0.29829702060E+02  0.20939887929E+03  0.17300000000E+03 0.  1.
<mgrwt>
<rscale>  2 0.20726331E+03</rscale>
<asrwt>0</asrwt>
<pdfrwt beam="2">  1        1 0.26372378E-01 0.20726331E+03</pdfrwt>
<pdfrwt beam="1">  1       -1 0.38641265E-01 0.20726331E+03</pdfrwt>
<totfact> 0.11678602E+03</totfact>
</mgrwt>
</event>
<event>
 4    1  0.7691552E-001  0.2190154E+03  0.7546771E-02  0.1134619E+00
          4   -1    0    0  502    0  0.00000000000E+00  0.00000000000E+00  0.15616995991E+03  0.15616995991E+03  0.00000000000E+00 0. -1.
         -4   -1    0    0    0  501 -0.00000000000E+00 -0.00000000000E+00 -0.33147051257E+03  0.33147051257E+03  0.00000000000E+00 0.  1.
          6    1    1    2  502    0  0.37602902922E+02 -0.12893714397E+03 -0.15369291020E+03  0.26756172381E+03  0.17300000000E+03 0.  1.
         -6    1    1    2    0  501 -0.37602902922E+02  0.12893714397E+03 -0.21607642458E+02  0.22007874867E+03  0.17300000000E+03 0. -1.
<mgrwt>
<rscale>  2 0.21901545E+03</rscale>
<asrwt>0</asrwt>
<pdfrwt beam="1">  1        4 0.24026148E-01 0.21901545E+03</pdfrwt>
<pdfrwt beam="2">  1       -4 0.50995463E-01 0.21901545E+03</pdfrwt>
<totfact> 0.10804471E+02</totfact>
</mgrwt>
</event>
<event>
 4    1  0.7691552E-001  0.2230544E+03  0.7546771E-02  0.1131626E+00
         -2   -1    0    0    0  501 -0.00000000000E+00  0.00000000000E+00  0.15789787579E+03  0.15789787579E+03  0.00000000000E+00 0.  1.
          2   -1    0    0  502    0  0.00000000000E+00 -0.00000000000E+00 -0.31724646099E+03  0.31724646099E+03  0.00000000000E+00 0. -1.
          6    1    1    2  502    0  0.93584319146E+02 -0.10519615150E+03 -0.60122221365E+02  0.23101501376E+03  0.17300000000E+03 0.  1.
         -6    1    1    2    0  501 -0.93584319146E+02  0.10519615150E+03 -0.99226363830E+02  0.24412932302E+03  0.17300000000E+03 0. -1.
<mgrwt>
<rscale>  2 0.22305438E+03</rscale>
<asrwt>0</asrwt>
<pdfrwt beam="2">  1        2 0.48807148E-01 0.22305438E+03</pdfrwt>
<pdfrwt beam="1">  1       -2 0.24291981E-01 0.22305438E+03</pdfrwt>
<totfact> 0.15314113E+03</totfact>
</mgrwt>
</event>
<event>
 4    1  0.7691552E-001  0.2142217E+03  0.7546771E-02  0.1138266E+00
          2   -1    0    0  502    0  0.00000000000E+00  0.00000000000E+00  0.58322749269E+03  0.58322749269E+03  0.00000000000E+00 0.  1.
         -2   -1    0    0    0  501 -0.00000000000E+00 -0.00000000000E+00 -0.11770619726E+03  0.11770619726E+03  0.00000000000E+00 0. -1.
          6    1    1    2  502    0 -0.59664363075E+02  0.11136477793E+03  0.30970256483E+02  0.21644885486E+03  0.17300000000E+03 0.  1.
         -6    1    1    2    0  501  0.59664363075E+02 -0.11136477793E+03  0.43455103895E+03  0.48448483509E+03  0.17300000000E+03 0.  1.
<mgrwt>
<rscale>  2 0.21422173E+03</rscale>
<asrwt>0</asrwt>
<pdfrwt beam="1">  1        2 0.89727305E-01 0.21422173E+03</pdfrwt>
<pdfrwt beam="2">  1       -2 0.18108646E-01 0.21422173E+03</pdfrwt>
<totfact> 0.12980537E+03</totfact>
</mgrwt>
</event>
<event>
 4    1  0.7691552E-001  0.2956843E+03  0.7546771E-02  0.1087418E+00
         -4   -1    0    0    0  501 -0.00000000000E+00  0.00000000000E+00  0.70718641683E+03  0.70718641683E+03  0.00000000000E+00 0. -1.
          4   -1    0    0  502    0  0.00000000000E+00 -0.00000000000E+00 -0.14994000172E+03  0.14994000172E+03  0.00000000000E+00 0.  1.
          6    1    1    2  502    0  0.34123493206E+02  0.23735159357E+03  0.45814602698E+03  0.54527696980E+03  0.17300000000E+03 0. -1.
         -6    1    1    2    0  501 -0.34123493206E+02 -0.23735159357E+03  0.99100388131E+02  0.31184944875E+03  0.17300000000E+03 0.  1.
<mgrwt>
<rscale>  2 0.29568428E+03</rscale>
<asrwt>0</asrwt>
<pdfrwt beam="2">  1        4 0.23067693E-01 0.29568428E+03</pdfrwt>
<pdfrwt beam="1">  1       -4 0.10879791E+00 0.29568428E+03</pdfrwt>
<totfact> 0.22429451E+01</totfact>
</mgrwt>
</event>
<event>
 4    1  0.7691552E-001  0.1873819E+03  0.7546771E-02  0.1160844E+00
          2   -1    0    0  502    0  0.00000000000E+00  0.00000000000E+00  0.12089033517E+04  0.12089033517E+04  0.00000000000E+00 0. -1.
         -2   -1    0    0    0  501 -0.00000000000E+00 -0.00000000000E+00 -0.44876984870E+02  0.44876984870E+02  0.00000000000E+00 0.  1.
          6    1    1    2  502    0 -0.47920656341E+02  0.53727017476E+02  0.95436570298E+03  0.97258720778E+03  0.17300000000E+03 0. -1.
         -6    1    1    2    0  501  0.47920656341E+02 -0.53727017476E+02  0.20966066383E+03  0.28119312878E+03  0.17300000000E+03 0.  1.
<mgrwt>
<rscale>  2 0.18738191E+03</rscale>
<asrwt>0</asrwt>
<pdfrwt beam="1">  1        2 0.18598511E+00 0.18738191E+03</pdfrwt>
<pdfrwt beam="2">  1       -2 0.69041524E-02 0.18738191E+03</pdfrwt>
<totfact> 0.23451267E+03</totfact>
</mgrwt>
</event>
<event>
 4    1  0.7691552E-001  0.1901982E+03  0.7546771E-02  0.1158283E+00
         -2   -1    0    0    0  501 -0.00000000000E+00  0.00000000000E+00  0.23202087169E+02  0.23202087169E+02  0.00000000000E+00 0.  1.
          2   -1    0    0  502    0  0.00000000000E+00 -0.00000000000E+00 -0.16880799060E+04  0.16880799060E+04  0.00000000000E+00 0. -1.
          6    1    1    2  502    0  0.77639229540E+02  0.14782075105E+02 -0.59596426325E+03  0.62557874227E+03  0.17300000000E+03 0.  1.
         -6    1    1    2    0  501 -0.77639229540E+02 -0.14782075105E+02 -0.10689135556E+04  0.10857032509E+04  0.17300000000E+03 0.  1.
<mgrwt>
<rscale>  2 0.19019821E+03</rscale>
<asrwt>0</asrwt>
<pdfrwt beam="2">  1        2 0.25970465E+00 0.19019821E+03</pdfrwt>
<pdfrwt beam="1">  1       -2 0.35695512E-02 0.19019821E+03</pdfrwt>
<totfact> 0.35301094E+03</totfact>
</mgrwt>
</event>
<event>
 4    1  0.7691552E-001  0.2498313E+03  0.7546771E-02  0.1113411E+00
          1   -1    0    0  502    0  0.00000000000E+00  0.00000000000E+00  0.20551373426E+04  0.20551373426E+04  0.00000000000E+00 0. -1.
         -1   -1    0    0    0  501 -0.00000000000E+00 -0.00000000000E+00 -0.72191148373E+02  0.72191148373E+02  0.00000000000E+00 0.  1.
          6    1    1    2  502    0  0.80695513215E+02 -0.16116733178E+03  0.18010491404E+04  0.18182941678E+04  0.17300000000E+03 0. -1.
         -6    1    1    2    0  501 -0.80695513215E+02  0.16116733178E+03  0.18189705386E+03  0.30903432316E+03  0.17300000000E+03 0.  1.
<mgrwt>
<rscale>  2 0.24983129E+03</rscale>
<asrwt>0</asrwt>
<pdfrwt beam="1">  1        1 0.31617493E+00 0.24983129E+03</pdfrwt>
<pdfrwt beam="2">  1       -1 0.11106332E-01 0.24983129E+03</pdfrwt>
<totfact> 0.16206182E+02</totfact>
</mgrwt>
</event>
<event>
 4    1  0.7691552E-001  0.2554523E+03  0.7546771E-02  0.1109907E+00
         -2   -1    0    0    0  501 -0.00000000000E+00  0.00000000000E+00  0.38642777563E+02  0.38642777563E+02  0.00000000000E+00 0. -1.
          2   -1    0    0  502    0  0.00000000000E+00 -0.00000000000E+00 -0.17745056936E+04  0.17745056936E+04  0.00000000000E+00 0.  1.
          6    1    1    2  502    0 -0.28027554313E+02 -0.18585305603E+03 -0.66857378378E+03  0.71571419338E+03  0.17300000000E+03 0.  1.
         -6    1    1    2    0  501  0.28027554313E+02  0.18585305603E+03 -0.10672891323E+04  0.10974342778E+04  0.17300000000E+03 0. -1.
<mgrwt>
<rscale>  2 0.25545235E+03</rscale>
<asrwt>0</asrwt>
<pdfrwt beam="2">  1        2 0.27300090E+00 0.25545235E+03</pdfrwt>
<pdfrwt beam="1">  1       -2 0.59450422E-02 0.25545235E+03</pdfrwt>
<totfact> 0.14671551E+03</totfact>
</mgrwt>
</event>
<event>
 4    1  0.7691552E-001  0.2054435E+03  0.7546771E-02  0.1145226E+00
         -2   -1    0    0    0  501 -0.00000000000E+00  0.00000000000E+00  0.83509938565E+03  0.83509938565E+03  0.00000000000E+00 0.  1.
          2   -1    0    0  502    0  0.00000000000E+00 -0.00000000000E+00 -0.55035288920E+02  0.55035288920E+02  0.00000000000E+00 0. -1.
          6    1    1    2  502    0 -0.10108050028E+03 -0.45395494553E+02  0.26285154931E+03  0.33361348210E+03  0.17300000000E+03 0. -1.
         -6    1    1    2    0  501  0.10108050028E+03  0.45395494553E+02  0.51721254741E+03  0.55652119247E+03  0.17300000000E+03 0.  1.
<mgrwt>
<rscale>  2 0.20544347E+03</rscale>
<asrwt>0</asrwt>
<pdfrwt beam="2">  1        2 0.84669682E-02 0.20544347E+03</pdfrwt>
<pdfrwt beam="1">  1       -2 0.12847682E+00 0.20544347E+03</pdfrwt>
<totfact> 0.36992641E+02</totfact>
</mgrwt>
</event>
<event>
 4    1  0.7691552E-001  0.3448691E+03  0.7546771E-02  0.1064741E+00
          2   -1    0    0  502    0  0.00000000000E+00  0.00000000000E+00  0.39231597371E+04  0.39231597371E+04  0.00000000000E+00 0. -1.
         -2   -1    0    0    0  501 -0.00000000000E+00 -0.00000000000E+00 -0.31660749708E+02  0.31660749708E+02  0.00000000000E+00 0.  1.
          6    1    1    2  502    0 -0.50704858058E+02 -0.29399782659E+03  0.15382294979E+04  0.15764151398E+04  0.17300000000E+03 0.  1.
         -6    1    1    2    0  501  0.50704858058E+02  0.29399782659E+03  0.23532694894E+04  0.23784053470E+04  0.17300000000E+03 0. -1.
<mgrwt>
<rscale>  2 0.34486911E+03</rscale>
<asrwt>0</asrwt>
<pdfrwt beam="1">  1        2 0.60356265E+00 0.34486911E+03</pdfrwt>
<pdfrwt beam="2">  1       -2 0.48708877E-02 0.34486911E+03</pdfrwt>
<totfact> 0.10147659E+02</totfact>
</mgrwt>
</event>
<event>
 4    1  0.7691552E-001  0.2111075E+03  0.7546771E-02  0.1140692E+00
          1   -1    0    0  502    0  0.00000000000E+00  0.00000000000E+00  0.34674428958E+03  0.34674428958E+03  0.00000000000E+00 0.  1.
         -1   -1    0    0    0  501 -0.00000000000E+00 -0.00000000000E+00 -0.29841198015E+03  0.29841198015E+03  0.00000000000E+00 0. -1.
          6    1    1    2  502    0  0.66343073173E+02 -0.10117307642E+03  0.26755622055E+03  0.34081186292E+03  0.17300000000E+03 0.  1.
         -6    1    1    2    0  501 -0.66343073173E+02  0.10117307642E+03 -0.21922391112E+03  0.30434440681E+03  0.17300000000E+03 0. -1.
<mgrwt>
<rscale>  2 0.21110754E+03</rscale>
<asrwt>0</asrwt>
<pdfrwt beam="1">  1        1 0.53345275E-01 0.21110754E+03</pdfrwt>
<pdfrwt beam="2">  1       -1 0.45909535E-01 0.21110754E+03</pdfrwt>
<totfact> 0.35410130E+02</totfact>
</mgrwt>
</event>
<event>
 4    1  0.7691552E-001  0.2138090E+03  0.7546771E-02  0.1138585E+00
          2   -1    0    0  502    0  0.00000000000E+00  0.00000000000E+00  0.52671484301E+03  0.52671484301E+03  0.00000000000E+00 0.  1.
         -2   -1    0    0    0  501 -0.00000000000E+00 -0.00000000000E+00 -0.87194422202E+02  0.87194422202E+02  0.00000000000E+00 0. -1.
          6    1    1    2  502    0  0.83100653540E+01  0.12536437059E+03  0.19888979099E+03  0.29201272499E+03  0.17300000000E+03 0. -1.
         -6    1    1    2    0  501 -0.83100653540E+01 -0.12536437059E+03  0.24063062982E+03  0.32189654022E+03  0.17300000000E+03 0. -1.
<mgrwt>
<rscale>  2 0.21380899E+03</rscale>
<asrwt>0</asrwt>
<pdfrwt beam="1">  1        2 0.81033051E-01 0.21380899E+03</pdfrwt>
<pdfrwt beam="2">  1       -2 0.13414527E-01 0.21380899E+03</pdfrwt>
<totfact> 0.23973564E+03</totfact>
</mgrwt>
</event>
<event>
 4    1  0.7691552E-001  0.2122557E+03  0.7546771E-02  0.1139792E+00
          2   -1    0    0  502    0  0.00000000000E+00  0.00000000000E+00  0.28263733389E+03  0.28263733389E+03  0.00000000000E+00 0.  1.
         -2   -1    0    0    0  501 -0.00000000000E+00 -0.00000000000E+00 -0.25071646684E+03  0.25071646684E+03  0.00000000000E+00 0. -1.
          6    1    1    2  502    0  0.11629277328E+03 -0.39993473866E+02  0.17690180980E+03  0.27630913373E+03  0.17300000000E+03 0.  1.
         -6    1    1    2    0  501 -0.11629277328E+03  0.39993473866E+02 -0.14498094275E+03  0.25704466700E+03  0.17300000000E+03 0. -1.
<mgrwt>
<rscale>  2 0.21225571E+03</rscale>
<asrwt>0</asrwt>
<pdfrwt beam="1">  1        2 0.43482667E-01 0.21225571E+03</pdfrwt>
<pdfrwt beam="2">  1       -2 0.38571764E-01 0.21225571E+03</pdfrwt>
<totfact> 0.74574360E+02</totfact>
</mgrwt>
</event>
<event>
 4    1  0.7691552E-001  0.1788400E+03  0.7546771E-02  0.1168930E+00
         -2   -1    0    0    0  501 -0.00000000000E+00  0.00000000000E+00  0.22039138566E+03  0.22039138566E+03  0.00000000000E+00 0.  1.
          2   -1    0    0  502    0  0.00000000000E+00 -0.00000000000E+00 -0.19203459334E+03  0.19203459334E+03  0.00000000000E+00 0. -1.
          6    1    1    2  502    0 -0.77422705698E+01  0.44663270857E+02  0.11610056461E+03  0.21322075795E+03  0.17300000000E+03 0.  1.
         -6    1    1    2    0  501  0.77422705698E+01 -0.44663270857E+02 -0.87743772287E+02  0.19920522105E+03  0.17300000000E+03 0. -1.
<mgrwt>
<rscale>  2 0.17884001E+03</rscale>
<asrwt>0</asrwt>
<pdfrwt beam="2">  1        2 0.29543784E-01 0.17884001E+03</pdfrwt>
<pdfrwt beam="1">  1       -2 0.33906367E-01 0.17884001E+03</pdfrwt>
<totfact> 0.14373059E+03</totfact>
</mgrwt>
</event>
<event>
 4    1  0.7691552E-001  0.3239172E+03  0.7546771E-02  0.1073860E+00
          4   -1    0    0  502    0  0.00000000000E+00  0.00000000000E+00  0.28132214578E+03  0.28132214578E+03  0.00000000000E+00 0.  1.
         -4   -1    0    0    0  501 -0.00000000000E+00 -0.00000000000E+00 -0.37296214659E+03  0.37296214659E+03  0.00000000000E+00 0. -1.
          6    1    1    2  502    0  0.23544256765E+03 -0.13985757416E+03 -0.45406462532E+02  0.32708422547E+03  0.17300000000E+03 0.  1.
         -6    1    1    2    0  501 -0.23544256765E+03  0.13985757416E+03 -0.46233538279E+02  0.32720006689E+03  0.17300000000E+03 0. -1.
<mgrwt>
<rscale>  2 0.32391719E+03</rscale>
<asrwt>0</asrwt>
<pdfrwt beam="1">  1        4 0.43280330E-01 0.32391719E+03</pdfrwt>
<pdfrwt beam="2">  1       -4 0.57378792E-01 0.32391719E+03</pdfrwt>
<totfact> 0.28190550E+01</totfact>
</mgrwt>
</event>
<event>
 4    1  0.7691552E-001  0.1916615E+03  0.7546771E-02  0.1156971E+00
         -2   -1    0    0    0  501 -0.00000000000E+00  0.00000000000E+00  0.15929843854E+02  0.15929843854E+02  0.00000000000E+00 0. -1.
          2   -1    0    0  502    0  0.00000000000E+00 -0.00000000000E+00 -0.23085222426E+04  0.23085222426E+04  0.00000000000E+00 0.  1.
          6    1    1    2  502    0  0.25330876268E+02 -0.78507723641E+02 -0.11078301005E+04  0.11242871731E+04  0.17300000000E+03 0.  1.
         -6    1    1    2    0  501 -0.25330876268E+02  0.78507723641E+02 -0.11847622982E+04  0.12001649133E+04  0.17300000000E+03 0.  1.
<mgrwt>
<rscale>  2 0.19166146E+03</rscale>
<asrwt>0</asrwt>
<pdfrwt beam="2">  1        2 0.35515714E+00 0.19166146E+03</pdfrwt>
<pdfrwt beam="1">  1       -2 0.24507461E-02 0.19166146E+03</pdfrwt>
<totfact> 0.29266965E+03</totfact>
</mgrwt>
</event>
<event>
 4    1  0.7691552E-001  0.2349271E+03  0.7546771E-02  0.1123219E+00
         -2   -1    0    0    0  501 -0.00000000000E+00  0.00000000000E+00  0.15771381001E+04  0.15771381001E+04  0.00000000000E+00 0. -1.
          2   -1    0    0  502    0  0.00000000000E+00 -0.00000000000E+00 -0.35711881554E+02  0.35711881554E+02  0.00000000000E+00 0.  1.
          6    1    1    2  502    0 -0.14596959578E+03  0.62885922245E+02  0.88502961002E+03  0.91567907736E+03  0.17300000000E+03 0. -1.
         -6    1    1    2    0  501  0.14596959578E+03 -0.62885922245E+02  0.65639660855E+03  0.69717090432E+03  0.17300000000E+03 0.  1.
<mgrwt>
<rscale>  2 0.23492714E+03</rscale>
<asrwt>0</asrwt>
<pdfrwt beam="2">  1        2 0.54941369E-02 0.23492714E+03</pdfrwt>
<pdfrwt beam="1">  1       -2 0.24263658E+00 0.23492714E+03</pdfrwt>
<totfact> 0.11001799E+02</totfact>
</mgrwt>
</event>
<event>
 4    1  0.7691552E-001  0.4422992E+03  0.7546771E-02  0.1030044E+00
          1   -1    0    0  502    0  0.00000000000E+00  0.00000000000E+00  0.31180304339E+03  0.31180304339E+03  0.00000000000E+00 0. -1.
         -1   -1    0    0    0  501 -0.00000000000E+00 -0.00000000000E+00 -0.79532875605E+03  0.79532875605E+03  0.00000000000E+00 0.  1.
          6    1    1    2  502    0  0.39506737634E+03  0.98088521966E+02  0.12594665421E+02  0.44247849167E+03  0.17300000000E+03 0.  1.
         -6    1    1    2    0  501 -0.39506737634E+03 -0.98088521966E+02 -0.49612037808E+03  0.66465330777E+03  0.17300000000E+03 0.  1.
<mgrwt>
<rscale>  2 0.44229921E+03</rscale>
<asrwt>0</asrwt>
<pdfrwt beam="1">  1        1 0.47969699E-01 0.44229921E+03</pdfrwt>
<pdfrwt beam="2">  1       -1 0.12235827E+00 0.44229921E+03</pdfrwt>
<totfact> 0.51755532E+01</totfact>
</mgrwt>
</event>
<event>
 4    1  0.7691552E-001  0.2370325E+03  0.7546771E-02  0.1121786E+00
         -1   -1    0    0    0  501 -0.00000000000E+00  0.00000000000E+00  0.80698631333E+03  0.80698631333E+03  0.00000000000E+00 0. -1.
          1   -1    0    0  502    0  0.00000000000E+00 -0.00000000000E+00 -0.74542340878E+02  0.74542340878E+02  0.00000000000E+00 0.  1.
          6    1    1    2  502    0 -0.84387773567E+02  0.13832618253E+03  0.25298739601E+03  0.34668004217E+03  0.17300000000E+03 0.  1.
         -6    1    1    2    0  501  0.84387773567E+02 -0.13832618253E+03  0.47945657644E+03  0.53484861203E+03  0.17300000000E+03 0.  1.
<mgrwt>
<rscale>  2 0.23703255E+03</rscale>
<asrwt>0</asrwt>
<pdfrwt beam="2">  1        1 0.11468053E-01 0.23703255E+03</pdfrwt>
<pdfrwt beam="1">  1       -1 0.12415173E+00 0.23703255E+03</pdfrwt>
<totfact> 0.32586640E+02</totfact>
</mgrwt>
</event>
<event>
 4    1  0.7691552E-001  0.2114120E+03  0.7546771E-02  0.1140453E+00
          4   -1    0    0  502    0  0.00000000000E+00  0.00000000000E+00  0.66760556862E+03  0.66760556862E+03  0.00000000000E+00 0.  1.
         -4   -1    0    0    0  501 -0.00000000000E+00 -0.00000000000E+00 -0.74276802771E+02  0.74276802771E+02  0.00000000000E+00 0. -1.
          6    1    1    2  502    0 -0.79287524154E+02  0.92084317046E+02  0.18014794718E+03  0.27775585647E+03  0.17300000000E+03 0.  1.
         -6    1    1    2    0  501  0.79287524154E+02 -0.92084317046E+02  0.41318081867E+03  0.46412651492E+03  0.17300000000E+03 0.  1.
<mgrwt>
<rscale>  2 0.21141200E+03</rscale>
<asrwt>0</asrwt>
<pdfrwt beam="1">  1        4 0.10270854E+00 0.21141200E+03</pdfrwt>
<pdfrwt beam="2">  1       -4 0.11427201E-01 0.21141200E+03</pdfrwt>
<totfact> 0.86889256E+01</totfact>
</mgrwt>
</event>
<event>
 4    1  0.7691552E-001  0.4711868E+03  0.7546771E-02  0.1021586E+00
         -1   -1    0    0    0  501 -0.00000000000E+00  0.00000000000E+00  0.19772781732E+03  0.19772781732E+03  0.00000000000E+00 0.  1.
          1   -1    0    0  502    0  0.00000000000E+00 -0.00000000000E+00 -0.11235292820E+04  0.11235292820E+04  0.00000000000E+00 0. -1.
          6    1    1    2  502    0  0.27947874821E+03  0.33760866888E+03 -0.47924684464E+03  0.67208222867E+03  0.17300000000E+03 0.  1.
         -6    1    1    2    0  501 -0.27947874821E+03 -0.33760866888E+03 -0.44655462006E+03  0.64917487066E+03  0.17300000000E+03 0.  1.
<mgrwt>
<rscale>  2 0.47118678E+03</rscale>
<asrwt>0</asrwt>
<pdfrwt beam="2">  1        1 0.17285066E+00 0.47118678E+03</pdfrwt>
<pdfrwt beam="1">  1       -1 0.30419663E-01 0.47118678E+03</pdfrwt>
<totfact> 0.12679003E+02</totfact>
</mgrwt>
</event>
<event>
 4    1  0.7691552E-001  0.2288631E+03  0.7546771E-02  0.1127443E+00
          1   -1    0    0  502    0  0.00000000000E+00  0.00000000000E+00  0.61287131580E+03  0.61287131580E+03  0.00000000000E+00 0. -1.
         -1   -1    0    0    0  501 -0.00000000000E+00 -0.00000000000E+00 -0.86733318966E+02  0.86733318966E+02  0.00000000000E+00 0.  1.
          6    1    1    2  502    0 -0.32824409168E+02  0.14619125917E+03  0.22074903935E+03  0.31797557212E+03  0.17300000000E+03 0.  1.
         -6    1    1    2    0  501  0.32824409168E+02 -0.14619125917E+03  0.30538895748E+03  0.38162906264E+03  0.17300000000E+03 0. -1.
<mgrwt>
<rscale>  2 0.22886312E+03</rscale>
<asrwt>0</asrwt>
<pdfrwt beam="1">  1        1 0.94287892E-01 0.22886312E+03</pdfrwt>
<pdfrwt beam="2">  1       -1 0.13343588E-01 0.22886312E+03</pdfrwt>
<totfact> 0.13212324E+03</totfact>
</mgrwt>
</event>
<event>
 4    1  0.7691552E-001  0.1881941E+03  0.7546771E-02  0.1160100E+00
          1   -1    0    0  502    0  0.00000000000E+00  0.00000000000E+00  0.18761635906E+03  0.18761635906E+03  0.00000000000E+00 0. -1.
         -1   -1    0    0    0  501 -0.00000000000E+00 -0.00000000000E+00 -0.22899087256E+03  0.22899087256E+03  0.00000000000E+00 0.  1.
          6    1    1    2  502    0 -0.31554013405E+02 -0.67025107053E+02  0.66608649867E+02  0.19963399754E+03  0.17300000000E+03 0. -1.
         -6    1    1    2    0  501  0.31554013405E+02  0.67025107053E+02 -0.10798316336E+03  0.21697323408E+03  0.17300000000E+03 0.  1.
<mgrwt>
<rscale>  2 0.18819410E+03</rscale>
<asrwt>0</asrwt>
<pdfrwt beam="1">  1        1 0.28864055E-01 0.18819410E+03</pdfrwt>
<pdfrwt beam="2">  1       -1 0.35229365E-01 0.18819410E+03</pdfrwt>
<totfact> 0.12224165E+03</totfact>
</mgrwt>
</event>
<event>
 4    1  0.7691552E-001  0.2704192E+03  0.7546771E-02  0.1101040E+00
          2   -1    0    0  502    0  0.00000000000E+00  0.00000000000E+00  0.21967460685E+03  0.21967460685E+03  0.00000000000E+00 0. -1.
         -2   -1    0    0    0  501 -0.00000000000E+00 -0.00000000000E+00 -0.53024363728E+03  0.53024363728E+03  0.00000000000E+00 0.  1.
          6    1    1    2  502    0  0.20756634264E+03  0.10664463271E+02 -0.38404108680E+03  0.46969572462E+03  0.17300000000E+03 0.  1.
         -6    1    1    2    0  501 -0.20756634264E+03 -0.10664463271E+02  0.73472056371E+02  0.28022251951E+03  0.17300000000E+03 0. -1.
<mgrwt>
<rscale>  2 0.27041915E+03</rscale>
<asrwt>0</asrwt>
<pdfrwt beam="1">  1        2 0.33796094E-01 0.27041915E+03</pdfrwt>
<pdfrwt beam="2">  1       -2 0.81575944E-01 0.27041915E+03</pdfrwt>
<totfact> 0.21093512E+02</totfact>
</mgrwt>
</event>
<event>
 4    1  0.7691552E-001  0.2317783E+03  0.7546771E-02  0.1125394E+00
         -1   -1    0    0    0  501 -0.00000000000E+00  0.00000000000E+00  0.10555590869E+03  0.10555590869E+03  0.00000000000E+00 0. -1.
          1   -1    0    0  502    0  0.00000000000E+00 -0.00000000000E+00 -0.50952829683E+03  0.50952829683E+03  0.00000000000E+00 0.  1.
          6    1    1    2  502    0  0.90513092475E+01  0.15398138690E+03 -0.21247240826E+03  0.31442919391E+03  0.17300000000E+03 0. -1.
         -6    1    1    2    0  501 -0.90513092475E+01 -0.15398138690E+03 -0.19149997988E+03  0.30065501161E+03  0.17300000000E+03 0. -1.
<mgrwt>
<rscale>  2 0.23177833E+03</rscale>
<asrwt>0</asrwt>
<pdfrwt beam="2">  1        1 0.78388969E-01 0.23177833E+03</pdfrwt>
<pdfrwt beam="1">  1       -1 0.16239371E-01 0.23177833E+03</pdfrwt>
<totfact> 0.12447198E+03</totfact>
</mgrwt>
</event>
<event>
 4    1  0.7691552E-001  0.1806185E+03  0.7546771E-02  0.1167206E+00
          2   -1    0    0  502    0  0.00000000000E+00  0.00000000000E+00  0.60639184023E+03  0.60639184023E+03  0.00000000000E+00 0. -1.
         -2   -1    0    0    0  501 -0.00000000000E+00 -0.00000000000E+00 -0.10469859572E+03  0.10469859572E+03  0.00000000000E+00 0.  1.
          6    1    1    2  502    0 -0.50100815297E+02 -0.13562352159E+02  0.29427518606E+01  0.18064243377E+03  0.17300000000E+03 0.  1.
         -6    1    1    2    0  501  0.50100815297E+02  0.13562352159E+02  0.49875049265E+03  0.53044800218E+03  0.17300000000E+03 0. -1.
<mgrwt>
<rscale>  2 0.18061846E+03</rscale>
<asrwt>0</asrwt>
<pdfrwt beam="1">  1        2 0.93291050E-01 0.18061846E+03</pdfrwt>
<pdfrwt beam="2">  1       -2 0.16107477E-01 0.18061846E+03</pdfrwt>
<totfact> 0.15063301E+03</totfact>
</mgrwt>
</event>
<event>
 4    1  0.7691552E-001  0.1791477E+03  0.7546771E-02  0.1168630E+00
         -2   -1    0    0    0  501 -0.00000000000E+00  0.00000000000E+00  0.76619883036E+02  0.76619883036E+02  0.00000000000E+00 0. -1.
          2   -1    0    0  502    0  0.00000000000E+00 -0.00000000000E+00 -0.62726831600E+03  0.62726831600E+03  0.00000000000E+00 0.  1.
          6    1    1    2  502    0  0.48802760455E+00 -0.46525899284E+02 -0.72466100672E+02  0.19324914805E+03  0.17300000000E+03 0. -1.
         -6    1    1    2    0  501 -0.48802760455E+00  0.46525899284E+02 -0.47818233229E+03  0.51063905098E+03  0.17300000000E+03 0. -1.
<mgrwt>
<rscale>  2 0.17914770E+03</rscale>
<asrwt>0</asrwt>
<pdfrwt beam="2">  1        2 0.96502816E-01 0.17914770E+03</pdfrwt>
<pdfrwt beam="1">  1       -2 0.11787675E-01 0.17914770E+03</pdfrwt>
<totfact> 0.24091802E+03</totfact>
</mgrwt>
</event>
<event>
 4    1  0.7691552E-001  0.2750692E+03  0.7546771E-02  0.1098413E+00
         -1   -1    0    0    0  501 -0.00000000000E+00  0.00000000000E+00  0.30986574199E+03  0.30986574199E+03  0.00000000000E+00 0. -1.
          1   -1    0    0  502    0  0.00000000000E+00 -0.00000000000E+00 -0.28469846333E+03  0.28469846333E+03  0.00000000000E+00 0.  1.
          6    1    1    2  502    0 -0.19621700122E+03  0.85046733054E+02  0.12473433402E+03  0.30202932383E+03  0.17300000000E+03 0. -1.
         -6    1    1    2    0  501  0.19621700122E+03 -0.85046733054E+02 -0.99567055356E+02  0.29253488148E+03  0.17300000000E+03 0.  1.
<mgrwt>
<rscale>  2 0.27506919E+03</rscale>
<asrwt>0</asrwt>
<pdfrwt beam="2">  1        1 0.43799764E-01 0.27506919E+03</pdfrwt>
<pdfrwt beam="1">  1       -1 0.47671652E-01 0.27506919E+03</pdfrwt>
<totfact> 0.42248184E+02</totfact>
</mgrwt>
</event>
<event>
 4    1  0.7691552E-001  0.2319018E+03  0.7546771E-02  0.1125308E+00
          1   -1    0    0  502    0  0.00000000000E+00  0.00000000000E+00  0.79105116124E+03  0.79105116124E+03  0.00000000000E+00 0. -1.
         -1   -1    0    0    0  501 -0.00000000000E+00 -0.00000000000E+00 -0.68032878847E+02  0.68032878847E+02  0.00000000000E+00 0.  1.
          6    1    1    2  502    0  0.80797719157E+02  0.13160989089E+03  0.37308014990E+03  0.43928035814E+03  0.17300000000E+03 0. -1.
         -6    1    1    2    0  501 -0.80797719157E+02 -0.13160989089E+03  0.34993813250E+03  0.41980368195E+03  0.17300000000E+03 0.  1.
<mgrwt>
<rscale>  2 0.23190178E+03</rscale>
<asrwt>0</asrwt>
<pdfrwt beam="1">  1        1 0.12170017E+00 0.23190178E+03</pdfrwt>
<pdfrwt beam="2">  1       -1 0.10466597E-01 0.23190178E+03</pdfrwt>
<totfact> 0.13311737E+03</totfact>
</mgrwt>
</event>
<event>
 4    1  0.7691552E-001  0.1756337E+03  0.7546771E-02  0.1172097E+00
          1   -1    0    0  502    0  0.00000000000E+00  0.00000000000E+00  0.79107173013E+02  0.79107173013E+02  0.00000000000E+00 0.  1.
         -1   -1    0    0    0  501 -0.00000000000E+00 -0.00000000000E+00 -0.39658838104E+03  0.39658838104E+03  0.00000000000E+00 0. -1.
          6    1    1    2  502    0 -0.28627679881E+02  0.99324686323E+01 -0.18953178712E+03  0.25839794178E+03  0.17300000000E+03 0. -1.
         -6    1    1    2    0  501  0.28627679881E+02 -0.99324686323E+01 -0.12794942091E+03  0.21729761227E+03  0.17300000000E+03 0.  1.
<mgrwt>
<rscale>  2 0.17563370E+03</rscale>
<asrwt>0</asrwt>
<pdfrwt beam="1">  1        1 0.12170334E-01 0.17563370E+03</pdfrwt>
<pdfrwt beam="2">  1       -1 0.61013596E-01 0.17563370E+03</pdfrwt>
<totfact> 0.13684914E+03</totfact>
</mgrwt>
</event>
<event>
 4    1  0.7691552E-001  0.1843104E+03  0.7546771E-02  0.1163695E+00
         -2   -1    0    0    0  501 -0.00000000000E+00  0.00000000000E+00  0.33350405085E+03  0.33350405085E+03  0.00000000000E+00 0. -1.
          2   -1    0    0  502    0  0.00000000000E+00 -0.00000000000E+00 -0.13750942640E+03  0.13750942640E+03  0.00000000000E+00 0.  1.
          6    1    1    2  502    0  0.35316307459E+02  0.52859090225E+02 -0.21916894412E+02  0.18560893096E+03  0.17300000000E+03 0.  1.
         -6    1    1    2    0  501 -0.35316307459E+02 -0.52859090225E+02  0.21791151886E+03  0.28540454629E+03  0.17300000000E+03 0. -1.
<mgrwt>
<rscale>  2 0.18431040E+03</rscale>
<asrwt>0</asrwt>
<pdfrwt beam="2">  1        2 0.21155296E-01 0.18431040E+03</pdfrwt>
<pdfrwt beam="1">  1       -2 0.51308315E-01 0.18431040E+03</pdfrwt>
<totfact> 0.94163227E+02</totfact>
</mgrwt>
</event>
<event>
 4    1  0.7691552E-001  0.1896363E+03  0.7546771E-02  0.1158790E+00
         -2   -1    0    0    0  501 -0.00000000000E+00  0.00000000000E+00  0.15899608401E+02  0.15899608401E+02  0.00000000000E+00 0.  1.
          2   -1    0    0  502    0  0.00000000000E+00 -0.00000000000E+00 -0.25017145986E+04  0.25017145986E+04  0.00000000000E+00 0. -1.
          6    1    1    2  502    0  0.44977163934E+02 -0.63324302673E+02 -0.85309254515E+03  0.87391578723E+03  0.17300000000E+03 0. -1.
         -6    1    1    2    0  501 -0.44977163934E+02  0.63324302673E+02 -0.16327224451E+04  0.16436984198E+04  0.17300000000E+03 0. -1.
<mgrwt>
<rscale>  2 0.18963626E+03</rscale>
<asrwt>0</asrwt>
<pdfrwt beam="2">  1        2 0.38487899E+00 0.18963626E+03</pdfrwt>
<pdfrwt beam="1">  1       -2 0.24460947E-02 0.18963626E+03</pdfrwt>
<totfact> 0.23134387E+03</totfact>
</mgrwt>
</event>
<event>
 4    1  0.7691552E-001  0.2715589E+03  0.7546771E-02  0.1100391E+00
          1   -1    0    0  502    0  0.00000000000E+00  0.00000000000E+00  0.21154607635E+04  0.21154607635E+04  0.00000000000E+00 0. -1.
         -1   -1    0    0    0  501 -0.00000000000E+00 -0.00000000000E+00 -0.42084093646E+02  0.42084093646E+02  0.00000000000E+00 0.  1.
          6    1    1    2  502    0 -0.12754197712E+03 -0.16597677475E+03  0.58972416144E+03  0.64924481690E+03  0.17300000000E+03 0.  1.
         -6    1    1    2    0  501  0.12754197712E+03  0.16597677475E+03  0.14836525084E+04  0.15083000402E+04  0.17300000000E+03 0. -1.
<mgrwt>
<rscale>  2 0.27155892E+03</rscale>
<asrwt>0</asrwt>
<pdfrwt beam="1">  1        1 0.32545542E+00 0.27155892E+03</pdfrwt>
<pdfrwt beam="2">  1       -1 0.64744776E-02 0.27155892E+03</pdfrwt>
<totfact> 0.33781841E+02</totfact>
</mgrwt>
</event>
<event>
 4    1  0.7691552E-001  0.1984876E+03  0.7546771E-02  0.1151021E+00
          3   -1    0    0  502    0  0.00000000000E+00  0.00000000000E+00  0.10707719928E+03  0.10707719928E+03  0.00000000000E+00 0.  1.
         -3   -1    0    0    0  501 -0.00000000000E+00 -0.00000000000E+00 -0.41528930664E+03  0.41528930664E+03  0.00000000000E+00 0. -1.
          6    1    1    2  502    0  0.96836379242E+02 -0.95422848703E+01 -0.24230317173E+03  0.31322223193E+03  0.17300000000E+03 0. -1.
         -6    1    1    2    0  501 -0.96836379242E+02  0.95422848703E+01 -0.65908935626E+02  0.20914427398E+03  0.17300000000E+03 0.  1.
<mgrwt>
<rscale>  2 0.19848763E+03</rscale>
<asrwt>0</asrwt>
<pdfrwt beam="1">  1        3 0.16473416E-01 0.19848763E+03</pdfrwt>
<pdfrwt beam="2">  1       -3 0.63890662E-01 0.19848763E+03</pdfrwt>
<totfact> 0.18590693E+02</totfact>
</mgrwt>
</event>
<event>
 4    1  0.7691552E-001  0.3118230E+03  0.7546771E-02  0.1079475E+00
         -2   -1    0    0    0  501 -0.00000000000E+00  0.00000000000E+00  0.32365325569E+02  0.32365325569E+02  0.00000000000E+00 0.  1.
          2   -1    0    0  502    0  0.00000000000E+00 -0.00000000000E+00 -0.30306454644E+04  0.30306454644E+04  0.00000000000E+00 0. -1.
          6    1    1    2  502    0  0.48490855902E+02 -0.25485918078E+03 -0.16420645162E+04  0.16714094174E+04  0.17300000000E+03 0.  1.
         -6    1    1    2    0  501 -0.48490855902E+02  0.25485918078E+03 -0.13562156226E+04  0.13916013725E+04  0.17300000000E+03 0.  1.
<mgrwt>
<rscale>  2 0.31182297E+03</rscale>
<asrwt>0</asrwt>
<pdfrwt beam="2">  1        2 0.46625312E+00 0.31182297E+03</pdfrwt>
<pdfrwt beam="1">  1       -2 0.49792811E-02 0.31182297E+03</pdfrwt>
<totfact> 0.38990116E+02</totfact>
</mgrwt>
</event>
<event>
 4    1  0.7691552E-001  0.1861115E+03  0.7546771E-02  0.1162016E+00
          2   -1    0    0  502    0  0.00000000000E+00  0.00000000000E+00  0.13638185808E+04  0.13638185808E+04  0.00000000000E+00 0. -1.
         -2   -1    0    0    0  501 -0.00000000000E+00 -0.00000000000E+00 -0.25842571777E+02  0.25842571777E+02  0.00000000000E+00 0.  1.
          6    1    1    2  502    0 -0.55328200040E+02  0.40586543309E+02  0.57779454100E+03  0.60702883690E+03  0.17300000000E+03 0.  1.
         -6    1    1    2    0  501  0.55328200040E+02 -0.40586543309E+02  0.76018146804E+03  0.78263231569E+03  0.17300000000E+03 0. -1.
<mgrwt>
<rscale>  2 0.18611146E+03</rscale>
<asrwt>0</asrwt>
<pdfrwt beam="1">  1        2 0.20981819E+00 0.18611146E+03</pdfrwt>
<pdfrwt beam="2">  1       -2 0.39757813E-02 0.18611146E+03</pdfrwt>
<totfact> 0.44550258E+03</totfact>
</mgrwt>
</event>
<event>
 4    1  0.7691552E-001  0.2743581E+03  0.7546771E-02  0.1098811E+00
         -2   -1    0    0    0  501 -0.00000000000E+00  0.00000000000E+00  0.32127805646E+03  0.32127805646E+03  0.00000000000E+00 0. -1.
          2   -1    0    0  502    0  0.00000000000E+00 -0.00000000000E+00 -0.66041913546E+03  0.66041913546E+03  0.00000000000E+00 0.  1.
          6    1    1    2  502    0  0.10136372632E+03 -0.18726652578E+03  0.22471255071E+03  0.35463796630E+03  0.17300000000E+03 0. -1.
         -6    1    1    2    0  501 -0.10136372632E+03  0.18726652578E+03 -0.56385362972E+03  0.62705922562E+03  0.17300000000E+03 0.  1.
<mgrwt>
<rscale>  2 0.27435808E+03</rscale>
<asrwt>0</asrwt>
<pdfrwt beam="2">  1        2 0.10160294E+00 0.27435808E+03</pdfrwt>
<pdfrwt beam="1">  1       -2 0.49427394E-01 0.27435808E+03</pdfrwt>
<totfact> 0.17871035E+02</totfact>
</mgrwt>
</event>
<event>
 4    1  0.7691552E-001  0.2406566E+03  0.7546771E-02  0.1119356E+00
          3   -1    0    0  502    0  0.00000000000E+00  0.00000000000E+00  0.14141063967E+04  0.14141063967E+04  0.00000000000E+00 0.  1.
         -3   -1    0    0    0  501 -0.00000000000E+00 -0.00000000000E+00 -0.44591138624E+02  0.44591138624E+02  0.00000000000E+00 0. -1.
          6    1    1    2  502    0 -0.44679009228E+02  0.16121529477E+03  0.47650285518E+03  0.53382633518E+03  0.17300000000E+03 0.  1.
         -6    1    1    2    0  501  0.44679009228E+02 -0.16121529477E+03  0.89301240289E+03  0.92487120014E+03  0.17300000000E+03 0. -1.
<mgrwt>
<rscale>  2 0.24065657E+03</rscale>
<asrwt>0</asrwt>
<pdfrwt beam="1">  1        3 0.21755480E+00 0.24065657E+03</pdfrwt>
<pdfrwt beam="2">  1       -3 0.68601763E-02 0.24065657E+03</pdfrwt>
<totfact> 0.42935840E+01</totfact>
</mgrwt>
</event>
<event>
 4    1  0.7691552E-001  0.2075750E+03  0.7546771E-02  0.1143501E+00
         -1   -1    0    0    0  501 -0.00000000000E+00  0.00000000000E+00  0.78255362223E+02  0.78255362223E+02  0.00000000000E+00 0. -1.
          1   -1    0    0  502    0  0.00000000000E+00 -0.00000000000E+00 -0.68756249685E+03  0.68756249685E+03  0.00000000000E+00 0.  1.
          6    1    1    2  502    0 -0.20041225084E+02 -0.11294568185E+03 -0.13375408907E+03  0.24693629562E+03  0.17300000000E+03 0. -1.
         -6    1    1    2    0  501  0.20041225084E+02  0.11294568185E+03 -0.47555304556E+03  0.51888156345E+03  0.17300000000E+03 0.  1.
<mgrwt>
<rscale>  2 0.20757499E+03</rscale>
<asrwt>0</asrwt>
<pdfrwt beam="2">  1        1 0.10577885E+00 0.20757499E+03</pdfrwt>
<pdfrwt beam="1">  1       -1 0.12039286E-01 0.20757499E+03</pdfrwt>
<totfact> 0.13176705E+03</totfact>
</mgrwt>
</event>
<event>
 4    1  0.7691552E-001  0.2112379E+03  0.7546771E-02  0.1140589E+00
          2   -1    0    0  502    0  0.00000000000E+00  0.00000000000E+00  0.37440163957E+03  0.37440163957E+03  0.00000000000E+00 0.  1.
         -2   -1    0    0    0  501 -0.00000000000E+00 -0.00000000000E+00 -0.13009250546E+03  0.13009250546E+03  0.00000000000E+00 0. -1.
          6    1    1    2  502    0  0.22108593850E+02 -0.11917909081E+03  0.19520932548E+03  0.28762497521E+03  0.17300000000E+03 0.  1.
         -6    1    1    2    0  501 -0.22108593850E+02  0.11917909081E+03  0.49099808626E+02  0.21686916981E+03  0.17300000000E+03 0. -1.
<mgrwt>
<rscale>  2 0.21123789E+03</rscale>
<asrwt>0</asrwt>
<pdfrwt beam="1">  1        2 0.57600252E-01 0.21123789E+03</pdfrwt>
<pdfrwt beam="2">  1       -2 0.20014232E-01 0.21123789E+03</pdfrwt>
<totfact> 0.17893952E+03</totfact>
</mgrwt>
</event>
<event>
 4    1  0.7691552E-001  0.2902796E+03  0.7546771E-02  0.1090203E+00
         -2   -1    0    0    0  501 -0.00000000000E+00  0.00000000000E+00  0.32514528355E+02  0.32514528355E+02  0.00000000000E+00 0. -1.
          2   -1    0    0  502    0  0.00000000000E+00 -0.00000000000E+00 -0.26828633233E+04  0.26828633233E+04  0.00000000000E+00 0.  1.
          6    1    1    2  502    0  0.17514556770E+03 -0.15380918396E+03 -0.10746639051E+04  0.11131777684E+04  0.17300000000E+03 0. -1.
         -6    1    1    2    0  501 -0.17514556770E+03  0.15380918396E+03 -0.15756848899E+04  0.16022000833E+04  0.17300000000E+03 0.  1.
<mgrwt>
<rscale>  2 0.29027958E+03</rscale>
<asrwt>0</asrwt>
<pdfrwt beam="2">  1        2 0.41274829E+00 0.29027958E+03</pdfrwt>
<pdfrwt beam="1">  1       -2 0.50022341E-02 0.29027958E+03</pdfrwt>
<totfact> 0.61893603E+02</totfact>
</mgrwt>
</event>
<event>
 4    1  0.7691552E-001  0.4170381E+03  0.7546771E-02  0.1038035E+00
         -2   -1    0    0    0  501 -0.00000000000E+00  0.00000000000E+00  0.35269982677E+03  0.35269982677E+03  0.00000000000E+00 0. -1.
          2   -1    0    0  502    0  0.00000000000E+00 -0.00000000000E+00 -0.83204367697E+03  0.83204367697E+03  0.00000000000E+00 0.  1.
          6    1    1    2  502    0 -0.71324743852E+02 -0.37269901142E+03 -0.61774599697E+03  0.74533944547E+03  0.17300000000E+03 0.  1.
         -6    1    1    2    0  501  0.71324743852E+02  0.37269901142E+03  0.13840214676E+03  0.43940405827E+03  0.17300000000E+03 0. -1.
<mgrwt>
<rscale>  2 0.41703809E+03</rscale>
<asrwt>0</asrwt>
<pdfrwt beam="2">  1        2 0.12800672E+00 0.41703809E+03</pdfrwt>
<pdfrwt beam="1">  1       -2 0.54261511E-01 0.41703809E+03</pdfrwt>
<totfact> 0.10884273E+02</totfact>
</mgrwt>
</event>
<event>
 4    1  0.7691552E-001  0.1843166E+03  0.7546771E-02  0.1163690E+00
          1   -1    0    0  502    0  0.00000000000E+00  0.00000000000E+00  0.78358891926E+03  0.78358891926E+03  0.00000000000E+00 0. -1.
         -1   -1    0    0    0  501 -0.00000000000E+00 -0.00000000000E+00 -0.88335825807E+02  0.88335825807E+02  0.00000000000E+00 0.  1.
          6    1    1    2  502    0  0.56492665555E+02  0.29192501032E+02  0.36531205121E+02  0.18790197531E+03  0.17300000000E+03 0.  1.
         -6    1    1    2    0  501 -0.56492665555E+02 -0.29192501032E+02  0.65872188833E+03  0.68402276975E+03  0.17300000000E+03 0. -1.
<mgrwt>
<rscale>  2 0.18431664E+03</rscale>
<asrwt>0</asrwt>
<pdfrwt beam="1">  1        1 0.12055214E+00 0.18431664E+03</pdfrwt>
<pdfrwt beam="2">  1       -1 0.13590128E-01 0.18431664E+03</pdfrwt>
<totfact> 0.89885897E+02</totfact>
</mgrwt>
</event>
<event>
 4    1  0.7691552E-001  0.2668236E+03  0.7546771E-02  0.1103111E+00
         -1   -1    0    0    0  501 -0.00000000000E+00  0.00000000000E+00  0.49372462535E+02  0.49372462535E+02  0.00000000000E+00 0.  1.
          1   -1    0    0  502    0  0.00000000000E+00 -0.00000000000E+00 -0.14702122380E+04  0.14702122380E+04  0.00000000000E+00 0. -1.
          6    1    1    2  502    0 -0.11287507171E+03 -0.16889365207E+03 -0.81567946427E+03  0.85821199943E+03  0.17300000000E+03 0. -1.
         -6    1    1    2    0  501  0.11287507171E+03  0.16889365207E+03 -0.60516031116E+03  0.66137270108E+03  0.17300000000E+03 0.  1.
<mgrwt>
<rscale>  2 0.26682363E+03</rscale>
<asrwt>0</asrwt>
<pdfrwt beam="2">  1        1 0.22618654E+00 0.26682363E+03</pdfrwt>
<pdfrwt beam="1">  1       -1 0.75957622E-02 0.26682363E+03</pdfrwt>
<totfact> 0.69955705E+02</totfact>
</mgrwt>
</event>
<event>
 4    1  0.7691552E-001  0.2835102E+03  0.7546771E-02  0.1093787E+00
         -1   -1    0    0    0  501 -0.00000000000E+00  0.00000000000E+00  0.14623691345E+03  0.14623691345E+03  0.00000000000E+00 0.  1.
          1   -1    0    0  502    0  0.00000000000E+00 -0.00000000000E+00 -0.62112351472E+03  0.62112351472E+03  0.00000000000E+00 0. -1.
          6    1    1    2  502    0  0.50527539498E+02  0.21885159815E+03 -0.10728402679E+03  0.30313019755E+03  0.17300000000E+03 0. -1.
         -6    1    1    2    0  501 -0.50527539498E+02 -0.21885159815E+03 -0.36760257447E+03  0.46423023062E+03  0.17300000000E+03 0. -1.
<mgrwt>
<rscale>  2 0.28351024E+03</rscale>
<asrwt>0</asrwt>
<pdfrwt beam="2">  1        1 0.95557463E-01 0.28351024E+03</pdfrwt>
<pdfrwt beam="1">  1       -1 0.22497987E-01 0.28351024E+03</pdfrwt>
<totfact> 0.55860525E+02</totfact>
</mgrwt>
</event>
<event>
 4    1  0.7691552E-001  0.2136355E+03  0.7546771E-02  0.1138719E+00
          1   -1    0    0  502    0  0.00000000000E+00  0.00000000000E+00  0.44651012586E+03  0.44651012586E+03  0.00000000000E+00 0. -1.
         -1   -1    0    0    0  501 -0.00000000000E+00 -0.00000000000E+00 -0.11198570688E+03  0.11198570688E+03  0.00000000000E+00 0.  1.
          6    1    1    2  502    0 -0.92808956792E+02 -0.84247282096E+02  0.24974587043E+03  0.32865347525E+03  0.17300000000E+03 0. -1.
         -6    1    1    2    0  501  0.92808956792E+02  0.84247282096E+02  0.84778548553E+02  0.22984235749E+03  0.17300000000E+03 0.  1.
<mgrwt>
<rscale>  2 0.21363545E+03</rscale>
<asrwt>0</asrwt>
<pdfrwt beam="1">  1        1 0.68693864E-01 0.21363545E+03</pdfrwt>
<pdfrwt beam="2">  1       -1 0.17228571E-01 0.21363545E+03</pdfrwt>
<totfact> 0.13458128E+03</totfact>
</mgrwt>
</event>
<event>
 4    1  0.7691552E-001  0.1915660E+03  0.7546771E-02  0.1157056E+00
         -1   -1    0    0    0  501 -0.00000000000E+00  0.00000000000E+00  0.29509266056E+02  0.29509266056E+02  0.00000000000E+00 0. -1.
          1   -1    0    0  502    0  0.00000000000E+00 -0.00000000000E+00 -0.15847848683E+04  0.15847848683E+04  0.00000000000E+00 0.  1.
          6    1    1    2  502    0  0.50057099987E+02  0.65290377639E+02 -0.40312539843E+03  0.44632682367E+03  0.17300000000E+03 0. -1.
         -6    1    1    2    0  501 -0.50057099987E+02 -0.65290377639E+02 -0.11521502038E+04  0.11679673107E+04  0.17300000000E+03 0.  1.
<mgrwt>
<rscale>  2 0.19156604E+03</rscale>
<asrwt>0</asrwt>
<pdfrwt beam="2">  1        1 0.24381306E+00 0.19156604E+03</pdfrwt>
<pdfrwt beam="1">  1       -1 0.45398870E-02 0.19156604E+03</pdfrwt>
<totfact> 0.12853487E+03</totfact>
</mgrwt>
</event>
<event>
 4    1  0.7691552E-001  0.2946757E+03  0.7546771E-02  0.1087933E+00
          1   -1    0    0  502    0  0.00000000000E+00  0.00000000000E+00  0.23193756630E+03  0.23193756630E+03  0.00000000000E+00 0.  1.
         -1   -1    0    0    0  501 -0.00000000000E+00 -0.00000000000E+00 -0.40070743696E+03  0.40070743696E+03  0.00000000000E+00 0. -1.
          6    1    1    2  502    0  0.12743587292E+03 -0.20165529963E+03 -0.33101171824E+01  0.29469427963E+03  0.17300000000E+03 0.  1.
         -6    1    1    2    0  501 -0.12743587292E+03  0.20165529963E+03 -0.16545975348E+03  0.33795072362E+03  0.17300000000E+03 0. -1.
<mgrwt>
<rscale>  2 0.29467569E+03</rscale>
<asrwt>0</asrwt>
<pdfrwt beam="1">  1        1 0.35682703E-01 0.29467569E+03</pdfrwt>
<pdfrwt beam="2">  1       -1 0.61647297E-01 0.29467569E+03</pdfrwt>
<totfact> 0.33638208E+02</totfact>
</mgrwt>
</event>
<event>
 4    1  0.7691552E-001  0.1798660E+03  0.7546771E-02  0.1167933E+00
         -1   -1    0    0    0  501 -0.00000000000E+00  0.00000000000E+00  0.35017545815E+02  0.35017545815E+02  0.00000000000E+00 0. -1.
          1   -1    0    0  502    0  0.00000000000E+00 -0.00000000000E+00 -0.95667255583E+03  0.95667255583E+03  0.00000000000E+00 0.  1.
          6    1    1    2  502    0  0.13161200199E+02 -0.47429542531E+02 -0.55263872046E+03  0.58117237894E+03  0.17300000000E+03 0.  1.
         -6    1    1    2    0  501 -0.13161200199E+02  0.47429542531E+02 -0.36901628956E+03  0.41051772271E+03  0.17300000000E+03 0. -1.
<mgrwt>
<rscale>  2 0.17986600E+03</rscale>
<asrwt>0</asrwt>
<pdfrwt beam="2">  1        1 0.14718042E+00 0.17986600E+03</pdfrwt>
<pdfrwt beam="1">  1       -1 0.53873139E-02 0.17986600E+03</pdfrwt>
<totfact> 0.26915252E+03</totfact>
</mgrwt>
</event>
<event>
 4    1  0.7691552E-001  0.5339657E+03  0.7546771E-02  0.1005275E+00
         -2   -1    0    0    0  501 -0.00000000000E+00  0.00000000000E+00  0.17063315929E+03  0.17063315929E+03  0.00000000000E+00 0. -1.
          2   -1    0    0  502    0  0.00000000000E+00 -0.00000000000E+00 -0.23016238159E+04  0.23016238159E+04  0.00000000000E+00 0.  1.
          6    1    1    2  502    0 -0.22623339229E+03 -0.45167338961E+03 -0.41842869854E+03  0.67838187950E+03  0.17300000000E+03 0. -1.
         -6    1    1    2    0  501  0.22623339229E+03  0.45167338961E+03 -0.17125619580E+04  0.17938750957E+04  0.17300000000E+03 0.  1.
<mgrwt>
<rscale>  2 0.53396573E+03</rscale>
<asrwt>0</asrwt>
<pdfrwt beam="2">  1        2 0.35409596E+00 0.53396573E+03</pdfrwt>
<pdfrwt beam="1">  1       -2 0.26251256E-01 0.53396573E+03</pdfrwt>
<totfact> 0.63385716E+01</totfact>
</mgrwt>
</event>
<event>
 4    1  0.7691552E-001  0.1907433E+03  0.7546771E-02  0.1157793E+00
          2   -1    0    0  502    0  0.00000000000E+00  0.00000000000E+00  0.47819225698E+02  0.47819225698E+02  0.00000000000E+00 0. -1.
         -2   -1    0    0    0  501 -0.00000000000E+00 -0.00000000000E+00 -0.80417971481E+03  0.80417971481E+03  0.00000000000E+00 0.  1.
          6    1    1    2  502    0  0.72497905924E+02 -0.34612812876E+02 -0.27929006720E+03  0.33820989757E+03  0.17300000000E+03 0. -1.
         -6    1    1    2    0  501 -0.72497905924E+02  0.34612812876E+02 -0.47707042192E+03  0.51378904294E+03  0.17300000000E+03 0.  1.
<mgrwt>
<rscale>  2 0.19074327E+03</rscale>
<asrwt>0</asrwt>
<pdfrwt beam="1">  1        2 0.73568044E-02 0.19074327E+03</pdfrwt>
<pdfrwt beam="2">  1       -2 0.12371995E+00 0.19074327E+03</pdfrwt>
<totfact> 0.48441164E+02</totfact>
</mgrwt>
</event>
<event>
 4    1  0.7691552E-001  0.3730361E+03  0.7546771E-02  0.1053538E+00
          2   -1    0    0  502    0  0.00000000000E+00  0.00000000000E+00  0.18993776572E+04  0.18993776572E+04  0.00000000000E+00 0. -1.
         -2   -1    0    0    0  501 -0.00000000000E+00 -0.00000000000E+00 -0.80007324018E+02  0.80007324018E+02  0.00000000000E+00 0.  1.
          6    1    1    2  502    0  0.12268421662E+02 -0.33026724778E+03  0.11970099045E+04  0.12537897274E+04  0.17300000000E+03 0. -1.
         -6    1    1    2    0  501 -0.12268421662E+02  0.33026724778E+03  0.62236042865E+03  0.72559525376E+03  0.17300000000E+03 0.  1.
<mgrwt>
<rscale>  2 0.37303615E+03</rscale>
<asrwt>0</asrwt>
<pdfrwt beam="1">  1        2 0.29221191E+00 0.37303615E+03</pdfrwt>
<pdfrwt beam="2">  1       -2 0.12308821E-01 0.37303615E+03</pdfrwt>
<totfact> 0.39284581E+02</totfact>
</mgrwt>
</event>
<event>
 4    1  0.7691552E-001  0.3660832E+03  0.7546771E-02  0.1056201E+00
          1   -1    0    0  502    0  0.00000000000E+00  0.00000000000E+00  0.31369693137E+04  0.31369693137E+04  0.00000000000E+00 0. -1.
         -1   -1    0    0    0  501 -0.00000000000E+00 -0.00000000000E+00 -0.63585424208E+02  0.63585424208E+02  0.00000000000E+00 0.  1.
          6    1    1    2  502    0 -0.20067655140E+03  0.25261994203E+03  0.24533588652E+04  0.24805214441E+04  0.17300000000E+03 0. -1.
         -6    1    1    2    0  501  0.20067655140E+03 -0.25261994203E+03  0.62002502434E+03  0.72003329381E+03  0.17300000000E+03 0.  1.
<mgrwt>
<rscale>  2 0.36608321E+03</rscale>
<asrwt>0</asrwt>
<pdfrwt beam="1">  1        1 0.48261054E+00 0.36608321E+03</pdfrwt>
<pdfrwt beam="2">  1       -1 0.97823754E-02 0.36608321E+03</pdfrwt>
<totfact> 0.35451868E+01</totfact>
</mgrwt>
</event>
<event>
 4    1  0.7691552E-001  0.2321544E+03  0.7546771E-02  0.1125133E+00
          2   -1    0    0  502    0  0.00000000000E+00  0.00000000000E+00  0.25789748071E+03  0.25789748071E+03  0.00000000000E+00 0. -1.
         -2   -1    0    0    0  501 -0.00000000000E+00 -0.00000000000E+00 -0.23251546469E+03  0.23251546469E+03  0.00000000000E+00 0.  1.
          6    1    1    2  502    0  0.58712594294E+02 -0.14324630523E+03 -0.65320414381E+02  0.24116888113E+03  0.17300000000E+03 0.  1.
         -6    1    1    2    0  501 -0.58712594294E+02  0.14324630523E+03  0.90702430399E+02  0.24924406427E+03  0.17300000000E+03 0. -1.
<mgrwt>
<rscale>  2 0.23215442E+03</rscale>
<asrwt>0</asrwt>
<pdfrwt beam="1">  1        2 0.39676535E-01 0.23215442E+03</pdfrwt>
<pdfrwt beam="2">  1       -2 0.35771610E-01 0.23215442E+03</pdfrwt>
<totfact> 0.94975122E+02</totfact>
</mgrwt>
</event>
<event>
 4    1  0.7691552E-001  0.1788054E+03  0.7546771E-02  0.1168964E+00
         -2   -1    0    0    0  501 -0.00000000000E+00  0.00000000000E+00  0.11306225230E+03  0.11306225230E+03  0.00000000000E+00 0. -1.
          2   -1    0    0  502    0  0.00000000000E+00 -0.00000000000E+00 -0.37594937332E+03  0.37594937332E+03  0.00000000000E+00 0.  1.
          6    1    1    2  502    0  0.69225427349E+01  0.44659130968E+02 -0.25316554135E+03  0.30994217348E+03  0.17300000000E+03 0.  1.
         -6    1    1    2    0  501 -0.69225427349E+01 -0.44659130968E+02 -0.97215796732E+01  0.17906945214E+03  0.17300000000E+03 0. -1.
<mgrwt>
<rscale>  2 0.17880537E+03</rscale>
<asrwt>0</asrwt>
<pdfrwt beam="2">  1        2 0.57838365E-01 0.17880537E+03</pdfrwt>
<pdfrwt beam="1">  1       -2 0.17394193E-01 0.17880537E+03</pdfrwt>
<totfact> 0.22479587E+03</totfact>
</mgrwt>
</event>
<event>
 4    1  0.7691552E-001  0.2532542E+03  0.7546771E-02  0.1111265E+00
         -2   -1    0    0    0  501 -0.00000000000E+00  0.00000000000E+00  0.26715898986E+03  0.26715898986E+03  0.00000000000E+00 0. -1.
          2   -1    0    0  502    0  0.00000000000E+00 -0.00000000000E+00 -0.26370313814E+03  0.26370313814E+03  0.00000000000E+00 0.  1.
          6    1    1    2  502    0  0.18201333602E+03 -0.32860530494E+02 -0.77728116085E+02  0.26491381426E+03  0.17300000000E+03 0.  1.
         -6    1    1    2    0  501 -0.18201333602E+03  0.32860530494E+02  0.81183967804E+02  0.26594831374E+03  0.17300000000E+03 0. -1.
<mgrwt>
<rscale>  2 0.25325416E+03</rscale>
<asrwt>0</asrwt>
<pdfrwt beam="2">  1        2 0.40569714E-01 0.25325416E+03</pdfrwt>
<pdfrwt beam="1">  1       -2 0.41101383E-01 0.25325416E+03</pdfrwt>
<totfact> 0.71286523E+02</totfact>
</mgrwt>
</event>
<event>
 4    1  0.7691552E-001  0.2938693E+03  0.7546771E-02  0.1088346E+00
          3   -1    0    0  502    0  0.00000000000E+00  0.00000000000E+00  0.24825657676E+03  0.24825657676E+03  0.00000000000E+00 0.  1.
         -3   -1    0    0    0  501 -0.00000000000E+00 -0.00000000000E+00 -0.55428118660E+03  0.55428118660E+03  0.00000000000E+00 0. -1.
          6    1    1    2  502    0 -0.11849829080E+03  0.20588419940E+03 -0.39788758105E+03  0.49464499961E+03  0.17300000000E+03 0.  1.
         -6    1    1    2    0  501  0.11849829080E+03 -0.20588419940E+03  0.91862971216E+02  0.30789276374E+03  0.17300000000E+03 0.  1.
<mgrwt>
<rscale>  2 0.29386927E+03</rscale>
<asrwt>0</asrwt>
<pdfrwt beam="1">  1        3 0.38193321E-01 0.29386927E+03</pdfrwt>
<pdfrwt beam="2">  1       -3 0.85274026E-01 0.29386927E+03</pdfrwt>
<totfact> 0.21923677E+01</totfact>
</mgrwt>
</event>
<event>
 4    1  0.7691552E-001  0.2027491E+03  0.7546771E-02  0.1147440E+00
          2   -1    0    0  502    0  0.00000000000E+00  0.00000000000E+00  0.68654258591E+03  0.68654258591E+03  0.00000000000E+00 0. -1.
         -2   -1    0    0    0  501 -0.00000000000E+00 -0.00000000000E+00 -0.61092257963E+02  0.61092257963E+02  0.00000000000E+00 0.  1.
          6    1    1    2  502    0 -0.89272876667E+02 -0.56643992664E+02  0.25997297065E+03  0.32968641750E+03  0.17300000000E+03 0.  1.
         -6    1    1    2    0  501  0.89272876667E+02  0.56643992664E+02  0.36547735730E+03  0.41794842638E+03  0.17300000000E+03 0. -1.
<mgrwt>
<rscale>  2 0.20274908E+03</rscale>
<asrwt>0</asrwt>
<pdfrwt beam="1">  1        2 0.10562193E+00 0.20274908E+03</pdfrwt>
<pdfrwt beam="2">  1       -2 0.93988094E-02 0.20274908E+03</pdfrwt>
<totfact> 0.31150235E+03</totfact>
</mgrwt>
</event>
<event>
 4    1  0.7691552E-001  0.1867446E+03  0.7546771E-02  0.1161431E+00
          2   -1    0    0  502    0  0.00000000000E+00  0.00000000000E+00  0.25183294814E+03  0.25183294814E+03  0.00000000000E+00 0.  1.
         -2   -1    0    0    0  501 -0.00000000000E+00 -0.00000000000E+00 -0.14543067681E+03  0.14543067681E+03  0.00000000000E+00 0. -1.
          6    1    1    2  502    0 -0.53667427033E+02  0.45435265308E+02  0.96628943503E+02  0.21026342711E+03  0.17300000000E+03 0.  1.
         -6    1    1    2    0  501  0.53667427033E+02 -0.45435265308E+02  0.97733278264E+01  0.18700019785E+03  0.17300000000E+03 0. -1.
<mgrwt>
<rscale>  2 0.18674463E+03</rscale>
<asrwt>0</asrwt>
<pdfrwt beam="1">  1        2 0.38743530E-01 0.18674463E+03</pdfrwt>
<pdfrwt beam="2">  1       -2 0.22373950E-01 0.18674463E+03</pdfrwt>
<totfact> 0.22539816E+03</totfact>
</mgrwt>
</event>
<event>
 4    1  0.7691552E-001  0.2036166E+03  0.7546771E-02  0.1146723E+00
          2   -1    0    0  502    0  0.00000000000E+00  0.00000000000E+00  0.92745565033E+02  0.92745565033E+02  0.00000000000E+00 0.  1.
         -2   -1    0    0    0  501 -0.00000000000E+00 -0.00000000000E+00 -0.45065705906E+03  0.45065705906E+03  0.00000000000E+00 0. -1.
          6    1    1    2  502    0 -0.10702087986E+03 -0.87885768389E+01 -0.15456827989E+03  0.25563853575E+03  0.17300000000E+03 0.  1.
         -6    1    1    2    0  501  0.10702087986E+03  0.87885768389E+01 -0.20334321414E+03  0.28776408835E+03  0.17300000000E+03 0.  1.
<mgrwt>
<rscale>  2 0.20361657E+03</rscale>
<asrwt>0</asrwt>
<pdfrwt beam="1">  1        2 0.14268548E-01 0.20361657E+03</pdfrwt>
<pdfrwt beam="2">  1       -2 0.69331856E-01 0.20361657E+03</pdfrwt>
<totfact> 0.80091316E+02</totfact>
</mgrwt>
</event>
<event>
 4    1  0.7691552E-001  0.2029900E+03  0.7546771E-02  0.1147241E+00
         -2   -1    0    0    0  501 -0.00000000000E+00  0.00000000000E+00  0.22749290334E+02  0.22749290334E+02  0.00000000000E+00 0.  1.
          2   -1    0    0  502    0  0.00000000000E+00 -0.00000000000E+00 -0.18546980089E+04  0.18546980089E+04  0.00000000000E+00 0. -1.
          6    1    1    2  502    0 -0.10088465189E+03 -0.33139461206E+02 -0.10596302792E+04  0.10788981720E+04  0.17300000000E+03 0. -1.
         -6    1    1    2    0  501  0.10088465189E+03  0.33139461206E+02 -0.77231843935E+03  0.79854912726E+03  0.17300000000E+03 0.  1.
<mgrwt>
<rscale>  2 0.20298999E+03</rscale>
<asrwt>0</asrwt>
<pdfrwt beam="2">  1        2 0.28533813E+00 0.20298999E+03</pdfrwt>
<pdfrwt beam="1">  1       -2 0.34998911E-02 0.20298999E+03</pdfrwt>
<totfact> 0.29790930E+03</totfact>
</mgrwt>
</event>
<event>
 4    1  0.7691552E-001  0.1918967E+03  0.7546771E-02  0.1156762E+00
         -1   -1    0    0    0  501 -0.00000000000E+00  0.00000000000E+00  0.50142710058E+03  0.50142710058E+03  0.00000000000E+00 0. -1.
          1   -1    0    0  502    0  0.00000000000E+00 -0.00000000000E+00 -0.73449733797E+02  0.73449733797E+02  0.00000000000E+00 0.  1.
          6    1    1    2  502    0 -0.73679049548E+02 -0.38297933126E+02  0.21052334423E+03  0.28485858332E+03  0.17300000000E+03 0. -1.
         -6    1    1    2    0  501  0.73679049548E+02  0.38297933126E+02  0.21745402256E+03  0.29001825107E+03  0.17300000000E+03 0.  1.
<mgrwt>
<rscale>  2 0.19189668E+03</rscale>
<asrwt>0</asrwt>
<pdfrwt beam="2">  1        1 0.11299959E-01 0.19189668E+03</pdfrwt>
<pdfrwt beam="1">  1       -1 0.77142629E-01 0.19189668E+03</pdfrwt>
<totfact> 0.95133082E+02</totfact>
</mgrwt>
</event>
<event>
 4    1  0.7691552E-001  0.2058889E+03  0.7546771E-02  0.1144864E+00
          2   -1    0    0  502    0  0.00000000000E+00  0.00000000000E+00  0.15682201096E+04  0.15682201096E+04  0.00000000000E+00 0. -1.
         -2   -1    0    0    0  501 -0.00000000000E+00 -0.00000000000E+00 -0.30321083776E+02  0.30321083776E+02  0.00000000000E+00 0.  1.
          6    1    1    2  502    0 -0.32862077780E+01 -0.11158144876E+03  0.50565657055E+03  0.54596592037E+03  0.17300000000E+03 0.  1.
         -6    1    1    2    0  501  0.32862077780E+01  0.11158144876E+03  0.10322424553E+04  0.10525752730E+04  0.17300000000E+03 0.  1.
<mgrwt>
<rscale>  2 0.20588885E+03</rscale>
<asrwt>0</asrwt>
<pdfrwt beam="1">  1        2 0.24126457E+00 0.20588885E+03</pdfrwt>
<pdfrwt beam="2">  1       -2 0.46647834E-02 0.20588885E+03</pdfrwt>
<totfact> 0.27299680E+03</totfact>
</mgrwt>
</event>
<event>
 4    1  0.7691552E-001  0.1936701E+03  0.7546771E-02  0.1155192E+00
         -1   -1    0    0    0  501 -0.00000000000E+00  0.00000000000E+00  0.26034044298E+02  0.26034044298E+02  0.00000000000E+00 0. -1.
          1   -1    0    0  502    0  0.00000000000E+00 -0.00000000000E+00 -0.16561219397E+04  0.16561219397E+04  0.00000000000E+00 0.  1.
          6    1    1    2  502    0  0.85714211359E+02  0.15237866628E+02 -0.51172373377E+03  0.54714650534E+03  0.17300000000E+03 0. -1.
         -6    1    1    2    0  501 -0.85714211359E+02 -0.15237866628E+02 -0.11183641616E+04  0.11350094786E+04  0.17300000000E+03 0.  1.
<mgrwt>
<rscale>  2 0.19367013E+03</rscale>
<asrwt>0</asrwt>
<pdfrwt beam="2">  1        1 0.25478805E+00 0.19367013E+03</pdfrwt>
<pdfrwt beam="1">  1       -1 0.40052367E-02 0.19367013E+03</pdfrwt>
<totfact> 0.13913080E+03</totfact>
</mgrwt>
</event>
<event>
 4    1  0.7691552E-001  0.1752156E+03  0.7546771E-02  0.1172515E+00
         -1   -1    0    0    0  501 -0.00000000000E+00  0.00000000000E+00  0.41748138267E+03  0.41748138267E+03  0.00000000000E+00 0.  1.
          1   -1    0    0  502    0  0.00000000000E+00 -0.00000000000E+00 -0.77216560456E+02  0.77216560456E+02  0.00000000000E+00 0. -1.
          6    1    1    2  502    0  0.23128466968E+02 -0.15380855288E+02  0.22412436800E+03  0.28448590303E+03  0.17300000000E+03 0.  1.
         -6    1    1    2    0  501 -0.23128466968E+02  0.15380855288E+02  0.11614045421E+03  0.21021204009E+03  0.17300000000E+03 0. -1.
<mgrwt>
<rscale>  2 0.17521557E+03</rscale>
<asrwt>0</asrwt>
<pdfrwt beam="2">  1        1 0.11879471E-01 0.17521557E+03</pdfrwt>
<pdfrwt beam="1">  1       -1 0.64227904E-01 0.17521557E+03</pdfrwt>
<totfact> 0.12795183E+03</totfact>
</mgrwt>
</event>
<event>
 4    1  0.7691552E-001  0.1846826E+03  0.7546771E-02  0.1163347E+00
          2   -1    0    0  502    0  0.00000000000E+00  0.00000000000E+00  0.47048845495E+02  0.47048845495E+02  0.00000000000E+00 0. -1.
         -2   -1    0    0    0  501 -0.00000000000E+00 -0.00000000000E+00 -0.10135281909E+04  0.10135281909E+04  0.00000000000E+00 0.  1.
          6    1    1    2  502    0  0.60164069198E+02 -0.23642261405E+02 -0.76620438460E+03  0.78814772139E+03  0.17300000000E+03 0.  1.
         -6    1    1    2    0  501 -0.60164069198E+02  0.23642261405E+02 -0.20027496078E+03  0.27242931498E+03  0.17300000000E+03 0. -1.
<mgrwt>
<rscale>  2 0.18468262E+03</rscale>
<asrwt>0</asrwt>
<pdfrwt beam="1">  1        2 0.72382837E-02 0.18468262E+03</pdfrwt>
<pdfrwt beam="2">  1       -2 0.15592742E+00 0.18468262E+03</pdfrwt>
<totfact> 0.27614339E+02</totfact>
</mgrwt>
</event>
<event>
 4    1  0.7691552E-001  0.1930752E+03  0.7546771E-02  0.1155717E+00
          1   -1    0    0  502    0  0.00000000000E+00  0.00000000000E+00  0.56429285445E+03  0.56429285445E+03  0.00000000000E+00 0. -1.
         -1   -1    0    0    0  501 -0.00000000000E+00 -0.00000000000E+00 -0.96084986578E+02  0.96084986578E+02  0.00000000000E+00 0.  1.
          6    1    1    2  502    0  0.85648664155E+02 -0.36507532090E+01  0.41867576872E+03  0.46105034539E+03  0.17300000000E+03 0. -1.
         -6    1    1    2    0  501 -0.85648664155E+02  0.36507532090E+01  0.49532099151E+02  0.19932749564E+03  0.17300000000E+03 0.  1.
<mgrwt>
<rscale>  2 0.19307517E+03</rscale>
<asrwt>0</asrwt>
<pdfrwt beam="1">  1        1 0.86814283E-01 0.19307517E+03</pdfrwt>
<pdfrwt beam="2">  1       -1 0.14782306E-01 0.19307517E+03</pdfrwt>
<totfact> 0.12576568E+03</totfact>
</mgrwt>
</event>
<event>
 4    1  0.7691552E-001  0.1798639E+03  0.7546771E-02  0.1167935E+00
          4   -1    0    0  502    0  0.00000000000E+00  0.00000000000E+00  0.14065281864E+03  0.14065281864E+03  0.00000000000E+00 0.  1.
         -4   -1    0    0    0  501 -0.00000000000E+00 -0.00000000000E+00 -0.51279894516E+03  0.51279894516E+03  0.00000000000E+00 0. -1.
          6    1    1    2  502    0  0.37590720133E+02  0.31763941110E+02 -0.42870287684E+03  0.46490554611E+03  0.17300000000E+03 0. -1.
         -6    1    1    2    0  501 -0.37590720133E+02 -0.31763941110E+02  0.56556750322E+02  0.18854621768E+03  0.17300000000E+03 0.  1.
<mgrwt>
<rscale>  2 0.17986387E+03</rscale>
<asrwt>0</asrwt>
<pdfrwt beam="1">  1        4 0.21638895E-01 0.17986387E+03</pdfrwt>
<pdfrwt beam="2">  1       -4 0.78892145E-01 0.17986387E+03</pdfrwt>
<totfact> 0.50223731E+01</totfact>
</mgrwt>
</event>
<event>
 4    1  0.7691552E-001  0.2189904E+03  0.7546771E-02  0.1134638E+00
          2   -1    0    0  502    0  0.00000000000E+00  0.00000000000E+00  0.45510356750E+03  0.45510356750E+03  0.00000000000E+00 0. -1.
         -2   -1    0    0    0  501 -0.00000000000E+00 -0.00000000000E+00 -0.10543588780E+03  0.10543588780E+03  0.00000000000E+00 0.  1.
          6    1    1    2  502    0  0.71159479730E+02  0.11386006025E+03  0.18153896987E+03  0.28445242565E+03  0.17300000000E+03 0. -1.
         -6    1    1    2    0  501 -0.71159479730E+02 -0.11386006025E+03  0.16812870983E+03  0.27608702966E+03  0.17300000000E+03 0.  1.
<mgrwt>
<rscale>  2 0.21899038E+03</rscale>
<asrwt>0</asrwt>
<pdfrwt beam="1">  1        2 0.70015932E-01 0.21899038E+03</pdfrwt>
<pdfrwt beam="2">  1       -2 0.16220906E-01 0.21899038E+03</pdfrwt>
<totfact> 0.20637416E+03</totfact>
</mgrwt>
</event>
<event>
 4    1  0.7691552E-001  0.2240529E+03  0.7546771E-02  0.1130897E+00
          2   -1    0    0  502    0  0.00000000000E+00  0.00000000000E+00  0.23955918109E+04  0.23955918109E+04  0.00000000000E+00 0. -1.
         -2   -1    0    0    0  501 -0.00000000000E+00 -0.00000000000E+00 -0.23510948052E+02  0.23510948052E+02  0.00000000000E+00 0.  1.
          6    1    1    2  502    0 -0.58862320036E+02  0.12963763224E+03  0.78723316551E+03  0.81849602644E+03  0.17300000000E+03 0.  1.
         -6    1    1    2    0  501  0.58862320036E+02 -0.12963763224E+03  0.15848476973E+04  0.16006067325E+04  0.17300000000E+03 0. -1.
<mgrwt>
<rscale>  2 0.22405287E+03</rscale>
<asrwt>0</asrwt>
<pdfrwt beam="1">  1        2 0.36855239E+00 0.22405287E+03</pdfrwt>
<pdfrwt beam="2">  1       -2 0.36170708E-02 0.22405287E+03</pdfrwt>
<totfact> 0.14706217E+03</totfact>
</mgrwt>
</event>
<event>
 4    1  0.7691552E-001  0.2165029E+03  0.7546771E-02  0.1136517E+00
          2   -1    0    0  502    0  0.00000000000E+00  0.00000000000E+00  0.82542221475E+03  0.82542221475E+03  0.00000000000E+00 0.  1.
         -2   -1    0    0    0  501 -0.00000000000E+00 -0.00000000000E+00 -0.56788686251E+02  0.56788686251E+02  0.00000000000E+00 0. -1.
          6    1    1    2  502    0  0.12437344394E+03  0.38415357856E+02  0.38650152533E+03  0.44300894162E+03  0.17300000000E+03 0.  1.
         -6    1    1    2    0  501 -0.12437344394E+03 -0.38415357856E+02  0.38213200317E+03  0.43920195938E+03  0.17300000000E+03 0. -1.
<mgrwt>
<rscale>  2 0.21650287E+03</rscale>
<asrwt>0</asrwt>
<pdfrwt beam="1">  1        2 0.12698802E+00 0.21650287E+03</pdfrwt>
<pdfrwt beam="2">  1       -2 0.87367216E-02 0.21650287E+03</pdfrwt>
<totfact> 0.27859177E+03</totfact>
</mgrwt>
</event>
<event>
 4    1  0.7691552E-001  0.1732763E+03  0.7546771E-02  0.1174474E+00
          1   -1    0    0  502    0  0.00000000000E+00  0.00000000000E+00  0.31039922293E+03  0.31039922293E+03  0.00000000000E+00 0. -1.
         -1   -1    0    0    0  501 -0.00000000000E+00 -0.00000000000E+00 -0.97554704594E+02  0.97554704594E+02  0.00000000000E+00 0.  1.
          6    1    1    2  502    0  0.17983665267E+01 -0.96145884548E+01  0.87658850181E+02  0.19418740548E+03  0.17300000000E+03 0.  1.
         -6    1    1    2    0  501 -0.17983665267E+01  0.96145884548E+01  0.12518566815E+03  0.21376652204E+03  0.17300000000E+03 0. -1.
<mgrwt>
<rscale>  2 0.17327630E+03</rscale>
<asrwt>0</asrwt>
<pdfrwt beam="1">  1        1 0.47753726E-01 0.17327630E+03</pdfrwt>
<pdfrwt beam="2">  1       -1 0.15008416E-01 0.17327630E+03</pdfrwt>
<totfact> 0.26446717E+03</totfact>
</mgrwt>
</event>
<event>
 4    1  0.7691552E-001  0.2695316E+03  0.7546771E-02  0.1101548E+00
         -1   -1    0    0    0  501 -0.00000000000E+00  0.00000000000E+00  0.34907702835E+03  0.34907702835E+03  0.00000000000E+00 0. -1.
          1   -1    0    0  502    0  0.00000000000E+00 -0.00000000000E+00 -0.52723752029E+03  0.52723752029E+03  0.00000000000E+00 0.  1.
          6    1    1    2  502    0 -0.17431065712E+03 -0.11105892180E+03 -0.42996478726E+03  0.50746133604E+03  0.17300000000E+03 0.  1.
         -6    1    1    2    0  501  0.17431065712E+03  0.11105892180E+03  0.25180429532E+03  0.36885321260E+03  0.17300000000E+03 0. -1.
<mgrwt>
<rscale>  2 0.26953161E+03</rscale>
<asrwt>0</asrwt>
<pdfrwt beam="2">  1        1 0.81113465E-01 0.26953161E+03</pdfrwt>
<pdfrwt beam="1">  1       -1 0.53704158E-01 0.26953161E+03</pdfrwt>
<totfact> 0.15273658E+02</totfact>
</mgrwt>
</event>
<event>
 4    1  0.7691552E-001  0.1863420E+03  0.7546771E-02  0.1161803E+00
         -3   -1    0    0    0  501 -0.00000000000E+00  0.00000000000E+00  0.59173929100E+02  0.59173929100E+02  0.00000000000E+00 0.  1.
          3   -1    0    0  502    0  0.00000000000E+00 -0.00000000000E+00 -0.59437592631E+03  0.59437592631E+03  0.00000000000E+00 0. -1.
          6    1    1    2  502    0  0.12768596766E+02 -0.68053572176E+02 -0.23071131626E+03  0.29656540122E+03  0.17300000000E+03 0.  1.
         -6    1    1    2    0  501 -0.12768596766E+02  0.68053572176E+02 -0.30449068095E+03  0.35698445419E+03  0.17300000000E+03 0.  1.
<mgrwt>
<rscale>  2 0.18634196E+03</rscale>
<asrwt>0</asrwt>
<pdfrwt beam="2">  1        3 0.91442453E-01 0.18634196E+03</pdfrwt>
<pdfrwt beam="1">  1       -3 0.91036811E-02 0.18634196E+03</pdfrwt>
<totfact> 0.23207112E+02</totfact>
</mgrwt>
</event>
<event>
 4    1  0.7691552E-001  0.2266615E+03  0.7546771E-02  0.1129012E+00
          2   -1    0    0  502    0  0.00000000000E+00  0.00000000000E+00  0.11661741789E+04  0.11661741789E+04  0.00000000000E+00 0. -1.
         -2   -1    0    0    0  501 -0.00000000000E+00 -0.00000000000E+00 -0.63865042617E+02  0.63865042617E+02  0.00000000000E+00 0.  1.
          6    1    1    2  502    0 -0.83600715411E+02  0.12023866822E+03  0.20862055821E+03  0.30805511562E+03  0.17300000000E+03 0.  1.
         -6    1    1    2    0  501  0.83600715411E+02 -0.12023866822E+03  0.89368857811E+03  0.92198410594E+03  0.17300000000E+03 0. -1.
<mgrwt>
<rscale>  2 0.22666146E+03</rscale>
<asrwt>0</asrwt>
<pdfrwt beam="1">  1        2 0.17941140E+00 0.22666146E+03</pdfrwt>
<pdfrwt beam="2">  1       -2 0.98253920E-02 0.22666146E+03</pdfrwt>
<totfact> 0.14285849E+03</totfact>
</mgrwt>
</event>
<event>
 4    1  0.7691552E-001  0.1918640E+03  0.7546771E-02  0.1156791E+00
         -2   -1    0    0    0  501 -0.00000000000E+00  0.00000000000E+00  0.37473626090E+02  0.37473626090E+02  0.00000000000E+00 0. -1.
          2   -1    0    0  502    0  0.00000000000E+00 -0.00000000000E+00 -0.12256053853E+04  0.12256053853E+04  0.00000000000E+00 0.  1.
          6    1    1    2  502    0  0.40629640498E+02  0.72332829050E+02 -0.87542837599E+03  0.89620681059E+03  0.17300000000E+03 0.  1.
         -6    1    1    2    0  501 -0.40629640498E+02 -0.72332829050E+02 -0.31270338319E+03  0.36687220078E+03  0.17300000000E+03 0. -1.
<mgrwt>
<rscale>  2 0.19186403E+03</rscale>
<asrwt>0</asrwt>
<pdfrwt beam="2">  1        2 0.18855466E+00 0.19186403E+03</pdfrwt>
<pdfrwt beam="1">  1       -2 0.57651737E-02 0.19186403E+03</pdfrwt>
<totfact> 0.30268869E+03</totfact>
</mgrwt>
</event>
<event>
 4    1  0.7691552E-001  0.1961953E+03  0.7546771E-02  0.1152989E+00
          1   -1    0    0  502    0  0.00000000000E+00  0.00000000000E+00  0.44139949339E+03  0.44139949339E+03  0.00000000000E+00 0. -1.
         -1   -1    0    0    0  501 -0.00000000000E+00 -0.00000000000E+00 -0.12423038172E+03  0.12423038172E+03  0.00000000000E+00 0.  1.
          6    1    1    2  502    0  0.46799341636E+01 -0.92421382150E+02  0.31297957267E+03  0.36938980301E+03  0.17300000000E+03 0. -1.
         -6    1    1    2    0  501 -0.46799341636E+01  0.92421382150E+02  0.41895390037E+01  0.19624007210E+03  0.17300000000E+03 0.  1.
<mgrwt>
<rscale>  2 0.19619535E+03</rscale>
<asrwt>0</asrwt>
<pdfrwt beam="1">  1        1 0.67907613E-01 0.19619535E+03</pdfrwt>
<pdfrwt beam="2">  1       -1 0.19112367E-01 0.19619535E+03</pdfrwt>
<totfact> 0.11550208E+03</totfact>
</mgrwt>
</event>
<event>
 4    1  0.7691552E-001  0.1749607E+03  0.7546771E-02  0.1172771E+00
          2   -1    0    0  502    0  0.00000000000E+00  0.00000000000E+00  0.10253422468E+04  0.10253422468E+04  0.00000000000E+00 0.  1.
         -2   -1    0    0    0  501 -0.00000000000E+00 -0.00000000000E+00 -0.70910340789E+02  0.70910340789E+02  0.00000000000E+00 0. -1.
          6    1    1    2  502    0  0.17847558155E+01 -0.26058866762E+02  0.89428931129E+03  0.91124344836E+03  0.17300000000E+03 0.  1.
         -6    1    1    2    0  501 -0.17847558155E+01  0.26058866762E+02  0.60142594686E+02  0.18500913920E+03  0.17300000000E+03 0. -1.
<mgrwt>
<rscale>  2 0.17496071E+03</rscale>
<asrwt>0</asrwt>
<pdfrwt beam="1">  1        2 0.15774495E+00 0.17496071E+03</pdfrwt>
<pdfrwt beam="2">  1       -2 0.10909284E-01 0.17496071E+03</pdfrwt>
<totfact> 0.14617890E+03</totfact>
</mgrwt>
</event>
<event>
 4    1  0.7691552E-001  0.1757424E+03  0.7546771E-02  0.1171988E+00
         -2   -1    0    0    0  501 -0.00000000000E+00  0.00000000000E+00  0.15084522488E+02  0.15084522488E+02  0.00000000000E+00 0.  1.
          2   -1    0    0  502    0  0.00000000000E+00 -0.00000000000E+00 -0.22032740710E+04  0.22032740710E+04  0.00000000000E+00 0. -1.
          6    1    1    2  502    0  0.90965469487E+01  0.29557183542E+02 -0.79915576148E+03  0.81825137053E+03  0.17300000000E+03 0.  1.
         -6    1    1    2    0  501 -0.90965469487E+01 -0.29557183542E+02 -0.13890337871E+04  0.14001072230E+04  0.17300000000E+03 0. -1.
<mgrwt>
<rscale>  2 0.17574235E+03</rscale>
<asrwt>0</asrwt>
<pdfrwt beam="2">  1        2 0.33896505E+00 0.17574235E+03</pdfrwt>
<pdfrwt beam="1">  1       -2 0.23206971E-02 0.17574235E+03</pdfrwt>
<totfact> 0.36047748E+03</totfact>
</mgrwt>
</event>
<event>
 4    1  0.7691552E-001  0.2711231E+03  0.7546771E-02  0.1100639E+00
         -2   -1    0    0    0  501 -0.00000000000E+00  0.00000000000E+00  0.20483373300E+03  0.20483373300E+03  0.00000000000E+00 0. -1.
          2   -1    0    0  502    0  0.00000000000E+00 -0.00000000000E+00 -0.36003158433E+03  0.36003158433E+03  0.00000000000E+00 0.  1.
          6    1    1    2  502    0 -0.76876824584E+02  0.19408426578E+03 -0.61525066258E+02  0.27801633434E+03  0.17300000000E+03 0. -1.
         -6    1    1    2    0  501  0.76876824584E+02 -0.19408426578E+03 -0.93672785070E+02  0.28684898300E+03  0.17300000000E+03 0.  1.
<mgrwt>
<rscale>  2 0.27112312E+03</rscale>
<asrwt>0</asrwt>
<pdfrwt beam="2">  1        2 0.55389474E-01 0.27112312E+03</pdfrwt>
<pdfrwt beam="1">  1       -2 0.31512882E-01 0.27112312E+03</pdfrwt>
<totfact> 0.83894022E+02</totfact>
</mgrwt>
</event>
<event>
 4    1  0.7691552E-001  0.1736217E+03  0.7546771E-02  0.1174123E+00
         -1   -1    0    0    0  501 -0.00000000000E+00  0.00000000000E+00  0.43613877008E+02  0.43613877008E+02  0.00000000000E+00 0. -1.
          1   -1    0    0  502    0  0.00000000000E+00 -0.00000000000E+00 -0.73773721781E+03  0.73773721781E+03  0.00000000000E+00 0.  1.
          6    1    1    2  502    0 -0.91143922908E+01  0.11507276945E+02 -0.44521786103E+03  0.47787386761E+03  0.17300000000E+03 0.  1.
         -6    1    1    2    0  501  0.91143922908E+01 -0.11507276945E+02 -0.24890547977E+03  0.30347722720E+03  0.17300000000E+03 0. -1.
<mgrwt>
<rscale>  2 0.17362169E+03</rscale>
<asrwt>0</asrwt>
<pdfrwt beam="2">  1        1 0.11349802E+00 0.17362169E+03</pdfrwt>
<pdfrwt beam="1">  1       -1 0.67098282E-02 0.17362169E+03</pdfrwt>
<totfact> 0.29014803E+03</totfact>
</mgrwt>
</event>
<event>
 4    1  0.7691552E-001  0.1842602E+03  0.7546771E-02  0.1163743E+00
          1   -1    0    0  502    0  0.00000000000E+00  0.00000000000E+00  0.27469842533E+04  0.27469842533E+04  0.00000000000E+00 0. -1.
         -1   -1    0    0    0  501 -0.00000000000E+00 -0.00000000000E+00 -0.12947684643E+02  0.12947684643E+02  0.00000000000E+00 0.  1.
          6    1    1    2  502    0 -0.28899326141E+02  0.56459354538E+02  0.16610979020E+04  0.16712863519E+04  0.17300000000E+03 0. -1.
         -6    1    1    2    0  501  0.28899326141E+02 -0.56459354538E+02  0.10729386666E+04  0.10886455860E+04  0.17300000000E+03 0.  1.
<mgrwt>
<rscale>  2 0.18426022E+03</rscale>
<asrwt>0</asrwt>
<pdfrwt beam="1">  1        1 0.42261250E+00 0.18426022E+03</pdfrwt>
<pdfrwt beam="2">  1       -1 0.19919537E-02 0.18426022E+03</pdfrwt>
<totfact> 0.75614187E+02</totfact>
</mgrwt>
</event>
<event>
 4    1  0.7691552E-001  0.2645564E+03  0.7546771E-02  0.1104436E+00
          1   -1    0    0  502    0  0.00000000000E+00  0.00000000000E+00  0.90636948641E+03  0.90636948641E+03  0.00000000000E+00 0. -1.
         -1   -1    0    0    0  501 -0.00000000000E+00 -0.00000000000E+00 -0.78667149076E+02  0.78667149076E+02  0.00000000000E+00 0.  1.
          6    1    1    2  502    0 -0.94930877719E+02  0.17620784888E+03  0.34705601845E+03  0.43639197688E+03  0.17300000000E+03 0. -1.
         -6    1    1    2    0  501  0.94930877719E+02 -0.17620784888E+03  0.48064631889E+03  0.54864465860E+03  0.17300000000E+03 0. -1.
<mgrwt>
<rscale>  2 0.26455638E+03</rscale>
<asrwt>0</asrwt>
<pdfrwt beam="1">  1        1 0.13944145E+00 0.26455638E+03</pdfrwt>
<pdfrwt beam="2">  1       -1 0.12102639E-01 0.26455638E+03</pdfrwt>
<totfact> 0.85545538E+02</totfact>
</mgrwt>
</event>
<event>
 4    1  0.7691552E-001  0.1763664E+03  0.7546771E-02  0.1171367E+00
          2   -1    0    0  502    0  0.00000000000E+00  0.00000000000E+00  0.32018855833E+03  0.32018855833E+03  0.00000000000E+00 0.  1.
         -2   -1    0    0    0  501 -0.00000000000E+00 -0.00000000000E+00 -0.99751899302E+02  0.99751899302E+02  0.00000000000E+00 0. -1.
          6    1    1    2  502    0  0.93444781815E+01 -0.32996581522E+02  0.14415438653E+03  0.22778406621E+03  0.17300000000E+03 0.  1.
         -6    1    1    2    0  501 -0.93444781815E+01  0.32996581522E+02  0.76282272493E+02  0.19215639141E+03  0.17300000000E+03 0.  1.
<mgrwt>
<rscale>  2 0.17636636E+03</rscale>
<asrwt>0</asrwt>
<pdfrwt beam="1">  1        2 0.49259778E-01 0.17636636E+03</pdfrwt>
<pdfrwt beam="2">  1       -2 0.15346446E-01 0.17636636E+03</pdfrwt>
<totfact> 0.32854624E+03</totfact>
</mgrwt>
</event>
<event>
 4    1  0.7691552E-001  0.1777192E+03  0.7546771E-02  0.1170029E+00
         -2   -1    0    0    0  501 -0.00000000000E+00  0.00000000000E+00  0.80302250166E+02  0.80302250166E+02  0.00000000000E+00 0. -1.
          2   -1    0    0  502    0  0.00000000000E+00 -0.00000000000E+00 -0.43017703880E+03  0.43017703880E+03  0.00000000000E+00 0.  1.
          6    1    1    2  502    0  0.35232124700E+02  0.20342376131E+02 -0.10022174059E+03  0.20403066476E+03  0.17300000000E+03 0. -1.
         -6    1    1    2    0  501 -0.35232124700E+02 -0.20342376131E+02 -0.24965304805E+03  0.30644862420E+03  0.17300000000E+03 0.  1.
<mgrwt>
<rscale>  2 0.17771920E+03</rscale>
<asrwt>0</asrwt>
<pdfrwt beam="2">  1        2 0.66181083E-01 0.17771920E+03</pdfrwt>
<pdfrwt beam="1">  1       -2 0.12354192E-01 0.17771920E+03</pdfrwt>
<totfact> 0.34064168E+03</totfact>
</mgrwt>
</event>
<event>
 4    1  0.7691552E-001  0.1875439E+03  0.7546771E-02  0.1160695E+00
         -1   -1    0    0    0  501 -0.00000000000E+00  0.00000000000E+00  0.24184566098E+02  0.24184566098E+02  0.00000000000E+00 0.  1.
          1   -1    0    0  502    0  0.00000000000E+00 -0.00000000000E+00 -0.15064296321E+04  0.15064296321E+04  0.00000000000E+00 0. -1.
          6    1    1    2  502    0  0.66969691861E+02  0.27546097923E+02 -0.88342483272E+03  0.90311248591E+03  0.17300000000E+03 0. -1.
         -6    1    1    2    0  501 -0.66969691861E+02 -0.27546097923E+02 -0.59882023330E+03  0.62750171231E+03  0.17300000000E+03 0.  1.
<mgrwt>
<rscale>  2 0.18754393E+03</rscale>
<asrwt>0</asrwt>
<pdfrwt beam="2">  1        1 0.23175842E+00 0.18754393E+03</pdfrwt>
<pdfrwt beam="1">  1       -1 0.37207022E-02 0.18754393E+03</pdfrwt>
<totfact> 0.19422254E+03</totfact>
</mgrwt>
</event>
<event>
 4    1  0.7691552E-001  0.1860832E+03  0.7546771E-02  0.1162042E+00
          1   -1    0    0  502    0  0.00000000000E+00  0.00000000000E+00  0.11886841334E+04  0.11886841334E+04  0.00000000000E+00 0.  1.
         -1   -1    0    0    0  501 -0.00000000000E+00 -0.00000000000E+00 -0.31134562199E+02  0.31134562199E+02  0.00000000000E+00 0. -1.
          6    1    1    2  502    0 -0.31257260402E+02 -0.60999552678E+02  0.42403584000E+03  0.46306949301E+03  0.17300000000E+03 0. -1.
         -6    1    1    2    0  501  0.31257260402E+02  0.60999552678E+02  0.73351373123E+03  0.75674920261E+03  0.17300000000E+03 0.  1.
<mgrwt>
<rscale>  2 0.18608321E+03</rscale>
<asrwt>0</asrwt>
<pdfrwt beam="1">  1        1 0.18287445E+00 0.18608321E+03</pdfrwt>
<pdfrwt beam="2">  1       -1 0.47899335E-02 0.18608321E+03</pdfrwt>
<totfact> 0.21830269E+03</totfact>
</mgrwt>
</event>
<event>
 4    1  0.7691552E-001  0.2001585E+03  0.7546771E-02  0.1149605E+00
          2   -1    0    0  502    0  0.00000000000E+00  0.00000000000E+00  0.10191082849E+04  0.10191082849E+04  0.00000000000E+00 0.  1.
         -2   -1    0    0    0  501 -0.00000000000E+00 -0.00000000000E+00 -0.41153169012E+02  0.41153169012E+02  0.00000000000E+00 0. -1.
          6    1    1    2  502    0 -0.13023683100E+02  0.99823890096E+02  0.37685310585E+03  0.42671031010E+03  0.17300000000E+03 0. -1.
         -6    1    1    2    0  501  0.13023683100E+02 -0.99823890096E+02  0.60110201002E+03  0.63355114380E+03  0.17300000000E+03 0.  1.
<mgrwt>
<rscale>  2 0.20015850E+03</rscale>
<asrwt>0</asrwt>
<pdfrwt beam="1">  1        2 0.15678587E+00 0.20015850E+03</pdfrwt>
<pdfrwt beam="2">  1       -2 0.63312576E-02 0.20015850E+03</pdfrwt>
<totfact> 0.34544786E+03</totfact>
</mgrwt>
</event>
<event>
 4    1  0.7691552E-001  0.1994419E+03  0.7546771E-02  0.1150211E+00
          3   -1    0    0  502    0  0.00000000000E+00  0.00000000000E+00  0.41375305970E+03  0.41375305970E+03  0.00000000000E+00 0.  1.
         -3   -1    0    0    0  501 -0.00000000000E+00 -0.00000000000E+00 -0.96144305490E+02  0.96144305490E+02  0.00000000000E+00 0. -1.
          6    1    1    2  502    0 -0.91372115606E+02  0.38719708740E+02  0.15661962551E+03  0.25358782789E+03  0.17300000000E+03 0. -1.
         -6    1    1    2    0  501  0.91372115606E+02 -0.38719708740E+02  0.16098912870E+03  0.25630953731E+03  0.17300000000E+03 0.  1.
<mgrwt>
<rscale>  2 0.19944192E+03</rscale>
<asrwt>0</asrwt>
<pdfrwt beam="1">  1        3 0.63654316E-01 0.19944192E+03</pdfrwt>
<pdfrwt beam="2">  1       -3 0.14791432E-01 0.19944192E+03</pdfrwt>
<totfact> 0.22606399E+02</totfact>
</mgrwt>
</event>
<event>
 4    1  0.7691552E-001  0.1908673E+03  0.7546771E-02  0.1157681E+00
         -2   -1    0    0    0  501 -0.00000000000E+00  0.00000000000E+00  0.20654191280E+03  0.20654191280E+03  0.00000000000E+00 0.  1.
          2   -1    0    0  502    0  0.00000000000E+00 -0.00000000000E+00 -0.22194727855E+03  0.22194727855E+03  0.00000000000E+00 0. -1.
          6    1    1    2  502    0  0.63322224097E+02  0.49916254514E+02  0.89370791530E+02  0.21075453710E+03  0.17300000000E+03 0.  1.
         -6    1    1    2    0  501 -0.63322224097E+02 -0.49916254514E+02 -0.10477615728E+03  0.21773465426E+03  0.17300000000E+03 0. -1.
<mgrwt>
<rscale>  2 0.19086733E+03</rscale>
<asrwt>0</asrwt>
<pdfrwt beam="2">  1        2 0.34145735E-01 0.19086733E+03</pdfrwt>
<pdfrwt beam="1">  1       -2 0.31775679E-01 0.19086733E+03</pdfrwt>
<totfact> 0.13858204E+03</totfact>
</mgrwt>
</event>
<event>
 4    1  0.7691552E-001  0.2249449E+03  0.7546771E-02  0.1130249E+00
         -1   -1    0    0    0  501 -0.00000000000E+00  0.00000000000E+00  0.36867784430E+03  0.36867784430E+03  0.00000000000E+00 0. -1.
          1   -1    0    0  502    0  0.00000000000E+00 -0.00000000000E+00 -0.23072836455E+03  0.23072836455E+03  0.00000000000E+00 0.  1.
          6    1    1    2  502    0  0.27369332629E+02  0.14114577532E+03 -0.12179148765E+03  0.25579948539E+03  0.17300000000E+03 0.  1.
         -6    1    1    2    0  501 -0.27369332629E+02 -0.14114577532E+03  0.25974096740E+03  0.34360672346E+03  0.17300000000E+03 0. -1.
<mgrwt>
<rscale>  2 0.22494490E+03</rscale>
<asrwt>0</asrwt>
<pdfrwt beam="2">  1        1 0.35496671E-01 0.22494490E+03</pdfrwt>
<pdfrwt beam="1">  1       -1 0.56719668E-01 0.22494490E+03</pdfrwt>
<totfact> 0.39880033E+02</totfact>
</mgrwt>
</event>
<event>
 4    1  0.7691552E-001  0.1902740E+03  0.7546771E-02  0.1158214E+00
         -2   -1    0    0    0  501 -0.00000000000E+00  0.00000000000E+00  0.88344786375E+02  0.88344786375E+02  0.00000000000E+00 0. -1.
          2   -1    0    0  502    0  0.00000000000E+00 -0.00000000000E+00 -0.79809461702E+03  0.79809461702E+03  0.00000000000E+00 0.  1.
          6    1    1    2  502    0  0.73033901013E+02 -0.30679452324E+02 -0.45724756051E+02  0.19569091141E+03  0.17300000000E+03 0. -1.
         -6    1    1    2    0  501 -0.73033901013E+02  0.30679452324E+02 -0.66402507459E+03  0.69074849198E+03  0.17300000000E+03 0.  1.
<mgrwt>
<rscale>  2 0.19027396E+03</rscale>
<asrwt>0</asrwt>
<pdfrwt beam="2">  1        2 0.12278379E+00 0.19027396E+03</pdfrwt>
<pdfrwt beam="1">  1       -2 0.13591505E-01 0.19027396E+03</pdfrwt>
<totfact> 0.14321225E+03</totfact>
</mgrwt>
</event>
<event>
 4    1  0.7691552E-001  0.1953732E+03  0.7546771E-02  0.1153702E+00
         -2   -1    0    0    0  501 -0.00000000000E+00  0.00000000000E+00  0.31474282975E+02  0.31474282975E+02  0.00000000000E+00 0.  1.
          2   -1    0    0  502    0  0.00000000000E+00 -0.00000000000E+00 -0.12161453102E+04  0.12161453102E+04  0.00000000000E+00 0. -1.
          6    1    1    2  502    0 -0.64666048611E+02  0.63717994655E+02 -0.62525877134E+03  0.65507191348E+03  0.17300000000E+03 0. -1.
         -6    1    1    2    0  501  0.64666048611E+02 -0.63717994655E+02 -0.55941225592E+03  0.59254767973E+03  0.17300000000E+03 0. -1.
<mgrwt>
<rscale>  2 0.19537318E+03</rscale>
<asrwt>0</asrwt>
<pdfrwt beam="2">  1        2 0.18709924E+00 0.19537318E+03</pdfrwt>
<pdfrwt beam="1">  1       -2 0.48421984E-02 0.19537318E+03</pdfrwt>
<totfact> 0.39948052E+03</totfact>
</mgrwt>
</event>
<event>
 4    1  0.7691552E-001  0.1977017E+03  0.7546771E-02  0.1151693E+00
          1   -1    0    0  502    0  0.00000000000E+00  0.00000000000E+00  0.97812267265E+03  0.97812267265E+03  0.00000000000E+00 0. -1.
         -1   -1    0    0    0  501 -0.00000000000E+00 -0.00000000000E+00 -0.41624053322E+02  0.41624053322E+02  0.00000000000E+00 0.  1.
          6    1    1    2  502    0  0.93182801314E+02  0.21770334242E+02  0.57018988634E+03  0.60349191245E+03  0.17300000000E+03 0. -1.
         -6    1    1    2    0  501 -0.93182801314E+02 -0.21770334242E+02  0.36630873299E+03  0.41625481352E+03  0.17300000000E+03 0.  1.
<mgrwt>
<rscale>  2 0.19770175E+03</rscale>
<asrwt>0</asrwt>
<pdfrwt beam="1">  1        1 0.15048039E+00 0.19770175E+03</pdfrwt>
<pdfrwt beam="2">  1       -1 0.64037012E-02 0.19770175E+03</pdfrwt>
<totfact> 0.20038914E+03</totfact>
</mgrwt>
</event>
<event>
 4    1  0.7691552E-001  0.2458469E+03  0.7546771E-02  0.1115958E+00
         -2   -1    0    0    0  501 -0.00000000000E+00  0.00000000000E+00  0.88772215846E+02  0.88772215846E+02  0.00000000000E+00 0.  1.
          2   -1    0    0  502    0  0.00000000000E+00 -0.00000000000E+00 -0.84999114329E+03  0.84999114329E+03  0.00000000000E+00 0. -1.
          6    1    1    2  502    0  0.16856130081E+03 -0.45812464428E+02 -0.58999258652E+03  0.63916503829E+03  0.17300000000E+03 0. -1.
         -6    1    1    2    0  501 -0.16856130081E+03  0.45812464428E+02 -0.17122634093E+03  0.29959832085E+03  0.17300000000E+03 0.  1.
<mgrwt>
<rscale>  2 0.24584689E+03</rscale>
<asrwt>0</asrwt>
<pdfrwt beam="2">  1        2 0.13076786E+00 0.24584689E+03</pdfrwt>
<pdfrwt beam="1">  1       -2 0.13657265E-01 0.24584689E+03</pdfrwt>
<totfact> 0.13120010E+03</totfact>
</mgrwt>
</event>
<event>
 4    1  0.7691552E-001  0.1896095E+03  0.7546771E-02  0.1158814E+00
         -1   -1    0    0    0  501 -0.00000000000E+00  0.00000000000E+00  0.86071175842E+02  0.86071175842E+02  0.00000000000E+00 0.  1.
          1   -1    0    0  502    0  0.00000000000E+00 -0.00000000000E+00 -0.10320550772E+04  0.10320550772E+04  0.00000000000E+00 0. -1.
          6    1    1    2  502    0 -0.99799563158E+01  0.76962003699E+02 -0.41651806516E+02  0.19413042659E+03  0.17300000000E+03 0.  1.
         -6    1    1    2    0  501  0.99799563158E+01 -0.76962003699E+02 -0.90433209481E+03  0.92399582643E+03  0.17300000000E+03 0. -1.
<mgrwt>
<rscale>  2 0.18960947E+03</rscale>
<asrwt>0</asrwt>
<pdfrwt beam="2">  1        1 0.15877770E+00 0.18960947E+03</pdfrwt>
<pdfrwt beam="1">  1       -1 0.13241719E-01 0.18960947E+03</pdfrwt>
<totfact> 0.59977527E+02</totfact>
</mgrwt>
</event>
<event>
 4    1  0.7691552E-001  0.1861165E+03  0.7546771E-02  0.1162011E+00
         -2   -1    0    0    0  501 -0.00000000000E+00  0.00000000000E+00  0.13429387417E+03  0.13429387417E+03  0.00000000000E+00 0. -1.
          2   -1    0    0  502    0  0.00000000000E+00 -0.00000000000E+00 -0.28369808272E+03  0.28369808272E+03  0.00000000000E+00 0.  1.
          6    1    1    2  502    0  0.46088398725E+02 -0.50854678060E+02 -0.11723496491E+02  0.18648533226E+03  0.17300000000E+03 0. -1.
         -6    1    1    2    0  501 -0.46088398725E+02  0.50854678060E+02 -0.13768071206E+03  0.23150662464E+03  0.17300000000E+03 0.  1.
<mgrwt>
<rscale>  2 0.18611647E+03</rscale>
<asrwt>0</asrwt>
<pdfrwt beam="2">  1        2 0.43645858E-01 0.18611647E+03</pdfrwt>
<pdfrwt beam="1">  1       -2 0.20660596E-01 0.18611647E+03</pdfrwt>
<totfact> 0.22748475E+03</totfact>
</mgrwt>
</event>
<event>
 4    1  0.7691552E-001  0.2678001E+03  0.7546771E-02  0.1102545E+00
          2   -1    0    0  502    0  0.00000000000E+00  0.00000000000E+00  0.89763659924E+03  0.89763659924E+03  0.00000000000E+00 0. -1.
         -2   -1    0    0    0  501 -0.00000000000E+00 -0.00000000000E+00 -0.79917951578E+02  0.79917951578E+02  0.00000000000E+00 0.  1.
          6    1    1    2  502    0 -0.16408789192E+03 -0.12191412295E+03  0.41709942411E+03  0.49567007096E+03  0.17300000000E+03 0. -1.
         -6    1    1    2    0  501  0.16408789192E+03  0.12191412295E+03  0.40061922354E+03  0.48188447985E+03  0.17300000000E+03 0.  1.
<mgrwt>
<rscale>  2 0.26780009E+03</rscale>
<asrwt>0</asrwt>
<pdfrwt beam="1">  1        2 0.13809793E+00 0.26780009E+03</pdfrwt>
<pdfrwt beam="2">  1       -2 0.12295070E-01 0.26780009E+03</pdfrwt>
<totfact> 0.14491143E+03</totfact>
</mgrwt>
</event>
<event>
 4    1  0.7691552E-001  0.3643003E+03  0.7546771E-02  0.1056894E+00
         -2   -1    0    0    0  501 -0.00000000000E+00  0.00000000000E+00  0.72160365089E+02  0.72160365089E+02  0.00000000000E+00 0. -1.
          2   -1    0    0  502    0  0.00000000000E+00 -0.00000000000E+00 -0.27337044061E+04  0.27337044061E+04  0.00000000000E+00 0.  1.
          6    1    1    2  502    0  0.30053523682E+02 -0.31919032372E+03 -0.52824220470E+03  0.64168099853E+03  0.17300000000E+03 0. -1.
         -6    1    1    2    0  501 -0.30053523682E+02  0.31919032372E+03 -0.21333018363E+04  0.21641837726E+04  0.17300000000E+03 0.  1.
<mgrwt>
<rscale>  2 0.36430026E+03</rscale>
<asrwt>0</asrwt>
<pdfrwt beam="2">  1        2 0.42056991E+00 0.36430026E+03</pdfrwt>
<pdfrwt beam="1">  1       -2 0.11101595E-01 0.36430026E+03</pdfrwt>
<totfact> 0.16302230E+02</totfact>
</mgrwt>
</event>
<event>
 4    1  0.7691552E-001  0.1753374E+03  0.7546771E-02  0.1172393E+00
          4   -1    0    0  502    0  0.00000000000E+00  0.00000000000E+00  0.48207040246E+03  0.48207040246E+03  0.00000000000E+00 0. -1.
         -4   -1    0    0    0  501 -0.00000000000E+00 -0.00000000000E+00 -0.65104368961E+02  0.65104368961E+02  0.00000000000E+00 0.  1.
          6    1    1    2  502    0  0.11408512201E+02  0.26154505857E+02  0.24760258129E+03  0.30339784209E+03  0.17300000000E+03 0. -1.
         -6    1    1    2    0  501 -0.11408512201E+02 -0.26154505857E+02  0.16936345222E+03  0.24377692933E+03  0.17300000000E+03 0.  1.
<mgrwt>
<rscale>  2 0.17533742E+03</rscale>
<asrwt>0</asrwt>
<pdfrwt beam="1">  1        4 0.74164675E-01 0.17533742E+03</pdfrwt>
<pdfrwt beam="2">  1       -4 0.10016057E-01 0.17533742E+03</pdfrwt>
<totfact> 0.22160940E+02</totfact>
</mgrwt>
</event>
<event>
 4    1  0.7691552E-001  0.2177959E+03  0.7546771E-02  0.1135537E+00
         -1   -1    0    0    0  501 -0.00000000000E+00  0.00000000000E+00  0.84478352478E+03  0.84478352478E+03  0.00000000000E+00 0.  1.
          1   -1    0    0  502    0  0.00000000000E+00 -0.00000000000E+00 -0.69100273549E+02  0.69100273549E+02  0.00000000000E+00 0. -1.
          6    1    1    2  502    0 -0.10220281873E+03  0.84027563371E+02  0.19003010312E+03  0.28904409293E+03  0.17300000000E+03 0. -1.
         -6    1    1    2    0  501  0.10220281873E+03 -0.84027563371E+02  0.58565314810E+03  0.62483970540E+03  0.17300000000E+03 0.  1.
<mgrwt>
<rscale>  2 0.21779589E+03</rscale>
<asrwt>0</asrwt>
<pdfrwt beam="2">  1        1 0.10630812E-01 0.21779589E+03</pdfrwt>
<pdfrwt beam="1">  1       -1 0.12996669E+00 0.21779589E+03</pdfrwt>
<totfact> 0.32282423E+02</totfact>
</mgrwt>
</event>
<event>
 4    1  0.7691552E-001  0.1960456E+03  0.7546771E-02  0.1153119E+00
          2   -1    0    0  502    0  0.00000000000E+00  0.00000000000E+00  0.48251999310E+03  0.48251999310E+03  0.00000000000E+00 0. -1.
         -2   -1    0    0    0  501 -0.00000000000E+00 -0.00000000000E+00 -0.86424170321E+02  0.86424170321E+02  0.00000000000E+00 0.  1.
          6    1    1    2  502    0  0.30451296445E+02 -0.87049368054E+02  0.11841854590E+03  0.22903455186E+03  0.17300000000E+03 0.  1.
         -6    1    1    2    0  501 -0.30451296445E+02  0.87049368054E+02  0.27767727688E+03  0.33990961155E+03  0.17300000000E+03 0. -1.
<mgrwt>
<rscale>  2 0.19604559E+03</rscale>
<asrwt>0</asrwt>
<pdfrwt beam="1">  1        2 0.74233844E-01 0.19604559E+03</pdfrwt>
<pdfrwt beam="2">  1       -2 0.13296026E-01 0.19604559E+03</pdfrwt>
<totfact> 0.26759244E+03</totfact>
</mgrwt>
</event>
<event>
 4    1  0.7691552E-001  0.1968643E+03  0.7546771E-02  0.1152412E+00
         -2   -1    0    0    0  501 -0.00000000000E+00  0.00000000000E+00  0.42681264417E+03  0.42681264417E+03  0.00000000000E+00 0.  1.
          2   -1    0    0  502    0  0.00000000000E+00 -0.00000000000E+00 -0.29088906612E+03  0.29088906612E+03  0.00000000000E+00 0. -1.
          6    1    1    2  502    0  0.12784434213E+02 -0.93075798306E+02  0.36558001921E+03  0.41521596360E+03  0.17300000000E+03 0.  1.
         -6    1    1    2    0  501 -0.12784434213E+02  0.93075798306E+02 -0.22965644116E+03  0.30248574669E+03  0.17300000000E+03 0. -1.
<mgrwt>
<rscale>  2 0.19686428E+03</rscale>
<asrwt>0</asrwt>
<pdfrwt beam="2">  1        2 0.44752164E-01 0.19686428E+03</pdfrwt>
<pdfrwt beam="1">  1       -2 0.65663484E-01 0.19686428E+03</pdfrwt>
<totfact> 0.24984566E+02</totfact>
</mgrwt>
</event>
<event>
 4    1  0.7691552E-001  0.2181747E+03  0.7546771E-02  0.1135251E+00
         -2   -1    0    0    0  501 -0.00000000000E+00  0.00000000000E+00  0.38025193167E+02  0.38025193167E+02  0.00000000000E+00 0. -1.
          2   -1    0    0  502    0  0.00000000000E+00 -0.00000000000E+00 -0.17146640375E+04  0.17146640375E+04  0.00000000000E+00 0.  1.
          6    1    1    2  502    0 -0.11444053979E+03  0.67635577690E+02 -0.38300776422E+03  0.44078924212E+03  0.17300000000E+03 0. -1.
         -6    1    1    2    0  501  0.11444053979E+03 -0.67635577690E+02 -0.12936310802E+04  0.13118999886E+04  0.17300000000E+03 0.  1.
<mgrwt>
<rscale>  2 0.21817472E+03</rscale>
<asrwt>0</asrwt>
<pdfrwt beam="2">  1        2 0.26379445E+00 0.21817472E+03</pdfrwt>
<pdfrwt beam="1">  1       -2 0.58500300E-02 0.21817472E+03</pdfrwt>
<totfact> 0.16206016E+03</totfact>
</mgrwt>
</event>
<event>
 4    1  0.7691552E-001  0.1909106E+03  0.7546771E-02  0.1157643E+00
          2   -1    0    0  502    0  0.00000000000E+00  0.00000000000E+00  0.20557888510E+04  0.20557888510E+04  0.00000000000E+00 0. -1.
         -2   -1    0    0    0  501 -0.00000000000E+00 -0.00000000000E+00 -0.25080002509E+02  0.25080002509E+02  0.00000000000E+00 0.  1.
          6    1    1    2  502    0 -0.24167559824E+02 -0.77030997939E+02  0.15786386478E+04  0.15901405051E+04  0.17300000000E+03 0. -1.
         -6    1    1    2    0  501  0.24167559824E+02  0.77030997939E+02  0.45207020068E+03  0.49072834841E+03  0.17300000000E+03 0.  1.
<mgrwt>
<rscale>  2 0.19091057E+03</rscale>
<asrwt>0</asrwt>
<pdfrwt beam="1">  1        2 0.31627507E+00 0.19091057E+03</pdfrwt>
<pdfrwt beam="2">  1       -2 0.38584636E-02 0.19091057E+03</pdfrwt>
<totfact> 0.20255020E+03</totfact>
</mgrwt>
</event>
<event>
 4    1  0.7691552E-001  0.1935444E+03  0.7546771E-02  0.1155303E+00
         -4   -1    0    0    0  501 -0.00000000000E+00  0.00000000000E+00  0.84147618247E+02  0.84147618247E+02  0.00000000000E+00 0.  1.
          4   -1    0    0  502    0  0.00000000000E+00 -0.00000000000E+00 -0.56137224181E+03  0.56137224181E+03  0.00000000000E+00 0. -1.
          6    1    1    2  502    0 -0.73975728295E+02 -0.45365386974E+02 -0.91762287230E+02  0.21419557435E+03  0.17300000000E+03 0.  1.
         -6    1    1    2    0  501  0.73975728295E+02  0.45365386974E+02 -0.38546233634E+03  0.43132428571E+03  0.17300000000E+03 0. -1.
<mgrwt>
<rscale>  2 0.19354438E+03</rscale>
<asrwt>0</asrwt>
<pdfrwt beam="2">  1        4 0.86364960E-01 0.19354438E+03</pdfrwt>
<pdfrwt beam="1">  1       -4 0.12945787E-01 0.19354438E+03</pdfrwt>
<totfact> 0.10323557E+02</totfact>
</mgrwt>
</event>
<event>
 4    1  0.7691552E-001  0.1756455E+03  0.7546771E-02  0.1172085E+00
          2   -1    0    0  502    0  0.00000000000E+00  0.00000000000E+00  0.85770406168E+03  0.85770406168E+03  0.00000000000E+00 0. -1.
         -2   -1    0    0    0  501 -0.00000000000E+00 -0.00000000000E+00 -0.39475105665E+02  0.39475105665E+02  0.00000000000E+00 0.  1.
          6    1    1    2  502    0  0.29103590988E+01  0.30230196610E+02  0.27543697523E+03  0.32667546939E+03  0.17300000000E+03 0.  1.
         -6    1    1    2    0  501 -0.29103590988E+01 -0.30230196610E+02  0.54279198078E+03  0.57050369796E+03  0.17300000000E+03 0. -1.
<mgrwt>
<rscale>  2 0.17564548E+03</rscale>
<asrwt>0</asrwt>
<pdfrwt beam="1">  1        2 0.13195446E+00 0.17564548E+03</pdfrwt>
<pdfrwt beam="2">  1       -2 0.60730938E-02 0.17564548E+03</pdfrwt>
<totfact> 0.46299354E+03</totfact>
</mgrwt>
</event>
<event>
 4    1  0.7691552E-001  0.2557170E+03  0.7546771E-02  0.1109744E+00
         -2   -1    0    0    0  501 -0.00000000000E+00  0.00000000000E+00  0.29275535074E+02  0.29275535074E+02  0.00000000000E+00 0. -1.
          2   -1    0    0  502    0  0.00000000000E+00 -0.00000000000E+00 -0.22432585299E+04  0.22432585299E+04  0.00000000000E+00 0.  1.
          6    1    1    2  502    0  0.17974599034E+03  0.56156587680E+02 -0.10326111184E+04  0.10638030388E+04  0.17300000000E+03 0. -1.
         -6    1    1    2    0  501 -0.17974599034E+03 -0.56156587680E+02 -0.11813718764E+04  0.12087310262E+04  0.17300000000E+03 0.  1.
<mgrwt>
<rscale>  2 0.25571700E+03</rscale>
<asrwt>0</asrwt>
<pdfrwt beam="2">  1        2 0.34511678E+00 0.25571700E+03</pdfrwt>
<pdfrwt beam="1">  1       -2 0.45039273E-02 0.25571700E+03</pdfrwt>
<totfact> 0.12697965E+03</totfact>
</mgrwt>
</event>
<event>
 4    1  0.7691552E-001  0.1890629E+03  0.7546771E-02  0.1159309E+00
         -2   -1    0    0    0  501 -0.00000000000E+00  0.00000000000E+00  0.21023070751E+02  0.21023070751E+02  0.00000000000E+00 0.  1.
          2   -1    0    0  502    0  0.00000000000E+00 -0.00000000000E+00 -0.17003995618E+04  0.17003995618E+04  0.00000000000E+00 0. -1.
          6    1    1    2  502    0  0.75437366586E+02 -0.11179298854E+02 -0.83200667618E+03  0.85321737102E+03  0.17300000000E+03 0.  1.
         -6    1    1    2    0  501 -0.75437366586E+02  0.11179298854E+02 -0.84736981484E+03  0.86820526151E+03  0.17300000000E+03 0. -1.
<mgrwt>
<rscale>  2 0.18906288E+03</rscale>
<asrwt>0</asrwt>
<pdfrwt beam="2">  1        2 0.26160001E+00 0.18906288E+03</pdfrwt>
<pdfrwt beam="1">  1       -2 0.32343176E-02 0.18906288E+03</pdfrwt>
<totfact> 0.40282876E+03</totfact>
</mgrwt>
</event>
<event>
 4    1  0.7691552E-001  0.1793955E+03  0.7546771E-02  0.1168389E+00
         -1   -1    0    0    0  501 -0.00000000000E+00  0.00000000000E+00  0.14236966287E+04  0.14236966287E+04  0.00000000000E+00 0. -1.
          1   -1    0    0  502    0  0.00000000000E+00 -0.00000000000E+00 -0.26118488348E+02  0.26118488348E+02  0.00000000000E+00 0.  1.
          6    1    1    2  502    0 -0.31312026568E+02 -0.35683566568E+02  0.43291644154E+03  0.46861434601E+03  0.17300000000E+03 0.  1.
         -6    1    1    2    0  501  0.31312026568E+02  0.35683566568E+02  0.96466169885E+03  0.98120077108E+03  0.17300000000E+03 0. -1.
<mgrwt>
<rscale>  2 0.17939554E+03</rscale>
<asrwt>0</asrwt>
<pdfrwt beam="2">  1        1 0.40182301E-02 0.17939554E+03</pdfrwt>
<pdfrwt beam="1">  1       -1 0.21903019E+00 0.17939554E+03</pdfrwt>
<totfact> 0.28349062E+02</totfact>
</mgrwt>
</event>
<event>
 4    1  0.7691552E-001  0.2259646E+03  0.7546771E-02  0.1129513E+00
         -2   -1    0    0    0  501 -0.00000000000E+00  0.00000000000E+00  0.25842486073E+02  0.25842486073E+02  0.00000000000E+00 0. -1.
          2   -1    0    0  502    0  0.00000000000E+00 -0.00000000000E+00 -0.20053164969E+04  0.20053164969E+04  0.00000000000E+00 0.  1.
          6    1    1    2  502    0  0.99745402995E+02  0.10574437939E+03 -0.86655963309E+03  0.89553649669E+03  0.17300000000E+03 0.  1.
         -6    1    1    2    0  501 -0.99745402995E+02 -0.10574437939E+03 -0.11129143778E+04  0.11356224863E+04  0.17300000000E+03 0. -1.
<mgrwt>
<rscale>  2 0.22596464E+03</rscale>
<asrwt>0</asrwt>
<pdfrwt beam="2">  1        2 0.30851037E+00 0.22596464E+03</pdfrwt>
<pdfrwt beam="1">  1       -2 0.39757653E-02 0.22596464E+03</pdfrwt>
<totfact> 0.20524733E+03</totfact>
</mgrwt>
</event>
<event>
 4    1  0.7691552E-001  0.1776487E+03  0.7546771E-02  0.1170098E+00
         -1   -1    0    0    0  501 -0.00000000000E+00  0.00000000000E+00  0.83648553336E+02  0.83648553336E+02  0.00000000000E+00 0.  1.
          1   -1    0    0  502    0  0.00000000000E+00 -0.00000000000E+00 -0.38142781197E+03  0.38142781197E+03  0.00000000000E+00 0. -1.
          6    1    1    2  502    0 -0.88086684288E+01 -0.39401457326E+02 -0.12464535501E+03  0.21701505018E+03  0.17300000000E+03 0.  1.
         -6    1    1    2    0  501  0.88086684288E+01  0.39401457326E+02 -0.17313390363E+03  0.24806131513E+03  0.17300000000E+03 0. -1.
<mgrwt>
<rscale>  2 0.17764872E+03</rscale>
<asrwt>0</asrwt>
<pdfrwt beam="2">  1        1 0.58681202E-01 0.17764872E+03</pdfrwt>
<pdfrwt beam="1">  1       -1 0.12869008E-01 0.17764872E+03</pdfrwt>
<totfact> 0.26003868E+03</totfact>
</mgrwt>
</event>
<event>
 4    1  0.7691552E-001  0.2547356E+03  0.7546771E-02  0.1110348E+00
         -1   -1    0    0    0  501 -0.00000000000E+00  0.00000000000E+00  0.72738647585E+02  0.72738647585E+02  0.00000000000E+00 0. -1.
          1   -1    0    0  502    0  0.00000000000E+00 -0.00000000000E+00 -0.10421191957E+04  0.10421191957E+04  0.00000000000E+00 0.  1.
          6    1    1    2  502    0 -0.18356948887E+03 -0.35545606219E+02 -0.69618630879E+03  0.74132693457E+03  0.17300000000E+03 0.  1.
         -6    1    1    2    0  501  0.18356948887E+03  0.35545606219E+02 -0.27319423932E+03  0.37353090872E+03  0.17300000000E+03 0. -1.
<mgrwt>
<rscale>  2 0.25473564E+03</rscale>
<asrwt>0</asrwt>
<pdfrwt beam="2">  1        1 0.16032604E+00 0.25473564E+03</pdfrwt>
<pdfrwt beam="1">  1       -1 0.11190560E-01 0.25473564E+03</pdfrwt>
<totfact> 0.76314967E+02</totfact>
</mgrwt>
</event>
<event>
 4    1  0.7691552E-001  0.1949795E+03  0.7546771E-02  0.1154045E+00
          2   -1    0    0  502    0  0.00000000000E+00  0.00000000000E+00  0.40840552226E+03  0.40840552226E+03  0.00000000000E+00 0. -1.
         -2   -1    0    0    0  501 -0.00000000000E+00 -0.00000000000E+00 -0.93877529786E+02  0.93877529786E+02  0.00000000000E+00 0.  1.
          6    1    1    2  502    0 -0.79387221131E+02  0.42257267802E+02  0.18031853083E+03  0.26557819964E+03  0.17300000000E+03 0.  1.
         -6    1    1    2    0  501  0.79387221131E+02 -0.42257267802E+02  0.13420946165E+03  0.23670485241E+03  0.17300000000E+03 0.  1.
<mgrwt>
<rscale>  2 0.19497951E+03</rscale>
<asrwt>0</asrwt>
<pdfrwt beam="1">  1        2 0.62831618E-01 0.19497951E+03</pdfrwt>
<pdfrwt beam="2">  1       -2 0.14442697E-01 0.19497951E+03</pdfrwt>
<totfact> 0.28052472E+03</totfact>
</mgrwt>
</event>
<event>
 4    1  0.7691552E-001  0.2698863E+03  0.7546771E-02  0.1101345E+00
         -3   -1    0    0    0  501 -0.00000000000E+00  0.00000000000E+00  0.51912326921E+02  0.51912326921E+02  0.00000000000E+00 0.  1.
          3   -1    0    0  502    0  0.00000000000E+00 -0.00000000000E+00 -0.27507451294E+04  0.27507451294E+04  0.00000000000E+00 0. -1.
          6    1    1    2  502    0 -0.16049098570E+03 -0.13096667218E+03 -0.36856942634E+03  0.45681730238E+03  0.17300000000E+03 0.  1.
         -6    1    1    2    0  501  0.16049098570E+03  0.13096667218E+03 -0.23302633762E+04  0.23458401540E+04  0.17300000000E+03 0. -1.
<mgrwt>
<rscale>  2 0.26988632E+03</rscale>
<asrwt>0</asrwt>
<pdfrwt beam="2">  1        3 0.42319173E+00 0.26988632E+03</pdfrwt>
<pdfrwt beam="1">  1       -3 0.79865086E-02 0.26988632E+03</pdfrwt>
<totfact> 0.27167763E+00</totfact>
</mgrwt>
</event>
<event>
 4    1  0.7691552E-001  0.2714266E+03  0.7546771E-02  0.1100466E+00
         -1   -1    0    0    0  501 -0.00000000000E+00  0.00000000000E+00  0.83061544216E+02  0.83061544216E+02  0.00000000000E+00 0. -1.
          1   -1    0    0  502    0  0.00000000000E+00 -0.00000000000E+00 -0.10153792726E+04  0.10153792726E+04  0.00000000000E+00 0.  1.
          6    1    1    2  502    0  0.17722842612E+03 -0.11105633591E+03 -0.66147783005E+03  0.71500024085E+03  0.17300000000E+03 0.  1.
         -6    1    1    2    0  501 -0.17722842612E+03  0.11105633591E+03 -0.27083989835E+03  0.38344057598E+03  0.17300000000E+03 0. -1.
<mgrwt>
<rscale>  2 0.27142665E+03</rscale>
<asrwt>0</asrwt>
<pdfrwt beam="2">  1        1 0.15621220E+00 0.27142665E+03</pdfrwt>
<pdfrwt beam="1">  1       -1 0.12778699E-01 0.27142665E+03</pdfrwt>
<totfact> 0.64805698E+02</totfact>
</mgrwt>
</event>
<event>
 4    1  0.7691552E-001  0.3874042E+03  0.7546771E-02  0.1048231E+00
          4   -1    0    0  502    0  0.00000000000E+00  0.00000000000E+00  0.17874197674E+03  0.17874197674E+03  0.00000000000E+00 0. -1.
         -4   -1    0    0    0  501 -0.00000000000E+00 -0.00000000000E+00 -0.83967464109E+03  0.83967464109E+03  0.00000000000E+00 0.  1.
          6    1    1    2  502    0  0.13421418467E+02  0.34637101895E+03 -0.33277605480E+03  0.51070727417E+03  0.17300000000E+03 0. -1.
         -6    1    1    2    0  501 -0.13421418467E+02 -0.34637101895E+03 -0.32815660955E+03  0.50770934365E+03  0.17300000000E+03 0.  1.
<mgrwt>
<rscale>  2 0.38740420E+03</rscale>
<asrwt>0</asrwt>
<pdfrwt beam="1">  1        4 0.27498766E-01 0.38740420E+03</pdfrwt>
<pdfrwt beam="2">  1       -4 0.12918071E+00 0.38740420E+03</pdfrwt>
<totfact> 0.10783731E+01</totfact>
</mgrwt>
</event>
<event>
 4    1  0.7691552E-001  0.2741715E+03  0.7546771E-02  0.1098916E+00
         -4   -1    0    0    0  501 -0.00000000000E+00  0.00000000000E+00  0.32391915246E+02  0.32391915246E+02  0.00000000000E+00 0. -1.
          4   -1    0    0  502    0  0.00000000000E+00 -0.00000000000E+00 -0.25439347642E+04  0.25439347642E+04  0.00000000000E+00 0.  1.
          6    1    1    2  502    0  0.33632340254E+02 -0.21002357061E+03 -0.16374127618E+04  0.16602079951E+04  0.17300000000E+03 0.  1.
         -6    1    1    2    0  501 -0.33632340254E+02  0.21002357061E+03 -0.87413008716E+03  0.91611868434E+03  0.17300000000E+03 0. -1.
<mgrwt>
<rscale>  2 0.27417154E+03</rscale>
<asrwt>0</asrwt>
<pdfrwt beam="2">  1        4 0.39137447E+00 0.27417154E+03</pdfrwt>
<pdfrwt beam="1">  1       -4 0.49833729E-02 0.27417154E+03</pdfrwt>
<totfact> 0.43245647E+00</totfact>
</mgrwt>
</event>
<event>
 4    1  0.7691552E-001  0.1989619E+03  0.7546771E-02  0.1150618E+00
         -2   -1    0    0    0  501 -0.00000000000E+00  0.00000000000E+00  0.24067972065E+02  0.24067972065E+02  0.00000000000E+00 0. -1.
          2   -1    0    0  502    0  0.00000000000E+00 -0.00000000000E+00 -0.16644262988E+04  0.16644262988E+04  0.00000000000E+00 0.  1.
          6    1    1    2  502    0  0.71469030818E+02 -0.67446367996E+02 -0.72838994934E+03  0.75507466732E+03  0.17300000000E+03 0. -1.
         -6    1    1    2    0  501 -0.71469030818E+02  0.67446367996E+02 -0.91196837742E+03  0.93341960358E+03  0.17300000000E+03 0.  1.
<mgrwt>
<rscale>  2 0.19896189E+03</rscale>
<asrwt>0</asrwt>
<pdfrwt beam="2">  1        2 0.25606558E+00 0.19896189E+03</pdfrwt>
<pdfrwt beam="1">  1       -2 0.37027650E-02 0.19896189E+03</pdfrwt>
<totfact> 0.34392915E+03</totfact>
</mgrwt>
</event>
<event>
 4    1  0.7691552E-001  0.1813449E+03  0.7546771E-02  0.1166508E+00
         -1   -1    0    0    0  501 -0.00000000000E+00  0.00000000000E+00  0.16186934977E+02  0.16186934977E+02  0.00000000000E+00 0.  1.
          1   -1    0    0  502    0  0.00000000000E+00 -0.00000000000E+00 -0.20679425745E+04  0.20679425745E+04  0.00000000000E+00 0. -1.
          6    1    1    2  502    0 -0.48992739264E+01 -0.54156974340E+02 -0.11639513332E+04  0.11779935003E+04  0.17300000000E+03 0.  1.
         -6    1    1    2    0  501  0.48992739264E+01  0.54156974340E+02 -0.88780430640E+03  0.90613600922E+03  0.17300000000E+03 0.  1.
<mgrwt>
<rscale>  2 0.18134492E+03</rscale>
<asrwt>0</asrwt>
<pdfrwt beam="2">  1        1 0.31814492E+00 0.18134492E+03</pdfrwt>
<pdfrwt beam="1">  1       -1 0.24902984E-02 0.18134492E+03</pdfrwt>
<totfact> 0.15214362E+03</totfact>
</mgrwt>
</event>
<event>
 4    1  0.7691552E-001  0.1773343E+03  0.7546771E-02  0.1170408E+00
         -2   -1    0    0    0  501 -0.00000000000E+00  0.00000000000E+00  0.23923324501E+02  0.23923324501E+02  0.00000000000E+00 0.  1.
          2   -1    0    0  502    0  0.00000000000E+00 -0.00000000000E+00 -0.16600277395E+04  0.16600277395E+04  0.00000000000E+00 0. -1.
          6    1    1    2  502    0 -0.79577996110E+01 -0.38146007398E+02 -0.43392320346E+03  0.46876091022E+03  0.17300000000E+03 0.  1.
         -6    1    1    2    0  501  0.79577996110E+01  0.38146007398E+02 -0.12021812115E+04  0.12151901538E+04  0.17300000000E+03 0. -1.
<mgrwt>
<rscale>  2 0.17733427E+03</rscale>
<asrwt>0</asrwt>
<pdfrwt beam="2">  1        2 0.25538903E+00 0.17733427E+03</pdfrwt>
<pdfrwt beam="1">  1       -2 0.36805094E-02 0.17733427E+03</pdfrwt>
<totfact> 0.34860076E+03</totfact>
</mgrwt>
</event>
<event>
 4    1  0.7691552E-001  0.1804770E+03  0.7546771E-02  0.1167342E+00
          1   -1    0    0  502    0  0.00000000000E+00  0.00000000000E+00  0.12949706177E+03  0.12949706177E+03  0.00000000000E+00 0.  1.
         -1   -1    0    0    0  501 -0.00000000000E+00 -0.00000000000E+00 -0.28696849190E+03  0.28696849190E+03  0.00000000000E+00 0. -1.
          6    1    1    2  502    0  0.15625812556E+02 -0.48977419860E+02 -0.55560318851E+01  0.18056251871E+03  0.17300000000E+03 0.  1.
         -6    1    1    2    0  501 -0.15625812556E+02  0.48977419860E+02 -0.15191539825E+03  0.23590303495E+03  0.17300000000E+03 0. -1.
<mgrwt>
<rscale>  2 0.18047702E+03</rscale>
<asrwt>0</asrwt>
<pdfrwt beam="1">  1        1 0.19922625E-01 0.18047702E+03</pdfrwt>
<pdfrwt beam="2">  1       -1 0.44148999E-01 0.18047702E+03</pdfrwt>
<totfact> 0.13135051E+03</totfact>
</mgrwt>
</event>
<event>
 4    1  0.7691552E-001  0.1815003E+03  0.7546771E-02  0.1166359E+00
          1   -1    0    0  502    0  0.00000000000E+00  0.00000000000E+00  0.23541036729E+04  0.23541036729E+04  0.00000000000E+00 0.  1.
         -1   -1    0    0    0  501 -0.00000000000E+00 -0.00000000000E+00 -0.15819636222E+02  0.15819636222E+02  0.00000000000E+00 0. -1.
          6    1    1    2  502    0 -0.37499797631E+02  0.40088775905E+02  0.15717318342E+04  0.15821767611E+04  0.17300000000E+03 0.  1.
         -6    1    1    2    0  501  0.37499797631E+02 -0.40088775905E+02  0.76655220256E+03  0.78774654809E+03  0.17300000000E+03 0.  1.
<mgrwt>
<rscale>  2 0.18150026E+03</rscale>
<asrwt>0</asrwt>
<pdfrwt beam="1">  1        1 0.36216952E+00 0.18150026E+03</pdfrwt>
<pdfrwt beam="2">  1       -1 0.24337921E-02 0.18150026E+03</pdfrwt>
<totfact> 0.10276978E+03</totfact>
</mgrwt>
</event>
<event>
 4    1  0.7691552E-001  0.1909719E+03  0.7546771E-02  0.1157588E+00
         -2   -1    0    0    0  501 -0.00000000000E+00  0.00000000000E+00  0.47676015646E+02  0.47676015646E+02  0.00000000000E+00 0. -1.
          2   -1    0    0  502    0  0.00000000000E+00 -0.00000000000E+00 -0.82247913411E+03  0.82247913411E+03  0.00000000000E+00 0.  1.
          6    1    1    2  502    0  0.26060146544E+02 -0.76564585312E+02 -0.27234571598E+03  0.33262960778E+03  0.17300000000E+03 0. -1.
         -6    1    1    2    0  501 -0.26060146544E+02  0.76564585312E+02 -0.50245740249E+03  0.53752554198E+03  0.17300000000E+03 0. -1.
<mgrwt>
<rscale>  2 0.19097190E+03</rscale>
<asrwt>0</asrwt>
<pdfrwt beam="2">  1        2 0.12653525E+00 0.19097190E+03</pdfrwt>
<pdfrwt beam="1">  1       -2 0.73347720E-02 0.19097190E+03</pdfrwt>
<totfact> 0.36652509E+03</totfact>
</mgrwt>
</event>
<event>
 4    1  0.7691552E-001  0.1765852E+03  0.7546771E-02  0.1171149E+00
         -2   -1    0    0    0  501 -0.00000000000E+00  0.00000000000E+00  0.20652717114E+03  0.20652717114E+03  0.00000000000E+00 0. -1.
          2   -1    0    0  502    0  0.00000000000E+00 -0.00000000000E+00 -0.16344114201E+03  0.16344114201E+03  0.00000000000E+00 0.  1.
          6    1    1    2  502    0 -0.34644071454E+02 -0.72892014324E+01 -0.29526201000E+02  0.17903670208E+03  0.17300000000E+03 0.  1.
         -6    1    1    2    0  501  0.34644071454E+02  0.72892014324E+01  0.72612230134E+02  0.19093161108E+03  0.17300000000E+03 0. -1.
<mgrwt>
<rscale>  2 0.17658523E+03</rscale>
<asrwt>0</asrwt>
<pdfrwt beam="2">  1        2 0.25144791E-01 0.17658523E+03</pdfrwt>
<pdfrwt beam="1">  1       -2 0.31773411E-01 0.17658523E+03</pdfrwt>
<totfact> 0.19334033E+03</totfact>
</mgrwt>
</event>
<event>
 4    1  0.7691552E-001  0.2057775E+03  0.7546771E-02  0.1144954E+00
         -2   -1    0    0    0  501 -0.00000000000E+00  0.00000000000E+00  0.43256263147E+02  0.43256263147E+02  0.00000000000E+00 0. -1.
          2   -1    0    0  502    0  0.00000000000E+00 -0.00000000000E+00 -0.10874042750E+04  0.10874042750E+04  0.00000000000E+00 0.  1.
          6    1    1    2  502    0  0.88259759180E+02 -0.68011867842E+02 -0.70063686387E+03  0.73023038438E+03  0.17300000000E+03 0.  1.
         -6    1    1    2    0  501 -0.88259759180E+02  0.68011867842E+02 -0.34351114799E+03  0.40043015377E+03  0.17300000000E+03 0. -1.
<mgrwt>
<rscale>  2 0.20577755E+03</rscale>
<asrwt>0</asrwt>
<pdfrwt beam="2">  1        2 0.16729296E+00 0.20577755E+03</pdfrwt>
<pdfrwt beam="1">  1       -2 0.66548099E-02 0.20577755E+03</pdfrwt>
<totfact> 0.29158288E+03</totfact>
</mgrwt>
</event>
<event>
 4    1  0.7691552E-001  0.1927813E+03  0.7546771E-02  0.1155976E+00
          4   -1    0    0  502    0  0.00000000000E+00  0.00000000000E+00  0.95994491383E+02  0.95994491383E+02  0.00000000000E+00 0.  1.
         -4   -1    0    0    0  501 -0.00000000000E+00 -0.00000000000E+00 -0.38896204998E+03  0.38896204998E+03  0.00000000000E+00 0. -1.
          6    1    1    2  502    0  0.41447258579E+02 -0.74281572598E+02 -0.16301688749E+03  0.25246610243E+03  0.17300000000E+03 0.  1.
         -6    1    1    2    0  501 -0.41447258579E+02  0.74281572598E+02 -0.12995067110E+03  0.23249043892E+03  0.17300000000E+03 0. -1.
<mgrwt>
<rscale>  2 0.19278129E+03</rscale>
<asrwt>0</asrwt>
<pdfrwt beam="1">  1        4 0.14768383E-01 0.19278129E+03</pdfrwt>
<pdfrwt beam="2">  1       -4 0.59840317E-01 0.19278129E+03</pdfrwt>
<totfact> 0.18279539E+02</totfact>
</mgrwt>
</event>
<event>
 4    1  0.7691552E-001  0.1910256E+03  0.7546771E-02  0.1157540E+00
          2   -1    0    0  502    0  0.00000000000E+00  0.00000000000E+00  0.33542277857E+03  0.33542277857E+03  0.00000000000E+00 0. -1.
         -2   -1    0    0    0  501 -0.00000000000E+00 -0.00000000000E+00 -0.11741821156E+03  0.11741821156E+03  0.00000000000E+00 0.  1.
          6    1    1    2  502    0 -0.42799050655E+02  0.68775155816E+02  0.17037822110E+03  0.25596780856E+03  0.17300000000E+03 0. -1.
         -6    1    1    2    0  501  0.42799050655E+02 -0.68775155816E+02  0.47626345906E+02  0.19687318156E+03  0.17300000000E+03 0.  1.
<mgrwt>
<rscale>  2 0.19102560E+03</rscale>
<asrwt>0</asrwt>
<pdfrwt beam="1">  1        2 0.51603504E-01 0.19102560E+03</pdfrwt>
<pdfrwt beam="2">  1       -2 0.18064340E-01 0.19102560E+03</pdfrwt>
<totfact> 0.23900119E+03</totfact>
</mgrwt>
</event>
<event>
 4    1  0.7691552E-001  0.1835058E+03  0.7546771E-02  0.1164453E+00
          2   -1    0    0  502    0  0.00000000000E+00  0.00000000000E+00  0.20700026210E+04  0.20700026210E+04  0.00000000000E+00 0.  1.
         -2   -1    0    0    0  501 -0.00000000000E+00 -0.00000000000E+00 -0.18350025365E+02  0.18350025365E+02  0.00000000000E+00 0. -1.
          6    1    1    2  502    0  0.52601594473E+02 -0.31280210567E+02  0.67408784989E+03  0.69861921580E+03  0.17300000000E+03 0. -1.
         -6    1    1    2    0  501 -0.52601594473E+02  0.31280210567E+02  0.13775647457E+04  0.13897334306E+04  0.17300000000E+03 0.  1.
<mgrwt>
<rscale>  2 0.18350580E+03</rscale>
<asrwt>0</asrwt>
<pdfrwt beam="1">  1        2 0.31846176E+00 0.18350580E+03</pdfrwt>
<pdfrwt beam="2">  1       -2 0.28230825E-02 0.18350580E+03</pdfrwt>
<totfact> 0.31697717E+03</totfact>
</mgrwt>
</event>
<event>
 4    1  0.7691552E-001  0.1922926E+03  0.7546771E-02  0.1156410E+00
          1   -1    0    0  502    0  0.00000000000E+00  0.00000000000E+00  0.35375748968E+03  0.35375748968E+03  0.00000000000E+00 0.  1.
         -1   -1    0    0    0  501 -0.00000000000E+00 -0.00000000000E+00 -0.15766020814E+03  0.15766020814E+03  0.00000000000E+00 0. -1.
          6    1    1    2  502    0  0.40795114983E+02 -0.73370304550E+02  0.24649740260E+03  0.31262983301E+03  0.17300000000E+03 0.  1.
         -6    1    1    2    0  501 -0.40795114983E+02  0.73370304550E+02 -0.50400121062E+02  0.19878786482E+03  0.17300000000E+03 0. -1.
<mgrwt>
<rscale>  2 0.19229260E+03</rscale>
<asrwt>0</asrwt>
<pdfrwt beam="1">  1        1 0.54424229E-01 0.19229260E+03</pdfrwt>
<pdfrwt beam="2">  1       -1 0.24255417E-01 0.19229260E+03</pdfrwt>
<totfact> 0.10380452E+03</totfact>
</mgrwt>
</event>
<event>
 4    1  0.7691552E-001  0.2393016E+03  0.7546771E-02  0.1120259E+00
          2   -1    0    0  502    0  0.00000000000E+00  0.00000000000E+00  0.83185904646E+03  0.83185904646E+03  0.00000000000E+00 0. -1.
         -2   -1    0    0    0  501 -0.00000000000E+00 -0.00000000000E+00 -0.70694755127E+02  0.70694755127E+02  0.00000000000E+00 0.  1.
          6    1    1    2  502    0 -0.66592751286E+02 -0.15133300063E+03  0.30748852952E+03  0.38963376059E+03  0.17300000000E+03 0.  1.
         -6    1    1    2    0  501  0.66592751286E+02  0.15133300063E+03  0.45367576182E+03  0.51292004100E+03  0.17300000000E+03 0. -1.
<mgrwt>
<rscale>  2 0.23930163E+03</rscale>
<asrwt>0</asrwt>
<pdfrwt beam="1">  1        2 0.12797831E+00 0.23930163E+03</pdfrwt>
<pdfrwt beam="2">  1       -2 0.10876117E-01 0.23930163E+03</pdfrwt>
<totfact> 0.19512553E+03</totfact>
</mgrwt>
</event>
<event>
 4    1  0.7691552E-001  0.2090958E+03  0.7546771E-02  0.1142284E+00
         -2   -1    0    0    0  501 -0.00000000000E+00  0.00000000000E+00  0.20032716736E+03  0.20032716736E+03  0.00000000000E+00 0.  1.
          2   -1    0    0  502    0  0.00000000000E+00 -0.00000000000E+00 -0.22882401828E+03  0.22882401828E+03  0.00000000000E+00 0. -1.
          6    1    1    2  502    0 -0.81092986123E+02  0.84946859987E+02 -0.60378774371E+02  0.21763877829E+03  0.17300000000E+03 0. -1.
         -6    1    1    2    0  501  0.81092986123E+02 -0.84946859987E+02  0.31881923450E+02  0.21151240735E+03  0.17300000000E+03 0.  1.
<mgrwt>
<rscale>  2 0.20909577E+03</rscale>
<asrwt>0</asrwt>
<pdfrwt beam="2">  1        2 0.35203695E-01 0.20909577E+03</pdfrwt>
<pdfrwt beam="1">  1       -2 0.30819564E-01 0.20909577E+03</pdfrwt>
<totfact> 0.14207866E+03</totfact>
</mgrwt>
</event>
<event>
 4    1  0.7691552E-001  0.2148472E+03  0.7546771E-02  0.1137784E+00
         -2   -1    0    0    0  501 -0.00000000000E+00  0.00000000000E+00  0.69450889775E+02  0.69450889775E+02  0.00000000000E+00 0.  1.
          2   -1    0    0  502    0  0.00000000000E+00 -0.00000000000E+00 -0.72904432997E+03  0.72904432997E+03  0.00000000000E+00 0. -1.
          6    1    1    2  502    0  0.11113438571E+03  0.62285527938E+02 -0.21112501130E+03  0.30121937035E+03  0.17300000000E+03 0.  1.
         -6    1    1    2    0  501 -0.11113438571E+03 -0.62285527938E+02 -0.44846842889E+03  0.49727584939E+03  0.17300000000E+03 0. -1.
<mgrwt>
<rscale>  2 0.21484724E+03</rscale>
<asrwt>0</asrwt>
<pdfrwt beam="2">  1        2 0.11216067E+00 0.21484724E+03</pdfrwt>
<pdfrwt beam="1">  1       -2 0.10684752E-01 0.21484724E+03</pdfrwt>
<totfact> 0.23659765E+03</totfact>
</mgrwt>
</event>
<event>
 4    1  0.7691552E-001  0.1857806E+03  0.7546771E-02  0.1162323E+00
          2   -1    0    0  502    0  0.00000000000E+00  0.00000000000E+00  0.89921693434E+03  0.89921693434E+03  0.00000000000E+00 0.  1.
         -2   -1    0    0    0  501 -0.00000000000E+00 -0.00000000000E+00 -0.48507833010E+02  0.48507833010E+02  0.00000000000E+00 0. -1.
          6    1    1    2  502    0  0.61466172722E+02  0.28413658677E+02  0.64184832539E+03  0.66819435735E+03  0.17300000000E+03 0. -1.
         -6    1    1    2    0  501 -0.61466172722E+02 -0.28413658677E+02  0.20886077594E+03  0.27953041000E+03  0.17300000000E+03 0. -1.
<mgrwt>
<rscale>  2 0.18578059E+03</rscale>
<asrwt>0</asrwt>
<pdfrwt beam="1">  1        2 0.13834105E+00 0.18578059E+03</pdfrwt>
<pdfrwt beam="2">  1       -2 0.74627442E-02 0.18578059E+03</pdfrwt>
<totfact> 0.31756645E+03</totfact>
</mgrwt>
</event>
<event>
 4    1  0.7691552E-001  0.1919555E+03  0.7546771E-02  0.1156709E+00
         -1   -1    0    0    0  501 -0.00000000000E+00  0.00000000000E+00  0.13543469512E+03  0.13543469512E+03  0.00000000000E+00 0. -1.
          1   -1    0    0  502    0  0.00000000000E+00 -0.00000000000E+00 -0.27622333375E+03  0.27622333375E+03  0.00000000000E+00 0.  1.
          6    1    1    2  502    0  0.29959129111E+02 -0.77591041275E+02 -0.95651380767E+02  0.21446702718E+03  0.17300000000E+03 0.  1.
         -6    1    1    2    0  501 -0.29959129111E+02  0.77591041275E+02 -0.45137257865E+02  0.19719100170E+03  0.17300000000E+03 0. -1.
<mgrwt>
<rscale>  2 0.19195551E+03</rscale>
<asrwt>0</asrwt>
<pdfrwt beam="2">  1        1 0.42495897E-01 0.19195551E+03</pdfrwt>
<pdfrwt beam="1">  1       -1 0.20836107E-01 0.19195551E+03</pdfrwt>
<totfact> 0.18157696E+03</totfact>
</mgrwt>
</event>
<event>
 4    1  0.7691552E-001  0.2415144E+03  0.7546771E-02  0.1118788E+00
          1   -1    0    0  502    0  0.00000000000E+00  0.00000000000E+00  0.27716409990E+04  0.27716409990E+04  0.00000000000E+00 0.  1.
         -1   -1    0    0    0  501 -0.00000000000E+00 -0.00000000000E+00 -0.35445680798E+02  0.35445680798E+02  0.00000000000E+00 0. -1.
          6    1    1    2  502    0 -0.11975351399E+03 -0.11857184720E+03  0.22627116101E+04  0.22755643295E+04  0.17300000000E+03 0.  1.
         -6    1    1    2    0  501  0.11975351399E+03  0.11857184720E+03  0.47348370809E+03  0.53152235032E+03  0.17300000000E+03 0. -1.
<mgrwt>
<rscale>  2 0.24151436E+03</rscale>
<asrwt>0</asrwt>
<pdfrwt beam="1">  1        1 0.42640614E+00 0.24151436E+03</pdfrwt>
<pdfrwt beam="2">  1       -1 0.54531838E-02 0.24151436E+03</pdfrwt>
<totfact> 0.16202173E+02</totfact>
</mgrwt>
</event>
<event>
 4    1  0.7691552E-001  0.1843535E+03  0.7546771E-02  0.1163655E+00
          4   -1    0    0  502    0  0.00000000000E+00  0.00000000000E+00  0.77450243163E+03  0.77450243163E+03  0.00000000000E+00 0.  1.
         -4   -1    0    0    0  501 -0.00000000000E+00 -0.00000000000E+00 -0.48351204054E+02  0.48351204054E+02  0.00000000000E+00 0. -1.
          6    1    1    2  502    0  0.26486703418E+02 -0.57928109544E+02  0.23798184390E+03  0.30103416643E+03  0.17300000000E+03 0. -1.
         -6    1    1    2    0  501 -0.26486703418E+02  0.57928109544E+02  0.48816938368E+03  0.52181946925E+03  0.17300000000E+03 0.  1.
<mgrwt>
<rscale>  2 0.18435350E+03</rscale>
<asrwt>0</asrwt>
<pdfrwt beam="1">  1        4 0.11915421E+00 0.18435350E+03</pdfrwt>
<pdfrwt beam="2">  1       -4 0.74386474E-02 0.18435350E+03</pdfrwt>
<totfact> 0.12361691E+02</totfact>
</mgrwt>
</event>
<event>
 4    1  0.7691552E-001  0.2110659E+03  0.7546771E-02  0.1140725E+00
         -1   -1    0    0    0  501 -0.00000000000E+00  0.00000000000E+00  0.76035785751E+02  0.76035785751E+02  0.00000000000E+00 0. -1.
          1   -1    0    0  502    0  0.00000000000E+00 -0.00000000000E+00 -0.12871724692E+04  0.12871724692E+04  0.00000000000E+00 0.  1.
          6    1    1    2  502    0  0.11162040893E+03 -0.46483418515E+02 -0.11086742836E+04  0.11285865014E+04  0.17300000000E+03 0.  1.
         -6    1    1    2    0  501 -0.11162040893E+03  0.46483418515E+02 -0.10246239986E+03  0.23462175362E+03  0.17300000000E+03 0. -1.
<mgrwt>
<rscale>  2 0.21106592E+03</rscale>
<asrwt>0</asrwt>
<pdfrwt beam="2">  1        1 0.19802654E+00 0.21106592E+03</pdfrwt>
<pdfrwt beam="1">  1       -1 0.11697813E-01 0.21106592E+03</pdfrwt>
<totfact> 0.48030755E+02</totfact>
</mgrwt>
</event>
<event>
 4    1  0.7691552E-001  0.2163440E+03  0.7546771E-02  0.1136638E+00
         -1   -1    0    0    0  501 -0.00000000000E+00  0.00000000000E+00  0.38173079958E+03  0.38173079958E+03  0.00000000000E+00 0. -1.
          1   -1    0    0  502    0  0.00000000000E+00 -0.00000000000E+00 -0.21233081559E+03  0.21233081559E+03  0.00000000000E+00 0.  1.
          6    1    1    2  502    0 -0.11636979453E+03 -0.57738939388E+02 -0.10837994337E+03  0.24197298677E+03  0.17300000000E+03 0.  1.
         -6    1    1    2    0  501  0.11636979453E+03  0.57738939388E+02  0.27777992736E+03  0.35208862839E+03  0.17300000000E+03 0. -1.
<mgrwt>
<rscale>  2 0.21634397E+03</rscale>
<asrwt>0</asrwt>
<pdfrwt beam="2">  1        1 0.32666279E-01 0.21634397E+03</pdfrwt>
<pdfrwt beam="1">  1       -1 0.58727815E-01 0.21634397E+03</pdfrwt>
<totfact> 0.41445802E+02</totfact>
</mgrwt>
</event>
<event>
 4    1  0.7691552E-001  0.1870379E+03  0.7546771E-02  0.1161160E+00
         -1   -1    0    0    0  501 -0.00000000000E+00  0.00000000000E+00  0.28158910077E+02  0.28158910077E+02  0.00000000000E+00 0.  1.
          1   -1    0    0  502    0  0.00000000000E+00 -0.00000000000E+00 -0.16345123771E+04  0.16345123771E+04  0.00000000000E+00 0. -1.
          6    1    1    2  502    0  0.56927989734E+02  0.42583892042E+02 -0.12103844565E+04  0.12247504711E+04  0.17300000000E+03 0. -1.
         -6    1    1    2    0  501 -0.56927989734E+02 -0.42583892042E+02 -0.39596901054E+03  0.43792081611E+03  0.17300000000E+03 0.  1.
<mgrwt>
<rscale>  2 0.18703792E+03</rscale>
<asrwt>0</asrwt>
<pdfrwt beam="2">  1        1 0.25146349E+00 0.18703792E+03</pdfrwt>
<pdfrwt beam="1">  1       -1 0.43321392E-02 0.18703792E+03</pdfrwt>
<totfact> 0.12795791E+03</totfact>
</mgrwt>
</event>
<event>
 4    1  0.7691552E-001  0.1740678E+03  0.7546771E-02  0.1173671E+00
         -2   -1    0    0    0  501 -0.00000000000E+00  0.00000000000E+00  0.13123137536E+02  0.13123137536E+02  0.00000000000E+00 0.  1.
          2   -1    0    0  502    0  0.00000000000E+00 -0.00000000000E+00 -0.25297314655E+04  0.25297314655E+04  0.00000000000E+00 0. -1.
          6    1    1    2  502    0 -0.16632481878E+02  0.96940100378E+01 -0.88262709072E+03  0.89962780891E+03  0.17300000000E+03 0.  1.
         -6    1    1    2    0  501  0.16632481878E+02 -0.96940100378E+01 -0.16339812372E+04  0.16432267941E+04  0.17300000000E+03 0. -1.
<mgrwt>
<rscale>  2 0.17406784E+03</rscale>
<asrwt>0</asrwt>
<pdfrwt beam="2">  1        2 0.38918909E+00 0.17406784E+03</pdfrwt>
<pdfrwt beam="1">  1       -2 0.20189461E-02 0.17406784E+03</pdfrwt>
<totfact> 0.29646197E+03</totfact>
</mgrwt>
</event>
<event>
 4    1  0.7691552E-001  0.3188824E+03  0.7546771E-02  0.1076165E+00
          3   -1    0    0  502    0  0.00000000000E+00  0.00000000000E+00  0.46258647740E+03  0.46258647740E+03  0.00000000000E+00 0.  1.
         -3   -1    0    0    0  501 -0.00000000000E+00 -0.00000000000E+00 -0.23936807984E+03  0.23936807984E+03  0.00000000000E+00 0. -1.
          6    1    1    2  502    0  0.14047108659E+03  0.22808953826E+03  0.21190737440E+03  0.38287164815E+03  0.17300000000E+03 0.  1.
         -6    1    1    2    0  501 -0.14047108659E+03 -0.22808953826E+03  0.11311023164E+02  0.31908290909E+03  0.17300000000E+03 0. -1.
<mgrwt>
<rscale>  2 0.31888237E+03</rscale>
<asrwt>0</asrwt>
<pdfrwt beam="1">  1        3 0.71167151E-01 0.31888237E+03</pdfrwt>
<pdfrwt beam="2">  1       -3 0.36825858E-01 0.31888237E+03</pdfrwt>
<totfact> 0.35171497E+01</totfact>
</mgrwt>
</event>
<event>
 4    1  0.7691552E-001  0.2549680E+03  0.7546771E-02  0.1110205E+00
          2   -1    0    0  502    0  0.00000000000E+00  0.00000000000E+00  0.19145385150E+03  0.19145385150E+03  0.00000000000E+00 0. -1.
         -2   -1    0    0    0  501 -0.00000000000E+00 -0.00000000000E+00 -0.34017510896E+03  0.34017510896E+03  0.00000000000E+00 0.  1.
          6    1    1    2  502    0 -0.86813116510E+01  0.18709444259E+03 -0.62991619804E+02  0.26263404156E+03  0.17300000000E+03 0.  1.
         -6    1    1    2    0  501  0.86813116510E+01 -0.18709444259E+03 -0.85729637654E+02  0.26899491890E+03  0.17300000000E+03 0. -1.
<mgrwt>
<rscale>  2 0.25496803E+03</rscale>
<asrwt>0</asrwt>
<pdfrwt beam="1">  1        2 0.29454439E-01 0.25496803E+03</pdfrwt>
<pdfrwt beam="2">  1       -2 0.52334632E-01 0.25496803E+03</pdfrwt>
<totfact> 0.62822443E+02</totfact>
</mgrwt>
</event>
<event>
 4    1  0.7691552E-001  0.1735056E+03  0.7546771E-02  0.1174241E+00
          4   -1    0    0  502    0  0.00000000000E+00  0.00000000000E+00  0.50472982961E+03  0.50472982961E+03  0.00000000000E+00 0. -1.
         -4   -1    0    0    0  501 -0.00000000000E+00 -0.00000000000E+00 -0.93356851627E+02  0.93356851627E+02  0.00000000000E+00 0.  1.
          6    1    1    2  502    0  0.12976813377E+02  0.26080639111E+01  0.38539042339E+03  0.42264639845E+03  0.17300000000E+03 0. -1.
         -6    1    1    2    0  501 -0.12976813377E+02 -0.26080639111E+01  0.25982554600E+02  0.17544028279E+03  0.17300000000E+03 0.  1.
<mgrwt>
<rscale>  2 0.17350562E+03</rscale>
<asrwt>0</asrwt>
<pdfrwt beam="1">  1        4 0.77650742E-01 0.17350562E+03</pdfrwt>
<pdfrwt beam="2">  1       -4 0.14362593E-01 0.17350562E+03</pdfrwt>
<totfact> 0.10758779E+02</totfact>
</mgrwt>
</event>
<event>
 4    1  0.7691552E-001  0.1769756E+03  0.7546771E-02  0.1170763E+00
         -2   -1    0    0    0  501 -0.00000000000E+00  0.00000000000E+00  0.28444364398E+02  0.28444364398E+02  0.00000000000E+00 0.  1.
          2   -1    0    0  502    0  0.00000000000E+00 -0.00000000000E+00 -0.19691227066E+04  0.19691227066E+04  0.00000000000E+00 0. -1.
          6    1    1    2  502    0  0.27802445823E+02 -0.24867734274E+02 -0.30721024574E+03  0.35453986418E+03  0.17300000000E+03 0.  1.
         -6    1    1    2    0  501 -0.27802445823E+02  0.24867734274E+02 -0.16334680964E+04  0.16430272068E+04  0.17300000000E+03 0. -1.
<mgrwt>
<rscale>  2 0.17697565E+03</rscale>
<asrwt>0</asrwt>
<pdfrwt beam="2">  1        2 0.30294202E+00 0.17697565E+03</pdfrwt>
<pdfrwt beam="1">  1       -2 0.43760552E-02 0.17697565E+03</pdfrwt>
<totfact> 0.18621821E+03</totfact>
</mgrwt>
</event>
<event>
 4    1  0.7691552E-001  0.2452793E+03  0.7546771E-02  0.1116325E+00
         -1   -1    0    0    0  501 -0.00000000000E+00  0.00000000000E+00  0.23677428868E+03  0.23677428868E+03  0.00000000000E+00 0.  1.
          1   -1    0    0  502    0  0.00000000000E+00 -0.00000000000E+00 -0.28044838428E+03  0.28044838428E+03  0.00000000000E+00 0. -1.
          6    1    1    2  502    0  0.68383999962E+02  0.15986422200E+03  0.57446268045E+02  0.25191668194E+03  0.17300000000E+03 0. -1.
         -6    1    1    2    0  501 -0.68383999962E+02 -0.15986422200E+03 -0.10112036364E+03  0.26530599102E+03  0.17300000000E+03 0.  1.
<mgrwt>
<rscale>  2 0.24527931E+03</rscale>
<asrwt>0</asrwt>
<pdfrwt beam="2">  1        1 0.43145905E-01 0.24527931E+03</pdfrwt>
<pdfrwt beam="1">  1       -1 0.36426814E-01 0.24527931E+03</pdfrwt>
<totfact> 0.69797423E+02</totfact>
</mgrwt>
</event>
<event>
 4    1  0.7691552E-001  0.1849573E+03  0.7546771E-02  0.1163090E+00
          2   -1    0    0  502    0  0.00000000000E+00  0.00000000000E+00  0.79599104140E+03  0.79599104140E+03  0.00000000000E+00 0. -1.
         -2   -1    0    0    0  501 -0.00000000000E+00 -0.00000000000E+00 -0.43413375089E+02  0.43413375089E+02  0.00000000000E+00 0.  1.
          6    1    1    2  502    0  0.29467889239E+02  0.58410928248E+02  0.41837415756E+03  0.45743428900E+03  0.17300000000E+03 0. -1.
         -6    1    1    2    0  501 -0.29467889239E+02 -0.58410928248E+02  0.33420350875E+03  0.38197012749E+03  0.17300000000E+03 0. -1.
<mgrwt>
<rscale>  2 0.18495727E+03</rscale>
<asrwt>0</asrwt>
<pdfrwt beam="1">  1        2 0.12246015E+00 0.18495727E+03</pdfrwt>
<pdfrwt beam="2">  1       -2 0.66789813E-02 0.18495727E+03</pdfrwt>
<totfact> 0.44097515E+03</totfact>
</mgrwt>
</event>
<event>
 4    1  0.7691552E-001  0.3198128E+03  0.7546771E-02  0.1075735E+00
         -1   -1    0    0    0  501 -0.00000000000E+00  0.00000000000E+00  0.94295614359E+02  0.94295614359E+02  0.00000000000E+00 0. -1.
          1   -1    0    0  502    0  0.00000000000E+00 -0.00000000000E+00 -0.13353369901E+04  0.13353369901E+04  0.00000000000E+00 0.  1.
          6    1    1    2  502    0  0.26227200776E+03 -0.59704443359E+02 -0.93022128728E+03  0.98366247764E+03  0.17300000000E+03 0.  1.
         -6    1    1    2    0  501 -0.26227200776E+03  0.59704443359E+02 -0.31082008843E+03  0.44597012678E+03  0.17300000000E+03 0. -1.
<mgrwt>
<rscale>  2 0.31981280E+03</rscale>
<asrwt>0</asrwt>
<pdfrwt beam="2">  1        1 0.20543647E+00 0.31981280E+03</pdfrwt>
<pdfrwt beam="1">  1       -1 0.14507017E-01 0.31981280E+03</pdfrwt>
<totfact> 0.31245231E+02</totfact>
</mgrwt>
</event>
<event>
 4    1  0.7691552E-001  0.2017925E+03  0.7546771E-02  0.1148235E+00
          2   -1    0    0  502    0  0.00000000000E+00  0.00000000000E+00  0.76953101325E+03  0.76953101325E+03  0.00000000000E+00 0.  1.
         -2   -1    0    0    0  501 -0.00000000000E+00 -0.00000000000E+00 -0.54838545002E+02  0.54838545002E+02  0.00000000000E+00 0. -1.
          6    1    1    2  502    0 -0.10378727219E+03 -0.44064713479E+01  0.28016183138E+03  0.34526926684E+03  0.17300000000E+03 0. -1.
         -6    1    1    2    0  501  0.10378727219E+03  0.44064713479E+01  0.43453063686E+03  0.47910029141E+03  0.17300000000E+03 0. -1.
<mgrwt>
<rscale>  2 0.20179250E+03</rscale>
<asrwt>0</asrwt>
<pdfrwt beam="1">  1        2 0.11838938E+00 0.20179250E+03</pdfrwt>
<pdfrwt beam="2">  1       -2 0.84366998E-02 0.20179250E+03</pdfrwt>
<totfact> 0.32104834E+03</totfact>
</mgrwt>
</event>
<event>
 4    1  0.7691552E-001  0.2181686E+03  0.7546771E-02  0.1135256E+00
         -2   -1    0    0    0  501 -0.00000000000E+00  0.00000000000E+00  0.32296996370E+03  0.32296996370E+03  0.00000000000E+00 0. -1.
          2   -1    0    0  502    0  0.00000000000E+00 -0.00000000000E+00 -0.16515429790E+03  0.16515429790E+03  0.00000000000E+00 0.  1.
          6    1    1    2  502    0 -0.11336808222E+03 -0.69399030678E+02  0.15898680087E+03  0.26995249652E+03  0.17300000000E+03 0.  1.
         -6    1    1    2    0  501  0.11336808222E+03  0.69399030678E+02 -0.11711350708E+01  0.21817176509E+03  0.17300000000E+03 0.  1.
<mgrwt>
<rscale>  2 0.21816862E+03</rscale>
<asrwt>0</asrwt>
<pdfrwt beam="2">  1        2 0.25408354E-01 0.21816862E+03</pdfrwt>
<pdfrwt beam="1">  1       -2 0.49687687E-01 0.21816862E+03</pdfrwt>
<totfact> 0.81981644E+02</totfact>
</mgrwt>
</event>
<event>
 4    1  0.7691552E-001  0.2232429E+03  0.7546771E-02  0.1131488E+00
          2   -1    0    0  502    0  0.00000000000E+00  0.00000000000E+00  0.13525464154E+04  0.13525464154E+04  0.00000000000E+00 0.  1.
         -2   -1    0    0    0  501 -0.00000000000E+00 -0.00000000000E+00 -0.66527008027E+02  0.66527008027E+02  0.00000000000E+00 0. -1.
          6    1    1    2  502    0  0.25568974264E+02 -0.13876103948E+03  0.16908731175E+03  0.28004984827E+03  0.17300000000E+03 0. -1.
         -6    1    1    2    0  501 -0.25568974264E+02  0.13876103948E+03  0.11169320956E+04  0.11390235751E+04  0.17300000000E+03 0.  1.
<mgrwt>
<rscale>  2 0.22324291E+03</rscale>
<asrwt>0</asrwt>
<pdfrwt beam="1">  1        2 0.20808404E+00 0.22324291E+03</pdfrwt>
<pdfrwt beam="2">  1       -2 0.10234925E-01 0.22324291E+03</pdfrwt>
<totfact> 0.10542307E+03</totfact>
</mgrwt>
</event>
<event>
 4    1  0.7691552E-001  0.1730509E+03  0.7546771E-02  0.1174703E+00
          4   -1    0    0  502    0  0.00000000000E+00  0.00000000000E+00  0.10358237750E+04  0.10358237750E+04  0.00000000000E+00 0.  1.
         -4   -1    0    0    0  501 -0.00000000000E+00 -0.00000000000E+00 -0.33817819754E+02  0.33817819754E+02  0.00000000000E+00 0. -1.
          6    1    1    2  502    0 -0.75053063498E+00 -0.41309278874E+01  0.70472532355E+03  0.72566136009E+03  0.17300000000E+03 0.  1.
         -6    1    1    2    0  501  0.75053063498E+00  0.41309278874E+01  0.29728063166E+03  0.34398023464E+03  0.17300000000E+03 0. -1.
<mgrwt>
<rscale>  2 0.17305094E+03</rscale>
<asrwt>0</asrwt>
<pdfrwt beam="1">  1        4 0.15935748E+00 0.17305094E+03</pdfrwt>
<pdfrwt beam="2">  1       -4 0.52027423E-02 0.17305094E+03</pdfrwt>
<totfact> 0.10606634E+02</totfact>
</mgrwt>
</event>
<event>
 4    1  0.7691552E-001  0.1802845E+03  0.7546771E-02  0.1167528E+00
         -1   -1    0    0    0  501 -0.00000000000E+00  0.00000000000E+00  0.32394725303E+02  0.32394725303E+02  0.00000000000E+00 0. -1.
          1   -1    0    0  502    0  0.00000000000E+00 -0.00000000000E+00 -0.10704387689E+04  0.10704387689E+04  0.00000000000E+00 0.  1.
          6    1    1    2  502    0  0.19656583301E+02 -0.46766569925E+02 -0.65709201432E+03  0.68137538010E+03  0.17300000000E+03 0.  1.
         -6    1    1    2    0  501 -0.19656583301E+02  0.46766569925E+02 -0.38095202928E+03  0.42145811410E+03  0.17300000000E+03 0. -1.
<mgrwt>
<rscale>  2 0.18028448E+03</rscale>
<asrwt>0</asrwt>
<pdfrwt beam="2">  1        1 0.16468289E+00 0.18028448E+03</pdfrwt>
<pdfrwt beam="1">  1       -1 0.49838037E-02 0.18028448E+03</pdfrwt>
<totfact> 0.24929886E+03</totfact>
</mgrwt>
</event>
<event>
 4    1  0.7691552E-001  0.2987118E+03  0.7546771E-02  0.1085886E+00
         -2   -1    0    0    0  501 -0.00000000000E+00  0.00000000000E+00  0.64676915603E+03  0.64676915603E+03  0.00000000000E+00 0. -1.
          2   -1    0    0  502    0  0.00000000000E+00 -0.00000000000E+00 -0.21457624826E+03  0.21457624826E+03  0.00000000000E+00 0.  1.
          6    1    1    2  502    0 -0.92450011393E+02  0.22528362880E+03  0.47344102512E+03  0.55979918031E+03  0.17300000000E+03 0. -1.
         -6    1    1    2    0  501  0.92450011393E+02 -0.22528362880E+03 -0.41248117350E+02  0.30154622398E+03  0.17300000000E+03 0.  1.
<mgrwt>
<rscale>  2 0.29871176E+03</rscale>
<asrwt>0</asrwt>
<pdfrwt beam="2">  1        2 0.33011731E-01 0.29871176E+03</pdfrwt>
<pdfrwt beam="1">  1       -2 0.99502946E-01 0.29871176E+03</pdfrwt>
<totfact> 0.13754622E+02</totfact>
</mgrwt>
</event>
<event>
 4    1  0.7691552E-001  0.3272892E+03  0.7546771E-02  0.1072343E+00
         -2   -1    0    0    0  501 -0.00000000000E+00  0.00000000000E+00  0.10879631006E+03  0.10879631006E+03  0.00000000000E+00 0. -1.
          2   -1    0    0  502    0  0.00000000000E+00 -0.00000000000E+00 -0.10291407374E+04  0.10291407374E+04  0.00000000000E+00 0.  1.
          6    1    1    2  502    0 -0.41310629964E+02  0.27474102707E+03 -0.57857123975E+03  0.66472767324E+03  0.17300000000E+03 0.  1.
         -6    1    1    2    0  501  0.41310629964E+02 -0.27474102707E+03 -0.34177318763E+03  0.47320937426E+03  0.17300000000E+03 0. -1.
<mgrwt>
<rscale>  2 0.32728917E+03</rscale>
<asrwt>0</asrwt>
<pdfrwt beam="2">  1        2 0.15832935E+00 0.32728917E+03</pdfrwt>
<pdfrwt beam="1">  1       -2 0.16737893E-01 0.32728917E+03</pdfrwt>
<totfact> 0.71765691E+02</totfact>
</mgrwt>
</event>
<event>
 4    1  0.7691552E-001  0.1863851E+03  0.7546771E-02  0.1161763E+00
         -1   -1    0    0    0  501 -0.00000000000E+00  0.00000000000E+00  0.15285948141E+03  0.15285948141E+03  0.00000000000E+00 0.  1.
          1   -1    0    0  502    0  0.00000000000E+00 -0.00000000000E+00 -0.99430299311E+03  0.99430299311E+03  0.00000000000E+00 0. -1.
          6    1    1    2  502    0 -0.62838191326E+02  0.29356098615E+02 -0.92450573834E+03  0.94310671667E+03  0.17300000000E+03 0. -1.
         -6    1    1    2    0  501  0.62838191326E+02 -0.29356098615E+02  0.83062226637E+02  0.20405575784E+03  0.17300000000E+03 0.  1.
<mgrwt>
<rscale>  2 0.18638514E+03</rscale>
<asrwt>0</asrwt>
<pdfrwt beam="2">  1        1 0.15296969E+00 0.18638514E+03</pdfrwt>
<pdfrwt beam="1">  1       -1 0.23516844E-01 0.18638514E+03</pdfrwt>
<totfact> 0.25492121E+02</totfact>
</mgrwt>
</event>
<event>
 4    1  0.7691552E-001  0.1746104E+03  0.7546771E-02  0.1173123E+00
          2   -1    0    0  502    0  0.00000000000E+00  0.00000000000E+00  0.93349579680E+03  0.93349579680E+03  0.00000000000E+00 0.  1.
         -2   -1    0    0    0  501 -0.00000000000E+00 -0.00000000000E+00 -0.38393682456E+02  0.38393682456E+02  0.00000000000E+00 0. -1.
          6    1    1    2  502    0  0.21079216694E+02 -0.10745350971E+02  0.25977491228E+03  0.31300447440E+03  0.17300000000E+03 0. -1.
         -6    1    1    2    0  501 -0.21079216694E+02  0.10745350971E+02  0.63532720207E+03  0.65888500486E+03  0.17300000000E+03 0.  1.
<mgrwt>
<rscale>  2 0.17461041E+03</rscale>
<asrwt>0</asrwt>
<pdfrwt beam="1">  1        2 0.14361472E+00 0.17461041E+03</pdfrwt>
<pdfrwt beam="2">  1       -2 0.59067211E-02 0.17461041E+03</pdfrwt>
<totfact> 0.43194712E+03</totfact>
</mgrwt>
</event>
<event>
 4    1  0.7691552E-001  0.2243152E+03  0.7546771E-02  0.1130706E+00
         -1   -1    0    0    0  501 -0.00000000000E+00  0.00000000000E+00  0.41490306734E+03  0.41490306734E+03  0.00000000000E+00 0. -1.
          1   -1    0    0  502    0  0.00000000000E+00 -0.00000000000E+00 -0.12321900855E+03  0.12321900855E+03  0.00000000000E+00 0.  1.
          6    1    1    2  502    0 -0.10316639615E+03 -0.98716678793E+02  0.11204465283E+03  0.25074148479E+03  0.17300000000E+03 0.  1.
         -6    1    1    2    0  501  0.10316639615E+03  0.98716678793E+02  0.17963940596E+03  0.28738059110E+03  0.17300000000E+03 0.  1.
<mgrwt>
<rscale>  2 0.22431515E+03</rscale>
<asrwt>0</asrwt>
<pdfrwt beam="2">  1        1 0.18956771E-01 0.22431515E+03</pdfrwt>
<pdfrwt beam="1">  1       -1 0.63831241E-01 0.22431515E+03</pdfrwt>
<totfact> 0.70557080E+02</totfact>
</mgrwt>
</event>
<event>
 4    1  0.7691552E-001  0.2210482E+03  0.7546771E-02  0.1133104E+00
          1   -1    0    0  502    0  0.00000000000E+00  0.00000000000E+00  0.86973224932E+03  0.86973224932E+03  0.00000000000E+00 0. -1.
         -1   -1    0    0    0  501 -0.00000000000E+00 -0.00000000000E+00 -0.56955000025E+02  0.56955000025E+02  0.00000000000E+00 0.  1.
          6    1    1    2  502    0  0.12863088258E+03 -0.48860847317E+02  0.46040846249E+03  0.51072325058E+03  0.17300000000E+03 0. -1.
         -6    1    1    2    0  501 -0.12863088258E+03  0.48860847317E+02  0.35236878681E+03  0.41596399877E+03  0.17300000000E+03 0. -1.
<mgrwt>
<rscale>  2 0.22104815E+03</rscale>
<asrwt>0</asrwt>
<pdfrwt beam="1">  1        1 0.13380495E+00 0.22104815E+03</pdfrwt>
<pdfrwt beam="2">  1       -1 0.87623084E-02 0.22104815E+03</pdfrwt>
<totfact> 0.15096075E+03</totfact>
</mgrwt>
</event>
<event>
 4    1  0.7691552E-001  0.1985898E+03  0.7546771E-02  0.1150934E+00
          2   -1    0    0  502    0  0.00000000000E+00  0.00000000000E+00  0.83073785840E+03  0.83073785840E+03  0.00000000000E+00 0.  1.
         -2   -1    0    0    0  501 -0.00000000000E+00 -0.00000000000E+00 -0.49592108444E+02  0.49592108444E+02  0.00000000000E+00 0. -1.
          6    1    1    2  502    0  0.97016310753E+02  0.98349968570E+01  0.29959158868E+03  0.35943429403E+03  0.17300000000E+03 0.  1.
         -6    1    1    2    0  501 -0.97016310753E+02 -0.98349968570E+01  0.48155416127E+03  0.52089567281E+03  0.17300000000E+03 0.  1.
<mgrwt>
<rscale>  2 0.19858976E+03</rscale>
<asrwt>0</asrwt>
<pdfrwt beam="1">  1        2 0.12780581E+00 0.19858976E+03</pdfrwt>
<pdfrwt beam="2">  1       -2 0.76295557E-02 0.19858976E+03</pdfrwt>
<totfact> 0.34078009E+03</totfact>
</mgrwt>
</event>
<event>
 4    1  0.7691552E-001  0.2059550E+03  0.7546771E-02  0.1144810E+00
         -2   -1    0    0    0  501 -0.00000000000E+00  0.00000000000E+00  0.14450425493E+03  0.14450425493E+03  0.00000000000E+00 0. -1.
          2   -1    0    0  502    0  0.00000000000E+00 -0.00000000000E+00 -0.43023234887E+03  0.43023234887E+03  0.00000000000E+00 0.  1.
          6    1    1    2  502    0 -0.10897396225E+03  0.24761670968E+02  0.19116510048E+02  0.20684029045E+03  0.17300000000E+03 0. -1.
         -6    1    1    2    0  501  0.10897396225E+03 -0.24761670968E+02 -0.30484460399E+03  0.36789631335E+03  0.17300000000E+03 0.  1.
<mgrwt>
<rscale>  2 0.20595501E+03</rscale>
<asrwt>0</asrwt>
<pdfrwt beam="2">  1        2 0.66189593E-01 0.20595501E+03</pdfrwt>
<pdfrwt beam="1">  1       -2 0.22231424E-01 0.20595501E+03</pdfrwt>
<totfact> 0.12837321E+03</totfact>
</mgrwt>
</event>
<event>
 4    1  0.7691552E-001  0.1807139E+03  0.7546771E-02  0.1167114E+00
         -2   -1    0    0    0  501 -0.00000000000E+00  0.00000000000E+00  0.30753263704E+02  0.30753263704E+02  0.00000000000E+00 0.  1.
          2   -1    0    0  502    0  0.00000000000E+00 -0.00000000000E+00 -0.14857992712E+04  0.14857992712E+04  0.00000000000E+00 0. -1.
          6    1    1    2  502    0 -0.10069112201E+02 -0.51255526541E+02 -0.11325353966E+04  0.11468626511E+04  0.17300000000E+03 0. -1.
         -6    1    1    2    0  501  0.10069112201E+02  0.51255526541E+02 -0.32251061092E+03  0.36968988379E+03  0.17300000000E+03 0.  1.
<mgrwt>
<rscale>  2 0.18071391E+03</rscale>
<asrwt>0</asrwt>
<pdfrwt beam="2">  1        2 0.22858451E+00 0.18071391E+03</pdfrwt>
<pdfrwt beam="1">  1       -2 0.47312712E-02 0.18071391E+03</pdfrwt>
<totfact> 0.29516573E+03</totfact>
</mgrwt>
</event>
<event>
 4    1  0.7691552E-001  0.1791351E+03  0.7546771E-02  0.1168643E+00
         -2   -1    0    0    0  501 -0.00000000000E+00  0.00000000000E+00  0.22968029050E+02  0.22968029050E+02  0.00000000000E+00 0.  1.
          2   -1    0    0  502    0  0.00000000000E+00 -0.00000000000E+00 -0.14112686509E+04  0.14112686509E+04  0.00000000000E+00 0. -1.
          6    1    1    2  502    0 -0.44246439725E+02  0.14235403674E+02 -0.76592015527E+03  0.78658952344E+03  0.17300000000E+03 0.  1.
         -6    1    1    2    0  501  0.44246439725E+02 -0.14235403674E+02 -0.62238046654E+03  0.64764715646E+03  0.17300000000E+03 0.  1.
<mgrwt>
<rscale>  2 0.17913513E+03</rscale>
<asrwt>0</asrwt>
<pdfrwt beam="2">  1        2 0.21711826E+00 0.17913513E+03</pdfrwt>
<pdfrwt beam="1">  1       -2 0.35335428E-02 0.17913513E+03</pdfrwt>
<totfact> 0.50059972E+03</totfact>
</mgrwt>
</event>
<event>
 4    1  0.7691552E-001  0.2232447E+03  0.7546771E-02  0.1131487E+00
          1   -1    0    0  502    0  0.00000000000E+00  0.00000000000E+00  0.82464569578E+03  0.82464569578E+03  0.00000000000E+00 0.  1.
         -1   -1    0    0    0  501 -0.00000000000E+00 -0.00000000000E+00 -0.87177502972E+02  0.87177502972E+02  0.00000000000E+00 0. -1.
          6    1    1    2  502    0  0.13678935826E+03  0.34610186051E+02  0.11622777292E+03  0.25168847552E+03  0.17300000000E+03 0. -1.
         -6    1    1    2    0  501 -0.13678935826E+03 -0.34610186051E+02  0.62124041989E+03  0.66013472323E+03  0.17300000000E+03 0.  1.
<mgrwt>
<rscale>  2 0.22324469E+03</rscale>
<asrwt>0</asrwt>
<pdfrwt beam="1">  1        1 0.12686856E+00 0.22324469E+03</pdfrwt>
<pdfrwt beam="2">  1       -1 0.13411924E-01 0.22324469E+03</pdfrwt>
<totfact> 0.84773213E+02</totfact>
</mgrwt>
</event>
<event>
 4    1  0.7691552E-001  0.1927809E+03  0.7546771E-02  0.1155977E+00
          1   -1    0    0  502    0  0.00000000000E+00  0.00000000000E+00  0.37803688299E+03  0.37803688299E+03  0.00000000000E+00 0. -1.
         -1   -1    0    0    0  501 -0.00000000000E+00 -0.00000000000E+00 -0.98542618480E+02  0.98542618480E+02  0.00000000000E+00 0.  1.
          6    1    1    2  502    0 -0.80140561046E+02 -0.28512857987E+02  0.12814900537E+03  0.23148792662E+03  0.17300000000E+03 0.  1.
         -6    1    1    2    0  501  0.80140561046E+02  0.28512857987E+02  0.15134525914E+03  0.24509157484E+03  0.17300000000E+03 0. -1.
<mgrwt>
<rscale>  2 0.19278094E+03</rscale>
<asrwt>0</asrwt>
<pdfrwt beam="1">  1        1 0.58159520E-01 0.19278094E+03</pdfrwt>
<pdfrwt beam="2">  1       -1 0.15160403E-01 0.19278094E+03</pdfrwt>
<totfact> 0.20381292E+03</totfact>
</mgrwt>
</event>
<event>
 4    1  0.7691552E-001  0.2519375E+03  0.7546771E-02  0.1112086E+00
         -2   -1    0    0    0  501 -0.00000000000E+00  0.00000000000E+00  0.35281229831E+02  0.35281229831E+02  0.00000000000E+00 0.  1.
          2   -1    0    0  502    0  0.00000000000E+00 -0.00000000000E+00 -0.19773042729E+04  0.19773042729E+04  0.00000000000E+00 0. -1.
          6    1    1    2  502    0 -0.12124760811E+03  0.13726809017E+03 -0.66886752429E+03  0.71474210461E+03  0.17300000000E+03 0.  1.
         -6    1    1    2    0  501  0.12124760811E+03 -0.13726809017E+03 -0.12731555188E+04  0.12978433981E+04  0.17300000000E+03 0. -1.
<mgrwt>
<rscale>  2 0.25193751E+03</rscale>
<asrwt>0</asrwt>
<pdfrwt beam="2">  1        2 0.30420064E+00 0.25193751E+03</pdfrwt>
<pdfrwt beam="1">  1       -2 0.54278818E-02 0.25193751E+03</pdfrwt>
<totfact> 0.13210757E+03</totfact>
</mgrwt>
</event>
<event>
 4    1  0.7691552E-001  0.2183356E+03  0.7546771E-02  0.1135130E+00
         -2   -1    0    0    0  501 -0.00000000000E+00  0.00000000000E+00  0.94552220218E+02  0.94552220218E+02  0.00000000000E+00 0. -1.
          2   -1    0    0  502    0  0.00000000000E+00 -0.00000000000E+00 -0.67784418498E+03  0.67784418498E+03  0.00000000000E+00 0.  1.
          6    1    1    2  502    0 -0.13162404929E+03 -0.20409512526E+02 -0.48713048852E+03  0.53382258419E+03  0.17300000000E+03 0.  1.
         -6    1    1    2    0  501  0.13162404929E+03  0.20409512526E+02 -0.96161476243E+02  0.23857382100E+03  0.17300000000E+03 0. -1.
<mgrwt>
<rscale>  2 0.21833561E+03</rscale>
<asrwt>0</asrwt>
<pdfrwt beam="2">  1        2 0.10428372E+00 0.21833561E+03</pdfrwt>
<pdfrwt beam="1">  1       -2 0.14546496E-01 0.21833561E+03</pdfrwt>
<totfact> 0.15677679E+03</totfact>
</mgrwt>
</event>
<event>
 4    1  0.7691552E-001  0.2209163E+03  0.7546771E-02  0.1133202E+00
          2   -1    0    0  502    0  0.00000000000E+00  0.00000000000E+00  0.40957826551E+03  0.40957826551E+03  0.00000000000E+00 0. -1.
         -2   -1    0    0    0  501 -0.00000000000E+00 -0.00000000000E+00 -0.22848993424E+03  0.22848993424E+03  0.00000000000E+00 0.  1.
          6    1    1    2  502    0  0.32461554115E+02 -0.13349636125E+03 -0.13014422601E+03  0.25640115157E+03  0.17300000000E+03 0.  1.
         -6    1    1    2    0  501 -0.32461554115E+02  0.13349636125E+03  0.31123255728E+03  0.38166704819E+03  0.17300000000E+03 0. -1.
<mgrwt>
<rscale>  2 0.22091634E+03</rscale>
<asrwt>0</asrwt>
<pdfrwt beam="1">  1        2 0.63012041E-01 0.22091634E+03</pdfrwt>
<pdfrwt beam="2">  1       -2 0.35152298E-01 0.22091634E+03</pdfrwt>
<totfact> 0.59521780E+02</totfact>
</mgrwt>
</event>
<event>
 4    1  0.7691552E-001  0.1796229E+03  0.7546771E-02  0.1168168E+00
          2   -1    0    0  502    0  0.00000000000E+00  0.00000000000E+00  0.75354115457E+03  0.75354115457E+03  0.00000000000E+00 0.  1.
         -2   -1    0    0    0  501 -0.00000000000E+00 -0.00000000000E+00 -0.79129974386E+02  0.79129974386E+02  0.00000000000E+00 0. -1.
          6    1    1    2  502    0  0.36516749300E+02  0.31653163055E+02  0.55170127620E+02  0.18790459998E+03  0.17300000000E+03 0. -1.
         -6    1    1    2    0  501 -0.36516749300E+02 -0.31653163055E+02  0.61924105257E+03  0.64476652898E+03  0.17300000000E+03 0.  1.
<mgrwt>
<rscale>  2 0.17962293E+03</rscale>
<asrwt>0</asrwt>
<pdfrwt beam="1">  1        2 0.11592940E+00 0.17962293E+03</pdfrwt>
<pdfrwt beam="2">  1       -2 0.12173843E-01 0.17962293E+03</pdfrwt>
<totfact> 0.18374375E+03</totfact>
</mgrwt>
</event>
<event>
 4    1  0.7691552E-001  0.2131108E+03  0.7546771E-02  0.1139126E+00
         -2   -1    0    0    0  501 -0.00000000000E+00  0.00000000000E+00  0.56973867332E+02  0.56973867332E+02  0.00000000000E+00 0. -1.
          2   -1    0    0  502    0  0.00000000000E+00 -0.00000000000E+00 -0.84390947785E+03  0.84390947785E+03  0.00000000000E+00 0.  1.
          6    1    1    2  502    0  0.11590382538E+03 -0.45315926940E+02 -0.28742889399E+03  0.35781503472E+03  0.17300000000E+03 0. -1.
         -6    1    1    2    0  501 -0.11590382538E+03  0.45315926940E+02 -0.49950671653E+03  0.54306831046E+03  0.17300000000E+03 0. -1.
<mgrwt>
<rscale>  2 0.21311084E+03</rscale>
<asrwt>0</asrwt>
<pdfrwt beam="2">  1        2 0.12983222E+00 0.21311084E+03</pdfrwt>
<pdfrwt beam="1">  1       -2 0.87652107E-02 0.21311084E+03</pdfrwt>
<totfact> 0.26928417E+03</totfact>
</mgrwt>
</event>
<event>
 4    1  0.7691552E-001  0.2226275E+03  0.7546771E-02  0.1131939E+00
          1   -1    0    0  502    0  0.00000000000E+00  0.00000000000E+00  0.84254858790E+03  0.84254858790E+03  0.00000000000E+00 0.  1.
         -1   -1    0    0    0  501 -0.00000000000E+00 -0.00000000000E+00 -0.84060802327E+02  0.84060802327E+02  0.00000000000E+00 0. -1.
          6    1    1    2  502    0  0.70455109202E+02  0.12112004381E+03  0.12539351578E+03  0.25551227216E+03  0.17300000000E+03 0. -1.
         -6    1    1    2    0  501 -0.70455109202E+02 -0.12112004381E+03  0.63309426979E+03  0.67109711806E+03  0.17300000000E+03 0.  1.
<mgrwt>
<rscale>  2 0.22262746E+03</rscale>
<asrwt>0</asrwt>
<pdfrwt beam="1">  1        1 0.12962285E+00 0.22262746E+03</pdfrwt>
<pdfrwt beam="2">  1       -1 0.12932432E-01 0.22262746E+03</pdfrwt>
<totfact> 0.86802826E+02</totfact>
</mgrwt>
</event>
<event>
 4    1  0.7691552E-001  0.2235241E+03  0.7546771E-02  0.1131283E+00
          1   -1    0    0  502    0  0.00000000000E+00  0.00000000000E+00  0.60721309427E+03  0.60721309427E+03  0.00000000000E+00 0. -1.
         -1   -1    0    0    0  501 -0.00000000000E+00 -0.00000000000E+00 -0.82441169849E+02  0.82441169849E+02  0.00000000000E+00 0.  1.
          6    1    1    2  502    0  0.71554521092E+02 -0.12212281128E+03  0.27751229050E+03  0.35633706221E+03  0.17300000000E+03 0. -1.
         -6    1    1    2    0  501 -0.71554521092E+02  0.12212281128E+03  0.24725963392E+03  0.33331720191E+03  0.17300000000E+03 0.  1.
<mgrwt>
<rscale>  2 0.22352412E+03</rscale>
<asrwt>0</asrwt>
<pdfrwt beam="1">  1        1 0.93417396E-01 0.22352412E+03</pdfrwt>
<pdfrwt beam="2">  1       -1 0.12683257E-01 0.22352412E+03</pdfrwt>
<totfact> 0.14491414E+03</totfact>
</mgrwt>
</event>
<event>
 4    1  0.7691552E-001  0.1753405E+03  0.7546771E-02  0.1172390E+00
          2   -1    0    0  502    0  0.00000000000E+00  0.00000000000E+00  0.10246949820E+04  0.10246949820E+04  0.00000000000E+00 0. -1.
         -2   -1    0    0    0  501 -0.00000000000E+00 -0.00000000000E+00 -0.34978349758E+02  0.34978349758E+02  0.00000000000E+00 0.  1.
          6    1    1    2  502    0 -0.37635670549E+01 -0.28304238932E+02  0.29503858794E+03  0.34320848293E+03  0.17300000000E+03 0.  1.
         -6    1    1    2    0  501  0.37635670549E+01  0.28304238932E+02  0.69467804428E+03  0.71646484881E+03  0.17300000000E+03 0. -1.
<mgrwt>
<rscale>  2 0.17534051E+03</rscale>
<asrwt>0</asrwt>
<pdfrwt beam="1">  1        2 0.15764536E+00 0.17534051E+03</pdfrwt>
<pdfrwt beam="2">  1       -2 0.53812854E-02 0.17534051E+03</pdfrwt>
<totfact> 0.43784494E+03</totfact>
</mgrwt>
</event>
<event>
 4    1  0.7691552E-001  0.2990790E+03  0.7546771E-02  0.1085702E+00
          2   -1    0    0  502    0  0.00000000000E+00  0.00000000000E+00  0.78589129174E+03  0.78589129174E+03  0.00000000000E+00 0.  1.
         -2   -1    0    0    0  501 -0.00000000000E+00 -0.00000000000E+00 -0.11563137215E+03  0.11563137215E+03  0.00000000000E+00 0. -1.
          6    1    1    2  502    0 -0.18622436875E+03 -0.15760618775E+03  0.27867456184E+03  0.40878813259E+03  0.17300000000E+03 0. -1.
         -6    1    1    2    0  501  0.18622436875E+03  0.15760618775E+03  0.39158535775E+03  0.49273453130E+03  0.17300000000E+03 0. -1.
<mgrwt>
<rscale>  2 0.29907896E+03</rscale>
<asrwt>0</asrwt>
<pdfrwt beam="1">  1        2 0.12090635E+00 0.29907896E+03</pdfrwt>
<pdfrwt beam="2">  1       -2 0.17789442E-01 0.29907896E+03</pdfrwt>
<totfact> 0.93396178E+02</totfact>
</mgrwt>
</event>
<event>
 4    1  0.7691552E-001  0.2250785E+03  0.7546771E-02  0.1130153E+00
          1   -1    0    0  502    0  0.00000000000E+00  0.00000000000E+00  0.13891106843E+03  0.13891106843E+03  0.00000000000E+00 0.  1.
         -1   -1    0    0    0  501 -0.00000000000E+00 -0.00000000000E+00 -0.36784213673E+03  0.36784213673E+03  0.00000000000E+00 0. -1.
          6    1    1    2  502    0 -0.11031054729E+03 -0.92535899545E+02 -0.13789839395E+03  0.26396264244E+03  0.17300000000E+03 0. -1.
         -6    1    1    2    0  501  0.11031054729E+03  0.92535899545E+02 -0.91032674338E+02  0.24279056272E+03  0.17300000000E+03 0.  1.
<mgrwt>
<rscale>  2 0.22507845E+03</rscale>
<asrwt>0</asrwt>
<pdfrwt beam="1">  1        1 0.21370934E-01 0.22507845E+03</pdfrwt>
<pdfrwt beam="2">  1       -1 0.56591097E-01 0.22507845E+03</pdfrwt>
<totfact> 0.76215243E+02</totfact>
</mgrwt>
</event>
<event>
 4    1  0.7691552E-001  0.1735860E+03  0.7546771E-02  0.1174159E+00
          1   -1    0    0  502    0  0.00000000000E+00  0.00000000000E+00  0.91298703290E+03  0.91298703290E+03  0.00000000000E+00 0.  1.
         -1   -1    0    0    0  501 -0.00000000000E+00 -0.00000000000E+00 -0.36876614776E+02  0.36876614776E+02  0.00000000000E+00 0. -1.
          6    1    1    2  502    0  0.13107446828E+02 -0.55945916465E+01  0.28414577857E+03  0.33297286390E+03  0.17300000000E+03 0. -1.
         -6    1    1    2    0  501 -0.13107446828E+02  0.55945916465E+01  0.59196463956E+03  0.61689078378E+03  0.17300000000E+03 0.  1.
<mgrwt>
<rscale>  2 0.17358602E+03</rscale>
<asrwt>0</asrwt>
<pdfrwt beam="1">  1        1 0.14045953E+00 0.17358602E+03</pdfrwt>
<pdfrwt beam="2">  1       -1 0.56733260E-02 0.17358602E+03</pdfrwt>
<totfact> 0.26877948E+03</totfact>
</mgrwt>
</event>
<event>
 4    1  0.7691552E-001  0.1946155E+03  0.7546771E-02  0.1154363E+00
          2   -1    0    0  502    0  0.00000000000E+00  0.00000000000E+00  0.74461006954E+03  0.74461006954E+03  0.00000000000E+00 0. -1.
         -2   -1    0    0    0  501 -0.00000000000E+00 -0.00000000000E+00 -0.52326565004E+02  0.52326565004E+02  0.00000000000E+00 0.  1.
          6    1    1    2  502    0  0.36149845656E+02  0.81482435206E+02  0.27956531940E+03  0.34063465238E+03  0.17300000000E+03 0.  1.
         -6    1    1    2    0  501 -0.36149845656E+02 -0.81482435206E+02  0.41271818514E+03  0.45630198217E+03  0.17300000000E+03 0.  1.
<mgrwt>
<rscale>  2 0.19461551E+03</rscale>
<asrwt>0</asrwt>
<pdfrwt beam="1">  1        2 0.11455539E+00 0.19461551E+03</pdfrwt>
<pdfrwt beam="2">  1       -2 0.80502413E-02 0.19461551E+03</pdfrwt>
<totfact> 0.35944841E+03</totfact>
</mgrwt>
</event>
<event>
 4    1  0.7691552E-001  0.4583834E+03  0.7546771E-02  0.1025251E+00
          1   -1    0    0  502    0  0.00000000000E+00  0.00000000000E+00  0.53075840530E+03  0.53075840530E+03  0.00000000000E+00 0. -1.
         -1   -1    0    0    0  501 -0.00000000000E+00 -0.00000000000E+00 -0.90977490707E+03  0.90977490707E+03  0.00000000000E+00 0.  1.
          6    1    1    2  502    0  0.40277628315E+03  0.13400612771E+03  0.35182473789E+03  0.57783736702E+03  0.17300000000E+03 0. -1.
         -6    1    1    2    0  501 -0.40277628315E+03 -0.13400612771E+03 -0.73084123966E+03  0.86269594535E+03  0.17300000000E+03 0.  1.
<mgrwt>
<rscale>  2 0.45838344E+03</rscale>
<asrwt>0</asrwt>
<pdfrwt beam="1">  1        1 0.81655139E-01 0.45838344E+03</pdfrwt>
<pdfrwt beam="2">  1       -1 0.13996537E+00 0.45838344E+03</pdfrwt>
<totfact> 0.18307395E+01</totfact>
</mgrwt>
</event>
<event>
 4    1  0.7691552E-001  0.2083549E+03  0.7546771E-02  0.1142875E+00
         -2   -1    0    0    0  501 -0.00000000000E+00  0.00000000000E+00  0.12049620115E+02  0.12049620115E+02  0.00000000000E+00 0. -1.
          2   -1    0    0  502    0  0.00000000000E+00 -0.00000000000E+00 -0.37943454846E+04  0.37943454846E+04  0.00000000000E+00 0.  1.
          6    1    1    2  502    0 -0.11222802390E+03 -0.29792947573E+02 -0.23188190596E+04  0.23281609868E+04  0.17300000000E+03 0.  1.
         -6    1    1    2    0  501  0.11222802390E+03  0.29792947573E+02 -0.14634768049E+04  0.14782341179E+04  0.17300000000E+03 0. -1.
<mgrwt>
<rscale>  2 0.20835486E+03</rscale>
<asrwt>0</asrwt>
<pdfrwt beam="2">  1        2 0.58374567E+00 0.20835486E+03</pdfrwt>
<pdfrwt beam="1">  1       -2 0.18537870E-02 0.20835486E+03</pdfrwt>
<totfact> 0.56054552E+02</totfact>
</mgrwt>
</event>
<event>
 4    1  0.7691552E-001  0.1760581E+03  0.7546771E-02  0.1171674E+00
          2   -1    0    0  502    0  0.00000000000E+00  0.00000000000E+00  0.22970543727E+03  0.22970543727E+03  0.00000000000E+00 0. -1.
         -2   -1    0    0    0  501 -0.00000000000E+00 -0.00000000000E+00 -0.21031548265E+03  0.21031548265E+03  0.00000000000E+00 0.  1.
          6    1    1    2  502    0 -0.17383784506E+02 -0.27663161012E+02 -0.12201625878E+03  0.21420647480E+03  0.17300000000E+03 0.  1.
         -6    1    1    2    0  501  0.17383784506E+02  0.27663161012E+02  0.14140621339E+03  0.22581444512E+03  0.17300000000E+03 0. -1.
<mgrwt>
<rscale>  2 0.17605808E+03</rscale>
<asrwt>0</asrwt>
<pdfrwt beam="1">  1        2 0.35339298E-01 0.17605808E+03</pdfrwt>
<pdfrwt beam="2">  1       -2 0.32356228E-01 0.17605808E+03</pdfrwt>
<totfact> 0.12890532E+03</totfact>
</mgrwt>
</event>
<event>
 4    1  0.7691552E-001  0.1755531E+03  0.7546771E-02  0.1172178E+00
         -2   -1    0    0    0  501 -0.00000000000E+00  0.00000000000E+00  0.60337573467E+02  0.60337573467E+02  0.00000000000E+00 0.  1.
          2   -1    0    0  502    0  0.00000000000E+00 -0.00000000000E+00 -0.55594506999E+03  0.55594506999E+03  0.00000000000E+00 0. -1.
          6    1    1    2  502    0  0.29110042444E+02  0.65183350789E+01 -0.15996975380E+03  0.23750622180E+03  0.17300000000E+03 0.  1.
         -6    1    1    2    0  501 -0.29110042444E+02 -0.65183350789E+01 -0.33563774272E+03  0.37877642166E+03  0.17300000000E+03 0. -1.
<mgrwt>
<rscale>  2 0.17555308E+03</rscale>
<asrwt>0</asrwt>
<pdfrwt beam="2">  1        2 0.85530006E-01 0.17555308E+03</pdfrwt>
<pdfrwt beam="1">  1       -2 0.92827041E-02 0.17555308E+03</pdfrwt>
<totfact> 0.40397851E+03</totfact>
</mgrwt>
</event>
<event>
 4    1  0.7691552E-001  0.1753089E+03  0.7546771E-02  0.1172422E+00
         -2   -1    0    0    0  501 -0.00000000000E+00  0.00000000000E+00  0.37425956243E+02  0.37425956243E+02  0.00000000000E+00 0. -1.
          2   -1    0    0  502    0  0.00000000000E+00 -0.00000000000E+00 -0.83345818083E+03  0.83345818083E+03  0.00000000000E+00 0.  1.
          6    1    1    2  502    0 -0.18771661771E+02 -0.21256588847E+02 -0.34515167347E+03  0.38712129307E+03  0.17300000000E+03 0. -1.
         -6    1    1    2    0  501  0.18771661771E+02  0.21256588847E+02 -0.45088055112E+03  0.48376284400E+03  0.17300000000E+03 0.  1.
<mgrwt>
<rscale>  2 0.17530892E+03</rscale>
<asrwt>0</asrwt>
<pdfrwt beam="2">  1        2 0.12822434E+00 0.17530892E+03</pdfrwt>
<pdfrwt beam="1">  1       -2 0.57578391E-02 0.17530892E+03</pdfrwt>
<totfact> 0.52100797E+03</totfact>
</mgrwt>
</event>
<event>
 4    1  0.7691552E-001  0.1966222E+03  0.7546771E-02  0.1152621E+00
          2   -1    0    0  502    0  0.00000000000E+00  0.00000000000E+00  0.13639746491E+03  0.13639746491E+03  0.00000000000E+00 0.  1.
         -2   -1    0    0    0  501 -0.00000000000E+00 -0.00000000000E+00 -0.32450987999E+03  0.32450987999E+03  0.00000000000E+00 0. -1.
          6    1    1    2  502    0 -0.88291829262E+02 -0.30591841447E+02 -0.12070389020E+02  0.19699239114E+03  0.17300000000E+03 0.  1.
         -6    1    1    2    0  501  0.88291829262E+02  0.30591841447E+02 -0.17604202606E+03  0.26391495376E+03  0.17300000000E+03 0. -1.
<mgrwt>
<rscale>  2 0.19662225E+03</rscale>
<asrwt>0</asrwt>
<pdfrwt beam="1">  1        2 0.20984226E-01 0.19662225E+03</pdfrwt>
<pdfrwt beam="2">  1       -2 0.49924596E-01 0.19662225E+03</pdfrwt>
<totfact> 0.10051963E+03</totfact>
</mgrwt>
</event>
<event>
 4    1  0.7691552E-001  0.2645381E+03  0.7546771E-02  0.1104447E+00
         -2   -1    0    0    0  501 -0.00000000000E+00  0.00000000000E+00  0.33039469422E+02  0.33039469422E+02  0.00000000000E+00 0. -1.
          2   -1    0    0  502    0  0.00000000000E+00 -0.00000000000E+00 -0.21353410210E+04  0.21353410210E+04  0.00000000000E+00 0.  1.
          6    1    1    2  502    0 -0.32023966331E+02  0.19754960344E+03 -0.95368514918E+03  0.98969477315E+03  0.17300000000E+03 0.  1.
         -6    1    1    2    0  501  0.32023966331E+02 -0.19754960344E+03 -0.11486164024E+04  0.11786857173E+04  0.17300000000E+03 0. -1.
<mgrwt>
<rscale>  2 0.26453805E+03</rscale>
<asrwt>0</asrwt>
<pdfrwt beam="2">  1        2 0.32851411E+00 0.26453805E+03</pdfrwt>
<pdfrwt beam="1">  1       -2 0.50829937E-02 0.26453805E+03</pdfrwt>
<totfact> 0.12040583E+03</totfact>
</mgrwt>
</event>
<event>
 4    1  0.7691552E-001  0.1779487E+03  0.7546771E-02  0.1169803E+00
          2   -1    0    0  502    0  0.00000000000E+00  0.00000000000E+00  0.44381399461E+03  0.44381399461E+03  0.00000000000E+00 0. -1.
         -2   -1    0    0    0  501 -0.00000000000E+00 -0.00000000000E+00 -0.10773368794E+03  0.10773368794E+03  0.00000000000E+00 0.  1.
          6    1    1    2  502    0  0.37046809683E+02 -0.19085670893E+02  0.77761314350E+01  0.17811849191E+03  0.17300000000E+03 0.  1.
         -6    1    1    2    0  501 -0.37046809683E+02  0.19085670893E+02  0.32830417524E+03  0.37342919064E+03  0.17300000000E+03 0. -1.
<mgrwt>
<rscale>  2 0.17794867E+03</rscale>
<asrwt>0</asrwt>
<pdfrwt beam="1">  1        2 0.68279075E-01 0.17794867E+03</pdfrwt>
<pdfrwt beam="2">  1       -2 0.16574414E-01 0.17794867E+03</pdfrwt>
<totfact> 0.20358472E+03</totfact>
</mgrwt>
</event>
<event>
 4    1  0.7691552E-001  0.1862280E+03  0.7546771E-02  0.1161908E+00
         -1   -1    0    0    0  501 -0.00000000000E+00  0.00000000000E+00  0.67170712836E+02  0.67170712836E+02  0.00000000000E+00 0.  1.
          1   -1    0    0  502    0  0.00000000000E+00 -0.00000000000E+00 -0.52824188622E+03  0.52824188622E+03  0.00000000000E+00 0. -1.
          6    1    1    2  502    0 -0.63782095687E+02  0.26148178532E+02 -0.27527947100E+03  0.33235473537E+03  0.17300000000E+03 0. -1.
         -6    1    1    2    0  501  0.63782095687E+02 -0.26148178532E+02 -0.18579170238E+03  0.26305786368E+03  0.17300000000E+03 0.  1.
<mgrwt>
<rscale>  2 0.18622804E+03</rscale>
<asrwt>0</asrwt>
<pdfrwt beam="2">  1        1 0.81267981E-01 0.18622804E+03</pdfrwt>
<pdfrwt beam="1">  1       -1 0.10333956E-01 0.18622804E+03</pdfrwt>
<totfact> 0.24001463E+03</totfact>
</mgrwt>
</event>
<event>
 4    1  0.7691552E-001  0.1794764E+03  0.7546771E-02  0.1168311E+00
          2   -1    0    0  502    0  0.00000000000E+00  0.00000000000E+00  0.34292151959E+03  0.34292151959E+03  0.00000000000E+00 0. -1.
         -2   -1    0    0    0  501 -0.00000000000E+00 -0.00000000000E+00 -0.10193684665E+03  0.10193684665E+03  0.00000000000E+00 0.  1.
          6    1    1    2  502    0  0.41132984538E+02  0.24307305225E+02  0.18281787259E+03  0.25619161197E+03  0.17300000000E+03 0. -1.
         -6    1    1    2    0  501 -0.41132984538E+02 -0.24307305225E+02  0.58166800352E+02  0.18866675427E+03  0.17300000000E+03 0.  1.
<mgrwt>
<rscale>  2 0.17947637E+03</rscale>
<asrwt>0</asrwt>
<pdfrwt beam="1">  1        2 0.52757156E-01 0.17947637E+03</pdfrwt>
<pdfrwt beam="2">  1       -2 0.15682592E-01 0.17947637E+03</pdfrwt>
<totfact> 0.29477693E+03</totfact>
</mgrwt>
</event>
<event>
 4    1  0.7691552E-001  0.2345458E+03  0.7546771E-02  0.1123480E+00
          1   -1    0    0  502    0  0.00000000000E+00  0.00000000000E+00  0.50405875540E+03  0.50405875540E+03  0.00000000000E+00 0. -1.
         -1   -1    0    0    0  501 -0.00000000000E+00 -0.00000000000E+00 -0.11301632853E+03  0.11301632853E+03  0.00000000000E+00 0.  1.
          6    1    1    2  502    0 -0.14006150515E+03  0.73929153363E+02  0.25268014421E+03  0.34475933667E+03  0.17300000000E+03 0. -1.
         -6    1    1    2    0  501  0.14006150515E+03 -0.73929153363E+02  0.13836228266E+03  0.27231574726E+03  0.17300000000E+03 0. -1.
<mgrwt>
<rscale>  2 0.23454583E+03</rscale>
<asrwt>0</asrwt>
<pdfrwt beam="1">  1        1 0.77547499E-01 0.23454583E+03</pdfrwt>
<pdfrwt beam="2">  1       -1 0.17387128E-01 0.23454583E+03</pdfrwt>
<totfact> 0.11319926E+03</totfact>
</mgrwt>
</event>
<event>
 4    1  0.7691552E-001  0.1849922E+03  0.7546771E-02  0.1163057E+00
          1   -1    0    0  502    0  0.00000000000E+00  0.00000000000E+00  0.14347348134E+04  0.14347348134E+04  0.00000000000E+00 0.  1.
         -1   -1    0    0    0  501 -0.00000000000E+00 -0.00000000000E+00 -0.34752799213E+02  0.34752799213E+02  0.00000000000E+00 0. -1.
          6    1    1    2  502    0  0.65356931783E+02  0.46469212462E+01  0.28850154594E+03  0.34271747025E+03  0.17300000000E+03 0. -1.
         -6    1    1    2    0  501 -0.65356931783E+02 -0.46469212462E+01  0.11114804682E+04  0.11267701423E+04  0.17300000000E+03 0.  1.
<mgrwt>
<rscale>  2 0.18499222E+03</rscale>
<asrwt>0</asrwt>
<pdfrwt beam="1">  1        1 0.22072839E+00 0.18499222E+03</pdfrwt>
<pdfrwt beam="2">  1       -1 0.53465856E-02 0.18499222E+03</pdfrwt>
<totfact> 0.12636275E+03</totfact>
</mgrwt>
</event>
<event>
 4    1  0.7691552E-001  0.3415623E+03  0.7546771E-02  0.1066132E+00
         -1   -1    0    0    0  501 -0.00000000000E+00  0.00000000000E+00  0.51755748552E+03  0.51755748552E+03  0.00000000000E+00 0.  1.
          1   -1    0    0  502    0  0.00000000000E+00 -0.00000000000E+00 -0.22606313044E+03  0.22606313044E+03  0.00000000000E+00 0. -1.
          6    1    1    2  502    0 -0.29448948907E+03  0.34222155921E+01  0.16566898731E+03  0.37961952543E+03  0.17300000000E+03 0. -1.
         -6    1    1    2    0  501  0.29448948907E+03 -0.34222155921E+01  0.12582536776E+03  0.36400109053E+03  0.17300000000E+03 0.  1.
<mgrwt>
<rscale>  2 0.34156225E+03</rscale>
<asrwt>0</asrwt>
<pdfrwt beam="2">  1        1 0.34778943E-01 0.34156225E+03</pdfrwt>
<pdfrwt beam="1">  1       -1 0.79624228E-01 0.34156225E+03</pdfrwt>
<totfact> 0.20692680E+02</totfact>
</mgrwt>
</event>
<event>
 4    1  0.7691552E-001  0.2379708E+03  0.7546771E-02  0.1121152E+00
         -2   -1    0    0    0  501 -0.00000000000E+00  0.00000000000E+00  0.90319448163E+02  0.90319448163E+02  0.00000000000E+00 0. -1.
          2   -1    0    0  502    0  0.00000000000E+00 -0.00000000000E+00 -0.89130237608E+03  0.89130237608E+03  0.00000000000E+00 0.  1.
          6    1    1    2  502    0  0.16327852689E+03  0.64191235025E+01 -0.13321905051E+03  0.27272219915E+03  0.17300000000E+03 0. -1.
         -6    1    1    2    0  501 -0.16327852689E+03 -0.64191235025E+01 -0.66776387740E+03  0.70889962509E+03  0.17300000000E+03 0.  1.
<mgrwt>
<rscale>  2 0.23797076E+03</rscale>
<asrwt>0</asrwt>
<pdfrwt beam="2">  1        2 0.13712344E+00 0.23797076E+03</pdfrwt>
<pdfrwt beam="1">  1       -2 0.13895300E-01 0.23797076E+03</pdfrwt>
<totfact> 0.11979952E+03</totfact>
</mgrwt>
</event>
<event>
 4    1  0.7691552E-001  0.2494888E+03  0.7546771E-02  0.1113628E+00
         -4   -1    0    0    0  501 -0.00000000000E+00  0.00000000000E+00  0.85052419747E+02  0.85052419747E+02  0.00000000000E+00 0.  1.
          4   -1    0    0  502    0  0.00000000000E+00 -0.00000000000E+00 -0.78847699874E+03  0.78847699874E+03  0.00000000000E+00 0. -1.
          6    1    1    2  502    0  0.55743671430E+02  0.17090431785E+03 -0.46877229907E+03  0.53102929405E+03  0.17300000000E+03 0.  1.
         -6    1    1    2    0  501 -0.55743671430E+02 -0.17090431785E+03 -0.23465227992E+03  0.34250012444E+03  0.17300000000E+03 0.  1.
<mgrwt>
<rscale>  2 0.24948876E+03</rscale>
<asrwt>0</asrwt>
<pdfrwt beam="2">  1        4 0.12130416E+00 0.24948876E+03</pdfrwt>
<pdfrwt beam="1">  1       -4 0.13084987E-01 0.24948876E+03</pdfrwt>
<totfact> 0.47020754E+01</totfact>
</mgrwt>
</event>
<event>
 4    1  0.7691552E-001  0.1940089E+03  0.7546771E-02  0.1154894E+00
         -1   -1    0    0    0  501 -0.00000000000E+00  0.00000000000E+00  0.45696705092E+02  0.45696705092E+02  0.00000000000E+00 0. -1.
          1   -1    0    0  502    0  0.00000000000E+00 -0.00000000000E+00 -0.83951665904E+03  0.83951665904E+03  0.00000000000E+00 0.  1.
          6    1    1    2  502    0  0.85719437114E+02 -0.19042634403E+02 -0.45770115498E+03  0.49712150536E+03  0.17300000000E+03 0. -1.
         -6    1    1    2    0  501 -0.85719437114E+02  0.19042634403E+02 -0.33611879897E+03  0.38809185877E+03  0.17300000000E+03 0. -1.
<mgrwt>
<rscale>  2 0.19400888E+03</rscale>
<asrwt>0</asrwt>
<pdfrwt beam="2">  1        1 0.12915639E+00 0.19400888E+03</pdfrwt>
<pdfrwt beam="1">  1       -1 0.70302632E-02 0.19400888E+03</pdfrwt>
<totfact> 0.22291861E+03</totfact>
</mgrwt>
</event>
<event>
 4    1  0.7691552E-001  0.3870377E+03  0.7546771E-02  0.1048363E+00
          1   -1    0    0  502    0  0.00000000000E+00  0.00000000000E+00  0.36482491189E+03  0.36482491189E+03  0.00000000000E+00 0.  1.
         -1   -1    0    0    0  501 -0.00000000000E+00 -0.00000000000E+00 -0.41060386234E+03  0.41060386234E+03  0.00000000000E+00 0. -1.
          6    1    1    2  502    0 -0.29135988011E+03  0.18702577151E+03 -0.23437200092E+02  0.38774672312E+03  0.17300000000E+03 0.  1.
         -6    1    1    2    0  501  0.29135988011E+03 -0.18702577151E+03 -0.22341750356E+02  0.38768205111E+03  0.17300000000E+03 0.  1.
<mgrwt>
<rscale>  2 0.38703775E+03</rscale>
<asrwt>0</asrwt>
<pdfrwt beam="1">  1        1 0.56126909E-01 0.38703775E+03</pdfrwt>
<pdfrwt beam="2">  1       -1 0.63169825E-01 0.38703775E+03</pdfrwt>
<totfact> 0.17891343E+02</totfact>
</mgrwt>
</event>
<event>
 4    1  0.7691552E-001  0.3207256E+03  0.7546771E-02  0.1075316E+00
         -1   -1    0    0    0  501 -0.00000000000E+00  0.00000000000E+00  0.54880322374E+02  0.54880322374E+02  0.00000000000E+00 0. -1.
          1   -1    0    0  502    0  0.00000000000E+00 -0.00000000000E+00 -0.23234651357E+04  0.23234651357E+04  0.00000000000E+00 0.  1.
          6    1    1    2  502    0 -0.25053151941E+03  0.10084569997E+03 -0.61146780697E+03  0.69047648503E+03  0.17300000000E+03 0. -1.
         -6    1    1    2    0  501  0.25053151941E+03 -0.10084569997E+03 -0.16571170064E+04  0.16878689731E+04  0.17300000000E+03 0.  1.
<mgrwt>
<rscale>  2 0.32072558E+03</rscale>
<asrwt>0</asrwt>
<pdfrwt beam="2">  1        1 0.35745614E+00 0.32072558E+03</pdfrwt>
<pdfrwt beam="1">  1       -1 0.84431274E-02 0.32072558E+03</pdfrwt>
<totfact> 0.16270403E+02</totfact>
</mgrwt>
</event>
<event>
 4    1  0.7691552E-001  0.2057380E+03  0.7546771E-02  0.1144986E+00
          2   -1    0    0  502    0  0.00000000000E+00  0.00000000000E+00  0.12764791373E+04  0.12764791373E+04  0.00000000000E+00 0. -1.
         -2   -1    0    0    0  501 -0.00000000000E+00 -0.00000000000E+00 -0.41004259603E+02  0.41004259603E+02  0.00000000000E+00 0.  1.
          6    1    1    2  502    0  0.87581635276E+02  0.68764603339E+02  0.32961622847E+03  0.38855497884E+03  0.17300000000E+03 0. -1.
         -6    1    1    2    0  501 -0.87581635276E+02 -0.68764603339E+02  0.90585864927E+03  0.92892841810E+03  0.17300000000E+03 0. -1.
<mgrwt>
<rscale>  2 0.20573797E+03</rscale>
<asrwt>0</asrwt>
<pdfrwt beam="1">  1        2 0.19638138E+00 0.20573797E+03</pdfrwt>
<pdfrwt beam="2">  1       -2 0.63083486E-02 0.20573797E+03</pdfrwt>
<totfact> 0.24729169E+03</totfact>
</mgrwt>
</event>
<event>
 4    1  0.7691552E-001  0.1839458E+03  0.7546771E-02  0.1164038E+00
         -2   -1    0    0    0  501 -0.00000000000E+00  0.00000000000E+00  0.66263402195E+02  0.66263402195E+02  0.00000000000E+00 0. -1.
          2   -1    0    0  502    0  0.00000000000E+00 -0.00000000000E+00 -0.11005769207E+04  0.11005769207E+04  0.00000000000E+00 0.  1.
          6    1    1    2  502    0 -0.54766936906E+02  0.30126776531E+02 -0.94430431903E+03  0.96205337013E+03  0.17300000000E+03 0.  1.
         -6    1    1    2    0  501  0.54766936906E+02 -0.30126776531E+02 -0.90009199518E+02  0.20478695281E+03  0.17300000000E+03 0. -1.
<mgrwt>
<rscale>  2 0.18394575E+03</rscale>
<asrwt>0</asrwt>
<pdfrwt beam="2">  1        2 0.16931952E+00 0.18394575E+03</pdfrwt>
<pdfrwt beam="1">  1       -2 0.10194370E-01 0.18394575E+03</pdfrwt>
<totfact> 0.14704347E+03</totfact>
</mgrwt>
</event>
<event>
 4    1  0.7691552E-001  0.2293461E+03  0.7546771E-02  0.1127101E+00
          2   -1    0    0  502    0  0.00000000000E+00  0.00000000000E+00  0.48919081223E+03  0.48919081223E+03  0.00000000000E+00 0.  1.
         -2   -1    0    0    0  501 -0.00000000000E+00 -0.00000000000E+00 -0.11315362823E+03  0.11315362823E+03  0.00000000000E+00 0. -1.
          6    1    1    2  502    0  0.95952021928E+02 -0.11603383033E+03  0.12084023086E+03  0.25923348875E+03  0.17300000000E+03 0.  1.
         -6    1    1    2    0  501 -0.95952021928E+02  0.11603383033E+03  0.25519695314E+03  0.34311095172E+03  0.17300000000E+03 0.  1.
<mgrwt>
<rscale>  2 0.22934611E+03</rscale>
<asrwt>0</asrwt>
<pdfrwt beam="1">  1        2 0.75260124E-01 0.22934611E+03</pdfrwt>
<pdfrwt beam="2">  1       -2 0.17408251E-01 0.22934611E+03</pdfrwt>
<totfact> 0.16942315E+03</totfact>
</mgrwt>
</event>
<event>
 4    1  0.7691552E-001  0.6822200E+03  0.7546771E-02  0.9748131E-01
         -2   -1    0    0    0  501 -0.00000000000E+00  0.00000000000E+00  0.11989771132E+04  0.11989771132E+04  0.00000000000E+00 0. -1.
          2   -1    0    0  502    0  0.00000000000E+00 -0.00000000000E+00 -0.44295148663E+03  0.44295148663E+03  0.00000000000E+00 0.  1.
          6    1    1    2  502    0  0.11532769367E+03  0.64976506073E+03  0.66668592991E+03  0.95388376661E+03  0.17300000000E+03 0.  1.
         -6    1    1    2    0  501 -0.11532769367E+03 -0.64976506073E+03  0.89339696621E+02  0.68804483318E+03  0.17300000000E+03 0. -1.
<mgrwt>
<rscale>  2 0.68221999E+03</rscale>
<asrwt>0</asrwt>
<pdfrwt beam="2">  1        2 0.68146383E-01 0.68221999E+03</pdfrwt>
<pdfrwt beam="1">  1       -2 0.18445802E+00 0.68221999E+03</pdfrwt>
<totfact> 0.12252103E+01</totfact>
</mgrwt>
</event>
<event>
 4    1  0.7691552E-001  0.2327489E+03  0.7546771E-02  0.1124720E+00
          1   -1    0    0  502    0  0.00000000000E+00  0.00000000000E+00  0.14408855201E+04  0.14408855201E+04  0.00000000000E+00 0. -1.
         -1   -1    0    0    0  501 -0.00000000000E+00 -0.00000000000E+00 -0.37826049328E+02  0.37826049328E+02  0.00000000000E+00 0.  1.
          6    1    1    2  502    0  0.18299523891E+02  0.15462269074E+03  0.64391554216E+03  0.68468918094E+03  0.17300000000E+03 0. -1.
         -6    1    1    2    0  501 -0.18299523891E+02 -0.15462269074E+03  0.75914392865E+03  0.79402238852E+03  0.17300000000E+03 0.  1.
<mgrwt>
<rscale>  2 0.23274890E+03</rscale>
<asrwt>0</asrwt>
<pdfrwt beam="1">  1        1 0.22167465E+00 0.23274890E+03</pdfrwt>
<pdfrwt beam="2">  1       -1 0.58193933E-02 0.23274890E+03</pdfrwt>
<totfact> 0.10994997E+03</totfact>
</mgrwt>
</event>
<event>
 4    1  0.7691552E-001  0.2384710E+03  0.7546771E-02  0.1120816E+00
          2   -1    0    0  502    0  0.00000000000E+00  0.00000000000E+00  0.17473343931E+03  0.17473343931E+03  0.00000000000E+00 0.  1.
         -2   -1    0    0    0  501 -0.00000000000E+00 -0.00000000000E+00 -0.32899341546E+03  0.32899341546E+03  0.00000000000E+00 0. -1.
          6    1    1    2  502    0  0.85788697231E+02  0.13992759966E+03 -0.51021701776E+02  0.24386809503E+03  0.17300000000E+03 0. -1.
         -6    1    1    2    0  501 -0.85788697231E+02 -0.13992759966E+03 -0.10323827438E+03  0.25985875975E+03  0.17300000000E+03 0.  1.
<mgrwt>
<rscale>  2 0.23847103E+03</rscale>
<asrwt>0</asrwt>
<pdfrwt beam="1">  1        2 0.26882068E-01 0.23847103E+03</pdfrwt>
<pdfrwt beam="2">  1       -2 0.50614372E-01 0.23847103E+03</pdfrwt>
<totfact> 0.74299190E+02</totfact>
</mgrwt>
</event>
<event>
 4    1  0.7691552E-001  0.2149984E+03  0.7546771E-02  0.1137668E+00
         -1   -1    0    0    0  501 -0.00000000000E+00  0.00000000000E+00  0.20771828625E+03  0.20771828625E+03  0.00000000000E+00 0.  1.
          1   -1    0    0  502    0  0.00000000000E+00 -0.00000000000E+00 -0.41835706427E+03  0.41835706427E+03  0.00000000000E+00 0. -1.
          6    1    1    2  502    0 -0.12735356042E+03  0.87385432119E+01  0.10884904237E+03  0.24098216846E+03  0.17300000000E+03 0.  1.
         -6    1    1    2    0  501  0.12735356042E+03 -0.87385432119E+01 -0.31948782039E+03  0.38509318206E+03  0.17300000000E+03 0. -1.
<mgrwt>
<rscale>  2 0.21499835E+03</rscale>
<asrwt>0</asrwt>
<pdfrwt beam="2">  1        1 0.64362624E-01 0.21499835E+03</pdfrwt>
<pdfrwt beam="1">  1       -1 0.31956660E-01 0.21499835E+03</pdfrwt>
<totfact> 0.52748585E+02</totfact>
</mgrwt>
</event>
<event>
 4    1  0.7691552E-001  0.1841390E+03  0.7546771E-02  0.1163856E+00
          2   -1    0    0  502    0  0.00000000000E+00  0.00000000000E+00  0.20017401481E+04  0.20017401481E+04  0.00000000000E+00 0. -1.
         -2   -1    0    0    0  501 -0.00000000000E+00 -0.00000000000E+00 -0.38468082663E+02  0.38468082663E+02  0.00000000000E+00 0.  1.
          6    1    1    2  502    0  0.62927189560E+02 -0.42835161549E+01  0.17447835344E+04  0.17544733573E+04  0.17300000000E+03 0. -1.
         -6    1    1    2    0  501 -0.62927189560E+02  0.42835161549E+01  0.21848853104E+03  0.28573487343E+03  0.17300000000E+03 0.  1.
<mgrwt>
<rscale>  2 0.18413902E+03</rscale>
<asrwt>0</asrwt>
<pdfrwt beam="1">  1        2 0.30795994E+00 0.18413902E+03</pdfrwt>
<pdfrwt beam="2">  1       -2 0.59181681E-02 0.18413902E+03</pdfrwt>
<totfact> 0.11332872E+03</totfact>
</mgrwt>
</event>
<event>
 4    1  0.7691552E-001  0.1730367E+03  0.7546771E-02  0.1174718E+00
         -2   -1    0    0    0  501 -0.00000000000E+00  0.00000000000E+00  0.10986047100E+03  0.10986047100E+03  0.00000000000E+00 0.  1.
          2   -1    0    0  502    0  0.00000000000E+00 -0.00000000000E+00 -0.47813015827E+03  0.47813015827E+03  0.00000000000E+00 0. -1.
          6    1    1    2  502    0 -0.33257138227E+01  0.12757963058E+01  0.86467072052E+01  0.17325257162E+03  0.17300000000E+03 0.  1.
         -6    1    1    2    0  501  0.33257138227E+01 -0.12757963058E+01 -0.37691639448E+03  0.41473805765E+03  0.17300000000E+03 0. -1.
<mgrwt>
<rscale>  2 0.17303667E+03</rscale>
<asrwt>0</asrwt>
<pdfrwt beam="2">  1        2 0.73558486E-01 0.17303667E+03</pdfrwt>
<pdfrwt beam="1">  1       -2 0.16901611E-01 0.17303667E+03</pdfrwt>
<totfact> 0.18150363E+03</totfact>
</mgrwt>
</event>
<event>
 4    1  0.7691552E-001  0.1735706E+03  0.7546771E-02  0.1174175E+00
          3   -1    0    0  502    0  0.00000000000E+00  0.00000000000E+00  0.39573344437E+03  0.39573344437E+03  0.00000000000E+00 0.  1.
         -3   -1    0    0    0  501 -0.00000000000E+00 -0.00000000000E+00 -0.76308357931E+02  0.76308357931E+02  0.00000000000E+00 0. -1.
          6    1    1    2  502    0  0.14061906835E+02  0.13951244899E+00  0.17115793947E+03  0.24376586499E+03  0.17300000000E+03 0.  1.
         -6    1    1    2    0  501 -0.14061906835E+02 -0.13951244899E+00  0.14826714697E+03  0.22827593732E+03  0.17300000000E+03 0. -1.
<mgrwt>
<rscale>  2 0.17357061E+03</rscale>
<asrwt>0</asrwt>
<pdfrwt beam="1">  1        3 0.60882067E-01 0.17357061E+03</pdfrwt>
<pdfrwt beam="2">  1       -3 0.11739748E-01 0.17357061E+03</pdfrwt>
<totfact> 0.36175622E+02</totfact>
</mgrwt>
</event>
<event>
 4    1  0.7691552E-001  0.3406184E+03  0.7546771E-02  0.1066533E+00
          2   -1    0    0  502    0  0.00000000000E+00  0.00000000000E+00  0.46711061165E+03  0.46711061165E+03  0.00000000000E+00 0. -1.
         -2   -1    0    0    0  501 -0.00000000000E+00 -0.00000000000E+00 -0.31724361867E+03  0.31724361867E+03  0.00000000000E+00 0.  1.
          6    1    1    2  502    0 -0.73099507150E+02  0.28416257084E+03 -0.10778432844E+03  0.35726512014E+03  0.17300000000E+03 0.  1.
         -6    1    1    2    0  501  0.73099507150E+02 -0.28416257084E+03  0.25765132141E+03  0.42708911018E+03  0.17300000000E+03 0. -1.
<mgrwt>
<rscale>  2 0.34061841E+03</rscale>
<asrwt>0</asrwt>
<pdfrwt beam="1">  1        2 0.71863171E-01 0.34061841E+03</pdfrwt>
<pdfrwt beam="2">  1       -2 0.48806711E-01 0.34061841E+03</pdfrwt>
<totfact> 0.27189718E+02</totfact>
</mgrwt>
</event>
<event>
 4    1  0.7691552E-001  0.1850571E+03  0.7546771E-02  0.1162997E+00
          2   -1    0    0  502    0  0.00000000000E+00  0.00000000000E+00  0.21182131820E+04  0.21182131820E+04  0.00000000000E+00 0.  1.
         -2   -1    0    0    0  501 -0.00000000000E+00 -0.00000000000E+00 -0.18397997897E+02  0.18397997897E+02  0.00000000000E+00 0. -1.
          6    1    1    2  502    0 -0.53352141102E+02 -0.38349213821E+02  0.67793096450E+03  0.70273501819E+03  0.17300000000E+03 0. -1.
         -6    1    1    2    0  501  0.53352141102E+02  0.38349213821E+02  0.14218842196E+04  0.14338761617E+04  0.17300000000E+03 0.  1.
<mgrwt>
<rscale>  2 0.18505705E+03</rscale>
<asrwt>0</asrwt>
<pdfrwt beam="1">  1        2 0.32587876E+00 0.18505705E+03</pdfrwt>
<pdfrwt beam="2">  1       -2 0.28304629E-02 0.18505705E+03</pdfrwt>
<totfact> 0.29800873E+03</totfact>
</mgrwt>
</event>
<event>
 4    1  0.7691552E-001  0.1740140E+03  0.7546771E-02  0.1173725E+00
          2   -1    0    0  502    0  0.00000000000E+00  0.00000000000E+00  0.22444864658E+03  0.22444864658E+03  0.00000000000E+00 0.  1.
         -2   -1    0    0    0  501 -0.00000000000E+00 -0.00000000000E+00 -0.13518117521E+03  0.13518117521E+03  0.00000000000E+00 0. -1.
          6    1    1    2  502    0 -0.14220459846E+02  0.12232610022E+02  0.52654811291E+02  0.18180590578E+03  0.17300000000E+03 0. -1.
         -6    1    1    2    0  501  0.14220459846E+02 -0.12232610022E+02  0.36612660071E+02  0.17782391601E+03  0.17300000000E+03 0.  1.
<mgrwt>
<rscale>  2 0.17401396E+03</rscale>
<asrwt>0</asrwt>
<pdfrwt beam="1">  1        2 0.34530561E-01 0.17401396E+03</pdfrwt>
<pdfrwt beam="2">  1       -2 0.20797104E-01 0.17401396E+03</pdfrwt>
<totfact> 0.28856818E+03</totfact>
</mgrwt>
</event>
<event>
 4    1  0.7691552E-001  0.1784174E+03  0.7546771E-02  0.1169344E+00
         -1   -1    0    0    0  501 -0.00000000000E+00  0.00000000000E+00  0.27155028186E+02  0.27155028186E+02  0.00000000000E+00 0.  1.
          1   -1    0    0  502    0  0.00000000000E+00 -0.00000000000E+00 -0.12443378219E+04  0.12443378219E+04  0.00000000000E+00 0. -1.
          6    1    1    2  502    0 -0.33197595796E+02  0.28314033495E+02 -0.76159946261E+03  0.78221896315E+03  0.17300000000E+03 0. -1.
         -6    1    1    2    0  501  0.33197595796E+02 -0.28314033495E+02 -0.45558333110E+03  0.48927388694E+03  0.17300000000E+03 0.  1.
<mgrwt>
<rscale>  2 0.17841739E+03</rscale>
<asrwt>0</asrwt>
<pdfrwt beam="2">  1        1 0.19143660E+00 0.17841739E+03</pdfrwt>
<pdfrwt beam="1">  1       -1 0.41776964E-02 0.17841739E+03</pdfrwt>
<totfact> 0.24474420E+03</totfact>
</mgrwt>
</event>
<event>
 4    1  0.7691552E-001  0.2439579E+03  0.7546771E-02  0.1117184E+00
          2   -1    0    0  502    0  0.00000000000E+00  0.00000000000E+00  0.17067755126E+03  0.17067755126E+03  0.00000000000E+00 0.  1.
         -2   -1    0    0    0  501 -0.00000000000E+00 -0.00000000000E+00 -0.35378061040E+03  0.35378061040E+03  0.00000000000E+00 0. -1.
          6    1    1    2  502    0 -0.15869142625E+03  0.66358608234E+02 -0.60129891013E+02  0.25125890520E+03  0.17300000000E+03 0. -1.
         -6    1    1    2    0  501  0.15869142625E+03 -0.66358608234E+02 -0.12297316812E+03  0.27319925646E+03  0.17300000000E+03 0. -1.
<mgrwt>
<rscale>  2 0.24395785E+03</rscale>
<asrwt>0</asrwt>
<pdfrwt beam="1">  1        2 0.26258085E-01 0.24395785E+03</pdfrwt>
<pdfrwt beam="2">  1       -2 0.54427786E-01 0.24395785E+03</pdfrwt>
<totfact> 0.65884985E+02</totfact>
</mgrwt>
</event>
<event>
 4    1  0.7691552E-001  0.4249658E+03  0.7546771E-02  0.1035462E+00
          2   -1    0    0  502    0  0.00000000000E+00  0.00000000000E+00  0.58279192704E+03  0.58279192704E+03  0.00000000000E+00 0.  1.
         -2   -1    0    0    0  501 -0.00000000000E+00 -0.00000000000E+00 -0.35418602905E+03  0.35418602905E+03  0.00000000000E+00 0. -1.
          6    1    1    2  502    0  0.38805538563E+03 -0.89412113293E+01  0.27999894242E+03  0.50891584308E+03  0.17300000000E+03 0.  1.
         -6    1    1    2    0  501 -0.38805538563E+03  0.89412113293E+01 -0.51393044432E+02  0.42806211301E+03  0.17300000000E+03 0. -1.
<mgrwt>
<rscale>  2 0.42496580E+03</rscale>
<asrwt>0</asrwt>
<pdfrwt beam="1">  1        2 0.89660297E-01 0.42496580E+03</pdfrwt>
<pdfrwt beam="2">  1       -2 0.54490158E-01 0.42496580E+03</pdfrwt>
<totfact> 0.16772751E+02</totfact>
</mgrwt>
</event>
<event>
 4    1  0.7691552E-001  0.1841475E+03  0.7546771E-02  0.1163848E+00
         -1   -1    0    0    0  501 -0.00000000000E+00  0.00000000000E+00  0.33182793873E+02  0.33182793873E+02  0.00000000000E+00 0.  1.
          1   -1    0    0  502    0  0.00000000000E+00 -0.00000000000E+00 -0.11446041516E+04  0.11446041516E+04  0.00000000000E+00 0. -1.
          6    1    1    2  502    0 -0.33887936909E+02 -0.53225089639E+02 -0.74850567361E+03  0.77082491259E+03  0.17300000000E+03 0. -1.
         -6    1    1    2    0  501  0.33887936909E+02  0.53225089639E+02 -0.36291568412E+03  0.40696203289E+03  0.17300000000E+03 0. -1.
<mgrwt>
<rscale>  2 0.18414750E+03</rscale>
<asrwt>0</asrwt>
<pdfrwt beam="2">  1        1 0.17609293E+00 0.18414750E+03</pdfrwt>
<pdfrwt beam="1">  1       -1 0.51050457E-02 0.18414750E+03</pdfrwt>
<totfact> 0.21308811E+03</totfact>
</mgrwt>
</event>
<event>
 4    1  0.7691552E-001  0.2174621E+03  0.7546771E-02  0.1135789E+00
          2   -1    0    0  502    0  0.00000000000E+00  0.00000000000E+00  0.54421375346E+02  0.54421375346E+02  0.00000000000E+00 0.  1.
         -2   -1    0    0    0  501 -0.00000000000E+00 -0.00000000000E+00 -0.93142755329E+03  0.93142755329E+03  0.00000000000E+00 0. -1.
          6    1    1    2  502    0 -0.11212875333E+03  0.69194627920E+02 -0.56616128272E+03  0.60648854227E+03  0.17300000000E+03 0. -1.
         -6    1    1    2    0  501  0.11212875333E+03 -0.69194627920E+02 -0.31084489522E+03  0.37936038636E+03  0.17300000000E+03 0.  1.
<mgrwt>
<rscale>  2 0.21746207E+03</rscale>
<asrwt>0</asrwt>
<pdfrwt beam="1">  1        2 0.83725192E-02 0.21746207E+03</pdfrwt>
<pdfrwt beam="2">  1       -2 0.14329655E+00 0.21746207E+03</pdfrwt>
<totfact> 0.28569480E+02</totfact>
</mgrwt>
</event>
<event>
 4    1  0.7691552E-001  0.1775269E+03  0.7546771E-02  0.1170218E+00
         -2   -1    0    0    0  501 -0.00000000000E+00  0.00000000000E+00  0.21782538721E+02  0.21782538721E+02  0.00000000000E+00 0. -1.
          2   -1    0    0  502    0  0.00000000000E+00 -0.00000000000E+00 -0.14582149031E+04  0.14582149031E+04  0.00000000000E+00 0.  1.
          6    1    1    2  502    0 -0.38605903456E+02  0.98179512065E+01 -0.78357880006E+03  0.80343733039E+03  0.17300000000E+03 0. -1.
         -6    1    1    2    0  501  0.38605903456E+02 -0.98179512065E+01 -0.65285356433E+03  0.67656011145E+03  0.17300000000E+03 0. -1.
<mgrwt>
<rscale>  2 0.17752692E+03</rscale>
<asrwt>0</asrwt>
<pdfrwt beam="2">  1        2 0.22434074E+00 0.17752692E+03</pdfrwt>
<pdfrwt beam="1">  1       -2 0.33511600E-02 0.17752692E+03</pdfrwt>
<totfact> 0.51127948E+03</totfact>
</mgrwt>
</event>
<event>
 4    1  0.7691552E-001  0.1840269E+03  0.7546771E-02  0.1163962E+00
          1   -1    0    0  502    0  0.00000000000E+00  0.00000000000E+00  0.61614848701E+03  0.61614848701E+03  0.00000000000E+00 0.  1.
         -1   -1    0    0    0  501 -0.00000000000E+00 -0.00000000000E+00 -0.61278642511E+02  0.61278642511E+02  0.00000000000E+00 0. -1.
          6    1    1    2  502    0  0.17056814500E+02 -0.60381794548E+02  0.38616692712E+03  0.42777422974E+03  0.17300000000E+03 0.  1.
         -6    1    1    2    0  501 -0.17056814500E+02  0.60381794548E+02  0.16870291738E+03  0.24965289978E+03  0.17300000000E+03 0. -1.
<mgrwt>
<rscale>  2 0.18402689E+03</rscale>
<asrwt>0</asrwt>
<pdfrwt beam="1">  1        1 0.94792071E-01 0.18402689E+03</pdfrwt>
<pdfrwt beam="2">  1       -1 0.94274839E-02 0.18402689E+03</pdfrwt>
<totfact> 0.22414777E+03</totfact>
</mgrwt>
</event>
<event>
 4    1  0.7691552E-001  0.2630508E+03  0.7546771E-02  0.1105324E+00
         -2   -1    0    0    0  501 -0.00000000000E+00  0.00000000000E+00  0.68842441997E+02  0.68842441997E+02  0.00000000000E+00 0.  1.
          2   -1    0    0  502    0  0.00000000000E+00 -0.00000000000E+00 -0.10295375683E+04  0.10295375683E+04  0.00000000000E+00 0. -1.
          6    1    1    2  502    0  0.16804948976E+03 -0.10500530605E+03 -0.56490376845E+03  0.62314686304E+03  0.17300000000E+03 0. -1.
         -6    1    1    2    0  501 -0.16804948976E+03  0.10500530605E+03 -0.39579135788E+03  0.47523314729E+03  0.17300000000E+03 0.  1.
<mgrwt>
<rscale>  2 0.26305084E+03</rscale>
<asrwt>0</asrwt>
<pdfrwt beam="2">  1        2 0.15839040E+00 0.26305084E+03</pdfrwt>
<pdfrwt beam="1">  1       -2 0.10591144E-01 0.26305084E+03</pdfrwt>
<totfact> 0.15242202E+03</totfact>
</mgrwt>
</event>
<event>
 4    1  0.7691552E-001  0.1873565E+03  0.7546771E-02  0.1160867E+00
         -2   -1    0    0    0  501 -0.00000000000E+00  0.00000000000E+00  0.44623953372E+03  0.44623953372E+03  0.00000000000E+00 0. -1.
          2   -1    0    0  502    0  0.00000000000E+00 -0.00000000000E+00 -0.90746572231E+02  0.90746572231E+02  0.00000000000E+00 0.  1.
          6    1    1    2  502    0 -0.46547477870E+02  0.54834251634E+02  0.79770699668E+02  0.20363159719E+03  0.17300000000E+03 0. -1.
         -6    1    1    2    0  501  0.46547477870E+02 -0.54834251634E+02  0.27572226182E+03  0.33335450876E+03  0.17300000000E+03 0.  1.
<mgrwt>
<rscale>  2 0.18735651E+03</rscale>
<asrwt>0</asrwt>
<pdfrwt beam="2">  1        2 0.13961011E-01 0.18735651E+03</pdfrwt>
<pdfrwt beam="1">  1       -2 0.68652234E-01 0.18735651E+03</pdfrwt>
<totfact> 0.83768738E+02</totfact>
</mgrwt>
</event>
<event>
 4    1  0.7691552E-001  0.3285320E+03  0.7546771E-02  0.1071788E+00
         -2   -1    0    0    0  501 -0.00000000000E+00  0.00000000000E+00  0.61256235467E+02  0.61256235467E+02  0.00000000000E+00 0.  1.
          2   -1    0    0  502    0  0.00000000000E+00 -0.00000000000E+00 -0.20859321807E+04  0.20859321807E+04  0.00000000000E+00 0. -1.
          6    1    1    2  502    0 -0.27641655221E+03 -0.39976771013E+02 -0.14354152291E+04  0.14725318783E+04  0.17300000000E+03 0. -1.
         -6    1    1    2    0  501  0.27641655221E+03  0.39976771013E+02 -0.58926071610E+03  0.67465653788E+03  0.17300000000E+03 0.  1.
<mgrwt>
<rscale>  2 0.32853197E+03</rscale>
<asrwt>0</asrwt>
<pdfrwt beam="2">  1        2 0.32091265E+00 0.32853197E+03</pdfrwt>
<pdfrwt beam="1">  1       -2 0.94240359E-02 0.32853197E+03</pdfrwt>
<totfact> 0.48438206E+02</totfact>
</mgrwt>
</event>
<event>
 4    1  0.7691552E-001  0.1877489E+03  0.7546771E-02  0.1160507E+00
         -2   -1    0    0    0  501 -0.00000000000E+00  0.00000000000E+00  0.86761909662E+02  0.86761909662E+02  0.00000000000E+00 0. -1.
          2   -1    0    0  502    0  0.00000000000E+00 -0.00000000000E+00 -0.66205051612E+03  0.66205051612E+03  0.00000000000E+00 0.  1.
          6    1    1    2  502    0  0.44719862601E+02  0.57626269350E+02 -0.54930317748E+02  0.19561951037E+03  0.17300000000E+03 0. -1.
         -6    1    1    2    0  501 -0.44719862601E+02 -0.57626269350E+02 -0.52035828870E+03  0.55319291540E+03  0.17300000000E+03 0.  1.
<mgrwt>
<rscale>  2 0.18774891E+03</rscale>
<asrwt>0</asrwt>
<pdfrwt beam="2">  1        2 0.10185393E+00 0.18774891E+03</pdfrwt>
<pdfrwt beam="1">  1       -2 0.13347986E-01 0.18774891E+03</pdfrwt>
<totfact> 0.18519735E+03</totfact>
</mgrwt>
</event>
<event>
 4    1  0.7691552E-001  0.1806206E+03  0.7546771E-02  0.1167204E+00
          2   -1    0    0  502    0  0.00000000000E+00  0.00000000000E+00  0.57527991940E+03  0.57527991940E+03  0.00000000000E+00 0.  1.
         -2   -1    0    0    0  501 -0.00000000000E+00 -0.00000000000E+00 -0.56731678270E+02  0.56731678270E+02  0.00000000000E+00 0. -1.
          6    1    1    2  502    0 -0.39856640221E+02  0.33260366979E+02  0.25301801980E+03  0.31087283916E+03  0.17300000000E+03 0.  1.
         -6    1    1    2    0  501  0.39856640221E+02 -0.33260366979E+02  0.26553022133E+03  0.32113875851E+03  0.17300000000E+03 0.  1.
<mgrwt>
<rscale>  2 0.18062061E+03</rscale>
<asrwt>0</asrwt>
<pdfrwt beam="1">  1        2 0.88504599E-01 0.18062061E+03</pdfrwt>
<pdfrwt beam="2">  1       -2 0.87279509E-02 0.18062061E+03</pdfrwt>
<totfact> 0.42852396E+03</totfact>
</mgrwt>
</event>
<event>
 4    1  0.7691552E-001  0.1782351E+03  0.7546771E-02  0.1169522E+00
         -1   -1    0    0    0  501 -0.00000000000E+00  0.00000000000E+00  0.63919740470E+03  0.63919740470E+03  0.00000000000E+00 0.  1.
          1   -1    0    0  502    0  0.00000000000E+00 -0.00000000000E+00 -0.51825717433E+02  0.51825717433E+02  0.00000000000E+00 0. -1.
          6    1    1    2  502    0  0.38333040305E+02 -0.19217893259E+02  0.22370156790E+03  0.28602472075E+03  0.17300000000E+03 0. -1.
         -6    1    1    2    0  501 -0.38333040305E+02  0.19217893259E+02  0.36367011937E+03  0.40499840139E+03  0.17300000000E+03 0.  1.
<mgrwt>
<rscale>  2 0.17823510E+03</rscale>
<asrwt>0</asrwt>
<pdfrwt beam="2">  1        1 0.79731877E-02 0.17823510E+03</pdfrwt>
<pdfrwt beam="1">  1       -1 0.98338057E-01 0.17823510E+03</pdfrwt>
<totfact> 0.90697434E+02</totfact>
</mgrwt>
</event>
<event>
 4    1  0.7691552E-001  0.1941404E+03  0.7546771E-02  0.1154779E+00
         -2   -1    0    0    0  501 -0.00000000000E+00  0.00000000000E+00  0.35368615616E+02  0.35368615616E+02  0.00000000000E+00 0.  1.
          2   -1    0    0  502    0  0.00000000000E+00 -0.00000000000E+00 -0.13279462697E+04  0.13279462697E+04  0.00000000000E+00 0. -1.
          6    1    1    2  502    0  0.17018217180E+02  0.86439932561E+02 -0.34333674428E+03  0.39442439279E+03  0.17300000000E+03 0.  1.
         -6    1    1    2    0  501 -0.17018217180E+02 -0.86439932561E+02 -0.94924090985E+03  0.96889049256E+03  0.17300000000E+03 0. -1.
<mgrwt>
<rscale>  2 0.19414037E+03</rscale>
<asrwt>0</asrwt>
<pdfrwt beam="2">  1        2 0.20429943E+00 0.19414037E+03</pdfrwt>
<pdfrwt beam="1">  1       -2 0.54413253E-02 0.19414037E+03</pdfrwt>
<totfact> 0.29036165E+03</totfact>
</mgrwt>
</event>
<event>
 4    1  0.7691552E-001  0.1730279E+03  0.7546771E-02  0.1174726E+00
         -3   -1    0    0    0  501 -0.00000000000E+00  0.00000000000E+00  0.11521013851E+03  0.11521013851E+03  0.00000000000E+00 0. -1.
          3   -1    0    0  502    0  0.00000000000E+00 -0.00000000000E+00 -0.46123561795E+03  0.46123561795E+03  0.00000000000E+00 0.  1.
          6    1    1    2  502    0  0.27821379400E+01  0.13884857941E+01  0.17431991754E+02  0.17390383124E+03  0.17300000000E+03 0. -1.
         -6    1    1    2    0  501 -0.27821379400E+01 -0.13884857941E+01 -0.36345747120E+03  0.40254192521E+03  0.17300000000E+03 0.  1.
<mgrwt>
<rscale>  2 0.17302794E+03</rscale>
<asrwt>0</asrwt>
<pdfrwt beam="2">  1        3 0.70959327E-01 0.17302794E+03</pdfrwt>
<pdfrwt beam="1">  1       -3 0.17724636E-01 0.17302794E+03</pdfrwt>
<totfact> 0.12936276E+02</totfact>
</mgrwt>
</event>
<event>
 4    1  0.7691552E-001  0.2462885E+03  0.7546771E-02  0.1115673E+00
         -1   -1    0    0    0  501 -0.00000000000E+00  0.00000000000E+00  0.67189189900E+02  0.67189189900E+02  0.00000000000E+00 0.  1.
          1   -1    0    0  502    0  0.00000000000E+00 -0.00000000000E+00 -0.90944452376E+03  0.90944452376E+03  0.00000000000E+00 0. -1.
          6    1    1    2  502    0  0.79025171727E+02 -0.15647373177E+03 -0.46288542415E+03  0.52432902112E+03  0.17300000000E+03 0. -1.
         -6    1    1    2    0  501 -0.79025171727E+02  0.15647373177E+03 -0.37936990972E+03  0.45230469255E+03  0.17300000000E+03 0. -1.
<mgrwt>
<rscale>  2 0.24628846E+03</rscale>
<asrwt>0</asrwt>
<pdfrwt beam="2">  1        1 0.13991454E+00 0.24628846E+03</pdfrwt>
<pdfrwt beam="1">  1       -1 0.10336798E-01 0.24628846E+03</pdfrwt>
<totfact> 0.10885905E+03</totfact>
</mgrwt>
</event>
<event>
 4    1  0.7691552E-001  0.1821420E+03  0.7546771E-02  0.1165746E+00
          1   -1    0    0  502    0  0.00000000000E+00  0.00000000000E+00  0.21384511830E+02  0.21384511830E+02  0.00000000000E+00 0.  1.
         -1   -1    0    0    0  501 -0.00000000000E+00 -0.00000000000E+00 -0.21013659427E+04  0.21013659427E+04  0.00000000000E+00 0. -1.
          6    1    1    2  502    0 -0.53998067990E+02 -0.18190652573E+02 -0.15829789759E+04  0.15934233993E+04  0.17300000000E+03 0. -1.
         -6    1    1    2    0  501  0.53998067990E+02  0.18190652573E+02 -0.49700245495E+03  0.52932705524E+03  0.17300000000E+03 0.  1.
<mgrwt>
<rscale>  2 0.18214195E+03</rscale>
<asrwt>0</asrwt>
<pdfrwt beam="1">  1        1 0.32899246E-02 0.18214195E+03</pdfrwt>
<pdfrwt beam="2">  1       -1 0.32328710E+00 0.18214195E+03</pdfrwt>
<totfact> 0.83741945E+01</totfact>
</mgrwt>
</event>
<event>
 4    1  0.7691552E-001  0.3823108E+03  0.7546771E-02  0.1050083E+00
          1   -1    0    0  502    0  0.00000000000E+00  0.00000000000E+00  0.37455615612E+03  0.37455615612E+03  0.00000000000E+00 0. -1.
         -1   -1    0    0    0  501 -0.00000000000E+00 -0.00000000000E+00 -0.42238415919E+03  0.42238415919E+03  0.00000000000E+00 0.  1.
          6    1    1    2  502    0 -0.29474953661E+03  0.17133371741E+03  0.86034145546E+02  0.39187167064E+03  0.17300000000E+03 0. -1.
         -6    1    1    2    0  501  0.29474953661E+03 -0.17133371741E+03 -0.13386214862E+03  0.40506864466E+03  0.17300000000E+03 0.  1.
<mgrwt>
<rscale>  2 0.38231078E+03</rscale>
<asrwt>0</asrwt>
<pdfrwt beam="1">  1        1 0.57624024E-01 0.38231078E+03</pdfrwt>
<pdfrwt beam="2">  1       -1 0.64982178E-01 0.38231078E+03</pdfrwt>
<totfact> 0.16359967E+02</totfact>
</mgrwt>
</event>
<event>
 4    1  0.7691552E-001  0.2068352E+03  0.7546771E-02  0.1144097E+00
          1   -1    0    0  502    0  0.00000000000E+00  0.00000000000E+00  0.10116410620E+04  0.10116410620E+04  0.00000000000E+00 0.  1.
         -1   -1    0    0    0  501 -0.00000000000E+00 -0.00000000000E+00 -0.51824524884E+02  0.51824524884E+02  0.00000000000E+00 0. -1.
          6    1    1    2  502    0 -0.66509910477E+02  0.91805364795E+02  0.70799984143E+03  0.73759376941E+03  0.17300000000E+03 0. -1.
         -6    1    1    2    0  501  0.66509910477E+02 -0.91805364795E+02  0.25181669565E+03  0.32587181744E+03  0.17300000000E+03 0. -1.
<mgrwt>
<rscale>  2 0.20683518E+03</rscale>
<asrwt>0</asrwt>
<pdfrwt beam="1">  1        1 0.15563707E+00 0.20683518E+03</pdfrwt>
<pdfrwt beam="2">  1       -1 0.79730046E-02 0.20683518E+03</pdfrwt>
<totfact> 0.13575104E+03</totfact>
</mgrwt>
</event>
<event>
 4    1  0.7691552E-001  0.1997843E+03  0.7546771E-02  0.1149921E+00
          2   -1    0    0  502    0  0.00000000000E+00  0.00000000000E+00  0.68359634436E+03  0.68359634436E+03  0.00000000000E+00 0. -1.
         -2   -1    0    0    0  501 -0.00000000000E+00 -0.00000000000E+00 -0.71848987958E+02  0.71848987958E+02  0.00000000000E+00 0.  1.
          6    1    1    2  502    0  0.71134047440E+02  0.70176376890E+02  0.14237950077E+03  0.24532773757E+03  0.17300000000E+03 0.  1.
         -6    1    1    2    0  501 -0.71134047440E+02 -0.70176376890E+02  0.46936785562E+03  0.51011759475E+03  0.17300000000E+03 0. -1.
<mgrwt>
<rscale>  2 0.19978433E+03</rscale>
<asrwt>0</asrwt>
<pdfrwt beam="1">  1        2 0.10516866E+00 0.19978433E+03</pdfrwt>
<pdfrwt beam="2">  1       -2 0.11053691E-01 0.19978433E+03</pdfrwt>
<totfact> 0.24191237E+03</totfact>
</mgrwt>
</event>
<event>
 4    1  0.7691552E-001  0.1902863E+03  0.7546771E-02  0.1158203E+00
          2   -1    0    0  502    0  0.00000000000E+00  0.00000000000E+00  0.98123792676E+03  0.98123792676E+03  0.00000000000E+00 0. -1.
         -2   -1    0    0    0  501 -0.00000000000E+00 -0.00000000000E+00 -0.36911152919E+02  0.36911152919E+02  0.00000000000E+00 0.  1.
          6    1    1    2  502    0 -0.69393336439E+02 -0.38268238020E+02  0.48050733161E+03  0.51681349529E+03  0.17300000000E+03 0. -1.
         -6    1    1    2    0  501  0.69393336439E+02  0.38268238020E+02  0.46381944223E+03  0.50133558439E+03  0.17300000000E+03 0. -1.
<mgrwt>
<rscale>  2 0.19028635E+03</rscale>
<asrwt>0</asrwt>
<pdfrwt beam="1">  1        2 0.15095966E+00 0.19028635E+03</pdfrwt>
<pdfrwt beam="2">  1       -2 0.56786396E-02 0.19028635E+03</pdfrwt>
<totfact> 0.42962763E+03</totfact>
</mgrwt>
</event>
<event>
 4    1  0.7691552E-001  0.2416499E+03  0.7546771E-02  0.1118699E+00
          2   -1    0    0  502    0  0.00000000000E+00  0.00000000000E+00  0.90294557508E+03  0.90294557508E+03  0.00000000000E+00 0.  1.
         -2   -1    0    0    0  501 -0.00000000000E+00 -0.00000000000E+00 -0.71296997445E+02  0.71296997445E+02  0.00000000000E+00 0. -1.
          6    1    1    2  502    0 -0.57395772512E+02 -0.15865502181E+03  0.26732775152E+03  0.36035928929E+03  0.17300000000E+03 0.  1.
         -6    1    1    2    0  501  0.57395772512E+02  0.15865502181E+03  0.56432082611E+03  0.61388328323E+03  0.17300000000E+03 0.  1.
<mgrwt>
<rscale>  2 0.24164993E+03</rscale>
<asrwt>0</asrwt>
<pdfrwt beam="1">  1        2 0.13891470E+00 0.24164993E+03</pdfrwt>
<pdfrwt beam="2">  1       -2 0.10968769E-01 0.24164993E+03</pdfrwt>
<totfact> 0.17281023E+03</totfact>
</mgrwt>
</event>
<event>
 4    1  0.7691552E-001  0.2779200E+03  0.7546771E-02  0.1096830E+00
         -2   -1    0    0    0  501 -0.00000000000E+00  0.00000000000E+00  0.80922862454E+02  0.80922862454E+02  0.00000000000E+00 0.  1.
          2   -1    0    0  502    0  0.00000000000E+00 -0.00000000000E+00 -0.95451857707E+03  0.95451857707E+03  0.00000000000E+00 0. -1.
          6    1    1    2  502    0  0.79595747167E+02 -0.20242296071E+03 -0.43365996397E+03  0.51507329803E+03  0.17300000000E+03 0. -1.
         -6    1    1    2    0  501 -0.79595747167E+02  0.20242296071E+03 -0.43993575065E+03  0.52036814150E+03  0.17300000000E+03 0.  1.
<mgrwt>
<rscale>  2 0.27792002E+03</rscale>
<asrwt>0</asrwt>
<pdfrwt beam="2">  1        2 0.14684901E+00 0.27792002E+03</pdfrwt>
<pdfrwt beam="1">  1       -2 0.12449672E-01 0.27792002E+03</pdfrwt>
<totfact> 0.13058732E+03</totfact>
</mgrwt>
</event>
<event>
 4    1  0.7691552E-001  0.1836477E+03  0.7546771E-02  0.1164319E+00
         -2   -1    0    0    0  501 -0.00000000000E+00  0.00000000000E+00  0.19135189472E+03  0.19135189472E+03  0.00000000000E+00 0. -1.
          2   -1    0    0  502    0  0.00000000000E+00 -0.00000000000E+00 -0.23358597135E+03  0.23358597135E+03  0.00000000000E+00 0.  1.
          6    1    1    2  502    0  0.45679232061E+02 -0.41362842598E+02 -0.12637905377E+03  0.22293080142E+03  0.17300000000E+03 0.  1.
         -6    1    1    2    0  501 -0.45679232061E+02  0.41362842598E+02  0.84144977144E+02  0.20200706465E+03  0.17300000000E+03 0. -1.
<mgrwt>
<rscale>  2 0.18364770E+03</rscale>
<asrwt>0</asrwt>
<pdfrwt beam="2">  1        2 0.35936303E-01 0.18364770E+03</pdfrwt>
<pdfrwt beam="1">  1       -2 0.29438753E-01 0.18364770E+03</pdfrwt>
<totfact> 0.15048316E+03</totfact>
</mgrwt>
</event>
<event>
 4    1  0.7691552E-001  0.1865633E+03  0.7546771E-02  0.1161598E+00
          1   -1    0    0  502    0  0.00000000000E+00  0.00000000000E+00  0.74790909283E+03  0.74790909283E+03  0.00000000000E+00 0. -1.
         -1   -1    0    0    0  501 -0.00000000000E+00 -0.00000000000E+00 -0.48398310085E+02  0.48398310085E+02  0.00000000000E+00 0.  1.
          6    1    1    2  502    0  0.67345460101E+02  0.18478032488E+02  0.27168576215E+03  0.32957397050E+03  0.17300000000E+03 0.  1.
         -6    1    1    2    0  501 -0.67345460101E+02 -0.18478032488E+02  0.42782502060E+03  0.46673343241E+03  0.17300000000E+03 0.  1.
<mgrwt>
<rscale>  2 0.18656326E+03</rscale>
<asrwt>0</asrwt>
<pdfrwt beam="1">  1        1 0.11506293E+00 0.18656326E+03</pdfrwt>
<pdfrwt beam="2">  1       -1 0.74458944E-02 0.18656326E+03</pdfrwt>
<totfact> 0.24340291E+03</totfact>
</mgrwt>
</event>
<event>
 4    1  0.7691552E-001  0.1954453E+03  0.7546771E-02  0.1153640E+00
          1   -1    0    0  502    0  0.00000000000E+00  0.00000000000E+00  0.28897013466E+03  0.28897013466E+03  0.00000000000E+00 0. -1.
         -1   -1    0    0    0  501 -0.00000000000E+00 -0.00000000000E+00 -0.14624871896E+03  0.14624871896E+03  0.00000000000E+00 0.  1.
          6    1    1    2  502    0  0.57333350671E+02 -0.70588743332E+02  0.13883040029E+03  0.23973477810E+03  0.17300000000E+03 0. -1.
         -6    1    1    2    0  501 -0.57333350671E+02  0.70588743332E+02  0.38910154076E+01  0.19548407553E+03  0.17300000000E+03 0.  1.
<mgrwt>
<rscale>  2 0.19544535E+03</rscale>
<asrwt>0</asrwt>
<pdfrwt beam="1">  1        1 0.44456944E-01 0.19544535E+03</pdfrwt>
<pdfrwt beam="2">  1       -1 0.22499803E-01 0.19544535E+03</pdfrwt>
<totfact> 0.15146139E+03</totfact>
</mgrwt>
</event>
<event>
 4    1  0.7691552E-001  0.1732877E+03  0.7546771E-02  0.1174462E+00
          1   -1    0    0  502    0  0.00000000000E+00  0.00000000000E+00  0.64271216078E+03  0.64271216078E+03  0.00000000000E+00 0. -1.
         -1   -1    0    0    0  501 -0.00000000000E+00 -0.00000000000E+00 -0.23994474566E+03  0.23994474566E+03  0.00000000000E+00 0.  1.
          6    1    1    2  502    0  0.90872389099E+01  0.41305549837E+01  0.59742065748E+03  0.62204507986E+03  0.17300000000E+03 0. -1.
         -6    1    1    2    0  501 -0.90872389099E+01 -0.41305549837E+01 -0.19465324236E+03  0.26061182658E+03  0.17300000000E+03 0.  1.
<mgrwt>
<rscale>  2 0.17328774E+03</rscale>
<asrwt>0</asrwt>
<pdfrwt beam="1">  1        1 0.98878793E-01 0.17328774E+03</pdfrwt>
<pdfrwt beam="2">  1       -1 0.36914576E-01 0.17328774E+03</pdfrwt>
<totfact> 0.23281243E+02</totfact>
</mgrwt>
</event>
<event>
 4    1  0.7691552E-001  0.1988215E+03  0.7546771E-02  0.1150737E+00
          2   -1    0    0  502    0  0.00000000000E+00  0.00000000000E+00  0.78575100683E+03  0.78575100683E+03  0.00000000000E+00 0. -1.
         -2   -1    0    0    0  501 -0.00000000000E+00 -0.00000000000E+00 -0.50796602050E+02  0.50796602050E+02  0.00000000000E+00 0.  1.
          6    1    1    2  502    0  0.15065991254E+02 -0.96819379659E+02  0.40847743155E+03  0.45429482547E+03  0.17300000000E+03 0. -1.
         -6    1    1    2    0  501 -0.15065991254E+02  0.96819379659E+02  0.32647697323E+03  0.38225278341E+03  0.17300000000E+03 0. -1.
<mgrwt>
<rscale>  2 0.19882147E+03</rscale>
<asrwt>0</asrwt>
<pdfrwt beam="1">  1        2 0.12088476E+00 0.19882147E+03</pdfrwt>
<pdfrwt beam="2">  1       -2 0.78148624E-02 0.19882147E+03</pdfrwt>
<totfact> 0.35233612E+03</totfact>
</mgrwt>
</event>
<event>
 4    1  0.7691552E-001  0.2504528E+03  0.7546771E-02  0.1113019E+00
          2   -1    0    0  502    0  0.00000000000E+00  0.00000000000E+00  0.23205968107E+03  0.23205968107E+03  0.00000000000E+00 0.  1.
         -2   -1    0    0    0  501 -0.00000000000E+00 -0.00000000000E+00 -0.28850776296E+03  0.28850776296E+03  0.00000000000E+00 0. -1.
          6    1    1    2  502    0  0.96677833735E+02 -0.15313722295E+03 -0.93604999192E+02  0.26737335032E+03  0.17300000000E+03 0.  1.
         -6    1    1    2    0  501 -0.96677833735E+02  0.15313722295E+03  0.37156917298E+02  0.25319409371E+03  0.17300000000E+03 0. -1.
<mgrwt>
<rscale>  2 0.25045282E+03</rscale>
<asrwt>0</asrwt>
<pdfrwt beam="1">  1        2 0.35701489E-01 0.25045282E+03</pdfrwt>
<pdfrwt beam="2">  1       -2 0.44385810E-01 0.25045282E+03</pdfrwt>
<totfact> 0.70554216E+02</totfact>
</mgrwt>
</event>
<event>
 4    1  0.7691552E-001  0.1926932E+03  0.7546771E-02  0.1156054E+00
          1   -1    0    0  502    0  0.00000000000E+00  0.00000000000E+00  0.12914865018E+03  0.12914865018E+03  0.00000000000E+00 0.  1.
         -1   -1    0    0    0  501 -0.00000000000E+00 -0.00000000000E+00 -0.33475937074E+03  0.33475937074E+03  0.00000000000E+00 0. -1.
          6    1    1    2  502    0  0.31569512304E+01  0.84803939354E+02 -0.18995466255E+03  0.27057983720E+03  0.17300000000E+03 0. -1.
         -6    1    1    2    0  501 -0.31569512304E+01 -0.84803939354E+02 -0.15656058001E+02  0.19332818373E+03  0.17300000000E+03 0.  1.
<mgrwt>
<rscale>  2 0.19269321E+03</rscale>
<asrwt>0</asrwt>
<pdfrwt beam="1">  1        1 0.19869023E-01 0.19269321E+03</pdfrwt>
<pdfrwt beam="2">  1       -1 0.51501442E-01 0.19269321E+03</pdfrwt>
<totfact> 0.99670347E+02</totfact>
</mgrwt>
</event>
<event>
 4    1  0.7691552E-001  0.2520805E+03  0.7546771E-02  0.1111997E+00
         -1   -1    0    0    0  501 -0.00000000000E+00  0.00000000000E+00  0.77227589605E+03  0.77227589605E+03  0.00000000000E+00 0.  1.
          1   -1    0    0  502    0  0.00000000000E+00 -0.00000000000E+00 -0.82389091066E+02  0.82389091066E+02  0.00000000000E+00 0. -1.
          6    1    1    2  502    0  0.10596247903E+03  0.14962467345E+03  0.32955397405E+03  0.41491012482E+03  0.17300000000E+03 0. -1.
         -6    1    1    2    0  501 -0.10596247903E+03 -0.14962467345E+03  0.36033283093E+03  0.43975486230E+03  0.17300000000E+03 0.  1.
<mgrwt>
<rscale>  2 0.25208052E+03</rscale>
<asrwt>0</asrwt>
<pdfrwt beam="2">  1        1 0.12675245E-01 0.25208052E+03</pdfrwt>
<pdfrwt beam="1">  1       -1 0.11881167E+00 0.25208052E+03</pdfrwt>
<totfact> 0.31667056E+02</totfact>
</mgrwt>
</event>
<event>
 4    1  0.7691552E-001  0.2060257E+03  0.7546771E-02  0.1144752E+00
         -2   -1    0    0    0  501 -0.00000000000E+00  0.00000000000E+00  0.32352039066E+03  0.32352039066E+03  0.00000000000E+00 0. -1.
          2   -1    0    0  502    0  0.00000000000E+00 -0.00000000000E+00 -0.13860891046E+03  0.13860891046E+03  0.00000000000E+00 0.  1.
          6    1    1    2  502    0  0.82122387922E+02  0.75983671313E+02  0.39042491035E+02  0.20969244386E+03  0.17300000000E+03 0. -1.
         -6    1    1    2    0  501 -0.82122387922E+02 -0.75983671313E+02  0.14586898917E+03  0.25243685726E+03  0.17300000000E+03 0.  1.
<mgrwt>
<rscale>  2 0.20602574E+03</rscale>
<asrwt>0</asrwt>
<pdfrwt beam="2">  1        2 0.21324448E-01 0.20602574E+03</pdfrwt>
<pdfrwt beam="1">  1       -2 0.49772367E-01 0.20602574E+03</pdfrwt>
<totfact> 0.99407047E+02</totfact>
</mgrwt>
</event>
<event>
 4    1  0.7691552E-001  0.2176984E+03  0.7546771E-02  0.1135611E+00
          1   -1    0    0  502    0  0.00000000000E+00  0.00000000000E+00  0.25505202743E+03  0.25505202743E+03  0.00000000000E+00 0. -1.
         -1   -1    0    0    0  501 -0.00000000000E+00 -0.00000000000E+00 -0.18990059119E+03  0.18990059119E+03  0.00000000000E+00 0.  1.
          6    1    1    2  502    0  0.84809674344E+02  0.10134560240E+03 -0.54739213740E-01  0.21769844966E+03  0.17300000000E+03 0.  1.
         -6    1    1    2    0  501 -0.84809674344E+02 -0.10134560240E+03  0.65206175458E+02  0.22725416895E+03  0.17300000000E+03 0.  1.
<mgrwt>
<rscale>  2 0.21769844E+03</rscale>
<asrwt>0</asrwt>
<pdfrwt beam="1">  1        1 0.39238773E-01 0.21769844E+03</pdfrwt>
<pdfrwt beam="2">  1       -1 0.29215476E-01 0.21769844E+03</pdfrwt>
<totfact> 0.11484522E+03</totfact>
</mgrwt>
</event>
<event>
 4    1  0.7691552E-001  0.2348819E+03  0.7546771E-02  0.1123250E+00
          2   -1    0    0  502    0  0.00000000000E+00  0.00000000000E+00  0.15154407826E+03  0.15154407826E+03  0.00000000000E+00 0.  1.
         -2   -1    0    0    0  501 -0.00000000000E+00 -0.00000000000E+00 -0.40346828382E+03  0.40346828382E+03  0.00000000000E+00 0. -1.
          6    1    1    2  502    0 -0.71845414514E+02  0.14169946990E+03 -0.39221763226E+02  0.23813410101E+03  0.17300000000E+03 0.  1.
         -6    1    1    2    0  501  0.71845414514E+02 -0.14169946990E+03 -0.21270244234E+03  0.31687826106E+03  0.17300000000E+03 0. -1.
<mgrwt>
<rscale>  2 0.23488189E+03</rscale>
<asrwt>0</asrwt>
<pdfrwt beam="1">  1        2 0.23314474E-01 0.23488189E+03</pdfrwt>
<pdfrwt beam="2">  1       -2 0.62072042E-01 0.23488189E+03</pdfrwt>
<totfact> 0.57403287E+02</totfact>
</mgrwt>
</event>
<event>
 4    1  0.7691552E-001  0.2146715E+03  0.7546771E-02  0.1137919E+00
         -1   -1    0    0    0  501 -0.00000000000E+00  0.00000000000E+00  0.33786512169E+03  0.33786512169E+03  0.00000000000E+00 0. -1.
          1   -1    0    0  502    0  0.00000000000E+00 -0.00000000000E+00 -0.25018668892E+03  0.25018668892E+03  0.00000000000E+00 0.  1.
          6    1    1    2  502    0  0.29935624116E+02 -0.12352607726E+03 -0.15445255875E+03  0.26446063272E+03  0.17300000000E+03 0.  1.
         -6    1    1    2    0  501 -0.29935624116E+02  0.12352607726E+03  0.24213099152E+03  0.32359117789E+03  0.17300000000E+03 0. -1.
<mgrwt>
<rscale>  2 0.21467145E+03</rscale>
<asrwt>0</asrwt>
<pdfrwt beam="2">  1        1 0.38490260E-01 0.21467145E+03</pdfrwt>
<pdfrwt beam="1">  1       -1 0.51979249E-01 0.21467145E+03</pdfrwt>
<totfact> 0.42460611E+02</totfact>
</mgrwt>
</event>
<event>
 4    1  0.7691552E-001  0.2985941E+03  0.7546771E-02  0.1085946E+00
         -2   -1    0    0    0  501 -0.00000000000E+00  0.00000000000E+00  0.60172629552E+02  0.60172629552E+02  0.00000000000E+00 0. -1.
          2   -1    0    0  502    0  0.00000000000E+00 -0.00000000000E+00 -0.14827806686E+04  0.14827806686E+04  0.00000000000E+00 0.  1.
          6    1    1    2  502    0  0.23479808055E+03 -0.64025691052E+02 -0.73202805255E+03  0.79058427600E+03  0.17300000000E+03 0.  1.
         -6    1    1    2    0  501 -0.23479808055E+03  0.64025691052E+02 -0.69057998653E+03  0.75236902219E+03  0.17300000000E+03 0. -1.
<mgrwt>
<rscale>  2 0.29859409E+03</rscale>
<asrwt>0</asrwt>
<pdfrwt beam="2">  1        2 0.22812008E+00 0.29859409E+03</pdfrwt>
<pdfrwt beam="1">  1       -2 0.92573287E-02 0.29859409E+03</pdfrwt>
<totfact> 0.10456941E+03</totfact>
</mgrwt>
</event>
<event>
 4    1  0.7691552E-001  0.1777361E+03  0.7546771E-02  0.1170012E+00
          1   -1    0    0  502    0  0.00000000000E+00  0.00000000000E+00  0.58810556312E+03  0.58810556312E+03  0.00000000000E+00 0. -1.
         -1   -1    0    0    0  501 -0.00000000000E+00 -0.00000000000E+00 -0.54862687578E+02  0.54862687578E+02  0.00000000000E+00 0.  1.
          6    1    1    2  502    0 -0.12006656695E+02  0.38948206224E+02  0.22012470273E+03  0.28292226375E+03  0.17300000000E+03 0.  1.
         -6    1    1    2    0  501  0.12006656695E+02 -0.38948206224E+02  0.31311817281E+03  0.36004598695E+03  0.17300000000E+03 0. -1.
<mgrwt>
<rscale>  2 0.17773610E+03</rscale>
<asrwt>0</asrwt>
<pdfrwt beam="1">  1        1 0.90477774E-01 0.17773610E+03</pdfrwt>
<pdfrwt beam="2">  1       -1 0.84404139E-02 0.17773610E+03</pdfrwt>
<totfact> 0.28272280E+03</totfact>
</mgrwt>
</event>
<event>
 4    1  0.7691552E-001  0.2011525E+03  0.7546771E-02  0.1148770E+00
         -1   -1    0    0    0  501 -0.00000000000E+00  0.00000000000E+00  0.54362787961E+02  0.54362787961E+02  0.00000000000E+00 0. -1.
          1   -1    0    0  502    0  0.00000000000E+00 -0.00000000000E+00 -0.76178316964E+03  0.76178316964E+03  0.00000000000E+00 0.  1.
          6    1    1    2  502    0 -0.79499945936E+02 -0.64908422549E+02 -0.41552669537E+03  0.46165439377E+03  0.17300000000E+03 0.  1.
         -6    1    1    2    0  501  0.79499945936E+02  0.64908422549E+02 -0.29189368632E+03  0.35449156384E+03  0.17300000000E+03 0.  1.
<mgrwt>
<rscale>  2 0.20115254E+03</rscale>
<asrwt>0</asrwt>
<pdfrwt beam="2">  1        1 0.11719740E+00 0.20115254E+03</pdfrwt>
<pdfrwt beam="1">  1       -1 0.83635068E-02 0.20115254E+03</pdfrwt>
<totfact> 0.19873622E+03</totfact>
</mgrwt>
</event>
<event>
 4    1  0.7691552E-001  0.2038025E+03  0.7546771E-02  0.1146570E+00
          2   -1    0    0  502    0  0.00000000000E+00  0.00000000000E+00  0.11791111463E+04  0.11791111463E+04  0.00000000000E+00 0.  1.
         -2   -1    0    0    0  501 -0.00000000000E+00 -0.00000000000E+00 -0.38034922151E+02  0.38034922151E+02  0.00000000000E+00 0. -1.
          6    1    1    2  502    0 -0.22309096948E+02 -0.10539811887E+03  0.40515719803E+03  0.45352818478E+03  0.17300000000E+03 0.  1.
         -6    1    1    2    0  501  0.22309096948E+02  0.10539811887E+03  0.73591902615E+03  0.76361788370E+03  0.17300000000E+03 0.  1.
<mgrwt>
<rscale>  2 0.20380250E+03</rscale>
<asrwt>0</asrwt>
<pdfrwt beam="1">  1        2 0.18140169E+00 0.20380250E+03</pdfrwt>
<pdfrwt beam="2">  1       -2 0.58515274E-02 0.20380250E+03</pdfrwt>
<totfact> 0.31451432E+03</totfact>
</mgrwt>
</event>
<event>
 4    1  0.7691552E-001  0.2216851E+03  0.7546771E-02  0.1132633E+00
          2   -1    0    0  502    0  0.00000000000E+00  0.00000000000E+00  0.66601801897E+03  0.66601801897E+03  0.00000000000E+00 0.  1.
         -2   -1    0    0    0  501 -0.00000000000E+00 -0.00000000000E+00 -0.75508378820E+02  0.75508378820E+02  0.00000000000E+00 0. -1.
          6    1    1    2  502    0  0.82387469946E+02 -0.11147909224E+03  0.35121556549E+03  0.41532716821E+03  0.17300000000E+03 0.  1.
         -6    1    1    2    0  501 -0.82387469946E+02  0.11147909224E+03  0.23929407466E+03  0.32619922958E+03  0.17300000000E+03 0.  1.
<mgrwt>
<rscale>  2 0.22168510E+03</rscale>
<asrwt>0</asrwt>
<pdfrwt beam="1">  1        2 0.10246431E+00 0.22168510E+03</pdfrwt>
<pdfrwt beam="2">  1       -2 0.11616674E-01 0.22168510E+03</pdfrwt>
<totfact> 0.23093854E+03</totfact>
</mgrwt>
</event>
<event>
 4    1  0.7691552E-001  0.4040708E+03  0.7546771E-02  0.1042379E+00
          2   -1    0    0  502    0  0.00000000000E+00  0.00000000000E+00  0.95522571378E+03  0.95522571378E+03  0.00000000000E+00 0.  1.
         -2   -1    0    0    0  501 -0.00000000000E+00 -0.00000000000E+00 -0.19550918220E+03  0.19550918220E+03  0.00000000000E+00 0. -1.
          6    1    1    2  502    0 -0.20416249233E+03 -0.30275710859E+03  0.58388081579E+03  0.71006337542E+03  0.17300000000E+03 0.  1.
         -6    1    1    2    0  501  0.20416249233E+03  0.30275710859E+03  0.17583571580E+03  0.44067152055E+03  0.17300000000E+03 0. -1.
<mgrwt>
<rscale>  2 0.40407077E+03</rscale>
<asrwt>0</asrwt>
<pdfrwt beam="1">  1        2 0.14695780E+00 0.40407077E+03</pdfrwt>
<pdfrwt beam="2">  1       -2 0.30078336E-01 0.40407077E+03</pdfrwt>
<totfact> 0.28340027E+02</totfact>
</mgrwt>
</event>
<event>
 4    1  0.7691552E-001  0.2097268E+03  0.7546771E-02  0.1141783E+00
         -2   -1    0    0    0  501 -0.00000000000E+00  0.00000000000E+00  0.12093253372E+03  0.12093253372E+03  0.00000000000E+00 0. -1.
          2   -1    0    0  502    0  0.00000000000E+00 -0.00000000000E+00 -0.42149789830E+03  0.42149789830E+03  0.00000000000E+00 0.  1.
          6    1    1    2  502    0  0.11850112408E+03 -0.37173202464E+01 -0.49866231240E+02  0.21557359740E+03  0.17300000000E+03 0. -1.
         -6    1    1    2    0  501 -0.11850112408E+03  0.37173202464E+01 -0.25069913335E+03  0.32685683462E+03  0.17300000000E+03 0. -1.
<mgrwt>
<rscale>  2 0.20972681E+03</rscale>
<asrwt>0</asrwt>
<pdfrwt beam="2">  1        2 0.64845831E-01 0.20972681E+03</pdfrwt>
<pdfrwt beam="1">  1       -2 0.18605005E-01 0.20972681E+03</pdfrwt>
<totfact> 0.17813602E+03</totfact>
</mgrwt>
</event>
<event>
 4    1  0.7691552E-001  0.1829528E+03  0.7546771E-02  0.1164975E+00
          2   -1    0    0  502    0  0.00000000000E+00  0.00000000000E+00  0.99838905827E+03  0.99838905827E+03  0.00000000000E+00 0.  1.
         -2   -1    0    0    0  501 -0.00000000000E+00 -0.00000000000E+00 -0.33571628869E+02  0.33571628869E+02  0.00000000000E+00 0. -1.
          6    1    1    2  502    0  0.54848026229E+02  0.23117855705E+02  0.46333405520E+03  0.49814675342E+03  0.17300000000E+03 0. -1.
         -6    1    1    2    0  501 -0.54848026229E+02 -0.23117855705E+02  0.50148337420E+03  0.53381393372E+03  0.17300000000E+03 0. -1.
<mgrwt>
<rscale>  2 0.18295284E+03</rscale>
<asrwt>0</asrwt>
<pdfrwt beam="1">  1        2 0.15359829E+00 0.18295284E+03</pdfrwt>
<pdfrwt beam="2">  1       -2 0.51648667E-02 0.18295284E+03</pdfrwt>
<totfact> 0.48385645E+03</totfact>
</mgrwt>
</event>
<event>
 4    1  0.7691552E-001  0.1865440E+03  0.7546771E-02  0.1161616E+00
          1   -1    0    0  502    0  0.00000000000E+00  0.00000000000E+00  0.46273749898E+02  0.46273749898E+02  0.00000000000E+00 0.  1.
         -1   -1    0    0    0  501 -0.00000000000E+00 -0.00000000000E+00 -0.77110461669E+03  0.77110461669E+03  0.00000000000E+00 0. -1.
          6    1    1    2  502    0  0.68324174643E+02  0.14193592858E+02 -0.42671547839E+03  0.46570886874E+03  0.17300000000E+03 0. -1.
         -6    1    1    2    0  501 -0.68324174643E+02 -0.14193592858E+02 -0.29811538840E+03  0.35166949785E+03  0.17300000000E+03 0. -1.
<mgrwt>
<rscale>  2 0.18654397E+03</rscale>
<asrwt>0</asrwt>
<pdfrwt beam="1">  1        1 0.71190382E-02 0.18654397E+03</pdfrwt>
<pdfrwt beam="2">  1       -1 0.11863148E+00 0.18654397E+03</pdfrwt>
<totfact> 0.69064375E+02</totfact>
</mgrwt>
</event>
<event>
 4    1  0.7691552E-001  0.1954747E+03  0.7546771E-02  0.1153614E+00
          2   -1    0    0  502    0  0.00000000000E+00  0.00000000000E+00  0.44901356206E+02  0.44901356206E+02  0.00000000000E+00 0.  1.
         -2   -1    0    0    0  501 -0.00000000000E+00 -0.00000000000E+00 -0.12294374523E+04  0.12294374523E+04  0.00000000000E+00 0. -1.
          6    1    1    2  502    0 -0.81293879832E+02 -0.40898441611E+02 -0.23875341382E+03  0.30856696200E+03  0.17300000000E+03 0.  1.
         -6    1    1    2    0  501  0.81293879832E+02  0.40898441611E+02 -0.94578268225E+03  0.96577184649E+03  0.17300000000E+03 0. -1.
<mgrwt>
<rscale>  2 0.19547475E+03</rscale>
<asrwt>0</asrwt>
<pdfrwt beam="1">  1        2 0.69079010E-02 0.19547475E+03</pdfrwt>
<pdfrwt beam="2">  1       -2 0.18914422E+00 0.19547475E+03</pdfrwt>
<totfact> 0.17395914E+02</totfact>
</mgrwt>
</event>
<event>
 4    1  0.7691552E-001  0.1811835E+03  0.7546771E-02  0.1166663E+00
          2   -1    0    0  502    0  0.00000000000E+00  0.00000000000E+00  0.36867870983E+03  0.36867870983E+03  0.00000000000E+00 0. -1.
         -2   -1    0    0    0  501 -0.00000000000E+00 -0.00000000000E+00 -0.98398834094E+02  0.98398834094E+02  0.00000000000E+00 0.  1.
          6    1    1    2  502    0 -0.51611039151E+02  0.15321988047E+02  0.63119566355E+02  0.19186334287E+03  0.17300000000E+03 0.  1.
         -6    1    1    2    0  501  0.51611039151E+02 -0.15321988047E+02  0.20716030938E+03  0.27521420106E+03  0.17300000000E+03 0.  1.
<mgrwt>
<rscale>  2 0.18118351E+03</rscale>
<asrwt>0</asrwt>
<pdfrwt beam="1">  1        2 0.56719801E-01 0.18118351E+03</pdfrwt>
<pdfrwt beam="2">  1       -2 0.15138282E-01 0.18118351E+03</pdfrwt>
<totfact> 0.28919578E+03</totfact>
</mgrwt>
</event>
<event>
 4    1  0.7691552E-001  0.3877914E+03  0.7546771E-02  0.1048091E+00
          2   -1    0    0  502    0  0.00000000000E+00  0.00000000000E+00  0.95791814458E+03  0.95791814458E+03  0.00000000000E+00 0.  1.
         -2   -1    0    0    0  501 -0.00000000000E+00 -0.00000000000E+00 -0.16468177721E+03  0.16468177721E+03  0.00000000000E+00 0. -1.
          6    1    1    2  502    0  0.27888110542E+03  0.20658776488E+03  0.51793658131E+03  0.64702432552E+03  0.17300000000E+03 0.  1.
         -6    1    1    2    0  501 -0.27888110542E+03 -0.20658776488E+03  0.27529978607E+03  0.47557559627E+03  0.17300000000E+03 0. -1.
<mgrwt>
<rscale>  2 0.38779141E+03</rscale>
<asrwt>0</asrwt>
<pdfrwt beam="1">  1        2 0.14737202E+00 0.38779141E+03</pdfrwt>
<pdfrwt beam="2">  1       -2 0.25335659E-01 0.38779141E+03</pdfrwt>
<totfact> 0.38573790E+02</totfact>
</mgrwt>
</event>
<event>
 4    1  0.7691552E-001  0.1731439E+03  0.7546771E-02  0.1174608E+00
          1   -1    0    0  502    0  0.00000000000E+00  0.00000000000E+00  0.23191903878E+04  0.23191903878E+04  0.00000000000E+00 0. -1.
         -1   -1    0    0    0  501 -0.00000000000E+00 -0.00000000000E+00 -0.17398812798E+02  0.17398812798E+02  0.00000000000E+00 0.  1.
          6    1    1    2  502    0 -0.54474589241E+01  0.44886615489E+01  0.55856724613E+03  0.58478730436E+03  0.17300000000E+03 0.  1.
         -6    1    1    2    0  501  0.54474589241E+01 -0.44886615489E+01  0.17432243288E+04  0.17518018962E+04  0.17300000000E+03 0. -1.
<mgrwt>
<rscale>  2 0.17314394E+03</rscale>
<asrwt>0</asrwt>
<pdfrwt beam="1">  1        1 0.35679828E+00 0.17314394E+03</pdfrwt>
<pdfrwt beam="2">  1       -1 0.26767423E-02 0.17314394E+03</pdfrwt>
<totfact> 0.94348592E+02</totfact>
</mgrwt>
</event>
<event>
 4    1  0.7691552E-001  0.1752835E+03  0.7546771E-02  0.1172447E+00
         -2   -1    0    0    0  501 -0.00000000000E+00  0.00000000000E+00  0.36763565336E+02  0.36763565336E+02  0.00000000000E+00 0. -1.
          2   -1    0    0  502    0  0.00000000000E+00 -0.00000000000E+00 -0.83580129693E+03  0.83580129693E+03  0.00000000000E+00 0.  1.
          6    1    1    2  502    0  0.14245067186E+02  0.24339034487E+02 -0.39541025922E+03  0.43252003842E+03  0.17300000000E+03 0.  1.
         -6    1    1    2    0  501 -0.14245067186E+02 -0.24339034487E+02 -0.40362747238E+03  0.44004482385E+03  0.17300000000E+03 0. -1.
<mgrwt>
<rscale>  2 0.17528351E+03</rscale>
<asrwt>0</asrwt>
<pdfrwt beam="2">  1        2 0.12858481E+00 0.17528351E+03</pdfrwt>
<pdfrwt beam="1">  1       -2 0.56559333E-02 0.17528351E+03</pdfrwt>
<totfact> 0.53343525E+03</totfact>
</mgrwt>
</event>
<event>
 4    1  0.7691552E-001  0.1865590E+03  0.7546771E-02  0.1161602E+00
         -2   -1    0    0    0  501 -0.00000000000E+00  0.00000000000E+00  0.14877471906E+02  0.14877471906E+02  0.00000000000E+00 0. -1.
          2   -1    0    0  502    0  0.00000000000E+00 -0.00000000000E+00 -0.26211176634E+04  0.26211176634E+04  0.00000000000E+00 0.  1.
          6    1    1    2  502    0 -0.12665862401E+02 -0.68664560296E+02 -0.17352200146E+04  0.17452199704E+04  0.17300000000E+03 0.  1.
         -6    1    1    2    0  501  0.12665862401E+02  0.68664560296E+02 -0.87102017690E+03  0.89077516494E+03  0.17300000000E+03 0.  1.
<mgrwt>
<rscale>  2 0.18655896E+03</rscale>
<asrwt>0</asrwt>
<pdfrwt beam="2">  1        2 0.40324894E+00 0.18655896E+03</pdfrwt>
<pdfrwt beam="1">  1       -2 0.22888414E-02 0.18655896E+03</pdfrwt>
<totfact> 0.21966294E+03</totfact>
</mgrwt>
</event>
<event>
 4    1  0.7691552E-001  0.3147394E+03  0.7546771E-02  0.1078096E+00
         -2   -1    0    0    0  501 -0.00000000000E+00  0.00000000000E+00  0.14056925175E+03  0.14056925175E+03  0.00000000000E+00 0. -1.
          2   -1    0    0  502    0  0.00000000000E+00 -0.00000000000E+00 -0.71300962304E+03  0.71300962304E+03  0.00000000000E+00 0.  1.
          6    1    1    2  502    0  0.24109743804E+03 -0.10489959520E+03 -0.24018059753E+03  0.39591365111E+03  0.17300000000E+03 0. -1.
         -6    1    1    2    0  501 -0.24109743804E+03  0.10489959520E+03 -0.33225977377E+03  0.45766522368E+03  0.17300000000E+03 0.  1.
<mgrwt>
<rscale>  2 0.31473942E+03</rscale>
<asrwt>0</asrwt>
<pdfrwt beam="2">  1        2 0.10969379E+00 0.31473942E+03</pdfrwt>
<pdfrwt beam="1">  1       -2 0.21626038E-01 0.31473942E+03</pdfrwt>
<totfact> 0.75417673E+02</totfact>
</mgrwt>
</event>
<event>
 4    1  0.7691552E-001  0.1755071E+03  0.7546771E-02  0.1172223E+00
         -2   -1    0    0    0  501 -0.00000000000E+00  0.00000000000E+00  0.20356202822E+02  0.20356202822E+02  0.00000000000E+00 0.  1.
          2   -1    0    0  502    0  0.00000000000E+00 -0.00000000000E+00 -0.15214703504E+04  0.15214703504E+04  0.00000000000E+00 0. -1.
          6    1    1    2  502    0  0.16507924060E+02 -0.24520261201E+02 -0.80743708638E+03  0.82629135492E+03  0.17300000000E+03 0. -1.
         -6    1    1    2    0  501 -0.16507924060E+02  0.24520261201E+02 -0.69367706122E+03  0.71553519832E+03  0.17300000000E+03 0.  1.
<mgrwt>
<rscale>  2 0.17550714E+03</rscale>
<asrwt>0</asrwt>
<pdfrwt beam="2">  1        2 0.23407246E+00 0.17550714E+03</pdfrwt>
<pdfrwt beam="1">  1       -2 0.31317222E-02 0.17550714E+03</pdfrwt>
<totfact> 0.52337018E+03</totfact>
</mgrwt>
</event>
<event>
 4    1  0.7691552E-001  0.2310165E+03  0.7546771E-02  0.1125926E+00
         -2   -1    0    0    0  501 -0.00000000000E+00  0.00000000000E+00  0.16684192365E+02  0.16684192365E+02  0.00000000000E+00 0.  1.
          2   -1    0    0  502    0  0.00000000000E+00 -0.00000000000E+00 -0.32218527380E+04  0.32218527380E+04  0.00000000000E+00 0. -1.
          6    1    1    2  502    0 -0.38897349594E+02 -0.14807637773E+03 -0.14654753999E+04  0.14835722986E+04  0.17300000000E+03 0.  1.
         -6    1    1    2    0  501  0.38897349594E+02  0.14807637773E+03 -0.17396931457E+04  0.17549646318E+04  0.17300000000E+03 0. -1.
<mgrwt>
<rscale>  2 0.23101649E+03</rscale>
<asrwt>0</asrwt>
<pdfrwt beam="2">  1        2 0.49566940E+00 0.23101649E+03</pdfrwt>
<pdfrwt beam="1">  1       -2 0.25668002E-02 0.23101649E+03</pdfrwt>
<totfact> 0.82411359E+02</totfact>
</mgrwt>
</event>
<event>
 4    1  0.7691552E-001  0.1916373E+03  0.7546771E-02  0.1156993E+00
         -1   -1    0    0    0  501 -0.00000000000E+00  0.00000000000E+00  0.53037493263E+03  0.53037493263E+03  0.00000000000E+00 0.  1.
          1   -1    0    0  502    0  0.00000000000E+00 -0.00000000000E+00 -0.72153757394E+02  0.72153757394E+02  0.00000000000E+00 0. -1.
          6    1    1    2  502    0  0.82312169604E+02 -0.45348398016E+01  0.28961767847E+03  0.34727979746E+03  0.17300000000E+03 0.  1.
         -6    1    1    2    0  501 -0.82312169604E+02  0.45348398016E+01  0.16860349677E+03  0.25524889257E+03  0.17300000000E+03 0. -1.
<mgrwt>
<rscale>  2 0.19163731E+03</rscale>
<asrwt>0</asrwt>
<pdfrwt beam="2">  1        1 0.11100578E-01 0.19163731E+03</pdfrwt>
<pdfrwt beam="1">  1       -1 0.81596141E-01 0.19163731E+03</pdfrwt>
<totfact> 0.86781715E+02</totfact>
</mgrwt>
</event>
<event>
 4    1  0.7691552E-001  0.1936524E+03  0.7546771E-02  0.1155208E+00
          1   -1    0    0  502    0  0.00000000000E+00  0.00000000000E+00  0.13262705567E+04  0.13262705567E+04  0.00000000000E+00 0. -1.
         -1   -1    0    0    0  501 -0.00000000000E+00 -0.00000000000E+00 -0.47279620553E+02  0.47279620553E+02  0.00000000000E+00 0.  1.
          6    1    1    2  502    0  0.85994658377E+02 -0.13310800436E+02  0.20408498156E+03  0.28133954286E+03  0.17300000000E+03 0.  1.
         -6    1    1    2    0  501 -0.85994658377E+02  0.13310800436E+02  0.10749059546E+04  0.10922106344E+04  0.17300000000E+03 0.  1.
<mgrwt>
<rscale>  2 0.19365242E+03</rscale>
<asrwt>0</asrwt>
<pdfrwt beam="1">  1        1 0.20404160E+00 0.19365242E+03</pdfrwt>
<pdfrwt beam="2">  1       -1 0.72737888E-02 0.19365242E+03</pdfrwt>
<totfact> 0.93887330E+02</totfact>
</mgrwt>
</event>
<event>
 4    1  0.7691552E-001  0.1805822E+03  0.7546771E-02  0.1167241E+00
          2   -1    0    0  502    0  0.00000000000E+00  0.00000000000E+00  0.82580916918E+02  0.82580916918E+02  0.00000000000E+00 0. -1.
         -2   -1    0    0    0  501 -0.00000000000E+00 -0.00000000000E+00 -0.40950839261E+03  0.40950839261E+03  0.00000000000E+00 0.  1.
          6    1    1    2  502    0  0.36992332304E+02  0.36228235137E+02 -0.11696778208E+03  0.21515431605E+03  0.17300000000E+03 0. -1.
         -6    1    1    2    0  501 -0.36992332304E+02 -0.36228235137E+02 -0.20995969362E+03  0.27693499348E+03  0.17300000000E+03 0. -1.
<mgrwt>
<rscale>  2 0.18058216E+03</rscale>
<asrwt>0</asrwt>
<pdfrwt beam="1">  1        2 0.12704756E-01 0.18058216E+03</pdfrwt>
<pdfrwt beam="2">  1       -2 0.63001292E-01 0.18058216E+03</pdfrwt>
<totfact> 0.11225741E+03</totfact>
</mgrwt>
</event>
<event>
 4    1  0.7691552E-001  0.1831189E+03  0.7546771E-02  0.1164818E+00
         -1   -1    0    0    0  501 -0.00000000000E+00  0.00000000000E+00  0.18252184390E+03  0.18252184390E+03  0.00000000000E+00 0. -1.
          1   -1    0    0  502    0  0.00000000000E+00 -0.00000000000E+00 -0.36581895650E+03  0.36581895650E+03  0.00000000000E+00 0.  1.
          6    1    1    2  502    0 -0.28686064706E+02 -0.52731663958E+02  0.10179032345E+03  0.20950844527E+03  0.17300000000E+03 0. -1.
         -6    1    1    2    0  501  0.28686064706E+02  0.52731663958E+02 -0.28508743605E+03  0.33883235513E+03  0.17300000000E+03 0.  1.
<mgrwt>
<rscale>  2 0.18311886E+03</rscale>
<asrwt>0</asrwt>
<pdfrwt beam="2">  1        1 0.56279839E-01 0.18311886E+03</pdfrwt>
<pdfrwt beam="1">  1       -1 0.28080284E-01 0.18311886E+03</pdfrwt>
<totfact> 0.77949256E+02</totfact>
</mgrwt>
</event>
<event>
 4    1  0.7691552E-001  0.1758186E+03  0.7546771E-02  0.1171912E+00
          2   -1    0    0  502    0  0.00000000000E+00  0.00000000000E+00  0.29080593036E+04  0.29080593036E+04  0.00000000000E+00 0.  1.
         -2   -1    0    0    0  501 -0.00000000000E+00 -0.00000000000E+00 -0.11207226880E+02  0.11207226880E+02  0.00000000000E+00 0. -1.
          6    1    1    2  502    0 -0.26202001167E+02  0.17222972624E+02  0.11171180287E+04  0.11308690754E+04  0.17300000000E+03 0. -1.
         -6    1    1    2    0  501  0.26202001167E+02 -0.17222972624E+02  0.17797340481E+04  0.17883974551E+04  0.17300000000E+03 0.  1.
<mgrwt>
<rscale>  2 0.17581859E+03</rscale>
<asrwt>0</asrwt>
<pdfrwt beam="1">  1        2 0.44739314E+00 0.17581859E+03</pdfrwt>
<pdfrwt beam="2">  1       -2 0.17241911E-02 0.17581859E+03</pdfrwt>
<totfact> 0.22975647E+03</totfact>
</mgrwt>
</event>
<event>
 4    1  0.7691552E-001  0.1874048E+03  0.7546771E-02  0.1160823E+00
          2   -1    0    0  502    0  0.00000000000E+00  0.00000000000E+00  0.15708171432E+04  0.15708171432E+04  0.00000000000E+00 0. -1.
         -2   -1    0    0    0  501 -0.00000000000E+00 -0.00000000000E+00 -0.33310957879E+02  0.33310957879E+02  0.00000000000E+00 0.  1.
          6    1    1    2  502    0 -0.69952592992E+02 -0.17268260701E+02  0.12286688788E+04  0.12428788243E+04  0.17300000000E+03 0. -1.
         -6    1    1    2    0  501  0.69952592992E+02  0.17268260701E+02  0.30883730652E+03  0.36124927681E+03  0.17300000000E+03 0.  1.
<mgrwt>
<rscale>  2 0.18740480E+03</rscale>
<asrwt>0</asrwt>
<pdfrwt beam="1">  1        2 0.24166412E+00 0.18740480E+03</pdfrwt>
<pdfrwt beam="2">  1       -2 0.51247640E-02 0.18740480E+03</pdfrwt>
<totfact> 0.23601754E+03</totfact>
</mgrwt>
</event>
<event>
 4    1  0.7691552E-001  0.2268631E+03  0.7546771E-02  0.1128867E+00
         -2   -1    0    0    0  501 -0.00000000000E+00  0.00000000000E+00  0.92985370494E+02  0.92985370494E+02  0.00000000000E+00 0. -1.
          2   -1    0    0  502    0  0.00000000000E+00 -0.00000000000E+00 -0.89591767348E+03  0.89591767348E+03  0.00000000000E+00 0.  1.
          6    1    1    2  502    0  0.12041495941E+03  0.83893395304E+02 -0.95783055235E+02  0.24625445762E+03  0.17300000000E+03 0. -1.
         -6    1    1    2    0  501 -0.12041495941E+03 -0.83893395304E+02 -0.70714924775E+03  0.74264858635E+03  0.17300000000E+03 0.  1.
<mgrwt>
<rscale>  2 0.22686310E+03</rscale>
<asrwt>0</asrwt>
<pdfrwt beam="2">  1        2 0.13783349E+00 0.22686310E+03</pdfrwt>
<pdfrwt beam="1">  1       -2 0.14305442E-01 0.22686310E+03</pdfrwt>
<totfact> 0.11343575E+03</totfact>
</mgrwt>
</event>
<event>
 4    1  0.7691552E-001  0.1862992E+03  0.7546771E-02  0.1161842E+00
          2   -1    0    0  502    0  0.00000000000E+00  0.00000000000E+00  0.57268916563E+03  0.57268916563E+03  0.00000000000E+00 0.  1.
         -2   -1    0    0    0  501 -0.00000000000E+00 -0.00000000000E+00 -0.62355649623E+02  0.62355649623E+02  0.00000000000E+00 0. -1.
          6    1    1    2  502    0 -0.14501324456E+02 -0.67587700450E+02  0.20195205599E+03  0.27475810922E+03  0.17300000000E+03 0. -1.
         -6    1    1    2    0  501  0.14501324456E+02  0.67587700450E+02  0.30838146001E+03  0.36028670603E+03  0.17300000000E+03 0. -1.
<mgrwt>
<rscale>  2 0.18629918E+03</rscale>
<asrwt>0</asrwt>
<pdfrwt beam="1">  1        2 0.88106022E-01 0.18629918E+03</pdfrwt>
<pdfrwt beam="2">  1       -2 0.95931772E-02 0.18629918E+03</pdfrwt>
<totfact> 0.37172605E+03</totfact>
</mgrwt>
</event>
<event>
 4    1  0.7691552E-001  0.1839149E+03  0.7546771E-02  0.1164067E+00
         -1   -1    0    0    0  501 -0.00000000000E+00  0.00000000000E+00  0.33852662801E+02  0.33852662801E+02  0.00000000000E+00 0. -1.
          1   -1    0    0  502    0  0.00000000000E+00 -0.00000000000E+00 -0.10733297853E+04  0.10733297853E+04  0.00000000000E+00 0.  1.
          6    1    1    2  502    0 -0.36456973133E+02 -0.50661280345E+02 -0.37422709199E+03  0.41697792819E+03  0.17300000000E+03 0. -1.
         -6    1    1    2    0  501  0.36456973133E+02  0.50661280345E+02 -0.66525003050E+03  0.69020451991E+03  0.17300000000E+03 0.  1.
<mgrwt>
<rscale>  2 0.18391486E+03</rscale>
<asrwt>0</asrwt>
<pdfrwt beam="2">  1        1 0.16512763E+00 0.18391486E+03</pdfrwt>
<pdfrwt beam="1">  1       -1 0.52081029E-02 0.18391486E+03</pdfrwt>
<totfact> 0.23241092E+03</totfact>
</mgrwt>
</event>
<event>
 4    1  0.7691552E-001  0.1891908E+03  0.7546771E-02  0.1159193E+00
          1   -1    0    0  502    0  0.00000000000E+00  0.00000000000E+00  0.10692316474E+04  0.10692316474E+04  0.00000000000E+00 0.  1.
         -1   -1    0    0    0  501 -0.00000000000E+00 -0.00000000000E+00 -0.34329799147E+02  0.34329799147E+02  0.00000000000E+00 0. -1.
          6    1    1    2  502    0 -0.71161388733E+02  0.28288324589E+02  0.60448915900E+03  0.63340375426E+03  0.17300000000E+03 0. -1.
         -6    1    1    2    0  501  0.71161388733E+02 -0.28288324589E+02  0.43041268928E+03  0.47015769232E+03  0.17300000000E+03 0. -1.
<mgrwt>
<rscale>  2 0.18919084E+03</rscale>
<asrwt>0</asrwt>
<pdfrwt beam="1">  1        1 0.16449715E+00 0.18919084E+03</pdfrwt>
<pdfrwt beam="2">  1       -1 0.52815084E-02 0.18919084E+03</pdfrwt>
<totfact> 0.22924192E+03</totfact>
</mgrwt>
</event>
<event>
 4    1  0.7691552E-001  0.2461223E+03  0.7546771E-02  0.1115780E+00
          1   -1    0    0  502    0  0.00000000000E+00  0.00000000000E+00  0.28661346915E+03  0.28661346915E+03  0.00000000000E+00 0.  1.
         -1   -1    0    0    0  501 -0.00000000000E+00 -0.00000000000E+00 -0.22240620881E+03  0.22240620881E+03  0.00000000000E+00 0. -1.
          6    1    1    2  502    0 -0.10975280675E+03 -0.13638729829E+03  0.88845763559E+02  0.26166723797E+03  0.17300000000E+03 0.  1.
         -6    1    1    2    0  501  0.10975280675E+03  0.13638729829E+03 -0.24638503216E+02  0.24735243998E+03  0.17300000000E+03 0. -1.
<mgrwt>
<rscale>  2 0.24612227E+03</rscale>
<asrwt>0</asrwt>
<pdfrwt beam="1">  1        1 0.44094380E-01 0.24612227E+03</pdfrwt>
<pdfrwt beam="2">  1       -1 0.34216340E-01 0.24612227E+03</pdfrwt>
<totfact> 0.75742295E+02</totfact>
</mgrwt>
</event>
<event>
 4    1  0.7691552E-001  0.2106084E+03  0.7546771E-02  0.1141085E+00
         -4   -1    0    0    0  501 -0.00000000000E+00  0.00000000000E+00  0.21265624582E+04  0.21265624582E+04  0.00000000000E+00 0. -1.
          4   -1    0    0  502    0  0.00000000000E+00 -0.00000000000E+00 -0.21781469027E+02  0.21781469027E+02  0.00000000000E+00 0.  1.
          6    1    1    2  502    0  0.10546729147E+03 -0.57476412155E+02  0.12735655344E+04  0.12908621375E+04  0.17300000000E+03 0. -1.
         -6    1    1    2    0  501 -0.10546729147E+03  0.57476412155E+02  0.83121545477E+03  0.85748178976E+03  0.17300000000E+03 0.  1.
<mgrwt>
<rscale>  2 0.21060837E+03</rscale>
<asrwt>0</asrwt>
<pdfrwt beam="2">  1        4 0.33509969E-02 0.21060837E+03</pdfrwt>
<pdfrwt beam="1">  1       -4 0.32716329E+00 0.21060837E+03</pdfrwt>
<totfact> 0.20642652E+01</totfact>
</mgrwt>
</event>
<event>
 4    1  0.7691552E-001  0.2212284E+03  0.7546771E-02  0.1132971E+00
          1   -1    0    0  502    0  0.00000000000E+00  0.00000000000E+00  0.10923662717E+04  0.10923662717E+04  0.00000000000E+00 0.  1.
         -1   -1    0    0    0  501 -0.00000000000E+00 -0.00000000000E+00 -0.11046837482E+03  0.11046837482E+03  0.00000000000E+00 0. -1.
          6    1    1    2  502    0  0.12127706355E+03 -0.65611429107E+02  0.27263948775E+02  0.22290201586E+03  0.17300000000E+03 0. -1.
         -6    1    1    2    0  501 -0.12127706355E+03  0.65611429107E+02  0.95463394811E+03  0.97993263067E+03  0.17300000000E+03 0.  1.
<mgrwt>
<rscale>  2 0.22122836E+03</rscale>
<asrwt>0</asrwt>
<pdfrwt beam="1">  1        1 0.16805634E+00 0.22122836E+03</pdfrwt>
<pdfrwt beam="2">  1       -1 0.16995135E-01 0.22122836E+03</pdfrwt>
<totfact> 0.36385266E+02</totfact>
</mgrwt>
</event>
<event>
 4    1  0.7691552E-001  0.2472463E+03  0.7546771E-02  0.1115058E+00
         -1   -1    0    0    0  501 -0.00000000000E+00  0.00000000000E+00  0.67266636367E+02  0.67266636367E+02  0.00000000000E+00 0.  1.
          1   -1    0    0  502    0  0.00000000000E+00 -0.00000000000E+00 -0.12234279966E+04  0.12234279966E+04  0.00000000000E+00 0. -1.
          6    1    1    2  502    0  0.85701169448E+02 -0.15445731501E+03 -0.90535727817E+03  0.93851081706E+03  0.17300000000E+03 0. -1.
         -6    1    1    2    0  501 -0.85701169448E+02  0.15445731501E+03 -0.25080408205E+03  0.35218381590E+03  0.17300000000E+03 0.  1.
<mgrwt>
<rscale>  2 0.24724634E+03</rscale>
<asrwt>0</asrwt>
<pdfrwt beam="2">  1        1 0.18821969E+00 0.24724634E+03</pdfrwt>
<pdfrwt beam="1">  1       -1 0.10348713E-01 0.24724634E+03</pdfrwt>
<totfact> 0.64012208E+02</totfact>
</mgrwt>
</event>
<event>
 4    1  0.7691552E-001  0.2301606E+03  0.7546771E-02  0.1126527E+00
          2   -1    0    0  502    0  0.00000000000E+00  0.00000000000E+00  0.44749620153E+03  0.44749620153E+03  0.00000000000E+00 0. -1.
         -2   -1    0    0    0  501 -0.00000000000E+00 -0.00000000000E+00 -0.12124980597E+03  0.12124980597E+03  0.00000000000E+00 0.  1.
          6    1    1    2  502    0 -0.13999220628E+03 -0.58711991662E+02  0.11936193704E+03  0.25927049157E+03  0.17300000000E+03 0. -1.
         -6    1    1    2    0  501  0.13999220628E+03  0.58711991662E+02  0.20688445852E+03  0.30947551593E+03  0.17300000000E+03 0.  1.
<mgrwt>
<rscale>  2 0.23016063E+03</rscale>
<asrwt>0</asrwt>
<pdfrwt beam="1">  1        2 0.68845569E-01 0.23016063E+03</pdfrwt>
<pdfrwt beam="2">  1       -2 0.18653816E-01 0.23016063E+03</pdfrwt>
<totfact> 0.16641328E+03</totfact>
</mgrwt>
</event>
<event>
 4    1  0.7691552E-001  0.2090078E+03  0.7546771E-02  0.1142354E+00
         -3   -1    0    0    0  501 -0.00000000000E+00  0.00000000000E+00  0.87442109815E+02  0.87442109815E+02  0.00000000000E+00 0.  1.
          3   -1    0    0  502    0  0.00000000000E+00 -0.00000000000E+00 -0.59292551125E+03  0.59292551125E+03  0.00000000000E+00 0. -1.
          6    1    1    2  502    0 -0.41841895761E+02  0.10956509453E+03 -0.38771948318E+03  0.44046640260E+03  0.17300000000E+03 0.  1.
         -6    1    1    2    0  501  0.41841895761E+02 -0.10956509453E+03 -0.11776391825E+03  0.23990121847E+03  0.17300000000E+03 0.  1.
<mgrwt>
<rscale>  2 0.20900778E+03</rscale>
<asrwt>0</asrwt>
<pdfrwt beam="2">  1        3 0.91219311E-01 0.20900778E+03</pdfrwt>
<pdfrwt beam="1">  1       -3 0.13452632E-01 0.20900778E+03</pdfrwt>
<totfact> 0.12250040E+02</totfact>
</mgrwt>
</event>
<event>
 4    1  0.7691552E-001  0.1773120E+03  0.7546771E-02  0.1170430E+00
          2   -1    0    0  502    0  0.00000000000E+00  0.00000000000E+00  0.19179259751E+04  0.19179259751E+04  0.00000000000E+00 0.  1.
         -2   -1    0    0    0  501 -0.00000000000E+00 -0.00000000000E+00 -0.19823202184E+02  0.19823202184E+02  0.00000000000E+00 0. -1.
          6    1    1    2  502    0 -0.33496494250E+02  0.19711188602E+02  0.54598739609E+03  0.57405729920E+03  0.17300000000E+03 0. -1.
         -6    1    1    2    0  501  0.33496494250E+02 -0.19711188602E+02  0.13521153769E+04  0.13636918781E+04  0.17300000000E+03 0.  1.
<mgrwt>
<rscale>  2 0.17731200E+03</rscale>
<asrwt>0</asrwt>
<pdfrwt beam="1">  1        2 0.29506539E+00 0.17731200E+03</pdfrwt>
<pdfrwt beam="2">  1       -2 0.30497249E-02 0.17731200E+03</pdfrwt>
<totfact> 0.33902571E+03</totfact>
</mgrwt>
</event>
<event>
 4    1  0.7691552E-001  0.1968931E+03  0.7546771E-02  0.1152387E+00
         -2   -1    0    0    0  501 -0.00000000000E+00  0.00000000000E+00  0.59751627320E+03  0.59751627320E+03  0.00000000000E+00 0.  1.
          2   -1    0    0  502    0  0.00000000000E+00 -0.00000000000E+00 -0.67414714108E+02  0.67414714108E+02  0.00000000000E+00 0. -1.
          6    1    1    2  502    0 -0.37092460514E+01  0.93936797453E+02  0.32951670029E+03  0.38385952664E+03  0.17300000000E+03 0.  1.
         -6    1    1    2    0  501  0.37092460514E+01 -0.93936797453E+02  0.20058485880E+03  0.28107146067E+03  0.17300000000E+03 0. -1.
<mgrwt>
<rscale>  2 0.19689307E+03</rscale>
<asrwt>0</asrwt>
<pdfrwt beam="2">  1        2 0.10371495E-01 0.19689307E+03</pdfrwt>
<pdfrwt beam="1">  1       -2 0.91925577E-01 0.19689307E+03</pdfrwt>
<totfact> 0.63331633E+02</totfact>
</mgrwt>
</event>
<event>
 4    1  0.7691552E-001  0.2253665E+03  0.7546771E-02  0.1129944E+00
         -3   -1    0    0    0  501 -0.00000000000E+00  0.00000000000E+00  0.84719530161E+02  0.84719530161E+02  0.00000000000E+00 0.  1.
          3   -1    0    0  502    0  0.00000000000E+00 -0.00000000000E+00 -0.60228729267E+03  0.60228729267E+03  0.00000000000E+00 0. -1.
          6    1    1    2  502    0  0.77229921336E+02  0.12205170424E+03 -0.28211612639E+03  0.36108113773E+03  0.17300000000E+03 0. -1.
         -6    1    1    2    0  501 -0.77229921336E+02 -0.12205170424E+03 -0.23545163612E+03  0.32592568510E+03  0.17300000000E+03 0.  1.
<mgrwt>
<rscale>  2 0.22536654E+03</rscale>
<asrwt>0</asrwt>
<pdfrwt beam="2">  1        3 0.92659580E-01 0.22536654E+03</pdfrwt>
<pdfrwt beam="1">  1       -3 0.13033774E-01 0.22536654E+03</pdfrwt>
<totfact> 0.12568209E+02</totfact>
</mgrwt>
</event>
<event>
 4    1  0.7691552E-001  0.1797013E+03  0.7546771E-02  0.1168092E+00
         -2   -1    0    0    0  501 -0.00000000000E+00  0.00000000000E+00  0.21702050884E+02  0.21702050884E+02  0.00000000000E+00 0.  1.
          2   -1    0    0  502    0  0.00000000000E+00 -0.00000000000E+00 -0.24514464047E+04  0.24514464047E+04  0.00000000000E+00 0. -1.
          6    1    1    2  502    0  0.29639634213E+02  0.38536557529E+02 -0.43965466474E+03  0.47496189154E+03  0.17300000000E+03 0.  1.
         -6    1    1    2    0  501 -0.29639634213E+02 -0.38536557529E+02 -0.19900896891E+04  0.19981865641E+04  0.17300000000E+03 0. -1.
<mgrwt>
<rscale>  2 0.17970135E+03</rscale>
<asrwt>0</asrwt>
<pdfrwt beam="2">  1        2 0.37714557E+00 0.17970135E+03</pdfrwt>
<pdfrwt beam="1">  1       -2 0.33387774E-02 0.17970135E+03</pdfrwt>
<totfact> 0.15564392E+03</totfact>
</mgrwt>
</event>
<event>
 4    1  0.7691552E-001  0.1796752E+03  0.7546771E-02  0.1168118E+00
          2   -1    0    0  502    0  0.00000000000E+00  0.00000000000E+00  0.94075609976E+03  0.94075609976E+03  0.00000000000E+00 0. -1.
         -2   -1    0    0    0  501 -0.00000000000E+00 -0.00000000000E+00 -0.50302861243E+02  0.50302861243E+02  0.00000000000E+00 0.  1.
          6    1    1    2  502    0  0.12374288529E+02 -0.46915427558E+02  0.16587451061E+03  0.24453534229E+03  0.17300000000E+03 0.  1.
         -6    1    1    2    0  501 -0.12374288529E+02  0.46915427558E+02  0.72457872790E+03  0.74652361871E+03  0.17300000000E+03 0. -1.
<mgrwt>
<rscale>  2 0.17967521E+03</rscale>
<asrwt>0</asrwt>
<pdfrwt beam="1">  1        2 0.14473169E+00 0.17967521E+03</pdfrwt>
<pdfrwt beam="2">  1       -2 0.77389025E-02 0.17967521E+03</pdfrwt>
<totfact> 0.28238121E+03</totfact>
</mgrwt>
</event>
<event>
 4    1  0.7691552E-001  0.2247545E+03  0.7546771E-02  0.1130387E+00
          2   -1    0    0  502    0  0.00000000000E+00  0.00000000000E+00  0.18618750991E+04  0.18618750991E+04  0.00000000000E+00 0.  1.
         -2   -1    0    0    0  501 -0.00000000000E+00 -0.00000000000E+00 -0.27165921234E+02  0.27165921234E+02  0.00000000000E+00 0. -1.
          6    1    1    2  502    0 -0.11676605430E+03 -0.83374275800E+02  0.95120653431E+03  0.97739881942E+03  0.17300000000E+03 0.  1.
         -6    1    1    2    0  501  0.11676605430E+03  0.83374275800E+02  0.88350264353E+03  0.91164220088E+03  0.17300000000E+03 0. -1.
<mgrwt>
<rscale>  2 0.22475449E+03</rscale>
<asrwt>0</asrwt>
<pdfrwt beam="1">  1        2 0.28644222E+00 0.22475449E+03</pdfrwt>
<pdfrwt beam="2">  1       -2 0.41793740E-02 0.22475449E+03</pdfrwt>
<totfact> 0.22621794E+03</totfact>
</mgrwt>
</event>
<event>
 4    1  0.7691552E-001  0.2088584E+03  0.7546771E-02  0.1142473E+00
         -1   -1    0    0    0  501 -0.00000000000E+00  0.00000000000E+00  0.11482244440E+03  0.11482244440E+03  0.00000000000E+00 0.  1.
          1   -1    0    0  502    0  0.00000000000E+00 -0.00000000000E+00 -0.38595601409E+03  0.38595601409E+03  0.00000000000E+00 0. -1.
          6    1    1    2  502    0  0.10510978786E+03 -0.51427118546E+02 -0.10421951111E+03  0.23341705705E+03  0.17300000000E+03 0.  1.
         -6    1    1    2    0  501 -0.10510978786E+03  0.51427118546E+02 -0.16691405859E+03  0.26736140144E+03  0.17300000000E+03 0. -1.
<mgrwt>
<rscale>  2 0.20885836E+03</rscale>
<asrwt>0</asrwt>
<pdfrwt beam="2">  1        1 0.59377849E-01 0.20885836E+03</pdfrwt>
<pdfrwt beam="1">  1       -1 0.17664991E-01 0.20885836E+03</pdfrwt>
<totfact> 0.15587132E+03</totfact>
</mgrwt>
</event>
<event>
 4    1  0.7691552E-001  0.2013604E+03  0.7546771E-02  0.1148596E+00
          1   -1    0    0  502    0  0.00000000000E+00  0.00000000000E+00  0.16610426137E+03  0.16610426137E+03  0.00000000000E+00 0. -1.
         -1   -1    0    0    0  501 -0.00000000000E+00 -0.00000000000E+00 -0.39214128244E+03  0.39214128244E+03  0.00000000000E+00 0.  1.
          6    1    1    2  502    0  0.50368503392E+02  0.89888885787E+02  0.58482177971E+02  0.20968109849E+03  0.17300000000E+03 0. -1.
         -6    1    1    2    0  501 -0.50368503392E+02 -0.89888885787E+02 -0.28451919904E+03  0.34856444533E+03  0.17300000000E+03 0.  1.
<mgrwt>
<rscale>  2 0.20136037E+03</rscale>
<asrwt>0</asrwt>
<pdfrwt beam="1">  1        1 0.25554502E-01 0.20136037E+03</pdfrwt>
<pdfrwt beam="2">  1       -1 0.60329427E-01 0.20136037E+03</pdfrwt>
<totfact> 0.53674820E+02</totfact>
</mgrwt>
</event>
<event>
 4    1  0.7691552E-001  0.1799268E+03  0.7546771E-02  0.1167874E+00
         -2   -1    0    0    0  501 -0.00000000000E+00  0.00000000000E+00  0.19500925506E+03  0.19500925506E+03  0.00000000000E+00 0.  1.
          2   -1    0    0  502    0  0.00000000000E+00 -0.00000000000E+00 -0.16743160108E+03  0.16743160108E+03  0.00000000000E+00 0. -1.
          6    1    1    2  502    0 -0.43695518515E+02 -0.23137366086E+02  0.30482814585E+02  0.18249065191E+03  0.17300000000E+03 0. -1.
         -6    1    1    2    0  501  0.43695518515E+02  0.23137366086E+02 -0.29051606090E+01  0.17995020424E+03  0.17300000000E+03 0.  1.
<mgrwt>
<rscale>  2 0.17992675E+03</rscale>
<asrwt>0</asrwt>
<pdfrwt beam="2">  1        2 0.25758708E-01 0.17992675E+03</pdfrwt>
<pdfrwt beam="1">  1       -2 0.30001424E-01 0.17992675E+03</pdfrwt>
<totfact> 0.20906633E+03</totfact>
</mgrwt>
</event>
<event>
 4    1  0.7691552E-001  0.2223702E+03  0.7546771E-02  0.1132128E+00
          1   -1    0    0  502    0  0.00000000000E+00  0.00000000000E+00  0.14439436811E+03  0.14439436811E+03  0.00000000000E+00 0.  1.
         -1   -1    0    0    0  501 -0.00000000000E+00 -0.00000000000E+00 -0.56303287855E+03  0.56303287855E+03  0.00000000000E+00 0. -1.
          6    1    1    2  502    0 -0.11323894859E+03  0.81831813477E+02  0.12075001910E+02  0.22269780162E+03  0.17300000000E+03 0.  1.
         -6    1    1    2    0  501  0.11323894859E+03 -0.81831813477E+02 -0.43071351235E+03  0.48472944505E+03  0.17300000000E+03 0. -1.
<mgrwt>
<rscale>  2 0.22237020E+03</rscale>
<asrwt>0</asrwt>
<pdfrwt beam="1">  1        1 0.22214518E-01 0.22237020E+03</pdfrwt>
<pdfrwt beam="2">  1       -1 0.86620443E-01 0.22237020E+03</pdfrwt>
<totfact> 0.30949434E+02</totfact>
</mgrwt>
</event>
<event>
 4    1  0.7691552E-001  0.1877839E+03  0.7546771E-02  0.1160475E+00
          2   -1    0    0  502    0  0.00000000000E+00  0.00000000000E+00  0.12946054096E+04  0.12946054096E+04  0.00000000000E+00 0. -1.
         -2   -1    0    0    0  501 -0.00000000000E+00 -0.00000000000E+00 -0.35370530260E+02  0.35370530260E+02  0.00000000000E+00 0.  1.
          6    1    1    2  502    0 -0.24737069683E+02  0.68715859790E+02  0.31075817222E+03  0.36308874068E+03  0.17300000000E+03 0.  1.
         -6    1    1    2    0  501  0.24737069683E+02 -0.68715859790E+02  0.94847670716E+03  0.96688719923E+03  0.17300000000E+03 0. -1.
<mgrwt>
<rscale>  2 0.18778390E+03</rscale>
<asrwt>0</asrwt>
<pdfrwt beam="1">  1        2 0.19917003E+00 0.18778390E+03</pdfrwt>
<pdfrwt beam="2">  1       -2 0.54416210E-02 0.18778390E+03</pdfrwt>
<totfact> 0.30265212E+03</totfact>
</mgrwt>
</event>
<event>
 4    1  0.7691552E-001  0.1810602E+03  0.7546771E-02  0.1166781E+00
          2   -1    0    0  502    0  0.00000000000E+00  0.00000000000E+00  0.15138259872E+03  0.15138259872E+03  0.00000000000E+00 0.  1.
         -2   -1    0    0    0  501 -0.00000000000E+00 -0.00000000000E+00 -0.25652254155E+03  0.25652254155E+03  0.00000000000E+00 0. -1.
          6    1    1    2  502    0 -0.81873855405E+01 -0.52789791442E+02 -0.13307355753E+03  0.22470284172E+03  0.17300000000E+03 0. -1.
         -6    1    1    2    0  501  0.81873855405E+01  0.52789791442E+02  0.27933614706E+02  0.18320229855E+03  0.17300000000E+03 0.  1.
<mgrwt>
<rscale>  2 0.18106020E+03</rscale>
<asrwt>0</asrwt>
<pdfrwt beam="1">  1        2 0.23289630E-01 0.18106020E+03</pdfrwt>
<pdfrwt beam="2">  1       -2 0.39465007E-01 0.18106020E+03</pdfrwt>
<totfact> 0.14080568E+03</totfact>
</mgrwt>
</event>
<event>
 4    1  0.7691552E-001  0.1755234E+03  0.7546771E-02  0.1172207E+00
         -1   -1    0    0    0  501 -0.00000000000E+00  0.00000000000E+00  0.66152080032E+02  0.66152080032E+02  0.00000000000E+00 0. -1.
          1   -1    0    0  502    0  0.00000000000E+00 -0.00000000000E+00 -0.51320978381E+03  0.51320978381E+03  0.00000000000E+00 0.  1.
          6    1    1    2  502    0  0.21457784202E+02 -0.20469976876E+02 -0.13541078606E+03  0.22168567260E+03  0.17300000000E+03 0. -1.
         -6    1    1    2    0  501 -0.21457784202E+02  0.20469976876E+02 -0.31164691772E+03  0.35767619124E+03  0.17300000000E+03 0.  1.
<mgrwt>
<rscale>  2 0.17552338E+03</rscale>
<asrwt>0</asrwt>
<pdfrwt beam="2">  1        1 0.78955353E-01 0.17552338E+03</pdfrwt>
<pdfrwt beam="1">  1       -1 0.10177243E-01 0.17552338E+03</pdfrwt>
<totfact> 0.25489937E+03</totfact>
</mgrwt>
</event>
<event>
 4    1  0.7691552E-001  0.1844750E+03  0.7546771E-02  0.1163541E+00
          2   -1    0    0  502    0  0.00000000000E+00  0.00000000000E+00  0.17498179147E+04  0.17498179147E+04  0.00000000000E+00 0.  1.
         -2   -1    0    0    0  501 -0.00000000000E+00 -0.00000000000E+00 -0.21733646297E+02  0.21733646297E+02  0.00000000000E+00 0. -1.
          6    1    1    2  502    0  0.22977175635E+02 -0.59783718843E+02  0.57681182834E+03  0.60559303905E+03  0.17300000000E+03 0.  1.
         -6    1    1    2    0  501 -0.22977175635E+02  0.59783718843E+02  0.11512724401E+04  0.11659585219E+04  0.17300000000E+03 0.  1.
<mgrwt>
<rscale>  2 0.18447505E+03</rscale>
<asrwt>0</asrwt>
<pdfrwt beam="1">  1        2 0.26920265E+00 0.18447505E+03</pdfrwt>
<pdfrwt beam="2">  1       -2 0.33436393E-02 0.18447505E+03</pdfrwt>
<totfact> 0.36135919E+03</totfact>
</mgrwt>
</event>
<event>
 4    1  0.7691552E-001  0.2007832E+03  0.7546771E-02  0.1149080E+00
          2   -1    0    0  502    0  0.00000000000E+00  0.00000000000E+00  0.14578991891E+04  0.14578991891E+04  0.00000000000E+00 0.  1.
         -2   -1    0    0    0  501 -0.00000000000E+00 -0.00000000000E+00 -0.32621927958E+02  0.32621927958E+02  0.00000000000E+00 0. -1.
          6    1    1    2  502    0 -0.83136748802E+02 -0.58933661034E+02  0.42175025696E+03  0.46710510021E+03  0.17300000000E+03 0. -1.
         -6    1    1    2    0  501  0.83136748802E+02  0.58933661034E+02  0.10035270042E+04  0.10234160169E+04  0.17300000000E+03 0.  1.
<mgrwt>
<rscale>  2 0.20078320E+03</rscale>
<asrwt>0</asrwt>
<pdfrwt beam="1">  1        2 0.22429213E+00 0.20078320E+03</pdfrwt>
<pdfrwt beam="2">  1       -2 0.50187593E-02 0.20078320E+03</pdfrwt>
<totfact> 0.27953083E+03</totfact>
</mgrwt>
</event>
<event>
 4    1  0.7691552E-001  0.2179376E+03  0.7546771E-02  0.1135430E+00
          1   -1    0    0  502    0  0.00000000000E+00  0.00000000000E+00  0.48814903359E+03  0.48814903359E+03  0.00000000000E+00 0. -1.
         -1   -1    0    0    0  501 -0.00000000000E+00 -0.00000000000E+00 -0.97746248596E+02  0.97746248596E+02  0.00000000000E+00 0.  1.
          6    1    1    2  502    0  0.16561160837E+02 -0.13150477441E+03  0.21500075427E+03  0.30614065734E+03  0.17300000000E+03 0.  1.
         -6    1    1    2    0  501 -0.16561160837E+02  0.13150477441E+03  0.17540203073E+03  0.27975462485E+03  0.17300000000E+03 0. -1.
<mgrwt>
<rscale>  2 0.21793755E+03</rscale>
<asrwt>0</asrwt>
<pdfrwt beam="1">  1        1 0.75099850E-01 0.21793755E+03</pdfrwt>
<pdfrwt beam="2">  1       -1 0.15037885E-01 0.21793755E+03</pdfrwt>
<totfact> 0.14878495E+03</totfact>
</mgrwt>
</event>
<event>
 4    1  0.7691552E-001  0.2264393E+03  0.7546771E-02  0.1129171E+00
          1   -1    0    0  502    0  0.00000000000E+00  0.00000000000E+00  0.42540964466E+03  0.42540964466E+03  0.00000000000E+00 0.  1.
         -1   -1    0    0    0  501 -0.00000000000E+00 -0.00000000000E+00 -0.12135541763E+03  0.12135541763E+03  0.00000000000E+00 0. -1.
          6    1    1    2  502    0 -0.78122897603E+02 -0.12346081803E+03  0.17456918251E+03  0.28591810051E+03  0.17300000000E+03 0.  1.
         -6    1    1    2    0  501  0.78122897603E+02  0.12346081803E+03  0.12948504452E+03  0.26084696179E+03  0.17300000000E+03 0.  1.
<mgrwt>
<rscale>  2 0.22643931E+03</rscale>
<asrwt>0</asrwt>
<pdfrwt beam="1">  1        1 0.65447636E-01 0.22643931E+03</pdfrwt>
<pdfrwt beam="2">  1       -1 0.18670065E-01 0.22643931E+03</pdfrwt>
<totfact> 0.12601031E+03</totfact>
</mgrwt>
</event>
<event>
 4    1  0.7691552E-001  0.2138728E+03  0.7546771E-02  0.1138535E+00
         -1   -1    0    0    0  501 -0.00000000000E+00  0.00000000000E+00  0.24538545351E+03  0.24538545351E+03  0.00000000000E+00 0.  1.
          1   -1    0    0  502    0  0.00000000000E+00 -0.00000000000E+00 -0.19950079208E+03  0.19950079208E+03  0.00000000000E+00 0. -1.
          6    1    1    2  502    0  0.71662619775E+02  0.10332970906E+03 -0.34045197852E+02  0.21656554514E+03  0.17300000000E+03 0. -1.
         -6    1    1    2    0  501 -0.71662619775E+02 -0.10332970906E+03  0.79929859277E+02  0.22832070044E+03  0.17300000000E+03 0.  1.
<mgrwt>
<rscale>  2 0.21387277E+03</rscale>
<asrwt>0</asrwt>
<pdfrwt beam="2">  1        1 0.30692430E-01 0.21387277E+03</pdfrwt>
<pdfrwt beam="1">  1       -1 0.37751608E-01 0.21387277E+03</pdfrwt>
<totfact> 0.10050609E+03</totfact>
</mgrwt>
</event>
<event>
 4    1  0.7691552E-001  0.2386365E+03  0.7546771E-02  0.1120704E+00
          1   -1    0    0  502    0  0.00000000000E+00  0.00000000000E+00  0.12809711618E+04  0.12809711618E+04  0.00000000000E+00 0.  1.
         -1   -1    0    0    0  501 -0.00000000000E+00 -0.00000000000E+00 -0.44533738028E+02  0.44533738028E+02  0.00000000000E+00 0. -1.
          6    1    1    2  502    0  0.16386462302E+03  0.12914332827E+02  0.64583347025E+03  0.68851163096E+03  0.17300000000E+03 0. -1.
         -6    1    1    2    0  501 -0.16386462302E+03 -0.12914332827E+02  0.59060395352E+03  0.63699326886E+03  0.17300000000E+03 0.  1.
<mgrwt>
<rscale>  2 0.23863653E+03</rscale>
<asrwt>0</asrwt>
<pdfrwt beam="1">  1        1 0.19707246E+00 0.23863653E+03</pdfrwt>
<pdfrwt beam="2">  1       -1 0.68513453E-02 0.23863653E+03</pdfrwt>
<totfact> 0.11006453E+03</totfact>
</mgrwt>
</event>
<event>
 4    1  0.7691552E-001  0.1923013E+03  0.7546771E-02  0.1156402E+00
          2   -1    0    0  502    0  0.00000000000E+00  0.00000000000E+00  0.24343801066E+03  0.24343801066E+03  0.00000000000E+00 0.  1.
         -2   -1    0    0    0  501 -0.00000000000E+00 -0.00000000000E+00 -0.36181413656E+03  0.36181413656E+03  0.00000000000E+00 0. -1.
          6    1    1    2  502    0 -0.54615203004E+02  0.63780591580E+02  0.17131560068E+03  0.25754382015E+03  0.17300000000E+03 0.  1.
         -6    1    1    2    0  501  0.54615203004E+02 -0.63780591580E+02 -0.28969172658E+03  0.34770832707E+03  0.17300000000E+03 0. -1.
<mgrwt>
<rscale>  2 0.19230129E+03</rscale>
<asrwt>0</asrwt>
<pdfrwt beam="1">  1        2 0.37452002E-01 0.19230129E+03</pdfrwt>
<pdfrwt beam="2">  1       -2 0.55663713E-01 0.19230129E+03</pdfrwt>
<totfact> 0.42597183E+02</totfact>
</mgrwt>
</event>
<event>
 4    1  0.7691552E-001  0.1752798E+03  0.7546771E-02  0.1172451E+00
          1   -1    0    0  502    0  0.00000000000E+00  0.00000000000E+00  0.26888785755E+02  0.26888785755E+02  0.00000000000E+00 0. -1.
         -1   -1    0    0    0  501 -0.00000000000E+00 -0.00000000000E+00 -0.11425950315E+04  0.11425950315E+04  0.00000000000E+00 0.  1.
          6    1    1    2  502    0 -0.21819822940E+02  0.17829402017E+02 -0.55776132612E+03  0.58465433306E+03  0.17300000000E+03 0. -1.
         -6    1    1    2    0  501  0.21819822940E+02 -0.17829402017E+02 -0.55794491962E+03  0.58482948419E+03  0.17300000000E+03 0.  1.
<mgrwt>
<rscale>  2 0.17527975E+03</rscale>
<asrwt>0</asrwt>
<pdfrwt beam="1">  1        1 0.41367360E-02 0.17527975E+03</pdfrwt>
<pdfrwt beam="2">  1       -1 0.17578386E+00 0.17527975E+03</pdfrwt>
<totfact> 0.52917646E+02</totfact>
</mgrwt>
</event>
<event>
 4    1  0.7691552E-001  0.2001684E+03  0.7546771E-02  0.1149597E+00
          2   -1    0    0  502    0  0.00000000000E+00  0.00000000000E+00  0.10757927869E+04  0.10757927869E+04  0.00000000000E+00 0.  1.
         -2   -1    0    0    0  501 -0.00000000000E+00 -0.00000000000E+00 -0.41941262283E+02  0.41941262283E+02  0.00000000000E+00 0. -1.
          6    1    1    2  502    0 -0.78016948772E+02  0.63653214480E+02  0.32990641803E+03  0.38588291056E+03  0.17300000000E+03 0.  1.
         -6    1    1    2    0  501  0.78016948772E+02 -0.63653214480E+02  0.70394510662E+03  0.73185113865E+03  0.17300000000E+03 0. -1.
<mgrwt>
<rscale>  2 0.20016837E+03</rscale>
<asrwt>0</asrwt>
<pdfrwt beam="1">  1        2 0.16550656E+00 0.20016837E+03</pdfrwt>
<pdfrwt beam="2">  1       -2 0.64525027E-02 0.20016837E+03</pdfrwt>
<totfact> 0.31047026E+03</totfact>
</mgrwt>
</event>
<event>
 4    1  0.7691552E-001  0.1848306E+03  0.7546771E-02  0.1163208E+00
         -2   -1    0    0    0  501 -0.00000000000E+00  0.00000000000E+00  0.20844270190E+02  0.20844270190E+02  0.00000000000E+00 0.  1.
          2   -1    0    0  502    0  0.00000000000E+00 -0.00000000000E+00 -0.16718218981E+04  0.16718218981E+04  0.00000000000E+00 0. -1.
          6    1    1    2  502    0  0.61577571386E+02 -0.21013228946E+02 -0.70678248212E+03  0.73055036111E+03  0.17300000000E+03 0.  1.
         -6    1    1    2    0  501 -0.61577571386E+02  0.21013228946E+02 -0.94419514577E+03  0.96211580716E+03  0.17300000000E+03 0. -1.
<mgrwt>
<rscale>  2 0.18483061E+03</rscale>
<asrwt>0</asrwt>
<pdfrwt beam="2">  1        2 0.25720350E+00 0.18483061E+03</pdfrwt>
<pdfrwt beam="1">  1       -2 0.32068092E-02 0.18483061E+03</pdfrwt>
<totfact> 0.42206844E+03</totfact>
</mgrwt>
</event>
<event>
 4    1  0.7691552E-001  0.1744423E+03  0.7546771E-02  0.1173293E+00
          2   -1    0    0  502    0  0.00000000000E+00  0.00000000000E+00  0.17420913285E+04  0.17420913285E+04  0.00000000000E+00 0. -1.
         -2   -1    0    0    0  501 -0.00000000000E+00 -0.00000000000E+00 -0.17587656044E+02  0.17587656044E+02  0.00000000000E+00 0.  1.
          6    1    1    2  502    0  0.20580683247E+02  0.88068095207E+01  0.93494987702E+03  0.95108432694E+03  0.17300000000E+03 0. -1.
         -6    1    1    2    0  501 -0.20580683247E+02 -0.88068095207E+01  0.78955379548E+03  0.80859465765E+03  0.17300000000E+03 0.  1.
<mgrwt>
<rscale>  2 0.17444232E+03</rscale>
<asrwt>0</asrwt>
<pdfrwt beam="1">  1        2 0.26801391E+00 0.17444232E+03</pdfrwt>
<pdfrwt beam="2">  1       -2 0.27057946E-02 0.17444232E+03</pdfrwt>
<totfact> 0.49858937E+03</totfact>
</mgrwt>
</event>
<event>
 4    1  0.7691552E-001  0.3172328E+03  0.7546771E-02  0.1076930E+00
         -1   -1    0    0    0  501 -0.00000000000E+00  0.00000000000E+00  0.22086911263E+03  0.22086911263E+03  0.00000000000E+00 0.  1.
          1   -1    0    0  502    0  0.00000000000E+00 -0.00000000000E+00 -0.52688673868E+03  0.52688673868E+03  0.00000000000E+00 0. -1.
          6    1    1    2  502    0  0.26396922723E+03 -0.32061193451E+02 -0.15523764525E+02  0.31761243728E+03  0.17300000000E+03 0.  1.
         -6    1    1    2    0  501 -0.26396922723E+03  0.32061193451E+02 -0.29049386153E+03  0.43014341403E+03  0.17300000000E+03 0. -1.
<mgrwt>
<rscale>  2 0.31723284E+03</rscale>
<asrwt>0</asrwt>
<pdfrwt beam="2">  1        1 0.81059497E-01 0.31723284E+03</pdfrwt>
<pdfrwt beam="1">  1       -1 0.33979864E-01 0.31723284E+03</pdfrwt>
<totfact> 0.34784550E+02</totfact>
</mgrwt>
</event>
<event>
 4    1  0.7691552E-001  0.2644889E+03  0.7546771E-02  0.1104476E+00
          1   -1    0    0  502    0  0.00000000000E+00  0.00000000000E+00  0.49475502100E+03  0.49475502100E+03  0.00000000000E+00 0. -1.
         -1   -1    0    0    0  501 -0.00000000000E+00 -0.00000000000E+00 -0.15048602290E+03  0.15048602290E+03  0.00000000000E+00 0.  1.
          6    1    1    2  502    0 -0.20005839462E+03  0.14186471735E+01  0.25144364730E+03  0.36493599656E+03  0.17300000000E+03 0. -1.
         -6    1    1    2    0  501  0.20005839462E+03 -0.14186471735E+01  0.92825350802E+02  0.28030504735E+03  0.17300000000E+03 0.  1.
<mgrwt>
<rscale>  2 0.26448889E+03</rscale>
<asrwt>0</asrwt>
<pdfrwt beam="1">  1        1 0.76116157E-01 0.26448889E+03</pdfrwt>
<pdfrwt beam="2">  1       -1 0.23151696E-01 0.26448889E+03</pdfrwt>
<totfact> 0.72766740E+02</totfact>
</mgrwt>
</event>
<event>
 4    1  0.7691552E-001  0.1788636E+03  0.7546771E-02  0.1168907E+00
         -1   -1    0    0    0  501 -0.00000000000E+00  0.00000000000E+00  0.43021994350E+03  0.43021994350E+03  0.00000000000E+00 0. -1.
          1   -1    0    0  502    0  0.00000000000E+00 -0.00000000000E+00 -0.11475105879E+03  0.11475105879E+03  0.00000000000E+00 0.  1.
          6    1    1    2  502    0 -0.44856585081E+02  0.71458134534E+01 -0.39227044131E+01  0.17890657753E+03  0.17300000000E+03 0.  1.
         -6    1    1    2    0  501  0.44856585081E+02 -0.71458134534E+01  0.31939158912E+03  0.36606442476E+03  0.17300000000E+03 0. -1.
<mgrwt>
<rscale>  2 0.17886357E+03</rscale>
<asrwt>0</asrwt>
<pdfrwt beam="2">  1        1 0.17654009E-01 0.17886357E+03</pdfrwt>
<pdfrwt beam="1">  1       -1 0.66187683E-01 0.17886357E+03</pdfrwt>
<totfact> 0.71928534E+02</totfact>
</mgrwt>
</event>
<event>
 4    1  0.7691552E-001  0.1785249E+03  0.7546771E-02  0.1169238E+00
         -2   -1    0    0    0  501 -0.00000000000E+00  0.00000000000E+00  0.77520910211E+03  0.77520910211E+03  0.00000000000E+00 0.  1.
          2   -1    0    0  502    0  0.00000000000E+00 -0.00000000000E+00 -0.42995214734E+02  0.42995214734E+02  0.00000000000E+00 0. -1.
          6    1    1    2  502    0  0.41444703949E+02 -0.14982637206E+02  0.28050953907E+03  0.33250074348E+03  0.17300000000E+03 0. -1.
         -6    1    1    2    0  501 -0.41444703949E+02  0.14982637206E+02  0.45170434831E+03  0.48570357337E+03  0.17300000000E+03 0. -1.
<mgrwt>
<rscale>  2 0.17852491E+03</rscale>
<asrwt>0</asrwt>
<pdfrwt beam="2">  1        2 0.66146490E-02 0.17852491E+03</pdfrwt>
<pdfrwt beam="1">  1       -2 0.11926293E+00 0.17852491E+03</pdfrwt>
<totfact> 0.60584489E+02</totfact>
</mgrwt>
</event>
<event>
 4    1  0.7691552E-001  0.1812891E+03  0.7546771E-02  0.1166561E+00
          1   -1    0    0  502    0  0.00000000000E+00  0.00000000000E+00  0.74864011675E+03  0.74864011675E+03  0.00000000000E+00 0. -1.
         -1   -1    0    0    0  501 -0.00000000000E+00 -0.00000000000E+00 -0.84511979101E+02  0.84511979101E+02  0.00000000000E+00 0.  1.
          6    1    1    2  502    0  0.51879865219E+02  0.15659865427E+02  0.43289451083E+02  0.18638596614E+03  0.17300000000E+03 0.  1.
         -6    1    1    2    0  501 -0.51879865219E+02 -0.15659865427E+02  0.62083868657E+03  0.64676612971E+03  0.17300000000E+03 0. -1.
<mgrwt>
<rscale>  2 0.18128914E+03</rscale>
<asrwt>0</asrwt>
<pdfrwt beam="1">  1        1 0.11517540E+00 0.18128914E+03</pdfrwt>
<pdfrwt beam="2">  1       -1 0.13001843E-01 0.18128914E+03</pdfrwt>
<totfact> 0.10313654E+03</totfact>
</mgrwt>
</event>
<event>
 4    1  0.7691552E-001  0.1750835E+03  0.7546771E-02  0.1172648E+00
          1   -1    0    0  502    0  0.00000000000E+00  0.00000000000E+00  0.18138270759E+03  0.18138270759E+03  0.00000000000E+00 0.  1.
         -1   -1    0    0    0  501 -0.00000000000E+00 -0.00000000000E+00 -0.16900320146E+03  0.16900320146E+03  0.00000000000E+00 0. -1.
          6    1    1    2  502    0 -0.26708328998E+02 -0.34482097257E+01  0.63723081083E+01  0.17519940439E+03  0.17300000000E+03 0.  1.
         -6    1    1    2    0  501  0.26708328998E+02  0.34482097257E+01  0.60071980206E+01  0.17518650466E+03  0.17300000000E+03 0.  1.
<mgrwt>
<rscale>  2 0.17508348E+03</rscale>
<asrwt>0</asrwt>
<pdfrwt beam="1">  1        1 0.27905032E-01 0.17508348E+03</pdfrwt>
<pdfrwt beam="2">  1       -1 0.26000493E-01 0.17508348E+03</pdfrwt>
<totfact> 0.21299116E+03</totfact>
</mgrwt>
</event>
<event>
 4    1  0.7691552E-001  0.1949382E+03  0.7546771E-02  0.1154081E+00
          2   -1    0    0  502    0  0.00000000000E+00  0.00000000000E+00  0.25251740804E+03  0.25251740804E+03  0.00000000000E+00 0. -1.
         -2   -1    0    0    0  501 -0.00000000000E+00 -0.00000000000E+00 -0.23179640492E+03  0.23179640492E+03  0.00000000000E+00 0.  1.
          6    1    1    2  502    0  0.51396365808E+02  0.73690726533E+02  0.15378075758E+03  0.24829303453E+03  0.17300000000E+03 0. -1.
         -6    1    1    2    0  501 -0.51396365808E+02 -0.73690726533E+02 -0.13305975445E+03  0.23602077843E+03  0.17300000000E+03 0.  1.
<mgrwt>
<rscale>  2 0.19493822E+03</rscale>
<asrwt>0</asrwt>
<pdfrwt beam="1">  1        2 0.38848832E-01 0.19493822E+03</pdfrwt>
<pdfrwt beam="2">  1       -2 0.35660985E-01 0.19493822E+03</pdfrwt>
<totfact> 0.97460300E+02</totfact>
</mgrwt>
</event>
<event>
 4    1  0.7691552E-001  0.3639557E+03  0.7546771E-02  0.1057028E+00
          2   -1    0    0  502    0  0.00000000000E+00  0.00000000000E+00  0.32522125501E+03  0.32522125501E+03  0.00000000000E+00 0.  1.
         -2   -1    0    0    0  501 -0.00000000000E+00 -0.00000000000E+00 -0.40777246907E+03  0.40777246907E+03  0.00000000000E+00 0. -1.
          6    1    1    2  502    0 -0.30260246180E+03 -0.10472096598E+03 -0.53705539490E+02  0.36789674580E+03  0.17300000000E+03 0.  1.
         -6    1    1    2    0  501  0.30260246180E+03  0.10472096598E+03 -0.28845674572E+02  0.36509697827E+03  0.17300000000E+03 0. -1.
<mgrwt>
<rscale>  2 0.36395567E+03</rscale>
<asrwt>0</asrwt>
<pdfrwt beam="1">  1        2 0.50034039E-01 0.36395567E+03</pdfrwt>
<pdfrwt beam="2">  1       -2 0.62734226E-01 0.36395567E+03</pdfrwt>
<totfact> 0.24177316E+02</totfact>
</mgrwt>
</event>
<event>
 4    1  0.7691552E-001  0.2261227E+03  0.7546771E-02  0.1129399E+00
         -2   -1    0    0    0  501 -0.00000000000E+00  0.00000000000E+00  0.29330181457E+02  0.29330181457E+02  0.00000000000E+00 0.  1.
          2   -1    0    0  502    0  0.00000000000E+00 -0.00000000000E+00 -0.18388664111E+04  0.18388664111E+04  0.00000000000E+00 0. -1.
          6    1    1    2  502    0  0.17668370863E+02 -0.14453472706E+03 -0.69182762431E+03  0.72784402203E+03  0.17300000000E+03 0. -1.
         -6    1    1    2    0  501 -0.17668370863E+02  0.14453472706E+03 -0.11177086053E+04  0.11403525705E+04  0.17300000000E+03 0.  1.
<mgrwt>
<rscale>  2 0.22612266E+03</rscale>
<asrwt>0</asrwt>
<pdfrwt beam="2">  1        2 0.28290254E+00 0.22612266E+03</pdfrwt>
<pdfrwt beam="1">  1       -2 0.45123354E-02 0.22612266E+03</pdfrwt>
<totfact> 0.20712565E+03</totfact>
</mgrwt>
</event>
<event>
 4    1  0.7691552E-001  0.2077072E+03  0.7546771E-02  0.1143395E+00
         -2   -1    0    0    0  501 -0.00000000000E+00  0.00000000000E+00  0.21128815248E+02  0.21128815248E+02  0.00000000000E+00 0.  1.
          2   -1    0    0  502    0  0.00000000000E+00 -0.00000000000E+00 -0.20757509530E+04  0.20757509530E+04  0.00000000000E+00 0. -1.
          6    1    1    2  502    0  0.48604233801E+02 -0.10416773001E+03 -0.89336323863E+03  0.91719145420E+03  0.17300000000E+03 0.  1.
         -6    1    1    2    0  501 -0.48604233801E+02  0.10416773001E+03 -0.11612588992E+04  0.11796883141E+04  0.17300000000E+03 0. -1.
<mgrwt>
<rscale>  2 0.20770722E+03</rscale>
<asrwt>0</asrwt>
<pdfrwt beam="2">  1        2 0.31934648E+00 0.20770722E+03</pdfrwt>
<pdfrwt beam="1">  1       -2 0.32505851E-02 0.20770722E+03</pdfrwt>
<totfact> 0.25515840E+03</totfact>
</mgrwt>
</event>
<event>
 4    1  0.7691552E-001  0.1800925E+03  0.7546771E-02  0.1167714E+00
         -1   -1    0    0    0  501 -0.00000000000E+00  0.00000000000E+00  0.87298037861E+02  0.87298037861E+02  0.00000000000E+00 0.  1.
          1   -1    0    0  502    0  0.00000000000E+00 -0.00000000000E+00 -0.38642114708E+03  0.38642114708E+03  0.00000000000E+00 0. -1.
          6    1    1    2  502    0 -0.29989153658E+02  0.40061913633E+02 -0.10305504456E+03  0.20749373116E+03  0.17300000000E+03 0.  1.
         -6    1    1    2    0  501  0.29989153658E+02 -0.40061913633E+02 -0.19606806466E+03  0.26622545378E+03  0.17300000000E+03 0.  1.
<mgrwt>
<rscale>  2 0.18009249E+03</rscale>
<asrwt>0</asrwt>
<pdfrwt beam="2">  1        1 0.59449408E-01 0.18009249E+03</pdfrwt>
<pdfrwt beam="1">  1       -1 0.13430467E-01 0.18009249E+03</pdfrwt>
<totfact> 0.23937872E+03</totfact>
</mgrwt>
</event>
<event>
 4    1  0.7691552E-001  0.2064722E+03  0.7546771E-02  0.1144390E+00
         -1   -1    0    0    0  501 -0.00000000000E+00  0.00000000000E+00  0.89908636514E+02  0.89908636514E+02  0.00000000000E+00 0.  1.
          1   -1    0    0  502    0  0.00000000000E+00 -0.00000000000E+00 -0.47687957468E+03  0.47687957468E+03  0.00000000000E+00 0. -1.
          6    1    1    2  502    0  0.70525725517E+02  0.87908485030E+02 -0.21489970910E+03  0.29801453768E+03  0.17300000000E+03 0. -1.
         -6    1    1    2    0  501 -0.70525725517E+02 -0.87908485030E+02 -0.17207122907E+03  0.26877367351E+03  0.17300000000E+03 0. -1.
<mgrwt>
<rscale>  2 0.20647223E+03</rscale>
<asrwt>0</asrwt>
<pdfrwt beam="2">  1        1 0.73366088E-01 0.20647223E+03</pdfrwt>
<pdfrwt beam="1">  1       -1 0.13832098E-01 0.20647223E+03</pdfrwt>
<totfact> 0.17492533E+03</totfact>
</mgrwt>
</event>
<event>
 4    1  0.7691552E-001  0.2825639E+03  0.7546771E-02  0.1094297E+00
          2   -1    0    0  502    0  0.00000000000E+00  0.00000000000E+00  0.24027880090E+03  0.24027880090E+03  0.00000000000E+00 0. -1.
         -2   -1    0    0    0  501 -0.00000000000E+00 -0.00000000000E+00 -0.35338026365E+03  0.35338026365E+03  0.00000000000E+00 0.  1.
          6    1    1    2  502    0  0.21627095703E+03  0.56037613990E+02 -0.12906488051E+03  0.31064462721E+03  0.17300000000E+03 0.  1.
         -6    1    1    2    0  501 -0.21627095703E+03 -0.56037613990E+02  0.15963417763E+02  0.28301443734E+03  0.17300000000E+03 0. -1.
<mgrwt>
<rscale>  2 0.28256387E+03</rscale>
<asrwt>0</asrwt>
<pdfrwt beam="1">  1        2 0.36965970E-01 0.28256387E+03</pdfrwt>
<pdfrwt beam="2">  1       -2 0.54366194E-01 0.28256387E+03</pdfrwt>
<totfact> 0.45344163E+02</totfact>
</mgrwt>
</event>
<event>
 4    1  0.7691552E-001  0.1825008E+03  0.7546771E-02  0.1165404E+00
          2   -1    0    0  502    0  0.00000000000E+00  0.00000000000E+00  0.28410115874E+03  0.28410115874E+03  0.00000000000E+00 0. -1.
         -2   -1    0    0    0  501 -0.00000000000E+00 -0.00000000000E+00 -0.12446057621E+03  0.12446057621E+03  0.00000000000E+00 0.  1.
          6    1    1    2  502    0  0.20584186293E+02 -0.54349263465E+02  0.30598985648E+02  0.18504823449E+03  0.17300000000E+03 0. -1.
         -6    1    1    2    0  501 -0.20584186293E+02  0.54349263465E+02  0.12904159687E+03  0.22351350046E+03  0.17300000000E+03 0. -1.
<mgrwt>
<rscale>  2 0.18250083E+03</rscale>
<asrwt>0</asrwt>
<pdfrwt beam="1">  1        2 0.43707870E-01 0.18250083E+03</pdfrwt>
<pdfrwt beam="2">  1       -2 0.19147781E-01 0.18250083E+03</pdfrwt>
<totfact> 0.25835250E+03</totfact>
</mgrwt>
</event>
<event>
 4    1  0.7691552E-001  0.1816901E+03  0.7546771E-02  0.1166177E+00
         -2   -1    0    0    0  501 -0.00000000000E+00  0.00000000000E+00  0.20538614444E+02  0.20538614444E+02  0.00000000000E+00 0.  1.
          2   -1    0    0  502    0  0.00000000000E+00 -0.00000000000E+00 -0.16158285340E+04  0.16158285340E+04  0.00000000000E+00 0. -1.
          6    1    1    2  502    0 -0.54990750712E+02 -0.76364414001E+01 -0.85715726336E+03  0.87620195847E+03  0.17300000000E+03 0.  1.
         -6    1    1    2    0  501  0.54990750712E+02  0.76364414001E+01 -0.73813265621E+03  0.76016518999E+03  0.17300000000E+03 0. -1.
<mgrwt>
<rscale>  2 0.18169012E+03</rscale>
<asrwt>0</asrwt>
<pdfrwt beam="2">  1        2 0.24858906E+00 0.18169012E+03</pdfrwt>
<pdfrwt beam="1">  1       -2 0.31597861E-02 0.18169012E+03</pdfrwt>
<totfact> 0.46127345E+03</totfact>
</mgrwt>
</event>
<event>
 4    1  0.7691552E-001  0.3704571E+03  0.7546771E-02  0.1054518E+00
         -1   -1    0    0    0  501 -0.00000000000E+00  0.00000000000E+00  0.14891854114E+03  0.14891854114E+03  0.00000000000E+00 0. -1.
          1   -1    0    0  502    0  0.00000000000E+00 -0.00000000000E+00 -0.92191836083E+03  0.92191836083E+03  0.00000000000E+00 0.  1.
          6    1    1    2  502    0 -0.13598792904E+03 -0.29802144057E+03 -0.37605558547E+03  0.52787905741E+03  0.17300000000E+03 0.  1.
         -6    1    1    2    0  501  0.13598792904E+03  0.29802144057E+03 -0.39694423422E+03  0.54295784456E+03  0.17300000000E+03 0. -1.
<mgrwt>
<rscale>  2 0.37045714E+03</rscale>
<asrwt>0</asrwt>
<pdfrwt beam="2">  1        1 0.14183360E+00 0.37045714E+03</pdfrwt>
<pdfrwt beam="1">  1       -1 0.22910544E-01 0.37045714E+03</pdfrwt>
<totfact> 0.29468869E+02</totfact>
</mgrwt>
</event>
<event>
 4    1  0.7691552E-001  0.2396788E+03  0.7546771E-02  0.1120007E+00
         -2   -1    0    0    0  501 -0.00000000000E+00  0.00000000000E+00  0.22454112309E+03  0.22454112309E+03  0.00000000000E+00 0.  1.
          2   -1    0    0  502    0  0.00000000000E+00 -0.00000000000E+00 -0.49312190550E+03  0.49312190550E+03  0.00000000000E+00 0. -1.
          6    1    1    2  502    0 -0.16062687746E+03  0.41424054955E+02 -0.38320386728E+03  0.45198578516E+03  0.17300000000E+03 0.  1.
         -6    1    1    2    0  501  0.16062687746E+03 -0.41424054955E+02  0.11462308487E+03  0.26567724343E+03  0.17300000000E+03 0.  1.
<mgrwt>
<rscale>  2 0.23967884E+03</rscale>
<asrwt>0</asrwt>
<pdfrwt beam="2">  1        2 0.75864908E-01 0.23967884E+03</pdfrwt>
<pdfrwt beam="1">  1       -2 0.34544789E-01 0.23967884E+03</pdfrwt>
<totfact> 0.50094713E+02</totfact>
</mgrwt>
</event>
<event>
 4    1  0.7691552E-001  0.2250421E+03  0.7546771E-02  0.1130179E+00
         -2   -1    0    0    0  501 -0.00000000000E+00  0.00000000000E+00  0.65291687201E+02  0.65291687201E+02  0.00000000000E+00 0. -1.
          2   -1    0    0  502    0  0.00000000000E+00 -0.00000000000E+00 -0.80111047878E+03  0.80111047878E+03  0.00000000000E+00 0.  1.
          6    1    1    2  502    0 -0.14184135741E+03  0.24412431143E+02 -0.44512749193E+03  0.49878093542E+03  0.17300000000E+03 0.  1.
         -6    1    1    2    0  501  0.14184135741E+03 -0.24412431143E+02 -0.29069129964E+03  0.36762123056E+03  0.17300000000E+03 0.  1.
<mgrwt>
<rscale>  2 0.22504208E+03</rscale>
<asrwt>0</asrwt>
<pdfrwt beam="2">  1        2 0.12324776E+00 0.22504208E+03</pdfrwt>
<pdfrwt beam="1">  1       -2 0.10044876E-01 0.22504208E+03</pdfrwt>
<totfact> 0.23230504E+03</totfact>
</mgrwt>
</event>
<event>
 4    1  0.7691552E-001  0.2071032E+03  0.7546771E-02  0.1143881E+00
         -1   -1    0    0    0  501 -0.00000000000E+00  0.00000000000E+00  0.15290937365E+03  0.15290937365E+03  0.00000000000E+00 0. -1.
          1   -1    0    0  502    0  0.00000000000E+00 -0.00000000000E+00 -0.35649894871E+03  0.35649894871E+03  0.00000000000E+00 0.  1.
          6    1    1    2  502    0  0.21916903718E+02 -0.11172456442E+03 -0.21939241668E+03  0.30170310151E+03  0.17300000000E+03 0.  1.
         -6    1    1    2    0  501 -0.21916903718E+02  0.11172456442E+03  0.15802841618E+02  0.20770522085E+03  0.17300000000E+03 0. -1.
<mgrwt>
<rscale>  2 0.20710318E+03</rscale>
<asrwt>0</asrwt>
<pdfrwt beam="2">  1        1 0.54845991E-01 0.20710318E+03</pdfrwt>
<pdfrwt beam="1">  1       -1 0.23524519E-01 0.20710318E+03</pdfrwt>
<totfact> 0.10820162E+03</totfact>
</mgrwt>
</event>
<event>
 4    1  0.7691552E-001  0.3149903E+03  0.7546771E-02  0.1077978E+00
          1   -1    0    0  502    0  0.00000000000E+00  0.00000000000E+00  0.24777417105E+04  0.24777417105E+04  0.00000000000E+00 0. -1.
         -1   -1    0    0    0  501 -0.00000000000E+00 -0.00000000000E+00 -0.53404599050E+02  0.53404599050E+02  0.00000000000E+00 0.  1.
          6    1    1    2  502    0 -0.26320639934E+03 -0.35044591181E+01  0.57916001045E+03  0.65927627562E+03  0.17300000000E+03 0.  1.
         -6    1    1    2    0  501  0.26320639934E+03  0.35044591181E+01  0.18451771010E+04  0.18718700339E+04  0.17300000000E+03 0. -1.
<mgrwt>
<rscale>  2 0.31499030E+03</rscale>
<asrwt>0</asrwt>
<pdfrwt beam="1">  1        1 0.38119094E+00 0.31499030E+03</pdfrwt>
<pdfrwt beam="2">  1       -1 0.82160941E-02 0.31499030E+03</pdfrwt>
<totfact> 0.13422936E+02</totfact>
</mgrwt>
</event>
<event>
 4    1  0.7691552E-001  0.1736388E+03  0.7546771E-02  0.1174105E+00
         -3   -1    0    0    0  501 -0.00000000000E+00  0.00000000000E+00  0.26224317975E+03  0.26224317975E+03  0.00000000000E+00 0.  1.
          3   -1    0    0  502    0  0.00000000000E+00 -0.00000000000E+00 -0.12315321951E+03  0.12315321951E+03  0.00000000000E+00 0. -1.
          6    1    1    2  502    0  0.60816903308E+01 -0.13581508544E+02  0.11921357381E+03  0.21062364661E+03  0.17300000000E+03 0.  1.
         -6    1    1    2    0  501 -0.60816903308E+01  0.13581508544E+02  0.19876386438E+02  0.17477275265E+03  0.17300000000E+03 0. -1.
<mgrwt>
<rscale>  2 0.17363883E+03</rscale>
<asrwt>0</asrwt>
<pdfrwt beam="2">  1        3 0.18946649E-01 0.17363883E+03</pdfrwt>
<pdfrwt beam="1">  1       -3 0.40345105E-01 0.17363883E+03</pdfrwt>
<totfact> 0.36215926E+02</totfact>
</mgrwt>
</event>
<event>
 4    1  0.7691552E-001  0.1986715E+03  0.7546771E-02  0.1150865E+00
          1   -1    0    0  502    0  0.00000000000E+00  0.00000000000E+00  0.18085338164E+04  0.18085338164E+04  0.00000000000E+00 0.  1.
         -1   -1    0    0    0  501 -0.00000000000E+00 -0.00000000000E+00 -0.31032712015E+02  0.31032712015E+02  0.00000000000E+00 0. -1.
          6    1    1    2  502    0  0.82971091099E+02 -0.51547816758E+02  0.38772155543E+03  0.43565856346E+03  0.17300000000E+03 0. -1.
         -6    1    1    2    0  501 -0.82971091099E+02  0.51547816758E+02  0.13897795490E+04  0.14039079650E+04  0.17300000000E+03 0.  1.
<mgrwt>
<rscale>  2 0.19867154E+03</rscale>
<asrwt>0</asrwt>
<pdfrwt beam="1">  1        1 0.27823589E+00 0.19867154E+03</pdfrwt>
<pdfrwt beam="2">  1       -1 0.47742648E-02 0.19867154E+03</pdfrwt>
<totfact> 0.85402558E+02</totfact>
</mgrwt>
</event>
<event>
 4    1  0.7691552E-001  0.2466904E+03  0.7546771E-02  0.1115414E+00
          1   -1    0    0  502    0  0.00000000000E+00  0.00000000000E+00  0.39549298076E+03  0.39549298076E+03  0.00000000000E+00 0.  1.
         -1   -1    0    0    0  501 -0.00000000000E+00 -0.00000000000E+00 -0.21597724717E+03  0.21597724717E+03  0.00000000000E+00 0. -1.
          6    1    1    2  502    0 -0.60273663574E+02 -0.16520970978E+03 -0.74186992793E+02  0.25760410056E+03  0.17300000000E+03 0. -1.
         -6    1    1    2    0  501  0.60273663574E+02  0.16520970978E+03  0.25370272638E+03  0.35386612737E+03  0.17300000000E+03 0.  1.
<mgrwt>
<rscale>  2 0.24669042E+03</rscale>
<asrwt>0</asrwt>
<pdfrwt beam="1">  1        1 0.60845074E-01 0.24669042E+03</pdfrwt>
<pdfrwt beam="2">  1       -1 0.33227269E-01 0.24669042E+03</pdfrwt>
<totfact> 0.52961184E+02</totfact>
</mgrwt>
</event>
<event>
 4    1  0.7691552E-001  0.1805412E+03  0.7546771E-02  0.1167280E+00
          1   -1    0    0  502    0  0.00000000000E+00  0.00000000000E+00  0.70079867721E+03  0.70079867721E+03  0.00000000000E+00 0. -1.
         -1   -1    0    0    0  501 -0.00000000000E+00 -0.00000000000E+00 -0.48761583332E+02  0.48761583332E+02  0.00000000000E+00 0.  1.
          6    1    1    2  502    0  0.38919930376E+02 -0.33931542721E+02  0.40652838518E+03  0.44481506104E+03  0.17300000000E+03 0.  1.
         -6    1    1    2    0  501 -0.38919930376E+02  0.33931542721E+02  0.24550870870E+03  0.30474519950E+03  0.17300000000E+03 0. -1.
<mgrwt>
<rscale>  2 0.18054116E+03</rscale>
<asrwt>0</asrwt>
<pdfrwt beam="1">  1        1 0.10781517E+00 0.18054116E+03</pdfrwt>
<pdfrwt beam="2">  1       -1 0.75017825E-02 0.18054116E+03</pdfrwt>
<totfact> 0.26448832E+03</totfact>
</mgrwt>
</event>
<event>
 4    1  0.7691552E-001  0.1975974E+03  0.7546771E-02  0.1151782E+00
         -1   -1    0    0    0  501 -0.00000000000E+00  0.00000000000E+00  0.52767581768E+02  0.52767581768E+02  0.00000000000E+00 0. -1.
          1   -1    0    0  502    0  0.00000000000E+00 -0.00000000000E+00 -0.80809950873E+03  0.80809950873E+03  0.00000000000E+00 0.  1.
          6    1    1    2  502    0 -0.84249974231E+02 -0.44918356283E+02 -0.25265600350E+03  0.32074876928E+03  0.17300000000E+03 0.  1.
         -6    1    1    2    0  501  0.84249974231E+02  0.44918356283E+02 -0.50267592346E+03  0.54011832122E+03  0.17300000000E+03 0. -1.
<mgrwt>
<rscale>  2 0.19759736E+03</rscale>
<asrwt>0</asrwt>
<pdfrwt beam="2">  1        1 0.12432300E+00 0.19759736E+03</pdfrwt>
<pdfrwt beam="1">  1       -1 0.81180894E-02 0.19759736E+03</pdfrwt>
<totfact> 0.19012203E+03</totfact>
</mgrwt>
</event>
<event>
 4    1  0.7691552E-001  0.1849967E+03  0.7546771E-02  0.1163053E+00
          1   -1    0    0  502    0  0.00000000000E+00  0.00000000000E+00  0.20634451521E+03  0.20634451521E+03  0.00000000000E+00 0.  1.
         -1   -1    0    0    0  501 -0.00000000000E+00 -0.00000000000E+00 -0.22028625598E+03  0.22028625598E+03  0.00000000000E+00 0. -1.
          6    1    1    2  502    0 -0.40109849635E+02  0.51826447912E+02  0.99062550871E+02  0.20985035079E+03  0.17300000000E+03 0.  1.
         -6    1    1    2    0  501  0.40109849635E+02 -0.51826447912E+02 -0.11300429164E+03  0.21678042040E+03  0.17300000000E+03 0. -1.
<mgrwt>
<rscale>  2 0.18499670E+03</rscale>
<asrwt>0</asrwt>
<pdfrwt beam="1">  1        1 0.31745310E-01 0.18499670E+03</pdfrwt>
<pdfrwt beam="2">  1       -1 0.33890193E-01 0.18499670E+03</pdfrwt>
<totfact> 0.11594787E+03</totfact>
</mgrwt>
</event>
<event>
 4    1  0.7691552E-001  0.1772623E+03  0.7546771E-02  0.1170479E+00
         -1   -1    0    0    0  501 -0.00000000000E+00  0.00000000000E+00  0.39919885305E+03  0.39919885305E+03  0.00000000000E+00 0.  1.
          1   -1    0    0  502    0  0.00000000000E+00 -0.00000000000E+00 -0.84368842160E+02  0.84368842160E+02  0.00000000000E+00 0. -1.
          6    1    1    2  502    0 -0.84256143911E+01  0.37708500221E+02  0.22001953891E+03  0.28254295155E+03  0.17300000000E+03 0.  1.
         -6    1    1    2    0  501  0.84256143911E+01 -0.37708500221E+02  0.94810471974E+02  0.20102474366E+03  0.17300000000E+03 0. -1.
<mgrwt>
<rscale>  2 0.17726230E+03</rscale>
<asrwt>0</asrwt>
<pdfrwt beam="2">  1        1 0.12979822E-01 0.17726230E+03</pdfrwt>
<pdfrwt beam="1">  1       -1 0.61415207E-01 0.17726230E+03</pdfrwt>
<totfact> 0.12416752E+03</totfact>
</mgrwt>
</event>
<event>
 4    1  0.7691552E-001  0.1758004E+03  0.7546771E-02  0.1171930E+00
         -1   -1    0    0    0  501 -0.00000000000E+00  0.00000000000E+00  0.75976207771E+02  0.75976207771E+02  0.00000000000E+00 0. -1.
          1   -1    0    0  502    0  0.00000000000E+00 -0.00000000000E+00 -0.40772295741E+03  0.40772295741E+03  0.00000000000E+00 0.  1.
          6    1    1    2  502    0 -0.29545893944E+02  0.10189086438E+02 -0.15425685327E+03  0.23388235101E+03  0.17300000000E+03 0. -1.
         -6    1    1    2    0  501  0.29545893944E+02 -0.10189086438E+02 -0.17748989636E+03  0.24981681417E+03  0.17300000000E+03 0.  1.
<mgrwt>
<rscale>  2 0.17580039E+03</rscale>
<asrwt>0</asrwt>
<pdfrwt beam="2">  1        1 0.62726609E-01 0.17580039E+03</pdfrwt>
<pdfrwt beam="1">  1       -1 0.11688647E-01 0.17580039E+03</pdfrwt>
<totfact> 0.27739002E+03</totfact>
</mgrwt>
</event>
<event>
 4    1  0.7691552E-001  0.1802713E+03  0.7546771E-02  0.1167541E+00
          1   -1    0    0  502    0  0.00000000000E+00  0.00000000000E+00  0.21419527216E+04  0.21419527216E+04  0.00000000000E+00 0. -1.
         -1   -1    0    0    0  501 -0.00000000000E+00 -0.00000000000E+00 -0.19690237602E+02  0.19690237602E+02  0.00000000000E+00 0.  1.
          6    1    1    2  502    0  0.44851682856E+02 -0.23602467367E+02  0.54339084611E+03  0.57251319771E+03  0.17300000000E+03 0.  1.
         -6    1    1    2    0  501 -0.44851682856E+02  0.23602467367E+02  0.15788716379E+04  0.15891297615E+04  0.17300000000E+03 0. -1.
<mgrwt>
<rscale>  2 0.18027132E+03</rscale>
<asrwt>0</asrwt>
<pdfrwt beam="1">  1        1 0.32953100E+00 0.18027132E+03</pdfrwt>
<pdfrwt beam="2">  1       -1 0.30292690E-02 0.18027132E+03</pdfrwt>
<totfact> 0.10237077E+03</totfact>
</mgrwt>
</event>
<event>
 4    1  0.7691552E-001  0.2236647E+03  0.7546771E-02  0.1131180E+00
         -1   -1    0    0    0  501 -0.00000000000E+00  0.00000000000E+00  0.11284328410E+03  0.11284328410E+03  0.00000000000E+00 0.  1.
          1   -1    0    0  502    0  0.00000000000E+00 -0.00000000000E+00 -0.44333702133E+03  0.44333702133E+03  0.00000000000E+00 0. -1.
          6    1    1    2  502    0 -0.87011523204E+02 -0.11191906302E+03 -0.16687916999E+03  0.27906009965E+03  0.17300000000E+03 0.  1.
         -6    1    1    2    0  501  0.87011523204E+02  0.11191906302E+03 -0.16361456725E+03  0.27712020578E+03  0.17300000000E+03 0. -1.
<mgrwt>
<rscale>  2 0.22366466E+03</rscale>
<asrwt>0</asrwt>
<pdfrwt beam="2">  1        1 0.68205697E-01 0.22366466E+03</pdfrwt>
<pdfrwt beam="1">  1       -1 0.17360505E-01 0.22366466E+03</pdfrwt>
<totfact> 0.13426414E+03</totfact>
</mgrwt>
</event>
<event>
 4    1  0.7691552E-001  0.2024310E+03  0.7546771E-02  0.1147704E+00
          2   -1    0    0  502    0  0.00000000000E+00  0.00000000000E+00  0.43237708744E+03  0.43237708744E+03  0.00000000000E+00 0. -1.
         -2   -1    0    0    0  501 -0.00000000000E+00 -0.00000000000E+00 -0.12394625409E+03  0.12394625409E+03  0.00000000000E+00 0.  1.
          6    1    1    2  502    0  0.85807862335E+02  0.60715178190E+02  0.19268844244E+02  0.20334603625E+03  0.17300000000E+03 0.  1.
         -6    1    1    2    0  501 -0.85807862335E+02 -0.60715178190E+02  0.28916198910E+03  0.35297730528E+03  0.17300000000E+03 0. -1.
<mgrwt>
<rscale>  2 0.20243103E+03</rscale>
<asrwt>0</asrwt>
<pdfrwt beam="1">  1        2 0.66519551E-01 0.20243103E+03</pdfrwt>
<pdfrwt beam="2">  1       -2 0.19068655E-01 0.20243103E+03</pdfrwt>
<totfact> 0.16604884E+03</totfact>
</mgrwt>
</event>
<event>
 4    1  0.7691552E-001  0.1829372E+03  0.7546771E-02  0.1164990E+00
          1   -1    0    0  502    0  0.00000000000E+00  0.00000000000E+00  0.14321790210E+03  0.14321790210E+03  0.00000000000E+00 0.  1.
         -1   -1    0    0    0  501 -0.00000000000E+00 -0.00000000000E+00 -0.23621244941E+03  0.23621244941E+03  0.00000000000E+00 0. -1.
          6    1    1    2  502    0 -0.58643063789E+02  0.99000787294E+01 -0.26822857345E+02  0.18489317501E+03  0.17300000000E+03 0.  1.
         -6    1    1    2    0  501  0.58643063789E+02 -0.99000787294E+01 -0.66171689965E+02  0.19453717650E+03  0.17300000000E+03 0. -1.
<mgrwt>
<rscale>  2 0.18293720E+03</rscale>
<asrwt>0</asrwt>
<pdfrwt beam="1">  1        1 0.22033524E-01 0.18293720E+03</pdfrwt>
<pdfrwt beam="2">  1       -1 0.36340376E-01 0.18293720E+03</pdfrwt>
<totfact> 0.16292346E+03</totfact>
</mgrwt>
</event>
<event>
 4    1  0.7691552E-001  0.2951126E+03  0.7546771E-02  0.1087710E+00
          2   -1    0    0  502    0  0.00000000000E+00  0.00000000000E+00  0.20311676037E+04  0.20311676037E+04  0.00000000000E+00 0. -1.
         -2   -1    0    0    0  501 -0.00000000000E+00 -0.00000000000E+00 -0.43021033024E+02  0.43021033024E+02  0.00000000000E+00 0.  1.
          6    1    1    2  502    0 -0.17130586596E+03  0.16678350239E+03  0.10539721244E+04  0.10945084173E+04  0.17300000000E+03 0. -1.
         -6    1    1    2    0  501  0.17130586596E+03 -0.16678350239E+03  0.93417444625E+03  0.97968021946E+03  0.17300000000E+03 0. -1.
<mgrwt>
<rscale>  2 0.29511258E+03</rscale>
<asrwt>0</asrwt>
<pdfrwt beam="1">  1        2 0.31248725E+00 0.29511258E+03</pdfrwt>
<pdfrwt beam="2">  1       -2 0.66186221E-02 0.29511258E+03</pdfrwt>
<totfact> 0.90715927E+02</totfact>
</mgrwt>
</event>
<event>
 4    1  0.7691552E-001  0.1825021E+03  0.7546771E-02  0.1165403E+00
         -1   -1    0    0    0  501 -0.00000000000E+00  0.00000000000E+00  0.12671594199E+04  0.12671594199E+04  0.00000000000E+00 0.  1.
          1   -1    0    0  502    0  0.00000000000E+00 -0.00000000000E+00 -0.26289750731E+02  0.26289750731E+02  0.00000000000E+00 0. -1.
          6    1    1    2  502    0 -0.58109329545E+02 -0.11544132979E+01  0.62931326475E+03  0.65524210185E+03  0.17300000000E+03 0. -1.
         -6    1    1    2    0  501  0.58109329545E+02  0.11544132979E+01  0.61155640440E+03  0.63820706876E+03  0.17300000000E+03 0. -1.
<mgrwt>
<rscale>  2 0.18250213E+03</rscale>
<asrwt>0</asrwt>
<pdfrwt beam="2">  1        1 0.40445780E-02 0.18250213E+03</pdfrwt>
<pdfrwt beam="1">  1       -1 0.19494756E+00 0.18250213E+03</pdfrwt>
<totfact> 0.40401772E+02</totfact>
</mgrwt>
</event>
<event>
 4    1  0.7691552E-001  0.2720074E+03  0.7546771E-02  0.1100136E+00
         -3   -1    0    0    0  501 -0.00000000000E+00  0.00000000000E+00  0.31588580738E+03  0.31588580738E+03  0.00000000000E+00 0.  1.
          3   -1    0    0  502    0  0.00000000000E+00 -0.00000000000E+00 -0.30866228922E+03  0.30866228922E+03  0.00000000000E+00 0. -1.
          6    1    1    2  502    0  0.18226529561E+03  0.10410751863E+03 -0.14974132684E+03  0.31050036777E+03  0.17300000000E+03 0. -1.
         -6    1    1    2    0  501 -0.18226529561E+03 -0.10410751863E+03  0.15696484501E+03  0.31404772884E+03  0.17300000000E+03 0.  1.
<mgrwt>
<rscale>  2 0.27200738E+03</rscale>
<asrwt>0</asrwt>
<pdfrwt beam="2">  1        3 0.47486506E-01 0.27200738E+03</pdfrwt>
<pdfrwt beam="1">  1       -3 0.48597817E-01 0.27200738E+03</pdfrwt>
<totfact> 0.46759452E+01</totfact>
</mgrwt>
</event>
<event>
 4    1  0.7691552E-001  0.3330292E+03  0.7546771E-02  0.1069804E+00
          2   -1    0    0  502    0  0.00000000000E+00  0.00000000000E+00  0.28413639295E+04  0.28413639295E+04  0.00000000000E+00 0.  1.
         -2   -1    0    0    0  501 -0.00000000000E+00 -0.00000000000E+00 -0.40263785577E+02  0.40263785577E+02  0.00000000000E+00 0. -1.
          6    1    1    2  502    0  0.75549782810E+02  0.27435681087E+03  0.11486951693E+04  0.11959970825E+04  0.17300000000E+03 0. -1.
         -6    1    1    2    0  501 -0.75549782810E+02 -0.27435681087E+03  0.16524049746E+04  0.16856306326E+04  0.17300000000E+03 0. -1.
<mgrwt>
<rscale>  2 0.33302917E+03</rscale>
<asrwt>0</asrwt>
<pdfrwt beam="1">  1        2 0.43713276E+00 0.33302917E+03</pdfrwt>
<pdfrwt beam="2">  1       -2 0.61944308E-02 0.33302917E+03</pdfrwt>
<totfact> 0.35840652E+02</totfact>
</mgrwt>
</event>
<event>
 4    1  0.7691552E-001  0.2418419E+03  0.7546771E-02  0.1118572E+00
         -2   -1    0    0    0  501 -0.00000000000E+00  0.00000000000E+00  0.47275761112E+02  0.47275761112E+02  0.00000000000E+00 0.  1.
          2   -1    0    0  502    0  0.00000000000E+00 -0.00000000000E+00 -0.15955306802E+04  0.15955306802E+04  0.00000000000E+00 0. -1.
          6    1    1    2  502    0  0.13570311432E+03 -0.10071325366E+03 -0.11634167354E+04  0.11882870003E+04  0.17300000000E+03 0. -1.
         -6    1    1    2    0  501 -0.13570311432E+03  0.10071325366E+03 -0.38483818367E+03  0.45451944107E+03  0.17300000000E+03 0.  1.
<mgrwt>
<rscale>  2 0.24184188E+03</rscale>
<asrwt>0</asrwt>
<pdfrwt beam="2">  1        2 0.24546621E+00 0.24184188E+03</pdfrwt>
<pdfrwt beam="1">  1       -2 0.72731953E-02 0.24184188E+03</pdfrwt>
<totfact> 0.13354926E+03</totfact>
</mgrwt>
</event>
<event>
 4    1  0.7691552E-001  0.1882238E+03  0.7546771E-02  0.1160073E+00
         -2   -1    0    0    0  501 -0.00000000000E+00  0.00000000000E+00  0.71258391421E+02  0.71258391421E+02  0.00000000000E+00 0. -1.
          2   -1    0    0  502    0  0.00000000000E+00 -0.00000000000E+00 -0.51787249429E+03  0.51787249429E+03  0.00000000000E+00 0.  1.
          6    1    1    2  502    0  0.19779173532E+02  0.71470145187E+02 -0.28218926291E+03  0.33920344553E+03  0.17300000000E+03 0. -1.
         -6    1    1    2    0  501 -0.19779173532E+02 -0.71470145187E+02 -0.16442483996E+03  0.24992744018E+03  0.17300000000E+03 0.  1.
<mgrwt>
<rscale>  2 0.18822380E+03</rscale>
<asrwt>0</asrwt>
<pdfrwt beam="2">  1        2 0.79672689E-01 0.18822380E+03</pdfrwt>
<pdfrwt beam="1">  1       -2 0.10962830E-01 0.18822380E+03</pdfrwt>
<totfact> 0.33707266E+03</totfact>
</mgrwt>
</event>
<event>
 4    1  0.7691552E-001  0.3427302E+03  0.7546771E-02  0.1065639E+00
          2   -1    0    0  502    0  0.00000000000E+00  0.00000000000E+00  0.73285364425E+03  0.73285364425E+03  0.00000000000E+00 0. -1.
         -2   -1    0    0    0  501 -0.00000000000E+00 -0.00000000000E+00 -0.19054892214E+03  0.19054892214E+03  0.00000000000E+00 0.  1.
          6    1    1    2  502    0  0.23865488752E+03  0.17486799575E+03  0.87145134069E+02  0.35363575281E+03  0.17300000000E+03 0.  1.
         -6    1    1    2    0  501 -0.23865488752E+03 -0.17486799575E+03  0.45515958804E+03  0.56976681358E+03  0.17300000000E+03 0. -1.
<mgrwt>
<rscale>  2 0.34273017E+03</rscale>
<asrwt>0</asrwt>
<pdfrwt beam="1">  1        2 0.11274671E+00 0.34273017E+03</pdfrwt>
<pdfrwt beam="2">  1       -2 0.29315219E-01 0.34273017E+03</pdfrwt>
<totfact> 0.42349395E+02</totfact>
</mgrwt>
</event>
<event>
 4    1  0.7691552E-001  0.1733080E+03  0.7546771E-02  0.1174441E+00
          2   -1    0    0  502    0  0.00000000000E+00  0.00000000000E+00  0.62788437560E+03  0.62788437560E+03  0.00000000000E+00 0. -1.
         -2   -1    0    0    0  501 -0.00000000000E+00 -0.00000000000E+00 -0.55718866474E+02  0.55718866474E+02  0.00000000000E+00 0.  1.
          6    1    1    2  502    0 -0.98750559659E+01  0.30252826030E+01  0.41464298434E+03  0.44940457666E+03  0.17300000000E+03 0. -1.
         -6    1    1    2    0  501  0.98750559659E+01 -0.30252826030E+01  0.15752252479E+03  0.23419866541E+03  0.17300000000E+03 0.  1.
<mgrwt>
<rscale>  2 0.17330802E+03</rscale>
<asrwt>0</asrwt>
<pdfrwt beam="1">  1        2 0.96597591E-01 0.17330802E+03</pdfrwt>
<pdfrwt beam="2">  1       -2 0.85721338E-02 0.17330802E+03</pdfrwt>
<totfact> 0.39791589E+03</totfact>
</mgrwt>
</event>
<event>
 4    1  0.7691552E-001  0.5743823E+03  0.7546771E-02  0.9960028E-01
         -2   -1    0    0    0  501 -0.00000000000E+00  0.00000000000E+00  0.38702566832E+03  0.38702566832E+03  0.00000000000E+00 0.  1.
          2   -1    0    0  502    0  0.00000000000E+00 -0.00000000000E+00 -0.10390238294E+04  0.10390238294E+04  0.00000000000E+00 0. -1.
          6    1    1    2  502    0 -0.54750129565E+03 -0.15112054816E+02 -0.23842391747E+02  0.57487694560E+03  0.17300000000E+03 0.  1.
         -6    1    1    2    0  501  0.54750129565E+03  0.15112054816E+02 -0.62815576935E+03  0.85117255213E+03  0.17300000000E+03 0. -1.
<mgrwt>
<rscale>  2 0.57438231E+03</rscale>
<asrwt>0</asrwt>
<pdfrwt beam="2">  1        2 0.15984982E+00 0.57438231E+03</pdfrwt>
<pdfrwt beam="1">  1       -2 0.59542410E-01 0.57438231E+03</pdfrwt>
<totfact> 0.64640085E+01</totfact>
</mgrwt>
</event>
<event>
 4    1  0.7691552E-001  0.1834674E+03  0.7546771E-02  0.1164489E+00
          2   -1    0    0  502    0  0.00000000000E+00  0.00000000000E+00  0.37250602250E+03  0.37250602250E+03  0.00000000000E+00 0. -1.
         -2   -1    0    0    0  501 -0.00000000000E+00 -0.00000000000E+00 -0.25354441253E+03  0.25354441253E+03  0.00000000000E+00 0.  1.
          6    1    1    2  502    0 -0.22316312752E+02 -0.56861982930E+02  0.31060542170E+03  0.36074371915E+03  0.17300000000E+03 0. -1.
         -6    1    1    2    0  501  0.22316312752E+02  0.56861982930E+02 -0.19164381173E+03  0.26530671588E+03  0.17300000000E+03 0.  1.
<mgrwt>
<rscale>  2 0.18346744E+03</rscale>
<asrwt>0</asrwt>
<pdfrwt beam="1">  1        2 0.57308619E-01 0.18346744E+03</pdfrwt>
<pdfrwt beam="2">  1       -2 0.39006833E-01 0.18346744E+03</pdfrwt>
<totfact> 0.54229606E+02</totfact>
</mgrwt>
</event>
<event>
 4    1  0.7691552E-001  0.1932422E+03  0.7546771E-02  0.1155569E+00
         -4   -1    0    0    0  501 -0.00000000000E+00  0.00000000000E+00  0.68564682672E+02  0.68564682672E+02  0.00000000000E+00 0. -1.
          4   -1    0    0  502    0  0.00000000000E+00 -0.00000000000E+00 -0.57901605732E+03  0.57901605732E+03  0.00000000000E+00 0.  1.
          6    1    1    2  502    0  0.52097181889E+02 -0.68552334228E+02 -0.33412904209E+03  0.38598543451E+03  0.17300000000E+03 0.  1.
         -6    1    1    2    0  501 -0.52097181889E+02  0.68552334228E+02 -0.17632233255E+03  0.26159530547E+03  0.17300000000E+03 0. -1.
<mgrwt>
<rscale>  2 0.19324218E+03</rscale>
<asrwt>0</asrwt>
<pdfrwt beam="2">  1        4 0.89079396E-01 0.19324218E+03</pdfrwt>
<pdfrwt beam="1">  1       -4 0.10548412E-01 0.19324218E+03</pdfrwt>
<totfact> 0.13682650E+02</totfact>
</mgrwt>
</event>
<event>
 4    1  0.7691552E-001  0.1764045E+03  0.7546771E-02  0.1171329E+00
         -3   -1    0    0    0  501 -0.00000000000E+00  0.00000000000E+00  0.10531796302E+04  0.10531796302E+04  0.00000000000E+00 0.  1.
          3   -1    0    0  502    0  0.00000000000E+00 -0.00000000000E+00 -0.30332635815E+02  0.30332635815E+02  0.00000000000E+00 0. -1.
          6    1    1    2  502    0  0.67300601580E+01 -0.33826939257E+02  0.42424850014E+03  0.45946201736E+03  0.17300000000E+03 0. -1.
         -6    1    1    2    0  501 -0.67300601580E+01  0.33826939257E+02  0.59859849427E+03  0.62405024868E+03  0.17300000000E+03 0.  1.
<mgrwt>
<rscale>  2 0.17640452E+03</rscale>
<asrwt>0</asrwt>
<pdfrwt beam="2">  1        3 0.46665601E-02 0.17640452E+03</pdfrwt>
<pdfrwt beam="1">  1       -3 0.16202761E+00 0.17640452E+03</pdfrwt>
<totfact> 0.17279722E+02</totfact>
</mgrwt>
</event>
<event>
 4    1  0.7691552E-001  0.1832539E+03  0.7546771E-02  0.1164691E+00
         -2   -1    0    0    0  501 -0.00000000000E+00  0.00000000000E+00  0.18609611220E+02  0.18609611220E+02  0.00000000000E+00 0.  1.
          2   -1    0    0  502    0  0.00000000000E+00 -0.00000000000E+00 -0.19781880365E+04  0.19781880365E+04  0.00000000000E+00 0. -1.
          6    1    1    2  502    0  0.35951999494E+02 -0.48584512535E+02 -0.12755842481E+04  0.12886804006E+04  0.17300000000E+03 0. -1.
         -6    1    1    2    0  501 -0.35951999494E+02  0.48584512535E+02 -0.68399417723E+03  0.70811724708E+03  0.17300000000E+03 0.  1.
<mgrwt>
<rscale>  2 0.18325393E+03</rscale>
<asrwt>0</asrwt>
<pdfrwt beam="2">  1        2 0.30433646E+00 0.18325393E+03</pdfrwt>
<pdfrwt beam="1">  1       -2 0.28630186E-02 0.18325393E+03</pdfrwt>
<totfact> 0.34646470E+03</totfact>
</mgrwt>
</event>
<event>
 4    1  0.7691552E-001  0.2937073E+03  0.7546771E-02  0.1088429E+00
         -1   -1    0    0    0  501 -0.00000000000E+00  0.00000000000E+00  0.35714481007E+03  0.35714481007E+03  0.00000000000E+00 0.  1.
          1   -1    0    0  502    0  0.00000000000E+00 -0.00000000000E+00 -0.29126587921E+03  0.29126587921E+03  0.00000000000E+00 0. -1.
          6    1    1    2  502    0 -0.72235436407E+02  0.22609074261E+03 -0.10102082445E+03  0.31059489555E+03  0.17300000000E+03 0. -1.
         -6    1    1    2    0  501  0.72235436407E+02 -0.22609074261E+03  0.16689975531E+03  0.33781579373E+03  0.17300000000E+03 0.  1.
<mgrwt>
<rscale>  2 0.29370731E+03</rscale>
<asrwt>0</asrwt>
<pdfrwt beam="2">  1        1 0.44810136E-01 0.29370731E+03</pdfrwt>
<pdfrwt beam="1">  1       -1 0.54945355E-01 0.29370731E+03</pdfrwt>
<totfact> 0.31459612E+02</totfact>
</mgrwt>
</event>
<event>
 4    1  0.7691552E-001  0.2717140E+03  0.7546771E-02  0.1100303E+00
          1   -1    0    0  502    0  0.00000000000E+00  0.00000000000E+00  0.24397415228E+03  0.24397415228E+03  0.00000000000E+00 0. -1.
         -1   -1    0    0    0  501 -0.00000000000E+00 -0.00000000000E+00 -0.30898916139E+03  0.30898916139E+03  0.00000000000E+00 0.  1.
          6    1    1    2  502    0  0.18643923689E+03  0.95602970479E+02  0.72250431925E+01  0.27181007756E+03  0.17300000000E+03 0. -1.
         -6    1    1    2    0  501 -0.18643923689E+03 -0.95602970479E+02 -0.72240052307E+02  0.28115323611E+03  0.17300000000E+03 0.  1.
<mgrwt>
<rscale>  2 0.27171404E+03</rscale>
<asrwt>0</asrwt>
<pdfrwt beam="1">  1        1 0.37534485E-01 0.27171404E+03</pdfrwt>
<pdfrwt beam="2">  1       -1 0.47536794E-01 0.27171404E+03</pdfrwt>
<totfact> 0.51606398E+02</totfact>
</mgrwt>
</event>
<event>
 4    1  0.7691552E-001  0.3508507E+03  0.7546771E-02  0.1062266E+00
         -2   -1    0    0    0  501 -0.00000000000E+00  0.00000000000E+00  0.41019750137E+02  0.41019750137E+02  0.00000000000E+00 0.  1.
          2   -1    0    0  502    0  0.00000000000E+00 -0.00000000000E+00 -0.36425318891E+04  0.36425318891E+04  0.00000000000E+00 0. -1.
          6    1    1    2  502    0 -0.29557609170E+03  0.76170874712E+02 -0.10277595097E+04  0.10859953213E+04  0.17300000000E+03 0.  1.
         -6    1    1    2    0  501  0.29557609170E+03 -0.76170874712E+02 -0.25737526293E+04  0.25975563179E+04  0.17300000000E+03 0. -1.
<mgrwt>
<rscale>  2 0.35085072E+03</rscale>
<asrwt>0</asrwt>
<pdfrwt beam="2">  1        2 0.56038954E+00 0.35085072E+03</pdfrwt>
<pdfrwt beam="1">  1       -2 0.63107305E-02 0.35085072E+03</pdfrwt>
<totfact> 0.10829967E+02</totfact>
</mgrwt>
</event>
<event>
 4    1  0.7691552E-001  0.1807972E+03  0.7546771E-02  0.1167034E+00
          1   -1    0    0  502    0  0.00000000000E+00  0.00000000000E+00  0.54439558663E+03  0.54439558663E+03  0.00000000000E+00 0. -1.
         -1   -1    0    0    0  501 -0.00000000000E+00 -0.00000000000E+00 -0.62188580552E+02  0.62188580552E+02  0.00000000000E+00 0.  1.
          6    1    1    2  502    0  0.14149926380E+02 -0.50580617889E+02  0.18477997902E+03  0.25851742682E+03  0.17300000000E+03 0. -1.
         -6    1    1    2    0  501 -0.14149926380E+02  0.50580617889E+02  0.29742702706E+03  0.34806674036E+03  0.17300000000E+03 0. -1.
<mgrwt>
<rscale>  2 0.18079718E+03</rscale>
<asrwt>0</asrwt>
<pdfrwt beam="1">  1        1 0.83753164E-01 0.18079718E+03</pdfrwt>
<pdfrwt beam="2">  1       -1 0.95674743E-02 0.18079718E+03</pdfrwt>
<totfact> 0.25931328E+03</totfact>
</mgrwt>
</event>
<event>
 4    1  0.7691552E-001  0.3508201E+03  0.7546771E-02  0.1062279E+00
          2   -1    0    0  502    0  0.00000000000E+00  0.00000000000E+00  0.47938441379E+03  0.47938441379E+03  0.00000000000E+00 0.  1.
         -2   -1    0    0    0  501 -0.00000000000E+00 -0.00000000000E+00 -0.32306819944E+03  0.32306819944E+03  0.00000000000E+00 0. -1.
          6    1    1    2  502    0  0.29543701392E+03 -0.76568133996E+02  0.25996406142E+03  0.43664175426E+03  0.17300000000E+03 0.  1.
         -6    1    1    2    0  501 -0.29543701392E+03  0.76568133996E+02 -0.10364784706E+03  0.36581085897E+03  0.17300000000E+03 0. -1.
<mgrwt>
<rscale>  2 0.35082005E+03</rscale>
<asrwt>0</asrwt>
<pdfrwt beam="1">  1        2 0.73751448E-01 0.35082005E+03</pdfrwt>
<pdfrwt beam="2">  1       -2 0.49702800E-01 0.35082005E+03</pdfrwt>
<totfact> 0.25446200E+02</totfact>
</mgrwt>
</event>
<event>
 4    1  0.7691552E-001  0.1886700E+03  0.7546771E-02  0.1159666E+00
          2   -1    0    0  502    0  0.00000000000E+00  0.00000000000E+00  0.23429404089E+04  0.23429404089E+04  0.00000000000E+00 0.  1.
         -2   -1    0    0    0  501 -0.00000000000E+00 -0.00000000000E+00 -0.16474065100E+02  0.16474065100E+02  0.00000000000E+00 0. -1.
          6    1    1    2  502    0  0.49446860329E+02  0.56766009824E+02  0.14922012779E+04  0.15040814558E+04  0.17300000000E+03 0.  1.
         -6    1    1    2    0  501 -0.49446860329E+02 -0.56766009824E+02  0.83426506591E+03  0.85533301822E+03  0.17300000000E+03 0. -1.
<mgrwt>
<rscale>  2 0.18867001E+03</rscale>
<asrwt>0</asrwt>
<pdfrwt beam="1">  1        2 0.36045211E+00 0.18867001E+03</pdfrwt>
<pdfrwt beam="2">  1       -2 0.25344734E-02 0.18867001E+03</pdfrwt>
<totfact> 0.26712188E+03</totfact>
</mgrwt>
</event>
<event>
 4    1  0.7691552E-001  0.2062364E+03  0.7546771E-02  0.1144581E+00
         -2   -1    0    0    0  501 -0.00000000000E+00  0.00000000000E+00  0.48000131279E+02  0.48000131279E+02  0.00000000000E+00 0.  1.
          2   -1    0    0  502    0  0.00000000000E+00 -0.00000000000E+00 -0.14386413990E+04  0.14386413990E+04  0.00000000000E+00 0. -1.
          6    1    1    2  502    0  0.10983323413E+03 -0.23261882034E+02 -0.23466329561E+03  0.31241049403E+03  0.17300000000E+03 0.  1.
         -6    1    1    2    0  501 -0.10983323413E+03  0.23261882034E+02 -0.11559779721E+04  0.11742310362E+04  0.17300000000E+03 0. -1.
<mgrwt>
<rscale>  2 0.20623640E+03</rscale>
<asrwt>0</asrwt>
<pdfrwt beam="2">  1        2 0.22132942E+00 0.20623640E+03</pdfrwt>
<pdfrwt beam="1">  1       -2 0.73846364E-02 0.20623640E+03</pdfrwt>
<totfact> 0.15833867E+03</totfact>
</mgrwt>
</event>
<event>
 4    1  0.7691552E-001  0.2007775E+03  0.7546771E-02  0.1149085E+00
         -2   -1    0    0    0  501 -0.00000000000E+00  0.00000000000E+00  0.18827110961E+02  0.18827110961E+02  0.00000000000E+00 0.  1.
          2   -1    0    0  502    0  0.00000000000E+00 -0.00000000000E+00 -0.24492358536E+04  0.24492358536E+04  0.00000000000E+00 0. -1.
          6    1    1    2  502    0  0.55248711223E+01  0.10174525619E+03 -0.16528761901E+04  0.16650259221E+04  0.17300000000E+03 0. -1.
         -6    1    1    2    0  501 -0.55248711223E+01 -0.10174525619E+03 -0.77753255251E+03  0.80303704247E+03  0.17300000000E+03 0. -1.
<mgrwt>
<rscale>  2 0.20077754E+03</rscale>
<asrwt>0</asrwt>
<pdfrwt beam="2">  1        2 0.37680548E+00 0.20077754E+03</pdfrwt>
<pdfrwt beam="1">  1       -2 0.28964789E-02 0.20077754E+03</pdfrwt>
<totfact> 0.19215807E+03</totfact>
</mgrwt>
</event>
<event>
 4    1  0.7691552E-001  0.1855027E+03  0.7546771E-02  0.1162581E+00
         -1   -1    0    0    0  501 -0.00000000000E+00  0.00000000000E+00  0.21382441421E+02  0.21382441421E+02  0.00000000000E+00 0.  1.
          1   -1    0    0  502    0  0.00000000000E+00 -0.00000000000E+00 -0.16317298422E+04  0.16317298422E+04  0.00000000000E+00 0. -1.
          6    1    1    2  502    0  0.45291062371E+01 -0.66796191258E+02 -0.90203347513E+03  0.92091022050E+03  0.17300000000E+03 0.  1.
         -6    1    1    2    0  501 -0.45291062371E+01  0.66796191258E+02 -0.70831392568E+03  0.73220206315E+03  0.17300000000E+03 0.  1.
<mgrwt>
<rscale>  2 0.18550268E+03</rscale>
<asrwt>0</asrwt>
<pdfrwt beam="2">  1        1 0.25103540E+00 0.18550268E+03</pdfrwt>
<pdfrwt beam="1">  1       -1 0.32896058E-02 0.18550268E+03</pdfrwt>
<totfact> 0.19298736E+03</totfact>
</mgrwt>
</event>
<event>
 4    1  0.7691552E-001  0.2212636E+03  0.7546771E-02  0.1132945E+00
         -2   -1    0    0    0  501 -0.00000000000E+00  0.00000000000E+00  0.36016810552E+02  0.36016810552E+02  0.00000000000E+00 0.  1.
          2   -1    0    0  502    0  0.00000000000E+00 -0.00000000000E+00 -0.14925764367E+04  0.14925764367E+04  0.00000000000E+00 0. -1.
          6    1    1    2  502    0 -0.90474999385E+02 -0.10412897630E+03 -0.95666820015E+03  0.98192240752E+03  0.17300000000E+03 0. -1.
         -6    1    1    2    0  501  0.90474999385E+02  0.10412897630E+03 -0.49989142595E+03  0.54667083968E+03  0.17300000000E+03 0.  1.
<mgrwt>
<rscale>  2 0.22126357E+03</rscale>
<asrwt>0</asrwt>
<pdfrwt beam="2">  1        2 0.22962715E+00 0.22126357E+03</pdfrwt>
<pdfrwt beam="1">  1       -2 0.55410476E-02 0.22126357E+03</pdfrwt>
<totfact> 0.23047606E+03</totfact>
</mgrwt>
</event>
<event>
 4    1  0.7691552E-001  0.2097209E+03  0.7546771E-02  0.1141787E+00
         -1   -1    0    0    0  501 -0.00000000000E+00  0.00000000000E+00  0.37251723617E+02  0.37251723617E+02  0.00000000000E+00 0. -1.
          1   -1    0    0  502    0  0.00000000000E+00 -0.00000000000E+00 -0.15228022177E+04  0.15228022177E+04  0.00000000000E+00 0.  1.
          6    1    1    2  502    0 -0.10618479138E+03  0.52713017899E+02 -0.37305786647E+03  0.42796617146E+03  0.17300000000E+03 0. -1.
         -6    1    1    2    0  501  0.10618479138E+03 -0.52713017899E+02 -0.11124926277E+04  0.11320877699E+04  0.17300000000E+03 0.  1.
<mgrwt>
<rscale>  2 0.20972094E+03</rscale>
<asrwt>0</asrwt>
<pdfrwt beam="2">  1        1 0.23427721E+00 0.20972094E+03</pdfrwt>
<pdfrwt beam="1">  1       -1 0.57310357E-02 0.20972094E+03</pdfrwt>
<totfact> 0.99482596E+02</totfact>
</mgrwt>
</event>
<event>
 4    1  0.7691552E-001  0.1919387E+03  0.7546771E-02  0.1156724E+00
         -2   -1    0    0    0  501 -0.00000000000E+00  0.00000000000E+00  0.86359672336E+02  0.86359672336E+02  0.00000000000E+00 0. -1.
          2   -1    0    0  502    0  0.00000000000E+00 -0.00000000000E+00 -0.43211106655E+03  0.43211106655E+03  0.00000000000E+00 0.  1.
          6    1    1    2  502    0  0.71195052221E+02  0.42927024690E+02 -0.20216944199E+03  0.27877042201E+03  0.17300000000E+03 0.  1.
         -6    1    1    2    0  501 -0.71195052221E+02 -0.42927024690E+02 -0.14358195222E+03  0.23970031688E+03  0.17300000000E+03 0.  1.
<mgrwt>
<rscale>  2 0.19193870E+03</rscale>
<asrwt>0</asrwt>
<pdfrwt beam="2">  1        2 0.66478626E-01 0.19193870E+03</pdfrwt>
<pdfrwt beam="1">  1       -2 0.13286103E-01 0.19193870E+03</pdfrwt>
<totfact> 0.30221622E+03</totfact>
</mgrwt>
</event>
<event>
 4    1  0.7691552E-001  0.2678412E+03  0.7546771E-02  0.1102522E+00
         -2   -1    0    0    0  501 -0.00000000000E+00  0.00000000000E+00  0.20312023635E+03  0.20312023635E+03  0.00000000000E+00 0. -1.
          2   -1    0    0  502    0  0.00000000000E+00 -0.00000000000E+00 -0.37786968477E+03  0.37786968477E+03  0.00000000000E+00 0.  1.
          6    1    1    2  502    0  0.18313377774E+03  0.90950071696E+02 -0.16162306711E+03  0.31282728768E+03  0.17300000000E+03 0.  1.
         -6    1    1    2    0  501 -0.18313377774E+03 -0.90950071696E+02 -0.13126381311E+02  0.26816263345E+03  0.17300000000E+03 0. -1.
<mgrwt>
<rscale>  2 0.26784118E+03</rscale>
<asrwt>0</asrwt>
<pdfrwt beam="2">  1        2 0.58133797E-01 0.26784118E+03</pdfrwt>
<pdfrwt beam="1">  1       -2 0.31249267E-01 0.26784118E+03</pdfrwt>
<totfact> 0.80823911E+02</totfact>
</mgrwt>
</event>
<event>
 4    1  0.7691552E-001  0.2009232E+03  0.7546771E-02  0.1148962E+00
         -3   -1    0    0    0  501 -0.00000000000E+00  0.00000000000E+00  0.13518893201E+03  0.13518893201E+03  0.00000000000E+00 0. -1.
          3   -1    0    0  502    0  0.00000000000E+00 -0.00000000000E+00 -0.30671978219E+03  0.30671978219E+03  0.00000000000E+00 0.  1.
          6    1    1    2  502    0  0.10016618012E+03  0.20195754808E+02 -0.49859533571E+02  0.20701716170E+03  0.17300000000E+03 0. -1.
         -6    1    1    2    0  501 -0.10016618012E+03 -0.20195754808E+02 -0.12167131660E+03  0.23489155250E+03  0.17300000000E+03 0.  1.
<mgrwt>
<rscale>  2 0.20092320E+03</rscale>
<asrwt>0</asrwt>
<pdfrwt beam="2">  1        3 0.47187659E-01 0.20092320E+03</pdfrwt>
<pdfrwt beam="1">  1       -3 0.20798297E-01 0.20092320E+03</pdfrwt>
<totfact> 0.22952951E+02</totfact>
</mgrwt>
</event>
<event>
 4    1  0.7691552E-001  0.2252277E+03  0.7546771E-02  0.1130045E+00
         -1   -1    0    0    0  501 -0.00000000000E+00  0.00000000000E+00  0.10801735370E+03  0.10801735370E+03  0.00000000000E+00 0.  1.
          1   -1    0    0  502    0  0.00000000000E+00 -0.00000000000E+00 -0.46965566401E+03  0.46965566401E+03  0.00000000000E+00 0. -1.
          6    1    1    2  502    0  0.82946432519E+02  0.11797630779E+03 -0.18319833821E+03  0.29032593923E+03  0.17300000000E+03 0.  1.
         -6    1    1    2    0  501 -0.82946432519E+02 -0.11797630779E+03 -0.17843997210E+03  0.28734707848E+03  0.17300000000E+03 0. -1.
<mgrwt>
<rscale>  2 0.22522771E+03</rscale>
<asrwt>0</asrwt>
<pdfrwt beam="2">  1        1 0.72254717E-01 0.22522771E+03</pdfrwt>
<pdfrwt beam="1">  1       -1 0.16618055E-01 0.22522771E+03</pdfrwt>
<totfact> 0.13357299E+03</totfact>
</mgrwt>
</event>
<event>
 4    1  0.7691552E-001  0.1898299E+03  0.7546771E-02  0.1158615E+00
         -2   -1    0    0    0  501 -0.00000000000E+00  0.00000000000E+00  0.65150234079E+02  0.65150234079E+02  0.00000000000E+00 0. -1.
          2   -1    0    0  502    0  0.00000000000E+00 -0.00000000000E+00 -0.67246386545E+03  0.67246386545E+03  0.00000000000E+00 0.  1.
          6    1    1    2  502    0  0.53301735011E+02 -0.57143026862E+02 -0.45903093051E+03  0.49673412973E+03  0.17300000000E+03 0.  1.
         -6    1    1    2    0  501 -0.53301735011E+02  0.57143026862E+02 -0.14828270085E+03  0.24087996979E+03  0.17300000000E+03 0. -1.
<mgrwt>
<rscale>  2 0.18982993E+03</rscale>
<asrwt>0</asrwt>
<pdfrwt beam="2">  1        2 0.10345598E+00 0.18982993E+03</pdfrwt>
<pdfrwt beam="1">  1       -2 0.10023113E-01 0.18982993E+03</pdfrwt>
<totfact> 0.28792210E+03</totfact>
</mgrwt>
</event>
<event>
 4    1  0.7691552E-001  0.2446095E+03  0.7546771E-02  0.1116760E+00
         -1   -1    0    0    0  501 -0.00000000000E+00  0.00000000000E+00  0.51142874333E+02  0.51142874333E+02  0.00000000000E+00 0.  1.
          1   -1    0    0  502    0  0.00000000000E+00 -0.00000000000E+00 -0.12517056909E+04  0.12517056909E+04  0.00000000000E+00 0. -1.
          6    1    1    2  502    0 -0.16699910492E+03 -0.44900938739E+02 -0.43378153243E+03  0.49799619799E+03  0.17300000000E+03 0.  1.
         -6    1    1    2    0  501  0.16699910492E+03  0.44900938739E+02 -0.76678128418E+03  0.80485236727E+03  0.17300000000E+03 0. -1.
<mgrwt>
<rscale>  2 0.24460948E+03</rscale>
<asrwt>0</asrwt>
<pdfrwt beam="2">  1        1 0.19257010E+00 0.24460948E+03</pdfrwt>
<pdfrwt beam="1">  1       -1 0.78681348E-02 0.24460948E+03</pdfrwt>
<totfact> 0.93335697E+02</totfact>
</mgrwt>
</event>
<event>
 4    1  0.7691552E-001  0.1788071E+03  0.7546771E-02  0.1168963E+00
         -1   -1    0    0    0  501 -0.00000000000E+00  0.00000000000E+00  0.27989226687E+02  0.27989226687E+02  0.00000000000E+00 0.  1.
          1   -1    0    0  502    0  0.00000000000E+00 -0.00000000000E+00 -0.11423147583E+04  0.11423147583E+04  0.00000000000E+00 0. -1.
          6    1    1    2  502    0 -0.43734652071E+02 -0.11412376745E+02 -0.55474779338E+03  0.58285253400E+03  0.17300000000E+03 0.  1.
         -6    1    1    2    0  501  0.43734652071E+02  0.11412376745E+02 -0.55957773819E+03  0.58745145094E+03  0.17300000000E+03 0.  1.
<mgrwt>
<rscale>  2 0.17880705E+03</rscale>
<asrwt>0</asrwt>
<pdfrwt beam="2">  1        1 0.17574074E+00 0.17880705E+03</pdfrwt>
<pdfrwt beam="1">  1       -1 0.43060347E-02 0.17880705E+03</pdfrwt>
<totfact> 0.27536586E+03</totfact>
</mgrwt>
</event>
<event>
 4    1  0.7691552E-001  0.2013852E+03  0.7546771E-02  0.1148576E+00
         -2   -1    0    0    0  501 -0.00000000000E+00  0.00000000000E+00  0.22742129541E+02  0.22742129541E+02  0.00000000000E+00 0. -1.
          2   -1    0    0  502    0  0.00000000000E+00 -0.00000000000E+00 -0.17844668378E+04  0.17844668378E+04  0.00000000000E+00 0.  1.
          6    1    1    2  502    0 -0.10308495589E+03  0.69262215745E+00 -0.85773358779E+03  0.88105782754E+03  0.17300000000E+03 0.  1.
         -6    1    1    2    0  501  0.10308495589E+03 -0.69262215745E+00 -0.90399112045E+03  0.92615113978E+03  0.17300000000E+03 0.  1.
<mgrwt>
<rscale>  2 0.20138517E+03</rscale>
<asrwt>0</asrwt>
<pdfrwt beam="2">  1        2 0.27453331E+00 0.20138517E+03</pdfrwt>
<pdfrwt beam="1">  1       -2 0.34987898E-02 0.20138517E+03</pdfrwt>
<totfact> 0.32416540E+03</totfact>
</mgrwt>
</event>
<event>
 4    1  0.7691552E-001  0.1802793E+03  0.7546771E-02  0.1167533E+00
         -2   -1    0    0    0  501 -0.00000000000E+00  0.00000000000E+00  0.48941436038E+02  0.48941436038E+02  0.00000000000E+00 0. -1.
          2   -1    0    0  502    0  0.00000000000E+00 -0.00000000000E+00 -0.67262565446E+03  0.67262565446E+03  0.00000000000E+00 0.  1.
          6    1    1    2  502    0  0.41695735048E+02  0.28863276839E+02 -0.27115627302E+03  0.32561687221E+03  0.17300000000E+03 0. -1.
         -6    1    1    2    0  501 -0.41695735048E+02 -0.28863276839E+02 -0.35252794540E+03  0.39595021828E+03  0.17300000000E+03 0. -1.
<mgrwt>
<rscale>  2 0.18027929E+03</rscale>
<asrwt>0</asrwt>
<pdfrwt beam="2">  1        2 0.10348087E+00 0.18027929E+03</pdfrwt>
<pdfrwt beam="1">  1       -2 0.75294518E-02 0.18027929E+03</pdfrwt>
<totfact> 0.44968951E+03</totfact>
</mgrwt>
</event>
<event>
 4    1  0.7691552E-001  0.1991085E+03  0.7546771E-02  0.1150493E+00
         -3   -1    0    0    0  501 -0.00000000000E+00  0.00000000000E+00  0.21543653870E+04  0.21543653870E+04  0.00000000000E+00 0.  1.
          3   -1    0    0  502    0  0.00000000000E+00 -0.00000000000E+00 -0.18785978349E+02  0.18785978349E+02  0.00000000000E+00 0. -1.
          6    1    1    2  502    0 -0.26138670681E+02  0.95036619118E+02  0.12231759730E+04  0.12392754536E+04  0.17300000000E+03 0.  1.
         -6    1    1    2    0  501  0.26138670681E+02 -0.95036619118E+02  0.91240343568E+03  0.93387591174E+03  0.17300000000E+03 0. -1.
<mgrwt>
<rscale>  2 0.19910849E+03</rscale>
<asrwt>0</asrwt>
<pdfrwt beam="2">  1        3 0.28901522E-02 0.19910849E+03</pdfrwt>
<pdfrwt beam="1">  1       -3 0.33144063E+00 0.19910849E+03</pdfrwt>
<totfact> 0.40002385E+01</totfact>
</mgrwt>
</event>
<event>
 4    1  0.7691552E-001  0.2701015E+03  0.7546771E-02  0.1101222E+00
          2   -1    0    0  502    0  0.00000000000E+00  0.00000000000E+00  0.51772478542E+02  0.51772478542E+02  0.00000000000E+00 0. -1.
         -2   -1    0    0    0  501 -0.00000000000E+00 -0.00000000000E+00 -0.15065426862E+04  0.15065426862E+04  0.00000000000E+00 0.  1.
          6    1    1    2  502    0 -0.16259974110E+03  0.12879110518E+03 -0.52927190563E+03  0.59420835964E+03  0.17300000000E+03 0.  1.
         -6    1    1    2    0  501  0.16259974110E+03 -0.12879110518E+03 -0.92549830201E+03  0.96410680509E+03  0.17300000000E+03 0.  1.
<mgrwt>
<rscale>  2 0.27010151E+03</rscale>
<asrwt>0</asrwt>
<pdfrwt beam="1">  1        2 0.79649966E-02 0.27010151E+03</pdfrwt>
<pdfrwt beam="2">  1       -2 0.23177580E+00 0.27010151E+03</pdfrwt>
<totfact> 0.78589553E+01</totfact>
</mgrwt>
</event>
<event>
 4    1  0.7691552E-001  0.2244332E+03  0.7546771E-02  0.1130620E+00
          2   -1    0    0  502    0  0.00000000000E+00  0.00000000000E+00  0.15840620910E+04  0.15840620910E+04  0.00000000000E+00 0.  1.
         -2   -1    0    0    0  501 -0.00000000000E+00 -0.00000000000E+00 -0.55525252725E+02  0.55525252725E+02  0.00000000000E+00 0. -1.
          6    1    1    2  502    0 -0.14081520202E+03  0.24745696749E+02  0.13001656229E+04  0.13193941479E+04  0.17300000000E+03 0.  1.
         -6    1    1    2    0  501  0.14081520202E+03 -0.24745696749E+02  0.22837121542E+03  0.32019319584E+03  0.17300000000E+03 0. -1.
<mgrwt>
<rscale>  2 0.22443322E+03</rscale>
<asrwt>0</asrwt>
<pdfrwt beam="1">  1        2 0.24370183E+00 0.22443322E+03</pdfrwt>
<pdfrwt beam="2">  1       -2 0.85423478E-02 0.22443322E+03</pdfrwt>
<totfact> 0.10547908E+03</totfact>
</mgrwt>
</event>
<event>
 4    1  0.7691552E-001  0.1811841E+03  0.7546771E-02  0.1166662E+00
          2   -1    0    0  502    0  0.00000000000E+00  0.00000000000E+00  0.19985986117E+04  0.19985986117E+04  0.00000000000E+00 0.  1.
         -2   -1    0    0    0  501 -0.00000000000E+00 -0.00000000000E+00 -0.16604321696E+02  0.16604321696E+02  0.00000000000E+00 0. -1.
          6    1    1    2  502    0 -0.48810917759E+02 -0.22719096713E+02  0.88638509204E+03  0.90471332169E+03  0.17300000000E+03 0. -1.
         -6    1    1    2    0  501  0.48810917759E+02  0.22719096713E+02  0.10956091980E+04  0.11104896117E+04  0.17300000000E+03 0. -1.
<mgrwt>
<rscale>  2 0.18118406E+03</rscale>
<asrwt>0</asrwt>
<pdfrwt beam="1">  1        2 0.30747652E+00 0.18118406E+03</pdfrwt>
<pdfrwt beam="2">  1       -2 0.25545126E-02 0.18118406E+03</pdfrwt>
<totfact> 0.40006066E+03</totfact>
</mgrwt>
</event>
<event>
 4    1  0.7691552E-001  0.2830128E+03  0.7546771E-02  0.1094055E+00
         -2   -1    0    0    0  501 -0.00000000000E+00  0.00000000000E+00  0.65190465351E+02  0.65190465351E+02  0.00000000000E+00 0. -1.
          2   -1    0    0  502    0  0.00000000000E+00 -0.00000000000E+00 -0.19343207314E+04  0.19343207314E+04  0.00000000000E+00 0.  1.
          6    1    1    2  502    0 -0.50869927702E+02  0.21812727038E+03 -0.15384173977E+04  0.15642328296E+04  0.17300000000E+03 0.  1.
         -6    1    1    2    0  501  0.50869927702E+02 -0.21812727038E+03 -0.33071286836E+03  0.43527836717E+03  0.17300000000E+03 0. -1.
<mgrwt>
<rscale>  2 0.28301282E+03</rscale>
<asrwt>0</asrwt>
<pdfrwt beam="2">  1        2 0.29758778E+00 0.28301282E+03</pdfrwt>
<pdfrwt beam="1">  1       -2 0.10029303E-01 0.28301282E+03</pdfrwt>
<totfact> 0.53131980E+02</totfact>
</mgrwt>
</event>
<event>
 4    1  0.7691552E-001  0.2975391E+03  0.7546771E-02  0.1086477E+00
          2   -1    0    0  502    0  0.00000000000E+00  0.00000000000E+00  0.19927313570E+04  0.19927313570E+04  0.00000000000E+00 0.  1.
         -2   -1    0    0    0  501 -0.00000000000E+00 -0.00000000000E+00 -0.79889586396E+02  0.79889586396E+02  0.00000000000E+00 0. -1.
          6    1    1    2  502    0  0.15306765425E+03  0.18753889479E+03  0.16468748245E+04  0.16735370421E+04  0.17300000000E+03 0. -1.
         -6    1    1    2    0  501 -0.15306765425E+03 -0.18753889479E+03  0.26596694615E+03  0.39908390130E+03  0.17300000000E+03 0. -1.
<mgrwt>
<rscale>  2 0.29753915E+03</rscale>
<asrwt>0</asrwt>
<pdfrwt beam="1">  1        2 0.30657402E+00 0.29753915E+03</pdfrwt>
<pdfrwt beam="2">  1       -2 0.12290707E-01 0.29753915E+03</pdfrwt>
<totfact> 0.35565520E+02</totfact>
</mgrwt>
</event>
<event>
 4    1  0.7691552E-001  0.1763697E+03  0.7546771E-02  0.1171363E+00
          1   -1    0    0  502    0  0.00000000000E+00  0.00000000000E+00  0.51808016100E+03  0.51808016100E+03  0.00000000000E+00 0.  1.
         -1   -1    0    0    0  501 -0.00000000000E+00 -0.00000000000E+00 -0.62094904008E+02  0.62094904008E+02  0.00000000000E+00 0. -1.
          6    1    1    2  502    0 -0.34281878371E+02  0.14213249556E+01  0.17523964951E+03  0.24862663194E+03  0.17300000000E+03 0. -1.
         -6    1    1    2    0  501  0.34281878371E+02 -0.14213249556E+01  0.28074560749E+03  0.33154843307E+03  0.17300000000E+03 0.  1.
<mgrwt>
<rscale>  2 0.17636969E+03</rscale>
<asrwt>0</asrwt>
<pdfrwt beam="1">  1        1 0.79704637E-01 0.17636969E+03</pdfrwt>
<pdfrwt beam="2">  1       -1 0.95530625E-02 0.17636969E+03</pdfrwt>
<totfact> 0.27745600E+03</totfact>
</mgrwt>
</event>
<event>
 4    1  0.7691552E-001  0.2556213E+03  0.7546771E-02  0.1109803E+00
         -1   -1    0    0    0  501 -0.00000000000E+00  0.00000000000E+00  0.67704732144E+02  0.67704732144E+02  0.00000000000E+00 0.  1.
          1   -1    0    0  502    0  0.00000000000E+00 -0.00000000000E+00 -0.97590512286E+03  0.97590512286E+03  0.00000000000E+00 0. -1.
          6    1    1    2  502    0  0.14139972462E+03  0.12417464399E+03 -0.39920880544E+03  0.47403575252E+03  0.17300000000E+03 0.  1.
         -6    1    1    2    0  501 -0.14139972462E+03 -0.12417464399E+03 -0.50899158529E+03  0.56957410249E+03  0.17300000000E+03 0. -1.
<mgrwt>
<rscale>  2 0.25562125E+03</rscale>
<asrwt>0</asrwt>
<pdfrwt beam="2">  1        1 0.15013925E+00 0.25562125E+03</pdfrwt>
<pdfrwt beam="1">  1       -1 0.10416113E-01 0.25562125E+03</pdfrwt>
<totfact> 0.95607496E+02</totfact>
</mgrwt>
</event>
<event>
 4    1  0.7691552E-001  0.7920818E+03  0.7546771E-02  0.9571550E-01
          2   -1    0    0  502    0  0.00000000000E+00  0.00000000000E+00  0.88988562040E+03  0.88988562040E+03  0.00000000000E+00 0. -1.
         -2   -1    0    0    0  501 -0.00000000000E+00 -0.00000000000E+00 -0.70539327758E+03  0.70539327758E+03  0.00000000000E+00 0.  1.
          6    1    1    2  502    0  0.56107243504E+03 -0.53165989091E+03  0.74073822671E+02  0.79553783579E+03  0.17300000000E+03 0. -1.
         -6    1    1    2    0  501 -0.56107243504E+03  0.53165989091E+03  0.11041852015E+03  0.79974106219E+03  0.17300000000E+03 0.  1.
<mgrwt>
<rscale>  2 0.79208176E+03</rscale>
<asrwt>0</asrwt>
<pdfrwt beam="1">  1        2 0.13690548E+00 0.79208176E+03</pdfrwt>
<pdfrwt beam="2">  1       -2 0.10852204E+00 0.79208176E+03</pdfrwt>
<totfact> 0.20450347E+01</totfact>
</mgrwt>
</event>
<event>
 4    1  0.7691552E-001  0.2019884E+03  0.7546771E-02  0.1148072E+00
          2   -1    0    0  502    0  0.00000000000E+00  0.00000000000E+00  0.12133824354E+03  0.12133824354E+03  0.00000000000E+00 0. -1.
         -2   -1    0    0    0  501 -0.00000000000E+00 -0.00000000000E+00 -0.37397324514E+03  0.37397324514E+03  0.00000000000E+00 0.  1.
          6    1    1    2  502    0  0.97937191550E+02 -0.35757888475E+02 -0.20497935427E+03  0.28777744136E+03  0.17300000000E+03 0.  1.
         -6    1    1    2    0  501 -0.97937191550E+02  0.35757888475E+02 -0.47655647336E+02  0.20753404733E+03  0.17300000000E+03 0. -1.
<mgrwt>
<rscale>  2 0.20198842E+03</rscale>
<asrwt>0</asrwt>
<pdfrwt beam="1">  1        2 0.18667422E-01 0.20198842E+03</pdfrwt>
<pdfrwt beam="2">  1       -2 0.57534344E-01 0.20198842E+03</pdfrwt>
<totfact> 0.86329811E+02</totfact>
</mgrwt>
</event>
<event>
 4    1  0.7691552E-001  0.1827437E+03  0.7546771E-02  0.1165174E+00
         -1   -1    0    0    0  501 -0.00000000000E+00  0.00000000000E+00  0.83138338043E+02  0.83138338043E+02  0.00000000000E+00 0. -1.
          1   -1    0    0  502    0  0.00000000000E+00 -0.00000000000E+00 -0.40191151580E+03  0.40191151580E+03  0.00000000000E+00 0.  1.
          6    1    1    2  502    0  0.51682622254E+02 -0.28198799168E+02 -0.16516821585E+03  0.24632459326E+03  0.17300000000E+03 0. -1.
         -6    1    1    2    0  501 -0.51682622254E+02  0.28198799168E+02 -0.15360496191E+03  0.23872526058E+03  0.17300000000E+03 0. -1.
<mgrwt>
<rscale>  2 0.18274372E+03</rscale>
<asrwt>0</asrwt>
<pdfrwt beam="2">  1        1 0.61832539E-01 0.18274372E+03</pdfrwt>
<pdfrwt beam="1">  1       -1 0.12790514E-01 0.18274372E+03</pdfrwt>
<totfact> 0.24588805E+03</totfact>
</mgrwt>
</event>
<event>
 4    1  0.7691552E-001  0.1941656E+03  0.7546771E-02  0.1154757E+00
         -1   -1    0    0    0  501 -0.00000000000E+00  0.00000000000E+00  0.21820900203E+03  0.21820900203E+03  0.00000000000E+00 0.  1.
          1   -1    0    0  502    0  0.00000000000E+00 -0.00000000000E+00 -0.55198547816E+03  0.55198547816E+03  0.00000000000E+00 0. -1.
          6    1    1    2  502    0 -0.85672897289E+02  0.20771437468E+02  0.15230137124E+03  0.24677116044E+03  0.17300000000E+03 0.  1.
         -6    1    1    2    0  501  0.85672897289E+02 -0.20771437468E+02 -0.48607784737E+03  0.52342331974E+03  0.17300000000E+03 0. -1.
<mgrwt>
<rscale>  2 0.19416565E+03</rscale>
<asrwt>0</asrwt>
<pdfrwt beam="2">  1        1 0.84920840E-01 0.19416565E+03</pdfrwt>
<pdfrwt beam="1">  1       -1 0.33570617E-01 0.19416565E+03</pdfrwt>
<totfact> 0.33719773E+02</totfact>
</mgrwt>
</event>
<event>
 4    1  0.7691552E-001  0.1910833E+03  0.7546771E-02  0.1157488E+00
         -2   -1    0    0    0  501 -0.00000000000E+00  0.00000000000E+00  0.78276025982E+02  0.78276025982E+02  0.00000000000E+00 0.  1.
          2   -1    0    0  502    0  0.00000000000E+00 -0.00000000000E+00 -0.47141154539E+03  0.47141154539E+03  0.00000000000E+00 0. -1.
          6    1    1    2  502    0  0.74923508180E+02  0.31149334785E+02 -0.16840621860E+03  0.25470270434E+03  0.17300000000E+03 0.  1.
         -6    1    1    2    0  501 -0.74923508180E+02 -0.31149334785E+02 -0.22472930082E+03  0.29498486704E+03  0.17300000000E+03 0.  1.
<mgrwt>
<rscale>  2 0.19108326E+03</rscale>
<asrwt>0</asrwt>
<pdfrwt beam="2">  1        2 0.72524853E-01 0.19108326E+03</pdfrwt>
<pdfrwt beam="1">  1       -2 0.12042466E-01 0.19108326E+03</pdfrwt>
<totfact> 0.32201686E+03</totfact>
</mgrwt>
</event>
<event>
 4    1  0.7691552E-001  0.1881418E+03  0.7546771E-02  0.1160148E+00
         -2   -1    0    0    0  501 -0.00000000000E+00  0.00000000000E+00  0.38353754510E+03  0.38353754510E+03  0.00000000000E+00 0. -1.
          2   -1    0    0  502    0  0.00000000000E+00 -0.00000000000E+00 -0.92988205005E+02  0.92988205005E+02  0.00000000000E+00 0.  1.
          6    1    1    2  502    0  0.45549159079E+02  0.58254641725E+02  0.12465380387E+03  0.22568983139E+03  0.17300000000E+03 0.  1.
         -6    1    1    2    0  501 -0.45549159079E+02 -0.58254641725E+02  0.16589553622E+03  0.25083591871E+03  0.17300000000E+03 0.  1.
<mgrwt>
<rscale>  2 0.18814178E+03</rscale>
<asrwt>0</asrwt>
<pdfrwt beam="2">  1        2 0.14305878E-01 0.18814178E+03</pdfrwt>
<pdfrwt beam="1">  1       -2 0.59005775E-01 0.18814178E+03</pdfrwt>
<totfact> 0.11171507E+03</totfact>
</mgrwt>
</event>
<event>
 4    1  0.7691552E-001  0.2269303E+03  0.7546771E-02  0.1128819E+00
         -2   -1    0    0    0  501 -0.00000000000E+00  0.00000000000E+00  0.69564943029E+02  0.69564943029E+02  0.00000000000E+00 0. -1.
          2   -1    0    0  502    0  0.00000000000E+00 -0.00000000000E+00 -0.94534468309E+03  0.94534468309E+03  0.00000000000E+00 0.  1.
          6    1    1    2  502    0 -0.11377229138E+03  0.92866655249E+02 -0.67423711879E+03  0.71140216636E+03  0.17300000000E+03 0.  1.
         -6    1    1    2    0  501  0.11377229138E+03 -0.92866655249E+02 -0.20154262127E+03  0.30350745976E+03  0.17300000000E+03 0. -1.
<mgrwt>
<rscale>  2 0.22693028E+03</rscale>
<asrwt>0</asrwt>
<pdfrwt beam="2">  1        2 0.14543764E+00 0.22693028E+03</pdfrwt>
<pdfrwt beam="1">  1       -2 0.10702299E-01 0.22693028E+03</pdfrwt>
<totfact> 0.16887475E+03</totfact>
</mgrwt>
</event>
<event>
 4    1  0.7691552E-001  0.1821703E+03  0.7546771E-02  0.1165719E+00
         -2   -1    0    0    0  501 -0.00000000000E+00  0.00000000000E+00  0.41777228255E+02  0.41777228255E+02  0.00000000000E+00 0. -1.
          2   -1    0    0  502    0  0.00000000000E+00 -0.00000000000E+00 -0.22674851392E+04  0.22674851392E+04  0.00000000000E+00 0.  1.
          6    1    1    2  502    0  0.11115795145E+02 -0.55977350079E+02 -0.18219330337E+03  0.25764398773E+03  0.17300000000E+03 0. -1.
         -6    1    1    2    0  501 -0.11115795145E+02  0.55977350079E+02 -0.20435146075E+04  0.20516183797E+04  0.17300000000E+03 0.  1.
<mgrwt>
<rscale>  2 0.18217032E+03</rscale>
<asrwt>0</asrwt>
<pdfrwt beam="2">  1        2 0.34884387E+00 0.18217032E+03</pdfrwt>
<pdfrwt beam="1">  1       -2 0.64272659E-02 0.18217032E+03</pdfrwt>
<totfact> 0.72597376E+02</totfact>
</mgrwt>
</event>
<event>
 4    1  0.7691552E-001  0.1764973E+03  0.7546771E-02  0.1171237E+00
         -2   -1    0    0    0  501 -0.00000000000E+00  0.00000000000E+00  0.85881836390E+02  0.85881836390E+02  0.00000000000E+00 0. -1.
          2   -1    0    0  502    0  0.00000000000E+00 -0.00000000000E+00 -0.48439340446E+03  0.48439340446E+03  0.00000000000E+00 0.  1.
          6    1    1    2  502    0 -0.16542365469E+02 -0.30799889286E+02 -0.56350397438E+02  0.18527452692E+03  0.17300000000E+03 0. -1.
         -6    1    1    2    0  501  0.16542365469E+02  0.30799889286E+02 -0.34216117063E+03  0.38500071392E+03  0.17300000000E+03 0.  1.
<mgrwt>
<rscale>  2 0.17649726E+03</rscale>
<asrwt>0</asrwt>
<pdfrwt beam="2">  1        2 0.74522061E-01 0.17649726E+03</pdfrwt>
<pdfrwt beam="1">  1       -2 0.13212590E-01 0.17649726E+03</pdfrwt>
<totfact> 0.26829576E+03</totfact>
</mgrwt>
</event>
<event>
 4    1  0.7691552E-001  0.2221850E+03  0.7546771E-02  0.1132264E+00
         -2   -1    0    0    0  501 -0.00000000000E+00  0.00000000000E+00  0.36043816086E+02  0.36043816086E+02  0.00000000000E+00 0.  1.
          2   -1    0    0  502    0  0.00000000000E+00 -0.00000000000E+00 -0.14647560551E+04  0.14647560551E+04  0.00000000000E+00 0. -1.
          6    1    1    2  502    0 -0.42358821920E+02  0.13282657637E+03 -0.52310984754E+03  0.56833975910E+03  0.17300000000E+03 0.  1.
         -6    1    1    2    0  501  0.42358821920E+02 -0.13282657637E+03 -0.90560239152E+03  0.93246011213E+03  0.17300000000E+03 0. -1.
<mgrwt>
<rscale>  2 0.22218499E+03</rscale>
<asrwt>0</asrwt>
<pdfrwt beam="2">  1        2 0.22534707E+00 0.22218499E+03</pdfrwt>
<pdfrwt beam="1">  1       -2 0.55452028E-02 0.22218499E+03</pdfrwt>
<totfact> 0.23821548E+03</totfact>
</mgrwt>
</event>
<event>
 4    1  0.7691552E-001  0.3057878E+03  0.7546771E-02  0.1082383E+00
          2   -1    0    0  502    0  0.00000000000E+00  0.00000000000E+00  0.20868402348E+04  0.20868402348E+04  0.00000000000E+00 0. -1.
         -2   -1    0    0    0  501 -0.00000000000E+00 -0.00000000000E+00 -0.46069617478E+02  0.46069617478E+02  0.00000000000E+00 0.  1.
          6    1    1    2  502    0  0.20800730515E+03 -0.14251361134E+03  0.84387139590E+03  0.89756620995E+03  0.17300000000E+03 0.  1.
         -6    1    1    2    0  501 -0.20800730515E+03  0.14251361134E+03  0.11968992214E+04  0.12353436423E+04  0.17300000000E+03 0. -1.
<mgrwt>
<rscale>  2 0.30578778E+03</rscale>
<asrwt>0</asrwt>
<pdfrwt beam="1">  1        2 0.32105227E+00 0.30578778E+03</pdfrwt>
<pdfrwt beam="2">  1       -2 0.70876351E-02 0.30578778E+03</pdfrwt>
<totfact> 0.76086113E+02</totfact>
</mgrwt>
</event>
<event>
 4    1  0.7691552E-001  0.2009904E+03  0.7546771E-02  0.1148906E+00
          2   -1    0    0  502    0  0.00000000000E+00  0.00000000000E+00  0.15279220187E+03  0.15279220187E+03  0.00000000000E+00 0.  1.
         -2   -1    0    0    0  501 -0.00000000000E+00 -0.00000000000E+00 -0.26736333654E+03  0.26736333654E+03  0.00000000000E+00 0. -1.
          6    1    1    2  502    0 -0.30898593489E+02 -0.97536828573E+02 -0.79429135689E+02  0.21611604199E+03  0.17300000000E+03 0.  1.
         -6    1    1    2    0  501  0.30898593489E+02  0.97536828573E+02 -0.35141998981E+02  0.20403949642E+03  0.17300000000E+03 0.  1.
<mgrwt>
<rscale>  2 0.20099044E+03</rscale>
<asrwt>0</asrwt>
<pdfrwt beam="1">  1        2 0.23506493E-01 0.20099044E+03</pdfrwt>
<pdfrwt beam="2">  1       -2 0.41132821E-01 0.20099044E+03</pdfrwt>
<totfact> 0.12915919E+03</totfact>
</mgrwt>
</event>
<event>
 4    1  0.7691552E-001  0.1739785E+03  0.7546771E-02  0.1173761E+00
         -1   -1    0    0    0  501 -0.00000000000E+00  0.00000000000E+00  0.63932671511E+02  0.63932671511E+02  0.00000000000E+00 0. -1.
          1   -1    0    0  502    0  0.00000000000E+00 -0.00000000000E+00 -0.50812880572E+03  0.50812880572E+03  0.00000000000E+00 0.  1.
          6    1    1    2  502    0  0.16144582085E+02  0.88803236556E+01 -0.14736744949E+03  0.22800366850E+03  0.17300000000E+03 0. -1.
         -6    1    1    2    0  501 -0.16144582085E+02 -0.88803236556E+01 -0.29682868472E+03  0.34405780873E+03  0.17300000000E+03 0.  1.
<mgrwt>
<rscale>  2 0.17397847E+03</rscale>
<asrwt>0</asrwt>
<pdfrwt beam="2">  1        1 0.78173662E-01 0.17397847E+03</pdfrwt>
<pdfrwt beam="1">  1       -1 0.98357956E-02 0.17397847E+03</pdfrwt>
<totfact> 0.27209741E+03</totfact>
</mgrwt>
</event>
<event>
 4    1  0.7691552E-001  0.1814514E+03  0.7546771E-02  0.1166406E+00
          2   -1    0    0  502    0  0.00000000000E+00  0.00000000000E+00  0.17926243686E+04  0.17926243686E+04  0.00000000000E+00 0. -1.
         -2   -1    0    0    0  501 -0.00000000000E+00 -0.00000000000E+00 -0.19628077536E+02  0.19628077536E+02  0.00000000000E+00 0.  1.
          6    1    1    2  502    0 -0.29366586369E+02  0.46186877731E+02  0.11162026301E+04  0.11308549578E+04  0.17300000000E+03 0. -1.
         -6    1    1    2    0  501  0.29366586369E+02 -0.46186877731E+02  0.65679366093E+03  0.68139748834E+03  0.17300000000E+03 0.  1.
<mgrwt>
<rscale>  2 0.18145144E+03</rscale>
<asrwt>0</asrwt>
<pdfrwt beam="1">  1        2 0.27578824E+00 0.18145144E+03</pdfrwt>
<pdfrwt beam="2">  1       -2 0.30197056E-02 0.18145144E+03</pdfrwt>
<totfact> 0.39938461E+03</totfact>
</mgrwt>
</event>
<event>
 4    1  0.7691552E-001  0.1744161E+03  0.7546771E-02  0.1173319E+00
          3   -1    0    0  502    0  0.00000000000E+00  0.00000000000E+00  0.83438089267E+03  0.83438089267E+03  0.00000000000E+00 0. -1.
         -3   -1    0    0    0  501 -0.00000000000E+00 -0.00000000000E+00 -0.37773287530E+02  0.37773287530E+02  0.00000000000E+00 0.  1.
          6    1    1    2  502    0  0.20854278578E+02  0.75541869117E+01  0.47963588031E+03  0.51036412918E+03  0.17300000000E+03 0. -1.
         -6    1    1    2    0  501 -0.20854278578E+02 -0.75541869117E+01  0.31697172483E+03  0.36179005102E+03  0.17300000000E+03 0.  1.
<mgrwt>
<rscale>  2 0.17441607E+03</rscale>
<asrwt>0</asrwt>
<pdfrwt beam="1">  1        3 0.12836628E+00 0.17441607E+03</pdfrwt>
<pdfrwt beam="2">  1       -3 0.58112756E-02 0.17441607E+03</pdfrwt>
<totfact> 0.21765402E+02</totfact>
</mgrwt>
</event>
