<event>
 5    1  0.6004828E+000  0.9283049E+02  0.7546771E-02  0.1296138E+00
          2   -1    0    0  501    0  0.00000000000E+00  0.00000000000E+00  0.17822019268E+03  0.17822019268E+03  0.00000000000E+00 0. -1.
         -2   -1    0    0    0  501 -0.00000000000E+00 -0.00000000000E+00 -0.12088276459E+02  0.12088276459E+02  0.00000000000E+00 0.  1.
         23    2    1    2    0    0  0.00000000000E+00  0.00000000000E+00  0.16613191622E+03  0.19030846914E+03  0.92830489811E+02 0.  0.
        -11    1    3    3    0    0 -0.45458688988E+02  0.41372835430E+01  0.65820367212E+02  0.80099502243E+02  0.00000000000E+00 0.  1.
         11    1    3    3    0    0  0.45458688988E+02 -0.41372835430E+01  0.10031154901E+03  0.11020896689E+03  0.00000000000E+00 0. -1.
<mgrwt>
<rscale>  0 0.92830490E+02</rscale>
<asrwt>0</asrwt>
<pdfrwt beam="1">  1        2 0.27418489E-01 0.92830490E+02</pdfrwt>
<pdfrwt beam="2">  1       -2 0.18597350E-02 0.92830490E+02</pdfrwt>
<totfact> 0.14137726E+05</totfact>
</mgrwt>
</event>
<event>
 5    1  0.6004828E+000  0.9296750E+02  0.7546771E-02  0.1295821E+00
          2   -1    0    0  501    0  0.00000000000E+00  0.00000000000E+00  0.11103815010E+03  0.11103815010E+03  0.00000000000E+00 0. -1.
         -2   -1    0    0    0  501 -0.00000000000E+00 -0.00000000000E+00 -0.19459430408E+02  0.19459430408E+02  0.00000000000E+00 0.  1.
         23    2    1    2    0    0  0.00000000000E+00  0.00000000000E+00  0.91578719692E+02  0.13049758051E+03  0.92967503020E+02 0.  0.
        -11    1    3    3    0    0 -0.34640152659E+02 -0.20078966785E+02  0.12642228923E+02  0.41987272304E+02  0.00000000000E+00 0.  1.
         11    1    3    3    0    0  0.34640152659E+02  0.20078966785E+02  0.78936490768E+02  0.88510308203E+02  0.00000000000E+00 0. -1.
<mgrwt>
<rscale>  0 0.92967503E+02</rscale>
<asrwt>0</asrwt>
<pdfrwt beam="1">  1        2 0.17082792E-01 0.92967503E+02</pdfrwt>
<pdfrwt beam="2">  1       -2 0.29937586E-02 0.92967503E+02</pdfrwt>
<totfact> 0.12011546E+05</totfact>
</mgrwt>
</event>
<event>
 5    1  0.6004828E+000  0.9142592E+02  0.7546771E-02  0.1299435E+00
         -1   -1    0    0    0  501 -0.00000000000E+00  0.00000000000E+00  0.73548165748E+02  0.73548165748E+02  0.00000000000E+00 0. -1.
          1   -1    0    0  501    0  0.00000000000E+00 -0.00000000000E+00 -0.28412329330E+02  0.28412329330E+02  0.00000000000E+00 0.  1.
         23    2    1    2    0    0  0.00000000000E+00  0.00000000000E+00  0.45135836418E+02  0.10196049508E+03  0.91425919889E+02 0.  0.
        -11    1    3    3    0    0 -0.31032543940E+02 -0.66564465173E+01 -0.14121935891E+02  0.34738395716E+02  0.00000000000E+00 0.  1.
         11    1    3    3    0    0  0.31032543940E+02  0.66564465173E+01  0.59257772309E+02  0.67222099362E+02  0.00000000000E+00 0. -1.
<mgrwt>
<rscale>  0 0.91425920E+02</rscale>
<asrwt>0</asrwt>
<pdfrwt beam="2">  1        1 0.43711276E-02 0.91425920E+02</pdfrwt>
<pdfrwt beam="1">  1       -1 0.11315102E-01 0.91425920E+02</pdfrwt>
<totfact> 0.85248215E+04</totfact>
</mgrwt>
</event>
<event>
 5    1  0.6004828E+000  0.9078099E+02  0.7546771E-02  0.1300971E+00
          1   -1    0    0  501    0  0.00000000000E+00  0.00000000000E+00  0.75583090834E+02  0.75583090834E+02  0.00000000000E+00 0. -1.
         -1   -1    0    0    0  501 -0.00000000000E+00 -0.00000000000E+00 -0.27258703338E+02  0.27258703338E+02  0.00000000000E+00 0.  1.
         23    2    1    2    0    0  0.00000000000E+00  0.00000000000E+00  0.48324387496E+02  0.10284179417E+03  0.90780990310E+02 0.  0.
        -11    1    3    3    0    0  0.11204152339E+02 -0.43568098141E+02  0.17310067764E+02  0.48201147821E+02  0.00000000000E+00 0. -1.
         11    1    3    3    0    0 -0.11204152339E+02  0.43568098141E+02  0.31014319732E+02  0.54640646351E+02  0.00000000000E+00 0.  1.
<mgrwt>
<rscale>  0 0.90780990E+02</rscale>
<asrwt>0</asrwt>
<pdfrwt beam="1">  1        1 0.11628168E-01 0.90780990E+02</pdfrwt>
<pdfrwt beam="2">  1       -1 0.41936467E-02 0.90780990E+02</pdfrwt>
<totfact> 0.10105126E+05</totfact>
</mgrwt>
</event>
<event>
 5    1  0.6004828E+000  0.9235381E+02  0.7546771E-02  0.1297250E+00
         -3   -1    0    0    0  501 -0.00000000000E+00  0.00000000000E+00  0.74128437036E+02  0.74128437036E+02  0.00000000000E+00 0.  1.
          3   -1    0    0  501    0  0.00000000000E+00 -0.00000000000E+00 -0.28765027231E+02  0.28765027231E+02  0.00000000000E+00 0. -1.
         23    2    1    2    0    0  0.00000000000E+00  0.00000000000E+00  0.45363409805E+02  0.10289346427E+03  0.92353809016E+02 0.  0.
        -11    1    3    3    0    0  0.15569622981E+01 -0.35872036978E+02 -0.96677674405E+01  0.37184578737E+02  0.00000000000E+00 0. -1.
         11    1    3    3    0    0 -0.15569622981E+01  0.35872036978E+02  0.55031177245E+02  0.65708885530E+02  0.00000000000E+00 0.  1.
<mgrwt>
<rscale>  0 0.92353809E+02</rscale>
<asrwt>0</asrwt>
<pdfrwt beam="2">  1        3 0.44253888E-02 0.92353809E+02</pdfrwt>
<pdfrwt beam="1">  1       -3 0.11404375E-01 0.92353809E+02</pdfrwt>
<totfact> 0.33274654E+04</totfact>
</mgrwt>
</event>
<event>
 5    1  0.6004828E+000  0.1110559E+03  0.7546771E-02  0.1258627E+00
         -2   -1    0    0    0  501 -0.00000000000E+00  0.00000000000E+00  0.13345339733E+02  0.13345339733E+02  0.00000000000E+00 0.  1.
          2   -1    0    0  501    0  0.00000000000E+00 -0.00000000000E+00 -0.23104337228E+03  0.23104337228E+03  0.00000000000E+00 0. -1.
         23    2    1    2    0    0  0.00000000000E+00  0.00000000000E+00 -0.21769803255E+03  0.24438871202E+03  0.11105588316E+03 0.  0.
        -11    1    3    3    0    0 -0.21177264437E+02 -0.43878341659E+02 -0.16746772490E+03  0.17441107843E+03  0.00000000000E+00 0. -1.
         11    1    3    3    0    0  0.21177264437E+02  0.43878341659E+02 -0.50230307649E+02  0.69977633586E+02  0.00000000000E+00 0.  1.
<mgrwt>
<rscale>  0 0.11105588E+03</rscale>
<asrwt>0</asrwt>
<pdfrwt beam="2">  1        2 0.35545135E-01 0.11105588E+03</pdfrwt>
<pdfrwt beam="1">  1       -2 0.20531292E-02 0.11105588E+03</pdfrwt>
<totfact> 0.95436999E+04</totfact>
</mgrwt>
</event>
<event>
 5    1  0.6004828E+000  0.9035698E+02  0.7546771E-02  0.1301990E+00
          4   -1    0    0  501    0  0.00000000000E+00  0.00000000000E+00  0.88798834808E+02  0.88798834808E+02  0.00000000000E+00 0. -1.
         -4   -1    0    0    0  501 -0.00000000000E+00 -0.00000000000E+00 -0.22985618960E+02  0.22985618960E+02  0.00000000000E+00 0.  1.
         23    2    1    2    0    0  0.00000000000E+00  0.00000000000E+00  0.65813215848E+02  0.11178445377E+03  0.90356984920E+02 0.  0.
        -11    1    3    3    0    0  0.13220235056E+02  0.24953671431E+02  0.76534707367E+02  0.81578316755E+02  0.00000000000E+00 0. -1.
         11    1    3    3    0    0 -0.13220235056E+02 -0.24953671431E+02 -0.10721491520E+02  0.30206137013E+02  0.00000000000E+00 0.  1.
<mgrwt>
<rscale>  0 0.90356985E+02</rscale>
<asrwt>0</asrwt>
<pdfrwt beam="1">  1        4 0.13661359E-01 0.90356985E+02</pdfrwt>
<pdfrwt beam="2">  1       -4 0.35362491E-02 0.90356985E+02</pdfrwt>
<totfact> 0.26382741E+04</totfact>
</mgrwt>
</event>
<event>
 5    1  0.6004828E+000  0.9126806E+02  0.7546771E-02  0.1299810E+00
          2   -1    0    0  501    0  0.00000000000E+00  0.00000000000E+00  0.13614961461E+03  0.13614961461E+03  0.00000000000E+00 0. -1.
         -2   -1    0    0    0  501 -0.00000000000E+00 -0.00000000000E+00 -0.15295414315E+02  0.15295414315E+02  0.00000000000E+00 0.  1.
         23    2    1    2    0    0  0.00000000000E+00  0.00000000000E+00  0.12085420030E+03  0.15144502893E+03  0.91268061541E+02 0.  0.
        -11    1    3    3    0    0 -0.32353991577E+02  0.31716478240E+02  0.51376603901E+02  0.68500154681E+02  0.00000000000E+00 0.  1.
         11    1    3    3    0    0  0.32353991577E+02 -0.31716478240E+02  0.69477596399E+02  0.82944874249E+02  0.00000000000E+00 0. -1.
<mgrwt>
<rscale>  0 0.91268062E+02</rscale>
<asrwt>0</asrwt>
<pdfrwt beam="1">  1        2 0.20946094E-01 0.91268062E+02</pdfrwt>
<pdfrwt beam="2">  1       -2 0.23531408E-02 0.91268062E+02</pdfrwt>
<totfact> 0.13496146E+05</totfact>
</mgrwt>
</event>
<event>
 5    1  0.6004828E+000  0.9063039E+02  0.7546771E-02  0.1301332E+00
         -2   -1    0    0    0  501 -0.00000000000E+00  0.00000000000E+00  0.26353049508E+02  0.26353049508E+02  0.00000000000E+00 0. -1.
          2   -1    0    0  501    0  0.00000000000E+00 -0.00000000000E+00 -0.77921420738E+02  0.77921420738E+02  0.00000000000E+00 0.  1.
         23    2    1    2    0    0  0.00000000000E+00  0.00000000000E+00 -0.51568371230E+02  0.10427447025E+03  0.90630393543E+02 0.  0.
        -11    1    3    3    0    0 -0.28663651361E+02 -0.10317191515E+02 -0.64381847603E+02  0.71225498600E+02  0.00000000000E+00 0. -1.
         11    1    3    3    0    0  0.28663651361E+02  0.10317191515E+02  0.12813476372E+02  0.33048971646E+02  0.00000000000E+00 0.  1.
<mgrwt>
<rscale>  0 0.90630394E+02</rscale>
<asrwt>0</asrwt>
<pdfrwt beam="2">  1        2 0.11987911E-01 0.90630394E+02</pdfrwt>
<pdfrwt beam="1">  1       -2 0.40543154E-02 0.90630394E+02</pdfrwt>
<totfact> 0.11591804E+05</totfact>
</mgrwt>
</event>
<event>
 5    1  0.6004828E+000  0.9146165E+02  0.7546771E-02  0.1299350E+00
          1   -1    0    0  501    0  0.00000000000E+00  0.00000000000E+00  0.41385418363E+02  0.41385418363E+02  0.00000000000E+00 0. -1.
         -1   -1    0    0    0  501 -0.00000000000E+00 -0.00000000000E+00 -0.50532488945E+02  0.50532488945E+02  0.00000000000E+00 0.  1.
         23    2    1    2    0    0  0.00000000000E+00  0.00000000000E+00 -0.91470705817E+01  0.91917907308E+02  0.91461646517E+02 0.  0.
        -11    1    3    3    0    0 -0.32398367654E+02  0.15763274486E+02 -0.32877359229E+02  0.48775565595E+02  0.00000000000E+00 0.  1.
         11    1    3    3    0    0  0.32398367654E+02 -0.15763274486E+02  0.23730288648E+02  0.43142341713E+02  0.00000000000E+00 0. -1.
<mgrwt>
<rscale>  0 0.91461647E+02</rscale>
<asrwt>0</asrwt>
<pdfrwt beam="1">  1        1 0.63669874E-02 0.91461647E+02</pdfrwt>
<pdfrwt beam="2">  1       -1 0.77742291E-02 0.91461647E+02</pdfrwt>
<totfact> 0.90334147E+04</totfact>
</mgrwt>
</event>
<event>
 5    1  0.6004828E+000  0.8836723E+02  0.7546771E-02  0.1306855E+00
         -1   -1    0    0    0  501 -0.00000000000E+00  0.00000000000E+00  0.35799584110E+02  0.35799584110E+02  0.00000000000E+00 0.  1.
          1   -1    0    0  501    0  0.00000000000E+00 -0.00000000000E+00 -0.54531130752E+02  0.54531130752E+02  0.00000000000E+00 0. -1.
         23    2    1    2    0    0  0.00000000000E+00  0.00000000000E+00 -0.18731546642E+02  0.90330714861E+02  0.88367229264E+02 0.  0.
        -11    1    3    3    0    0 -0.19901384628E+02 -0.11892455458E+02  0.29082408028E+02  0.37192500099E+02  0.00000000000E+00 0.  1.
         11    1    3    3    0    0  0.19901384628E+02  0.11892455458E+02 -0.47813954670E+02  0.53138214762E+02  0.00000000000E+00 0. -1.
<mgrwt>
<rscale>  0 0.88367229E+02</rscale>
<asrwt>0</asrwt>
<pdfrwt beam="2">  1        1 0.83894047E-02 0.88367229E+02</pdfrwt>
<pdfrwt beam="1">  1       -1 0.55076283E-02 0.88367229E+02</pdfrwt>
<totfact> 0.10361393E+05</totfact>
</mgrwt>
</event>
<event>
 5    1  0.6004828E+000  0.9114691E+02  0.7546771E-02  0.1300098E+00
          3   -1    0    0  501    0  0.00000000000E+00  0.00000000000E+00  0.97780125642E+02  0.97780125642E+02  0.00000000000E+00 0. -1.
         -3   -1    0    0    0  501 -0.00000000000E+00 -0.00000000000E+00 -0.21240921203E+02  0.21240921203E+02  0.00000000000E+00 0.  1.
         23    2    1    2    0    0  0.00000000000E+00  0.00000000000E+00  0.76539204439E+02  0.11902104685E+03  0.91146913147E+02 0.  0.
        -11    1    3    3    0    0  0.10114497787E+02  0.35309567169E+02  0.30398886826E+01  0.36855250946E+02  0.00000000000E+00 0.  1.
         11    1    3    3    0    0 -0.10114497787E+02 -0.35309567169E+02  0.73499315756E+02  0.82165795899E+02  0.00000000000E+00 0. -1.
<mgrwt>
<rscale>  0 0.91146913E+02</rscale>
<asrwt>0</asrwt>
<pdfrwt beam="1">  1        3 0.15043096E-01 0.91146913E+02</pdfrwt>
<pdfrwt beam="2">  1       -3 0.32678341E-02 0.91146913E+02</pdfrwt>
<totfact> 0.33343123E+04</totfact>
</mgrwt>
</event>
<event>
 5    1  0.6004828E+000  0.8973206E+02  0.7546771E-02  0.1303502E+00
         -3   -1    0    0    0  501 -0.00000000000E+00  0.00000000000E+00  0.38569355713E+02  0.38569355713E+02  0.00000000000E+00 0.  1.
          3   -1    0    0  501    0  0.00000000000E+00 -0.00000000000E+00 -0.52190672822E+02  0.52190672822E+02  0.00000000000E+00 0. -1.
         23    2    1    2    0    0  0.00000000000E+00  0.00000000000E+00 -0.13621317110E+02  0.90760028535E+02  0.89732059488E+02 0.  0.
        -11    1    3    3    0    0  0.41122295281E+02 -0.65108615703E+01 -0.23721226737E+02  0.47917962034E+02  0.00000000000E+00 0. -1.
         11    1    3    3    0    0 -0.41122295281E+02  0.65108615703E+01  0.10099909628E+02  0.42842066501E+02  0.00000000000E+00 0.  1.
<mgrwt>
<rscale>  0 0.89732059E+02</rscale>
<asrwt>0</asrwt>
<pdfrwt beam="2">  1        3 0.80293342E-02 0.89732059E+02</pdfrwt>
<pdfrwt beam="1">  1       -3 0.59337471E-02 0.89732059E+02</pdfrwt>
<totfact> 0.36940527E+04</totfact>
</mgrwt>
</event>
<event>
 5    1  0.6004828E+000  0.1095900E+03  0.7546771E-02  0.1261331E+00
         -1   -1    0    0    0  501 -0.00000000000E+00  0.00000000000E+00  0.72043674976E+01  0.72043674976E+01  0.00000000000E+00 0.  1.
          1   -1    0    0  501    0  0.00000000000E+00 -0.00000000000E+00 -0.41675960071E+03  0.41675960071E+03  0.00000000000E+00 0. -1.
         23    2    1    2    0    0  0.00000000000E+00  0.00000000000E+00 -0.40955523321E+03  0.42396396820E+03  0.10958995066E+03 0.  0.
        -11    1    3    3    0    0 -0.46111449857E+02 -0.29117244225E+02 -0.22539771795E+03  0.23190129576E+03  0.00000000000E+00 0.  1.
         11    1    3    3    0    0  0.46111449857E+02  0.29117244225E+02 -0.18415751526E+03  0.19206267244E+03  0.00000000000E+00 0. -1.
<mgrwt>
<rscale>  0 0.10958995E+03</rscale>
<asrwt>0</asrwt>
<pdfrwt beam="2">  1        1 0.64116874E-01 0.10958995E+03</pdfrwt>
<pdfrwt beam="1">  1       -1 0.11083640E-02 0.10958995E+03</pdfrwt>
<totfact> 0.82951983E+04</totfact>
</mgrwt>
</event>
<event>
 5    1  0.6004828E+000  0.8084949E+02  0.7546771E-02  0.1326658E+00
          1   -1    0    0  501    0  0.00000000000E+00  0.00000000000E+00  0.99881938832E+01  0.99881938832E+01  0.00000000000E+00 0. -1.
         -1   -1    0    0    0  501 -0.00000000000E+00 -0.00000000000E+00 -0.16360916937E+03  0.16360916937E+03  0.00000000000E+00 0.  1.
         23    2    1    2    0    0  0.00000000000E+00  0.00000000000E+00 -0.15362097549E+03  0.17359736326E+03  0.80849492387E+02 0.  0.
        -11    1    3    3    0    0 -0.33636967189E+02  0.22086384246E+02 -0.85100380676E+02  0.94134630833E+02  0.00000000000E+00 0. -1.
         11    1    3    3    0    0  0.33636967189E+02 -0.22086384246E+02 -0.68520594815E+02  0.79462732425E+02  0.00000000000E+00 0.  1.
<mgrwt>
<rscale>  0 0.80849492E+02</rscale>
<asrwt>0</asrwt>
<pdfrwt beam="1">  1        1 0.15366452E-02 0.80849492E+02</pdfrwt>
<pdfrwt beam="2">  1       -1 0.25170641E-01 0.80849492E+02</pdfrwt>
<totfact> 0.99975322E+04</totfact>
</mgrwt>
</event>
<event>
 5    1  0.6004828E+000  0.8882094E+02  0.7546771E-02  0.1305732E+00
         -1   -1    0    0    0  501 -0.00000000000E+00  0.00000000000E+00  0.74984377137E+02  0.74984377137E+02  0.00000000000E+00 0.  1.
          1   -1    0    0  501    0  0.00000000000E+00 -0.00000000000E+00 -0.26302675407E+02  0.26302675407E+02  0.00000000000E+00 0. -1.
         23    2    1    2    0    0  0.00000000000E+00  0.00000000000E+00  0.48681701730E+02  0.10128705254E+03  0.88820937451E+02 0.  0.
        -11    1    3    3    0    0 -0.57834568650E+01  0.24616568883E+02 -0.17291583745E+02  0.30633685793E+02  0.00000000000E+00 0. -1.
         11    1    3    3    0    0  0.57834568650E+01 -0.24616568883E+02  0.65973285475E+02  0.70653366751E+02  0.00000000000E+00 0.  1.
<mgrwt>
<rscale>  0 0.88820937E+02</rscale>
<asrwt>0</asrwt>
<pdfrwt beam="2">  1        1 0.40465655E-02 0.88820937E+02</pdfrwt>
<pdfrwt beam="1">  1       -1 0.11536058E-01 0.88820937E+02</pdfrwt>
<totfact> 0.91483584E+04</totfact>
</mgrwt>
</event>
<event>
 5    1  0.6004828E+000  0.9230178E+02  0.7546771E-02  0.1297371E+00
         -4   -1    0    0    0  501 -0.00000000000E+00  0.00000000000E+00  0.23611502601E+02  0.23611502601E+02  0.00000000000E+00 0.  1.
          4   -1    0    0  501    0  0.00000000000E+00 -0.00000000000E+00 -0.90206229512E+02  0.90206229512E+02  0.00000000000E+00 0. -1.
         23    2    1    2    0    0  0.00000000000E+00  0.00000000000E+00 -0.66594726912E+02  0.11381773211E+03  0.92301779457E+02 0.  0.
        -11    1    3    3    0    0 -0.35265388284E+02 -0.28355509782E+02 -0.44478709165E+02  0.63451068666E+02  0.00000000000E+00 0. -1.
         11    1    3    3    0    0  0.35265388284E+02  0.28355509782E+02 -0.22116017746E+02  0.50366663447E+02  0.00000000000E+00 0.  1.
<mgrwt>
<rscale>  0 0.92301779E+02</rscale>
<asrwt>0</asrwt>
<pdfrwt beam="2">  1        4 0.13877881E-01 0.92301779E+02</pdfrwt>
<pdfrwt beam="1">  1       -4 0.36325389E-02 0.92301779E+02</pdfrwt>
<totfact> 0.24790064E+04</totfact>
</mgrwt>
</event>
<event>
 5    1  0.6004828E+000  0.9086079E+02  0.7546771E-02  0.1300780E+00
         -2   -1    0    0    0  501 -0.00000000000E+00  0.00000000000E+00  0.12579211679E+02  0.12579211679E+02  0.00000000000E+00 0.  1.
          2   -1    0    0  501    0  0.00000000000E+00 -0.00000000000E+00 -0.16407391937E+03  0.16407391937E+03  0.00000000000E+00 0. -1.
         23    2    1    2    0    0  0.00000000000E+00  0.00000000000E+00 -0.15149470769E+03  0.17665313105E+03  0.90860785004E+02 0.  0.
        -11    1    3    3    0    0 -0.31554524047E+01 -0.44831921853E+02 -0.88652985158E+02  0.99394214491E+02  0.00000000000E+00 0. -1.
         11    1    3    3    0    0  0.31554524047E+01  0.44831921853E+02 -0.62841722535E+02  0.77258916560E+02  0.00000000000E+00 0.  1.
<mgrwt>
<rscale>  0 0.90860785E+02</rscale>
<asrwt>0</asrwt>
<pdfrwt beam="2">  1        2 0.25242142E-01 0.90860785E+02</pdfrwt>
<pdfrwt beam="1">  1       -2 0.19352633E-02 0.90860785E+02</pdfrwt>
<totfact> 0.14554656E+05</totfact>
</mgrwt>
</event>
<event>
 5    1  0.6004828E+000  0.9109555E+02  0.7546771E-02  0.1300220E+00
          3   -1    0    0  501    0  0.00000000000E+00  0.00000000000E+00  0.13260770904E+02  0.13260770904E+02  0.00000000000E+00 0. -1.
         -3   -1    0    0    0  501 -0.00000000000E+00 -0.00000000000E+00 -0.15644639605E+03  0.15644639605E+03  0.00000000000E+00 0.  1.
         23    2    1    2    0    0  0.00000000000E+00  0.00000000000E+00 -0.14318562514E+03  0.16970716695E+03  0.91095550206E+02 0.  0.
        -11    1    3    3    0    0 -0.36103690416E+02  0.13792446428E+02 -0.11649325646E+03  0.12273706384E+03  0.00000000000E+00 0.  1.
         11    1    3    3    0    0  0.36103690416E+02 -0.13792446428E+02 -0.26692368683E+02  0.46970103108E+02  0.00000000000E+00 0. -1.
<mgrwt>
<rscale>  0 0.91095550E+02</rscale>
<asrwt>0</asrwt>
<pdfrwt beam="1">  1        3 0.20401185E-02 0.91095550E+02</pdfrwt>
<pdfrwt beam="2">  1       -3 0.24068678E-01 0.91095550E+02</pdfrwt>
<totfact> 0.30216434E+04</totfact>
</mgrwt>
</event>
<event>
 5    1  0.6004828E+000  0.9075787E+02  0.7546771E-02  0.1301027E+00
          2   -1    0    0  501    0  0.00000000000E+00  0.00000000000E+00  0.93724511568E+02  0.93724511568E+02  0.00000000000E+00 0.  1.
         -2   -1    0    0    0  501 -0.00000000000E+00 -0.00000000000E+00 -0.21971282333E+02  0.21971282333E+02  0.00000000000E+00 0. -1.
         23    2    1    2    0    0  0.00000000000E+00  0.00000000000E+00  0.71753229235E+02  0.11569579390E+03  0.90757869194E+02 0.  0.
        -11    1    3    3    0    0 -0.50050204149E+01  0.19952388047E+02  0.87439612612E+02  0.89826687971E+02  0.00000000000E+00 0.  1.
         11    1    3    3    0    0  0.50050204149E+01 -0.19952388047E+02 -0.15686383377E+02  0.25869105929E+02  0.00000000000E+00 0. -1.
<mgrwt>
<rscale>  0 0.90757869E+02</rscale>
<asrwt>0</asrwt>
<pdfrwt beam="1">  1        2 0.14419155E-01 0.90757869E+02</pdfrwt>
<pdfrwt beam="2">  1       -2 0.33801973E-02 0.90757869E+02</pdfrwt>
<totfact> 0.12183836E+05</totfact>
</mgrwt>
</event>
<event>
 5    1  0.6004828E+000  0.9458451E+02  0.7546771E-02  0.1292115E+00
         -2   -1    0    0    0  501 -0.00000000000E+00  0.00000000000E+00  0.47153501258E+02  0.47153501258E+02  0.00000000000E+00 0.  1.
          2   -1    0    0  501    0  0.00000000000E+00 -0.00000000000E+00 -0.47431421506E+02  0.47431421506E+02  0.00000000000E+00 0. -1.
         23    2    1    2    0    0  0.00000000000E+00  0.00000000000E+00 -0.27792024763E+00  0.94584922764E+02  0.94584514455E+02 0.  0.
        -11    1    3    3    0    0 -0.28202320111E+02 -0.30978518816E+02  0.21804655424E+02  0.47227984139E+02  0.00000000000E+00 0.  1.
         11    1    3    3    0    0  0.28202320111E+02  0.30978518816E+02 -0.22082575671E+02  0.47356938625E+02  0.00000000000E+00 0. -1.
<mgrwt>
<rscale>  0 0.94584514E+02</rscale>
<asrwt>0</asrwt>
<pdfrwt beam="2">  1        2 0.72971417E-02 0.94584514E+02</pdfrwt>
<pdfrwt beam="1">  1       -2 0.72543849E-02 0.94584514E+02</pdfrwt>
<totfact> 0.89713951E+04</totfact>
</mgrwt>
</event>
<event>
 5    1  0.6004828E+000  0.9182368E+02  0.7546771E-02  0.1298495E+00
         -4   -1    0    0    0  501 -0.00000000000E+00  0.00000000000E+00  0.14766132868E+02  0.14766132868E+02  0.00000000000E+00 0.  1.
          4   -1    0    0  501    0  0.00000000000E+00 -0.00000000000E+00 -0.14275212777E+03  0.14275212777E+03  0.00000000000E+00 0. -1.
         23    2    1    2    0    0  0.00000000000E+00  0.00000000000E+00 -0.12798599490E+03  0.15751826063E+03  0.91823676377E+02 0.  0.
        -11    1    3    3    0    0  0.16317910023E+02 -0.33356766356E+02 -0.11030832655E+03  0.11639104328E+03  0.00000000000E+00 0. -1.
         11    1    3    3    0    0 -0.16317910023E+02  0.33356766356E+02 -0.17677668348E+02  0.41127217356E+02  0.00000000000E+00 0.  1.
<mgrwt>
<rscale>  0 0.91823676E+02</rscale>
<asrwt>0</asrwt>
<pdfrwt beam="2">  1        4 0.21961866E-01 0.91823676E+02</pdfrwt>
<pdfrwt beam="1">  1       -4 0.22717127E-02 0.91823676E+02</pdfrwt>
<totfact> 0.22861611E+04</totfact>
</mgrwt>
</event>
<event>
 5    1  0.6004828E+000  0.8956950E+02  0.7546771E-02  0.1303898E+00
          1   -1    0    0  501    0  0.00000000000E+00  0.00000000000E+00  0.13105206600E+03  0.13105206600E+03  0.00000000000E+00 0. -1.
         -1   -1    0    0    0  501 -0.00000000000E+00 -0.00000000000E+00 -0.15304403180E+02  0.15304403180E+02  0.00000000000E+00 0.  1.
         23    2    1    2    0    0  0.00000000000E+00  0.00000000000E+00  0.11574766282E+03  0.14635646918E+03  0.89569496049E+02 0.  0.
        -11    1    3    3    0    0 -0.36005781063E+02  0.25390366973E+02  0.44742064220E+02  0.62792828537E+02  0.00000000000E+00 0.  1.
         11    1    3    3    0    0  0.36005781063E+02 -0.25390366973E+02  0.71005598596E+02  0.83563640640E+02  0.00000000000E+00 0. -1.
<mgrwt>
<rscale>  0 0.89569496E+02</rscale>
<asrwt>0</asrwt>
<pdfrwt beam="1">  1        1 0.20161856E-01 0.89569496E+02</pdfrwt>
<pdfrwt beam="2">  1       -1 0.23545237E-02 0.89569496E+02</pdfrwt>
<totfact> 0.11480983E+05</totfact>
</mgrwt>
</event>
<event>
 5    1  0.6004828E+000  0.9109259E+02  0.7546771E-02  0.1300227E+00
         -2   -1    0    0    0  501 -0.00000000000E+00  0.00000000000E+00  0.80907898505E+01  0.80907898505E+01  0.00000000000E+00 0.  1.
          2   -1    0    0  501    0  0.00000000000E+00 -0.00000000000E+00 -0.25639834714E+03  0.25639834714E+03  0.00000000000E+00 0. -1.
         23    2    1    2    0    0  0.00000000000E+00  0.00000000000E+00 -0.24830755728E+03  0.26448913699E+03  0.91092593435E+02 0.  0.
        -11    1    3    3    0    0  0.33247413948E+02  0.22278071459E+02 -0.18728528018E+03  0.19151365271E+03  0.00000000000E+00 0.  1.
         11    1    3    3    0    0 -0.33247413948E+02 -0.22278071459E+02 -0.61022277101E+02  0.72975484272E+02  0.00000000000E+00 0. -1.
<mgrwt>
<rscale>  0 0.91092593E+02</rscale>
<asrwt>0</asrwt>
<pdfrwt beam="2">  1        2 0.39445890E-01 0.91092593E+02</pdfrwt>
<pdfrwt beam="1">  1       -2 0.12447372E-02 0.91092593E+02</pdfrwt>
<totfact> 0.16985882E+05</totfact>
</mgrwt>
</event>
<event>
 5    1  0.6004828E+000  0.8986530E+02  0.7546771E-02  0.1303178E+00
          3   -1    0    0  501    0  0.00000000000E+00  0.00000000000E+00  0.75498968966E+02  0.75498968966E+02  0.00000000000E+00 0. -1.
         -3   -1    0    0    0  501 -0.00000000000E+00 -0.00000000000E+00 -0.26741329578E+02  0.26741329578E+02  0.00000000000E+00 0.  1.
         23    2    1    2    0    0  0.00000000000E+00  0.00000000000E+00  0.48757639388E+02  0.10224029854E+03  0.89865295012E+02 0.  0.
        -11    1    3    3    0    0  0.21929884043E+02 -0.84652528927E+01 -0.19187490178E+02  0.30343699511E+02  0.00000000000E+00 0.  1.
         11    1    3    3    0    0 -0.21929884043E+02  0.84652528927E+01  0.67945129566E+02  0.71896599033E+02  0.00000000000E+00 0. -1.
<mgrwt>
<rscale>  0 0.89865295E+02</rscale>
<asrwt>0</asrwt>
<pdfrwt beam="1">  1        3 0.11615226E-01 0.89865295E+02</pdfrwt>
<pdfrwt beam="2">  1       -3 0.41140507E-02 0.89865295E+02</pdfrwt>
<totfact> 0.35890210E+04</totfact>
</mgrwt>
</event>
<event>
 5    1  0.6004828E+000  0.9148681E+02  0.7546771E-02  0.1299291E+00
          2   -1    0    0  501    0  0.00000000000E+00  0.00000000000E+00  0.37760089626E+03  0.37760089626E+03  0.00000000000E+00 0.  1.
         -2   -1    0    0    0  501 -0.00000000000E+00 -0.00000000000E+00 -0.55414566545E+01  0.55414566545E+01  0.00000000000E+00 0. -1.
         23    2    1    2    0    0  0.00000000000E+00  0.00000000000E+00  0.37205943960E+03  0.38314235291E+03  0.91486807777E+02 0.  0.
        -11    1    3    3    0    0 -0.37586974776E+02  0.23605017787E+02  0.23237834625E+03  0.23657910589E+03  0.00000000000E+00 0. -1.
         11    1    3    3    0    0  0.37586974776E+02 -0.23605017787E+02  0.13968109336E+03  0.14656324702E+03  0.00000000000E+00 0.  1.
<mgrwt>
<rscale>  0 0.91486808E+02</rscale>
<asrwt>0</asrwt>
<pdfrwt beam="1">  1        2 0.58092425E-01 0.91486808E+02</pdfrwt>
<pdfrwt beam="2">  1       -2 0.85253209E-03 0.91486808E+02</pdfrwt>
<totfact> 0.19376660E+05</totfact>
</mgrwt>
</event>
<event>
 5    1  0.6004828E+000  0.9463489E+02  0.7546771E-02  0.1292001E+00
          2   -1    0    0  501    0  0.00000000000E+00  0.00000000000E+00  0.24315882212E+03  0.24315882212E+03  0.00000000000E+00 0. -1.
         -2   -1    0    0    0  501 -0.00000000000E+00 -0.00000000000E+00 -0.92077300039E+01  0.92077300039E+01  0.00000000000E+00 0.  1.
         23    2    1    2    0    0  0.00000000000E+00  0.00000000000E+00  0.23395109212E+03  0.25236655213E+03  0.94634893822E+02 0.  0.
        -11    1    3    3    0    0 -0.68458224097E+01  0.44461156704E+02  0.77847929949E+02  0.89910844381E+02  0.00000000000E+00 0.  1.
         11    1    3    3    0    0  0.68458224097E+01 -0.44461156704E+02  0.15610316217E+03  0.16245570774E+03  0.00000000000E+00 0. -1.
<mgrwt>
<rscale>  0 0.94634894E+02</rscale>
<asrwt>0</asrwt>
<pdfrwt beam="1">  1        2 0.37409045E-01 0.94634894E+02</pdfrwt>
<pdfrwt beam="2">  1       -2 0.14165740E-02 0.94634894E+02</pdfrwt>
<totfact> 0.15033101E+05</totfact>
</mgrwt>
</event>
<event>
 4    1  0.6004828E+000  0.4624025E+02  0.7546771E-02  0.1466744E+00
          3   -1    0    0  501    0  0.00000000000E+00  0.00000000000E+00  0.19751681164E+03  0.19751681164E+03  0.00000000000E+00 0.  1.
         -3   -1    0    0    0  501 -0.00000000000E+00 -0.00000000000E+00 -0.27063022886E+01  0.27063022886E+01  0.00000000000E+00 0. -1.
        -11    1    1    2    0    0 -0.22070398481E+02  0.53507910729E+01  0.11618332019E+03  0.11838199755E+03  0.00000000000E+00 0.  1.
         11    1    1    2    0    0  0.22070398481E+02 -0.53507910729E+01  0.78627189157E+02  0.81841116372E+02  0.00000000000E+00 0. -1.
<mgrwt>
<rscale>  0 0.46240251E+02</rscale>
<asrwt>0</asrwt>
<pdfrwt beam="1">  1        3 0.30387190E-01 0.46240251E+02</pdfrwt>
<pdfrwt beam="2">  1       -3 0.41635435E-03 0.46240251E+02</pdfrwt>
<totfact> 0.16449963E+05</totfact>
</mgrwt>
</event>
<event>
 5    1  0.6004828E+000  0.8995662E+02  0.7546771E-02  0.1302957E+00
         -1   -1    0    0    0  501 -0.00000000000E+00  0.00000000000E+00  0.19533586395E+02  0.19533586395E+02  0.00000000000E+00 0.  1.
          1   -1    0    0  501    0  0.00000000000E+00 -0.00000000000E+00 -0.10356769119E+03  0.10356769119E+03  0.00000000000E+00 0. -1.
         23    2    1    2    0    0  0.00000000000E+00  0.00000000000E+00 -0.84034104799E+02  0.12310127759E+03  0.89956621628E+02 0.  0.
        -11    1    3    3    0    0 -0.34315043620E+02  0.57034965164E+00 -0.22329645231E+01  0.34392348683E+02  0.00000000000E+00 0.  1.
         11    1    3    3    0    0  0.34315043620E+02 -0.57034965164E+00 -0.81801140276E+02  0.88708928907E+02  0.00000000000E+00 0. -1.
<mgrwt>
<rscale>  0 0.89956622E+02</rscale>
<asrwt>0</asrwt>
<pdfrwt beam="2">  1        1 0.15933491E-01 0.89956622E+02</pdfrwt>
<pdfrwt beam="1">  1       -1 0.30051672E-02 0.89956622E+02</pdfrwt>
<totfact> 0.10898525E+05</totfact>
</mgrwt>
</event>
<event>
 5    1  0.6004828E+000  0.8907569E+02  0.7546771E-02  0.1305106E+00
          1   -1    0    0  501    0  0.00000000000E+00  0.00000000000E+00  0.46997506929E+02  0.46997506929E+02  0.00000000000E+00 0. -1.
         -1   -1    0    0    0  501 -0.00000000000E+00 -0.00000000000E+00 -0.42206914964E+02  0.42206914964E+02  0.00000000000E+00 0.  1.
         23    2    1    2    0    0  0.00000000000E+00  0.00000000000E+00  0.47905919644E+01  0.89204421893E+02  0.89075693171E+02 0.  0.
        -11    1    3    3    0    0  0.16277981111E+01  0.15684725299E+02 -0.39317743455E+02  0.42362073661E+02  0.00000000000E+00 0.  1.
         11    1    3    3    0    0 -0.16277981111E+01 -0.15684725299E+02  0.44108335420E+02  0.46842348232E+02  0.00000000000E+00 0. -1.
<mgrwt>
<rscale>  0 0.89075693E+02</rscale>
<asrwt>0</asrwt>
<pdfrwt beam="1">  1        1 0.72303857E-02 0.89075693E+02</pdfrwt>
<pdfrwt beam="2">  1       -1 0.64933715E-02 0.89075693E+02</pdfrwt>
<totfact> 0.99152093E+04</totfact>
</mgrwt>
</event>
<event>
 5    1  0.6004828E+000  0.8684094E+02  0.7546771E-02  0.1310687E+00
         -1   -1    0    0    0  501 -0.00000000000E+00  0.00000000000E+00  0.12027884077E+03  0.12027884077E+03  0.00000000000E+00 0.  1.
          1   -1    0    0  501    0  0.00000000000E+00 -0.00000000000E+00 -0.15674720442E+02  0.15674720442E+02  0.00000000000E+00 0. -1.
         23    2    1    2    0    0  0.00000000000E+00  0.00000000000E+00  0.10460412032E+03  0.13595356121E+03  0.86840939749E+02 0.  0.
        -11    1    3    3    0    0 -0.37446128405E+02 -0.11514606254E+02  0.81613283493E+02  0.90529148522E+02  0.00000000000E+00 0.  1.
         11    1    3    3    0    0  0.37446128405E+02  0.11514606254E+02  0.22990836832E+02  0.45424412687E+02  0.00000000000E+00 0. -1.
<mgrwt>
<rscale>  0 0.86840940E+02</rscale>
<asrwt>0</asrwt>
<pdfrwt beam="2">  1        1 0.24114955E-02 0.86840940E+02</pdfrwt>
<pdfrwt beam="1">  1       -1 0.18504436E-01 0.86840940E+02</pdfrwt>
<totfact> 0.89009746E+04</totfact>
</mgrwt>
</event>
<event>
 5    1  0.6004828E+000  0.9051134E+02  0.7546771E-02  0.1301618E+00
         -4   -1    0    0    0  501 -0.00000000000E+00  0.00000000000E+00  0.12556833982E+02  0.12556833982E+02  0.00000000000E+00 0.  1.
          4   -1    0    0  501    0  0.00000000000E+00 -0.00000000000E+00 -0.16310446356E+03  0.16310446356E+03  0.00000000000E+00 0. -1.
         23    2    1    2    0    0  0.00000000000E+00  0.00000000000E+00 -0.15054762958E+03  0.17566129754E+03  0.90511340078E+02 0.  0.
        -11    1    3    3    0    0 -0.27703755015E+02  0.21979780547E+02 -0.20467649278E+02  0.40859924887E+02  0.00000000000E+00 0.  1.
         11    1    3    3    0    0  0.27703755015E+02 -0.21979780547E+02 -0.13007998030E+03  0.13480137266E+03  0.00000000000E+00 0. -1.
<mgrwt>
<rscale>  0 0.90511340E+02</rscale>
<asrwt>0</asrwt>
<pdfrwt beam="2">  1        4 0.25092993E-01 0.90511340E+02</pdfrwt>
<pdfrwt beam="1">  1       -4 0.19318207E-02 0.90511340E+02</pdfrwt>
<totfact> 0.22892046E+04</totfact>
</mgrwt>
</event>
<event>
 5    1  0.6004828E+000  0.9615464E+02  0.7546771E-02  0.1288597E+00
          1   -1    0    0  501    0  0.00000000000E+00  0.00000000000E+00  0.34150331441E+02  0.34150331441E+02  0.00000000000E+00 0. -1.
         -1   -1    0    0    0  501 -0.00000000000E+00 -0.00000000000E+00 -0.67683926643E+02  0.67683926643E+02  0.00000000000E+00 0.  1.
         23    2    1    2    0    0  0.00000000000E+00  0.00000000000E+00 -0.33533595202E+02  0.10183425808E+03  0.96154636457E+02 0.  0.
        -11    1    3    3    0    0  0.41688275846E+02  0.48909494322E+01  0.80613878389E+01  0.42741311436E+02  0.00000000000E+00 0. -1.
         11    1    3    3    0    0 -0.41688275846E+02 -0.48909494322E+01 -0.41594983041E+02  0.59092946648E+02  0.00000000000E+00 0.  1.
<mgrwt>
<rscale>  0 0.96154636E+02</rscale>
<asrwt>0</asrwt>
<pdfrwt beam="1">  1        1 0.52538972E-02 0.96154636E+02</pdfrwt>
<pdfrwt beam="2">  1       -1 0.10412912E-01 0.96154636E+02</pdfrwt>
<totfact> 0.75982473E+04</totfact>
</mgrwt>
</event>
<event>
 5    1  0.6004828E+000  0.8998950E+02  0.7546771E-02  0.1302877E+00
          2   -1    0    0  501    0  0.00000000000E+00  0.00000000000E+00  0.26874437748E+02  0.26874437748E+02  0.00000000000E+00 0. -1.
         -2   -1    0    0    0  501 -0.00000000000E+00 -0.00000000000E+00 -0.75332826209E+02  0.75332826209E+02  0.00000000000E+00 0.  1.
         23    2    1    2    0    0  0.00000000000E+00  0.00000000000E+00 -0.48458388461E+02  0.10220726396E+03  0.89989496017E+02 0.  0.
        -11    1    3    3    0    0 -0.20130853793E+02  0.34674345333E+02 -0.47421300183E+02  0.62099446131E+02  0.00000000000E+00 0.  1.
         11    1    3    3    0    0  0.20130853793E+02 -0.34674345333E+02 -0.10370882781E+01  0.40107817827E+02  0.00000000000E+00 0. -1.
<mgrwt>
<rscale>  0 0.89989496E+02</rscale>
<asrwt>0</asrwt>
<pdfrwt beam="1">  1        2 0.41345289E-02 0.89989496E+02</pdfrwt>
<pdfrwt beam="2">  1       -2 0.11589666E-01 0.89989496E+02</pdfrwt>
<totfact> 0.89309832E+04</totfact>
</mgrwt>
</event>
<event>
 5    1  0.6004828E+000  0.8440041E+02  0.7546771E-02  0.1317008E+00
          3   -1    0    0  501    0  0.00000000000E+00  0.00000000000E+00  0.24005722422E+02  0.24005722422E+02  0.00000000000E+00 0. -1.
         -3   -1    0    0    0  501 -0.00000000000E+00 -0.00000000000E+00 -0.74184692490E+02  0.74184692490E+02  0.00000000000E+00 0.  1.
         23    2    1    2    0    0  0.00000000000E+00  0.00000000000E+00 -0.50178970067E+02  0.98190414912E+02  0.84400406063E+02 0.  0.
        -11    1    3    3    0    0  0.85452838024E+01  0.41203957158E+02 -0.21397826646E+02  0.47208632113E+02  0.00000000000E+00 0. -1.
         11    1    3    3    0    0 -0.85452838024E+01 -0.41203957158E+02 -0.28781143421E+02  0.50981782799E+02  0.00000000000E+00 0.  1.
<mgrwt>
<rscale>  0 0.84400406E+02</rscale>
<asrwt>0</asrwt>
<pdfrwt beam="1">  1        3 0.36931881E-02 0.84400406E+02</pdfrwt>
<pdfrwt beam="2">  1       -3 0.11413029E-01 0.84400406E+02</pdfrwt>
<totfact> 0.42897406E+04</totfact>
</mgrwt>
</event>
<event>
 5    1  0.6004828E+000  0.9038581E+02  0.7546771E-02  0.1301920E+00
         -3   -1    0    0    0  501 -0.00000000000E+00  0.00000000000E+00  0.49150083542E+02  0.49150083542E+02  0.00000000000E+00 0.  1.
          3   -1    0    0  501    0  0.00000000000E+00 -0.00000000000E+00 -0.41554330212E+02  0.41554330212E+02  0.00000000000E+00 0. -1.
         23    2    1    2    0    0  0.00000000000E+00  0.00000000000E+00  0.75957533301E+01  0.90704413754E+02  0.90385813078E+02 0.  0.
        -11    1    3    3    0    0  0.36708749076E+02  0.21671993972E+02 -0.11261391898E+02  0.44091116213E+02  0.00000000000E+00 0. -1.
         11    1    3    3    0    0 -0.36708749076E+02 -0.21671993972E+02  0.18857145228E+02  0.46613297540E+02  0.00000000000E+00 0.  1.
<mgrwt>
<rscale>  0 0.90385813E+02</rscale>
<asrwt>0</asrwt>
<pdfrwt beam="2">  1        3 0.63929739E-02 0.90385813E+02</pdfrwt>
<pdfrwt beam="1">  1       -3 0.75615513E-02 0.90385813E+02</pdfrwt>
<totfact> 0.36223975E+04</totfact>
</mgrwt>
</event>
<event>
 5    1  0.6004828E+000  0.9036835E+02  0.7546771E-02  0.1301962E+00
         -2   -1    0    0    0  501 -0.00000000000E+00  0.00000000000E+00  0.74241632083E+02  0.74241632083E+02  0.00000000000E+00 0.  1.
          2   -1    0    0  501    0  0.00000000000E+00 -0.00000000000E+00 -0.27499526556E+02  0.27499526556E+02  0.00000000000E+00 0. -1.
         23    2    1    2    0    0  0.00000000000E+00  0.00000000000E+00  0.46742105527E+02  0.10174115864E+03  0.90368351385E+02 0.  0.
        -11    1    3    3    0    0  0.20046529699E+02 -0.35272779668E+02  0.97888946960E+00  0.40583131509E+02  0.00000000000E+00 0. -1.
         11    1    3    3    0    0 -0.20046529699E+02  0.35272779668E+02  0.45763216058E+02  0.61158027130E+02  0.00000000000E+00 0.  1.
<mgrwt>
<rscale>  0 0.90368351E+02</rscale>
<asrwt>0</asrwt>
<pdfrwt beam="2">  1        2 0.42306964E-02 0.90368351E+02</pdfrwt>
<pdfrwt beam="1">  1       -2 0.11421789E-01 0.90368351E+02</pdfrwt>
<totfact> 0.88745813E+04</totfact>
</mgrwt>
</event>
<event>
 5    1  0.6004828E+000  0.9322732E+02  0.7546771E-02  0.1295219E+00
         -1   -1    0    0    0  501 -0.00000000000E+00  0.00000000000E+00  0.73361155680E+01  0.73361155680E+01  0.00000000000E+00 0.  1.
          1   -1    0    0  501    0  0.00000000000E+00 -0.00000000000E+00 -0.29618310148E+03  0.29618310148E+03  0.00000000000E+00 0. -1.
         23    2    1    2    0    0  0.00000000000E+00  0.00000000000E+00 -0.28884698591E+03  0.30351921705E+03  0.93227323500E+02 0.  0.
        -11    1    3    3    0    0 -0.35274622572E+02  0.23201055079E+02 -0.20873844249E+03  0.21296554962E+03  0.00000000000E+00 0. -1.
         11    1    3    3    0    0  0.35274622572E+02 -0.23201055079E+02 -0.80108543423E+02  0.90553667423E+02  0.00000000000E+00 0.  1.
<mgrwt>
<rscale>  0 0.93227323E+02</rscale>
<asrwt>0</asrwt>
<pdfrwt beam="2">  1        1 0.45566635E-01 0.93227323E+02</pdfrwt>
<pdfrwt beam="1">  1       -1 0.11286331E-02 0.93227323E+02</pdfrwt>
<totfact> 0.12044141E+05</totfact>
</mgrwt>
</event>
<event>
 5    1  0.6004828E+000  0.9186478E+02  0.7546771E-02  0.1298398E+00
          3   -1    0    0  501    0  0.00000000000E+00  0.00000000000E+00  0.92358189334E+02  0.92358189334E+02  0.00000000000E+00 0. -1.
         -3   -1    0    0    0  501 -0.00000000000E+00 -0.00000000000E+00 -0.22843501013E+02  0.22843501013E+02  0.00000000000E+00 0.  1.
         23    2    1    2    0    0  0.00000000000E+00  0.00000000000E+00  0.69514688321E+02  0.11520169035E+03  0.91864778705E+02 0.  0.
        -11    1    3    3    0    0 -0.86788906579E+01  0.30840894334E+02  0.76032078548E+02  0.82506732300E+02  0.00000000000E+00 0. -1.
         11    1    3    3    0    0  0.86788906579E+01 -0.30840894334E+02 -0.65173902268E+01  0.32694958048E+02  0.00000000000E+00 0.  1.
<mgrwt>
<rscale>  0 0.91864779E+02</rscale>
<asrwt>0</asrwt>
<pdfrwt beam="1">  1        3 0.14208952E-01 0.91864779E+02</pdfrwt>
<pdfrwt beam="2">  1       -3 0.35143848E-02 0.91864779E+02</pdfrwt>
<totfact> 0.32897525E+04</totfact>
</mgrwt>
</event>
<event>
 5    1  0.6004828E+000  0.9166319E+02  0.7546771E-02  0.1298873E+00
         -1   -1    0    0    0  501 -0.00000000000E+00  0.00000000000E+00  0.48870398928E+02  0.48870398928E+02  0.00000000000E+00 0.  1.
          1   -1    0    0  501    0  0.00000000000E+00 -0.00000000000E+00 -0.42981742626E+02  0.42981742626E+02  0.00000000000E+00 0. -1.
         23    2    1    2    0    0  0.00000000000E+00  0.00000000000E+00  0.58886563016E+01  0.91852141554E+02  0.91663185822E+02 0.  0.
        -11    1    3    3    0    0 -0.30334639803E+02 -0.15507001314E+02 -0.27776290221E+02  0.43956566747E+02  0.00000000000E+00 0. -1.
         11    1    3    3    0    0  0.30334639803E+02  0.15507001314E+02  0.33664946523E+02  0.47895574807E+02  0.00000000000E+00 0.  1.
<mgrwt>
<rscale>  0 0.91663186E+02</rscale>
<asrwt>0</asrwt>
<pdfrwt beam="2">  1        1 0.66125758E-02 0.91663186E+02</pdfrwt>
<pdfrwt beam="1">  1       -1 0.75185229E-02 0.91663186E+02</pdfrwt>
<totfact> 0.90291719E+04</totfact>
</mgrwt>
</event>
<event>
 5    1  0.6004828E+000  0.9147547E+02  0.7546771E-02  0.1299317E+00
         -1   -1    0    0    0  501 -0.00000000000E+00  0.00000000000E+00  0.16831898521E+03  0.16831898521E+03  0.00000000000E+00 0.  1.
          1   -1    0    0  501    0  0.00000000000E+00 -0.00000000000E+00 -0.12428427165E+02  0.12428427165E+02  0.00000000000E+00 0. -1.
         23    2    1    2    0    0  0.00000000000E+00  0.00000000000E+00  0.15589055805E+03  0.18074741238E+03  0.91475466619E+02 0.  0.
        -11    1    3    3    0    0  0.25072464506E+02  0.25343902666E+02  0.13456120338E+03  0.13920366135E+03  0.00000000000E+00 0.  1.
         11    1    3    3    0    0 -0.25072464506E+02 -0.25343902666E+02  0.21329354667E+02  0.41543751025E+02  0.00000000000E+00 0. -1.
<mgrwt>
<rscale>  0 0.91475467E+02</rscale>
<asrwt>0</asrwt>
<pdfrwt beam="2">  1        1 0.19120658E-02 0.91475467E+02</pdfrwt>
<pdfrwt beam="1">  1       -1 0.25895227E-01 0.91475467E+02</pdfrwt>
<totfact> 0.72105246E+04</totfact>
</mgrwt>
</event>
<event>
 5    1  0.6004828E+000  0.8870613E+02  0.7546771E-02  0.1306016E+00
         -2   -1    0    0    0  501 -0.00000000000E+00  0.00000000000E+00  0.86689663982E+01  0.86689663982E+01  0.00000000000E+00 0. -1.
          2   -1    0    0  501    0  0.00000000000E+00 -0.00000000000E+00 -0.22692374868E+03  0.22692374868E+03  0.00000000000E+00 0.  1.
         23    2    1    2    0    0  0.00000000000E+00  0.00000000000E+00 -0.21825478228E+03  0.23559271508E+03  0.88706129489E+02 0.  0.
        -11    1    3    3    0    0  0.41664587888E+02 -0.11428601230E+02 -0.13577149906E+03  0.14247965037E+03  0.00000000000E+00 0.  1.
         11    1    3    3    0    0 -0.41664587888E+02  0.11428601230E+02 -0.82483283214E+02  0.93113064710E+02  0.00000000000E+00 0. -1.
<mgrwt>
<rscale>  0 0.88706129E+02</rscale>
<asrwt>0</asrwt>
<pdfrwt beam="2">  1        2 0.34911349E-01 0.88706129E+02</pdfrwt>
<pdfrwt beam="1">  1       -2 0.13336870E-02 0.88706129E+02</pdfrwt>
<totfact> 0.17433610E+05</totfact>
</mgrwt>
</event>
<event>
 5    1  0.6004828E+000  0.9108402E+02  0.7546771E-02  0.1300248E+00
         -1   -1    0    0    0  501 -0.00000000000E+00  0.00000000000E+00  0.66199338221E+01  0.66199338221E+01  0.00000000000E+00 0.  1.
          1   -1    0    0  501    0  0.00000000000E+00 -0.00000000000E+00 -0.31330748649E+03  0.31330748649E+03  0.00000000000E+00 0. -1.
         23    2    1    2    0    0  0.00000000000E+00  0.00000000000E+00 -0.30668755267E+03  0.31992742031E+03  0.91084023331E+02 0.  0.
        -11    1    3    3    0    0 -0.31993005930E+02 -0.28129467364E+02 -0.96788488461E+02  0.10574890478E+03  0.00000000000E+00 0.  1.
         11    1    3    3    0    0  0.31993005930E+02  0.28129467364E+02 -0.20989906421E+03  0.21417851554E+03  0.00000000000E+00 0. -1.
<mgrwt>
<rscale>  0 0.91084023E+02</rscale>
<asrwt>0</asrwt>
<pdfrwt beam="2">  1        1 0.48201148E-01 0.91084023E+02</pdfrwt>
<pdfrwt beam="1">  1       -1 0.10184514E-02 0.91084023E+02</pdfrwt>
<totfact> 0.12953020E+05</totfact>
</mgrwt>
</event>
<event>
 5    1  0.6004828E+000  0.9266851E+02  0.7546771E-02  0.1296515E+00
          1   -1    0    0  501    0  0.00000000000E+00  0.00000000000E+00  0.82109651867E+02  0.82109651867E+02  0.00000000000E+00 0. -1.
         -1   -1    0    0    0  501 -0.00000000000E+00 -0.00000000000E+00 -0.26146294798E+02  0.26146294798E+02  0.00000000000E+00 0.  1.
         23    2    1    2    0    0  0.00000000000E+00  0.00000000000E+00  0.55963357069E+02  0.10825594666E+03  0.92668509505E+02 0.  0.
        -11    1    3    3    0    0  0.33709467821E+02  0.18722248675E+02 -0.20303682262E+01  0.38613122269E+02  0.00000000000E+00 0.  1.
         11    1    3    3    0    0 -0.33709467821E+02 -0.18722248675E+02  0.57993725295E+02  0.69642824396E+02  0.00000000000E+00 0. -1.
<mgrwt>
<rscale>  0 0.92668510E+02</rscale>
<asrwt>0</asrwt>
<pdfrwt beam="1">  1        1 0.12632254E-01 0.92668510E+02</pdfrwt>
<pdfrwt beam="2">  1       -1 0.40225069E-02 0.92668510E+02</pdfrwt>
<totfact> 0.96747882E+04</totfact>
</mgrwt>
</event>
<event>
 5    1  0.6004828E+000  0.9073908E+02  0.7546771E-02  0.1301072E+00
         -1   -1    0    0    0  501 -0.00000000000E+00  0.00000000000E+00  0.85105978964E+02  0.85105978964E+02  0.00000000000E+00 0.  1.
          1   -1    0    0  501    0  0.00000000000E+00 -0.00000000000E+00 -0.24186258130E+02  0.24186258130E+02  0.00000000000E+00 0. -1.
         23    2    1    2    0    0  0.00000000000E+00  0.00000000000E+00  0.60919720834E+02  0.10929223709E+03  0.90739080348E+02 0.  0.
        -11    1    3    3    0    0  0.19245780365E+02 -0.18707893031E+02  0.74517842086E+02  0.79204129391E+02  0.00000000000E+00 0.  1.
         11    1    3    3    0    0 -0.19245780365E+02  0.18707893031E+02 -0.13598121252E+02  0.30088107702E+02  0.00000000000E+00 0. -1.
<mgrwt>
<rscale>  0 0.90739080E+02</rscale>
<asrwt>0</asrwt>
<pdfrwt beam="2">  1        1 0.37209628E-02 0.90739080E+02</pdfrwt>
<pdfrwt beam="1">  1       -1 0.13093227E-01 0.90739080E+02</pdfrwt>
<totfact> 0.84798867E+04</totfact>
</mgrwt>
</event>
<event>
 5    1  0.6004828E+000  0.8900413E+02  0.7546771E-02  0.1305281E+00
          2   -1    0    0  501    0  0.00000000000E+00  0.00000000000E+00  0.13363758031E+02  0.13363758031E+02  0.00000000000E+00 0. -1.
         -2   -1    0    0    0  501 -0.00000000000E+00 -0.00000000000E+00 -0.14819438642E+03  0.14819438642E+03  0.00000000000E+00 0.  1.
         23    2    1    2    0    0  0.00000000000E+00  0.00000000000E+00 -0.13483062839E+03  0.16155814445E+03  0.89004132977E+02 0.  0.
        -11    1    3    3    0    0  0.43763022825E+02  0.76914307747E+01 -0.71888773357E+02  0.84512460673E+02  0.00000000000E+00 0. -1.
         11    1    3    3    0    0 -0.43763022825E+02 -0.76914307747E+01 -0.62941855035E+02  0.77045683782E+02  0.00000000000E+00 0.  1.
<mgrwt>
<rscale>  0 0.89004133E+02</rscale>
<asrwt>0</asrwt>
<pdfrwt beam="1">  1        2 0.20559627E-02 0.89004133E+02</pdfrwt>
<pdfrwt beam="2">  1       -2 0.22799137E-01 0.89004133E+02</pdfrwt>
<totfact> 0.74575537E+04</totfact>
</mgrwt>
</event>
<event>
 5    1  0.6004828E+000  0.9279092E+02  0.7546771E-02  0.1296230E+00
          2   -1    0    0  501    0  0.00000000000E+00  0.00000000000E+00  0.90235901737E+01  0.90235901737E+01  0.00000000000E+00 0. -1.
         -2   -1    0    0    0  501 -0.00000000000E+00 -0.00000000000E+00 -0.23854570686E+03  0.23854570686E+03  0.00000000000E+00 0.  1.
         23    2    1    2    0    0  0.00000000000E+00  0.00000000000E+00 -0.22952211669E+03  0.24756929704E+03  0.92790919738E+02 0.  0.
        -11    1    3    3    0    0 -0.87890699988E+01 -0.38105903693E+02 -0.18136744049E+03  0.18553559259E+03  0.00000000000E+00 0.  1.
         11    1    3    3    0    0  0.87890699988E+01  0.38105903693E+02 -0.48154676203E+02  0.62033704451E+02  0.00000000000E+00 0. -1.
<mgrwt>
<rscale>  0 0.92790920E+02</rscale>
<asrwt>0</asrwt>
<pdfrwt beam="1">  1        2 0.13882445E-02 0.92790920E+02</pdfrwt>
<pdfrwt beam="2">  1       -2 0.36699342E-01 0.92790920E+02</pdfrwt>
<totfact> 0.54955232E+04</totfact>
</mgrwt>
</event>
<event>
 5    1  0.6004828E+000  0.8954516E+02  0.7546771E-02  0.1303957E+00
          2   -1    0    0  501    0  0.00000000000E+00  0.00000000000E+00  0.53754596538E+02  0.53754596538E+02  0.00000000000E+00 0.  1.
         -2   -1    0    0    0  501 -0.00000000000E+00 -0.00000000000E+00 -0.37291393564E+02  0.37291393564E+02  0.00000000000E+00 0. -1.
         23    2    1    2    0    0  0.00000000000E+00  0.00000000000E+00  0.16463202974E+02  0.91045990102E+02  0.89545157666E+02 0.  0.
        -11    1    3    3    0    0  0.41416766785E+02 -0.70121593104E+01 -0.75221148128E+01  0.42674361863E+02  0.00000000000E+00 0. -1.
         11    1    3    3    0    0 -0.41416766785E+02  0.70121593104E+01  0.23985317786E+02  0.48371628239E+02  0.00000000000E+00 0.  1.
<mgrwt>
<rscale>  0 0.89545158E+02</rscale>
<asrwt>0</asrwt>
<pdfrwt beam="1">  1        2 0.82699379E-02 0.89545158E+02</pdfrwt>
<pdfrwt beam="2">  1       -2 0.57371375E-02 0.89545158E+02</pdfrwt>
<totfact> 0.10842080E+05</totfact>
</mgrwt>
</event>
<event>
 5    1  0.6004828E+000  0.9053849E+02  0.7546771E-02  0.1301553E+00
         -3   -1    0    0    0  501 -0.00000000000E+00  0.00000000000E+00  0.20790591605E+03  0.20790591605E+03  0.00000000000E+00 0.  1.
          3   -1    0    0  501    0  0.00000000000E+00 -0.00000000000E+00 -0.98568852998E+01  0.98568852998E+01  0.00000000000E+00 0. -1.
         23    2    1    2    0    0  0.00000000000E+00  0.00000000000E+00  0.19804903075E+03  0.21776280135E+03  0.90538494965E+02 0.  0.
        -11    1    3    3    0    0  0.19465140505E+02  0.26505909415E+02  0.24198190548E+02  0.40829001391E+02  0.00000000000E+00 0. -1.
         11    1    3    3    0    0 -0.19465140505E+02 -0.26505909415E+02  0.17385084020E+03  0.17693379995E+03  0.00000000000E+00 0.  1.
<mgrwt>
<rscale>  0 0.90538495E+02</rscale>
<asrwt>0</asrwt>
<pdfrwt beam="2">  1        3 0.15164440E-02 0.90538495E+02</pdfrwt>
<pdfrwt beam="1">  1       -3 0.31985522E-01 0.90538495E+02</pdfrwt>
<totfact> 0.28130265E+04</totfact>
</mgrwt>
</event>
<event>
 5    1  0.6004828E+000  0.8952908E+02  0.7546771E-02  0.1303996E+00
         -3   -1    0    0    0  501 -0.00000000000E+00  0.00000000000E+00  0.23437158548E+02  0.23437158548E+02  0.00000000000E+00 0.  1.
          3   -1    0    0  501    0  0.00000000000E+00 -0.00000000000E+00 -0.85499451544E+02  0.85499451544E+02  0.00000000000E+00 0. -1.
         23    2    1    2    0    0  0.00000000000E+00  0.00000000000E+00 -0.62062292996E+02  0.10893661009E+03  0.89529083579E+02 0.  0.
        -11    1    3    3    0    0 -0.36622548281E+02  0.20494847809E+02 -0.49983710852E+02  0.65265773417E+02  0.00000000000E+00 0. -1.
         11    1    3    3    0    0  0.36622548281E+02 -0.20494847809E+02 -0.12078582144E+02  0.43670836675E+02  0.00000000000E+00 0.  1.
<mgrwt>
<rscale>  0 0.89529084E+02</rscale>
<asrwt>0</asrwt>
<pdfrwt beam="2">  1        3 0.13153762E-01 0.89529084E+02</pdfrwt>
<pdfrwt beam="1">  1       -3 0.36057167E-02 0.89529084E+02</pdfrwt>
<totfact> 0.35745559E+04</totfact>
</mgrwt>
</event>
<event>
 4    1  0.6004828E+000  0.5122535E+02  0.7546771E-02  0.1438842E+00
         -1   -1    0    0    0  501 -0.00000000000E+00  0.00000000000E+00  0.64026424857E+02  0.64026424857E+02  0.00000000000E+00 0.  1.
          1   -1    0    0  501    0  0.00000000000E+00 -0.00000000000E+00 -0.10245910327E+02  0.10245910327E+02  0.00000000000E+00 0. -1.
        -11    1    1    2    0    0 -0.15503143878E+02  0.10546228005E+02  0.52188598639E+02  0.55454668181E+02  0.00000000000E+00 0.  1.
         11    1    1    2    0    0  0.15503143878E+02 -0.10546228005E+02  0.15919158913E+01  0.18817667003E+02  0.00000000000E+00 0. -1.
<mgrwt>
<rscale>  0 0.51225346E+02</rscale>
<asrwt>0</asrwt>
<pdfrwt beam="2">  1        1 0.15762939E-02 0.51225346E+02</pdfrwt>
<pdfrwt beam="1">  1       -1 0.98502189E-02 0.51225346E+02</pdfrwt>
<totfact> 0.37395845E+05</totfact>
</mgrwt>
</event>
<event>
 5    1  0.6004828E+000  0.9172847E+02  0.7546771E-02  0.1298719E+00
          1   -1    0    0  501    0  0.00000000000E+00  0.00000000000E+00  0.21213394530E+03  0.21213394530E+03  0.00000000000E+00 0. -1.
         -1   -1    0    0    0  501 -0.00000000000E+00 -0.00000000000E+00 -0.99160374876E+01  0.99160374876E+01  0.00000000000E+00 0.  1.
         23    2    1    2    0    0  0.00000000000E+00  0.00000000000E+00  0.20221790781E+03  0.22204998279E+03  0.91728472220E+02 0.  0.
        -11    1    3    3    0    0  0.40074023797E+02 -0.11583012617E+02  0.14725767954E+03  0.15305200995E+03  0.00000000000E+00 0.  1.
         11    1    3    3    0    0 -0.40074023797E+02  0.11583012617E+02  0.54960228267E+02  0.68997972838E+02  0.00000000000E+00 0. -1.
<mgrwt>
<rscale>  0 0.91728472E+02</rscale>
<asrwt>0</asrwt>
<pdfrwt beam="1">  1        1 0.32635988E-01 0.91728472E+02</pdfrwt>
<pdfrwt beam="2">  1       -1 0.15255444E-02 0.91728472E+02</pdfrwt>
<totfact> 0.11784781E+05</totfact>
</mgrwt>
</event>
<event>
 5    1  0.6004828E+000  0.9263495E+02  0.7546771E-02  0.1296593E+00
          2   -1    0    0  501    0  0.00000000000E+00  0.00000000000E+00  0.33374479359E+03  0.33374479359E+03  0.00000000000E+00 0. -1.
         -2   -1    0    0    0  501 -0.00000000000E+00 -0.00000000000E+00 -0.64279904354E+01  0.64279904354E+01  0.00000000000E+00 0.  1.
         23    2    1    2    0    0  0.00000000000E+00  0.00000000000E+00  0.32731680315E+03  0.34017278402E+03  0.92634946776E+02 0.  0.
        -11    1    3    3    0    0  0.11498096867E+02 -0.42620348272E+02  0.21514869014E+03  0.21963073370E+03  0.00000000000E+00 0. -1.
         11    1    3    3    0    0 -0.11498096867E+02  0.42620348272E+02  0.11216811301E+03  0.12054205032E+03  0.00000000000E+00 0.  1.
<mgrwt>
<rscale>  0 0.92634947E+02</rscale>
<asrwt>0</asrwt>
<pdfrwt beam="1">  1        2 0.51345340E-01 0.92634947E+02</pdfrwt>
<pdfrwt beam="2">  1       -2 0.98892186E-03 0.92634947E+02</pdfrwt>
<totfact> 0.17915993E+05</totfact>
</mgrwt>
</event>
<event>
 5    1  0.6004828E+000  0.9271181E+02  0.7546771E-02  0.1296414E+00
          1   -1    0    0  501    0  0.00000000000E+00  0.00000000000E+00  0.10302936246E+03  0.10302936246E+03  0.00000000000E+00 0. -1.
         -1   -1    0    0    0  501 -0.00000000000E+00 -0.00000000000E+00 -0.20856868776E+02  0.20856868776E+02  0.00000000000E+00 0.  1.
         23    2    1    2    0    0  0.00000000000E+00  0.00000000000E+00  0.82172493680E+02  0.12388623123E+03  0.92711809234E+02 0.  0.
        -11    1    3    3    0    0 -0.26945635601E+02  0.24494111907E+02  0.79416878164E+02  0.87367438633E+02  0.00000000000E+00 0. -1.
         11    1    3    3    0    0  0.26945635601E+02 -0.24494111907E+02  0.27556155166E+01  0.36518792600E+02  0.00000000000E+00 0.  1.
<mgrwt>
<rscale>  0 0.92711809E+02</rscale>
<asrwt>0</asrwt>
<pdfrwt beam="1">  1        1 0.15850671E-01 0.92711809E+02</pdfrwt>
<pdfrwt beam="2">  1       -1 0.32087491E-02 0.92711809E+02</pdfrwt>
<totfact> 0.10029761E+05</totfact>
</mgrwt>
</event>
<event>
 4    1  0.6004828E+000  0.1499836E+03  0.7546771E-02  0.1200493E+00
         -1   -1    0    0    0  501 -0.00000000000E+00  0.00000000000E+00  0.84566010400E+02  0.84566010400E+02  0.00000000000E+00 0.  1.
          1   -1    0    0  501    0  0.00000000000E+00 -0.00000000000E+00 -0.66501536070E+02  0.66501536070E+02  0.00000000000E+00 0. -1.
        -11    1    1    2    0    0  0.47301046809E+02 -0.30711557961E+02 -0.40753532009E+02  0.69580451226E+02  0.00000000000E+00 0. -1.
         11    1    1    2    0    0 -0.47301046809E+02  0.30711557961E+02  0.58818006339E+02  0.81487095244E+02  0.00000000000E+00 0.  1.
<mgrwt>
<rscale>  0 0.14998359E+03</rscale>
<asrwt>0</asrwt>
<pdfrwt beam="2">  1        1 0.10231006E-01 0.14998359E+03</pdfrwt>
<pdfrwt beam="1">  1       -1 0.13010155E-01 0.14998359E+03</pdfrwt>
<totfact> 0.23368758E+04</totfact>
</mgrwt>
</event>
<event>
 5    1  0.6004828E+000  0.9010717E+02  0.7546771E-02  0.1302592E+00
         -2   -1    0    0    0  501 -0.00000000000E+00  0.00000000000E+00  0.78040562373E+01  0.78040562373E+01  0.00000000000E+00 0.  1.
          2   -1    0    0  501    0  0.00000000000E+00 -0.00000000000E+00 -0.26009880051E+03  0.26009880051E+03  0.00000000000E+00 0. -1.
         23    2    1    2    0    0  0.00000000000E+00  0.00000000000E+00 -0.25229474427E+03  0.26790285675E+03  0.90107173220E+02 0.  0.
        -11    1    3    3    0    0 -0.31298228830E+02  0.17033229042E+02 -0.44176828489E+02  0.56756516761E+02  0.00000000000E+00 0.  1.
         11    1    3    3    0    0  0.31298228830E+02 -0.17033229042E+02 -0.20811791578E+03  0.21114633999E+03  0.00000000000E+00 0. -1.
<mgrwt>
<rscale>  0 0.90107173E+02</rscale>
<asrwt>0</asrwt>
<pdfrwt beam="2">  1        2 0.40015195E-01 0.90107173E+02</pdfrwt>
<pdfrwt beam="1">  1       -2 0.12006242E-02 0.90107173E+02</pdfrwt>
<totfact> 0.17580433E+05</totfact>
</mgrwt>
</event>
<event>
 5    1  0.6004828E+000  0.8998882E+02  0.7546771E-02  0.1302879E+00
          1   -1    0    0  501    0  0.00000000000E+00  0.00000000000E+00  0.12061188869E+02  0.12061188869E+02  0.00000000000E+00 0. -1.
         -1   -1    0    0    0  501 -0.00000000000E+00 -0.00000000000E+00 -0.16785219955E+03  0.16785219955E+03  0.00000000000E+00 0.  1.
         23    2    1    2    0    0  0.00000000000E+00  0.00000000000E+00 -0.15579101068E+03  0.17991338842E+03  0.89988823322E+02 0.  0.
        -11    1    3    3    0    0 -0.26273877927E+02  0.34507675493E+02 -0.10183696492E+03  0.11068813737E+03  0.00000000000E+00 0.  1.
         11    1    3    3    0    0  0.26273877927E+02 -0.34507675493E+02 -0.53954045755E+02  0.69225251048E+02  0.00000000000E+00 0. -1.
<mgrwt>
<rscale>  0 0.89988823E+02</rscale>
<asrwt>0</asrwt>
<pdfrwt beam="1">  1        1 0.18555676E-02 0.89988823E+02</pdfrwt>
<pdfrwt beam="2">  1       -1 0.25823414E-01 0.89988823E+02</pdfrwt>
<totfact> 0.75293672E+04</totfact>
</mgrwt>
</event>
<event>
 5    1  0.6004828E+000  0.9084405E+02  0.7546771E-02  0.1300820E+00
          2   -1    0    0  501    0  0.00000000000E+00  0.00000000000E+00  0.15250242034E+03  0.15250242034E+03  0.00000000000E+00 0. -1.
         -2   -1    0    0    0  501 -0.00000000000E+00 -0.00000000000E+00 -0.13528704386E+02  0.13528704386E+02  0.00000000000E+00 0.  1.
         23    2    1    2    0    0  0.00000000000E+00  0.00000000000E+00  0.13897371596E+03  0.16603112473E+03  0.90844045771E+02 0.  0.
        -11    1    3    3    0    0  0.21629342542E+02  0.15235146390E+02  0.13696705448E+03  0.13949878909E+03  0.00000000000E+00 0. -1.
         11    1    3    3    0    0 -0.21629342542E+02 -0.15235146390E+02  0.20066614781E+01  0.26532335642E+02  0.00000000000E+00 0.  1.
<mgrwt>
<rscale>  0 0.90844046E+02</rscale>
<asrwt>0</asrwt>
<pdfrwt beam="1">  1        2 0.23461910E-01 0.90844046E+02</pdfrwt>
<pdfrwt beam="2">  1       -2 0.20813393E-02 0.90844046E+02</pdfrwt>
<totfact> 0.14200145E+05</totfact>
</mgrwt>
</event>
<event>
 5    1  0.6004828E+000  0.9166547E+02  0.7546771E-02  0.1298868E+00
          1   -1    0    0  501    0  0.00000000000E+00  0.00000000000E+00  0.17443374451E+02  0.17443374451E+02  0.00000000000E+00 0. -1.
         -1   -1    0    0    0  501 -0.00000000000E+00 -0.00000000000E+00 -0.12042622925E+03  0.12042622925E+03  0.00000000000E+00 0.  1.
         23    2    1    2    0    0  0.00000000000E+00  0.00000000000E+00 -0.10298285480E+03  0.13786960370E+03  0.91665474646E+02 0.  0.
        -11    1    3    3    0    0 -0.29334602959E+02  0.94653700829E+01 -0.10250799849E+03  0.10704205676E+03  0.00000000000E+00 0.  1.
         11    1    3    3    0    0  0.29334602959E+02 -0.94653700829E+01 -0.47485630695E+00  0.30827546936E+02  0.00000000000E+00 0. -1.
<mgrwt>
<rscale>  0 0.91665475E+02</rscale>
<asrwt>0</asrwt>
<pdfrwt beam="1">  1        1 0.26835961E-02 0.91665475E+02</pdfrwt>
<pdfrwt beam="2">  1       -1 0.18527112E-01 0.91665475E+02</pdfrwt>
<totfact> 0.77395619E+04</totfact>
</mgrwt>
</event>
<event>
 5    1  0.6004828E+000  0.9078382E+02  0.7546771E-02  0.1300965E+00
         -2   -1    0    0    0  501 -0.00000000000E+00  0.00000000000E+00  0.41130776438E+01  0.41130776438E+01  0.00000000000E+00 0.  1.
          2   -1    0    0  501    0  0.00000000000E+00 -0.00000000000E+00 -0.50094496749E+03  0.50094496749E+03  0.00000000000E+00 0. -1.
         23    2    1    2    0    0  0.00000000000E+00  0.00000000000E+00 -0.49683188985E+03  0.50505804514E+03  0.90783821171E+02 0.  0.
        -11    1    3    3    0    0  0.84340322819E+01 -0.44594246756E+02 -0.24394517171E+03  0.24813106727E+03  0.00000000000E+00 0.  1.
         11    1    3    3    0    0 -0.84340322819E+01  0.44594246756E+02 -0.25288671815E+03  0.25692697787E+03  0.00000000000E+00 0. -1.
<mgrwt>
<rscale>  0 0.90783821E+02</rscale>
<asrwt>0</asrwt>
<pdfrwt beam="2">  1        2 0.77068439E-01 0.90783821E+02</pdfrwt>
<pdfrwt beam="1">  1       -2 0.63278132E-03 0.90783821E+02</pdfrwt>
<totfact> 0.21810749E+05</totfact>
</mgrwt>
</event>
<event>
 5    1  0.6004828E+000  0.9527289E+02  0.7546771E-02  0.1290563E+00
          1   -1    0    0  501    0  0.00000000000E+00  0.00000000000E+00  0.13729530426E+02  0.13729530426E+02  0.00000000000E+00 0. -1.
         -1   -1    0    0    0  501 -0.00000000000E+00 -0.00000000000E+00 -0.16528103595E+03  0.16528103595E+03  0.00000000000E+00 0.  1.
         23    2    1    2    0    0  0.00000000000E+00  0.00000000000E+00 -0.15155150552E+03  0.17901056638E+03  0.95272892513E+02 0.  0.
        -11    1    3    3    0    0 -0.69172052211E+01  0.28830184680E+02 -0.57192358046E+01  0.30194981950E+02  0.00000000000E+00 0. -1.
         11    1    3    3    0    0  0.69172052211E+01 -0.28830184680E+02 -0.14583226972E+03  0.14881558443E+03  0.00000000000E+00 0.  1.
<mgrwt>
<rscale>  0 0.95272893E+02</rscale>
<asrwt>0</asrwt>
<pdfrwt beam="1">  1        1 0.21122355E-02 0.95272893E+02</pdfrwt>
<pdfrwt beam="2">  1       -1 0.25427851E-01 0.95272893E+02</pdfrwt>
<totfact> 0.65155425E+04</totfact>
</mgrwt>
</event>
<event>
 5    1  0.6004828E+000  0.9071721E+02  0.7546771E-02  0.1301124E+00
          1   -1    0    0  501    0  0.00000000000E+00  0.00000000000E+00  0.52913372542E+02  0.52913372542E+02  0.00000000000E+00 0. -1.
         -1   -1    0    0    0  501 -0.00000000000E+00 -0.00000000000E+00 -0.38882476709E+02  0.38882476709E+02  0.00000000000E+00 0.  1.
         23    2    1    2    0    0  0.00000000000E+00  0.00000000000E+00  0.14030895832E+02  0.91795849251E+02  0.90717208411E+02 0.  0.
        -11    1    3    3    0    0 -0.14122054342E+02 -0.39836816541E+02  0.23673219166E+02  0.48444046864E+02  0.00000000000E+00 0. -1.
         11    1    3    3    0    0  0.14122054342E+02  0.39836816541E+02 -0.96423233331E+01  0.43351802387E+02  0.00000000000E+00 0.  1.
<mgrwt>
<rscale>  0 0.90717208E+02</rscale>
<asrwt>0</asrwt>
<pdfrwt beam="1">  1        1 0.81405189E-02 0.90717208E+02</pdfrwt>
<pdfrwt beam="2">  1       -1 0.59819195E-02 0.90717208E+02</pdfrwt>
<totfact> 0.95905121E+04</totfact>
</mgrwt>
</event>
<event>
 5    1  0.6004828E+000  0.9138816E+02  0.7546771E-02  0.1299524E+00
          1   -1    0    0  501    0  0.00000000000E+00  0.00000000000E+00  0.10681481660E+02  0.10681481660E+02  0.00000000000E+00 0. -1.
         -1   -1    0    0    0  501 -0.00000000000E+00 -0.00000000000E+00 -0.19547373010E+03  0.19547373010E+03  0.00000000000E+00 0.  1.
         23    2    1    2    0    0  0.00000000000E+00  0.00000000000E+00 -0.18479224844E+03  0.20615521176E+03  0.91388162540E+02 0.  0.
        -11    1    3    3    0    0  0.96569240616E+01  0.42993103727E+02 -0.65112275931E+02  0.78621063510E+02  0.00000000000E+00 0.  1.
         11    1    3    3    0    0 -0.96569240616E+01 -0.42993103727E+02 -0.11967997251E+03  0.12753414825E+03  0.00000000000E+00 0. -1.
<mgrwt>
<rscale>  0 0.91388163E+02</rscale>
<asrwt>0</asrwt>
<pdfrwt beam="1">  1        1 0.16433048E-02 0.91388163E+02</pdfrwt>
<pdfrwt beam="2">  1       -1 0.30072882E-01 0.91388163E+02</pdfrwt>
<totfact> 0.69456431E+04</totfact>
</mgrwt>
</event>
<event>
 5    1  0.6004828E+000  0.9312098E+02  0.7546771E-02  0.1295465E+00
         -4   -1    0    0    0  501 -0.00000000000E+00  0.00000000000E+00  0.25657389533E+02  0.25657389533E+02  0.00000000000E+00 0.  1.
          4   -1    0    0  501    0  0.00000000000E+00 -0.00000000000E+00 -0.84493374776E+02  0.84493374776E+02  0.00000000000E+00 0. -1.
         23    2    1    2    0    0  0.00000000000E+00  0.00000000000E+00 -0.58835985243E+02  0.11015076431E+03  0.93120984308E+02 0.  0.
        -11    1    3    3    0    0  0.34984215016E+02 -0.25540050456E+02 -0.49620286831E+02  0.65866245854E+02  0.00000000000E+00 0.  1.
         11    1    3    3    0    0 -0.34984215016E+02  0.25540050456E+02 -0.92156984116E+01  0.44284518456E+02  0.00000000000E+00 0. -1.
<mgrwt>
<rscale>  0 0.93120984E+02</rscale>
<asrwt>0</asrwt>
<pdfrwt beam="2">  1        4 0.12998981E-01 0.93120984E+02</pdfrwt>
<pdfrwt beam="1">  1       -4 0.39472907E-02 0.93120984E+02</pdfrwt>
<totfact> 0.24405404E+04</totfact>
</mgrwt>
</event>
<event>
 5    1  0.6004828E+000  0.9083007E+02  0.7546771E-02  0.1300854E+00
         -1   -1    0    0    0  501 -0.00000000000E+00  0.00000000000E+00  0.14678469696E+03  0.14678469696E+03  0.00000000000E+00 0.  1.
          1   -1    0    0  501    0  0.00000000000E+00 -0.00000000000E+00 -0.14051365750E+02  0.14051365750E+02  0.00000000000E+00 0. -1.
         23    2    1    2    0    0  0.00000000000E+00  0.00000000000E+00  0.13273333121E+03  0.16083606271E+03  0.90830071310E+02 0.  0.
        -11    1    3    3    0    0  0.95545588550E+01 -0.44183771654E+02  0.58642077133E+02  0.74043152843E+02  0.00000000000E+00 0.  1.
         11    1    3    3    0    0 -0.95545588550E+01  0.44183771654E+02  0.74091254082E+02  0.86792909872E+02  0.00000000000E+00 0. -1.
<mgrwt>
<rscale>  0 0.90830071E+02</rscale>
<asrwt>0</asrwt>
<pdfrwt beam="2">  1        1 0.21617487E-02 0.90830071E+02</pdfrwt>
<pdfrwt beam="1">  1       -1 0.22582260E-01 0.90830071E+02</pdfrwt>
<totfact> 0.75912931E+04</totfact>
</mgrwt>
</event>
<event>
 5    1  0.6004828E+000  0.1074222E+03  0.7546771E-02  0.1265419E+00
          2   -1    0    0  501    0  0.00000000000E+00  0.00000000000E+00  0.25320515881E+03  0.25320515881E+03  0.00000000000E+00 0. -1.
         -2   -1    0    0    0  501 -0.00000000000E+00 -0.00000000000E+00 -0.11393463243E+02  0.11393463243E+02  0.00000000000E+00 0.  1.
         23    2    1    2    0    0  0.00000000000E+00  0.00000000000E+00  0.24181169557E+03  0.26459862205E+03  0.10742222619E+03 0.  0.
        -11    1    3    3    0    0  0.50154330693E+02 -0.45473465554E+01  0.74906724391E+02  0.90261578797E+02  0.00000000000E+00 0.  1.
         11    1    3    3    0    0 -0.50154330693E+02  0.45473465554E+01  0.16690497118E+03  0.17433704325E+03  0.00000000000E+00 0. -1.
<mgrwt>
<rscale>  0 0.10742223E+03</rscale>
<asrwt>0</asrwt>
<pdfrwt beam="1">  1        2 0.38954636E-01 0.10742223E+03</pdfrwt>
<pdfrwt beam="2">  1       -2 0.17528407E-02 0.10742223E+03</pdfrwt>
<totfact> 0.10825770E+05</totfact>
</mgrwt>
</event>
<event>
 5    1  0.6004828E+000  0.8833558E+02  0.7546771E-02  0.1306933E+00
          1   -1    0    0  501    0  0.00000000000E+00  0.00000000000E+00  0.11886924387E+02  0.11886924387E+02  0.00000000000E+00 0. -1.
         -1   -1    0    0    0  501 -0.00000000000E+00 -0.00000000000E+00 -0.16411258420E+03  0.16411258420E+03  0.00000000000E+00 0.  1.
         23    2    1    2    0    0  0.00000000000E+00  0.00000000000E+00 -0.15222565982E+03  0.17599950859E+03  0.88335584661E+02 0.  0.
        -11    1    3    3    0    0 -0.33325089508E+02  0.12077318522E+02 -0.12861429830E+03  0.13340937351E+03  0.00000000000E+00 0.  1.
         11    1    3    3    0    0  0.33325089508E+02 -0.12077318522E+02 -0.23611361517E+02  0.42590135080E+02  0.00000000000E+00 0. -1.
<mgrwt>
<rscale>  0 0.88335585E+02</rscale>
<asrwt>0</asrwt>
<pdfrwt beam="1">  1        1 0.18287576E-02 0.88335585E+02</pdfrwt>
<pdfrwt beam="2">  1       -1 0.25248089E-01 0.88335585E+02</pdfrwt>
<totfact> 0.79449120E+04</totfact>
</mgrwt>
</event>
<event>
 5    1  0.6004828E+000  0.8152829E+02  0.7546771E-02  0.1324769E+00
          2   -1    0    0  501    0  0.00000000000E+00  0.00000000000E+00  0.13761943548E+03  0.13761943548E+03  0.00000000000E+00 0. -1.
         -2   -1    0    0    0  501 -0.00000000000E+00 -0.00000000000E+00 -0.12074715962E+02  0.12074715962E+02  0.00000000000E+00 0.  1.
         23    2    1    2    0    0  0.00000000000E+00  0.00000000000E+00  0.12554471952E+03  0.14969415144E+03  0.81528291881E+02 0.  0.
        -11    1    3    3    0    0 -0.46979050846E+01  0.34482741503E+02  0.10174728131E+03  0.10753436208E+03  0.00000000000E+00 0. -1.
         11    1    3    3    0    0  0.46979050846E+01 -0.34482741503E+02  0.23797438206E+02  0.42159789361E+02  0.00000000000E+00 0.  1.
<mgrwt>
<rscale>  0 0.81528292E+02</rscale>
<asrwt>0</asrwt>
<pdfrwt beam="1">  1        2 0.21172220E-01 0.81528292E+02</pdfrwt>
<pdfrwt beam="2">  1       -2 0.18576487E-02 0.81528292E+02</pdfrwt>
<totfact> 0.18369612E+05</totfact>
</mgrwt>
</event>
<event>
 5    1  0.6004828E+000  0.9112408E+02  0.7546771E-02  0.1300152E+00
         -3   -1    0    0    0  501 -0.00000000000E+00  0.00000000000E+00  0.10015291307E+02  0.10015291307E+02  0.00000000000E+00 0.  1.
          3   -1    0    0  501    0  0.00000000000E+00 -0.00000000000E+00 -0.20727301128E+03  0.20727301128E+03  0.00000000000E+00 0. -1.
         23    2    1    2    0    0  0.00000000000E+00  0.00000000000E+00 -0.19725771998E+03  0.21728830259E+03  0.91124082177E+02 0.  0.
        -11    1    3    3    0    0  0.31071172283E+02 -0.24988811407E+02 -0.15119906833E+03  0.15636820875E+03  0.00000000000E+00 0.  1.
         11    1    3    3    0    0 -0.31071172283E+02  0.24988811407E+02 -0.46058651647E+02  0.60920093846E+02  0.00000000000E+00 0. -1.
<mgrwt>
<rscale>  0 0.91124082E+02</rscale>
<asrwt>0</asrwt>
<pdfrwt beam="2">  1        3 0.31888156E-01 0.91124082E+02</pdfrwt>
<pdfrwt beam="1">  1       -3 0.15408140E-02 0.91124082E+02</pdfrwt>
<totfact> 0.27672007E+04</totfact>
</mgrwt>
</event>
<event>
 5    1  0.6004828E+000  0.8517570E+02  0.7546771E-02  0.1314974E+00
         -1   -1    0    0    0  501 -0.00000000000E+00  0.00000000000E+00  0.51061324434E+02  0.51061324434E+02  0.00000000000E+00 0.  1.
          1   -1    0    0  501    0  0.00000000000E+00 -0.00000000000E+00 -0.35520523485E+02  0.35520523485E+02  0.00000000000E+00 0. -1.
         23    2    1    2    0    0  0.00000000000E+00  0.00000000000E+00  0.15540800950E+02  0.86581847919E+02  0.85175700143E+02 0.  0.
        -11    1    3    3    0    0  0.28323763184E+02 -0.34990084583E+01 -0.24362314699E+02  0.37523339385E+02  0.00000000000E+00 0. -1.
         11    1    3    3    0    0 -0.28323763184E+02  0.34990084583E+01  0.39903115649E+02  0.49058508534E+02  0.00000000000E+00 0.  1.
<mgrwt>
<rscale>  0 0.85175700E+02</rscale>
<asrwt>0</asrwt>
<pdfrwt beam="2">  1        1 0.54646959E-02 0.85175700E+02</pdfrwt>
<pdfrwt beam="1">  1       -1 0.78555884E-02 0.85175700E+02</pdfrwt>
<totfact> 0.10789539E+05</totfact>
</mgrwt>
</event>
<event>
 5    1  0.6004828E+000  0.9172828E+02  0.7546771E-02  0.1298720E+00
         -2   -1    0    0    0  501 -0.00000000000E+00  0.00000000000E+00  0.26793316132E+02  0.26793316132E+02  0.00000000000E+00 0. -1.
          2   -1    0    0  501    0  0.00000000000E+00 -0.00000000000E+00 -0.78509110493E+02  0.78509110493E+02  0.00000000000E+00 0.  1.
         23    2    1    2    0    0  0.00000000000E+00  0.00000000000E+00 -0.51715794361E+02  0.10530242663E+03  0.91728281717E+02 0.  0.
        -11    1    3    3    0    0  0.30260891583E+02  0.21048132431E+02  0.54711630984E+01  0.37264984421E+02  0.00000000000E+00 0. -1.
         11    1    3    3    0    0 -0.30260891583E+02 -0.21048132431E+02 -0.57186957460E+02  0.68037442204E+02  0.00000000000E+00 0.  1.
<mgrwt>
<rscale>  0 0.91728282E+02</rscale>
<asrwt>0</asrwt>
<pdfrwt beam="2">  1        2 0.12078324E-01 0.91728282E+02</pdfrwt>
<pdfrwt beam="1">  1       -2 0.41220487E-02 0.91728282E+02</pdfrwt>
<totfact> 0.11233793E+05</totfact>
</mgrwt>
</event>
<event>
 5    1  0.6004828E+000  0.1199394E+03  0.7546771E-02  0.1243197E+00
          2   -1    0    0  501    0  0.00000000000E+00  0.00000000000E+00  0.49501639990E+03  0.49501639990E+03  0.00000000000E+00 0. -1.
         -2   -1    0    0    0  501 -0.00000000000E+00 -0.00000000000E+00 -0.72651485045E+01  0.72651485045E+01  0.00000000000E+00 0.  1.
         23    2    1    2    0    0  0.00000000000E+00  0.00000000000E+00  0.48775125139E+03  0.50228154840E+03  0.11993944568E+03 0.  0.
        -11    1    3    3    0    0 -0.36633253553E+01  0.56533037523E+02  0.32625530883E+03  0.33113732925E+03  0.00000000000E+00 0. -1.
         11    1    3    3    0    0  0.36633253553E+01 -0.56533037523E+02  0.16149594256E+03  0.17114421915E+03  0.00000000000E+00 0.  1.
<mgrwt>
<rscale>  0 0.11993945E+03</rscale>
<asrwt>0</asrwt>
<pdfrwt beam="1">  1        2 0.76156343E-01 0.11993945E+03</pdfrwt>
<pdfrwt beam="2">  1       -2 0.11177155E-02 0.11993945E+03</pdfrwt>
<totfact> 0.10285351E+05</totfact>
</mgrwt>
</event>
<event>
 5    1  0.6004828E+000  0.9166666E+02  0.7546771E-02  0.1298865E+00
         -2   -1    0    0    0  501 -0.00000000000E+00  0.00000000000E+00  0.85622771712E+01  0.85622771712E+01  0.00000000000E+00 0.  1.
          2   -1    0    0  501    0  0.00000000000E+00 -0.00000000000E+00 -0.24534292634E+03  0.24534292634E+03  0.00000000000E+00 0. -1.
         23    2    1    2    0    0  0.00000000000E+00  0.00000000000E+00 -0.23678064917E+03  0.25390520351E+03  0.91666659966E+02 0.  0.
        -11    1    3    3    0    0 -0.35465052810E+02 -0.23093793567E+02 -0.16712760336E+03  0.17240281052E+03  0.00000000000E+00 0.  1.
         11    1    3    3    0    0  0.35465052810E+02  0.23093793567E+02 -0.69653045812E+02  0.81502392990E+02  0.00000000000E+00 0. -1.
<mgrwt>
<rscale>  0 0.91666660E+02</rscale>
<asrwt>0</asrwt>
<pdfrwt beam="2">  1        2 0.37745068E-01 0.91666660E+02</pdfrwt>
<pdfrwt beam="1">  1       -2 0.13172733E-02 0.91666660E+02</pdfrwt>
<totfact> 0.16431886E+05</totfact>
</mgrwt>
</event>
<event>
 5    1  0.6004828E+000  0.9045929E+02  0.7546771E-02  0.1301743E+00
         -2   -1    0    0    0  501 -0.00000000000E+00  0.00000000000E+00  0.89889967291E+02  0.89889967291E+02  0.00000000000E+00 0.  1.
          2   -1    0    0  501    0  0.00000000000E+00 -0.00000000000E+00 -0.22758052948E+02  0.22758052948E+02  0.00000000000E+00 0. -1.
         23    2    1    2    0    0  0.00000000000E+00  0.00000000000E+00  0.67131914344E+02  0.11264802024E+03  0.90459286646E+02 0.  0.
        -11    1    3    3    0    0  0.25317710883E+02  0.36634985947E+02  0.43419650423E+02  0.62196259715E+02  0.00000000000E+00 0.  1.
         11    1    3    3    0    0 -0.25317710883E+02 -0.36634985947E+02  0.23712263921E+02  0.50451760524E+02  0.00000000000E+00 0. -1.
<mgrwt>
<rscale>  0 0.90459287E+02</rscale>
<asrwt>0</asrwt>
<pdfrwt beam="2">  1        2 0.35012390E-02 0.90459287E+02</pdfrwt>
<pdfrwt beam="1">  1       -2 0.13829226E-01 0.90459287E+02</pdfrwt>
<totfact> 0.83957658E+04</totfact>
</mgrwt>
</event>
<event>
 5    1  0.6004828E+000  0.9077954E+02  0.7546771E-02  0.1300975E+00
         -2   -1    0    0    0  501 -0.00000000000E+00  0.00000000000E+00  0.17362013945E+03  0.17362013945E+03  0.00000000000E+00 0.  1.
          2   -1    0    0  501    0  0.00000000000E+00 -0.00000000000E+00 -0.11866313831E+02  0.11866313831E+02  0.00000000000E+00 0. -1.
         23    2    1    2    0    0  0.00000000000E+00  0.00000000000E+00  0.16175382562E+03  0.18548645328E+03  0.90779536507E+02 0.  0.
        -11    1    3    3    0    0  0.23836479568E+02 -0.20821859743E+02  0.14400071239E+02  0.34771966482E+02  0.00000000000E+00 0. -1.
         11    1    3    3    0    0 -0.23836479568E+02  0.20821859743E+02  0.14735375438E+03  0.15071448680E+03  0.00000000000E+00 0.  1.
<mgrwt>
<rscale>  0 0.90779537E+02</rscale>
<asrwt>0</asrwt>
<pdfrwt beam="2">  1        2 0.18255869E-02 0.90779537E+02</pdfrwt>
<pdfrwt beam="1">  1       -2 0.26710789E-01 0.90779537E+02</pdfrwt>
<totfact> 0.66820911E+04</totfact>
</mgrwt>
</event>
<event>
 5    1  0.6004828E+000  0.9138149E+02  0.7546771E-02  0.1299540E+00
          2   -1    0    0  501    0  0.00000000000E+00  0.00000000000E+00  0.84021485444E+02  0.84021485444E+02  0.00000000000E+00 0. -1.
         -2   -1    0    0    0  501 -0.00000000000E+00 -0.00000000000E+00 -0.24846549996E+02  0.24846549996E+02  0.00000000000E+00 0.  1.
         23    2    1    2    0    0  0.00000000000E+00  0.00000000000E+00  0.59174935448E+02  0.10886803544E+03  0.91381486939E+02 0.  0.
        -11    1    3    3    0    0  0.29398242504E+02 -0.16538551654E+02  0.66304942712E+02  0.74391705056E+02  0.00000000000E+00 0. -1.
         11    1    3    3    0    0 -0.29398242504E+02  0.16538551654E+02 -0.71300072641E+01  0.34476330383E+02  0.00000000000E+00 0.  1.
<mgrwt>
<rscale>  0 0.91381487E+02</rscale>
<asrwt>0</asrwt>
<pdfrwt beam="1">  1        2 0.12926382E-01 0.91381487E+02</pdfrwt>
<pdfrwt beam="2">  1       -2 0.38225462E-02 0.91381487E+02</pdfrwt>
<totfact> 0.11576623E+05</totfact>
</mgrwt>
</event>
<event>
 5    1  0.6004828E+000  0.9158017E+02  0.7546771E-02  0.1299070E+00
          2   -1    0    0  501    0  0.00000000000E+00  0.00000000000E+00  0.22969250667E+02  0.22969250667E+02  0.00000000000E+00 0. -1.
         -2   -1    0    0    0  501 -0.00000000000E+00 -0.00000000000E+00 -0.91284293314E+02  0.91284293314E+02  0.00000000000E+00 0.  1.
         23    2    1    2    0    0  0.00000000000E+00  0.00000000000E+00 -0.68315042646E+02  0.11425354398E+03  0.91580168489E+02 0.  0.
        -11    1    3    3    0    0  0.25147314529E+02  0.81701522054E+00 -0.81887456809E+02  0.85665690475E+02  0.00000000000E+00 0.  1.
         11    1    3    3    0    0 -0.25147314529E+02 -0.81701522054E+00  0.13572414163E+02  0.28587853506E+02  0.00000000000E+00 0. -1.
<mgrwt>
<rscale>  0 0.91580168E+02</rscale>
<asrwt>0</asrwt>
<pdfrwt beam="1">  1        2 0.35337309E-02 0.91580168E+02</pdfrwt>
<pdfrwt beam="2">  1       -2 0.14043737E-01 0.91580168E+02</pdfrwt>
<totfact> 0.81077636E+04</totfact>
</mgrwt>
</event>
<event>
 5    1  0.6004828E+000  0.9252430E+02  0.7546771E-02  0.1296851E+00
          1   -1    0    0  501    0  0.00000000000E+00  0.00000000000E+00  0.36452995497E+03  0.36452995497E+03  0.00000000000E+00 0.  1.
         -1   -1    0    0    0  501 -0.00000000000E+00 -0.00000000000E+00 -0.58710857454E+01  0.58710857454E+01  0.00000000000E+00 0. -1.
         23    2    1    2    0    0  0.00000000000E+00  0.00000000000E+00  0.35865886923E+03  0.37040104072E+03  0.92524302157E+02 0.  0.
        -11    1    3    3    0    0 -0.43093941702E+02  0.33388504820E+01  0.24534732178E+03  0.24912555878E+03  0.00000000000E+00 0.  1.
         11    1    3    3    0    0  0.43093941702E+02 -0.33388504820E+01  0.11331154745E+03  0.12127548194E+03  0.00000000000E+00 0. -1.
<mgrwt>
<rscale>  0 0.92524302E+02</rscale>
<asrwt>0</asrwt>
<pdfrwt beam="1">  1        1 0.56081514E-01 0.92524302E+02</pdfrwt>
<pdfrwt beam="2">  1       -1 0.90324424E-03 0.92524302E+02</pdfrwt>
<totfact> 0.12769773E+05</totfact>
</mgrwt>
</event>
<event>
 5    1  0.6004828E+000  0.9191934E+02  0.7546771E-02  0.1298269E+00
          2   -1    0    0  501    0  0.00000000000E+00  0.00000000000E+00  0.29543057118E+02  0.29543057118E+02  0.00000000000E+00 0. -1.
         -2   -1    0    0    0  501 -0.00000000000E+00 -0.00000000000E+00 -0.71498729109E+02  0.71498729109E+02  0.00000000000E+00 0.  1.
         23    2    1    2    0    0  0.00000000000E+00  0.00000000000E+00 -0.41955671991E+02  0.10104178623E+03  0.91919335026E+02 0.  0.
        -11    1    3    3    0    0  0.21034049078E+02 -0.20134109444E+02 -0.60066397326E+02  0.66751671675E+02  0.00000000000E+00 0.  1.
         11    1    3    3    0    0 -0.21034049078E+02  0.20134109444E+02  0.18110725335E+02  0.34290114551E+02  0.00000000000E+00 0. -1.
<mgrwt>
<rscale>  0 0.91919335E+02</rscale>
<asrwt>0</asrwt>
<pdfrwt beam="1">  1        2 0.45450857E-02 0.91919335E+02</pdfrwt>
<pdfrwt beam="2">  1       -2 0.10999804E-01 0.91919335E+02</pdfrwt>
<totfact> 0.86001382E+04</totfact>
</mgrwt>
</event>
<event>
 5    1  0.6004828E+000  0.8960822E+02  0.7546771E-02  0.1303803E+00
         -3   -1    0    0    0  501 -0.00000000000E+00  0.00000000000E+00  0.50916691357E+02  0.50916691357E+02  0.00000000000E+00 0.  1.
          3   -1    0    0  501    0  0.00000000000E+00 -0.00000000000E+00 -0.39425351408E+02  0.39425351408E+02  0.00000000000E+00 0. -1.
         23    2    1    2    0    0  0.00000000000E+00  0.00000000000E+00  0.11491339949E+02  0.90342042765E+02  0.89608223937E+02 0.  0.
        -11    1    3    3    0    0  0.21678750808E+02 -0.18670920672E+02  0.40507543993E+02  0.49592667157E+02  0.00000000000E+00 0.  1.
         11    1    3    3    0    0 -0.21678750808E+02  0.18670920672E+02 -0.29016204045E+02  0.40749375609E+02  0.00000000000E+00 0. -1.
<mgrwt>
<rscale>  0 0.89608224E+02</rscale>
<asrwt>0</asrwt>
<pdfrwt beam="2">  1        3 0.60654386E-02 0.89608224E+02</pdfrwt>
<pdfrwt beam="1">  1       -3 0.78333372E-02 0.89608224E+02</pdfrwt>
<totfact> 0.37113786E+04</totfact>
</mgrwt>
</event>
<event>
 5    1  0.6004828E+000  0.9116662E+02  0.7546771E-02  0.1300051E+00
          2   -1    0    0  501    0  0.00000000000E+00  0.00000000000E+00  0.49852843827E+02  0.49852843827E+02  0.00000000000E+00 0. -1.
         -2   -1    0    0    0  501 -0.00000000000E+00 -0.00000000000E+00 -0.41679434746E+02  0.41679434746E+02  0.00000000000E+00 0.  1.
         23    2    1    2    0    0  0.00000000000E+00  0.00000000000E+00  0.81734090806E+01  0.91532278573E+02  0.91166624401E+02 0.  0.
        -11    1    3    3    0    0  0.18198414250E+02 -0.20733873557E+01  0.45995674622E+02  0.49508416458E+02  0.00000000000E+00 0. -1.
         11    1    3    3    0    0 -0.18198414250E+02  0.20733873557E+01 -0.37822265541E+02  0.42023862114E+02  0.00000000000E+00 0.  1.
<mgrwt>
<rscale>  0 0.91166624E+02</rscale>
<asrwt>0</asrwt>
<pdfrwt beam="1">  1        2 0.76696682E-02 0.91166624E+02</pdfrwt>
<pdfrwt beam="2">  1       -2 0.64122208E-02 0.91166624E+02</pdfrwt>
<totfact> 0.10103159E+05</totfact>
</mgrwt>
</event>
<event>
 5    1  0.6004828E+000  0.1008433E+03  0.7546771E-02  0.1278532E+00
          2   -1    0    0  501    0  0.00000000000E+00  0.00000000000E+00  0.33609841475E+03  0.33609841475E+03  0.00000000000E+00 0. -1.
         -2   -1    0    0    0  501 -0.00000000000E+00 -0.00000000000E+00 -0.75642840900E+01  0.75642840900E+01  0.00000000000E+00 0.  1.
         23    2    1    2    0    0  0.00000000000E+00  0.00000000000E+00  0.32853413066E+03  0.34366269884E+03  0.10084332187E+03 0.  0.
        -11    1    3    3    0    0  0.21120589213E+02  0.37724721630E+02  0.75851593652E+02  0.87308064750E+02  0.00000000000E+00 0.  1.
         11    1    3    3    0    0 -0.21120589213E+02 -0.37724721630E+02  0.25268253701E+03  0.25635463409E+03  0.00000000000E+00 0. -1.
<mgrwt>
<rscale>  0 0.10084332E+03</rscale>
<asrwt>0</asrwt>
<pdfrwt beam="1">  1        2 0.51707437E-01 0.10084332E+03</pdfrwt>
<pdfrwt beam="2">  1       -2 0.11637363E-02 0.10084332E+03</pdfrwt>
<totfact> 0.14306357E+05</totfact>
</mgrwt>
</event>
<event>
 5    1  0.6004828E+000  0.9145329E+02  0.7546771E-02  0.1299370E+00
          1   -1    0    0  501    0  0.00000000000E+00  0.00000000000E+00  0.18341895080E+02  0.18341895080E+02  0.00000000000E+00 0. -1.
         -1   -1    0    0    0  501 -0.00000000000E+00 -0.00000000000E+00 -0.11399728735E+03  0.11399728735E+03  0.00000000000E+00 0.  1.
         23    2    1    2    0    0  0.00000000000E+00  0.00000000000E+00 -0.95655392273E+02  0.13233918243E+03  0.91453294834E+02 0.  0.
        -11    1    3    3    0    0  0.16243225995E+02  0.38678951399E+02 -0.74155699289E+02  0.85199597470E+02  0.00000000000E+00 0.  1.
         11    1    3    3    0    0 -0.16243225995E+02 -0.38678951399E+02 -0.21499692983E+02  0.47139584962E+02  0.00000000000E+00 0. -1.
<mgrwt>
<rscale>  0 0.91453295E+02</rscale>
<asrwt>0</asrwt>
<pdfrwt beam="1">  1        1 0.28218300E-02 0.91453295E+02</pdfrwt>
<pdfrwt beam="2">  1       -1 0.17538044E-01 0.91453295E+02</pdfrwt>
<totfact> 0.78728904E+04</totfact>
</mgrwt>
</event>
<event>
 5    1  0.6004828E+000  0.9385768E+02  0.7546771E-02  0.1293770E+00
         -2   -1    0    0    0  501 -0.00000000000E+00  0.00000000000E+00  0.12266286361E+02  0.12266286361E+02  0.00000000000E+00 0.  1.
          2   -1    0    0  501    0  0.00000000000E+00 -0.00000000000E+00 -0.17954218974E+03  0.17954218974E+03  0.00000000000E+00 0. -1.
         23    2    1    2    0    0  0.00000000000E+00  0.00000000000E+00 -0.16727590338E+03  0.19180847610E+03  0.93857677646E+02 0.  0.
        -11    1    3    3    0    0 -0.35189203513E+02 -0.21530620817E+02 -0.12935584928E+03  0.13577475251E+03  0.00000000000E+00 0. -1.
         11    1    3    3    0    0  0.35189203513E+02  0.21530620817E+02 -0.37920054104E+02  0.56033723595E+02  0.00000000000E+00 0.  1.
<mgrwt>
<rscale>  0 0.93857678E+02</rscale>
<asrwt>0</asrwt>
<pdfrwt beam="2">  1        2 0.27621871E-01 0.93857678E+02</pdfrwt>
<pdfrwt beam="1">  1       -2 0.18871212E-02 0.93857678E+02</pdfrwt>
<totfact> 0.13758539E+05</totfact>
</mgrwt>
</event>
<event>
 5    1  0.6004828E+000  0.9084884E+02  0.7546771E-02  0.1300809E+00
          2   -1    0    0  501    0  0.00000000000E+00  0.00000000000E+00  0.19680738793E+03  0.19680738793E+03  0.00000000000E+00 0.  1.
         -2   -1    0    0    0  501 -0.00000000000E+00 -0.00000000000E+00 -0.10484251252E+02  0.10484251252E+02  0.00000000000E+00 0. -1.
         23    2    1    2    0    0  0.00000000000E+00  0.00000000000E+00  0.18632313668E+03  0.20729163918E+03  0.90848843765E+02 0.  0.
        -11    1    3    3    0    0  0.26224522256E+02  0.33169421267E+02  0.55293122159E+02  0.69607940875E+02  0.00000000000E+00 0. -1.
         11    1    3    3    0    0 -0.26224522256E+02 -0.33169421267E+02  0.13103001452E+03  0.13768369831E+03  0.00000000000E+00 0.  1.
<mgrwt>
<rscale>  0 0.90848844E+02</rscale>
<asrwt>0</asrwt>
<pdfrwt beam="1">  1        2 0.30278057E-01 0.90848844E+02</pdfrwt>
<pdfrwt beam="2">  1       -2 0.16129619E-02 0.90848844E+02</pdfrwt>
<totfact> 0.15528281E+05</totfact>
</mgrwt>
</event>
<event>
 5    1  0.6004828E+000  0.8989024E+02  0.7546771E-02  0.1303118E+00
         -1   -1    0    0    0  501 -0.00000000000E+00  0.00000000000E+00  0.17050446477E+02  0.17050446477E+02  0.00000000000E+00 0.  1.
          1   -1    0    0  501    0  0.00000000000E+00 -0.00000000000E+00 -0.11847570899E+03  0.11847570899E+03  0.00000000000E+00 0. -1.
         23    2    1    2    0    0  0.00000000000E+00  0.00000000000E+00 -0.10142526251E+03  0.13552615547E+03  0.89890238290E+02 0.  0.
        -11    1    3    3    0    0 -0.24556011117E+02 -0.37313753953E+02 -0.43212020995E+02  0.62149760052E+02  0.00000000000E+00 0. -1.
         11    1    3    3    0    0  0.24556011117E+02  0.37313753953E+02 -0.58213241515E+02  0.73376395413E+02  0.00000000000E+00 0.  1.
<mgrwt>
<rscale>  0 0.89890238E+02</rscale>
<asrwt>0</asrwt>
<pdfrwt beam="2">  1        1 0.18227032E-01 0.89890238E+02</pdfrwt>
<pdfrwt beam="1">  1       -1 0.26231456E-02 0.89890238E+02</pdfrwt>
<totfact> 0.11171898E+05</totfact>
</mgrwt>
</event>
<event>
 5    1  0.6004828E+000  0.9351022E+02  0.7546771E-02  0.1294567E+00
         -2   -1    0    0    0  501 -0.00000000000E+00  0.00000000000E+00  0.50805931214E+02  0.50805931214E+02  0.00000000000E+00 0.  1.
          2   -1    0    0  501    0  0.00000000000E+00 -0.00000000000E+00 -0.43027263841E+02  0.43027263841E+02  0.00000000000E+00 0. -1.
         23    2    1    2    0    0  0.00000000000E+00  0.00000000000E+00  0.77786673727E+01  0.93833195055E+02  0.93510217774E+02 0.  0.
        -11    1    3    3    0    0  0.35439726443E+02  0.29598674077E+02  0.11262124904E+02  0.47527793709E+02  0.00000000000E+00 0.  1.
         11    1    3    3    0    0 -0.35439726443E+02 -0.29598674077E+02 -0.34834575317E+01  0.46305401346E+02  0.00000000000E+00 0. -1.
<mgrwt>
<rscale>  0 0.93510218E+02</rscale>
<asrwt>0</asrwt>
<pdfrwt beam="2">  1        2 0.66195791E-02 0.93510218E+02</pdfrwt>
<pdfrwt beam="1">  1       -2 0.78162971E-02 0.93510218E+02</pdfrwt>
<totfact> 0.90357069E+04</totfact>
</mgrwt>
</event>
<event>
 5    1  0.6004828E+000  0.9010306E+02  0.7546771E-02  0.1302602E+00
          3   -1    0    0  501    0  0.00000000000E+00  0.00000000000E+00  0.19798220899E+03  0.19798220899E+03  0.00000000000E+00 0. -1.
         -3   -1    0    0    0  501 -0.00000000000E+00 -0.00000000000E+00 -0.10251630107E+02  0.10251630107E+02  0.00000000000E+00 0.  1.
         23    2    1    2    0    0  0.00000000000E+00  0.00000000000E+00  0.18773057888E+03  0.20823383910E+03  0.90103060419E+02 0.  0.
        -11    1    3    3    0    0 -0.38412041272E+02 -0.15827488091E+02  0.53593993708E+02  0.67810843200E+02  0.00000000000E+00 0.  1.
         11    1    3    3    0    0  0.38412041272E+02  0.15827488091E+02  0.13413658517E+03  0.14042299589E+03  0.00000000000E+00 0. -1.
<mgrwt>
<rscale>  0 0.90103060E+02</rscale>
<asrwt>0</asrwt>
<pdfrwt beam="1">  1        3 0.30458799E-01 0.90103060E+02</pdfrwt>
<pdfrwt beam="2">  1       -3 0.15771740E-02 0.90103060E+02</pdfrwt>
<totfact> 0.28988119E+04</totfact>
</mgrwt>
</event>
<event>
 5    1  0.6004828E+000  0.9112097E+02  0.7546771E-02  0.1300160E+00
          2   -1    0    0  501    0  0.00000000000E+00  0.00000000000E+00  0.26967631658E+02  0.26967631658E+02  0.00000000000E+00 0.  1.
         -2   -1    0    0    0  501 -0.00000000000E+00 -0.00000000000E+00 -0.76972194981E+02  0.76972194981E+02  0.00000000000E+00 0. -1.
         23    2    1    2    0    0  0.00000000000E+00  0.00000000000E+00 -0.50004563324E+02  0.10393982664E+03  0.91120970191E+02 0.  0.
        -11    1    3    3    0    0 -0.92421349682E+01 -0.17182243390E+02  0.21961467175E+02  0.29376054656E+02  0.00000000000E+00 0.  1.
         11    1    3    3    0    0  0.92421349682E+01  0.17182243390E+02 -0.71966030498E+02  0.74563771983E+02  0.00000000000E+00 0. -1.
<mgrwt>
<rscale>  0 0.91120970E+02</rscale>
<asrwt>0</asrwt>
<pdfrwt beam="1">  1        2 0.41488664E-02 0.91120970E+02</pdfrwt>
<pdfrwt beam="2">  1       -2 0.11841876E-01 0.91120970E+02</pdfrwt>
<totfact> 0.86114893E+04</totfact>
</mgrwt>
</event>
<event>
 5    1  0.6004828E+000  0.9095407E+02  0.7546771E-02  0.1300558E+00
         -1   -1    0    0    0  501 -0.00000000000E+00  0.00000000000E+00  0.46764868559E+02  0.46764868559E+02  0.00000000000E+00 0.  1.
          1   -1    0    0  501    0  0.00000000000E+00 -0.00000000000E+00 -0.44224670845E+02  0.44224670845E+02  0.00000000000E+00 0. -1.
         23    2    1    2    0    0  0.00000000000E+00  0.00000000000E+00  0.25401977140E+01  0.90989539404E+02  0.90954074546E+02 0.  0.
        -11    1    3    3    0    0 -0.14104190472E+02 -0.84884402695E+01 -0.41139580454E+02  0.44310798763E+02  0.00000000000E+00 0. -1.
         11    1    3    3    0    0  0.14104190472E+02  0.84884402695E+01  0.43679778168E+02  0.46678740641E+02  0.00000000000E+00 0.  1.
<mgrwt>
<rscale>  0 0.90954075E+02</rscale>
<asrwt>0</asrwt>
<pdfrwt beam="2">  1        1 0.68037955E-02 0.90954075E+02</pdfrwt>
<pdfrwt beam="1">  1       -1 0.71945952E-02 0.90954075E+02</pdfrwt>
<totfact> 0.92685855E+04</totfact>
</mgrwt>
</event>
<event>
 5    1  0.6004828E+000  0.9137224E+02  0.7546771E-02  0.1299562E+00
          1   -1    0    0  501    0  0.00000000000E+00  0.00000000000E+00  0.14666321172E+02  0.14666321172E+02  0.00000000000E+00 0. -1.
         -1   -1    0    0    0  501 -0.00000000000E+00 -0.00000000000E+00 -0.14231392041E+03  0.14231392041E+03  0.00000000000E+00 0.  1.
         23    2    1    2    0    0  0.00000000000E+00  0.00000000000E+00 -0.12764759924E+03  0.15698024158E+03  0.91372242261E+02 0.  0.
        -11    1    3    3    0    0 -0.56947881185E+01 -0.45121606982E+02 -0.71279264541E+02  0.84552490099E+02  0.00000000000E+00 0.  1.
         11    1    3    3    0    0  0.56947881185E+01  0.45121606982E+02 -0.56368334694E+02  0.72427751481E+02  0.00000000000E+00 0. -1.
<mgrwt>
<rscale>  0 0.91372242E+02</rscale>
<asrwt>0</asrwt>
<pdfrwt beam="1">  1        1 0.22563572E-02 0.91372242E+02</pdfrwt>
<pdfrwt beam="2">  1       -1 0.21894449E-01 0.91372242E+02</pdfrwt>
<totfact> 0.75280380E+04</totfact>
</mgrwt>
</event>
<event>
 5    1  0.6004828E+000  0.9113734E+02  0.7546771E-02  0.1300121E+00
         -1   -1    0    0    0  501 -0.00000000000E+00  0.00000000000E+00  0.10716368270E+03  0.10716368270E+03  0.00000000000E+00 0.  1.
          1   -1    0    0  501    0  0.00000000000E+00 -0.00000000000E+00 -0.19376933853E+02  0.19376933853E+02  0.00000000000E+00 0. -1.
         23    2    1    2    0    0  0.00000000000E+00  0.00000000000E+00  0.87786748848E+02  0.12654061655E+03  0.91137337928E+02 0.  0.
        -11    1    3    3    0    0  0.46399377030E+01  0.17071682253E+02 -0.14414244718E+02  0.22819767914E+02  0.00000000000E+00 0. -1.
         11    1    3    3    0    0 -0.46399377030E+01 -0.17071682253E+02  0.10220099357E+03  0.10372084864E+03  0.00000000000E+00 0.  1.
<mgrwt>
<rscale>  0 0.91137338E+02</rscale>
<asrwt>0</asrwt>
<pdfrwt beam="2">  1        1 0.29810668E-02 0.91137338E+02</pdfrwt>
<pdfrwt beam="1">  1       -1 0.16486720E-01 0.91137338E+02</pdfrwt>
<totfact> 0.80402660E+04</totfact>
</mgrwt>
</event>
<event>
 5    1  0.6004828E+000  0.9197953E+02  0.7546771E-02  0.1298128E+00
         -2   -1    0    0    0  501 -0.00000000000E+00  0.00000000000E+00  0.87918222885E+01  0.87918222885E+01  0.00000000000E+00 0. -1.
          2   -1    0    0  501    0  0.00000000000E+00 -0.00000000000E+00 -0.24057113584E+03  0.24057113584E+03  0.00000000000E+00 0.  1.
         23    2    1    2    0    0  0.00000000000E+00  0.00000000000E+00 -0.23177931355E+03  0.24936295813E+03  0.91979534117E+02 0.  0.
        -11    1    3    3    0    0  0.36198527420E+02 -0.21507093826E+02 -0.65740708580E+02  0.78068746863E+02  0.00000000000E+00 0. -1.
         11    1    3    3    0    0 -0.36198527420E+02  0.21507093826E+02 -0.16603860497E+03  0.17129421127E+03  0.00000000000E+00 0.  1.
<mgrwt>
<rscale>  0 0.91979534E+02</rscale>
<asrwt>0</asrwt>
<pdfrwt beam="2">  1        2 0.37010948E-01 0.91979534E+02</pdfrwt>
<pdfrwt beam="1">  1       -2 0.13525879E-02 0.91979534E+02</pdfrwt>
<totfact> 0.16164471E+05</totfact>
</mgrwt>
</event>
<event>
 5    1  0.6004828E+000  0.9798130E+02  0.7546771E-02  0.1284599E+00
          2   -1    0    0  501    0  0.00000000000E+00  0.00000000000E+00  0.21028448501E+03  0.21028448501E+03  0.00000000000E+00 0.  1.
         -2   -1    0    0    0  501 -0.00000000000E+00 -0.00000000000E+00 -0.11413508570E+02  0.11413508570E+02  0.00000000000E+00 0. -1.
         23    2    1    2    0    0  0.00000000000E+00  0.00000000000E+00  0.19887097644E+03  0.22169799358E+03  0.97981299681E+02 0.  0.
        -11    1    3    3    0    0 -0.12575055681E+02 -0.35520519350E+02  0.17027666439E+03  0.17439604857E+03  0.00000000000E+00 0. -1.
         11    1    3    3    0    0  0.12575055681E+02  0.35520519350E+02  0.28594312048E+02  0.47301945010E+02  0.00000000000E+00 0.  1.
<mgrwt>
<rscale>  0 0.97981300E+02</rscale>
<asrwt>0</asrwt>
<pdfrwt beam="1">  1        2 0.32351456E-01 0.97981300E+02</pdfrwt>
<pdfrwt beam="2">  1       -2 0.17559245E-02 0.97981300E+02</pdfrwt>
<totfact> 0.12967895E+05</totfact>
</mgrwt>
</event>
<event>
 5    1  0.6004828E+000  0.9568024E+02  0.7546771E-02  0.1289651E+00
         -2   -1    0    0    0  501 -0.00000000000E+00  0.00000000000E+00  0.11705230368E+02  0.11705230368E+02  0.00000000000E+00 0.  1.
          2   -1    0    0  501    0  0.00000000000E+00 -0.00000000000E+00 -0.19552602249E+03  0.19552602249E+03  0.00000000000E+00 0. -1.
         23    2    1    2    0    0  0.00000000000E+00  0.00000000000E+00 -0.18382079213E+03  0.20723125286E+03  0.95680241140E+02 0.  0.
        -11    1    3    3    0    0  0.41792631902E+02  0.23280712433E+02 -0.91373349431E+02  0.10313924878E+03  0.00000000000E+00 0.  1.
         11    1    3    3    0    0 -0.41792631902E+02 -0.23280712433E+02 -0.92447442695E+02  0.10409200408E+03  0.00000000000E+00 0. -1.
<mgrwt>
<rscale>  0 0.95680241E+02</rscale>
<asrwt>0</asrwt>
<pdfrwt beam="2">  1        2 0.30080928E-01 0.95680241E+02</pdfrwt>
<pdfrwt beam="1">  1       -2 0.18008046E-02 0.95680241E+02</pdfrwt>
<totfact> 0.13467258E+05</totfact>
</mgrwt>
</event>
<event>
 5    1  0.6004828E+000  0.9196112E+02  0.7546771E-02  0.1298171E+00
         -1   -1    0    0    0  501 -0.00000000000E+00  0.00000000000E+00  0.30742245240E+02  0.30742245240E+02  0.00000000000E+00 0.  1.
          1   -1    0    0  501    0  0.00000000000E+00 -0.00000000000E+00 -0.68772205360E+02  0.68772205360E+02  0.00000000000E+00 0. -1.
         23    2    1    2    0    0  0.00000000000E+00  0.00000000000E+00 -0.38029960120E+02  0.99514450601E+02  0.91961122284E+02 0.  0.
        -11    1    3    3    0    0 -0.16965657667E+01 -0.13154615425E+02  0.28627157390E+02  0.31550536962E+02  0.00000000000E+00 0.  1.
         11    1    3    3    0    0  0.16965657667E+01  0.13154615425E+02 -0.66657117510E+02  0.67963913639E+02  0.00000000000E+00 0. -1.
<mgrwt>
<rscale>  0 0.91961122E+02</rscale>
<asrwt>0</asrwt>
<pdfrwt beam="2">  1        1 0.10580339E-01 0.91961122E+02</pdfrwt>
<pdfrwt beam="1">  1       -1 0.47295762E-02 0.91961122E+02</pdfrwt>
<totfact> 0.96096095E+04</totfact>
</mgrwt>
</event>
<event>
 5    1  0.6004828E+000  0.9656781E+02  0.7546771E-02  0.1287684E+00
         -2   -1    0    0    0  501 -0.00000000000E+00  0.00000000000E+00  0.73009985261E+01  0.73009985261E+01  0.00000000000E+00 0.  1.
          2   -1    0    0  501    0  0.00000000000E+00 -0.00000000000E+00 -0.31931733937E+03  0.31931733937E+03  0.00000000000E+00 0. -1.
         23    2    1    2    0    0  0.00000000000E+00  0.00000000000E+00 -0.31201634084E+03  0.32661833789E+03  0.96567808800E+02 0.  0.
        -11    1    3    3    0    0 -0.40900497569E+02  0.15293111466E+02 -0.86313274020E+02  0.96730094757E+02  0.00000000000E+00 0.  1.
         11    1    3    3    0    0  0.40900497569E+02 -0.15293111466E+02 -0.22570306682E+03  0.22988824314E+03  0.00000000000E+00 0. -1.
<mgrwt>
<rscale>  0 0.96567809E+02</rscale>
<asrwt>0</asrwt>
<pdfrwt beam="2">  1        2 0.49125746E-01 0.96567809E+02</pdfrwt>
<pdfrwt beam="1">  1       -2 0.11232305E-02 0.96567809E+02</pdfrwt>
<totfact> 0.15768463E+05</totfact>
</mgrwt>
</event>
<event>
 5    1  0.6004828E+000  0.8597160E+02  0.7546771E-02  0.1312911E+00
         -2   -1    0    0    0  501 -0.00000000000E+00  0.00000000000E+00  0.13052639159E+02  0.13052639159E+02  0.00000000000E+00 0.  1.
          2   -1    0    0  501    0  0.00000000000E+00 -0.00000000000E+00 -0.14156364175E+03  0.14156364175E+03  0.00000000000E+00 0. -1.
         23    2    1    2    0    0  0.00000000000E+00  0.00000000000E+00 -0.12851100259E+03  0.15461628091E+03  0.85971603072E+02 0.  0.
        -11    1    3    3    0    0 -0.12877417912E+02  0.33711755654E+02 -0.10625896880E+03  0.11221977905E+03  0.00000000000E+00 0. -1.
         11    1    3    3    0    0  0.12877417912E+02 -0.33711755654E+02 -0.22252033794E+02  0.42396501853E+02  0.00000000000E+00 0.  1.
<mgrwt>
<rscale>  0 0.85971603E+02</rscale>
<asrwt>0</asrwt>
<pdfrwt beam="2">  1        2 0.21779022E-01 0.85971603E+02</pdfrwt>
<pdfrwt beam="1">  1       -2 0.20080983E-02 0.85971603E+02</pdfrwt>
<totfact> 0.16074851E+05</totfact>
</mgrwt>
</event>
<event>
 5    1  0.6004828E+000  0.9256690E+02  0.7546771E-02  0.1296752E+00
          2   -1    0    0  501    0  0.00000000000E+00  0.00000000000E+00  0.20745001993E+03  0.20745001993E+03  0.00000000000E+00 0.  1.
         -2   -1    0    0    0  501 -0.00000000000E+00 -0.00000000000E+00 -0.10326138212E+02  0.10326138212E+02  0.00000000000E+00 0. -1.
         23    2    1    2    0    0  0.00000000000E+00  0.00000000000E+00  0.19712388172E+03  0.21777615814E+03  0.92566896413E+02 0.  0.
        -11    1    3    3    0    0 -0.35337437321E+02  0.65103989396E+01  0.29929561388E+02  0.46764285685E+02  0.00000000000E+00 0. -1.
         11    1    3    3    0    0  0.35337437321E+02 -0.65103989396E+01  0.16719432033E+03  0.17101187246E+03  0.00000000000E+00 0.  1.
<mgrwt>
<rscale>  0 0.92566896E+02</rscale>
<asrwt>0</asrwt>
<pdfrwt beam="1">  1        2 0.31915385E-01 0.92566896E+02</pdfrwt>
<pdfrwt beam="2">  1       -2 0.15886368E-02 0.92566896E+02</pdfrwt>
<totfact> 0.15048287E+05</totfact>
</mgrwt>
</event>
<event>
 5    1  0.6004828E+000  0.9167677E+02  0.7546771E-02  0.1298841E+00
         -3   -1    0    0    0  501 -0.00000000000E+00  0.00000000000E+00  0.39931494057E+02  0.39931494057E+02  0.00000000000E+00 0.  1.
          3   -1    0    0  501    0  0.00000000000E+00 -0.00000000000E+00 -0.52619060602E+02  0.52619060602E+02  0.00000000000E+00 0. -1.
         23    2    1    2    0    0  0.00000000000E+00  0.00000000000E+00 -0.12687566544E+02  0.92550554659E+02  0.91676773628E+02 0.  0.
        -11    1    3    3    0    0  0.45637538541E+02  0.42739149617E+01 -0.66731327677E+01  0.46320427179E+02  0.00000000000E+00 0.  1.
         11    1    3    3    0    0 -0.45637538541E+02 -0.42739149617E+01 -0.60144337766E+01  0.46230127480E+02  0.00000000000E+00 0. -1.
<mgrwt>
<rscale>  0 0.91676774E+02</rscale>
<asrwt>0</asrwt>
<pdfrwt beam="2">  1        3 0.80952401E-02 0.91676774E+02</pdfrwt>
<pdfrwt beam="1">  1       -3 0.61433068E-02 0.91676774E+02</pdfrwt>
<totfact> 0.34711608E+04</totfact>
</mgrwt>
</event>
<event>
 5    1  0.6004828E+000  0.9179788E+02  0.7546771E-02  0.1298555E+00
          4   -1    0    0  501    0  0.00000000000E+00  0.00000000000E+00  0.32951719760E+02  0.32951719760E+02  0.00000000000E+00 0. -1.
         -4   -1    0    0    0  501 -0.00000000000E+00 -0.00000000000E+00 -0.63933312156E+02  0.63933312156E+02  0.00000000000E+00 0.  1.
         23    2    1    2    0    0  0.00000000000E+00  0.00000000000E+00 -0.30981592397E+02  0.96885031916E+02  0.91797877655E+02 0.  0.
        -11    1    3    3    0    0 -0.40765678711E+02  0.15577491336E+02 -0.30499024552E+02  0.53241800267E+02  0.00000000000E+00 0.  1.
         11    1    3    3    0    0  0.40765678711E+02 -0.15577491336E+02 -0.48256784497E+00  0.43643231649E+02  0.00000000000E+00 0. -1.
<mgrwt>
<rscale>  0 0.91797878E+02</rscale>
<asrwt>0</asrwt>
<pdfrwt beam="1">  1        4 0.50694954E-02 0.91797878E+02</pdfrwt>
<pdfrwt beam="2">  1       -4 0.98358940E-02 0.91797878E+02</pdfrwt>
<totfact> 0.26165279E+04</totfact>
</mgrwt>
</event>
<event>
 5    1  0.6004828E+000  0.9098797E+02  0.7546771E-02  0.1300477E+00
         -4   -1    0    0    0  501 -0.00000000000E+00  0.00000000000E+00  0.20192232783E+03  0.20192232783E+03  0.00000000000E+00 0.  1.
          4   -1    0    0  501    0  0.00000000000E+00 -0.00000000000E+00 -0.10249994179E+02  0.10249994179E+02  0.00000000000E+00 0. -1.
         23    2    1    2    0    0  0.00000000000E+00  0.00000000000E+00  0.19167233365E+03  0.21217232201E+03  0.90987970302E+02 0.  0.
        -11    1    3    3    0    0 -0.29551958286E+01 -0.40568424441E+02  0.48322449363E+02  0.63163196218E+02  0.00000000000E+00 0. -1.
         11    1    3    3    0    0  0.29551958286E+01  0.40568424441E+02  0.14334988429E+03  0.14900912579E+03  0.00000000000E+00 0.  1.
<mgrwt>
<rscale>  0 0.90987970E+02</rscale>
<asrwt>0</asrwt>
<pdfrwt beam="2">  1        4 0.15769223E-02 0.90987970E+02</pdfrwt>
<pdfrwt beam="1">  1       -4 0.31064971E-01 0.90987970E+02</pdfrwt>
<totfact> 0.21004545E+04</totfact>
</mgrwt>
</event>
<event>
 5    1  0.6004828E+000  0.9247748E+02  0.7546771E-02  0.1296961E+00
         -4   -1    0    0    0  501 -0.00000000000E+00  0.00000000000E+00  0.18995176919E+02  0.18995176919E+02  0.00000000000E+00 0.  1.
          4   -1    0    0  501    0  0.00000000000E+00 -0.00000000000E+00 -0.11255599959E+03  0.11255599959E+03  0.00000000000E+00 0. -1.
         23    2    1    2    0    0  0.00000000000E+00  0.00000000000E+00 -0.93560822673E+02  0.13155117651E+03  0.92477481055E+02 0.  0.
        -11    1    3    3    0    0  0.36320593549E+02  0.77498453462E+01 -0.75958132554E+01  0.37907017789E+02  0.00000000000E+00 0. -1.
         11    1    3    3    0    0 -0.36320593549E+02 -0.77498453462E+01 -0.85965009418E+02  0.93644158723E+02  0.00000000000E+00 0.  1.
<mgrwt>
<rscale>  0 0.92477481E+02</rscale>
<asrwt>0</asrwt>
<pdfrwt beam="2">  1        4 0.17316308E-01 0.92477481E+02</pdfrwt>
<pdfrwt beam="1">  1       -4 0.29223348E-02 0.92477481E+02</pdfrwt>
<totfact> 0.23707917E+04</totfact>
</mgrwt>
</event>
<event>
 5    1  0.6004828E+000  0.9194993E+02  0.7546771E-02  0.1298197E+00
         -1   -1    0    0    0  501 -0.00000000000E+00  0.00000000000E+00  0.75195294529E+01  0.75195294529E+01  0.00000000000E+00 0.  1.
          1   -1    0    0  501    0  0.00000000000E+00 -0.00000000000E+00 -0.28109434849E+03  0.28109434849E+03  0.00000000000E+00 0. -1.
         23    2    1    2    0    0  0.00000000000E+00  0.00000000000E+00 -0.27357481903E+03  0.28861387794E+03  0.91949926210E+02 0.  0.
        -11    1    3    3    0    0 -0.26825365984E+02 -0.34052435766E+02 -0.88718560632E+02  0.98742856158E+02  0.00000000000E+00 0.  1.
         11    1    3    3    0    0  0.26825365984E+02  0.34052435766E+02 -0.18485625840E+03  0.18987102178E+03  0.00000000000E+00 0. -1.
<mgrwt>
<rscale>  0 0.91949926E+02</rscale>
<asrwt>0</asrwt>
<pdfrwt beam="2">  1        1 0.43245282E-01 0.91949926E+02</pdfrwt>
<pdfrwt beam="1">  1       -1 0.11568507E-02 0.91949926E+02</pdfrwt>
<totfact> 0.12370838E+05</totfact>
</mgrwt>
</event>
<event>
 5    1  0.6004828E+000  0.9074624E+02  0.7546771E-02  0.1301055E+00
          1   -1    0    0  501    0  0.00000000000E+00  0.00000000000E+00  0.37332408480E+03  0.37332408480E+03  0.00000000000E+00 0. -1.
         -1   -1    0    0    0  501 -0.00000000000E+00 -0.00000000000E+00 -0.55145651267E+01  0.55145651267E+01  0.00000000000E+00 0.  1.
         23    2    1    2    0    0  0.00000000000E+00  0.00000000000E+00  0.36780951967E+03  0.37883864992E+03  0.90746239128E+02 0.  0.
        -11    1    3    3    0    0 -0.22937322401E+02 -0.35856286569E+02  0.24950553892E+03  0.25311026845E+03  0.00000000000E+00 0.  1.
         11    1    3    3    0    0  0.22937322401E+02  0.35856286569E+02  0.11830398075E+03  0.12572838147E+03  0.00000000000E+00 0. -1.
<mgrwt>
<rscale>  0 0.90746239E+02</rscale>
<asrwt>0</asrwt>
<pdfrwt beam="1">  1        1 0.57434455E-01 0.90746239E+02</pdfrwt>
<pdfrwt beam="2">  1       -1 0.84839493E-03 0.90746239E+02</pdfrwt>
<totfact> 0.13501799E+05</totfact>
</mgrwt>
</event>
<event>
 5    1  0.6004828E+000  0.8992353E+02  0.7546771E-02  0.1303037E+00
         -1   -1    0    0    0  501 -0.00000000000E+00  0.00000000000E+00  0.23671314068E+03  0.23671314068E+03  0.00000000000E+00 0.  1.
          1   -1    0    0  501    0  0.00000000000E+00 -0.00000000000E+00 -0.85401261885E+01  0.85401261885E+01  0.00000000000E+00 0. -1.
         23    2    1    2    0    0  0.00000000000E+00  0.00000000000E+00  0.22817301449E+03  0.24525326687E+03  0.89923525106E+02 0.  0.
        -11    1    3    3    0    0 -0.13617906057E+01 -0.37586562347E+02  0.46894121122E+02  0.60113748332E+02  0.00000000000E+00 0.  1.
         11    1    3    3    0    0  0.13617906057E+01  0.37586562347E+02  0.18127889337E+03  0.18513951854E+03  0.00000000000E+00 0. -1.
<mgrwt>
<rscale>  0 0.89923525E+02</rscale>
<asrwt>0</asrwt>
<pdfrwt beam="2">  1        1 0.13138657E-02 0.89923525E+02</pdfrwt>
<pdfrwt beam="1">  1       -1 0.36417401E-01 0.89923525E+02</pdfrwt>
<totfact> 0.68372237E+04</totfact>
</mgrwt>
</event>
<event>
 5    1  0.6004828E+000  0.9265211E+02  0.7546771E-02  0.1296553E+00
          2   -1    0    0  501    0  0.00000000000E+00  0.00000000000E+00  0.58731187136E+02  0.58731187136E+02  0.00000000000E+00 0.  1.
         -2   -1    0    0    0  501 -0.00000000000E+00 -0.00000000000E+00 -0.36541123081E+02  0.36541123081E+02  0.00000000000E+00 0. -1.
         23    2    1    2    0    0  0.00000000000E+00  0.00000000000E+00  0.22190064055E+02  0.95272310216E+02  0.92652113582E+02 0.  0.
        -11    1    3    3    0    0  0.26705056237E+02  0.31214875472E+02  0.33114994805E+02  0.52764868618E+02  0.00000000000E+00 0.  1.
         11    1    3    3    0    0 -0.26705056237E+02 -0.31214875472E+02 -0.10924930750E+02  0.42507441598E+02  0.00000000000E+00 0. -1.
<mgrwt>
<rscale>  0 0.92652114E+02</rscale>
<asrwt>0</asrwt>
<pdfrwt beam="1">  1        2 0.90355672E-02 0.92652114E+02</pdfrwt>
<pdfrwt beam="2">  1       -2 0.56217113E-02 0.92652114E+02</pdfrwt>
<totfact> 0.10077915E+05</totfact>
</mgrwt>
</event>
<event>
 5    1  0.6004828E+000  0.8434493E+02  0.7546771E-02  0.1317155E+00
         -2   -1    0    0    0  501 -0.00000000000E+00  0.00000000000E+00  0.44933057467E+01  0.44933057467E+01  0.00000000000E+00 0.  1.
          2   -1    0    0  501    0  0.00000000000E+00 -0.00000000000E+00 -0.39581478211E+03  0.39581478211E+03  0.00000000000E+00 0. -1.
         23    2    1    2    0    0  0.00000000000E+00  0.00000000000E+00 -0.39132147637E+03  0.40030808786E+03  0.84344930733E+02 0.  0.
        -11    1    3    3    0    0 -0.14679995500E+02  0.38735252189E+02 -0.23321026983E+03  0.23686061721E+03  0.00000000000E+00 0.  1.
         11    1    3    3    0    0  0.14679995500E+02 -0.38735252189E+02 -0.15811120653E+03  0.16344747065E+03  0.00000000000E+00 0. -1.
<mgrwt>
<rscale>  0 0.84344931E+02</rscale>
<asrwt>0</asrwt>
<pdfrwt beam="2">  1        2 0.60894568E-01 0.84344931E+02</pdfrwt>
<pdfrwt beam="1">  1       -2 0.69127797E-03 0.84344931E+02</pdfrwt>
<totfact> 0.24433804E+05</totfact>
</mgrwt>
</event>
<event>
 5    1  0.6004828E+000  0.8014483E+02  0.7546771E-02  0.1328641E+00
          2   -1    0    0  501    0  0.00000000000E+00  0.00000000000E+00  0.18487657150E+02  0.18487657150E+02  0.00000000000E+00 0. -1.
         -2   -1    0    0    0  501 -0.00000000000E+00 -0.00000000000E+00 -0.86857864299E+02  0.86857864299E+02  0.00000000000E+00 0.  1.
         23    2    1    2    0    0  0.00000000000E+00  0.00000000000E+00 -0.68370207148E+02  0.10534552145E+03  0.80144829302E+02 0.  0.
        -11    1    3    3    0    0 -0.36065627641E+02  0.62415801073E+01 -0.12742749200E+02  0.38756476575E+02  0.00000000000E+00 0.  1.
         11    1    3    3    0    0  0.36065627641E+02 -0.62415801073E+01 -0.55627457949E+02  0.66589044874E+02  0.00000000000E+00 0. -1.
<mgrwt>
<rscale>  0 0.80144829E+02</rscale>
<asrwt>0</asrwt>
<pdfrwt beam="1">  1        2 0.28442550E-02 0.80144829E+02</pdfrwt>
<pdfrwt beam="2">  1       -2 0.13362748E-01 0.80144829E+02</pdfrwt>
<totfact> 0.11435785E+05</totfact>
</mgrwt>
</event>
<event>
 5    1  0.6004828E+000  0.8665832E+02  0.7546771E-02  0.1311152E+00
          2   -1    0    0  501    0  0.00000000000E+00  0.00000000000E+00  0.43386502707E+02  0.43386502707E+02  0.00000000000E+00 0. -1.
         -2   -1    0    0    0  501 -0.00000000000E+00 -0.00000000000E+00 -0.43271893337E+02  0.43271893337E+02  0.00000000000E+00 0.  1.
         23    2    1    2    0    0  0.00000000000E+00  0.00000000000E+00  0.11460937000E+00  0.86658396044E+02  0.86658320256E+02 0.  0.
        -11    1    3    3    0    0  0.35987682832E+02 -0.20153469313E+02  0.13329108802E+02  0.43346750540E+02  0.00000000000E+00 0. -1.
         11    1    3    3    0    0 -0.35987682832E+02  0.20153469313E+02 -0.13214499432E+02  0.43311645503E+02  0.00000000000E+00 0.  1.
<mgrwt>
<rscale>  0 0.86658320E+02</rscale>
<asrwt>0</asrwt>
<pdfrwt beam="1">  1        2 0.66748466E-02 0.86658320E+02</pdfrwt>
<pdfrwt beam="2">  1       -2 0.66572143E-02 0.86658320E+02</pdfrwt>
<totfact> 0.11267146E+05</totfact>
</mgrwt>
</event>
<event>
 5    1  0.6004828E+000  0.9131046E+02  0.7546771E-02  0.1299709E+00
          1   -1    0    0  501    0  0.00000000000E+00  0.00000000000E+00  0.39181315285E+03  0.39181315285E+03  0.00000000000E+00 0. -1.
         -1   -1    0    0    0  501 -0.00000000000E+00 -0.00000000000E+00 -0.53198825519E+01  0.53198825519E+01  0.00000000000E+00 0.  1.
         23    2    1    2    0    0  0.00000000000E+00  0.00000000000E+00  0.38649327029E+03  0.39713303540E+03  0.91310458446E+02 0.  0.
        -11    1    3    3    0    0  0.17826365495E+02 -0.40337487785E+02  0.14187603675E+03  0.14857221151E+03  0.00000000000E+00 0. -1.
         11    1    3    3    0    0 -0.17826365495E+02  0.40337487785E+02  0.24461723354E+03  0.24856082389E+03  0.00000000000E+00 0.  1.
<mgrwt>
<rscale>  0 0.91310458E+02</rscale>
<asrwt>0</asrwt>
<pdfrwt beam="1">  1        1 0.60278924E-01 0.91310458E+02</pdfrwt>
<pdfrwt beam="2">  1       -1 0.81844378E-03 0.91310458E+02</pdfrwt>
<totfact> 0.13390916E+05</totfact>
</mgrwt>
</event>
<event>
 5    1  0.6004828E+000  0.9333328E+02  0.7546771E-02  0.1294975E+00
          2   -1    0    0  501    0  0.00000000000E+00  0.00000000000E+00  0.56987300581E+02  0.56987300581E+02  0.00000000000E+00 0. -1.
         -2   -1    0    0    0  501 -0.00000000000E+00 -0.00000000000E+00 -0.38215100148E+02  0.38215100148E+02  0.00000000000E+00 0.  1.
         23    2    1    2    0    0  0.00000000000E+00  0.00000000000E+00  0.18772200432E+02  0.95202400729E+02  0.93333282357E+02 0.  0.
        -11    1    3    3    0    0 -0.46216678038E+02  0.82311563912E+00  0.15926731960E+02  0.48890895258E+02  0.00000000000E+00 0.  1.
         11    1    3    3    0    0  0.46216678038E+02 -0.82311563912E+00  0.28454684722E+01  0.46311505471E+02  0.00000000000E+00 0. -1.
<mgrwt>
<rscale>  0 0.93333282E+02</rscale>
<asrwt>0</asrwt>
<pdfrwt beam="1">  1        2 0.87672770E-02 0.93333282E+02</pdfrwt>
<pdfrwt beam="2">  1       -2 0.58792462E-02 0.93333282E+02</pdfrwt>
<totfact> 0.97905476E+04</totfact>
</mgrwt>
</event>
<event>
 5    1  0.6004828E+000  0.9346887E+02  0.7546771E-02  0.1294662E+00
          1   -1    0    0  501    0  0.00000000000E+00  0.00000000000E+00  0.11558132895E+03  0.11558132895E+03  0.00000000000E+00 0. -1.
         -1   -1    0    0    0  501 -0.00000000000E+00 -0.00000000000E+00 -0.18896714723E+02  0.18896714723E+02  0.00000000000E+00 0.  1.
         23    2    1    2    0    0  0.00000000000E+00  0.00000000000E+00  0.96684614231E+02  0.13447804368E+03  0.93468869695E+02 0.  0.
        -11    1    3    3    0    0 -0.42312240587E+02 -0.12696176856E+02  0.26400177225E+02  0.51463462455E+02  0.00000000000E+00 0.  1.
         11    1    3    3    0    0  0.42312240587E+02  0.12696176856E+02  0.70284437006E+02  0.83014581223E+02  0.00000000000E+00 0. -1.
<mgrwt>
<rscale>  0 0.93468870E+02</rscale>
<asrwt>0</asrwt>
<pdfrwt beam="1">  1        1 0.17781742E-01 0.93468870E+02</pdfrwt>
<pdfrwt beam="2">  1       -1 0.29071869E-02 0.93468870E+02</pdfrwt>
<totfact> 0.10004884E+05</totfact>
</mgrwt>
</event>
<event>
 5    1  0.6004828E+000  0.8772012E+02  0.7546771E-02  0.1308469E+00
         -2   -1    0    0    0  501 -0.00000000000E+00  0.00000000000E+00  0.58978887639E+01  0.58978887639E+01  0.00000000000E+00 0. -1.
          2   -1    0    0  501    0  0.00000000000E+00 -0.00000000000E+00 -0.32616835522E+03  0.32616835522E+03  0.00000000000E+00 0.  1.
         23    2    1    2    0    0  0.00000000000E+00  0.00000000000E+00 -0.32027046646E+03  0.33206624399E+03  0.87720115764E+02 0.  0.
        -11    1    3    3    0    0  0.33177349351E+02 -0.28551770929E+02 -0.17068355863E+03  0.17620674596E+03  0.00000000000E+00 0.  1.
         11    1    3    3    0    0 -0.33177349351E+02  0.28551770929E+02 -0.14958690783E+03  0.15585949803E+03  0.00000000000E+00 0. -1.
<mgrwt>
<rscale>  0 0.87720116E+02</rscale>
<asrwt>0</asrwt>
<pdfrwt beam="2">  1        2 0.50179761E-01 0.87720116E+02</pdfrwt>
<pdfrwt beam="1">  1       -2 0.90736725E-03 0.87720116E+02</pdfrwt>
<totfact> 0.20536734E+05</totfact>
</mgrwt>
</event>
<event>
 5    1  0.6004828E+000  0.9073222E+02  0.7546771E-02  0.1301088E+00
         -2   -1    0    0    0  501 -0.00000000000E+00  0.00000000000E+00  0.10592592175E+02  0.10592592175E+02  0.00000000000E+00 0.  1.
          2   -1    0    0  501    0  0.00000000000E+00 -0.00000000000E+00 -0.19429463356E+03  0.19429463356E+03  0.00000000000E+00 0. -1.
         23    2    1    2    0    0  0.00000000000E+00  0.00000000000E+00 -0.18370204139E+03  0.20488722574E+03  0.90732217324E+02 0.  0.
        -11    1    3    3    0    0 -0.16179166722E+02 -0.29965890235E+02 -0.15953400192E+03  0.16312822497E+03  0.00000000000E+00 0. -1.
         11    1    3    3    0    0  0.16179166722E+02  0.29965890235E+02 -0.24168039470E+02  0.41759000769E+02  0.00000000000E+00 0.  1.
<mgrwt>
<rscale>  0 0.90732217E+02</rscale>
<asrwt>0</asrwt>
<pdfrwt beam="2">  1        2 0.29891482E-01 0.90732217E+02</pdfrwt>
<pdfrwt beam="1">  1       -2 0.16296296E-02 0.90732217E+02</pdfrwt>
<totfact> 0.15510113E+05</totfact>
</mgrwt>
</event>
<event>
 5    1  0.6004828E+000  0.9192531E+02  0.7546771E-02  0.1298255E+00
         -2   -1    0    0    0  501 -0.00000000000E+00  0.00000000000E+00  0.32252797269E+02  0.32252797269E+02  0.00000000000E+00 0.  1.
          2   -1    0    0  501    0  0.00000000000E+00 -0.00000000000E+00 -0.65500236196E+02  0.65500236196E+02  0.00000000000E+00 0. -1.
         23    2    1    2    0    0  0.00000000000E+00  0.00000000000E+00 -0.33247438927E+02  0.97753033464E+02  0.91925314012E+02 0.  0.
        -11    1    3    3    0    0  0.31598662938E+01 -0.27365064679E+02  0.22501955322E+02  0.35569221431E+02  0.00000000000E+00 0.  1.
         11    1    3    3    0    0 -0.31598662938E+01  0.27365064679E+02 -0.55749394249E+02  0.62183812033E+02  0.00000000000E+00 0. -1.
<mgrwt>
<rscale>  0 0.91925314E+02</rscale>
<asrwt>0</asrwt>
<pdfrwt beam="2">  1        2 0.10076959E-01 0.91925314E+02</pdfrwt>
<pdfrwt beam="1">  1       -2 0.49619689E-02 0.91925314E+02</pdfrwt>
<totfact> 0.10614826E+05</totfact>
</mgrwt>
</event>
<event>
 5    1  0.6004828E+000  0.9207353E+02  0.7546771E-02  0.1297907E+00
         -1   -1    0    0    0  501 -0.00000000000E+00  0.00000000000E+00  0.20731504602E+02  0.20731504602E+02  0.00000000000E+00 0.  1.
          1   -1    0    0  501    0  0.00000000000E+00 -0.00000000000E+00 -0.10223009737E+03  0.10223009737E+03  0.00000000000E+00 0. -1.
         23    2    1    2    0    0  0.00000000000E+00  0.00000000000E+00 -0.81498592770E+02  0.12296160197E+03  0.92073530053E+02 0.  0.
        -11    1    3    3    0    0 -0.29712597339E+02  0.18295032313E+01  0.61483623032E+01  0.30397168975E+02  0.00000000000E+00 0.  1.
         11    1    3    3    0    0  0.29712597339E+02 -0.18295032313E+01 -0.87646955074E+02  0.92564432999E+02  0.00000000000E+00 0. -1.
<mgrwt>
<rscale>  0 0.92073530E+02</rscale>
<asrwt>0</asrwt>
<pdfrwt beam="2">  1        1 0.15727707E-01 0.92073530E+02</pdfrwt>
<pdfrwt beam="1">  1       -1 0.31894623E-02 0.92073530E+02</pdfrwt>
<totfact> 0.10207401E+05</totfact>
</mgrwt>
</event>
<event>
 5    1  0.6004828E+000  0.9383420E+02  0.7546771E-02  0.1293824E+00
         -4   -1    0    0    0  501 -0.00000000000E+00  0.00000000000E+00  0.31842556639E+02  0.31842556639E+02  0.00000000000E+00 0.  1.
          4   -1    0    0  501    0  0.00000000000E+00 -0.00000000000E+00 -0.69128058942E+02  0.69128058942E+02  0.00000000000E+00 0. -1.
         23    2    1    2    0    0  0.00000000000E+00  0.00000000000E+00 -0.37285502303E+02  0.10097061558E+03  0.93834197012E+02 0.  0.
        -11    1    3    3    0    0  0.20360800328E+02 -0.20200470401E+02 -0.58595980362E+02  0.65238869618E+02  0.00000000000E+00 0. -1.
         11    1    3    3    0    0 -0.20360800328E+02  0.20200470401E+02  0.21310478060E+02  0.35731745963E+02  0.00000000000E+00 0.  1.
<mgrwt>
<rscale>  0 0.93834197E+02</rscale>
<asrwt>0</asrwt>
<pdfrwt beam="2">  1        4 0.10635086E-01 0.93834197E+02</pdfrwt>
<pdfrwt beam="1">  1       -4 0.48988549E-02 0.93834197E+02</pdfrwt>
<totfact> 0.24413728E+04</totfact>
</mgrwt>
</event>
<event>
 5    1  0.6004828E+000  0.9847122E+02  0.7546771E-02  0.1283544E+00
         -1   -1    0    0    0  501 -0.00000000000E+00  0.00000000000E+00  0.28273213615E+02  0.28273213615E+02  0.00000000000E+00 0.  1.
          1   -1    0    0  501    0  0.00000000000E+00 -0.00000000000E+00 -0.85739993428E+02  0.85739993428E+02  0.00000000000E+00 0. -1.
         23    2    1    2    0    0  0.00000000000E+00  0.00000000000E+00 -0.57466779813E+02  0.11401320704E+03  0.98471217105E+02 0.  0.
        -11    1    3    3    0    0 -0.40414272031E+02 -0.26200997869E+02 -0.16906510115E+02  0.51045428369E+02  0.00000000000E+00 0. -1.
         11    1    3    3    0    0  0.40414272031E+02  0.26200997869E+02 -0.40560269698E+02  0.62967778674E+02  0.00000000000E+00 0.  1.
<mgrwt>
<rscale>  0 0.98471217E+02</rscale>
<asrwt>0</asrwt>
<pdfrwt beam="2">  1        1 0.13190768E-01 0.98471217E+02</pdfrwt>
<pdfrwt beam="1">  1       -1 0.43497252E-02 0.98471217E+02</pdfrwt>
<totfact> 0.82397851E+04</totfact>
</mgrwt>
</event>
<event>
 5    1  0.6004828E+000  0.9242704E+02  0.7546771E-02  0.1297078E+00
          2   -1    0    0  501    0  0.00000000000E+00  0.00000000000E+00  0.12571148816E+03  0.12571148816E+03  0.00000000000E+00 0. -1.
         -2   -1    0    0    0  501 -0.00000000000E+00 -0.00000000000E+00 -0.16988815501E+02  0.16988815501E+02  0.00000000000E+00 0.  1.
         23    2    1    2    0    0  0.00000000000E+00  0.00000000000E+00  0.10872267266E+03  0.14270030366E+03  0.92427036708E+02 0.  0.
        -11    1    3    3    0    0 -0.28658438914E+02  0.14642264949E+02  0.31554732611E+01  0.32336651888E+02  0.00000000000E+00 0.  1.
         11    1    3    3    0    0  0.28658438914E+02 -0.14642264949E+02  0.10556719940E+03  0.11036365177E+03  0.00000000000E+00 0. -1.
<mgrwt>
<rscale>  0 0.92427037E+02</rscale>
<asrwt>0</asrwt>
<pdfrwt beam="1">  1        2 0.19340228E-01 0.92427037E+02</pdfrwt>
<pdfrwt beam="2">  1       -2 0.26136640E-02 0.92427037E+02</pdfrwt>
<totfact> 0.12700924E+05</totfact>
</mgrwt>
</event>
<event>
 5    1  0.6004828E+000  0.8594422E+02  0.7546771E-02  0.1312982E+00
          2   -1    0    0  501    0  0.00000000000E+00  0.00000000000E+00  0.17461794460E+03  0.17461794460E+03  0.00000000000E+00 0. -1.
         -2   -1    0    0    0  501 -0.00000000000E+00 -0.00000000000E+00 -0.10575100129E+02  0.10575100129E+02  0.00000000000E+00 0.  1.
         23    2    1    2    0    0  0.00000000000E+00  0.00000000000E+00  0.16404284447E+03  0.18519304473E+03  0.85944220247E+02 0.  0.
        -11    1    3    3    0    0  0.28272775755E+02  0.30384700301E+02  0.58024362124E+02  0.71340076122E+02  0.00000000000E+00 0.  1.
         11    1    3    3    0    0 -0.28272775755E+02 -0.30384700301E+02  0.10601848235E+03  0.11385296861E+03  0.00000000000E+00 0. -1.
<mgrwt>
<rscale>  0 0.85944220E+02</rscale>
<asrwt>0</asrwt>
<pdfrwt beam="1">  1        2 0.26864297E-01 0.85944220E+02</pdfrwt>
<pdfrwt beam="2">  1       -2 0.16269386E-02 0.85944220E+02</pdfrwt>
<totfact> 0.17275322E+05</totfact>
</mgrwt>
</event>
<event>
 5    1  0.6004828E+000  0.9105146E+02  0.7546771E-02  0.1300325E+00
          3   -1    0    0  501    0  0.00000000000E+00  0.00000000000E+00  0.13051344364E+02  0.13051344364E+02  0.00000000000E+00 0. -1.
         -3   -1    0    0    0  501 -0.00000000000E+00 -0.00000000000E+00 -0.15880296814E+03  0.15880296814E+03  0.00000000000E+00 0.  1.
         23    2    1    2    0    0  0.00000000000E+00  0.00000000000E+00 -0.14575162378E+03  0.17185431251E+03  0.91051462882E+02 0.  0.
        -11    1    3    3    0    0 -0.35694833270E+02  0.63097796221E+01 -0.20888607303E+02  0.41836208673E+02  0.00000000000E+00 0. -1.
         11    1    3    3    0    0  0.35694833270E+02 -0.63097796221E+01 -0.12486301648E+03  0.13001810383E+03  0.00000000000E+00 0.  1.
<mgrwt>
<rscale>  0 0.91051463E+02</rscale>
<asrwt>0</asrwt>
<pdfrwt beam="1">  1        3 0.20078991E-02 0.91051463E+02</pdfrwt>
<pdfrwt beam="2">  1       -3 0.24431226E-01 0.91051463E+02</pdfrwt>
<totfact> 0.30133504E+04</totfact>
</mgrwt>
</event>
<event>
 5    1  0.6004828E+000  0.8972434E+02  0.7546771E-02  0.1303521E+00
         -1   -1    0    0    0  501 -0.00000000000E+00  0.00000000000E+00  0.66579735582E+02  0.66579735582E+02  0.00000000000E+00 0.  1.
          1   -1    0    0  501    0  0.00000000000E+00 -0.00000000000E+00 -0.30228631292E+02  0.30228631292E+02  0.00000000000E+00 0. -1.
         23    2    1    2    0    0  0.00000000000E+00  0.00000000000E+00  0.36351104291E+02  0.96808366874E+02  0.89724339583E+02 0.  0.
        -11    1    3    3    0    0 -0.28093761909E+02  0.23089252383E+02  0.46522289295E+02  0.59048255140E+02  0.00000000000E+00 0. -1.
         11    1    3    3    0    0  0.28093761909E+02 -0.23089252383E+02 -0.10171185004E+02  0.37760111734E+02  0.00000000000E+00 0.  1.
<mgrwt>
<rscale>  0 0.89724340E+02</rscale>
<asrwt>0</asrwt>
<pdfrwt beam="2">  1        1 0.46505587E-02 0.89724340E+02</pdfrwt>
<pdfrwt beam="1">  1       -1 0.10243036E-01 0.89724340E+02</pdfrwt>
<totfact> 0.90874136E+04</totfact>
</mgrwt>
</event>
<event>
 5    1  0.6004828E+000  0.8119002E+02  0.7546771E-02  0.1325708E+00
          2   -1    0    0  501    0  0.00000000000E+00  0.00000000000E+00  0.36746051071E+02  0.36746051071E+02  0.00000000000E+00 0. -1.
         -2   -1    0    0    0  501 -0.00000000000E+00 -0.00000000000E+00 -0.44847126277E+02  0.44847126277E+02  0.00000000000E+00 0.  1.
         23    2    1    2    0    0  0.00000000000E+00  0.00000000000E+00 -0.81010752065E+01  0.81593177347E+02  0.81190018907E+02 0.  0.
        -11    1    3    3    0    0  0.31259992041E+02  0.25818570918E+02 -0.19985646865E+01  0.40592856113E+02  0.00000000000E+00 0. -1.
         11    1    3    3    0    0 -0.31259992041E+02 -0.25818570918E+02 -0.61025105200E+01  0.41000321234E+02  0.00000000000E+00 0.  1.
<mgrwt>
<rscale>  0 0.81190019E+02</rscale>
<asrwt>0</asrwt>
<pdfrwt beam="1">  1        2 0.56532387E-02 0.81190019E+02</pdfrwt>
<pdfrwt beam="2">  1       -2 0.68995578E-02 0.81190019E+02</pdfrwt>
<totfact> 0.13028597E+05</totfact>
</mgrwt>
</event>
<event>
 5    1  0.6004828E+000  0.9005272E+02  0.7546771E-02  0.1302724E+00
          2   -1    0    0  501    0  0.00000000000E+00  0.00000000000E+00  0.22931459162E+03  0.22931459162E+03  0.00000000000E+00 0. -1.
         -2   -1    0    0    0  501 -0.00000000000E+00 -0.00000000000E+00 -0.88410119941E+01  0.88410119941E+01  0.00000000000E+00 0.  1.
         23    2    1    2    0    0  0.00000000000E+00  0.00000000000E+00  0.22047357963E+03  0.23815560362E+03  0.90052719114E+02 0.  0.
        -11    1    3    3    0    0 -0.26245869293E+02 -0.35580585950E+02  0.13276260919E+03  0.13993117648E+03  0.00000000000E+00 0.  1.
         11    1    3    3    0    0  0.26245869293E+02  0.35580585950E+02  0.87710970435E+02  0.98224427135E+02  0.00000000000E+00 0. -1.
<mgrwt>
<rscale>  0 0.90052719E+02</rscale>
<asrwt>0</asrwt>
<pdfrwt beam="1">  1        2 0.35279163E-01 0.90052719E+02</pdfrwt>
<pdfrwt beam="2">  1       -2 0.13601559E-02 0.90052719E+02</pdfrwt>
<totfact> 0.16809236E+05</totfact>
</mgrwt>
</event>
<event>
 5    1  0.6004828E+000  0.6999510E+02  0.7546771E-02  0.1360110E+00
         -2   -1    0    0    0  501 -0.00000000000E+00  0.00000000000E+00  0.47349259496E+01  0.47349259496E+01  0.00000000000E+00 0.  1.
          2   -1    0    0  501    0  0.00000000000E+00 -0.00000000000E+00 -0.25867957222E+03  0.25867957222E+03  0.00000000000E+00 0. -1.
         23    2    1    2    0    0  0.00000000000E+00  0.00000000000E+00 -0.25394464627E+03  0.26341449817E+03  0.69995103233E+02 0.  0.
        -11    1    3    3    0    0 -0.24671704213E+02  0.24776431921E+02 -0.13263491396E+03  0.13716626761E+03  0.00000000000E+00 0.  1.
         11    1    3    3    0    0  0.24671704213E+02 -0.24776431921E+02 -0.12130973231E+03  0.12624823056E+03  0.00000000000E+00 0. -1.
<mgrwt>
<rscale>  0 0.69995103E+02</rscale>
<asrwt>0</asrwt>
<pdfrwt beam="2">  1        2 0.39796859E-01 0.69995103E+02</pdfrwt>
<pdfrwt beam="1">  1       -2 0.72845012E-03 0.69995103E+02</pdfrwt>
<totfact> 0.34121635E+05</totfact>
</mgrwt>
</event>
<event>
 5    1  0.6004828E+000  0.8276489E+02  0.7546771E-02  0.1321383E+00
         -2   -1    0    0    0  501 -0.00000000000E+00  0.00000000000E+00  0.22333413756E+02  0.22333413756E+02  0.00000000000E+00 0.  1.
          2   -1    0    0  501    0  0.00000000000E+00 -0.00000000000E+00 -0.76679125742E+02  0.76679125742E+02  0.00000000000E+00 0. -1.
         23    2    1    2    0    0  0.00000000000E+00  0.00000000000E+00 -0.54345711986E+02  0.99012539498E+02  0.82764887280E+02 0.  0.
        -11    1    3    3    0    0  0.12067035890E+02  0.24462021708E+02 -0.64402982124E+02  0.69941032075E+02  0.00000000000E+00 0. -1.
         11    1    3    3    0    0 -0.12067035890E+02 -0.24462021708E+02  0.10057270138E+02  0.29071507423E+02  0.00000000000E+00 0.  1.
<mgrwt>
<rscale>  0 0.82764887E+02</rscale>
<asrwt>0</asrwt>
<pdfrwt beam="2">  1        2 0.11796789E-01 0.82764887E+02</pdfrwt>
<pdfrwt beam="1">  1       -2 0.34359098E-02 0.82764887E+02</pdfrwt>
<totfact> 0.14825251E+05</totfact>
</mgrwt>
</event>
<event>
 5    1  0.6004828E+000  0.9665372E+02  0.7546771E-02  0.1287494E+00
         -2   -1    0    0    0  501 -0.00000000000E+00  0.00000000000E+00  0.16731713181E+03  0.16731713181E+03  0.00000000000E+00 0.  1.
          2   -1    0    0  501    0  0.00000000000E+00 -0.00000000000E+00 -0.13958435310E+02  0.13958435310E+02  0.00000000000E+00 0. -1.
         23    2    1    2    0    0  0.00000000000E+00  0.00000000000E+00  0.15335869650E+03  0.18127556712E+03  0.96653719239E+02 0.  0.
        -11    1    3    3    0    0 -0.30421329742E+02 -0.30149536104E+02  0.34698220839E+02  0.55121850113E+02  0.00000000000E+00 0.  1.
         11    1    3    3    0    0  0.30421329742E+02  0.30149536104E+02  0.11866047566E+03  0.12615371701E+03  0.00000000000E+00 0. -1.
<mgrwt>
<rscale>  0 0.96653719E+02</rscale>
<asrwt>0</asrwt>
<pdfrwt beam="2">  1        2 0.21474517E-02 0.96653719E+02</pdfrwt>
<pdfrwt beam="1">  1       -2 0.25741096E-01 0.96653719E+02</pdfrwt>
<totfact> 0.57801872E+04</totfact>
</mgrwt>
</event>
<event>
 5    1  0.6004828E+000  0.8813090E+02  0.7546771E-02  0.1307442E+00
         -1   -1    0    0    0  501 -0.00000000000E+00  0.00000000000E+00  0.50075147798E+01  0.50075147798E+01  0.00000000000E+00 0.  1.
          1   -1    0    0  501    0  0.00000000000E+00 -0.00000000000E+00 -0.38776993809E+03  0.38776993809E+03  0.00000000000E+00 0. -1.
         23    2    1    2    0    0  0.00000000000E+00  0.00000000000E+00 -0.38276242331E+03  0.39277745287E+03  0.88130895744E+02 0.  0.
        -11    1    3    3    0    0  0.38788064012E+02  0.20498813597E+02 -0.17297940224E+03  0.17845612589E+03  0.00000000000E+00 0.  1.
         11    1    3    3    0    0 -0.38788064012E+02 -0.20498813597E+02 -0.20978302108E+03  0.21432132699E+03  0.00000000000E+00 0. -1.
<mgrwt>
<rscale>  0 0.88130896E+02</rscale>
<asrwt>0</asrwt>
<pdfrwt beam="2">  1        1 0.59656908E-01 0.88130896E+02</pdfrwt>
<pdfrwt beam="1">  1       -1 0.77038696E-03 0.88130896E+02</pdfrwt>
<totfact> 0.14684444E+05</totfact>
</mgrwt>
</event>
<event>
 5    1  0.6004828E+000  0.9234916E+02  0.7546771E-02  0.1297261E+00
          2   -1    0    0  501    0  0.00000000000E+00  0.00000000000E+00  0.49588636126E+02  0.49588636126E+02  0.00000000000E+00 0.  1.
         -2   -1    0    0    0  501 -0.00000000000E+00 -0.00000000000E+00 -0.42995577052E+02  0.42995577052E+02  0.00000000000E+00 0. -1.
         23    2    1    2    0    0  0.00000000000E+00  0.00000000000E+00  0.65930590740E+01  0.92584213179E+02  0.92349164057E+02 0.  0.
        -11    1    3    3    0    0 -0.12625228935E+02 -0.37101021149E+02 -0.21183026927E+02  0.44548881083E+02  0.00000000000E+00 0. -1.
         11    1    3    3    0    0  0.12625228935E+02  0.37101021149E+02  0.27776086001E+02  0.48035332095E+02  0.00000000000E+00 0.  1.
<mgrwt>
<rscale>  0 0.92349164E+02</rscale>
<asrwt>0</asrwt>
<pdfrwt beam="1">  1        2 0.76290209E-02 0.92349164E+02</pdfrwt>
<pdfrwt beam="2">  1       -2 0.66147042E-02 0.92349164E+02</pdfrwt>
<totfact> 0.97240224E+04</totfact>
</mgrwt>
</event>
<event>
 5    1  0.6004828E+000  0.9262489E+02  0.7546771E-02  0.1296617E+00
         -1   -1    0    0    0  501 -0.00000000000E+00  0.00000000000E+00  0.29076524792E+03  0.29076524792E+03  0.00000000000E+00 0.  1.
          1   -1    0    0  501    0  0.00000000000E+00 -0.00000000000E+00 -0.73765439243E+01  0.73765439243E+01  0.00000000000E+00 0. -1.
         23    2    1    2    0    0  0.00000000000E+00  0.00000000000E+00  0.28338870400E+03  0.29814179184E+03  0.92624891318E+02 0.  0.
        -11    1    3    3    0    0 -0.37152962351E+02  0.20488929432E+02  0.20145539523E+03  0.20587475587E+03  0.00000000000E+00 0.  1.
         11    1    3    3    0    0  0.37152962351E+02 -0.20488929432E+02  0.81933308770E+02  0.92267035970E+02  0.00000000000E+00 0. -1.
<mgrwt>
<rscale>  0 0.92624891E+02</rscale>
<asrwt>0</asrwt>
<pdfrwt beam="2">  1        1 0.11348531E-02 0.92624891E+02</pdfrwt>
<pdfrwt beam="1">  1       -1 0.44733106E-01 0.92624891E+02</pdfrwt>
<totfact> 0.58849015E+04</totfact>
</mgrwt>
</event>
<event>
 5    1  0.6004828E+000  0.9650858E+02  0.7546771E-02  0.1287814E+00
          3   -1    0    0  501    0  0.00000000000E+00  0.00000000000E+00  0.41159384436E+02  0.41159384436E+02  0.00000000000E+00 0. -1.
         -3   -1    0    0    0  501 -0.00000000000E+00 -0.00000000000E+00 -0.56572187837E+02  0.56572187837E+02  0.00000000000E+00 0.  1.
         23    2    1    2    0    0  0.00000000000E+00  0.00000000000E+00 -0.15412803400E+02  0.97731572273E+02  0.96508578428E+02 0.  0.
        -11    1    3    3    0    0  0.11130735134E+02  0.26449463825E+02  0.31579662264E+02  0.42670159010E+02  0.00000000000E+00 0. -1.
         11    1    3    3    0    0 -0.11130735134E+02 -0.26449463825E+02 -0.46992465664E+02  0.55061413263E+02  0.00000000000E+00 0.  1.
<mgrwt>
<rscale>  0 0.96508578E+02</rscale>
<asrwt>0</asrwt>
<pdfrwt beam="1">  1        3 0.63322130E-02 0.96508578E+02</pdfrwt>
<pdfrwt beam="2">  1       -3 0.87034135E-02 0.96508578E+02</pdfrwt>
<totfact> 0.29825509E+04</totfact>
</mgrwt>
</event>
<event>
 5    1  0.6004828E+000  0.8803452E+02  0.7546771E-02  0.1307682E+00
          2   -1    0    0  501    0  0.00000000000E+00  0.00000000000E+00  0.27442345914E+03  0.27442345914E+03  0.00000000000E+00 0. -1.
         -2   -1    0    0    0  501 -0.00000000000E+00 -0.00000000000E+00 -0.70603264650E+01  0.70603264650E+01  0.00000000000E+00 0.  1.
         23    2    1    2    0    0  0.00000000000E+00  0.00000000000E+00  0.26736313268E+03  0.28148378561E+03  0.88034520756E+02 0.  0.
        -11    1    3    3    0    0 -0.27465058626E+02  0.23487767530E+02  0.21403270891E+03  0.21706221493E+03  0.00000000000E+00 0. -1.
         11    1    3    3    0    0  0.27465058626E+02 -0.23487767530E+02  0.53330423772E+02  0.64421570677E+02  0.00000000000E+00 0.  1.
<mgrwt>
<rscale>  0 0.88034521E+02</rscale>
<asrwt>0</asrwt>
<pdfrwt beam="1">  1        2 0.42218985E-01 0.88034521E+02</pdfrwt>
<pdfrwt beam="2">  1       -2 0.10862043E-02 0.88034521E+02</pdfrwt>
<totfact> 0.19082102E+05</totfact>
</mgrwt>
</event>
<event>
 5    1  0.6004828E+000  0.9063265E+02  0.7546771E-02  0.1301327E+00
          1   -1    0    0  501    0  0.00000000000E+00  0.00000000000E+00  0.21213193812E+03  0.21213193812E+03  0.00000000000E+00 0. -1.
         -1   -1    0    0    0  501 -0.00000000000E+00 -0.00000000000E+00 -0.96806231622E+01  0.96806231622E+01  0.00000000000E+00 0.  1.
         23    2    1    2    0    0  0.00000000000E+00  0.00000000000E+00  0.20245131496E+03  0.22181256129E+03  0.90632650930E+02 0.  0.
        -11    1    3    3    0    0 -0.35644332179E+02  0.95793354884E+01  0.16557301740E+03  0.16963698351E+03  0.00000000000E+00 0. -1.
         11    1    3    3    0    0  0.35644332179E+02 -0.95793354884E+01  0.36878297565E+02  0.52175577775E+02  0.00000000000E+00 0.  1.
<mgrwt>
<rscale>  0 0.90632651E+02</rscale>
<asrwt>0</asrwt>
<pdfrwt beam="1">  1        1 0.32635679E-01 0.90632651E+02</pdfrwt>
<pdfrwt beam="2">  1       -1 0.14893268E-02 0.90632651E+02</pdfrwt>
<totfact> 0.12170454E+05</totfact>
</mgrwt>
</event>
<event>
 5    1  0.6004828E+000  0.9069890E+02  0.7546771E-02  0.1301168E+00
          3   -1    0    0  501    0  0.00000000000E+00  0.00000000000E+00  0.32798994312E+02  0.32798994312E+02  0.00000000000E+00 0.  1.
         -3   -1    0    0    0  501 -0.00000000000E+00 -0.00000000000E+00 -0.62702309751E+02  0.62702309751E+02  0.00000000000E+00 0. -1.
         23    2    1    2    0    0  0.00000000000E+00  0.00000000000E+00 -0.29903315439E+02  0.95501304063E+02  0.90698901887E+02 0.  0.
        -11    1    3    3    0    0 -0.24053249755E+02 -0.28181048498E+02  0.12583354892E+02  0.39128904132E+02  0.00000000000E+00 0.  1.
         11    1    3    3    0    0  0.24053249755E+02  0.28181048498E+02 -0.42486670331E+02  0.56372399932E+02  0.00000000000E+00 0. -1.
<mgrwt>
<rscale>  0 0.90698902E+02</rscale>
<asrwt>0</asrwt>
<pdfrwt beam="1">  1        3 0.50459991E-02 0.90698902E+02</pdfrwt>
<pdfrwt beam="2">  1       -3 0.96465092E-02 0.90698902E+02</pdfrwt>
<totfact> 0.35513338E+04</totfact>
</mgrwt>
</event>
<event>
 5    1  0.6004828E+000  0.9136264E+02  0.7546771E-02  0.1299585E+00
          2   -1    0    0  501    0  0.00000000000E+00  0.00000000000E+00  0.57440575475E+02  0.57440575475E+02  0.00000000000E+00 0. -1.
         -2   -1    0    0    0  501 -0.00000000000E+00 -0.00000000000E+00 -0.36329424892E+02  0.36329424892E+02  0.00000000000E+00 0.  1.
         23    2    1    2    0    0  0.00000000000E+00  0.00000000000E+00  0.21111150583E+02  0.93770000366E+02  0.91362641653E+02 0.  0.
        -11    1    3    3    0    0  0.25010213341E+02 -0.35065830590E+02 -0.50658491479E+01  0.43368030551E+02  0.00000000000E+00 0.  1.
         11    1    3    3    0    0 -0.25010213341E+02  0.35065830590E+02  0.26176999731E+02  0.50401969815E+02  0.00000000000E+00 0. -1.
<mgrwt>
<rscale>  0 0.91362642E+02</rscale>
<asrwt>0</asrwt>
<pdfrwt beam="1">  1        2 0.88370116E-02 0.91362642E+02</pdfrwt>
<pdfrwt beam="2">  1       -2 0.55891423E-02 0.91362642E+02</pdfrwt>
<totfact> 0.10423829E+05</totfact>
</mgrwt>
</event>
<event>
 5    1  0.6004828E+000  0.9220822E+02  0.7546771E-02  0.1297591E+00
         -1   -1    0    0    0  501 -0.00000000000E+00  0.00000000000E+00  0.48490916480E+01  0.48490916480E+01  0.00000000000E+00 0.  1.
          1   -1    0    0  501    0  0.00000000000E+00 -0.00000000000E+00 -0.43834789604E+03  0.43834789604E+03  0.00000000000E+00 0. -1.
         23    2    1    2    0    0  0.00000000000E+00  0.00000000000E+00 -0.43349880439E+03  0.44319698769E+03  0.92208223530E+02 0.  0.
        -11    1    3    3    0    0  0.45239177726E+02  0.37891264741E+01 -0.17810325777E+03  0.18379801715E+03  0.00000000000E+00 0. -1.
         11    1    3    3    0    0 -0.45239177726E+02 -0.37891264741E+01 -0.25539554662E+03  0.25939897053E+03  0.00000000000E+00 0.  1.
<mgrwt>
<rscale>  0 0.92208224E+02</rscale>
<asrwt>0</asrwt>
<pdfrwt beam="2">  1        1 0.67438157E-01 0.92208224E+02</pdfrwt>
<pdfrwt beam="1">  1       -1 0.74601388E-03 0.92208224E+02</pdfrwt>
<totfact> 0.13280733E+05</totfact>
</mgrwt>
</event>
<event>
 5    1  0.6004828E+000  0.1162169E+03  0.7546771E-02  0.1249472E+00
         -2   -1    0    0    0  501 -0.00000000000E+00  0.00000000000E+00  0.86487175565E+01  0.86487175565E+01  0.00000000000E+00 0.  1.
          2   -1    0    0  501    0  0.00000000000E+00 -0.00000000000E+00 -0.39041551215E+03  0.39041551215E+03  0.00000000000E+00 0. -1.
         23    2    1    2    0    0  0.00000000000E+00  0.00000000000E+00 -0.38176679459E+03  0.39906422971E+03  0.11621692638E+03 0.  0.
        -11    1    3    3    0    0 -0.46347937087E+02  0.34571414172E+02 -0.17107441788E+03  0.18058175545E+03  0.00000000000E+00 0.  1.
         11    1    3    3    0    0  0.46347937087E+02 -0.34571414172E+02 -0.21069237672E+03  0.21848247425E+03  0.00000000000E+00 0. -1.
<mgrwt>
<rscale>  0 0.11621693E+03</rscale>
<asrwt>0</asrwt>
<pdfrwt beam="2">  1        2 0.60063933E-01 0.11621693E+03</pdfrwt>
<pdfrwt beam="1">  1       -2 0.13305718E-02 0.11621693E+03</pdfrwt>
<totfact> 0.10298881E+05</totfact>
</mgrwt>
</event>
<event>
 5    1  0.6004828E+000  0.9072031E+02  0.7546771E-02  0.1301117E+00
         -2   -1    0    0    0  501 -0.00000000000E+00  0.00000000000E+00  0.65832161262E+02  0.65832161262E+02  0.00000000000E+00 0. -1.
          2   -1    0    0  501    0  0.00000000000E+00 -0.00000000000E+00 -0.31254383753E+02  0.31254383753E+02  0.00000000000E+00 0.  1.
         23    2    1    2    0    0  0.00000000000E+00  0.00000000000E+00  0.34577777509E+02  0.97086545014E+02  0.90720309332E+02 0.  0.
        -11    1    3    3    0    0 -0.37209678856E+02 -0.11387466483E+02  0.42233571721E+02  0.57427425275E+02  0.00000000000E+00 0.  1.
         11    1    3    3    0    0  0.37209678856E+02  0.11387466483E+02 -0.76557942115E+01  0.39659119739E+02  0.00000000000E+00 0. -1.
<mgrwt>
<rscale>  0 0.90720309E+02</rscale>
<asrwt>0</asrwt>
<pdfrwt beam="2">  1        2 0.48083667E-02 0.90720309E+02</pdfrwt>
<pdfrwt beam="1">  1       -2 0.10128025E-01 0.90720309E+02</pdfrwt>
<totfact> 0.90771340E+04</totfact>
</mgrwt>
</event>
<event>
 5    1  0.6004828E+000  0.9073921E+02  0.7546771E-02  0.1301071E+00
         -2   -1    0    0    0  501 -0.00000000000E+00  0.00000000000E+00  0.52431038295E+02  0.52431038295E+02  0.00000000000E+00 0.  1.
          2   -1    0    0  501    0  0.00000000000E+00 -0.00000000000E+00 -0.39259205034E+02  0.39259205034E+02  0.00000000000E+00 0. -1.
         23    2    1    2    0    0  0.00000000000E+00  0.00000000000E+00  0.13171833261E+02  0.91690243329E+02  0.90739206137E+02 0.  0.
        -11    1    3    3    0    0 -0.13751769039E+02  0.13096133153E+02  0.48221915485E+02  0.51826373482E+02  0.00000000000E+00 0.  1.
         11    1    3    3    0    0  0.13751769039E+02 -0.13096133153E+02 -0.35050082224E+02  0.39863869847E+02  0.00000000000E+00 0. -1.
<mgrwt>
<rscale>  0 0.90739206E+02</rscale>
<asrwt>0</asrwt>
<pdfrwt beam="2">  1        2 0.60398777E-02 0.90739206E+02</pdfrwt>
<pdfrwt beam="1">  1       -2 0.80663136E-02 0.90739206E+02</pdfrwt>
<totfact> 0.96260903E+04</totfact>
</mgrwt>
</event>
<event>
 5    1  0.6004828E+000  0.9168318E+02  0.7546771E-02  0.1298826E+00
         -1   -1    0    0    0  501 -0.00000000000E+00  0.00000000000E+00  0.33806217482E+02  0.33806217482E+02  0.00000000000E+00 0.  1.
          1   -1    0    0  501    0  0.00000000000E+00 -0.00000000000E+00 -0.62161686084E+02  0.62161686084E+02  0.00000000000E+00 0. -1.
         23    2    1    2    0    0  0.00000000000E+00  0.00000000000E+00 -0.28355468602E+02  0.95967903567E+02  0.91683182293E+02 0.  0.
        -11    1    3    3    0    0 -0.20569695056E+01  0.28929651206E+02  0.22981995278E+02  0.37004431484E+02  0.00000000000E+00 0.  1.
         11    1    3    3    0    0  0.20569695056E+01 -0.28929651206E+02 -0.51337463880E+02  0.58963472083E+02  0.00000000000E+00 0. -1.
<mgrwt>
<rscale>  0 0.91683182E+02</rscale>
<asrwt>0</asrwt>
<pdfrwt beam="2">  1        1 0.95633362E-02 0.91683182E+02</pdfrwt>
<pdfrwt beam="1">  1       -1 0.52009566E-02 0.91683182E+02</pdfrwt>
<totfact> 0.95412764E+04</totfact>
</mgrwt>
</event>
<event>
 5    1  0.6004828E+000  0.8794752E+02  0.7546771E-02  0.1307900E+00
          1   -1    0    0  501    0  0.00000000000E+00  0.00000000000E+00  0.72324809275E+01  0.72324809275E+01  0.00000000000E+00 0. -1.
         -1   -1    0    0    0  501 -0.00000000000E+00 -0.00000000000E+00 -0.26736211134E+03  0.26736211134E+03  0.00000000000E+00 0.  1.
         23    2    1    2    0    0  0.00000000000E+00  0.00000000000E+00 -0.26012963042E+03  0.27459459227E+03  0.87947515508E+02 0.  0.
        -11    1    3    3    0    0 -0.15230554723E+02  0.35173530541E+02 -0.19735968909E+03  0.20104724302E+03  0.00000000000E+00 0.  1.
         11    1    3    3    0    0  0.15230554723E+02 -0.35173530541E+02 -0.62769941326E+02  0.73547349252E+02  0.00000000000E+00 0. -1.
<mgrwt>
<rscale>  0 0.87947516E+02</rscale>
<asrwt>0</asrwt>
<pdfrwt beam="1">  1        1 0.11126892E-02 0.87947516E+02</pdfrwt>
<pdfrwt beam="2">  1       -1 0.41132638E-01 0.87947516E+02</pdfrwt>
<totfact> 0.69505092E+04</totfact>
</mgrwt>
</event>
<event>
 5    1  0.6004828E+000  0.1014650E+03  0.7546771E-02  0.1277245E+00
          2   -1    0    0  501    0  0.00000000000E+00  0.00000000000E+00  0.18541970632E+03  0.18541970632E+03  0.00000000000E+00 0. -1.
         -2   -1    0    0    0  501 -0.00000000000E+00 -0.00000000000E+00 -0.13880872851E+02  0.13880872851E+02  0.00000000000E+00 0.  1.
         23    2    1    2    0    0  0.00000000000E+00  0.00000000000E+00  0.17153883347E+03  0.19930057917E+03  0.10146501599E+03 0.  0.
        -11    1    3    3    0    0 -0.20465511518E+02  0.38940587553E+02  0.13540580544E+03  0.14237253481E+03  0.00000000000E+00 0. -1.
         11    1    3    3    0    0  0.20465511518E+02 -0.38940587553E+02  0.36133028032E+02  0.56928044366E+02  0.00000000000E+00 0.  1.
<mgrwt>
<rscale>  0 0.10146502E+03</rscale>
<asrwt>0</asrwt>
<pdfrwt beam="1">  1        2 0.28526107E-01 0.10146502E+03</pdfrwt>
<pdfrwt beam="2">  1       -2 0.21355190E-02 0.10146502E+03</pdfrwt>
<totfact> 0.11258043E+05</totfact>
</mgrwt>
</event>
<event>
 5    1  0.6004828E+000  0.8937620E+02  0.7546771E-02  0.1304369E+00
          3   -1    0    0  501    0  0.00000000000E+00  0.00000000000E+00  0.68358370282E+02  0.68358370282E+02  0.00000000000E+00 0. -1.
         -3   -1    0    0    0  501 -0.00000000000E+00 -0.00000000000E+00 -0.29214073673E+02  0.29214073673E+02  0.00000000000E+00 0.  1.
         23    2    1    2    0    0  0.00000000000E+00  0.00000000000E+00  0.39144296609E+02  0.97572443956E+02  0.89376204118E+02 0.  0.
        -11    1    3    3    0    0  0.24351544345E+02  0.26974140254E+02 -0.88210911803E+01  0.37395368751E+02  0.00000000000E+00 0.  1.
         11    1    3    3    0    0 -0.24351544345E+02 -0.26974140254E+02  0.47965387789E+02  0.60177075205E+02  0.00000000000E+00 0. -1.
<mgrwt>
<rscale>  0 0.89376204E+02</rscale>
<asrwt>0</asrwt>
<pdfrwt beam="1">  1        3 0.10516672E-01 0.89376204E+02</pdfrwt>
<pdfrwt beam="2">  1       -3 0.44944729E-02 0.89376204E+02</pdfrwt>
<totfact> 0.36791710E+04</totfact>
</mgrwt>
</event>
<event>
 5    1  0.6004828E+000  0.9217323E+02  0.7546771E-02  0.1297673E+00
          3   -1    0    0  501    0  0.00000000000E+00  0.00000000000E+00  0.45678039438E+02  0.45678039438E+02  0.00000000000E+00 0. -1.
         -3   -1    0    0    0  501 -0.00000000000E+00 -0.00000000000E+00 -0.46498847251E+02  0.46498847251E+02  0.00000000000E+00 0.  1.
         23    2    1    2    0    0  0.00000000000E+00  0.00000000000E+00 -0.82080781363E+00  0.92176886689E+02  0.92173232092E+02 0.  0.
        -11    1    3    3    0    0  0.17701038547E+02 -0.14947195211E+02  0.39431240583E+02  0.45733665327E+02  0.00000000000E+00 0. -1.
         11    1    3    3    0    0 -0.17701038547E+02  0.14947195211E+02 -0.40252048397E+02  0.46443221362E+02  0.00000000000E+00 0.  1.
<mgrwt>
<rscale>  0 0.92173232E+02</rscale>
<asrwt>0</asrwt>
<pdfrwt beam="1">  1        3 0.70273907E-02 0.92173232E+02</pdfrwt>
<pdfrwt beam="2">  1       -3 0.71536688E-02 0.92173232E+02</pdfrwt>
<totfact> 0.34230531E+04</totfact>
</mgrwt>
</event>
<event>
 5    1  0.6004828E+000  0.8844454E+02  0.7546771E-02  0.1306663E+00
         -3   -1    0    0    0  501 -0.00000000000E+00  0.00000000000E+00  0.38858607376E+02  0.38858607376E+02  0.00000000000E+00 0.  1.
          3   -1    0    0  501    0  0.00000000000E+00 -0.00000000000E+00 -0.50326276328E+02  0.50326276328E+02  0.00000000000E+00 0. -1.
         23    2    1    2    0    0  0.00000000000E+00  0.00000000000E+00 -0.11467668952E+02  0.89184883704E+02  0.88444536576E+02 0.  0.
        -11    1    3    3    0    0  0.10200511022E+02 -0.73402478017E+01 -0.48487795250E+02  0.50089878729E+02  0.00000000000E+00 0. -1.
         11    1    3    3    0    0 -0.10200511022E+02  0.73402478017E+01  0.37020126298E+02  0.39095004975E+02  0.00000000000E+00 0.  1.
<mgrwt>
<rscale>  0 0.88444537E+02</rscale>
<asrwt>0</asrwt>
<pdfrwt beam="2">  1        3 0.77425041E-02 0.88444537E+02</pdfrwt>
<pdfrwt beam="1">  1       -3 0.59782473E-02 0.88444537E+02</pdfrwt>
<totfact> 0.38550669E+04</totfact>
</mgrwt>
</event>
<event>
 5    1  0.6004828E+000  0.8856132E+02  0.7546771E-02  0.1306374E+00
         -2   -1    0    0    0  501 -0.00000000000E+00  0.00000000000E+00  0.16123035061E+02  0.16123035061E+02  0.00000000000E+00 0.  1.
          2   -1    0    0  501    0  0.00000000000E+00 -0.00000000000E+00 -0.12161338142E+03  0.12161338142E+03  0.00000000000E+00 0. -1.
         23    2    1    2    0    0  0.00000000000E+00  0.00000000000E+00 -0.10549034636E+03  0.13773641648E+03  0.88561319152E+02 0.  0.
        -11    1    3    3    0    0  0.26731401536E+02  0.35301178320E+02 -0.53039417055E+02  0.69093565405E+02  0.00000000000E+00 0. -1.
         11    1    3    3    0    0 -0.26731401536E+02 -0.35301178320E+02 -0.52450929301E+02  0.68642851073E+02  0.00000000000E+00 0.  1.
<mgrwt>
<rscale>  0 0.88561319E+02</rscale>
<asrwt>0</asrwt>
<pdfrwt beam="2">  1        2 0.18709750E-01 0.88561319E+02</pdfrwt>
<pdfrwt beam="1">  1       -2 0.24804671E-02 0.88561319E+02</pdfrwt>
<totfact> 0.14118782E+05</totfact>
</mgrwt>
</event>
<event>
 5    1  0.6004828E+000  0.9326328E+02  0.7546771E-02  0.1295136E+00
         -3   -1    0    0    0  501 -0.00000000000E+00  0.00000000000E+00  0.13440538765E+03  0.13440538765E+03  0.00000000000E+00 0.  1.
          3   -1    0    0  501    0  0.00000000000E+00 -0.00000000000E+00 -0.16178739279E+02  0.16178739279E+02  0.00000000000E+00 0. -1.
         23    2    1    2    0    0  0.00000000000E+00  0.00000000000E+00  0.11822664837E+03  0.15058412693E+03  0.93263277327E+02 0.  0.
        -11    1    3    3    0    0 -0.38755859821E+02 -0.20836555809E+02  0.34186968578E+02  0.55721876754E+02  0.00000000000E+00 0. -1.
         11    1    3    3    0    0  0.38755859821E+02  0.20836555809E+02  0.84039679796E+02  0.94862250177E+02  0.00000000000E+00 0.  1.
<mgrwt>
<rscale>  0 0.93263277E+02</rscale>
<asrwt>0</asrwt>
<pdfrwt beam="2">  1        3 0.24890369E-02 0.93263277E+02</pdfrwt>
<pdfrwt beam="1">  1       -3 0.20677751E-01 0.93263277E+02</pdfrwt>
<totfact> 0.29408765E+04</totfact>
</mgrwt>
</event>
<event>
 5    1  0.6004828E+000  0.8895475E+02  0.7546771E-02  0.1305403E+00
          3   -1    0    0  501    0  0.00000000000E+00  0.00000000000E+00  0.50676915287E+02  0.50676915287E+02  0.00000000000E+00 0. -1.
         -3   -1    0    0    0  501 -0.00000000000E+00 -0.00000000000E+00 -0.39036255045E+02  0.39036255045E+02  0.00000000000E+00 0.  1.
         23    2    1    2    0    0  0.00000000000E+00  0.00000000000E+00  0.11640660241E+02  0.89713170332E+02  0.88954752319E+02 0.  0.
        -11    1    3    3    0    0 -0.12746459623E+02 -0.29310055559E+02  0.37014369974E+02  0.48904142711E+02  0.00000000000E+00 0. -1.
         11    1    3    3    0    0  0.12746459623E+02  0.29310055559E+02 -0.25373709732E+02  0.40809027621E+02  0.00000000000E+00 0.  1.
<mgrwt>
<rscale>  0 0.88954752E+02</rscale>
<asrwt>0</asrwt>
<pdfrwt beam="1">  1        3 0.77964485E-02 0.88954752E+02</pdfrwt>
<pdfrwt beam="2">  1       -3 0.60055777E-02 0.88954752E+02</pdfrwt>
<totfact> 0.37909975E+04</totfact>
</mgrwt>
</event>
<event>
 5    1  0.6004828E+000  0.9202108E+02  0.7546771E-02  0.1298030E+00
          2   -1    0    0  501    0  0.00000000000E+00  0.00000000000E+00  0.10594854486E+02  0.10594854486E+02  0.00000000000E+00 0. -1.
         -2   -1    0    0    0  501 -0.00000000000E+00 -0.00000000000E+00 -0.19981110470E+03  0.19981110470E+03  0.00000000000E+00 0.  1.
         23    2    1    2    0    0  0.00000000000E+00  0.00000000000E+00 -0.18921625021E+03  0.21040595918E+03  0.92021075391E+02 0.  0.
        -11    1    3    3    0    0 -0.18106648148E+02  0.25667196762E+02 -0.17148049363E+03  0.17433363242E+03  0.00000000000E+00 0.  1.
         11    1    3    3    0    0  0.18106648148E+02 -0.25667196762E+02 -0.17735756581E+02  0.36072326765E+02  0.00000000000E+00 0. -1.
<mgrwt>
<rscale>  0 0.92021075E+02</rscale>
<asrwt>0</asrwt>
<pdfrwt beam="1">  1        2 0.16299777E-02 0.92021075E+02</pdfrwt>
<pdfrwt beam="2">  1       -2 0.30740168E-01 0.92021075E+02</pdfrwt>
<totfact> 0.60893097E+04</totfact>
</mgrwt>
</event>
<event>
 5    1  0.6004828E+000  0.8996968E+02  0.7546771E-02  0.1302925E+00
          1   -1    0    0  501    0  0.00000000000E+00  0.00000000000E+00  0.47255282375E+02  0.47255282375E+02  0.00000000000E+00 0. -1.
         -1   -1    0    0    0  501 -0.00000000000E+00 -0.00000000000E+00 -0.42823483454E+02  0.42823483454E+02  0.00000000000E+00 0.  1.
         23    2    1    2    0    0  0.00000000000E+00  0.00000000000E+00  0.44317989218E+01  0.90078765829E+02  0.89969679401E+02 0.  0.
        -11    1    3    3    0    0 -0.14216891864E+02 -0.12560750512E+02  0.43054365296E+02  0.47048600816E+02  0.00000000000E+00 0. -1.
         11    1    3    3    0    0  0.14216891864E+02  0.12560750512E+02 -0.38622566374E+02  0.43030165013E+02  0.00000000000E+00 0.  1.
<mgrwt>
<rscale>  0 0.89969679E+02</rscale>
<asrwt>0</asrwt>
<pdfrwt beam="1">  1        1 0.72700434E-02 0.89969679E+02</pdfrwt>
<pdfrwt beam="2">  1       -1 0.65882283E-02 0.89969679E+02</pdfrwt>
<totfact> 0.96504082E+04</totfact>
</mgrwt>
</event>
<event>
 5    1  0.6004828E+000  0.9155211E+02  0.7546771E-02  0.1299136E+00
          2   -1    0    0  501    0  0.00000000000E+00  0.00000000000E+00  0.26087609821E+03  0.26087609821E+03  0.00000000000E+00 0. -1.
         -2   -1    0    0    0  501 -0.00000000000E+00 -0.00000000000E+00 -0.80323471304E+01  0.80323471304E+01  0.00000000000E+00 0.  1.
         23    2    1    2    0    0  0.00000000000E+00  0.00000000000E+00  0.25284375108E+03  0.26890844534E+03  0.91552113658E+02 0.  0.
        -11    1    3    3    0    0  0.23809750840E+02 -0.39038195797E+02  0.12014803683E+03  0.12855518550E+03  0.00000000000E+00 0. -1.
         11    1    3    3    0    0 -0.23809750840E+02  0.39038195797E+02  0.13269571425E+03  0.14035325984E+03  0.00000000000E+00 0.  1.
<mgrwt>
<rscale>  0 0.91552114E+02</rscale>
<asrwt>0</asrwt>
<pdfrwt beam="1">  1        2 0.40134778E-01 0.91552114E+02</pdfrwt>
<pdfrwt beam="2">  1       -2 0.12357459E-02 0.91552114E+02</pdfrwt>
<totfact> 0.16866997E+05</totfact>
</mgrwt>
</event>
<event>
 5    1  0.6004828E+000  0.1179400E+03  0.7546771E-02  0.1246535E+00
          2   -1    0    0  501    0  0.00000000000E+00  0.00000000000E+00  0.83166600879E+02  0.83166600879E+02  0.00000000000E+00 0.  1.
         -2   -1    0    0    0  501 -0.00000000000E+00 -0.00000000000E+00 -0.41813175369E+02  0.41813175369E+02  0.00000000000E+00 0. -1.
         23    2    1    2    0    0  0.00000000000E+00  0.00000000000E+00  0.41353425510E+02  0.12497977625E+03  0.11793997910E+03 0.  0.
        -11    1    3    3    0    0  0.30367522842E+02 -0.64145999697E+01 -0.32457252488E+02  0.44908871901E+02  0.00000000000E+00 0. -1.
         11    1    3    3    0    0 -0.30367522842E+02  0.64145999697E+01  0.73810677998E+02  0.80070904346E+02  0.00000000000E+00 0.  1.
<mgrwt>
<rscale>  0 0.11793998E+03</rscale>
<asrwt>0</asrwt>
<pdfrwt beam="1">  1        2 0.12794862E-01 0.11793998E+03</pdfrwt>
<pdfrwt beam="2">  1       -2 0.64327962E-02 0.11793998E+03</pdfrwt>
<totfact> 0.55960632E+04</totfact>
</mgrwt>
</event>
<event>
 5    1  0.6004828E+000  0.9084573E+02  0.7546771E-02  0.1300816E+00
          2   -1    0    0  501    0  0.00000000000E+00  0.00000000000E+00  0.19650481692E+03  0.19650481692E+03  0.00000000000E+00 0. -1.
         -2   -1    0    0    0  501 -0.00000000000E+00 -0.00000000000E+00 -0.10499675229E+02  0.10499675229E+02  0.00000000000E+00 0.  1.
         23    2    1    2    0    0  0.00000000000E+00  0.00000000000E+00  0.18600514169E+03  0.20700449215E+03  0.90845732066E+02 0.  0.
        -11    1    3    3    0    0  0.26077866022E+02  0.36811609022E+02  0.80926414722E+02  0.92651142761E+02  0.00000000000E+00 0.  1.
         11    1    3    3    0    0 -0.26077866022E+02 -0.36811609022E+02  0.10507872697E+03  0.11435334939E+03  0.00000000000E+00 0. -1.
<mgrwt>
<rscale>  0 0.90845732E+02</rscale>
<asrwt>0</asrwt>
<pdfrwt beam="1">  1        2 0.30231508E-01 0.90845732E+02</pdfrwt>
<pdfrwt beam="2">  1       -2 0.16153348E-02 0.90845732E+02</pdfrwt>
<totfact> 0.15521102E+05</totfact>
</mgrwt>
</event>
<event>
 5    1  0.6004828E+000  0.8598103E+02  0.7546771E-02  0.1312887E+00
          2   -1    0    0  501    0  0.00000000000E+00  0.00000000000E+00  0.18329723234E+03  0.18329723234E+03  0.00000000000E+00 0. -1.
         -2   -1    0    0    0  501 -0.00000000000E+00 -0.00000000000E+00 -0.10082991889E+02  0.10082991889E+02  0.00000000000E+00 0.  1.
         23    2    1    2    0    0  0.00000000000E+00  0.00000000000E+00  0.17321424045E+03  0.19338022422E+03  0.85981032953E+02 0.  0.
        -11    1    3    3    0    0 -0.37015726642E+02 -0.81070241175E+01  0.40938877236E+02  0.55784222933E+02  0.00000000000E+00 0.  1.
         11    1    3    3    0    0  0.37015726642E+02  0.81070241175E+01  0.13227536321E+03  0.13759600129E+03  0.00000000000E+00 0. -1.
<mgrwt>
<rscale>  0 0.85981033E+02</rscale>
<asrwt>0</asrwt>
<pdfrwt beam="1">  1        2 0.28199572E-01 0.85981033E+02</pdfrwt>
<pdfrwt beam="2">  1       -2 0.15512297E-02 0.85981033E+02</pdfrwt>
<totfact> 0.17551173E+05</totfact>
</mgrwt>
</event>
<event>
 5    1  0.6004828E+000  0.9126653E+02  0.7546771E-02  0.1299813E+00
          2   -1    0    0  501    0  0.00000000000E+00  0.00000000000E+00  0.63989273181E+02  0.63989273181E+02  0.00000000000E+00 0. -1.
         -2   -1    0    0    0  501 -0.00000000000E+00 -0.00000000000E+00 -0.32542871631E+02  0.32542871631E+02  0.00000000000E+00 0.  1.
         23    2    1    2    0    0  0.00000000000E+00  0.00000000000E+00  0.31446401550E+02  0.96532144811E+02  0.91266526237E+02 0.  0.
        -11    1    3    3    0    0 -0.33216717621E+02  0.23522630589E+01  0.48724490899E+02  0.59016603464E+02  0.00000000000E+00 0. -1.
         11    1    3    3    0    0  0.33216717621E+02 -0.23522630589E+01 -0.17278089349E+02  0.37515541347E+02  0.00000000000E+00 0.  1.
<mgrwt>
<rscale>  0 0.91266526E+02</rscale>
<asrwt>0</asrwt>
<pdfrwt beam="1">  1        2 0.98445035E-02 0.91266526E+02</pdfrwt>
<pdfrwt beam="2">  1       -2 0.50065957E-02 0.91266526E+02</pdfrwt>
<totfact> 0.10763047E+05</totfact>
</mgrwt>
</event>
<event>
 5    1  0.6004828E+000  0.9046118E+02  0.7546771E-02  0.1301739E+00
          1   -1    0    0  501    0  0.00000000000E+00  0.00000000000E+00  0.22505171708E+02  0.22505171708E+02  0.00000000000E+00 0. -1.
         -1   -1    0    0    0  501 -0.00000000000E+00 -0.00000000000E+00 -0.90903838588E+02  0.90903838588E+02  0.00000000000E+00 0.  1.
         23    2    1    2    0    0  0.00000000000E+00  0.00000000000E+00 -0.68398666880E+02  0.11340901030E+03  0.90461184966E+02 0.  0.
        -11    1    3    3    0    0  0.23963165616E+02 -0.26776513718E+02 -0.68637596842E+02  0.77474735840E+02  0.00000000000E+00 0.  1.
         11    1    3    3    0    0 -0.23963165616E+02  0.26776513718E+02  0.23892996155E+00  0.35934274457E+02  0.00000000000E+00 0. -1.
<mgrwt>
<rscale>  0 0.90461185E+02</rscale>
<asrwt>0</asrwt>
<pdfrwt beam="1">  1        1 0.34623341E-02 0.90461185E+02</pdfrwt>
<pdfrwt beam="2">  1       -1 0.13985206E-01 0.90461185E+02</pdfrwt>
<totfact> 0.84486779E+04</totfact>
</mgrwt>
</event>
<event>
 5    1  0.6004828E+000  0.9180390E+02  0.7546771E-02  0.1298541E+00
         -1   -1    0    0    0  501 -0.00000000000E+00  0.00000000000E+00  0.55292004942E+02  0.55292004942E+02  0.00000000000E+00 0.  1.
          1   -1    0    0  501    0  0.00000000000E+00 -0.00000000000E+00 -0.38106574341E+02  0.38106574341E+02  0.00000000000E+00 0. -1.
         23    2    1    2    0    0  0.00000000000E+00  0.00000000000E+00  0.17185430601E+02  0.93398579283E+02  0.91803897450E+02 0.  0.
        -11    1    3    3    0    0 -0.36175148146E+02 -0.29358250439E+01  0.37182971843E+02  0.51959925011E+02  0.00000000000E+00 0.  1.
         11    1    3    3    0    0  0.36175148146E+02  0.29358250439E+01 -0.19997541242E+02  0.41438654271E+02  0.00000000000E+00 0. -1.
<mgrwt>
<rscale>  0 0.91803897E+02</rscale>
<asrwt>0</asrwt>
<pdfrwt beam="2">  1        1 0.58625499E-02 0.91803897E+02</pdfrwt>
<pdfrwt beam="1">  1       -1 0.85064623E-02 0.91803897E+02</pdfrwt>
<totfact> 0.88263181E+04</totfact>
</mgrwt>
</event>
<event>
 5    1  0.6004828E+000  0.9129435E+02  0.7546771E-02  0.1299747E+00
         -2   -1    0    0    0  501 -0.00000000000E+00  0.00000000000E+00  0.33173246416E+02  0.33173246416E+02  0.00000000000E+00 0.  1.
          2   -1    0    0  501    0  0.00000000000E+00 -0.00000000000E+00 -0.62811590845E+02  0.62811590845E+02  0.00000000000E+00 0. -1.
         23    2    1    2    0    0  0.00000000000E+00  0.00000000000E+00 -0.29638344428E+02  0.95984837261E+02  0.91294345518E+02 0.  0.
        -11    1    3    3    0    0  0.38238056758E+02 -0.21638617416E+02 -0.27836129464E+02  0.52011814541E+02  0.00000000000E+00 0. -1.
         11    1    3    3    0    0 -0.38238056758E+02  0.21638617416E+02 -0.18022149641E+01  0.43973022720E+02  0.00000000000E+00 0.  1.
<mgrwt>
<rscale>  0 0.91294346E+02</rscale>
<asrwt>0</asrwt>
<pdfrwt beam="2">  1        2 0.96633216E-02 0.91294346E+02</pdfrwt>
<pdfrwt beam="1">  1       -2 0.51035764E-02 0.91294346E+02</pdfrwt>
<totfact> 0.10699749E+05</totfact>
</mgrwt>
</event>
<event>
 5    1  0.6004828E+000  0.8620272E+02  0.7546771E-02  0.1312317E+00
         -1   -1    0    0    0  501 -0.00000000000E+00  0.00000000000E+00  0.68941827614E+02  0.68941827614E+02  0.00000000000E+00 0.  1.
          1   -1    0    0  501    0  0.00000000000E+00 -0.00000000000E+00 -0.26946299054E+02  0.26946299054E+02  0.00000000000E+00 0. -1.
         23    2    1    2    0    0  0.00000000000E+00  0.00000000000E+00  0.41995528559E+02  0.95888126668E+02  0.86202716993E+02 0.  0.
        -11    1    3    3    0    0 -0.31328147124E+02  0.29404050517E+02  0.17196806318E+02  0.46279381333E+02  0.00000000000E+00 0.  1.
         11    1    3    3    0    0  0.31328147124E+02 -0.29404050517E+02  0.24798722241E+02  0.49608745336E+02  0.00000000000E+00 0. -1.
<mgrwt>
<rscale>  0 0.86202717E+02</rscale>
<asrwt>0</asrwt>
<pdfrwt beam="2">  1        1 0.41455845E-02 0.86202717E+02</pdfrwt>
<pdfrwt beam="1">  1       -1 0.10606435E-01 0.86202717E+02</pdfrwt>
<totfact> 0.10006420E+05</totfact>
</mgrwt>
</event>
<event>
 5    1  0.6004828E+000  0.9520806E+02  0.7546771E-02  0.1290708E+00
          1   -1    0    0  501    0  0.00000000000E+00  0.00000000000E+00  0.22326525815E+02  0.22326525815E+02  0.00000000000E+00 0. -1.
         -1   -1    0    0    0  501 -0.00000000000E+00 -0.00000000000E+00 -0.10150006039E+03  0.10150006039E+03  0.00000000000E+00 0.  1.
         23    2    1    2    0    0  0.00000000000E+00  0.00000000000E+00 -0.79173534572E+02  0.12382658620E+03  0.95208060969E+02 0.  0.
        -11    1    3    3    0    0 -0.43229032302E+02  0.65243775546E+01 -0.15087759349E+02  0.46248861807E+02  0.00000000000E+00 0. -1.
         11    1    3    3    0    0  0.43229032302E+02 -0.65243775546E+01 -0.64085775222E+02  0.77577724394E+02  0.00000000000E+00 0.  1.
<mgrwt>
<rscale>  0 0.95208061E+02</rscale>
<asrwt>0</asrwt>
<pdfrwt beam="1">  1        1 0.34348501E-02 0.95208061E+02</pdfrwt>
<pdfrwt beam="2">  1       -1 0.15615394E-01 0.95208061E+02</pdfrwt>
<totfact> 0.72574315E+04</totfact>
</mgrwt>
</event>
<event>
 5    1  0.6004828E+000  0.9364382E+02  0.7546771E-02  0.1294260E+00
          2   -1    0    0  501    0  0.00000000000E+00  0.00000000000E+00  0.32212281934E+03  0.32212281934E+03  0.00000000000E+00 0. -1.
         -2   -1    0    0    0  501 -0.00000000000E+00 -0.00000000000E+00 -0.68057619137E+01  0.68057619137E+01  0.00000000000E+00 0.  1.
         23    2    1    2    0    0  0.00000000000E+00  0.00000000000E+00  0.31531705743E+03  0.32892858125E+03  0.93643819132E+02 0.  0.
        -11    1    3    3    0    0 -0.32258359107E+02 -0.28521486858E+02  0.93060619998E+02  0.10253953354E+03  0.00000000000E+00 0.  1.
         11    1    3    3    0    0  0.32258359107E+02  0.28521486858E+02  0.22225643743E+03  0.22638904771E+03  0.00000000000E+00 0. -1.
<mgrwt>
<rscale>  0 0.93643819E+02</rscale>
<asrwt>0</asrwt>
<pdfrwt beam="1">  1        2 0.49557345E-01 0.93643819E+02</pdfrwt>
<pdfrwt beam="2">  1       -2 0.10470405E-02 0.93643819E+02</pdfrwt>
<totfact> 0.17177890E+05</totfact>
</mgrwt>
</event>
<event>
 5    1  0.6004828E+000  0.9134803E+02  0.7546771E-02  0.1299620E+00
          2   -1    0    0  501    0  0.00000000000E+00  0.00000000000E+00  0.50834495640E+02  0.50834495640E+02  0.00000000000E+00 0. -1.
         -2   -1    0    0    0  501 -0.00000000000E+00 -0.00000000000E+00 -0.41037402110E+02  0.41037402110E+02  0.00000000000E+00 0.  1.
         23    2    1    2    0    0  0.00000000000E+00  0.00000000000E+00  0.97970935301E+01  0.91871897749E+02  0.91348029833E+02 0.  0.
        -11    1    3    3    0    0 -0.32733474686E+02 -0.96674534679E+01  0.35423479764E+02  0.49191085983E+02  0.00000000000E+00 0. -1.
         11    1    3    3    0    0  0.32733474686E+02  0.96674534679E+01 -0.25626386234E+02  0.42680811766E+02  0.00000000000E+00 0.  1.
<mgrwt>
<rscale>  0 0.91348030E+02</rscale>
<asrwt>0</asrwt>
<pdfrwt beam="1">  1        2 0.78206917E-02 0.91348030E+02</pdfrwt>
<pdfrwt beam="2">  1       -2 0.63134465E-02 0.91348030E+02</pdfrwt>
<totfact> 0.10097419E+05</totfact>
</mgrwt>
</event>
<event>
 5    1  0.6004828E+000  0.9119382E+02  0.7546771E-02  0.1299986E+00
         -2   -1    0    0    0  501 -0.00000000000E+00  0.00000000000E+00  0.24861264983E+02  0.24861264983E+02  0.00000000000E+00 0.  1.
          2   -1    0    0  501    0  0.00000000000E+00 -0.00000000000E+00 -0.83627213449E+02  0.83627213449E+02  0.00000000000E+00 0. -1.
         23    2    1    2    0    0  0.00000000000E+00  0.00000000000E+00 -0.58765948466E+02  0.10848847843E+03  0.91193822453E+02 0.  0.
        -11    1    3    3    0    0  0.16462761798E+02  0.42319312021E+02 -0.24458981744E+02  0.51577015074E+02  0.00000000000E+00 0.  1.
         11    1    3    3    0    0 -0.16462761798E+02 -0.42319312021E+02 -0.34306966722E+02  0.56911463359E+02  0.00000000000E+00 0. -1.
<mgrwt>
<rscale>  0 0.91193822E+02</rscale>
<asrwt>0</asrwt>
<pdfrwt beam="2">  1        2 0.12865725E-01 0.91193822E+02</pdfrwt>
<pdfrwt beam="1">  1       -2 0.38248099E-02 0.91193822E+02</pdfrwt>
<totfact> 0.11627030E+05</totfact>
</mgrwt>
</event>
<event>
 5    1  0.6004828E+000  0.8985782E+02  0.7546771E-02  0.1303196E+00
          1   -1    0    0  501    0  0.00000000000E+00  0.00000000000E+00  0.40597783310E+02  0.40597783310E+02  0.00000000000E+00 0. -1.
         -1   -1    0    0    0  501 -0.00000000000E+00 -0.00000000000E+00 -0.49722094560E+02  0.49722094560E+02  0.00000000000E+00 0.  1.
         23    2    1    2    0    0  0.00000000000E+00  0.00000000000E+00 -0.91243112494E+01  0.90319877870E+02  0.89857817037E+02 0.  0.
        -11    1    3    3    0    0  0.44509121968E+01 -0.19099365775E+02  0.36068599124E+02  0.41055331385E+02  0.00000000000E+00 0. -1.
         11    1    3    3    0    0 -0.44509121968E+01  0.19099365775E+02 -0.45192910373E+02  0.49264546485E+02  0.00000000000E+00 0.  1.
<mgrwt>
<rscale>  0 0.89857817E+02</rscale>
<asrwt>0</asrwt>
<pdfrwt beam="1">  1        1 0.62458128E-02 0.89857817E+02</pdfrwt>
<pdfrwt beam="2">  1       -1 0.76495530E-02 0.89857817E+02</pdfrwt>
<totfact> 0.94675843E+04</totfact>
</mgrwt>
</event>
<event>
 5    1  0.6004828E+000  0.9142348E+02  0.7546771E-02  0.1299441E+00
          2   -1    0    0  501    0  0.00000000000E+00  0.00000000000E+00  0.10152165969E+03  0.10152165969E+03  0.00000000000E+00 0. -1.
         -2   -1    0    0    0  501 -0.00000000000E+00 -0.00000000000E+00 -0.20582437525E+02  0.20582437525E+02  0.00000000000E+00 0.  1.
         23    2    1    2    0    0  0.00000000000E+00  0.00000000000E+00  0.80939222166E+02  0.12210409722E+03  0.91423480966E+02 0.  0.
        -11    1    3    3    0    0 -0.32821341783E+02  0.10349846864E+02  0.28631338320E+00  0.34415719983E+02  0.00000000000E+00 0.  1.
         11    1    3    3    0    0  0.32821341783E+02 -0.10349846864E+02  0.80652908783E+02  0.87688377233E+02  0.00000000000E+00 0. -1.
<mgrwt>
<rscale>  0 0.91423481E+02</rscale>
<asrwt>0</asrwt>
<pdfrwt beam="1">  1        2 0.15618717E-01 0.91423481E+02</pdfrwt>
<pdfrwt beam="2">  1       -2 0.31665289E-02 0.91423481E+02</pdfrwt>
<totfact> 0.12232917E+05</totfact>
</mgrwt>
</event>
<event>
 5    1  0.6004828E+000  0.9412369E+02  0.7546771E-02  0.1293162E+00
         -2   -1    0    0    0  501 -0.00000000000E+00  0.00000000000E+00  0.79241425354E+02  0.79241425354E+02  0.00000000000E+00 0.  1.
          2   -1    0    0  501    0  0.00000000000E+00 -0.00000000000E+00 -0.27950243007E+02  0.27950243007E+02  0.00000000000E+00 0. -1.
         23    2    1    2    0    0  0.00000000000E+00  0.00000000000E+00  0.51291182347E+02  0.10719166836E+03  0.94123686601E+02 0.  0.
        -11    1    3    3    0    0  0.21375996541E+02 -0.12023218282E+02  0.71388436957E+02  0.75483772674E+02  0.00000000000E+00 0.  1.
         11    1    3    3    0    0 -0.21375996541E+02  0.12023218282E+02 -0.20097254610E+02  0.31707895686E+02  0.00000000000E+00 0. -1.
<mgrwt>
<rscale>  0 0.94123687E+02</rscale>
<asrwt>0</asrwt>
<pdfrwt beam="2">  1        2 0.43000374E-02 0.94123687E+02</pdfrwt>
<pdfrwt beam="1">  1       -2 0.12190988E-01 0.94123687E+02</pdfrwt>
<totfact> 0.78891998E+04</totfact>
</mgrwt>
</event>
<event>
 5    1  0.6004828E+000  0.9181074E+02  0.7546771E-02  0.1298525E+00
         -2   -1    0    0    0  501 -0.00000000000E+00  0.00000000000E+00  0.21603893089E+02  0.21603893089E+02  0.00000000000E+00 0. -1.
          2   -1    0    0  501    0  0.00000000000E+00 -0.00000000000E+00 -0.97542741201E+02  0.97542741201E+02  0.00000000000E+00 0.  1.
         23    2    1    2    0    0  0.00000000000E+00  0.00000000000E+00 -0.75938848112E+02  0.11914663429E+03  0.91810739078E+02 0.  0.
        -11    1    3    3    0    0 -0.17201235805E+02 -0.12425694098E+01 -0.93178790195E+02  0.94761349896E+02  0.00000000000E+00 0.  1.
         11    1    3    3    0    0  0.17201235805E+02  0.12425694098E+01  0.17239942083E+02  0.24385284394E+02  0.00000000000E+00 0. -1.
<mgrwt>
<rscale>  0 0.91810739E+02</rscale>
<asrwt>0</asrwt>
<pdfrwt beam="2">  1        2 0.15006576E-01 0.91810739E+02</pdfrwt>
<pdfrwt beam="1">  1       -2 0.33236758E-02 0.91810739E+02</pdfrwt>
<totfact> 0.11944767E+05</totfact>
</mgrwt>
</event>
<event>
 5    1  0.6004828E+000  0.9163789E+02  0.7546771E-02  0.1298933E+00
          1   -1    0    0  501    0  0.00000000000E+00  0.00000000000E+00  0.14249112893E+03  0.14249112893E+03  0.00000000000E+00 0. -1.
         -1   -1    0    0    0  501 -0.00000000000E+00 -0.00000000000E+00 -0.14733379198E+02  0.14733379198E+02  0.00000000000E+00 0.  1.
         23    2    1    2    0    0  0.00000000000E+00  0.00000000000E+00  0.12775774973E+03  0.15722450813E+03  0.91637892486E+02 0.  0.
        -11    1    3    3    0    0 -0.21149665058E+02  0.38988908913E+02  0.83585897832E+02  0.94625819239E+02  0.00000000000E+00 0. -1.
         11    1    3    3    0    0  0.21149665058E+02 -0.38988908913E+02  0.44171851901E+02  0.62598688889E+02  0.00000000000E+00 0.  1.
<mgrwt>
<rscale>  0 0.91637892E+02</rscale>
<asrwt>0</asrwt>
<pdfrwt beam="1">  1        1 0.21921711E-01 0.91637892E+02</pdfrwt>
<pdfrwt beam="2">  1       -1 0.22666738E-02 0.91637892E+02</pdfrwt>
<totfact> 0.10958003E+05</totfact>
</mgrwt>
</event>
<event>
 5    1  0.6004828E+000  0.8982940E+02  0.7546771E-02  0.1303265E+00
          1   -1    0    0  501    0  0.00000000000E+00  0.00000000000E+00  0.63294968672E+01  0.63294968672E+01  0.00000000000E+00 0. -1.
         -1   -1    0    0    0  501 -0.00000000000E+00 -0.00000000000E+00 -0.31871888421E+03  0.31871888421E+03  0.00000000000E+00 0.  1.
         23    2    1    2    0    0  0.00000000000E+00  0.00000000000E+00 -0.31238938734E+03  0.32504838108E+03  0.89829397841E+02 0.  0.
        -11    1    3    3    0    0  0.13645183997E+02 -0.37895340039E+02 -0.22811860972E+03  0.23164703310E+03  0.00000000000E+00 0.  1.
         11    1    3    3    0    0 -0.13645183997E+02  0.37895340039E+02 -0.84270777620E+02  0.93401347976E+02  0.00000000000E+00 0. -1.
<mgrwt>
<rscale>  0 0.89829398E+02</rscale>
<asrwt>0</asrwt>
<pdfrwt beam="1">  1        1 0.97376859E-03 0.89829398E+02</pdfrwt>
<pdfrwt beam="2">  1       -1 0.49033683E-01 0.89829398E+02</pdfrwt>
<totfact> 0.61469968E+04</totfact>
</mgrwt>
</event>
<event>
 5    1  0.6004828E+000  0.8995011E+02  0.7546771E-02  0.1302973E+00
         -1   -1    0    0    0  501 -0.00000000000E+00  0.00000000000E+00  0.28040012757E+02  0.28040012757E+02  0.00000000000E+00 0.  1.
          1   -1    0    0  501    0  0.00000000000E+00 -0.00000000000E+00 -0.72138185670E+02  0.72138185670E+02  0.00000000000E+00 0. -1.
         23    2    1    2    0    0  0.00000000000E+00  0.00000000000E+00 -0.44098172913E+02  0.10017819843E+03  0.89950111651E+02 0.  0.
        -11    1    3    3    0    0  0.59790047265E+01  0.28302023891E+02 -0.60403410193E+02  0.66972569137E+02  0.00000000000E+00 0. -1.
         11    1    3    3    0    0 -0.59790047265E+01 -0.28302023891E+02  0.16305237280E+02  0.33205629291E+02  0.00000000000E+00 0.  1.
<mgrwt>
<rscale>  0 0.89950112E+02</rscale>
<asrwt>0</asrwt>
<pdfrwt beam="2">  1        1 0.11098183E-01 0.89950112E+02</pdfrwt>
<pdfrwt beam="1">  1       -1 0.43138481E-02 0.89950112E+02</pdfrwt>
<totfact> 0.10288982E+05</totfact>
</mgrwt>
</event>
<event>
 5    1  0.6004828E+000  0.9313669E+02  0.7546771E-02  0.1295429E+00
          1   -1    0    0  501    0  0.00000000000E+00  0.00000000000E+00  0.84605909003E+01  0.84605909003E+01  0.00000000000E+00 0. -1.
         -1   -1    0    0    0  501 -0.00000000000E+00 -0.00000000000E+00 -0.25631907949E+03  0.25631907949E+03  0.00000000000E+00 0.  1.
         23    2    1    2    0    0  0.00000000000E+00  0.00000000000E+00 -0.24785848859E+03  0.26477967039E+03  0.93136692480E+02 0.  0.
        -11    1    3    3    0    0 -0.55507299725E+01 -0.43958687974E+02 -0.83181834367E+02  0.94246455744E+02  0.00000000000E+00 0.  1.
         11    1    3    3    0    0  0.55507299725E+01  0.43958687974E+02 -0.16467665422E+03  0.17053321465E+03  0.00000000000E+00 0. -1.
<mgrwt>
<rscale>  0 0.93136692E+02</rscale>
<asrwt>0</asrwt>
<pdfrwt beam="1">  1        1 0.13016294E-02 0.93136692E+02</pdfrwt>
<pdfrwt beam="2">  1       -1 0.39433705E-01 0.93136692E+02</pdfrwt>
<totfact> 0.60739846E+04</totfact>
</mgrwt>
</event>
<event>
 5    1  0.6004828E+000  0.8695367E+02  0.7546771E-02  0.1310401E+00
         -1   -1    0    0    0  501 -0.00000000000E+00  0.00000000000E+00  0.20120206568E+03  0.20120206568E+03  0.00000000000E+00 0. -1.
          1   -1    0    0  501    0  0.00000000000E+00 -0.00000000000E+00 -0.93947114992E+01  0.93947114992E+01  0.00000000000E+00 0.  1.
         23    2    1    2    0    0  0.00000000000E+00  0.00000000000E+00  0.19180735419E+03  0.21059677718E+03  0.86953674106E+02 0.  0.
        -11    1    3    3    0    0  0.10849692895E+02 -0.39936318040E+02  0.63626353066E+02  0.75900844126E+02  0.00000000000E+00 0.  1.
         11    1    3    3    0    0 -0.10849692895E+02  0.39936318040E+02  0.12818100112E+03  0.13469593306E+03  0.00000000000E+00 0. -1.
<mgrwt>
<rscale>  0 0.86953674E+02</rscale>
<asrwt>0</asrwt>
<pdfrwt beam="2">  1        1 0.14453404E-02 0.86953674E+02</pdfrwt>
<pdfrwt beam="1">  1       -1 0.30954161E-01 0.86953674E+02</pdfrwt>
<totfact> 0.78401050E+04</totfact>
</mgrwt>
</event>
<event>
 5    1  0.6004828E+000  0.9339699E+02  0.7546771E-02  0.1294828E+00
          3   -1    0    0  501    0  0.00000000000E+00  0.00000000000E+00  0.21397260419E+03  0.21397260419E+03  0.00000000000E+00 0. -1.
         -3   -1    0    0    0  501 -0.00000000000E+00 -0.00000000000E+00 -0.10191721681E+02  0.10191721681E+02  0.00000000000E+00 0.  1.
         23    2    1    2    0    0  0.00000000000E+00  0.00000000000E+00  0.20378088251E+03  0.22416432587E+03  0.93396985590E+02 0.  0.
        -11    1    3    3    0    0  0.25164032079E+02  0.30143491771E+02  0.16255665576E+03  0.16723194951E+03  0.00000000000E+00 0.  1.
         11    1    3    3    0    0 -0.25164032079E+02 -0.30143491771E+02  0.41224226751E+02  0.56932376359E+02  0.00000000000E+00 0. -1.
<mgrwt>
<rscale>  0 0.93396986E+02</rscale>
<asrwt>0</asrwt>
<pdfrwt beam="1">  1        3 0.32918859E-01 0.93396986E+02</pdfrwt>
<pdfrwt beam="2">  1       -3 0.15679573E-02 0.93396986E+02</pdfrwt>
<totfact> 0.25578065E+04</totfact>
</mgrwt>
</event>
<event>
 5    1  0.6004828E+000  0.9166511E+02  0.7546771E-02  0.1298869E+00
          2   -1    0    0  501    0  0.00000000000E+00  0.00000000000E+00  0.55765850864E+02  0.55765850864E+02  0.00000000000E+00 0.  1.
         -2   -1    0    0    0  501 -0.00000000000E+00 -0.00000000000E+00 -0.37668625028E+02  0.37668625028E+02  0.00000000000E+00 0. -1.
         23    2    1    2    0    0  0.00000000000E+00  0.00000000000E+00  0.18097225836E+02  0.93434475892E+02  0.91665106241E+02 0.  0.
        -11    1    3    3    0    0  0.30593908875E+02 -0.12256930833E+02 -0.23415866033E+02  0.40429226999E+02  0.00000000000E+00 0. -1.
         11    1    3    3    0    0 -0.30593908875E+02  0.12256930833E+02  0.41513091869E+02  0.53005248893E+02  0.00000000000E+00 0.  1.
<mgrwt>
<rscale>  0 0.91665106E+02</rscale>
<asrwt>0</asrwt>
<pdfrwt beam="1">  1        2 0.85793617E-02 0.91665106E+02</pdfrwt>
<pdfrwt beam="2">  1       -2 0.57951731E-02 0.91665106E+02</pdfrwt>
<totfact> 0.10245637E+05</totfact>
</mgrwt>
</event>
<event>
 5    1  0.6004828E+000  0.9112238E+02  0.7546771E-02  0.1300156E+00
         -3   -1    0    0    0  501 -0.00000000000E+00  0.00000000000E+00  0.51792237242E+02  0.51792237242E+02  0.00000000000E+00 0.  1.
          3   -1    0    0  501    0  0.00000000000E+00 -0.00000000000E+00 -0.40079788091E+02  0.40079788091E+02  0.00000000000E+00 0. -1.
         23    2    1    2    0    0  0.00000000000E+00  0.00000000000E+00  0.11712449151E+02  0.91872025333E+02  0.91122376910E+02 0.  0.
        -11    1    3    3    0    0 -0.14755284206E+02 -0.66132604851E+01  0.48802051711E+02  0.51411028753E+02  0.00000000000E+00 0.  1.
         11    1    3    3    0    0  0.14755284206E+02  0.66132604851E+01 -0.37089602559E+02  0.40460996580E+02  0.00000000000E+00 0. -1.
<mgrwt>
<rscale>  0 0.91122377E+02</rscale>
<asrwt>0</asrwt>
<pdfrwt beam="2">  1        3 0.61661212E-02 0.91122377E+02</pdfrwt>
<pdfrwt beam="1">  1       -3 0.79680365E-02 0.91122377E+02</pdfrwt>
<totfact> 0.35343581E+04</totfact>
</mgrwt>
</event>
<event>
 5    1  0.6004828E+000  0.9095652E+02  0.7546771E-02  0.1300552E+00
         -1   -1    0    0    0  501 -0.00000000000E+00  0.00000000000E+00  0.12158318970E+03  0.12158318970E+03  0.00000000000E+00 0.  1.
          1   -1    0    0  501    0  0.00000000000E+00 -0.00000000000E+00 -0.17011169307E+02  0.17011169307E+02  0.00000000000E+00 0. -1.
         23    2    1    2    0    0  0.00000000000E+00  0.00000000000E+00  0.10457202039E+03  0.13859435900E+03  0.90956522028E+02 0.  0.
        -11    1    3    3    0    0  0.19066766669E+02 -0.17687595782E+02 -0.45616431430E+01  0.26404568240E+02  0.00000000000E+00 0. -1.
         11    1    3    3    0    0 -0.19066766669E+02  0.17687595782E+02  0.10913366353E+03  0.11218979076E+03  0.00000000000E+00 0.  1.
<mgrwt>
<rscale>  0 0.90956522E+02</rscale>
<asrwt>0</asrwt>
<pdfrwt beam="2">  1        1 0.26171031E-02 0.90956522E+02</pdfrwt>
<pdfrwt beam="1">  1       -1 0.18705106E-01 0.90956522E+02</pdfrwt>
<totfact> 0.78811363E+04</totfact>
</mgrwt>
</event>
<event>
 5    1  0.6004828E+000  0.8938040E+02  0.7546771E-02  0.1304359E+00
         -2   -1    0    0    0  501 -0.00000000000E+00  0.00000000000E+00  0.12897300662E+02  0.12897300662E+02  0.00000000000E+00 0. -1.
          2   -1    0    0  501    0  0.00000000000E+00 -0.00000000000E+00 -0.15485519253E+03  0.15485519253E+03  0.00000000000E+00 0.  1.
         23    2    1    2    0    0  0.00000000000E+00  0.00000000000E+00 -0.14195789186E+03  0.16775249319E+03  0.89380400023E+02 0.  0.
        -11    1    3    3    0    0  0.12513281657E+02 -0.20018858207E+02 -0.14219688440E+03  0.14414329966E+03  0.00000000000E+00 0.  1.
         11    1    3    3    0    0 -0.12513281657E+02  0.20018858207E+02  0.23899254006E+00  0.23609193531E+02  0.00000000000E+00 0. -1.
<mgrwt>
<rscale>  0 0.89380400E+02</rscale>
<asrwt>0</asrwt>
<pdfrwt beam="2">  1        2 0.23823875E-01 0.89380400E+02</pdfrwt>
<pdfrwt beam="1">  1       -2 0.19842001E-02 0.89380400E+02</pdfrwt>
<totfact> 0.14915838E+05</totfact>
</mgrwt>
</event>
<event>
 5    1  0.6004828E+000  0.9333017E+02  0.7546771E-02  0.1294982E+00
         -1   -1    0    0    0  501 -0.00000000000E+00  0.00000000000E+00  0.22293365228E+02  0.22293365228E+02  0.00000000000E+00 0.  1.
          1   -1    0    0  501    0  0.00000000000E+00 -0.00000000000E+00 -0.97680630457E+02  0.97680630457E+02  0.00000000000E+00 0. -1.
         23    2    1    2    0    0  0.00000000000E+00  0.00000000000E+00 -0.75387265229E+02  0.11997399568E+03  0.93330165979E+02 0.  0.
        -11    1    3    3    0    0  0.35226314923E+02 -0.22329366899E+02 -0.10786365214E+02  0.43079456399E+02  0.00000000000E+00 0.  1.
         11    1    3    3    0    0 -0.35226314923E+02  0.22329366899E+02 -0.64600900015E+02  0.76894539285E+02  0.00000000000E+00 0. -1.
<mgrwt>
<rscale>  0 0.93330166E+02</rscale>
<asrwt>0</asrwt>
<pdfrwt beam="2">  1        1 0.15027789E-01 0.93330166E+02</pdfrwt>
<pdfrwt beam="1">  1       -1 0.34297485E-02 0.93330166E+02</pdfrwt>
<totfact> 0.97612372E+04</totfact>
</mgrwt>
</event>
<event>
 5    1  0.6004828E+000  0.9186620E+02  0.7546771E-02  0.1298394E+00
         -4   -1    0    0    0  501 -0.00000000000E+00  0.00000000000E+00  0.32954676668E+02  0.32954676668E+02  0.00000000000E+00 0.  1.
          4   -1    0    0  501    0  0.00000000000E+00 -0.00000000000E+00 -0.64022767580E+02  0.64022767580E+02  0.00000000000E+00 0. -1.
         23    2    1    2    0    0  0.00000000000E+00  0.00000000000E+00 -0.31068090912E+02  0.96977444248E+02  0.91866198463E+02 0.  0.
        -11    1    3    3    0    0 -0.12292518068E+01  0.42130930784E+02 -0.34806976663E+02  0.54663077239E+02  0.00000000000E+00 0.  1.
         11    1    3    3    0    0  0.12292518068E+01 -0.42130930784E+02  0.37388857511E+01  0.42314367010E+02  0.00000000000E+00 0. -1.
<mgrwt>
<rscale>  0 0.91866198E+02</rscale>
<asrwt>0</asrwt>
<pdfrwt beam="2">  1        4 0.98496566E-02 0.91866198E+02</pdfrwt>
<pdfrwt beam="1">  1       -4 0.50699502E-02 0.91866198E+02</pdfrwt>
<totfact> 0.26106706E+04</totfact>
</mgrwt>
</event>
<event>
 5    1  0.6004828E+000  0.9327876E+02  0.7546771E-02  0.1295100E+00
          2   -1    0    0  501    0  0.00000000000E+00  0.00000000000E+00  0.47501329754E+02  0.47501329754E+02  0.00000000000E+00 0. -1.
         -2   -1    0    0    0  501 -0.00000000000E+00 -0.00000000000E+00 -0.45793074920E+02  0.45793074920E+02  0.00000000000E+00 0.  1.
         23    2    1    2    0    0  0.00000000000E+00  0.00000000000E+00  0.17082548341E+01  0.93294404674E+02  0.93278763977E+02 0.  0.
        -11    1    3    3    0    0 -0.14569462260E+02  0.17746129232E+01  0.45131330997E+02  0.47457934206E+02  0.00000000000E+00 0. -1.
         11    1    3    3    0    0  0.14569462260E+02 -0.17746129232E+01 -0.43423076163E+02  0.45836470468E+02  0.00000000000E+00 0.  1.
<mgrwt>
<rscale>  0 0.93278764E+02</rscale>
<asrwt>0</asrwt>
<pdfrwt beam="1">  1        2 0.73078969E-02 0.93278764E+02</pdfrwt>
<pdfrwt beam="2">  1       -2 0.70450885E-02 0.93278764E+02</pdfrwt>
<totfact> 0.93417193E+04</totfact>
</mgrwt>
</event>
<event>
 5    1  0.6004828E+000  0.9103707E+02  0.7546771E-02  0.1300360E+00
         -3   -1    0    0    0  501 -0.00000000000E+00  0.00000000000E+00  0.81093893941E+02  0.81093893941E+02  0.00000000000E+00 0.  1.
          3   -1    0    0  501    0  0.00000000000E+00 -0.00000000000E+00 -0.25549854771E+02  0.25549854771E+02  0.00000000000E+00 0. -1.
         23    2    1    2    0    0  0.00000000000E+00  0.00000000000E+00  0.55544039170E+02  0.10664374871E+03  0.91037074053E+02 0.  0.
        -11    1    3    3    0    0 -0.32372737485E+02 -0.12138833014E+02  0.62454952606E+02  0.71386038581E+02  0.00000000000E+00 0.  1.
         11    1    3    3    0    0  0.32372737485E+02  0.12138833014E+02 -0.69109134359E+01  0.35257710132E+02  0.00000000000E+00 0. -1.
<mgrwt>
<rscale>  0 0.91037074E+02</rscale>
<asrwt>0</asrwt>
<pdfrwt beam="2">  1        3 0.39307469E-02 0.91037074E+02</pdfrwt>
<pdfrwt beam="1">  1       -3 0.12475984E-01 0.91037074E+02</pdfrwt>
<totfact> 0.34330118E+04</totfact>
</mgrwt>
</event>
<event>
 5    1  0.6004828E+000  0.9544040E+02  0.7546771E-02  0.1290187E+00
          2   -1    0    0  501    0  0.00000000000E+00  0.00000000000E+00  0.10069246638E+03  0.10069246638E+03  0.00000000000E+00 0.  1.
         -2   -1    0    0    0  501 -0.00000000000E+00 -0.00000000000E+00 -0.22615568919E+02  0.22615568919E+02  0.00000000000E+00 0. -1.
         23    2    1    2    0    0  0.00000000000E+00  0.00000000000E+00  0.78076897461E+02  0.12330803530E+03  0.95440398429E+02 0.  0.
        -11    1    3    3    0    0 -0.15709415206E+02 -0.23935270806E+02  0.88363614766E+02  0.92886012559E+02  0.00000000000E+00 0.  1.
         11    1    3    3    0    0  0.15709415206E+02  0.23935270806E+02 -0.10286717305E+02  0.30422022740E+02  0.00000000000E+00 0. -1.
<mgrwt>
<rscale>  0 0.95440398E+02</rscale>
<asrwt>0</asrwt>
<pdfrwt beam="1">  1        2 0.15491148E-01 0.95440398E+02</pdfrwt>
<pdfrwt beam="2">  1       -2 0.34793183E-02 0.95440398E+02</pdfrwt>
<totfact> 0.10834752E+05</totfact>
</mgrwt>
</event>
<event>
 5    1  0.6004828E+000  0.9140528E+02  0.7546771E-02  0.1299484E+00
         -2   -1    0    0    0  501 -0.00000000000E+00  0.00000000000E+00  0.58440461448E+01  0.58440461448E+01  0.00000000000E+00 0. -1.
          2   -1    0    0  501    0  0.00000000000E+00 -0.00000000000E+00 -0.35741183802E+03  0.35741183802E+03  0.00000000000E+00 0.  1.
         23    2    1    2    0    0  0.00000000000E+00  0.00000000000E+00 -0.35156779188E+03  0.36325588417E+03  0.91405279369E+02 0.  0.
        -11    1    3    3    0    0  0.12240749550E+02 -0.40528554581E+02 -0.10737220078E+03  0.11541745616E+03  0.00000000000E+00 0. -1.
         11    1    3    3    0    0 -0.12240749550E+02  0.40528554581E+02 -0.24419559110E+03  0.24783842801E+03  0.00000000000E+00 0.  1.
<mgrwt>
<rscale>  0 0.91405279E+02</rscale>
<asrwt>0</asrwt>
<pdfrwt beam="2">  1        2 0.54986446E-01 0.91405279E+02</pdfrwt>
<pdfrwt beam="1">  1       -2 0.89908386E-03 0.91405279E+02</pdfrwt>
<totfact> 0.19038637E+05</totfact>
</mgrwt>
</event>
<event>
 5    1  0.6004828E+000  0.8169235E+02  0.7546771E-02  0.1324316E+00
         -1   -1    0    0    0  501 -0.00000000000E+00  0.00000000000E+00  0.15036945010E+02  0.15036945010E+02  0.00000000000E+00 0.  1.
          1   -1    0    0  501    0  0.00000000000E+00 -0.00000000000E+00 -0.11095406680E+03  0.11095406680E+03  0.00000000000E+00 0. -1.
         23    2    1    2    0    0  0.00000000000E+00  0.00000000000E+00 -0.95917121793E+02  0.12599101181E+03  0.81692354628E+02 0.  0.
        -11    1    3    3    0    0  0.51847561862E+01 -0.40361475813E+02 -0.53406867274E+02  0.67143308665E+02  0.00000000000E+00 0. -1.
         11    1    3    3    0    0 -0.51847561862E+01  0.40361475813E+02 -0.42510254519E+02  0.58847703148E+02  0.00000000000E+00 0.  1.
<mgrwt>
<rscale>  0 0.81692355E+02</rscale>
<asrwt>0</asrwt>
<pdfrwt beam="2">  1        1 0.17069857E-01 0.81692355E+02</pdfrwt>
<pdfrwt beam="1">  1       -1 0.23133761E-02 0.81692355E+02</pdfrwt>
<totfact> 0.14295425E+05</totfact>
</mgrwt>
</event>
<event>
 5    1  0.6004828E+000  0.9060087E+02  0.7546771E-02  0.1301403E+00
          2   -1    0    0  501    0  0.00000000000E+00  0.00000000000E+00  0.20659980882E+03  0.20659980882E+03  0.00000000000E+00 0.  1.
         -2   -1    0    0    0  501 -0.00000000000E+00 -0.00000000000E+00 -0.99328713197E+01  0.99328713197E+01  0.00000000000E+00 0. -1.
         23    2    1    2    0    0  0.00000000000E+00  0.00000000000E+00  0.19666693750E+03  0.21653268013E+03  0.90600867891E+02 0.  0.
        -11    1    3    3    0    0  0.22799622381E+02 -0.21963981751E+02  0.17577305099E+03  0.17860124504E+03  0.00000000000E+00 0.  1.
         11    1    3    3    0    0 -0.22799622381E+02  0.21963981751E+02  0.20893886503E+02  0.37931435094E+02  0.00000000000E+00 0. -1.
<mgrwt>
<rscale>  0 0.90600868E+02</rscale>
<asrwt>0</asrwt>
<pdfrwt beam="1">  1        2 0.31784583E-01 0.90600868E+02</pdfrwt>
<pdfrwt beam="2">  1       -2 0.15281342E-02 0.90600868E+02</pdfrwt>
<totfact> 0.15919968E+05</totfact>
</mgrwt>
</event>
<event>
 5    1  0.6004828E+000  0.9214193E+02  0.7546771E-02  0.1297746E+00
         -3   -1    0    0    0  501 -0.00000000000E+00  0.00000000000E+00  0.63552746339E+02  0.63552746339E+02  0.00000000000E+00 0.  1.
          3   -1    0    0  501    0  0.00000000000E+00 -0.00000000000E+00 -0.33397986224E+02  0.33397986224E+02  0.00000000000E+00 0. -1.
         23    2    1    2    0    0  0.00000000000E+00  0.00000000000E+00  0.30154760115E+02  0.96950732563E+02  0.92141928496E+02 0.  0.
        -11    1    3    3    0    0  0.39155606121E+02 -0.13387443212E+01  0.40582496289E+02  0.56408268296E+02  0.00000000000E+00 0.  1.
         11    1    3    3    0    0 -0.39155606121E+02  0.13387443212E+01 -0.10427736175E+02  0.40542464267E+02  0.00000000000E+00 0. -1.
<mgrwt>
<rscale>  0 0.92141928E+02</rscale>
<asrwt>0</asrwt>
<pdfrwt beam="2">  1        3 0.51381517E-02 0.92141928E+02</pdfrwt>
<pdfrwt beam="1">  1       -3 0.97773456E-02 0.92141928E+02</pdfrwt>
<totfact> 0.33911365E+04</totfact>
</mgrwt>
</event>
<event>
 5    1  0.6004828E+000  0.8629841E+02  0.7546771E-02  0.1312072E+00
         -1   -1    0    0    0  501 -0.00000000000E+00  0.00000000000E+00  0.24258673322E+02  0.24258673322E+02  0.00000000000E+00 0.  1.
          1   -1    0    0  501    0  0.00000000000E+00 -0.00000000000E+00 -0.76750036353E+02  0.76750036353E+02  0.00000000000E+00 0. -1.
         23    2    1    2    0    0  0.00000000000E+00  0.00000000000E+00 -0.52491363032E+02  0.10100870967E+03  0.86298413875E+02 0.  0.
        -11    1    3    3    0    0 -0.10841774422E+02 -0.29819034983E+02  0.79816771721E+01  0.32717366802E+02  0.00000000000E+00 0.  1.
         11    1    3    3    0    0  0.10841774422E+02  0.29819034983E+02 -0.60473040204E+02  0.68291342873E+02  0.00000000000E+00 0. -1.
<mgrwt>
<rscale>  0 0.86298414E+02</rscale>
<asrwt>0</asrwt>
<pdfrwt beam="2">  1        1 0.11807698E-01 0.86298414E+02</pdfrwt>
<pdfrwt beam="1">  1       -1 0.37321036E-02 0.86298414E+02</pdfrwt>
<totfact> 0.11633960E+05</totfact>
</mgrwt>
</event>
<event>
 5    1  0.6004828E+000  0.8950820E+02  0.7546771E-02  0.1304047E+00
          1   -1    0    0  501    0  0.00000000000E+00  0.00000000000E+00  0.10043087236E+03  0.10043087236E+03  0.00000000000E+00 0. -1.
         -1   -1    0    0    0  501 -0.00000000000E+00 -0.00000000000E+00 -0.19943364557E+02  0.19943364557E+02  0.00000000000E+00 0.  1.
         23    2    1    2    0    0  0.00000000000E+00  0.00000000000E+00  0.80487507804E+02  0.12037423692E+03  0.89508200747E+02 0.  0.
        -11    1    3    3    0    0 -0.12432149057E+02  0.24211794671E+02  0.88021752694E+02  0.92133589308E+02  0.00000000000E+00 0. -1.
         11    1    3    3    0    0  0.12432149057E+02 -0.24211794671E+02 -0.75342448907E+01  0.28240647610E+02  0.00000000000E+00 0.  1.
<mgrwt>
<rscale>  0 0.89508201E+02</rscale>
<asrwt>0</asrwt>
<pdfrwt beam="1">  1        1 0.15450903E-01 0.89508201E+02</pdfrwt>
<pdfrwt beam="2">  1       -1 0.30682100E-02 0.89508201E+02</pdfrwt>
<totfact> 0.10991278E+05</totfact>
</mgrwt>
</event>
<event>
 5    1  0.6004828E+000  0.8984390E+02  0.7546771E-02  0.1303230E+00
         -1   -1    0    0    0  501 -0.00000000000E+00  0.00000000000E+00  0.52631301268E+01  0.52631301268E+01  0.00000000000E+00 0.  1.
          1   -1    0    0  501    0  0.00000000000E+00 -0.00000000000E+00 -0.38341851026E+03  0.38341851026E+03  0.00000000000E+00 0. -1.
         23    2    1    2    0    0  0.00000000000E+00  0.00000000000E+00 -0.37815538014E+03  0.38868164039E+03  0.89843898236E+02 0.  0.
        -11    1    3    3    0    0  0.29008965176E+02  0.31582878123E+02 -0.13119993887E+03  0.13803051188E+03  0.00000000000E+00 0.  1.
         11    1    3    3    0    0 -0.29008965176E+02 -0.31582878123E+02 -0.24695544127E+03  0.25065112851E+03  0.00000000000E+00 0. -1.
<mgrwt>
<rscale>  0 0.89843898E+02</rscale>
<asrwt>0</asrwt>
<pdfrwt beam="2">  1        1 0.58987453E-01 0.89843898E+02</pdfrwt>
<pdfrwt beam="1">  1       -1 0.80971246E-03 0.89843898E+02</pdfrwt>
<totfact> 0.13928000E+05</totfact>
</mgrwt>
</event>
<event>
 5    1  0.6004828E+000  0.8486963E+02  0.7546771E-02  0.1315774E+00
         -2   -1    0    0    0  501 -0.00000000000E+00  0.00000000000E+00  0.28326739606E+02  0.28326739606E+02  0.00000000000E+00 0.  1.
          2   -1    0    0  501    0  0.00000000000E+00 -0.00000000000E+00 -0.63569391402E+02  0.63569391402E+02  0.00000000000E+00 0. -1.
         23    2    1    2    0    0  0.00000000000E+00  0.00000000000E+00 -0.35242651796E+02  0.91896131007E+02  0.84869631721E+02 0.  0.
        -11    1    3    3    0    0 -0.28716795248E+02  0.17873712399E+02 -0.45366786148E+02  0.56588596109E+02  0.00000000000E+00 0. -1.
         11    1    3    3    0    0  0.28716795248E+02 -0.17873712399E+02  0.10124134352E+02  0.35307534898E+02  0.00000000000E+00 0.  1.
<mgrwt>
<rscale>  0 0.84869632E+02</rscale>
<asrwt>0</asrwt>
<pdfrwt beam="2">  1        2 0.97799064E-02 0.84869632E+02</pdfrwt>
<pdfrwt beam="1">  1       -2 0.43579599E-02 0.84869632E+02</pdfrwt>
<totfact> 0.13161010E+05</totfact>
</mgrwt>
</event>
<event>
 5    1  0.6004828E+000  0.9152827E+02  0.7546771E-02  0.1299192E+00
         -2   -1    0    0    0  501 -0.00000000000E+00  0.00000000000E+00  0.68755934456E+01  0.68755934456E+01  0.00000000000E+00 0.  1.
          2   -1    0    0  501    0  0.00000000000E+00 -0.00000000000E+00 -0.30460733950E+03  0.30460733950E+03  0.00000000000E+00 0. -1.
         23    2    1    2    0    0  0.00000000000E+00  0.00000000000E+00 -0.29773174605E+03  0.31148293294E+03  0.91528273816E+02 0.  0.
        -11    1    3    3    0    0 -0.38989468686E+02 -0.43191754677E+01 -0.68655649788E+02  0.79072322547E+02  0.00000000000E+00 0. -1.
         11    1    3    3    0    0  0.38989468686E+02  0.43191754677E+01 -0.22907609626E+03  0.23241061039E+03  0.00000000000E+00 0.  1.
<mgrwt>
<rscale>  0 0.91528274E+02</rscale>
<asrwt>0</asrwt>
<pdfrwt beam="2">  1        2 0.46862662E-01 0.91528274E+02</pdfrwt>
<pdfrwt beam="1">  1       -2 0.10577837E-02 0.91528274E+02</pdfrwt>
<totfact> 0.17883603E+05</totfact>
</mgrwt>
</event>
<event>
 5    1  0.6004828E+000  0.9173805E+02  0.7546771E-02  0.1298697E+00
         -3   -1    0    0    0  501 -0.00000000000E+00  0.00000000000E+00  0.16576183840E+02  0.16576183840E+02  0.00000000000E+00 0.  1.
          3   -1    0    0  501    0  0.00000000000E+00 -0.00000000000E+00 -0.12692714217E+03  0.12692714217E+03  0.00000000000E+00 0. -1.
         23    2    1    2    0    0  0.00000000000E+00  0.00000000000E+00 -0.11035095833E+03  0.14350332601E+03  0.91738054109E+02 0.  0.
        -11    1    3    3    0    0 -0.41188504188E+02  0.14739784568E+02 -0.33601357160E+02  0.55161629139E+02  0.00000000000E+00 0.  1.
         11    1    3    3    0    0  0.41188504188E+02 -0.14739784568E+02 -0.76749601169E+02  0.88341696870E+02  0.00000000000E+00 0. -1.
<mgrwt>
<rscale>  0 0.91738054E+02</rscale>
<asrwt>0</asrwt>
<pdfrwt beam="2">  1        3 0.19527252E-01 0.91738054E+02</pdfrwt>
<pdfrwt beam="1">  1       -3 0.25501822E-02 0.91738054E+02</pdfrwt>
<totfact> 0.31185362E+04</totfact>
</mgrwt>
</event>
<event>
 5    1  0.6004828E+000  0.8463312E+02  0.7546771E-02  0.1316395E+00
          1   -1    0    0  501    0  0.00000000000E+00  0.00000000000E+00  0.37506487080E+02  0.37506487080E+02  0.00000000000E+00 0. -1.
         -1   -1    0    0    0  501 -0.00000000000E+00 -0.00000000000E+00 -0.47743507377E+02  0.47743507377E+02  0.00000000000E+00 0.  1.
         23    2    1    2    0    0  0.00000000000E+00  0.00000000000E+00 -0.10237020297E+02  0.85249994457E+02  0.84633119819E+02 0.  0.
        -11    1    3    3    0    0 -0.25579577728E+02  0.23449296804E+02 -0.29512934885E+02  0.45554337256E+02  0.00000000000E+00 0.  1.
         11    1    3    3    0    0  0.25579577728E+02 -0.23449296804E+02  0.19275914589E+02  0.39695657200E+02  0.00000000000E+00 0. -1.
<mgrwt>
<rscale>  0 0.84633120E+02</rscale>
<asrwt>0</asrwt>
<pdfrwt beam="1">  1        1 0.57702288E-02 0.84633120E+02</pdfrwt>
<pdfrwt beam="2">  1       -1 0.73451550E-02 0.84633120E+02</pdfrwt>
<totfact> 0.11070673E+05</totfact>
</mgrwt>
</event>
<event>
 5    1  0.6004828E+000  0.8876663E+02  0.7546771E-02  0.1305866E+00
         -1   -1    0    0    0  501 -0.00000000000E+00  0.00000000000E+00  0.77071676150E+01  0.77071676150E+01  0.00000000000E+00 0.  1.
          1   -1    0    0  501    0  0.00000000000E+00 -0.00000000000E+00 -0.25559050235E+03  0.25559050235E+03  0.00000000000E+00 0. -1.
         23    2    1    2    0    0  0.00000000000E+00  0.00000000000E+00 -0.24788333474E+03  0.26329766997E+03  0.88766634327E+02 0.  0.
        -11    1    3    3    0    0 -0.20871073530E+02 -0.36004364167E+02 -0.78185263722E+02  0.88571165808E+02  0.00000000000E+00 0. -1.
         11    1    3    3    0    0  0.20871073530E+02  0.36004364167E+02 -0.16969807101E+03  0.17472650416E+03  0.00000000000E+00 0.  1.
<mgrwt>
<rscale>  0 0.88766634E+02</rscale>
<asrwt>0</asrwt>
<pdfrwt beam="2">  1        1 0.39321616E-01 0.88766634E+02</pdfrwt>
<pdfrwt beam="1">  1       -1 0.11857181E-02 0.88766634E+02</pdfrwt>
<totfact> 0.13339602E+05</totfact>
</mgrwt>
</event>
<event>
 5    1  0.6004828E+000  0.9149452E+02  0.7546771E-02  0.1299272E+00
          1   -1    0    0  501    0  0.00000000000E+00  0.00000000000E+00  0.19603682918E+03  0.19603682918E+03  0.00000000000E+00 0. -1.
         -1   -1    0    0    0  501 -0.00000000000E+00 -0.00000000000E+00 -0.10675604755E+02  0.10675604755E+02  0.00000000000E+00 0.  1.
         23    2    1    2    0    0  0.00000000000E+00  0.00000000000E+00  0.18536122443E+03  0.20671243394E+03  0.91494517994E+02 0.  0.
        -11    1    3    3    0    0  0.12824756619E+02 -0.43908135724E+02  0.91228783526E+02  0.10205434684E+03  0.00000000000E+00 0.  1.
         11    1    3    3    0    0 -0.12824756619E+02  0.43908135724E+02  0.94132440903E+02  0.10465808710E+03  0.00000000000E+00 0. -1.
<mgrwt>
<rscale>  0 0.91494518E+02</rscale>
<asrwt>0</asrwt>
<pdfrwt beam="1">  1        1 0.30159510E-01 0.91494518E+02</pdfrwt>
<pdfrwt beam="2">  1       -1 0.16424009E-02 0.91494518E+02</pdfrwt>
<totfact> 0.11685121E+05</totfact>
</mgrwt>
</event>
<event>
 5    1  0.6004828E+000  0.9128185E+02  0.7546771E-02  0.1299777E+00
         -1   -1    0    0    0  501 -0.00000000000E+00  0.00000000000E+00  0.10614080033E+02  0.10614080033E+02  0.00000000000E+00 0.  1.
          1   -1    0    0  501    0  0.00000000000E+00 -0.00000000000E+00 -0.19625761461E+03  0.19625761461E+03  0.00000000000E+00 0. -1.
         23    2    1    2    0    0  0.00000000000E+00  0.00000000000E+00 -0.18564353458E+03  0.20687169465E+03  0.91281849865E+02 0.  0.
        -11    1    3    3    0    0 -0.45181979642E+02 -0.42710308757E+01 -0.81849280320E+02  0.93589303224E+02  0.00000000000E+00 0. -1.
         11    1    3    3    0    0  0.45181979642E+02  0.42710308757E+01 -0.10379425426E+03  0.11328239142E+03  0.00000000000E+00 0.  1.
<mgrwt>
<rscale>  0 0.91281850E+02</rscale>
<asrwt>0</asrwt>
<pdfrwt beam="2">  1        1 0.30193479E-01 0.91281850E+02</pdfrwt>
<pdfrwt beam="1">  1       -1 0.16329354E-02 0.91281850E+02</pdfrwt>
<totfact> 0.11760942E+05</totfact>
</mgrwt>
</event>
<event>
 5    1  0.6004828E+000  0.8713626E+02  0.7546771E-02  0.1309939E+00
         -4   -1    0    0    0  501 -0.00000000000E+00  0.00000000000E+00  0.14560182344E+03  0.14560182344E+03  0.00000000000E+00 0.  1.
          4   -1    0    0  501    0  0.00000000000E+00 -0.00000000000E+00 -0.13036802036E+02  0.13036802036E+02  0.00000000000E+00 0. -1.
         23    2    1    2    0    0  0.00000000000E+00  0.00000000000E+00  0.13256502140E+03  0.15863862547E+03  0.87136264510E+02 0.  0.
        -11    1    3    3    0    0 -0.25487602723E+02 -0.30674184526E+02  0.98215867378E+02  0.10600415130E+03  0.00000000000E+00 0.  1.
         11    1    3    3    0    0  0.25487602723E+02  0.30674184526E+02  0.34349154023E+02  0.52634474169E+02  0.00000000000E+00 0. -1.
<mgrwt>
<rscale>  0 0.87136265E+02</rscale>
<asrwt>0</asrwt>
<pdfrwt beam="2">  1        4 0.20056620E-02 0.87136265E+02</pdfrwt>
<pdfrwt beam="1">  1       -4 0.22400279E-01 0.87136265E+02</pdfrwt>
<totfact> 0.26244081E+04</totfact>
</mgrwt>
</event>
<event>
 5    1  0.6004828E+000  0.9091234E+02  0.7546771E-02  0.1300657E+00
         -1   -1    0    0    0  501 -0.00000000000E+00  0.00000000000E+00  0.44606622955E+02  0.44606622955E+02  0.00000000000E+00 0.  1.
          1   -1    0    0  501    0  0.00000000000E+00 -0.00000000000E+00 -0.46321894872E+02  0.46321894872E+02  0.00000000000E+00 0. -1.
         23    2    1    2    0    0  0.00000000000E+00  0.00000000000E+00 -0.17152719177E+01  0.90928517827E+02  0.90912337977E+02 0.  0.
        -11    1    3    3    0    0  0.10122358771E+02 -0.90210432005E+01 -0.44252244241E+02  0.46282853066E+02  0.00000000000E+00 0. -1.
         11    1    3    3    0    0 -0.10122358771E+02  0.90210432005E+01  0.42536972323E+02  0.44645664761E+02  0.00000000000E+00 0.  1.
<mgrwt>
<rscale>  0 0.90912338E+02</rscale>
<asrwt>0</asrwt>
<pdfrwt beam="2">  1        1 0.71264454E-02 0.90912338E+02</pdfrwt>
<pdfrwt beam="1">  1       -1 0.68625574E-02 0.90912338E+02</pdfrwt>
<totfact> 0.93452721E+04</totfact>
</mgrwt>
</event>
<event>
 5    1  0.6004828E+000  0.9325288E+02  0.7546771E-02  0.1295160E+00
         -2   -1    0    0    0  501 -0.00000000000E+00  0.00000000000E+00  0.72968645087E+02  0.72968645087E+02  0.00000000000E+00 0.  1.
          2   -1    0    0  501    0  0.00000000000E+00 -0.00000000000E+00 -0.29793958183E+02  0.29793958183E+02  0.00000000000E+00 0. -1.
         23    2    1    2    0    0  0.00000000000E+00  0.00000000000E+00  0.43174686904E+02  0.10276260327E+03  0.93252876854E+02 0.  0.
        -11    1    3    3    0    0  0.42220026390E+02 -0.13263908930E+02  0.37766646858E+02  0.58178875233E+02  0.00000000000E+00 0.  1.
         11    1    3    3    0    0 -0.42220026390E+02  0.13263908930E+02  0.54080400464E+01  0.44583728037E+02  0.00000000000E+00 0. -1.
<mgrwt>
<rscale>  0 0.93252877E+02</rscale>
<asrwt>0</asrwt>
<pdfrwt beam="2">  1        2 0.45836859E-02 0.93252877E+02</pdfrwt>
<pdfrwt beam="1">  1       -2 0.11225945E-01 0.93252877E+02</pdfrwt>
<totfact> 0.82571943E+04</totfact>
</mgrwt>
</event>
<event>
 5    1  0.6004828E+000  0.9227860E+02  0.7546771E-02  0.1297426E+00
         -4   -1    0    0    0  501 -0.00000000000E+00  0.00000000000E+00  0.30803693017E+03  0.30803693017E+03  0.00000000000E+00 0.  1.
          4   -1    0    0  501    0  0.00000000000E+00 -0.00000000000E+00 -0.69109728401E+01  0.69109728401E+01  0.00000000000E+00 0. -1.
         23    2    1    2    0    0  0.00000000000E+00  0.00000000000E+00  0.30112595733E+03  0.31494790301E+03  0.92278596828E+02 0.  0.
        -11    1    3    3    0    0 -0.26032954727E+02  0.36915074065E+02  0.11847387650E+03  0.12679312615E+03  0.00000000000E+00 0. -1.
         11    1    3    3    0    0  0.26032954727E+02 -0.36915074065E+02  0.18265208083E+03  0.18815477686E+03  0.00000000000E+00 0.  1.
<mgrwt>
<rscale>  0 0.92278597E+02</rscale>
<asrwt>0</asrwt>
<pdfrwt beam="2">  1        4 0.10632268E-02 0.92278597E+02</pdfrwt>
<pdfrwt beam="1">  1       -4 0.47390286E-01 0.92278597E+02</pdfrwt>
<totfact> 0.16826865E+04</totfact>
</mgrwt>
</event>
<event>
 5    1  0.6004828E+000  0.9178200E+02  0.7546771E-02  0.1298593E+00
         -2   -1    0    0    0  501 -0.00000000000E+00  0.00000000000E+00  0.10712927141E+02  0.10712927141E+02  0.00000000000E+00 0.  1.
          2   -1    0    0  501    0  0.00000000000E+00 -0.00000000000E+00 -0.19658341991E+03  0.19658341991E+03  0.00000000000E+00 0. -1.
         23    2    1    2    0    0  0.00000000000E+00  0.00000000000E+00 -0.18587049276E+03  0.20729634705E+03  0.91781999426E+02 0.  0.
        -11    1    3    3    0    0  0.20313137004E+02  0.28548824993E+02 -0.25998941371E+02  0.43630309372E+02  0.00000000000E+00 0.  1.
         11    1    3    3    0    0 -0.20313137004E+02 -0.28548824993E+02 -0.15987155139E+03  0.16366603767E+03  0.00000000000E+00 0. -1.
<mgrwt>
<rscale>  0 0.91781999E+02</rscale>
<asrwt>0</asrwt>
<pdfrwt beam="2">  1        2 0.30243602E-01 0.91781999E+02</pdfrwt>
<pdfrwt beam="1">  1       -2 0.16481427E-02 0.91781999E+02</pdfrwt>
<totfact> 0.15100213E+05</totfact>
</mgrwt>
</event>
<event>
 5    1  0.6004828E+000  0.9108718E+02  0.7546771E-02  0.1300240E+00
         -2   -1    0    0    0  501 -0.00000000000E+00  0.00000000000E+00  0.89302613177E+02  0.89302613177E+02  0.00000000000E+00 0.  1.
          2   -1    0    0  501    0  0.00000000000E+00 -0.00000000000E+00 -0.23226850723E+02  0.23226850723E+02  0.00000000000E+00 0. -1.
         23    2    1    2    0    0  0.00000000000E+00  0.00000000000E+00  0.66075762454E+02  0.11252946390E+03  0.91087177263E+02 0.  0.
        -11    1    3    3    0    0 -0.14579673095E+02  0.21501863837E+02  0.79251263162E+02  0.83400597892E+02  0.00000000000E+00 0.  1.
         11    1    3    3    0    0  0.14579673095E+02 -0.21501863837E+02 -0.13175500708E+02  0.29128866008E+02  0.00000000000E+00 0. -1.
<mgrwt>
<rscale>  0 0.91087177E+02</rscale>
<asrwt>0</asrwt>
<pdfrwt beam="2">  1        2 0.35733617E-02 0.91087177E+02</pdfrwt>
<pdfrwt beam="1">  1       -2 0.13738863E-01 0.91087177E+02</pdfrwt>
<totfact> 0.82689371E+04</totfact>
</mgrwt>
</event>
<event>
 5    1  0.6004828E+000  0.9504498E+02  0.7546771E-02  0.1291075E+00
          2   -1    0    0  501    0  0.00000000000E+00  0.00000000000E+00  0.74439892283E+02  0.74439892283E+02  0.00000000000E+00 0. -1.
         -2   -1    0    0    0  501 -0.00000000000E+00 -0.00000000000E+00 -0.30338398549E+02  0.30338398549E+02  0.00000000000E+00 0.  1.
         23    2    1    2    0    0  0.00000000000E+00  0.00000000000E+00  0.44101493734E+02  0.10477829083E+03  0.95044981352E+02 0.  0.
        -11    1    3    3    0    0  0.35232773090E+02 -0.31311373437E+02  0.28723428076E+02  0.55197696751E+02  0.00000000000E+00 0. -1.
         11    1    3    3    0    0 -0.35232773090E+02  0.31311373437E+02  0.15378065658E+02  0.49580594082E+02  0.00000000000E+00 0.  1.
<mgrwt>
<rscale>  0 0.95044981E+02</rscale>
<asrwt>0</asrwt>
<pdfrwt beam="1">  1        2 0.11452291E-01 0.95044981E+02</pdfrwt>
<pdfrwt beam="2">  1       -2 0.46674459E-02 0.95044981E+02</pdfrwt>
<totfact> 0.10017003E+05</totfact>
</mgrwt>
</event>
<event>
 5    1  0.6004828E+000  0.9400621E+02  0.7546771E-02  0.1293430E+00
         -1   -1    0    0    0  501 -0.00000000000E+00  0.00000000000E+00  0.20904187479E+02  0.20904187479E+02  0.00000000000E+00 0.  1.
          1   -1    0    0  501    0  0.00000000000E+00 -0.00000000000E+00 -0.10568656001E+03  0.10568656001E+03  0.00000000000E+00 0. -1.
         23    2    1    2    0    0  0.00000000000E+00  0.00000000000E+00 -0.84782372530E+02  0.12659074749E+03  0.94006205423E+02 0.  0.
        -11    1    3    3    0    0  0.33526252082E+02 -0.71101335386E+01  0.92583262767E+00  0.34284409630E+02  0.00000000000E+00 0.  1.
         11    1    3    3    0    0 -0.33526252082E+02  0.71101335386E+01 -0.85708205157E+02  0.92306337859E+02  0.00000000000E+00 0. -1.
<mgrwt>
<rscale>  0 0.94006205E+02</rscale>
<asrwt>0</asrwt>
<pdfrwt beam="2">  1        1 0.16259471E-01 0.94006205E+02</pdfrwt>
<pdfrwt beam="1">  1       -1 0.32160288E-02 0.94006205E+02</pdfrwt>
<totfact> 0.96986345E+04</totfact>
</mgrwt>
</event>
<event>
 5    1  0.6004828E+000  0.9141932E+02  0.7546771E-02  0.1299451E+00
         -2   -1    0    0    0  501 -0.00000000000E+00  0.00000000000E+00  0.72298606822E+01  0.72298606822E+01  0.00000000000E+00 0.  1.
          2   -1    0    0  501    0  0.00000000000E+00 -0.00000000000E+00 -0.28899217258E+03  0.28899217258E+03  0.00000000000E+00 0. -1.
         23    2    1    2    0    0  0.00000000000E+00  0.00000000000E+00 -0.28176231190E+03  0.29622203326E+03  0.91419322816E+02 0.  0.
        -11    1    3    3    0    0 -0.34081560908E+02 -0.26877066015E+02 -0.94437569884E+02  0.10393451822E+03  0.00000000000E+00 0.  1.
         11    1    3    3    0    0  0.34081560908E+02  0.26877066015E+02 -0.18732474202E+03  0.19228751505E+03  0.00000000000E+00 0. -1.
<mgrwt>
<rscale>  0 0.91419323E+02</rscale>
<asrwt>0</asrwt>
<pdfrwt beam="2">  1        2 0.44460339E-01 0.91419323E+02</pdfrwt>
<pdfrwt beam="1">  1       -2 0.11122861E-02 0.91419323E+02</pdfrwt>
<totfact> 0.17592133E+05</totfact>
</mgrwt>
</event>
<event>
 5    1  0.6004828E+000  0.8948554E+02  0.7546771E-02  0.1304102E+00
          3   -1    0    0  501    0  0.00000000000E+00  0.00000000000E+00  0.78641890711E+02  0.78641890711E+02  0.00000000000E+00 0. -1.
         -3   -1    0    0    0  501 -0.00000000000E+00 -0.00000000000E+00 -0.25456096241E+02  0.25456096241E+02  0.00000000000E+00 0.  1.
         23    2    1    2    0    0  0.00000000000E+00  0.00000000000E+00  0.53185794470E+02  0.10409798695E+03  0.89485541593E+02 0.  0.
        -11    1    3    3    0    0 -0.94641419700E+01 -0.12372883298E+02  0.75385517689E+02  0.76978143012E+02  0.00000000000E+00 0. -1.
         11    1    3    3    0    0  0.94641419700E+01  0.12372883298E+02 -0.22199723219E+02  0.27119843940E+02  0.00000000000E+00 0.  1.
<mgrwt>
<rscale>  0 0.89485542E+02</rscale>
<asrwt>0</asrwt>
<pdfrwt beam="1">  1        3 0.12098752E-01 0.89485542E+02</pdfrwt>
<pdfrwt beam="2">  1       -3 0.39163225E-02 0.89485542E+02</pdfrwt>
<totfact> 0.36161106E+04</totfact>
</mgrwt>
</event>
<event>
 5    1  0.6004828E+000  0.9127612E+02  0.7546771E-02  0.1299790E+00
          2   -1    0    0  501    0  0.00000000000E+00  0.00000000000E+00  0.10788089725E+03  0.10788089725E+03  0.00000000000E+00 0.  1.
         -2   -1    0    0    0  501 -0.00000000000E+00 -0.00000000000E+00 -0.19306776602E+02  0.19306776602E+02  0.00000000000E+00 0. -1.
         23    2    1    2    0    0  0.00000000000E+00  0.00000000000E+00  0.88574120644E+02  0.12718767385E+03  0.91276116982E+02 0.  0.
        -11    1    3    3    0    0  0.41708127264E+02 -0.16998721599E+02  0.54555859029E+02  0.70745078771E+02  0.00000000000E+00 0.  1.
         11    1    3    3    0    0 -0.41708127264E+02  0.16998721599E+02  0.34018261615E+02  0.56442595079E+02  0.00000000000E+00 0. -1.
<mgrwt>
<rscale>  0 0.91276117E+02</rscale>
<asrwt>0</asrwt>
<pdfrwt beam="1">  1        2 0.16597061E-01 0.91276117E+02</pdfrwt>
<pdfrwt beam="2">  1       -2 0.29702734E-02 0.91276117E+02</pdfrwt>
<totfact> 0.12519898E+05</totfact>
</mgrwt>
</event>
<event>
 5    1  0.6004828E+000  0.7635219E+02  0.7546771E-02  0.1339734E+00
          2   -1    0    0  501    0  0.00000000000E+00  0.00000000000E+00  0.87669563489E+02  0.87669563489E+02  0.00000000000E+00 0. -1.
         -2   -1    0    0    0  501 -0.00000000000E+00 -0.00000000000E+00 -0.16623945431E+02  0.16623945431E+02  0.00000000000E+00 0.  1.
         23    2    1    2    0    0  0.00000000000E+00  0.00000000000E+00  0.71045618059E+02  0.10429350892E+03  0.76352185021E+02 0.  0.
        -11    1    3    3    0    0 -0.21670010388E+02  0.20148310811E+02  0.25733043906E+01  0.29701273950E+02  0.00000000000E+00 0.  1.
         11    1    3    3    0    0  0.21670010388E+02 -0.20148310811E+02  0.68472313668E+02  0.74592234970E+02  0.00000000000E+00 0. -1.
<mgrwt>
<rscale>  0 0.76352185E+02</rscale>
<asrwt>0</asrwt>
<pdfrwt beam="1">  1        2 0.13487625E-01 0.76352185E+02</pdfrwt>
<pdfrwt beam="2">  1       -2 0.25575301E-02 0.76352185E+02</pdfrwt>
<totfact> 0.19145649E+05</totfact>
</mgrwt>
</event>
<event>
 5    1  0.6004828E+000  0.9097131E+02  0.7546771E-02  0.1300516E+00
         -2   -1    0    0    0  501 -0.00000000000E+00  0.00000000000E+00  0.93099742884E+02  0.93099742884E+02  0.00000000000E+00 0.  1.
          2   -1    0    0  501    0  0.00000000000E+00 -0.00000000000E+00 -0.22222886097E+02  0.22222886097E+02  0.00000000000E+00 0. -1.
         23    2    1    2    0    0  0.00000000000E+00  0.00000000000E+00  0.70876856787E+02  0.11532262898E+03  0.90971313758E+02 0.  0.
        -11    1    3    3    0    0 -0.79295019064E+01  0.44769899430E+02  0.33773906272E+02  0.56638305415E+02  0.00000000000E+00 0. -1.
         11    1    3    3    0    0  0.79295019064E+01 -0.44769899430E+02  0.37102950515E+02  0.58684323565E+02  0.00000000000E+00 0.  1.
<mgrwt>
<rscale>  0 0.90971314E+02</rscale>
<asrwt>0</asrwt>
<pdfrwt beam="2">  1        2 0.34189056E-02 0.90971314E+02</pdfrwt>
<pdfrwt beam="1">  1       -2 0.14323037E-01 0.90971314E+02</pdfrwt>
<totfact> 0.81961063E+04</totfact>
</mgrwt>
</event>
<event>
 5    1  0.6004828E+000  0.8911465E+02  0.7546771E-02  0.1305010E+00
         -3   -1    0    0    0  501 -0.00000000000E+00  0.00000000000E+00  0.52835078991E+02  0.52835078991E+02  0.00000000000E+00 0.  1.
          3   -1    0    0  501    0  0.00000000000E+00 -0.00000000000E+00 -0.37576457929E+02  0.37576457929E+02  0.00000000000E+00 0. -1.
         23    2    1    2    0    0  0.00000000000E+00  0.00000000000E+00  0.15258621061E+02  0.90411536920E+02  0.89114648019E+02 0.  0.
        -11    1    3    3    0    0  0.18423141093E+02  0.13076786265E+02  0.46593175475E+02  0.51781642187E+02  0.00000000000E+00 0.  1.
         11    1    3    3    0    0 -0.18423141093E+02 -0.13076786265E+02 -0.31334554414E+02  0.38629894733E+02  0.00000000000E+00 0. -1.
<mgrwt>
<rscale>  0 0.89114648E+02</rscale>
<asrwt>0</asrwt>
<pdfrwt beam="2">  1        3 0.57809935E-02 0.89114648E+02</pdfrwt>
<pdfrwt beam="1">  1       -3 0.81284737E-02 0.89114648E+02</pdfrwt>
<totfact> 0.37668471E+04</totfact>
</mgrwt>
</event>
<event>
 5    1  0.6004828E+000  0.7707999E+02  0.7546771E-02  0.1337548E+00
          1   -1    0    0  501    0  0.00000000000E+00  0.00000000000E+00  0.69355318658E+02  0.69355318658E+02  0.00000000000E+00 0. -1.
         -1   -1    0    0    0  501 -0.00000000000E+00 -0.00000000000E+00 -0.21416255440E+02  0.21416255440E+02  0.00000000000E+00 0.  1.
         23    2    1    2    0    0  0.00000000000E+00  0.00000000000E+00  0.47939063218E+02  0.90771574098E+02  0.77079990153E+02 0.  0.
        -11    1    3    3    0    0  0.37006164347E+02 -0.41645737806E+01  0.35659017851E+02  0.51559338907E+02  0.00000000000E+00 0. -1.
         11    1    3    3    0    0 -0.37006164347E+02  0.41645737806E+01  0.12280045367E+02  0.39212235191E+02  0.00000000000E+00 0.  1.
<mgrwt>
<rscale>  0 0.77079990E+02</rscale>
<asrwt>0</asrwt>
<pdfrwt beam="1">  1        1 0.10670049E-01 0.77079990E+02</pdfrwt>
<pdfrwt beam="2">  1       -1 0.32948086E-02 0.77079990E+02</pdfrwt>
<totfact> 0.15570707E+05</totfact>
</mgrwt>
</event>
<event>
 5    1  0.6004828E+000  0.9331871E+02  0.7546771E-02  0.1295008E+00
          2   -1    0    0  501    0  0.00000000000E+00  0.00000000000E+00  0.55808401376E+02  0.55808401376E+02  0.00000000000E+00 0. -1.
         -2   -1    0    0    0  501 -0.00000000000E+00 -0.00000000000E+00 -0.39010171967E+02  0.39010171967E+02  0.00000000000E+00 0.  1.
         23    2    1    2    0    0  0.00000000000E+00  0.00000000000E+00  0.16798229409E+02  0.94818573343E+02  0.93318708411E+02 0.  0.
        -11    1    3    3    0    0 -0.29124492995E+02  0.18928785646E+02 -0.23255422064E+02  0.41801311865E+02  0.00000000000E+00 0.  1.
         11    1    3    3    0    0  0.29124492995E+02 -0.18928785646E+02  0.40053651474E+02  0.53017261478E+02  0.00000000000E+00 0. -1.
<mgrwt>
<rscale>  0 0.93318708E+02</rscale>
<asrwt>0</asrwt>
<pdfrwt beam="1">  1        2 0.85859079E-02 0.93318708E+02</pdfrwt>
<pdfrwt beam="2">  1       -2 0.60015649E-02 0.93318708E+02</pdfrwt>
<totfact> 0.97399224E+04</totfact>
</mgrwt>
</event>
<event>
 5    1  0.6004828E+000  0.9217153E+02  0.7546771E-02  0.1297677E+00
          2   -1    0    0  501    0  0.00000000000E+00  0.00000000000E+00  0.40107359972E+03  0.40107359972E+03  0.00000000000E+00 0. -1.
         -2   -1    0    0    0  501 -0.00000000000E+00 -0.00000000000E+00 -0.52955311466E+01  0.52955311466E+01  0.00000000000E+00 0.  1.
         23    2    1    2    0    0  0.00000000000E+00  0.00000000000E+00  0.39577806857E+03  0.40636913086E+03  0.92171530081E+02 0.  0.
        -11    1    3    3    0    0  0.83947546090E+01  0.43553078167E+02  0.25305328007E+03  0.25691108399E+03  0.00000000000E+00 0.  1.
         11    1    3    3    0    0 -0.83947546090E+01 -0.43553078167E+02  0.14272478850E+03  0.14945804688E+03  0.00000000000E+00 0. -1.
<mgrwt>
<rscale>  0 0.92171530E+02</rscale>
<asrwt>0</asrwt>
<pdfrwt beam="1">  1        2 0.61703607E-01 0.92171530E+02</pdfrwt>
<pdfrwt beam="2">  1       -2 0.81469741E-03 0.92171530E+02</pdfrwt>
<totfact> 0.19413641E+05</totfact>
</mgrwt>
</event>
<event>
 5    1  0.6004828E+000  0.9605803E+02  0.7546771E-02  0.1288811E+00
          3   -1    0    0  501    0  0.00000000000E+00  0.00000000000E+00  0.36788591203E+02  0.36788591203E+02  0.00000000000E+00 0. -1.
         -3   -1    0    0    0  501 -0.00000000000E+00 -0.00000000000E+00 -0.62703846772E+02  0.62703846772E+02  0.00000000000E+00 0.  1.
         23    2    1    2    0    0  0.00000000000E+00  0.00000000000E+00 -0.25915255569E+02  0.99492437974E+02  0.96058027998E+02 0.  0.
        -11    1    3    3    0    0 -0.20777502257E+02  0.41509926362E+02 -0.18768191943E+00  0.46419972114E+02  0.00000000000E+00 0. -1.
         11    1    3    3    0    0  0.20777502257E+02 -0.41509926362E+02 -0.25727573650E+02  0.53072465860E+02  0.00000000000E+00 0.  1.
<mgrwt>
<rscale>  0 0.96058028E+02</rscale>
<asrwt>0</asrwt>
<pdfrwt beam="1">  1        3 0.56597833E-02 0.96058028E+02</pdfrwt>
<pdfrwt beam="2">  1       -3 0.96467456E-02 0.96058028E+02</pdfrwt>
<totfact> 0.30097377E+04</totfact>
</mgrwt>
</event>
<event>
 5    1  0.6004828E+000  0.8287576E+02  0.7546771E-02  0.1321083E+00
         -2   -1    0    0    0  501 -0.00000000000E+00  0.00000000000E+00  0.77637600453E+01  0.77637600453E+01  0.00000000000E+00 0.  1.
          2   -1    0    0  501    0  0.00000000000E+00 -0.00000000000E+00 -0.22116831590E+03  0.22116831590E+03  0.00000000000E+00 0. -1.
         23    2    1    2    0    0  0.00000000000E+00  0.00000000000E+00 -0.21340455585E+03  0.22893207594E+03  0.82875756027E+02 0.  0.
        -11    1    3    3    0    0  0.72527397843E+01 -0.40372679128E+02 -0.12293736576E+03  0.12959996664E+03  0.00000000000E+00 0. -1.
         11    1    3    3    0    0 -0.72527397843E+01  0.40372679128E+02 -0.90467190094E+02  0.99332109299E+02  0.00000000000E+00 0.  1.
<mgrwt>
<rscale>  0 0.82875756E+02</rscale>
<asrwt>0</asrwt>
<pdfrwt beam="2">  1        2 0.34025897E-01 0.82875756E+02</pdfrwt>
<pdfrwt beam="1">  1       -2 0.11944245E-02 0.82875756E+02</pdfrwt>
<totfact> 0.20701603E+05</totfact>
</mgrwt>
</event>
<event>
 5    1  0.6004828E+000  0.9258579E+02  0.7546771E-02  0.1296708E+00
          1   -1    0    0  501    0  0.00000000000E+00  0.00000000000E+00  0.26244414233E+02  0.26244414233E+02  0.00000000000E+00 0. -1.
         -1   -1    0    0    0  501 -0.00000000000E+00 -0.00000000000E+00 -0.81656696524E+02  0.81656696524E+02  0.00000000000E+00 0.  1.
         23    2    1    2    0    0  0.00000000000E+00  0.00000000000E+00 -0.55412282290E+02  0.10790111076E+03  0.92585790886E+02 0.  0.
        -11    1    3    3    0    0 -0.32397332220E+02 -0.20026861061E+02 -0.58371683826E+02  0.69698750144E+02  0.00000000000E+00 0. -1.
         11    1    3    3    0    0  0.32397332220E+02  0.20026861061E+02  0.29594015357E+01  0.38202360613E+02  0.00000000000E+00 0.  1.
<mgrwt>
<rscale>  0 0.92585791E+02</rscale>
<asrwt>0</asrwt>
<pdfrwt beam="1">  1        1 0.40376022E-02 0.92585791E+02</pdfrwt>
<pdfrwt beam="2">  1       -1 0.12562569E-01 0.92585791E+02</pdfrwt>
<totfact> 0.81103737E+04</totfact>
</mgrwt>
</event>
<event>
 5    1  0.6004828E+000  0.9715553E+02  0.7546771E-02  0.1286394E+00
         -1   -1    0    0    0  501 -0.00000000000E+00  0.00000000000E+00  0.18724821416E+02  0.18724821416E+02  0.00000000000E+00 0.  1.
          1   -1    0    0  501    0  0.00000000000E+00 -0.00000000000E+00 -0.12602518719E+03  0.12602518719E+03  0.00000000000E+00 0. -1.
         23    2    1    2    0    0  0.00000000000E+00  0.00000000000E+00 -0.10730036577E+03  0.14475000860E+03  0.97155527356E+02 0.  0.
        -11    1    3    3    0    0  0.44385734221E+02  0.15991112146E+02 -0.70896142543E+02  0.85159098735E+02  0.00000000000E+00 0.  1.
         11    1    3    3    0    0 -0.44385734221E+02 -0.15991112146E+02 -0.36404223229E+02  0.59590909868E+02  0.00000000000E+00 0. -1.
<mgrwt>
<rscale>  0 0.97155527E+02</rscale>
<asrwt>0</asrwt>
<pdfrwt beam="2">  1        1 0.19388489E-01 0.97155527E+02</pdfrwt>
<pdfrwt beam="1">  1       -1 0.28807419E-02 0.97155527E+02</pdfrwt>
<totfact> 0.91419287E+04</totfact>
</mgrwt>
</event>
<event>
 5    1  0.6004828E+000  0.9153002E+02  0.7546771E-02  0.1299188E+00
          2   -1    0    0  501    0  0.00000000000E+00  0.00000000000E+00  0.52358648259E+02  0.52358648259E+02  0.00000000000E+00 0.  1.
         -2   -1    0    0    0  501 -0.00000000000E+00 -0.00000000000E+00 -0.40001720405E+02  0.40001720405E+02  0.00000000000E+00 0. -1.
         23    2    1    2    0    0  0.00000000000E+00  0.00000000000E+00  0.12356927853E+02  0.92360368664E+02  0.91530017119E+02 0.  0.
        -11    1    3    3    0    0  0.26198579126E+01 -0.25218011779E+02  0.44624291980E+02  0.51323865874E+02  0.00000000000E+00 0.  1.
         11    1    3    3    0    0 -0.26198579126E+01  0.25218011779E+02 -0.32267364126E+02  0.41036502790E+02  0.00000000000E+00 0. -1.
<mgrwt>
<rscale>  0 0.91530017E+02</rscale>
<asrwt>0</asrwt>
<pdfrwt beam="1">  1        2 0.80551767E-02 0.91530017E+02</pdfrwt>
<pdfrwt beam="2">  1       -2 0.61541108E-02 0.91530017E+02</pdfrwt>
<totfact> 0.10118569E+05</totfact>
</mgrwt>
</event>
<event>
 5    1  0.6004828E+000  0.9072814E+02  0.7546771E-02  0.1301098E+00
         -1   -1    0    0    0  501 -0.00000000000E+00  0.00000000000E+00  0.22168262344E+03  0.22168262344E+03  0.00000000000E+00 0.  1.
          1   -1    0    0  501    0  0.00000000000E+00 -0.00000000000E+00 -0.92830866579E+01  0.92830866579E+01  0.00000000000E+00 0. -1.
         23    2    1    2    0    0  0.00000000000E+00  0.00000000000E+00  0.21239953678E+03  0.23096571010E+03  0.90728143461E+02 0.  0.
        -11    1    3    3    0    0 -0.44733175914E+02 -0.70770669826E+01  0.99582395006E+02  0.10939741907E+03  0.00000000000E+00 0.  1.
         11    1    3    3    0    0  0.44733175914E+02  0.70770669826E+01  0.11281714178E+03  0.12156829103E+03  0.00000000000E+00 0. -1.
<mgrwt>
<rscale>  0 0.90728143E+02</rscale>
<asrwt>0</asrwt>
<pdfrwt beam="2">  1        1 0.14281673E-02 0.90728143E+02</pdfrwt>
<pdfrwt beam="1">  1       -1 0.34105015E-01 0.90728143E+02</pdfrwt>
<totfact> 0.68204749E+04</totfact>
</mgrwt>
</event>
<event>
 5    1  0.6004828E+000  0.9247140E+02  0.7546771E-02  0.1296975E+00
          4   -1    0    0  501    0  0.00000000000E+00  0.00000000000E+00  0.37942423918E+03  0.37942423918E+03  0.00000000000E+00 0. -1.
         -4   -1    0    0    0  501 -0.00000000000E+00 -0.00000000000E+00 -0.56341684921E+01  0.56341684921E+01  0.00000000000E+00 0.  1.
         23    2    1    2    0    0  0.00000000000E+00  0.00000000000E+00  0.37379007069E+03  0.38505840768E+03  0.92471403007E+02 0.  0.
        -11    1    3    3    0    0  0.10739923191E+02  0.42207953905E+02  0.12226683949E+03  0.12979228545E+03  0.00000000000E+00 0. -1.
         11    1    3    3    0    0 -0.10739923191E+02 -0.42207953905E+02  0.25152323120E+03  0.25526612222E+03  0.00000000000E+00 0.  1.
<mgrwt>
<rscale>  0 0.92471403E+02</rscale>
<asrwt>0</asrwt>
<pdfrwt beam="1">  1        4 0.58372940E-01 0.92471403E+02</pdfrwt>
<pdfrwt beam="2">  1       -4 0.86679545E-03 0.92471403E+02</pdfrwt>
<totfact> 0.14936557E+04</totfact>
</mgrwt>
</event>
<event>
 5    1  0.6004828E+000  0.9165898E+02  0.7546771E-02  0.1298883E+00
         -1   -1    0    0    0  501 -0.00000000000E+00  0.00000000000E+00  0.28596639340E+02  0.28596639340E+02  0.00000000000E+00 0.  1.
          1   -1    0    0  501    0  0.00000000000E+00 -0.00000000000E+00 -0.73447162581E+02  0.73447162581E+02  0.00000000000E+00 0. -1.
         23    2    1    2    0    0  0.00000000000E+00  0.00000000000E+00 -0.44850523241E+02  0.10204380192E+03  0.91658977058E+02 0.  0.
        -11    1    3    3    0    0 -0.37055639372E+02  0.23637010219E+02 -0.79732337393E+01  0.44669912891E+02  0.00000000000E+00 0. -1.
         11    1    3    3    0    0  0.37055639372E+02 -0.23637010219E+02 -0.36877289502E+02  0.57373889030E+02  0.00000000000E+00 0.  1.
<mgrwt>
<rscale>  0 0.91658977E+02</rscale>
<asrwt>0</asrwt>
<pdfrwt beam="2">  1        1 0.11299563E-01 0.91658977E+02</pdfrwt>
<pdfrwt beam="1">  1       -1 0.43994830E-02 0.91658977E+02</pdfrwt>
<totfact> 0.97969720E+04</totfact>
</mgrwt>
</event>
<event>
 5    1  0.6004828E+000  0.9234732E+02  0.7546771E-02  0.1297265E+00
          2   -1    0    0  501    0  0.00000000000E+00  0.00000000000E+00  0.63327282796E+02  0.63327282796E+02  0.00000000000E+00 0. -1.
         -2   -1    0    0    0  501 -0.00000000000E+00 -0.00000000000E+00 -0.33666479318E+02  0.33666479318E+02  0.00000000000E+00 0.  1.
         23    2    1    2    0    0  0.00000000000E+00  0.00000000000E+00  0.29660803478E+02  0.96993762114E+02  0.92347315208E+02 0.  0.
        -11    1    3    3    0    0 -0.37899179225E+02 -0.16117138917E+01 -0.12820247901E+02  0.40041280747E+02  0.00000000000E+00 0.  1.
         11    1    3    3    0    0  0.37899179225E+02  0.16117138917E+01  0.42481051378E+02  0.56952481367E+02  0.00000000000E+00 0. -1.
<mgrwt>
<rscale>  0 0.92347315E+02</rscale>
<asrwt>0</asrwt>
<pdfrwt beam="1">  1        2 0.97426589E-02 0.92347315E+02</pdfrwt>
<pdfrwt beam="2">  1       -2 0.51794584E-02 0.92347315E+02</pdfrwt>
<totfact> 0.10382435E+05</totfact>
</mgrwt>
</event>
<event>
 5    1  0.6004828E+000  0.8309242E+02  0.7546771E-02  0.1320498E+00
          2   -1    0    0  501    0  0.00000000000E+00  0.00000000000E+00  0.22640967758E+03  0.22640967758E+03  0.00000000000E+00 0. -1.
         -2   -1    0    0    0  501 -0.00000000000E+00 -0.00000000000E+00 -0.76237366405E+01  0.76237366405E+01  0.00000000000E+00 0.  1.
         23    2    1    2    0    0  0.00000000000E+00  0.00000000000E+00  0.21878594094E+03  0.23403341422E+03  0.83092424558E+02 0.  0.
        -11    1    3    3    0    0  0.11954472125E+02 -0.39731140114E+02  0.11544352978E+03  0.12267306741E+03  0.00000000000E+00 0. -1.
         11    1    3    3    0    0 -0.11954472125E+02  0.39731140114E+02  0.10334241116E+03  0.11136034682E+03  0.00000000000E+00 0.  1.
<mgrwt>
<rscale>  0 0.83092425E+02</rscale>
<asrwt>0</asrwt>
<pdfrwt beam="1">  1        2 0.34832253E-01 0.83092425E+02</pdfrwt>
<pdfrwt beam="2">  1       -2 0.11728827E-02 0.83092425E+02</pdfrwt>
<totfact> 0.20733260E+05</totfact>
</mgrwt>
</event>
<event>
 5    1  0.6004828E+000  0.9108719E+02  0.7546771E-02  0.1300240E+00
         -2   -1    0    0    0  501 -0.00000000000E+00  0.00000000000E+00  0.26371321772E+02  0.26371321772E+02  0.00000000000E+00 0.  1.
          2   -1    0    0  501    0  0.00000000000E+00 -0.00000000000E+00 -0.78654348206E+02  0.78654348206E+02  0.00000000000E+00 0. -1.
         23    2    1    2    0    0  0.00000000000E+00  0.00000000000E+00 -0.52283026434E+02  0.10502566998E+03  0.91087191753E+02 0.  0.
        -11    1    3    3    0    0  0.37999484595E+02 -0.17961251367E+02 -0.46365549667E+02  0.62580600637E+02  0.00000000000E+00 0. -1.
         11    1    3    3    0    0 -0.37999484595E+02  0.17961251367E+02 -0.59174767667E+01  0.42445069342E+02  0.00000000000E+00 0.  1.
<mgrwt>
<rscale>  0 0.91087192E+02</rscale>
<asrwt>0</asrwt>
<pdfrwt beam="2">  1        2 0.12100669E-01 0.91087192E+02</pdfrwt>
<pdfrwt beam="1">  1       -2 0.40571264E-02 0.91087192E+02</pdfrwt>
<totfact> 0.11461441E+05</totfact>
</mgrwt>
</event>
<event>
 5    1  0.6004828E+000  0.8721881E+02  0.7546771E-02  0.1309730E+00
         -1   -1    0    0    0  501 -0.00000000000E+00  0.00000000000E+00  0.25898148993E+02  0.25898148993E+02  0.00000000000E+00 0.  1.
          1   -1    0    0  501    0  0.00000000000E+00 -0.00000000000E+00 -0.73433046790E+02  0.73433046790E+02  0.00000000000E+00 0. -1.
         23    2    1    2    0    0  0.00000000000E+00  0.00000000000E+00 -0.47534897797E+02  0.99331195782E+02  0.87218805008E+02 0.  0.
        -11    1    3    3    0    0  0.32284657396E+02 -0.87342815021E+01  0.81046003998E+01  0.34413243441E+02  0.00000000000E+00 0.  1.
         11    1    3    3    0    0 -0.32284657396E+02  0.87342815021E+01 -0.55639498197E+02  0.64917952341E+02  0.00000000000E+00 0. -1.
<mgrwt>
<rscale>  0 0.87218805E+02</rscale>
<asrwt>0</asrwt>
<pdfrwt beam="2">  1        1 0.11297392E-01 0.87218805E+02</pdfrwt>
<pdfrwt beam="1">  1       -1 0.39843306E-02 0.87218805E+02</pdfrwt>
<totfact> 0.11226520E+05</totfact>
</mgrwt>
</event>
<event>
 5    1  0.6004828E+000  0.9235213E+02  0.7546771E-02  0.1297254E+00
         -2   -1    0    0    0  501 -0.00000000000E+00  0.00000000000E+00  0.16393359269E+03  0.16393359269E+03  0.00000000000E+00 0.  1.
          2   -1    0    0  501    0  0.00000000000E+00 -0.00000000000E+00 -0.13006663785E+02  0.13006663785E+02  0.00000000000E+00 0. -1.
         23    2    1    2    0    0  0.00000000000E+00  0.00000000000E+00  0.15092692891E+03  0.17694025648E+03  0.92352133125E+02 0.  0.
        -11    1    3    3    0    0  0.29077263154E+02  0.30235802385E+02  0.38483618721E+02  0.56926969779E+02  0.00000000000E+00 0.  1.
         11    1    3    3    0    0 -0.29077263154E+02 -0.30235802385E+02  0.11244331019E+03  0.12001328670E+03  0.00000000000E+00 0. -1.
<mgrwt>
<rscale>  0 0.92352133E+02</rscale>
<asrwt>0</asrwt>
<pdfrwt beam="2">  1        2 0.20010253E-02 0.92352133E+02</pdfrwt>
<pdfrwt beam="1">  1       -2 0.25220551E-01 0.92352133E+02</pdfrwt>
<totfact> 0.65413402E+04</totfact>
</mgrwt>
</event>
<event>
 5    1  0.6004828E+000  0.9043066E+02  0.7546771E-02  0.1301812E+00
         -1   -1    0    0    0  501 -0.00000000000E+00  0.00000000000E+00  0.15979229369E+02  0.15979229369E+02  0.00000000000E+00 0.  1.
          1   -1    0    0  501    0  0.00000000000E+00 -0.00000000000E+00 -0.12794271411E+03  0.12794271411E+03  0.00000000000E+00 0. -1.
         23    2    1    2    0    0  0.00000000000E+00  0.00000000000E+00 -0.11196348474E+03  0.14392194348E+03  0.90430657961E+02 0.  0.
        -11    1    3    3    0    0 -0.36045836349E+02 -0.24858363366E+02 -0.73930318492E+02  0.85923992806E+02  0.00000000000E+00 0.  1.
         11    1    3    3    0    0  0.36045836349E+02  0.24858363366E+02 -0.38033166249E+02  0.57997950673E+02  0.00000000000E+00 0. -1.
<mgrwt>
<rscale>  0 0.90430658E+02</rscale>
<asrwt>0</asrwt>
<pdfrwt beam="2">  1        1 0.19683494E-01 0.90430658E+02</pdfrwt>
<pdfrwt beam="1">  1       -1 0.24583431E-02 0.90430658E+02</pdfrwt>
<totfact> 0.11140720E+05</totfact>
</mgrwt>
</event>
<event>
 5    1  0.6004828E+000  0.9045762E+02  0.7546771E-02  0.1301747E+00
          1   -1    0    0  501    0  0.00000000000E+00  0.00000000000E+00  0.21979376844E+03  0.21979376844E+03  0.00000000000E+00 0. -1.
         -1   -1    0    0    0  501 -0.00000000000E+00 -0.00000000000E+00 -0.93071120183E+01  0.93071120183E+01  0.00000000000E+00 0.  1.
         23    2    1    2    0    0  0.00000000000E+00  0.00000000000E+00  0.21048665642E+03  0.22910088046E+03  0.90457619331E+02 0.  0.
        -11    1    3    3    0    0 -0.25886790552E+02  0.19487059448E+02  0.25322135797E+02  0.41122767080E+02  0.00000000000E+00 0.  1.
         11    1    3    3    0    0  0.25886790552E+02 -0.19487059448E+02  0.18516452062E+03  0.18797811338E+03  0.00000000000E+00 0. -1.
<mgrwt>
<rscale>  0 0.90457619E+02</rscale>
<asrwt>0</asrwt>
<pdfrwt beam="1">  1        1 0.33814422E-01 0.90457619E+02</pdfrwt>
<pdfrwt beam="2">  1       -1 0.14318636E-02 0.90457619E+02</pdfrwt>
<totfact> 0.12318338E+05</totfact>
</mgrwt>
</event>
<event>
 5    1  0.6004828E+000  0.8948127E+02  0.7546771E-02  0.1304113E+00
          1   -1    0    0  501    0  0.00000000000E+00  0.00000000000E+00  0.92379265741E+01  0.92379265741E+01  0.00000000000E+00 0.  1.
         -1   -1    0    0    0  501 -0.00000000000E+00 -0.00000000000E+00 -0.21668545886E+03  0.21668545886E+03  0.00000000000E+00 0. -1.
         23    2    1    2    0    0  0.00000000000E+00  0.00000000000E+00 -0.20744753229E+03  0.22592338544E+03  0.89481268624E+02 0.  0.
        -11    1    3    3    0    0  0.44128884232E+02 -0.24766412449E+01 -0.86189099446E+02  0.96860998543E+02  0.00000000000E+00 0.  1.
         11    1    3    3    0    0 -0.44128884232E+02  0.24766412449E+01 -0.12125843284E+03  0.12906238689E+03  0.00000000000E+00 0. -1.
<mgrwt>
<rscale>  0 0.89481269E+02</rscale>
<asrwt>0</asrwt>
<pdfrwt beam="1">  1        1 0.14212195E-02 0.89481269E+02</pdfrwt>
<pdfrwt beam="2">  1       -1 0.33336224E-01 0.89481269E+02</pdfrwt>
<totfact> 0.71202117E+04</totfact>
</mgrwt>
</event>
<event>
 5    1  0.6004828E+000  0.8921079E+02  0.7546771E-02  0.1304774E+00
          1   -1    0    0  501    0  0.00000000000E+00  0.00000000000E+00  0.15107997559E+02  0.15107997559E+02  0.00000000000E+00 0. -1.
         -1   -1    0    0    0  501 -0.00000000000E+00 -0.00000000000E+00 -0.13169456645E+03  0.13169456645E+03  0.00000000000E+00 0.  1.
         23    2    1    2    0    0  0.00000000000E+00  0.00000000000E+00 -0.11658656890E+03  0.14680256401E+03  0.89210788328E+02 0.  0.
        -11    1    3    3    0    0 -0.43653326973E+02  0.18749236239E-01 -0.43208886883E+02  0.61421667293E+02  0.00000000000E+00 0. -1.
         11    1    3    3    0    0  0.43653326973E+02 -0.18749236239E-01 -0.73377682012E+02  0.85380896721E+02  0.00000000000E+00 0.  1.
<mgrwt>
<rscale>  0 0.89210788E+02</rscale>
<asrwt>0</asrwt>
<pdfrwt beam="1">  1        1 0.23243073E-02 0.89210788E+02</pdfrwt>
<pdfrwt beam="2">  1       -1 0.20260702E-01 0.89210788E+02</pdfrwt>
<totfact> 0.81476427E+04</totfact>
</mgrwt>
</event>
<event>
 5    1  0.6004828E+000  0.9268456E+02  0.7546771E-02  0.1296478E+00
         -1   -1    0    0    0  501 -0.00000000000E+00  0.00000000000E+00  0.37162135466E+02  0.37162135466E+02  0.00000000000E+00 0.  1.
          1   -1    0    0  501    0  0.00000000000E+00 -0.00000000000E+00 -0.57790185912E+02  0.57790185912E+02  0.00000000000E+00 0. -1.
         23    2    1    2    0    0  0.00000000000E+00  0.00000000000E+00 -0.20628050446E+02  0.94952321379E+02  0.92684555725E+02 0.  0.
        -11    1    3    3    0    0 -0.99927360001E+01  0.31587218495E+02  0.22882511324E+02  0.40264332473E+02  0.00000000000E+00 0.  1.
         11    1    3    3    0    0  0.99927360001E+01 -0.31587218495E+02 -0.43510561770E+02  0.54687988906E+02  0.00000000000E+00 0. -1.
<mgrwt>
<rscale>  0 0.92684556E+02</rscale>
<asrwt>0</asrwt>
<pdfrwt beam="2">  1        1 0.88907978E-02 0.92684556E+02</pdfrwt>
<pdfrwt beam="1">  1       -1 0.57172516E-02 0.92684556E+02</pdfrwt>
<totfact> 0.91549282E+04</totfact>
</mgrwt>
</event>
<event>
 5    1  0.6004828E+000  0.8887385E+02  0.7546771E-02  0.1305602E+00
         -2   -1    0    0    0  501 -0.00000000000E+00  0.00000000000E+00  0.10995764886E+02  0.10995764886E+02  0.00000000000E+00 0.  1.
          2   -1    0    0  501    0  0.00000000000E+00 -0.00000000000E+00 -0.17958190248E+03  0.17958190248E+03  0.00000000000E+00 0. -1.
         23    2    1    2    0    0  0.00000000000E+00  0.00000000000E+00 -0.16858613759E+03  0.19057766736E+03  0.88873851663E+02 0.  0.
        -11    1    3    3    0    0  0.33270619089E+02  0.23316528900E+02 -0.12289430189E+03  0.12943571398E+03  0.00000000000E+00 0. -1.
         11    1    3    3    0    0 -0.33270619089E+02 -0.23316528900E+02 -0.45691835697E+02  0.61141953386E+02  0.00000000000E+00 0.  1.
<mgrwt>
<rscale>  0 0.88873852E+02</rscale>
<asrwt>0</asrwt>
<pdfrwt beam="2">  1        2 0.27627983E-01 0.88873852E+02</pdfrwt>
<pdfrwt beam="1">  1       -2 0.16916562E-02 0.88873852E+02</pdfrwt>
<totfact> 0.15944155E+05</totfact>
</mgrwt>
</event>
<event>
 5    1  0.6004828E+000  0.9318390E+02  0.7546771E-02  0.1295320E+00
         -2   -1    0    0    0  501 -0.00000000000E+00  0.00000000000E+00  0.85568626923E+02  0.85568626923E+02  0.00000000000E+00 0.  1.
          2   -1    0    0  501    0  0.00000000000E+00 -0.00000000000E+00 -0.25369224197E+02  0.25369224197E+02  0.00000000000E+00 0. -1.
         23    2    1    2    0    0  0.00000000000E+00  0.00000000000E+00  0.60199402726E+02  0.11093785112E+03  0.93183897335E+02 0.  0.
        -11    1    3    3    0    0  0.51054458357E+01 -0.35716667898E+02 -0.49968701354E+01  0.36424094417E+02  0.00000000000E+00 0. -1.
         11    1    3    3    0    0 -0.51054458357E+01  0.35716667898E+02  0.65196272862E+02  0.74513756703E+02  0.00000000000E+00 0.  1.
<mgrwt>
<rscale>  0 0.93183897E+02</rscale>
<asrwt>0</asrwt>
<pdfrwt beam="2">  1        2 0.39029576E-02 0.93183897E+02</pdfrwt>
<pdfrwt beam="1">  1       -2 0.13164404E-01 0.93183897E+02</pdfrwt>
<totfact> 0.79126654E+04</totfact>
</mgrwt>
</event>
<event>
 5    1  0.6004828E+000  0.9059882E+02  0.7546771E-02  0.1301408E+00
          2   -1    0    0  501    0  0.00000000000E+00  0.00000000000E+00  0.11444732065E+03  0.11444732065E+03  0.00000000000E+00 0. -1.
         -2   -1    0    0    0  501 -0.00000000000E+00 -0.00000000000E+00 -0.17929964932E+02  0.17929964932E+02  0.00000000000E+00 0.  1.
         23    2    1    2    0    0  0.00000000000E+00  0.00000000000E+00  0.96517355721E+02  0.13237728558E+03  0.90598817782E+02 0.  0.
        -11    1    3    3    0    0  0.34726329602E+02 -0.86216805039E+01  0.76668005820E+01  0.36592774881E+02  0.00000000000E+00 0.  1.
         11    1    3    3    0    0 -0.34726329602E+02  0.86216805039E+01  0.88850555139E+02  0.95784510704E+02  0.00000000000E+00 0. -1.
<mgrwt>
<rscale>  0 0.90598818E+02</rscale>
<asrwt>0</asrwt>
<pdfrwt beam="1">  1        2 0.17607280E-01 0.90598818E+02</pdfrwt>
<pdfrwt beam="2">  1       -2 0.27584562E-02 0.90598818E+02</pdfrwt>
<totfact> 0.13016694E+05</totfact>
</mgrwt>
</event>
<event>
 5    1  0.6004828E+000  0.9146318E+02  0.7546771E-02  0.1299347E+00
          3   -1    0    0  501    0  0.00000000000E+00  0.00000000000E+00  0.24288538627E+02  0.24288538627E+02  0.00000000000E+00 0. -1.
         -3   -1    0    0    0  501 -0.00000000000E+00 -0.00000000000E+00 -0.86105570669E+02  0.86105570669E+02  0.00000000000E+00 0.  1.
         23    2    1    2    0    0  0.00000000000E+00  0.00000000000E+00 -0.61817032041E+02  0.11039410930E+03  0.91463183395E+02 0.  0.
        -11    1    3    3    0    0 -0.16082588835E+01 -0.32417262891E+02  0.79763021813E+01  0.33422848868E+02  0.00000000000E+00 0. -1.
         11    1    3    3    0    0  0.16082588835E+01  0.32417262891E+02 -0.69793334223E+02  0.76971260428E+02  0.00000000000E+00 0.  1.
<mgrwt>
<rscale>  0 0.91463183E+02</rscale>
<asrwt>0</asrwt>
<pdfrwt beam="1">  1        3 0.37366984E-02 0.91463183E+02</pdfrwt>
<pdfrwt beam="2">  1       -3 0.13247010E-01 0.91463183E+02</pdfrwt>
<totfact> 0.33629918E+04</totfact>
</mgrwt>
</event>
<event>
 5    1  0.6004828E+000  0.9310316E+02  0.7546771E-02  0.1295506E+00
          1   -1    0    0  501    0  0.00000000000E+00  0.00000000000E+00  0.30763672059E+03  0.30763672059E+03  0.00000000000E+00 0. -1.
         -1   -1    0    0    0  501 -0.00000000000E+00 -0.00000000000E+00 -0.70441833811E+01  0.70441833811E+01  0.00000000000E+00 0.  1.
         23    2    1    2    0    0  0.00000000000E+00  0.00000000000E+00  0.30059253721E+03  0.31468090398E+03  0.93103157296E+02 0.  0.
        -11    1    3    3    0    0 -0.45568106075E+02 -0.79893819024E+01  0.16778287387E+03  0.17404417623E+03  0.00000000000E+00 0.  1.
         11    1    3    3    0    0  0.45568106075E+02  0.79893819024E+01  0.13280966334E+03  0.14063672775E+03  0.00000000000E+00 0. -1.
<mgrwt>
<rscale>  0 0.93103157E+02</rscale>
<asrwt>0</asrwt>
<pdfrwt beam="1">  1        1 0.47328716E-01 0.93103157E+02</pdfrwt>
<pdfrwt beam="2">  1       -1 0.10837208E-02 0.93103157E+02</pdfrwt>
<totfact> 0.12175044E+05</totfact>
</mgrwt>
</event>
<event>
 5    1  0.6004828E+000  0.8305491E+02  0.7546771E-02  0.1320599E+00
          2   -1    0    0  501    0  0.00000000000E+00  0.00000000000E+00  0.28580138951E+02  0.28580138951E+02  0.00000000000E+00 0.  1.
         -2   -1    0    0    0  501 -0.00000000000E+00 -0.00000000000E+00 -0.60340133802E+02  0.60340133802E+02  0.00000000000E+00 0. -1.
         23    2    1    2    0    0  0.00000000000E+00  0.00000000000E+00 -0.31759994852E+02  0.88920272753E+02  0.83054907342E+02 0.  0.
        -11    1    3    3    0    0 -0.16977540948E+02  0.16605091616E+02 -0.52352866827E+02  0.57487291024E+02  0.00000000000E+00 0. -1.
         11    1    3    3    0    0  0.16977540948E+02 -0.16605091616E+02  0.20592871976E+02  0.31432981730E+02  0.00000000000E+00 0.  1.
<mgrwt>
<rscale>  0 0.83054907E+02</rscale>
<asrwt>0</asrwt>
<pdfrwt beam="1">  1        2 0.43969445E-02 0.83054907E+02</pdfrwt>
<pdfrwt beam="2">  1       -2 0.92830975E-02 0.83054907E+02</pdfrwt>
<totfact> 0.11493332E+05</totfact>
</mgrwt>
</event>
<event>
 5    1  0.6004828E+000  0.9253501E+02  0.7546771E-02  0.1296826E+00
         -4   -1    0    0    0  501 -0.00000000000E+00  0.00000000000E+00  0.14292166495E+03  0.14292166495E+03  0.00000000000E+00 0. -1.
          4   -1    0    0  501    0  0.00000000000E+00 -0.00000000000E+00 -0.14978009846E+02  0.14978009846E+02  0.00000000000E+00 0.  1.
         23    2    1    2    0    0  0.00000000000E+00  0.00000000000E+00  0.12794365510E+03  0.15789967479E+03  0.92535011857E+02 0.  0.
        -11    1    3    3    0    0  0.34632385608E+02 -0.28975696806E+01  0.11853678057E+02  0.36719309994E+02  0.00000000000E+00 0.  1.
         11    1    3    3    0    0 -0.34632385608E+02  0.28975696806E+01  0.11608997704E+03  0.12118036480E+03  0.00000000000E+00 0. -1.
<mgrwt>
<rscale>  0 0.92535012E+02</rscale>
<asrwt>0</asrwt>
<pdfrwt beam="2">  1        4 0.23043093E-02 0.92535012E+02</pdfrwt>
<pdfrwt beam="1">  1       -4 0.21987947E-01 0.92535012E+02</pdfrwt>
<totfact> 0.22372834E+04</totfact>
</mgrwt>
</event>
<event>
 5    1  0.6004828E+000  0.9022733E+02  0.7546771E-02  0.1302302E+00
          2   -1    0    0  501    0  0.00000000000E+00  0.00000000000E+00  0.57494727400E+02  0.57494727400E+02  0.00000000000E+00 0. -1.
         -2   -1    0    0    0  501 -0.00000000000E+00 -0.00000000000E+00 -0.35398774167E+02  0.35398774167E+02  0.00000000000E+00 0.  1.
         23    2    1    2    0    0  0.00000000000E+00  0.00000000000E+00  0.22095953233E+02  0.92893501568E+02  0.90227332246E+02 0.  0.
        -11    1    3    3    0    0  0.18121369037E+02  0.23489472566E+02  0.46039082880E+02  0.54769850188E+02  0.00000000000E+00 0. -1.
         11    1    3    3    0    0 -0.18121369037E+02 -0.23489472566E+02 -0.23943129646E+02  0.38123651379E+02  0.00000000000E+00 0.  1.
<mgrwt>
<rscale>  0 0.90227332E+02</rscale>
<asrwt>0</asrwt>
<pdfrwt beam="1">  1        2 0.88453427E-02 0.90227332E+02</pdfrwt>
<pdfrwt beam="2">  1       -2 0.54459653E-02 0.90227332E+02</pdfrwt>
<totfact> 0.10801223E+05</totfact>
</mgrwt>
</event>
<event>
 5    1  0.6004828E+000  0.9226790E+02  0.7546771E-02  0.1297451E+00
         -2   -1    0    0    0  501 -0.00000000000E+00  0.00000000000E+00  0.93067988810E+01  0.93067988810E+01  0.00000000000E+00 0.  1.
          2   -1    0    0  501    0  0.00000000000E+00 -0.00000000000E+00 -0.22868672105E+03  0.22868672105E+03  0.00000000000E+00 0. -1.
         23    2    1    2    0    0  0.00000000000E+00  0.00000000000E+00 -0.21937992217E+03  0.23799351993E+03  0.92267899501E+02 0.  0.
        -11    1    3    3    0    0  0.18677834866E+02 -0.40719800863E+02 -0.81272595753E+02  0.92801931650E+02  0.00000000000E+00 0. -1.
         11    1    3    3    0    0 -0.18677834866E+02  0.40719800863E+02 -0.13810732642E+03  0.14519158828E+03  0.00000000000E+00 0.  1.
<mgrwt>
<rscale>  0 0.92267900E+02</rscale>
<asrwt>0</asrwt>
<pdfrwt beam="2">  1        2 0.35182569E-01 0.92267900E+02</pdfrwt>
<pdfrwt beam="1">  1       -2 0.14318154E-02 0.92267900E+02</pdfrwt>
<totfact> 0.15732143E+05</totfact>
</mgrwt>
</event>
<event>
 4    1  0.6004828E+000  0.2174985E+02  0.7546771E-02  0.1712614E+00
          1   -1    0    0  501    0  0.00000000000E+00  0.00000000000E+00  0.15680433997E+01  0.15680433997E+01  0.00000000000E+00 0. -1.
         -1   -1    0    0    0  501 -0.00000000000E+00 -0.00000000000E+00 -0.75421409673E+02  0.75421409673E+02  0.00000000000E+00 0.  1.
        -11    1    1    2    0    0  0.49335561119E+01 -0.96494389079E+01 -0.40117184211E+02  0.41555265806E+02  0.00000000000E+00 0.  1.
         11    1    1    2    0    0 -0.49335561119E+01  0.96494389079E+01 -0.33736182061E+02  0.35434187266E+02  0.00000000000E+00 0. -1.
<mgrwt>
<rscale>  0 0.21749855E+02</rscale>
<asrwt>0</asrwt>
<pdfrwt beam="1">  1        1 0.24123742E-03 0.21749855E+02</pdfrwt>
<pdfrwt beam="2">  1       -1 0.11603295E-01 0.21749855E+02</pdfrwt>
<totfact> 0.27636963E+06</totfact>
</mgrwt>
</event>
<event>
 5    1  0.6004828E+000  0.8925658E+02  0.7546771E-02  0.1304662E+00
         -4   -1    0    0    0  501 -0.00000000000E+00  0.00000000000E+00  0.84417034194E+02  0.84417034194E+02  0.00000000000E+00 0.  1.
          4   -1    0    0  501    0  0.00000000000E+00 -0.00000000000E+00 -0.23593392723E+02  0.23593392723E+02  0.00000000000E+00 0. -1.
         23    2    1    2    0    0  0.00000000000E+00  0.00000000000E+00  0.60823641471E+02  0.10801042692E+03  0.89256579370E+02 0.  0.
        -11    1    3    3    0    0 -0.46332321394E+00 -0.14494337755E+02 -0.20662686593E+02  0.25243753933E+02  0.00000000000E+00 0. -1.
         11    1    3    3    0    0  0.46332321394E+00  0.14494337755E+02  0.81486328065E+02  0.82766672984E+02  0.00000000000E+00 0.  1.
<mgrwt>
<rscale>  0 0.89256579E+02</rscale>
<asrwt>0</asrwt>
<pdfrwt beam="2">  1        4 0.36297528E-02 0.89256579E+02</pdfrwt>
<pdfrwt beam="1">  1       -4 0.12987236E-01 0.89256579E+02</pdfrwt>
<totfact> 0.27506210E+04</totfact>
</mgrwt>
</event>
<event>
 5    1  0.6004828E+000  0.9264760E+02  0.7546771E-02  0.1296564E+00
         -2   -1    0    0    0  501 -0.00000000000E+00  0.00000000000E+00  0.46858408577E+02  0.46858408577E+02  0.00000000000E+00 0. -1.
          2   -1    0    0  501    0  0.00000000000E+00 -0.00000000000E+00 -0.45795291755E+02  0.45795291755E+02  0.00000000000E+00 0.  1.
         23    2    1    2    0    0  0.00000000000E+00  0.00000000000E+00  0.10631168219E+01  0.92653700331E+02  0.92647600982E+02 0.  0.
        -11    1    3    3    0    0  0.20315624166E+02 -0.34704638388E+02 -0.22464693538E+02  0.46062989120E+02  0.00000000000E+00 0.  1.
         11    1    3    3    0    0 -0.20315624166E+02  0.34704638388E+02  0.23527810360E+02  0.46590711212E+02  0.00000000000E+00 0. -1.
<mgrwt>
<rscale>  0 0.92647601E+02</rscale>
<asrwt>0</asrwt>
<pdfrwt beam="2">  1        2 0.70454295E-02 0.92647601E+02</pdfrwt>
<pdfrwt beam="1">  1       -2 0.72089860E-02 0.92647601E+02</pdfrwt>
<totfact> 0.94346735E+04</totfact>
</mgrwt>
</event>
<event>
 5    1  0.6004828E+000  0.9127966E+02  0.7546771E-02  0.1299782E+00
         -1   -1    0    0    0  501 -0.00000000000E+00  0.00000000000E+00  0.13308058394E+02  0.13308058394E+02  0.00000000000E+00 0.  1.
          1   -1    0    0  501    0  0.00000000000E+00 -0.00000000000E+00 -0.15652127416E+03  0.15652127416E+03  0.00000000000E+00 0. -1.
         23    2    1    2    0    0  0.00000000000E+00  0.00000000000E+00 -0.14321321577E+03  0.16982933256E+03  0.91279663814E+02 0.  0.
        -11    1    3    3    0    0 -0.44982851682E+01  0.29693537541E+02 -0.76664860879E+01  0.30995414985E+02  0.00000000000E+00 0.  1.
         11    1    3    3    0    0  0.44982851682E+01 -0.29693537541E+02 -0.13554672968E+03  0.13883391757E+03  0.00000000000E+00 0. -1.
<mgrwt>
<rscale>  0 0.91279664E+02</rscale>
<asrwt>0</asrwt>
<pdfrwt beam="2">  1        1 0.24080193E-01 0.91279664E+02</pdfrwt>
<pdfrwt beam="1">  1       -1 0.20473939E-02 0.91279664E+02</pdfrwt>
<totfact> 0.11267431E+05</totfact>
</mgrwt>
</event>
<event>
 5    1  0.6004828E+000  0.9468186E+02  0.7546771E-02  0.1291894E+00
         -1   -1    0    0    0  501 -0.00000000000E+00  0.00000000000E+00  0.41567863851E+02  0.41567863851E+02  0.00000000000E+00 0.  1.
          1   -1    0    0  501    0  0.00000000000E+00 -0.00000000000E+00 -0.53915780857E+02  0.53915780857E+02  0.00000000000E+00 0. -1.
         23    2    1    2    0    0  0.00000000000E+00  0.00000000000E+00 -0.12347917006E+02  0.95483644709E+02  0.94681863905E+02 0.  0.
        -11    1    3    3    0    0 -0.10408809172E+02 -0.52226107626E+01 -0.52448746668E+02  0.53726064425E+02  0.00000000000E+00 0. -1.
         11    1    3    3    0    0  0.10408809172E+02  0.52226107626E+01  0.40100829662E+02  0.41757580284E+02  0.00000000000E+00 0.  1.
<mgrwt>
<rscale>  0 0.94681864E+02</rscale>
<asrwt>0</asrwt>
<pdfrwt beam="2">  1        1 0.82947355E-02 0.94681864E+02</pdfrwt>
<pdfrwt beam="1">  1       -1 0.63950560E-02 0.94681864E+02</pdfrwt>
<totfact> 0.85336392E+04</totfact>
</mgrwt>
</event>
<event>
 5    1  0.6004828E+000  0.9572885E+02  0.7546771E-02  0.1289543E+00
          2   -1    0    0  501    0  0.00000000000E+00  0.00000000000E+00  0.96915872861E+01  0.96915872861E+01  0.00000000000E+00 0. -1.
         -2   -1    0    0    0  501 -0.00000000000E+00 -0.00000000000E+00 -0.23639093698E+03  0.23639093698E+03  0.00000000000E+00 0.  1.
         23    2    1    2    0    0  0.00000000000E+00  0.00000000000E+00 -0.22669934969E+03  0.24608252427E+03  0.95728854572E+02 0.  0.
        -11    1    3    3    0    0 -0.45043938159E+02  0.10429827440E+02 -0.14517409104E+03  0.15235896552E+03  0.00000000000E+00 0.  1.
         11    1    3    3    0    0  0.45043938159E+02 -0.10429827440E+02 -0.81525258659E+02  0.93723558750E+02  0.00000000000E+00 0. -1.
<mgrwt>
<rscale>  0 0.95728855E+02</rscale>
<asrwt>0</asrwt>
<pdfrwt beam="1">  1        2 0.14910135E-02 0.95728855E+02</pdfrwt>
<pdfrwt beam="2">  1       -2 0.36367835E-01 0.95728855E+02</pdfrwt>
<totfact> 0.50950168E+04</totfact>
</mgrwt>
</event>
<event>
 5    1  0.6004828E+000  0.8936431E+02  0.7546771E-02  0.1304398E+00
         -4   -1    0    0    0  501 -0.00000000000E+00  0.00000000000E+00  0.93193224176E+02  0.93193224176E+02  0.00000000000E+00 0.  1.
          4   -1    0    0  501    0  0.00000000000E+00 -0.00000000000E+00 -0.21423175253E+02  0.21423175253E+02  0.00000000000E+00 0. -1.
         23    2    1    2    0    0  0.00000000000E+00  0.00000000000E+00  0.71770048923E+02  0.11461639943E+03  0.89364305489E+02 0.  0.
        -11    1    3    3    0    0 -0.11308729652E+02  0.36560575913E+02  0.63041770206E+01  0.38785380304E+02  0.00000000000E+00 0. -1.
         11    1    3    3    0    0  0.11308729652E+02 -0.36560575913E+02  0.65465871902E+02  0.75831019124E+02  0.00000000000E+00 0.  1.
<mgrwt>
<rscale>  0 0.89364305E+02</rscale>
<asrwt>0</asrwt>
<pdfrwt beam="2">  1        4 0.32958732E-02 0.89364305E+02</pdfrwt>
<pdfrwt beam="1">  1       -4 0.14337419E-01 0.89364305E+02</pdfrwt>
<totfact> 0.27004319E+04</totfact>
</mgrwt>
</event>
<event>
 5    1  0.6004828E+000  0.9048733E+02  0.7546771E-02  0.1301676E+00
          1   -1    0    0  501    0  0.00000000000E+00  0.00000000000E+00  0.26880106774E+02  0.26880106774E+02  0.00000000000E+00 0. -1.
         -1   -1    0    0    0  501 -0.00000000000E+00 -0.00000000000E+00 -0.76152561966E+02  0.76152561966E+02  0.00000000000E+00 0.  1.
         23    2    1    2    0    0  0.00000000000E+00  0.00000000000E+00 -0.49272455192E+02  0.10303266874E+03  0.90487325007E+02 0.  0.
        -11    1    3    3    0    0  0.19046035556E+02  0.40128109687E+02 -0.14843089566E+02  0.46833043519E+02  0.00000000000E+00 0. -1.
         11    1    3    3    0    0 -0.19046035556E+02 -0.40128109687E+02 -0.34429365626E+02  0.56199625220E+02  0.00000000000E+00 0.  1.
<mgrwt>
<rscale>  0 0.90487325E+02</rscale>
<asrwt>0</asrwt>
<pdfrwt beam="1">  1        1 0.41354010E-02 0.90487325E+02</pdfrwt>
<pdfrwt beam="2">  1       -1 0.11715779E-01 0.90487325E+02</pdfrwt>
<totfact> 0.87023923E+04</totfact>
</mgrwt>
</event>
<event>
 5    1  0.6004828E+000  0.9224269E+02  0.7546771E-02  0.1297510E+00
          1   -1    0    0  501    0  0.00000000000E+00  0.00000000000E+00  0.15988656616E+03  0.15988656616E+03  0.00000000000E+00 0. -1.
         -1   -1    0    0    0  501 -0.00000000000E+00 -0.00000000000E+00 -0.13304297619E+02  0.13304297619E+02  0.00000000000E+00 0.  1.
         23    2    1    2    0    0  0.00000000000E+00  0.00000000000E+00  0.14658226854E+03  0.17319086378E+03  0.92242689932E+02 0.  0.
        -11    1    3    3    0    0 -0.11451861490E+00 -0.25240727067E+02  0.81475203346E+00  0.25254133093E+02  0.00000000000E+00 0.  1.
         11    1    3    3    0    0  0.11451861490E+00  0.25240727067E+02  0.14576751650E+03  0.14793673068E+03  0.00000000000E+00 0. -1.
<mgrwt>
<rscale>  0 0.92242690E+02</rscale>
<asrwt>0</asrwt>
<pdfrwt beam="1">  1        1 0.24597932E-01 0.92242690E+02</pdfrwt>
<pdfrwt beam="2">  1       -1 0.20468151E-02 0.92242690E+02</pdfrwt>
<totfact> 0.10996246E+05</totfact>
</mgrwt>
</event>
<event>
 5    1  0.6004828E+000  0.8919703E+02  0.7546771E-02  0.1304808E+00
         -1   -1    0    0    0  501 -0.00000000000E+00  0.00000000000E+00  0.90264795536E+01  0.90264795536E+01  0.00000000000E+00 0.  1.
          1   -1    0    0  501    0  0.00000000000E+00 -0.00000000000E+00 -0.22035473158E+03  0.22035473158E+03  0.00000000000E+00 0. -1.
         23    2    1    2    0    0  0.00000000000E+00  0.00000000000E+00 -0.21132825203E+03  0.22938121113E+03  0.89197028631E+02 0.  0.
        -11    1    3    3    0    0 -0.42468571284E+02 -0.93148741831E+01 -0.80118041898E+02  0.91155071529E+02  0.00000000000E+00 0. -1.
         11    1    3    3    0    0  0.42468571284E+02  0.93148741831E+01 -0.13121021013E+03  0.13822613960E+03  0.00000000000E+00 0.  1.
<mgrwt>
<rscale>  0 0.89197029E+02</rscale>
<asrwt>0</asrwt>
<pdfrwt beam="2">  1        1 0.33900730E-01 0.89197029E+02</pdfrwt>
<pdfrwt beam="1">  1       -1 0.13886891E-02 0.89197029E+02</pdfrwt>
<totfact> 0.12795202E+05</totfact>
</mgrwt>
</event>
<event>
 5    1  0.6004828E+000  0.8511585E+02  0.7546771E-02  0.1315130E+00
          2   -1    0    0  501    0  0.00000000000E+00  0.00000000000E+00  0.18352447253E+02  0.18352447253E+02  0.00000000000E+00 0. -1.
         -2   -1    0    0    0  501 -0.00000000000E+00 -0.00000000000E+00 -0.98688575824E+02  0.98688575824E+02  0.00000000000E+00 0.  1.
         23    2    1    2    0    0  0.00000000000E+00  0.00000000000E+00 -0.80336128571E+02  0.11704102308E+03  0.85115847696E+02 0.  0.
        -11    1    3    3    0    0  0.15224124657E+02 -0.26130729292E+02  0.10060358795E+01  0.30258901056E+02  0.00000000000E+00 0. -1.
         11    1    3    3    0    0 -0.15224124657E+02  0.26130729292E+02 -0.81342164451E+02  0.86782122021E+02  0.00000000000E+00 0.  1.
<mgrwt>
<rscale>  0 0.85115848E+02</rscale>
<asrwt>0</asrwt>
<pdfrwt beam="1">  1        2 0.28234533E-02 0.85115848E+02</pdfrwt>
<pdfrwt beam="2">  1       -2 0.15182858E-01 0.85115848E+02</pdfrwt>
<totfact> 0.95063026E+04</totfact>
</mgrwt>
</event>
<event>
 5    1  0.6004828E+000  0.9011783E+02  0.7546771E-02  0.1302567E+00
         -1   -1    0    0    0  501 -0.00000000000E+00  0.00000000000E+00  0.80716516515E+02  0.80716516515E+02  0.00000000000E+00 0.  1.
          1   -1    0    0  501    0  0.00000000000E+00 -0.00000000000E+00 -0.25153534678E+02  0.25153534678E+02  0.00000000000E+00 0. -1.
         23    2    1    2    0    0  0.00000000000E+00  0.00000000000E+00  0.55562981837E+02  0.10587005119E+03  0.90117827255E+02 0.  0.
        -11    1    3    3    0    0  0.42167958411E+02  0.15614647108E+02  0.24386396630E+02  0.51153203824E+02  0.00000000000E+00 0.  1.
         11    1    3    3    0    0 -0.42167958411E+02 -0.15614647108E+02  0.31176585207E+02  0.54716847370E+02  0.00000000000E+00 0. -1.
<mgrwt>
<rscale>  0 0.90117827E+02</rscale>
<asrwt>0</asrwt>
<pdfrwt beam="2">  1        1 0.38697746E-02 0.90117827E+02</pdfrwt>
<pdfrwt beam="1">  1       -1 0.12417926E-01 0.90117827E+02</pdfrwt>
<totfact> 0.87087107E+04</totfact>
</mgrwt>
</event>
<event>
 5    1  0.6004828E+000  0.9383643E+02  0.7546771E-02  0.1293818E+00
         -3   -1    0    0    0  501 -0.00000000000E+00  0.00000000000E+00  0.37388023206E+02  0.37388023206E+02  0.00000000000E+00 0.  1.
          3   -1    0    0  501    0  0.00000000000E+00 -0.00000000000E+00 -0.58877650883E+02  0.58877650883E+02  0.00000000000E+00 0. -1.
         23    2    1    2    0    0  0.00000000000E+00  0.00000000000E+00 -0.21489627676E+02  0.96265674089E+02  0.93836431678E+02 0.  0.
        -11    1    3    3    0    0 -0.13753579840E+02  0.43848810785E+02 -0.10427213538E+01  0.45967014625E+02  0.00000000000E+00 0.  1.
         11    1    3    3    0    0  0.13753579840E+02 -0.43848810785E+02 -0.20446906322E+02  0.50298659464E+02  0.00000000000E+00 0. -1.
<mgrwt>
<rscale>  0 0.93836432E+02</rscale>
<asrwt>0</asrwt>
<pdfrwt beam="2">  1        3 0.90581001E-02 0.93836432E+02</pdfrwt>
<pdfrwt beam="1">  1       -3 0.57520036E-02 0.93836432E+02</pdfrwt>
<totfact> 0.32311118E+04</totfact>
</mgrwt>
</event>
<event>
 5    1  0.6004828E+000  0.9352801E+02  0.7546771E-02  0.1294526E+00
         -2   -1    0    0    0  501 -0.00000000000E+00  0.00000000000E+00  0.61788106926E+01  0.61788106926E+01  0.00000000000E+00 0.  1.
          2   -1    0    0  501    0  0.00000000000E+00 -0.00000000000E+00 -0.35393090663E+03  0.35393090663E+03  0.00000000000E+00 0. -1.
         23    2    1    2    0    0  0.00000000000E+00  0.00000000000E+00 -0.34775209594E+03  0.36010971732E+03  0.93528008004E+02 0.  0.
        -11    1    3    3    0    0  0.15147397297E+02 -0.44220914475E+02 -0.16851439525E+03  0.17487719785E+03  0.00000000000E+00 0. -1.
         11    1    3    3    0    0 -0.15147397297E+02  0.44220914475E+02 -0.17923770068E+03  0.18523251947E+03  0.00000000000E+00 0.  1.
<mgrwt>
<rscale>  0 0.93528008E+02</rscale>
<asrwt>0</asrwt>
<pdfrwt beam="2">  1        2 0.54450910E-01 0.93528008E+02</pdfrwt>
<pdfrwt beam="1">  1       -2 0.95058623E-03 0.93528008E+02</pdfrwt>
<totfact> 0.17844643E+05</totfact>
</mgrwt>
</event>
<event>
 5    1  0.6004828E+000  0.9017566E+02  0.7546771E-02  0.1302427E+00
         -3   -1    0    0    0  501 -0.00000000000E+00  0.00000000000E+00  0.14828690259E+03  0.14828690259E+03  0.00000000000E+00 0.  1.
          3   -1    0    0  501    0  0.00000000000E+00 -0.00000000000E+00 -0.13709320029E+02  0.13709320029E+02  0.00000000000E+00 0. -1.
         23    2    1    2    0    0  0.00000000000E+00  0.00000000000E+00  0.13457758256E+03  0.16199622262E+03  0.90175664204E+02 0.  0.
        -11    1    3    3    0    0 -0.32233107867E+02 -0.15252667188E+01  0.10718732905E+02  0.34002807478E+02  0.00000000000E+00 0. -1.
         11    1    3    3    0    0  0.32233107867E+02  0.15252667188E+01  0.12385884965E+03  0.12799341514E+03  0.00000000000E+00 0.  1.
<mgrwt>
<rscale>  0 0.90175664E+02</rscale>
<asrwt>0</asrwt>
<pdfrwt beam="2">  1        3 0.21091263E-02 0.90175664E+02</pdfrwt>
<pdfrwt beam="1">  1       -3 0.22813369E-01 0.90175664E+02</pdfrwt>
<totfact> 0.31515402E+04</totfact>
</mgrwt>
</event>
<event>
 5    1  0.6004828E+000  0.9175770E+02  0.7546771E-02  0.1298650E+00
          1   -1    0    0  501    0  0.00000000000E+00  0.00000000000E+00  0.12090387448E+03  0.12090387448E+03  0.00000000000E+00 0. -1.
         -1   -1    0    0    0  501 -0.00000000000E+00 -0.00000000000E+00 -0.17409439850E+02  0.17409439850E+02  0.00000000000E+00 0.  1.
         23    2    1    2    0    0  0.00000000000E+00  0.00000000000E+00  0.10349443463E+03  0.13831331433E+03  0.91757696799E+02 0.  0.
        -11    1    3    3    0    0  0.21745140622E+02  0.78997443797E+00 -0.91364567297E+01  0.23599789022E+02  0.00000000000E+00 0.  1.
         11    1    3    3    0    0 -0.21745140622E+02 -0.78997443797E+00  0.11263089136E+03  0.11471352531E+03  0.00000000000E+00 0. -1.
<mgrwt>
<rscale>  0 0.91757697E+02</rscale>
<asrwt>0</asrwt>
<pdfrwt beam="1">  1        1 0.18600596E-01 0.91757697E+02</pdfrwt>
<pdfrwt beam="2">  1       -1 0.26783754E-02 0.91757697E+02</pdfrwt>
<totfact> 0.10603530E+05</totfact>
</mgrwt>
</event>
<event>
 5    1  0.6004828E+000  0.9791687E+02  0.7546771E-02  0.1284738E+00
          1   -1    0    0  501    0  0.00000000000E+00  0.00000000000E+00  0.33384122259E+03  0.33384122259E+03  0.00000000000E+00 0. -1.
         -1   -1    0    0    0  501 -0.00000000000E+00 -0.00000000000E+00 -0.71798449011E+01  0.71798449011E+01  0.00000000000E+00 0.  1.
         23    2    1    2    0    0  0.00000000000E+00  0.00000000000E+00  0.32666137769E+03  0.34102106749E+03  0.97916866776E+02 0.  0.
        -11    1    3    3    0    0  0.45192427981E+02  0.18673099695E+02  0.17178167965E+03  0.17860567086E+03  0.00000000000E+00 0.  1.
         11    1    3    3    0    0 -0.45192427981E+02 -0.18673099695E+02  0.15487969804E+03  0.16241539663E+03  0.00000000000E+00 0. -1.
<mgrwt>
<rscale>  0 0.97916867E+02</rscale>
<asrwt>0</asrwt>
<pdfrwt beam="1">  1        1 0.51360176E-01 0.97916867E+02</pdfrwt>
<pdfrwt beam="2">  1       -1 0.11045918E-02 0.97916867E+02</pdfrwt>
<totfact> 0.10803316E+05</totfact>
</mgrwt>
</event>
<event>
 5    1  0.6004828E+000  0.9095118E+02  0.7546771E-02  0.1300564E+00
         -2   -1    0    0    0  501 -0.00000000000E+00  0.00000000000E+00  0.59268056529E+01  0.59268056529E+01  0.00000000000E+00 0.  1.
          2   -1    0    0  501    0  0.00000000000E+00 -0.00000000000E+00 -0.34892817315E+03  0.34892817315E+03  0.00000000000E+00 0. -1.
         23    2    1    2    0    0  0.00000000000E+00  0.00000000000E+00 -0.34300136749E+03  0.35485497880E+03  0.90951184029E+02 0.  0.
        -11    1    3    3    0    0  0.25210821822E+02  0.33257703004E+02 -0.24198574444E+03  0.24555806005E+03  0.00000000000E+00 0. -1.
         11    1    3    3    0    0 -0.25210821822E+02 -0.33257703004E+02 -0.10101562306E+03  0.10929691875E+03  0.00000000000E+00 0.  1.
<mgrwt>
<rscale>  0 0.90951184E+02</rscale>
<asrwt>0</asrwt>
<pdfrwt beam="2">  1        2 0.53681247E-01 0.90951184E+02</pdfrwt>
<pdfrwt beam="1">  1       -2 0.91181643E-03 0.90951184E+02</pdfrwt>
<totfact> 0.19124019E+05</totfact>
</mgrwt>
</event>
<event>
 5    1  0.6004828E+000  0.9029304E+02  0.7546771E-02  0.1302144E+00
         -1   -1    0    0    0  501 -0.00000000000E+00  0.00000000000E+00  0.15313640330E+03  0.15313640330E+03  0.00000000000E+00 0.  1.
          1   -1    0    0  501    0  0.00000000000E+00 -0.00000000000E+00 -0.13309756487E+02  0.13309756487E+02  0.00000000000E+00 0. -1.
         23    2    1    2    0    0  0.00000000000E+00  0.00000000000E+00  0.13982664681E+03  0.16644615979E+03  0.90293039314E+02 0.  0.
        -11    1    3    3    0    0  0.13499937915E+02 -0.40429053823E+02  0.42481236942E+02  0.60178170534E+02  0.00000000000E+00 0. -1.
         11    1    3    3    0    0 -0.13499937915E+02  0.40429053823E+02  0.97345409871E+02  0.10626798925E+03  0.00000000000E+00 0.  1.
<mgrwt>
<rscale>  0 0.90293039E+02</rscale>
<asrwt>0</asrwt>
<pdfrwt beam="2">  1        1 0.20476550E-02 0.90293039E+02</pdfrwt>
<pdfrwt beam="1">  1       -1 0.23559445E-01 0.90293039E+02</pdfrwt>
<totfact> 0.76329095E+04</totfact>
</mgrwt>
</event>
<event>
 5    1  0.6004828E+000  0.8655335E+02  0.7546771E-02  0.1311420E+00
         -1   -1    0    0    0  501 -0.00000000000E+00  0.00000000000E+00  0.77838993072E+02  0.77838993072E+02  0.00000000000E+00 0.  1.
          1   -1    0    0  501    0  0.00000000000E+00 -0.00000000000E+00 -0.24060826625E+02  0.24060826625E+02  0.00000000000E+00 0. -1.
         23    2    1    2    0    0  0.00000000000E+00  0.00000000000E+00  0.53778166447E+02  0.10189981970E+03  0.86553348104E+02 0.  0.
        -11    1    3    3    0    0  0.14357927699E+02 -0.64895195336E+01  0.74342080107E+02  0.75993478840E+02  0.00000000000E+00 0.  1.
         11    1    3    3    0    0 -0.14357927699E+02  0.64895195336E+01 -0.20563913660E+02  0.25906340857E+02  0.00000000000E+00 0. -1.
<mgrwt>
<rscale>  0 0.86553348E+02</rscale>
<asrwt>0</asrwt>
<pdfrwt beam="2">  1        1 0.37016657E-02 0.86553348E+02</pdfrwt>
<pdfrwt beam="1">  1       -1 0.11975230E-01 0.86553348E+02</pdfrwt>
<totfact> 0.97130252E+04</totfact>
</mgrwt>
</event>
<event>
 5    1  0.6004828E+000  0.9674417E+02  0.7546771E-02  0.1287295E+00
          1   -1    0    0  501    0  0.00000000000E+00  0.00000000000E+00  0.98559821454E+02  0.98559821454E+02  0.00000000000E+00 0. -1.
         -1   -1    0    0    0  501 -0.00000000000E+00 -0.00000000000E+00 -0.23740489588E+02  0.23740489588E+02  0.00000000000E+00 0.  1.
         23    2    1    2    0    0  0.00000000000E+00  0.00000000000E+00  0.74819331866E+02  0.12230031104E+03  0.96744166027E+02 0.  0.
        -11    1    3    3    0    0 -0.17384113729E+02  0.41938899215E+02  0.58516999760E+02  0.74062932283E+02  0.00000000000E+00 0. -1.
         11    1    3    3    0    0  0.17384113729E+02 -0.41938899215E+02  0.16302332106E+02  0.48237378759E+02  0.00000000000E+00 0.  1.
<mgrwt>
<rscale>  0 0.96744166E+02</rscale>
<asrwt>0</asrwt>
<pdfrwt beam="1">  1        1 0.15163049E-01 0.96744166E+02</pdfrwt>
<pdfrwt beam="2">  1       -1 0.36523831E-02 0.96744166E+02</pdfrwt>
<totfact> 0.88581729E+04</totfact>
</mgrwt>
</event>
<event>
 5    1  0.6004828E+000  0.8752145E+02  0.7546771E-02  0.1308967E+00
          2   -1    0    0  501    0  0.00000000000E+00  0.00000000000E+00  0.18470039334E+02  0.18470039334E+02  0.00000000000E+00 0. -1.
         -2   -1    0    0    0  501 -0.00000000000E+00 -0.00000000000E+00 -0.10368147660E+03  0.10368147660E+03  0.00000000000E+00 0.  1.
         23    2    1    2    0    0  0.00000000000E+00  0.00000000000E+00 -0.85211437266E+02  0.12215151593E+03  0.87521447681E+02 0.  0.
        -11    1    3    3    0    0  0.10801373745E+01 -0.24971646444E+02 -0.92738464469E+02  0.96047762154E+02  0.00000000000E+00 0.  1.
         11    1    3    3    0    0 -0.10801373745E+01  0.24971646444E+02  0.75270272032E+01  0.26103753779E+02  0.00000000000E+00 0. -1.
<mgrwt>
<rscale>  0 0.87521448E+02</rscale>
<asrwt>0</asrwt>
<pdfrwt beam="1">  1        2 0.28415445E-02 0.87521448E+02</pdfrwt>
<pdfrwt beam="2">  1       -2 0.15950997E-01 0.87521448E+02</pdfrwt>
<totfact> 0.87415649E+04</totfact>
</mgrwt>
</event>
<event>
 5    1  0.6004828E+000  0.8800164E+02  0.7546771E-02  0.1307764E+00
          2   -1    0    0  501    0  0.00000000000E+00  0.00000000000E+00  0.14585854047E+02  0.14585854047E+02  0.00000000000E+00 0.  1.
         -2   -1    0    0    0  501 -0.00000000000E+00 -0.00000000000E+00 -0.13273627900E+03  0.13273627900E+03  0.00000000000E+00 0. -1.
         23    2    1    2    0    0  0.00000000000E+00  0.00000000000E+00 -0.11815042496E+03  0.14732213305E+03  0.88001636173E+02 0.  0.
        -11    1    3    3    0    0 -0.21461898868E+02  0.32752898291E+02 -0.92669976455E+02  0.10060362809E+03  0.00000000000E+00 0. -1.
         11    1    3    3    0    0  0.21461898868E+02 -0.32752898291E+02 -0.25480448501E+02  0.46718504956E+02  0.00000000000E+00 0.  1.
<mgrwt>
<rscale>  0 0.88001636E+02</rscale>
<asrwt>0</asrwt>
<pdfrwt beam="1">  1        2 0.22439775E-02 0.88001636E+02</pdfrwt>
<pdfrwt beam="2">  1       -2 0.20420966E-01 0.88001636E+02</pdfrwt>
<totfact> 0.79738891E+04</totfact>
</mgrwt>
</event>
<event>
 5    1  0.6004828E+000  0.9140924E+02  0.7546771E-02  0.1299474E+00
          2   -1    0    0  501    0  0.00000000000E+00  0.00000000000E+00  0.48532718904E+02  0.48532718904E+02  0.00000000000E+00 0. -1.
         -2   -1    0    0    0  501 -0.00000000000E+00 -0.00000000000E+00 -0.43041317213E+02  0.43041317213E+02  0.00000000000E+00 0.  1.
         23    2    1    2    0    0  0.00000000000E+00  0.00000000000E+00  0.54914016910E+01  0.91574036117E+02  0.91409236941E+02 0.  0.
        -11    1    3    3    0    0 -0.32054777254E+01  0.95115043330E+01  0.47414970335E+02  0.48465691102E+02  0.00000000000E+00 0. -1.
         11    1    3    3    0    0  0.32054777254E+01 -0.95115043330E+01 -0.41923568644E+02  0.43108345015E+02  0.00000000000E+00 0.  1.
<mgrwt>
<rscale>  0 0.91409237E+02</rscale>
<asrwt>0</asrwt>
<pdfrwt beam="1">  1        2 0.74665721E-02 0.91409237E+02</pdfrwt>
<pdfrwt beam="2">  1       -2 0.66217411E-02 0.91409237E+02</pdfrwt>
<totfact> 0.99566222E+04</totfact>
</mgrwt>
</event>
<event>
 5    1  0.6004828E+000  0.8962129E+02  0.7546771E-02  0.1303771E+00
          1   -1    0    0  501    0  0.00000000000E+00  0.00000000000E+00  0.16245171738E+03  0.16245171738E+03  0.00000000000E+00 0. -1.
         -1   -1    0    0    0  501 -0.00000000000E+00 -0.00000000000E+00 -0.12360558957E+02  0.12360558957E+02  0.00000000000E+00 0.  1.
         23    2    1    2    0    0  0.00000000000E+00  0.00000000000E+00  0.15009115842E+03  0.17481227634E+03  0.89621292789E+02 0.  0.
        -11    1    3    3    0    0 -0.25691570439E+02 -0.36036996068E+02  0.61353749349E+02  0.75650541547E+02  0.00000000000E+00 0. -1.
         11    1    3    3    0    0  0.25691570439E+02  0.36036996068E+02  0.88737409075E+02  0.99161734790E+02  0.00000000000E+00 0.  1.
<mgrwt>
<rscale>  0 0.89621293E+02</rscale>
<asrwt>0</asrwt>
<pdfrwt beam="1">  1        1 0.24992570E-01 0.89621293E+02</pdfrwt>
<pdfrwt beam="2">  1       -1 0.19016246E-02 0.89621293E+02</pdfrwt>
<totfact> 0.11919037E+05</totfact>
</mgrwt>
</event>
<event>
 5    1  0.6004828E+000  0.9024359E+02  0.7546771E-02  0.1302263E+00
         -2   -1    0    0    0  501 -0.00000000000E+00  0.00000000000E+00  0.24624660553E+02  0.24624660553E+02  0.00000000000E+00 0.  1.
          2   -1    0    0  501    0  0.00000000000E+00 -0.00000000000E+00 -0.82680374853E+02  0.82680374853E+02  0.00000000000E+00 0. -1.
         23    2    1    2    0    0  0.00000000000E+00  0.00000000000E+00 -0.58055714300E+02  0.10730503541E+03  0.90243585150E+02 0.  0.
        -11    1    3    3    0    0 -0.18340677156E+01  0.43412422193E+02 -0.43492123489E+02  0.61478183209E+02  0.00000000000E+00 0.  1.
         11    1    3    3    0    0  0.18340677156E+01 -0.43412422193E+02 -0.14563590811E+02  0.45826852198E+02  0.00000000000E+00 0. -1.
<mgrwt>
<rscale>  0 0.90243585E+02</rscale>
<asrwt>0</asrwt>
<pdfrwt beam="2">  1        2 0.12720058E-01 0.90243585E+02</pdfrwt>
<pdfrwt beam="1">  1       -2 0.37884093E-02 0.90243585E+02</pdfrwt>
<totfact> 0.11930142E+05</totfact>
</mgrwt>
</event>
<event>
 5    1  0.6004828E+000  0.8835048E+02  0.7546771E-02  0.1306896E+00
          3   -1    0    0  501    0  0.00000000000E+00  0.00000000000E+00  0.13897586107E+03  0.13897586107E+03  0.00000000000E+00 0. -1.
         -3   -1    0    0    0  501 -0.00000000000E+00 -0.00000000000E+00 -0.14041659807E+02  0.14041659807E+02  0.00000000000E+00 0.  1.
         23    2    1    2    0    0  0.00000000000E+00  0.00000000000E+00  0.12493420126E+03  0.15301752088E+03  0.88350478495E+02 0.  0.
        -11    1    3    3    0    0 -0.22693279510E+02  0.17464367087E+02  0.42095289571E+01  0.28943206227E+02  0.00000000000E+00 0.  1.
         11    1    3    3    0    0  0.22693279510E+02 -0.17464367087E+02  0.12072467231E+03  0.12407431465E+03  0.00000000000E+00 0. -1.
<mgrwt>
<rscale>  0 0.88350478E+02</rscale>
<asrwt>0</asrwt>
<pdfrwt beam="1">  1        3 0.21380901E-01 0.88350478E+02</pdfrwt>
<pdfrwt beam="2">  1       -3 0.21602554E-02 0.88350478E+02</pdfrwt>
<totfact> 0.33883772E+04</totfact>
</mgrwt>
</event>
<event>
 5    1  0.6004828E+000  0.9064296E+02  0.7546771E-02  0.1301302E+00
         -2   -1    0    0    0  501 -0.00000000000E+00  0.00000000000E+00  0.19065819106E+03  0.19065819106E+03  0.00000000000E+00 0.  1.
          2   -1    0    0  501    0  0.00000000000E+00 -0.00000000000E+00 -0.10773398445E+02  0.10773398445E+02  0.00000000000E+00 0. -1.
         23    2    1    2    0    0  0.00000000000E+00  0.00000000000E+00  0.17988479262E+03  0.20143158951E+03  0.90642962422E+02 0.  0.
        -11    1    3    3    0    0 -0.31203767579E+02 -0.24817210508E+02  0.42049488493E+02  0.57945910391E+02  0.00000000000E+00 0. -1.
         11    1    3    3    0    0  0.31203767579E+02  0.24817210508E+02  0.13783530413E+03  0.14348567912E+03  0.00000000000E+00 0.  1.
<mgrwt>
<rscale>  0 0.90642962E+02</rscale>
<asrwt>0</asrwt>
<pdfrwt beam="2">  1        2 0.16574461E-02 0.90642962E+02</pdfrwt>
<pdfrwt beam="1">  1       -2 0.29332027E-01 0.90642962E+02</pdfrwt>
<totfact> 0.64563408E+04</totfact>
</mgrwt>
</event>
<event>
 5    1  0.6004828E+000  0.8954268E+02  0.7546771E-02  0.1303963E+00
         -2   -1    0    0    0  501 -0.00000000000E+00  0.00000000000E+00  0.59777267768E+02  0.59777267768E+02  0.00000000000E+00 0.  1.
          2   -1    0    0  501    0  0.00000000000E+00 -0.00000000000E+00 -0.33532357138E+02  0.33532357138E+02  0.00000000000E+00 0. -1.
         23    2    1    2    0    0  0.00000000000E+00  0.00000000000E+00  0.26244910630E+02  0.93309624907E+02  0.89542675671E+02 0.  0.
        -11    1    3    3    0    0  0.30771639247E+02  0.27085837462E+02  0.31877849540E+02  0.51930084385E+02  0.00000000000E+00 0.  1.
         11    1    3    3    0    0 -0.30771639247E+02 -0.27085837462E+02 -0.56329389099E+01  0.41379540521E+02  0.00000000000E+00 0. -1.
<mgrwt>
<rscale>  0 0.89542676E+02</rscale>
<asrwt>0</asrwt>
<pdfrwt beam="2">  1        2 0.51588242E-02 0.89542676E+02</pdfrwt>
<pdfrwt beam="1">  1       -2 0.91965027E-02 0.89542676E+02</pdfrwt>
<totfact> 0.96068564E+04</totfact>
</mgrwt>
</event>
<event>
 5    1  0.6004828E+000  0.9199390E+02  0.7546771E-02  0.1298094E+00
         -1   -1    0    0    0  501 -0.00000000000E+00  0.00000000000E+00  0.97932335498E+01  0.97932335498E+01  0.00000000000E+00 0.  1.
          1   -1    0    0  501    0  0.00000000000E+00 -0.00000000000E+00 -0.21603889710E+03  0.21603889710E+03  0.00000000000E+00 0. -1.
         23    2    1    2    0    0  0.00000000000E+00  0.00000000000E+00 -0.20624566355E+03  0.22583213065E+03  0.91993899258E+02 0.  0.
        -11    1    3    3    0    0  0.23427641750E+02  0.21120836168E+02 -0.18530658517E+03  0.18797200490E+03  0.00000000000E+00 0. -1.
         11    1    3    3    0    0 -0.23427641750E+02 -0.21120836168E+02 -0.20939078379E+02  0.37860125749E+02  0.00000000000E+00 0.  1.
<mgrwt>
<rscale>  0 0.91993899E+02</rscale>
<asrwt>0</asrwt>
<pdfrwt beam="2">  1        1 0.33236750E-01 0.91993899E+02</pdfrwt>
<pdfrwt beam="1">  1       -1 0.15066514E-02 0.91993899E+02</pdfrwt>
<totfact> 0.11735513E+05</totfact>
</mgrwt>
</event>
<event>
 5    1  0.6004828E+000  0.9073548E+02  0.7546771E-02  0.1301080E+00
         -4   -1    0    0    0  501 -0.00000000000E+00  0.00000000000E+00  0.23361367588E+02  0.23361367588E+02  0.00000000000E+00 0.  1.
          4   -1    0    0  501    0  0.00000000000E+00 -0.00000000000E+00 -0.88104079730E+02  0.88104079730E+02  0.00000000000E+00 0. -1.
         23    2    1    2    0    0  0.00000000000E+00  0.00000000000E+00 -0.64742712142E+02  0.11146544732E+03  0.90735479115E+02 0.  0.
        -11    1    3    3    0    0 -0.11665551946E+02  0.34588755696E+02  0.72354124050E+00  0.36510144272E+02  0.00000000000E+00 0.  1.
         11    1    3    3    0    0  0.11665551946E+02 -0.34588755696E+02 -0.65466253382E+02  0.74955303046E+02  0.00000000000E+00 0. -1.
<mgrwt>
<rscale>  0 0.90735479E+02</rscale>
<asrwt>0</asrwt>
<pdfrwt beam="2">  1        4 0.13554474E-01 0.90735479E+02</pdfrwt>
<pdfrwt beam="1">  1       -4 0.35940565E-02 0.90735479E+02</pdfrwt>
<totfact> 0.26106094E+04</totfact>
</mgrwt>
</event>
<event>
 5    1  0.6004828E+000  0.8124943E+02  0.7546771E-02  0.1325543E+00
          3   -1    0    0  501    0  0.00000000000E+00  0.00000000000E+00  0.12299601757E+02  0.12299601757E+02  0.00000000000E+00 0. -1.
         -3   -1    0    0    0  501 -0.00000000000E+00 -0.00000000000E+00 -0.13418057433E+03  0.13418057433E+03  0.00000000000E+00 0.  1.
         23    2    1    2    0    0  0.00000000000E+00  0.00000000000E+00 -0.12188097258E+03  0.14648017609E+03  0.81249433914E+02 0.  0.
        -11    1    3    3    0    0  0.38382170895E+02 -0.49902637212E+01 -0.83187472126E+02  0.91751017941E+02  0.00000000000E+00 0.  1.
         11    1    3    3    0    0 -0.38382170895E+02  0.49902637212E+01 -0.38693500451E+02  0.54729158150E+02  0.00000000000E+00 0. -1.
<mgrwt>
<rscale>  0 0.81249434E+02</rscale>
<asrwt>0</asrwt>
<pdfrwt beam="1">  1        3 0.18922464E-02 0.81249434E+02</pdfrwt>
<pdfrwt beam="2">  1       -3 0.20643166E-01 0.81249434E+02</pdfrwt>
<totfact> 0.42973302E+04</totfact>
</mgrwt>
</event>
<event>
 5    1  0.6004828E+000  0.9267131E+02  0.7546771E-02  0.1296509E+00
          1   -1    0    0  501    0  0.00000000000E+00  0.00000000000E+00  0.10272978923E+02  0.10272978923E+02  0.00000000000E+00 0. -1.
         -1   -1    0    0    0  501 -0.00000000000E+00 -0.00000000000E+00 -0.20899419418E+03  0.20899419418E+03  0.00000000000E+00 0.  1.
         23    2    1    2    0    0  0.00000000000E+00  0.00000000000E+00 -0.19872121526E+03  0.21926717310E+03  0.92671310595E+02 0.  0.
        -11    1    3    3    0    0  0.19939926086E+02  0.26222778799E+02 -0.22262961544E+02  0.39760209217E+02  0.00000000000E+00 0. -1.
         11    1    3    3    0    0 -0.19939926086E+02 -0.26222778799E+02 -0.17645825371E+03  0.17950696389E+03  0.00000000000E+00 0.  1.
<mgrwt>
<rscale>  0 0.92671311E+02</rscale>
<asrwt>0</asrwt>
<pdfrwt beam="1">  1        1 0.15804583E-02 0.92671311E+02</pdfrwt>
<pdfrwt beam="2">  1       -1 0.32152953E-01 0.92671311E+02</pdfrwt>
<totfact> 0.65694651E+04</totfact>
</mgrwt>
</event>
<event>
 5    1  0.6004828E+000  0.8934112E+02  0.7546771E-02  0.1304455E+00
         -1   -1    0    0    0  501 -0.00000000000E+00  0.00000000000E+00  0.18789072292E+02  0.18789072292E+02  0.00000000000E+00 0.  1.
          1   -1    0    0  501    0  0.00000000000E+00 -0.00000000000E+00 -0.10620315580E+03  0.10620315580E+03  0.00000000000E+00 0. -1.
         23    2    1    2    0    0  0.00000000000E+00  0.00000000000E+00 -0.87414083504E+02  0.12499222809E+03  0.89341116444E+02 0.  0.
        -11    1    3    3    0    0  0.13511767195E+02  0.23741440156E+02  0.57415235471E+01  0.27913955758E+02  0.00000000000E+00 0.  1.
         11    1    3    3    0    0 -0.13511767195E+02 -0.23741440156E+02 -0.93155607051E+02  0.97078272330E+02  0.00000000000E+00 0. -1.
<mgrwt>
<rscale>  0 0.89341116E+02</rscale>
<asrwt>0</asrwt>
<pdfrwt beam="2">  1        1 0.16338947E-01 0.89341116E+02</pdfrwt>
<pdfrwt beam="1">  1       -1 0.28906266E-02 0.89341116E+02</pdfrwt>
<totfact> 0.11150168E+05</totfact>
</mgrwt>
</event>
<event>
 5    1  0.6004828E+000  0.9223413E+02  0.7546771E-02  0.1297530E+00
          3   -1    0    0  501    0  0.00000000000E+00  0.00000000000E+00  0.24009592829E+02  0.24009592829E+02  0.00000000000E+00 0. -1.
         -3   -1    0    0    0  501 -0.00000000000E+00 -0.00000000000E+00 -0.88580582690E+02  0.88580582690E+02  0.00000000000E+00 0.  1.
         23    2    1    2    0    0  0.00000000000E+00  0.00000000000E+00 -0.64570989862E+02  0.11259017552E+03  0.92234130839E+02 0.  0.
        -11    1    3    3    0    0  0.88158772576E+01 -0.43159707227E+02 -0.15623784580E+02  0.46739519299E+02  0.00000000000E+00 0. -1.
         11    1    3    3    0    0 -0.88158772576E+01  0.43159707227E+02 -0.48947205281E+02  0.65850656220E+02  0.00000000000E+00 0.  1.
<mgrwt>
<rscale>  0 0.92234131E+02</rscale>
<asrwt>0</asrwt>
<pdfrwt beam="1">  1        3 0.36937836E-02 0.92234131E+02</pdfrwt>
<pdfrwt beam="2">  1       -3 0.13627782E-01 0.92234131E+02</pdfrwt>
<totfact> 0.32718808E+04</totfact>
</mgrwt>
</event>
<event>
 5    1  0.6004828E+000  0.7355324E+02  0.7546771E-02  0.1348411E+00
          1   -1    0    0  501    0  0.00000000000E+00  0.00000000000E+00  0.18787426635E+02  0.18787426635E+02  0.00000000000E+00 0. -1.
         -1   -1    0    0    0  501 -0.00000000000E+00 -0.00000000000E+00 -0.71990684704E+02  0.71990684704E+02  0.00000000000E+00 0.  1.
         23    2    1    2    0    0  0.00000000000E+00  0.00000000000E+00 -0.53203258070E+02  0.90778111339E+02  0.73553238059E+02 0.  0.
        -11    1    3    3    0    0  0.16596720586E+02 -0.28436818484E+02 -0.63815202510E+01  0.33538449285E+02  0.00000000000E+00 0.  1.
         11    1    3    3    0    0 -0.16596720586E+02  0.28436818484E+02 -0.46821737819E+02  0.57239662054E+02  0.00000000000E+00 0. -1.
<mgrwt>
<rscale>  0 0.73553238E+02</rscale>
<asrwt>0</asrwt>
<pdfrwt beam="1">  1        1 0.28903733E-02 0.73553238E+02</pdfrwt>
<pdfrwt beam="2">  1       -1 0.11075490E-01 0.73553238E+02</pdfrwt>
<totfact> 0.14876224E+05</totfact>
</mgrwt>
</event>
<event>
 5    1  0.6004828E+000  0.9190030E+02  0.7546771E-02  0.1298314E+00
          1   -1    0    0  501    0  0.00000000000E+00  0.00000000000E+00  0.13208613764E+03  0.13208613764E+03  0.00000000000E+00 0. -1.
         -1   -1    0    0    0  501 -0.00000000000E+00 -0.00000000000E+00 -0.15985145597E+02  0.15985145597E+02  0.00000000000E+00 0.  1.
         23    2    1    2    0    0  0.00000000000E+00  0.00000000000E+00  0.11610099205E+03  0.14807128324E+03  0.91900296877E+02 0.  0.
        -11    1    3    3    0    0 -0.34664564127E+02 -0.24236981516E+02  0.86978581449E+02  0.96717821057E+02  0.00000000000E+00 0. -1.
         11    1    3    3    0    0  0.34664564127E+02  0.24236981516E+02  0.29122410596E+02  0.51353462182E+02  0.00000000000E+00 0.  1.
<mgrwt>
<rscale>  0 0.91900297E+02</rscale>
<asrwt>0</asrwt>
<pdfrwt beam="1">  1        1 0.20320944E-01 0.91900297E+02</pdfrwt>
<pdfrwt beam="2">  1       -1 0.24592533E-02 0.91900297E+02</pdfrwt>
<totfact> 0.10725610E+05</totfact>
</mgrwt>
</event>
<event>
 5    1  0.6004828E+000  0.8850808E+02  0.7546771E-02  0.1306505E+00
          1   -1    0    0  501    0  0.00000000000E+00  0.00000000000E+00  0.17146009249E+03  0.17146009249E+03  0.00000000000E+00 0. -1.
         -1   -1    0    0    0  501 -0.00000000000E+00 -0.00000000000E+00 -0.11422017892E+02  0.11422017892E+02  0.00000000000E+00 0.  1.
         23    2    1    2    0    0  0.00000000000E+00  0.00000000000E+00  0.16003807460E+03  0.18288211038E+03  0.88508084244E+02 0.  0.
        -11    1    3    3    0    0  0.35163764807E+02  0.19647487247E+02  0.42148867610E+02  0.58301296309E+02  0.00000000000E+00 0.  1.
         11    1    3    3    0    0 -0.35163764807E+02 -0.19647487247E+02  0.11788920699E+03  0.12458081408E+03  0.00000000000E+00 0. -1.
<mgrwt>
<rscale>  0 0.88508084E+02</rscale>
<asrwt>0</asrwt>
<pdfrwt beam="1">  1        1 0.26378474E-01 0.88508084E+02</pdfrwt>
<pdfrwt beam="2">  1       -1 0.17572336E-02 0.88508084E+02</pdfrwt>
<totfact> 0.12449981E+05</totfact>
</mgrwt>
</event>
<event>
 5    1  0.6004828E+000  0.8949813E+02  0.7546771E-02  0.1304072E+00
         -1   -1    0    0    0  501 -0.00000000000E+00  0.00000000000E+00  0.57408412694E+01  0.57408412694E+01  0.00000000000E+00 0.  1.
          1   -1    0    0  501    0  0.00000000000E+00 -0.00000000000E+00 -0.34881281295E+03  0.34881281295E+03  0.00000000000E+00 0. -1.
         23    2    1    2    0    0  0.00000000000E+00  0.00000000000E+00 -0.34307197168E+03  0.35455365421E+03  0.89498133877E+02 0.  0.
        -11    1    3    3    0    0  0.32955441499E+02  0.24529727575E+02 -0.10125732348E+03  0.10927403268E+03  0.00000000000E+00 0.  1.
         11    1    3    3    0    0 -0.32955441499E+02 -0.24529727575E+02 -0.24181464819E+03  0.24527962154E+03  0.00000000000E+00 0. -1.
<mgrwt>
<rscale>  0 0.89498134E+02</rscale>
<asrwt>0</asrwt>
<pdfrwt beam="2">  1        1 0.53663511E-01 0.89498134E+02</pdfrwt>
<pdfrwt beam="1">  1       -1 0.88320633E-03 0.89498134E+02</pdfrwt>
<totfact> 0.13841729E+05</totfact>
</mgrwt>
</event>
<event>
 5    1  0.6004828E+000  0.9141051E+02  0.7546771E-02  0.1299471E+00
          2   -1    0    0  501    0  0.00000000000E+00  0.00000000000E+00  0.43705013354E+02  0.43705013354E+02  0.00000000000E+00 0. -1.
         -2   -1    0    0    0  501 -0.00000000000E+00 -0.00000000000E+00 -0.47797039935E+02  0.47797039935E+02  0.00000000000E+00 0.  1.
         23    2    1    2    0    0  0.00000000000E+00  0.00000000000E+00 -0.40920265807E+01  0.91502053289E+02  0.91410508556E+02 0.  0.
        -11    1    3    3    0    0  0.42517192815E+02  0.15790728661E+02 -0.77006946080E+01  0.46003907377E+02  0.00000000000E+00 0.  1.
         11    1    3    3    0    0 -0.42517192815E+02 -0.15790728661E+02  0.36086680273E+01  0.45498145912E+02  0.00000000000E+00 0. -1.
<mgrwt>
<rscale>  0 0.91410509E+02</rscale>
<asrwt>0</asrwt>
<pdfrwt beam="1">  1        2 0.67238482E-02 0.91410509E+02</pdfrwt>
<pdfrwt beam="2">  1       -2 0.73533907E-02 0.91410509E+02</pdfrwt>
<totfact> 0.96883750E+04</totfact>
</mgrwt>
</event>
<event>
 5    1  0.6004828E+000  0.9074019E+02  0.7546771E-02  0.1301069E+00
         -2   -1    0    0    0  501 -0.00000000000E+00  0.00000000000E+00  0.84398224936E+01  0.84398224936E+01  0.00000000000E+00 0.  1.
          2   -1    0    0  501    0  0.00000000000E+00 -0.00000000000E+00 -0.24389678017E+03  0.24389678017E+03  0.00000000000E+00 0. -1.
         23    2    1    2    0    0  0.00000000000E+00  0.00000000000E+00 -0.23545695768E+03  0.25233660266E+03  0.90740190245E+02 0.  0.
        -11    1    3    3    0    0 -0.25865454524E+02  0.32738649307E+02 -0.16728764403E+03  0.17241228709E+03  0.00000000000E+00 0. -1.
         11    1    3    3    0    0  0.25865454524E+02 -0.32738649307E+02 -0.68169313651E+02  0.79924315573E+02  0.00000000000E+00 0.  1.
<mgrwt>
<rscale>  0 0.90740190E+02</rscale>
<asrwt>0</asrwt>
<pdfrwt beam="2">  1        2 0.37522577E-01 0.90740190E+02</pdfrwt>
<pdfrwt beam="1">  1       -2 0.12984344E-02 0.90740190E+02</pdfrwt>
<totfact> 0.16848546E+05</totfact>
</mgrwt>
</event>
<event>
 5    1  0.6004828E+000  0.1016782E+03  0.7546771E-02  0.1276806E+00
         -3   -1    0    0    0  501 -0.00000000000E+00  0.00000000000E+00  0.69412872522E+01  0.69412872522E+01  0.00000000000E+00 0.  1.
          3   -1    0    0  501    0  0.00000000000E+00 -0.00000000000E+00 -0.37235374002E+03  0.37235374002E+03  0.00000000000E+00 0. -1.
         23    2    1    2    0    0  0.00000000000E+00  0.00000000000E+00 -0.36541245277E+03  0.37929502728E+03  0.10167820354E+03 0.  0.
        -11    1    3    3    0    0  0.24859834080E+02  0.40956281119E+02 -0.11926992073E+03  0.12853303974E+03  0.00000000000E+00 0. -1.
         11    1    3    3    0    0 -0.24859834080E+02 -0.40956281119E+02 -0.24614253205E+03  0.25076198754E+03  0.00000000000E+00 0.  1.
<mgrwt>
<rscale>  0 0.10167820E+03</rscale>
<asrwt>0</asrwt>
<pdfrwt beam="2">  1        3 0.57285190E-01 0.10167820E+03</pdfrwt>
<pdfrwt beam="1">  1       -3 0.10678904E-02 0.10167820E+03</pdfrwt>
<totfact> 0.15844098E+04</totfact>
</mgrwt>
</event>
<event>
 5    1  0.6004828E+000  0.9181375E+02  0.7546771E-02  0.1298518E+00
         -2   -1    0    0    0  501 -0.00000000000E+00  0.00000000000E+00  0.73527739821E+02  0.73527739821E+02  0.00000000000E+00 0.  1.
          2   -1    0    0  501    0  0.00000000000E+00 -0.00000000000E+00 -0.28661851886E+02  0.28661851886E+02  0.00000000000E+00 0. -1.
         23    2    1    2    0    0  0.00000000000E+00  0.00000000000E+00  0.44865887935E+02  0.10218959171E+03  0.91813750349E+02 0.  0.
        -11    1    3    3    0    0 -0.10022959299E+02 -0.29490112683E+02  0.59968190117E+02  0.67574479540E+02  0.00000000000E+00 0.  1.
         11    1    3    3    0    0  0.10022959299E+02  0.29490112683E+02 -0.15102302182E+02  0.34615112168E+02  0.00000000000E+00 0. -1.
<mgrwt>
<rscale>  0 0.91813750E+02</rscale>
<asrwt>0</asrwt>
<pdfrwt beam="2">  1        2 0.44095157E-02 0.91813750E+02</pdfrwt>
<pdfrwt beam="1">  1       -2 0.11311960E-01 0.91813750E+02</pdfrwt>
<totfact> 0.85592286E+04</totfact>
</mgrwt>
</event>
<event>
 5    1  0.6004828E+000  0.9113412E+02  0.7546771E-02  0.1300128E+00
          2   -1    0    0  501    0  0.00000000000E+00  0.00000000000E+00  0.72736010742E+02  0.72736010742E+02  0.00000000000E+00 0. -1.
         -2   -1    0    0    0  501 -0.00000000000E+00 -0.00000000000E+00 -0.28546476249E+02  0.28546476249E+02  0.00000000000E+00 0.  1.
         23    2    1    2    0    0  0.00000000000E+00  0.00000000000E+00  0.44189534494E+02  0.10128248699E+03  0.91134116621E+02 0.  0.
        -11    1    3    3    0    0  0.27624171182E+02 -0.27802180421E+02 -0.37380128622E+01  0.39370405253E+02  0.00000000000E+00 0.  1.
         11    1    3    3    0    0 -0.27624171182E+02  0.27802180421E+02  0.47927547356E+02  0.61912081738E+02  0.00000000000E+00 0. -1.
<mgrwt>
<rscale>  0 0.91134117E+02</rscale>
<asrwt>0</asrwt>
<pdfrwt beam="1">  1        2 0.11190155E-01 0.91134117E+02</pdfrwt>
<pdfrwt beam="2">  1       -2 0.43917656E-02 0.91134117E+02</pdfrwt>
<totfact> 0.11195264E+05</totfact>
</mgrwt>
</event>
<event>
 5    1  0.6004828E+000  0.9072404E+02  0.7546771E-02  0.1301108E+00
         -3   -1    0    0    0  501 -0.00000000000E+00  0.00000000000E+00  0.45425126166E+03  0.45425126166E+03  0.00000000000E+00 0.  1.
          3   -1    0    0  501    0  0.00000000000E+00 -0.00000000000E+00 -0.45299003794E+01  0.45299003794E+01  0.00000000000E+00 0. -1.
         23    2    1    2    0    0  0.00000000000E+00  0.00000000000E+00  0.44972136128E+03  0.45878116204E+03  0.90724042294E+02 0.  0.
        -11    1    3    3    0    0  0.24074790904E+02 -0.38370803286E+02  0.23703807921E+03  0.24132750589E+03  0.00000000000E+00 0.  1.
         11    1    3    3    0    0 -0.24074790904E+02  0.38370803286E+02  0.21268328207E+03  0.21745365615E+03  0.00000000000E+00 0. -1.
<mgrwt>
<rscale>  0 0.90724042E+02</rscale>
<asrwt>0</asrwt>
<pdfrwt beam="2">  1        3 0.69690811E-03 0.90724042E+02</pdfrwt>
<pdfrwt beam="1">  1       -3 0.69884773E-01 0.90724042E+02</pdfrwt>
<totfact> 0.19189258E+04</totfact>
</mgrwt>
</event>
<event>
 5    1  0.6004828E+000  0.9310818E+02  0.7546771E-02  0.1295495E+00
          1   -1    0    0  501    0  0.00000000000E+00  0.00000000000E+00  0.46733130313E+03  0.46733130313E+03  0.00000000000E+00 0. -1.
         -1   -1    0    0    0  501 -0.00000000000E+00 -0.00000000000E+00 -0.46375735116E+01  0.46375735116E+01  0.00000000000E+00 0.  1.
         23    2    1    2    0    0  0.00000000000E+00  0.00000000000E+00  0.46269372962E+03  0.47196887664E+03  0.93108179502E+02 0.  0.
        -11    1    3    3    0    0  0.39566068446E+02  0.24348282118E+02  0.21616456095E+03  0.22110049757E+03  0.00000000000E+00 0.  1.
         11    1    3    3    0    0 -0.39566068446E+02 -0.24348282118E+02  0.24652916867E+03  0.25086837908E+03  0.00000000000E+00 0. -1.
<mgrwt>
<rscale>  0 0.93108180E+02</rscale>
<asrwt>0</asrwt>
<pdfrwt beam="1">  1        1 0.71897086E-01 0.93108180E+02</pdfrwt>
<pdfrwt beam="2">  1       -1 0.71347322E-03 0.93108180E+02</pdfrwt>
<totfact> 0.13060423E+05</totfact>
</mgrwt>
</event>
<event>
 5    1  0.6004828E+000  0.9007944E+02  0.7546771E-02  0.1302659E+00
          2   -1    0    0  501    0  0.00000000000E+00  0.00000000000E+00  0.72158957844E+02  0.72158957844E+02  0.00000000000E+00 0. -1.
         -2   -1    0    0    0  501 -0.00000000000E+00 -0.00000000000E+00 -0.28112605622E+02  0.28112605622E+02  0.00000000000E+00 0.  1.
         23    2    1    2    0    0  0.00000000000E+00  0.00000000000E+00  0.44046352222E+02  0.10027156347E+03  0.90079438807E+02 0.  0.
        -11    1    3    3    0    0  0.13445500711E+02 -0.42975909559E+02  0.23059079186E+02  0.50590823523E+02  0.00000000000E+00 0.  1.
         11    1    3    3    0    0 -0.13445500711E+02  0.42975909559E+02  0.20987273036E+02  0.49680739943E+02  0.00000000000E+00 0. -1.
<mgrwt>
<rscale>  0 0.90079439E+02</rscale>
<asrwt>0</asrwt>
<pdfrwt beam="1">  1        2 0.11101378E-01 0.90079439E+02</pdfrwt>
<pdfrwt beam="2">  1       -2 0.43250163E-02 0.90079439E+02</pdfrwt>
<totfact> 0.11538895E+05</totfact>
</mgrwt>
</event>
<event>
 5    1  0.6004828E+000  0.9164168E+02  0.7546771E-02  0.1298924E+00
          1   -1    0    0  501    0  0.00000000000E+00  0.00000000000E+00  0.13991244968E+03  0.13991244968E+03  0.00000000000E+00 0. -1.
         -1   -1    0    0    0  501 -0.00000000000E+00 -0.00000000000E+00 -0.15006166616E+02  0.15006166616E+02  0.00000000000E+00 0.  1.
         23    2    1    2    0    0  0.00000000000E+00  0.00000000000E+00  0.12490628306E+03  0.15491861629E+03  0.91641683343E+02 0.  0.
        -11    1    3    3    0    0  0.24360039871E+02 -0.25076463209E+02  0.11252420771E+03  0.11783012294E+03  0.00000000000E+00 0. -1.
         11    1    3    3    0    0 -0.24360039871E+02  0.25076463209E+02  0.12382075348E+02  0.37088493357E+02  0.00000000000E+00 0.  1.
<mgrwt>
<rscale>  0 0.91641683E+02</rscale>
<asrwt>0</asrwt>
<pdfrwt beam="1">  1        1 0.21524991E-01 0.91641683E+02</pdfrwt>
<pdfrwt beam="2">  1       -1 0.23086411E-02 0.91641683E+02</pdfrwt>
<totfact> 0.10920477E+05</totfact>
</mgrwt>
</event>
<event>
 5    1  0.6004828E+000  0.8975983E+02  0.7546771E-02  0.1303434E+00
          2   -1    0    0  501    0  0.00000000000E+00  0.00000000000E+00  0.38662425168E+02  0.38662425168E+02  0.00000000000E+00 0. -1.
         -2   -1    0    0    0  501 -0.00000000000E+00 -0.00000000000E+00 -0.52097273017E+02  0.52097273017E+02  0.00000000000E+00 0.  1.
         23    2    1    2    0    0  0.00000000000E+00  0.00000000000E+00 -0.13434847850E+02  0.90759698185E+02  0.89759833321E+02 0.  0.
        -11    1    3    3    0    0 -0.21361801581E+02 -0.14848987110E+02 -0.43695107854E+02  0.50853529232E+02  0.00000000000E+00 0.  1.
         11    1    3    3    0    0  0.21361801581E+02  0.14848987110E+02  0.30260260004E+02  0.39906168953E+02  0.00000000000E+00 0. -1.
<mgrwt>
<rscale>  0 0.89759833E+02</rscale>
<asrwt>0</asrwt>
<pdfrwt beam="1">  1        2 0.59480654E-02 0.89759833E+02</pdfrwt>
<pdfrwt beam="2">  1       -2 0.80149651E-02 0.89759833E+02</pdfrwt>
<totfact> 0.98941184E+04</totfact>
</mgrwt>
</event>
<event>
 5    1  0.6004828E+000  0.8832348E+02  0.7546771E-02  0.1306963E+00
          2   -1    0    0  501    0  0.00000000000E+00  0.00000000000E+00  0.33679742902E+02  0.33679742902E+02  0.00000000000E+00 0. -1.
         -2   -1    0    0    0  501 -0.00000000000E+00 -0.00000000000E+00 -0.57905996572E+02  0.57905996572E+02  0.00000000000E+00 0.  1.
         23    2    1    2    0    0  0.00000000000E+00  0.00000000000E+00 -0.24226253670E+02  0.91585739473E+02  0.88323475407E+02 0.  0.
        -11    1    3    3    0    0  0.25585863566E+02  0.35789754926E+02 -0.16090974475E+02  0.46845089728E+02  0.00000000000E+00 0.  1.
         11    1    3    3    0    0 -0.25585863566E+02 -0.35789754926E+02 -0.81352791951E+01  0.44740649745E+02  0.00000000000E+00 0. -1.
<mgrwt>
<rscale>  0 0.88323475E+02</rscale>
<asrwt>0</asrwt>
<pdfrwt beam="1">  1        2 0.51814989E-02 0.88323475E+02</pdfrwt>
<pdfrwt beam="2">  1       -2 0.89086149E-02 0.88323475E+02</pdfrwt>
<totfact> 0.10010273E+05</totfact>
</mgrwt>
</event>
<event>
 5    1  0.6004828E+000  0.9118714E+02  0.7546771E-02  0.1300002E+00
          4   -1    0    0  501    0  0.00000000000E+00  0.00000000000E+00  0.12943382173E+03  0.12943382173E+03  0.00000000000E+00 0. -1.
         -4   -1    0    0    0  501 -0.00000000000E+00 -0.00000000000E+00 -0.16060512641E+02  0.16060512641E+02  0.00000000000E+00 0.  1.
         23    2    1    2    0    0  0.00000000000E+00  0.00000000000E+00  0.11337330908E+03  0.14549433437E+03  0.91187137907E+02 0.  0.
        -11    1    3    3    0    0 -0.21688867511E+02  0.30165929443E+02  0.14520945588E+02  0.39890451663E+02  0.00000000000E+00 0.  1.
         11    1    3    3    0    0  0.21688867511E+02 -0.30165929443E+02  0.98852363497E+02  0.10560388270E+03  0.00000000000E+00 0. -1.
<mgrwt>
<rscale>  0 0.91187138E+02</rscale>
<asrwt>0</asrwt>
<pdfrwt beam="1">  1        4 0.19912895E-01 0.91187138E+02</pdfrwt>
<pdfrwt beam="2">  1       -4 0.24708482E-02 0.91187138E+02</pdfrwt>
<totfact> 0.23894043E+04</totfact>
</mgrwt>
</event>
<event>
 5    1  0.6004828E+000  0.9049434E+02  0.7546771E-02  0.1301659E+00
          1   -1    0    0  501    0  0.00000000000E+00  0.00000000000E+00  0.14520864735E+03  0.14520864735E+03  0.00000000000E+00 0. -1.
         -1   -1    0    0    0  501 -0.00000000000E+00 -0.00000000000E+00 -0.14099065285E+02  0.14099065285E+02  0.00000000000E+00 0.  1.
         23    2    1    2    0    0  0.00000000000E+00  0.00000000000E+00  0.13110958206E+03  0.15930771263E+03  0.90494335709E+02 0.  0.
        -11    1    3    3    0    0  0.38796931034E+02 -0.22595117644E+02  0.75445292262E+02  0.87793697516E+02  0.00000000000E+00 0.  1.
         11    1    3    3    0    0 -0.38796931034E+02  0.22595117644E+02  0.55664289799E+02  0.71514015115E+02  0.00000000000E+00 0. -1.
<mgrwt>
<rscale>  0 0.90494336E+02</rscale>
<asrwt>0</asrwt>
<pdfrwt beam="1">  1        1 0.22339791E-01 0.90494336E+02</pdfrwt>
<pdfrwt beam="2">  1       -1 0.21690871E-02 0.90494336E+02</pdfrwt>
<totfact> 0.11374980E+05</totfact>
</mgrwt>
</event>
<event>
 5    1  0.6004828E+000  0.9862556E+02  0.7546771E-02  0.1283213E+00
          1   -1    0    0  501    0  0.00000000000E+00  0.00000000000E+00  0.10047967203E+03  0.10047967203E+03  0.00000000000E+00 0. -1.
         -1   -1    0    0    0  501 -0.00000000000E+00 -0.00000000000E+00 -0.24201413120E+02  0.24201413120E+02  0.00000000000E+00 0.  1.
         23    2    1    2    0    0  0.00000000000E+00  0.00000000000E+00  0.76278258912E+02  0.12468108515E+03  0.98625555572E+02 0.  0.
        -11    1    3    3    0    0 -0.27345059089E+02 -0.90757729799E+01 -0.12454048064E+02  0.31388297579E+02  0.00000000000E+00 0.  1.
         11    1    3    3    0    0  0.27345059089E+02  0.90757729799E+01  0.88732306976E+02  0.93292787572E+02  0.00000000000E+00 0. -1.
<mgrwt>
<rscale>  0 0.98625556E+02</rscale>
<asrwt>0</asrwt>
<pdfrwt beam="1">  1        1 0.15458411E-01 0.98625556E+02</pdfrwt>
<pdfrwt beam="2">  1       -1 0.37232944E-02 0.98625556E+02</pdfrwt>
<totfact> 0.84286630E+04</totfact>
</mgrwt>
</event>
<event>
 5    1  0.6004828E+000  0.8970588E+02  0.7546771E-02  0.1303566E+00
          1   -1    0    0  501    0  0.00000000000E+00  0.00000000000E+00  0.22567665398E+02  0.22567665398E+02  0.00000000000E+00 0. -1.
         -1   -1    0    0    0  501 -0.00000000000E+00 -0.00000000000E+00 -0.89144635396E+02  0.89144635396E+02  0.00000000000E+00 0.  1.
         23    2    1    2    0    0  0.00000000000E+00  0.00000000000E+00 -0.66576969998E+02  0.11171230079E+03  0.89705881717E+02 0.  0.
        -11    1    3    3    0    0 -0.19227390777E+02 -0.37858389201E+02 -0.15292199279E+02  0.45130937811E+02  0.00000000000E+00 0. -1.
         11    1    3    3    0    0  0.19227390777E+02  0.37858389201E+02 -0.51284770719E+02  0.66581362983E+02  0.00000000000E+00 0.  1.
<mgrwt>
<rscale>  0 0.89705882E+02</rscale>
<asrwt>0</asrwt>
<pdfrwt beam="1">  1        1 0.34719485E-02 0.89705882E+02</pdfrwt>
<pdfrwt beam="2">  1       -1 0.13714559E-01 0.89705882E+02</pdfrwt>
<totfact> 0.86621700E+04</totfact>
</mgrwt>
</event>
<event>
 5    1  0.6004828E+000  0.1013885E+03  0.7546771E-02  0.1277403E+00
          1   -1    0    0  501    0  0.00000000000E+00  0.00000000000E+00  0.46140956659E+02  0.46140956659E+02  0.00000000000E+00 0. -1.
         -1   -1    0    0    0  501 -0.00000000000E+00 -0.00000000000E+00 -0.55696918590E+02  0.55696918590E+02  0.00000000000E+00 0.  1.
         23    2    1    2    0    0  0.00000000000E+00  0.00000000000E+00 -0.95559619305E+01  0.10183787525E+03  0.10138854189E+03 0.  0.
        -11    1    3    3    0    0 -0.27533314457E+02  0.40261727712E+02  0.90969631032E+01  0.49616981579E+02  0.00000000000E+00 0. -1.
         11    1    3    3    0    0  0.27533314457E+02 -0.40261727712E+02 -0.18652925034E+02  0.52220893669E+02  0.00000000000E+00 0.  1.
<mgrwt>
<rscale>  0 0.10138854E+03</rscale>
<asrwt>0</asrwt>
<pdfrwt beam="1">  1        1 0.70986087E-02 0.10138854E+03</pdfrwt>
<pdfrwt beam="2">  1       -1 0.85687567E-02 0.10138854E+03</pdfrwt>
<totfact> 0.68584359E+04</totfact>
</mgrwt>
</event>
<event>
 5    1  0.6004828E+000  0.9996193E+02  0.7546771E-02  0.1280376E+00
         -3   -1    0    0    0  501 -0.00000000000E+00  0.00000000000E+00  0.13543033011E+02  0.13543033011E+02  0.00000000000E+00 0.  1.
          3   -1    0    0  501    0  0.00000000000E+00 -0.00000000000E+00 -0.18445623170E+03  0.18445623170E+03  0.00000000000E+00 0. -1.
         23    2    1    2    0    0  0.00000000000E+00  0.00000000000E+00 -0.17091319869E+03  0.19799926471E+03  0.99961929452E+02 0.  0.
        -11    1    3    3    0    0 -0.14431169071E+02 -0.37686537219E+02 -0.14386556291E+03  0.14941831855E+03  0.00000000000E+00 0.  1.
         11    1    3    3    0    0  0.14431169071E+02  0.37686537219E+02 -0.27047635784E+02  0.48580946160E+02  0.00000000000E+00 0. -1.
<mgrwt>
<rscale>  0 0.99961929E+02</rscale>
<asrwt>0</asrwt>
<pdfrwt beam="2">  1        3 0.28377881E-01 0.99961929E+02</pdfrwt>
<pdfrwt beam="1">  1       -3 0.20835436E-02 0.99961929E+02</pdfrwt>
<totfact> 0.22279762E+04</totfact>
</mgrwt>
</event>
<event>
 5    1  0.6004828E+000  0.9125866E+02  0.7546771E-02  0.1299832E+00
          2   -1    0    0  501    0  0.00000000000E+00  0.00000000000E+00  0.10733105694E+03  0.10733105694E+03  0.00000000000E+00 0. -1.
         -2   -1    0    0    0  501 -0.00000000000E+00 -0.00000000000E+00 -0.19398260840E+02  0.19398260840E+02  0.00000000000E+00 0.  1.
         23    2    1    2    0    0  0.00000000000E+00  0.00000000000E+00  0.87932796100E+02  0.12672931778E+03  0.91258661809E+02 0.  0.
        -11    1    3    3    0    0 -0.35085924833E+02 -0.20678697325E+02  0.72541059370E+02  0.83191561706E+02  0.00000000000E+00 0.  1.
         11    1    3    3    0    0  0.35085924833E+02  0.20678697325E+02  0.15391736729E+02  0.43537756075E+02  0.00000000000E+00 0. -1.
<mgrwt>
<rscale>  0 0.91258662E+02</rscale>
<asrwt>0</asrwt>
<pdfrwt beam="1">  1        2 0.16512470E-01 0.91258662E+02</pdfrwt>
<pdfrwt beam="2">  1       -2 0.29843479E-02 0.91258662E+02</pdfrwt>
<totfact> 0.12506594E+05</totfact>
</mgrwt>
</event>
<event>
 5    1  0.6004828E+000  0.9168766E+02  0.7546771E-02  0.1298816E+00
         -1   -1    0    0    0  501 -0.00000000000E+00  0.00000000000E+00  0.13544413271E+02  0.13544413271E+02  0.00000000000E+00 0.  1.
          1   -1    0    0  501    0  0.00000000000E+00 -0.00000000000E+00 -0.15516778002E+03  0.15516778002E+03  0.00000000000E+00 0. -1.
         23    2    1    2    0    0  0.00000000000E+00  0.00000000000E+00 -0.14162336674E+03  0.16871219329E+03  0.91687655416E+02 0.  0.
        -11    1    3    3    0    0  0.12089557694E+02 -0.43931211364E+02 -0.61511053251E+02  0.76548797569E+02  0.00000000000E+00 0.  1.
         11    1    3    3    0    0 -0.12089557694E+02  0.43931211364E+02 -0.80112313493E+02  0.92163395719E+02  0.00000000000E+00 0. -1.
<mgrwt>
<rscale>  0 0.91687655E+02</rscale>
<asrwt>0</asrwt>
<pdfrwt beam="2">  1        1 0.23871964E-01 0.91687655E+02</pdfrwt>
<pdfrwt beam="1">  1       -1 0.20837561E-02 0.91687655E+02</pdfrwt>
<totfact> 0.11114703E+05</totfact>
</mgrwt>
</event>
<event>
 5    1  0.6004828E+000  0.8998136E+02  0.7546771E-02  0.1302897E+00
         -1   -1    0    0    0  501 -0.00000000000E+00  0.00000000000E+00  0.32632195272E+02  0.32632195272E+02  0.00000000000E+00 0.  1.
          1   -1    0    0  501    0  0.00000000000E+00 -0.00000000000E+00 -0.62029576553E+02  0.62029576553E+02  0.00000000000E+00 0. -1.
         23    2    1    2    0    0  0.00000000000E+00  0.00000000000E+00 -0.29397381281E+02  0.94661771825E+02  0.89981359286E+02 0.  0.
        -11    1    3    3    0    0  0.27095137850E+02  0.31230306300E+02  0.39633243024E+01  0.41535364044E+02  0.00000000000E+00 0.  1.
         11    1    3    3    0    0 -0.27095137850E+02 -0.31230306300E+02 -0.33360705583E+02  0.53126407781E+02  0.00000000000E+00 0. -1.
<mgrwt>
<rscale>  0 0.89981359E+02</rscale>
<asrwt>0</asrwt>
<pdfrwt beam="2">  1        1 0.95430117E-02 0.89981359E+02</pdfrwt>
<pdfrwt beam="1">  1       -1 0.50203378E-02 0.89981359E+02</pdfrwt>
<totfact> 0.10045905E+05</totfact>
</mgrwt>
</event>
<event>
 5    1  0.6004828E+000  0.9032221E+02  0.7546771E-02  0.1302073E+00
         -4   -1    0    0    0  501 -0.00000000000E+00  0.00000000000E+00  0.76197296356E+01  0.76197296356E+01  0.00000000000E+00 0.  1.
          4   -1    0    0  501    0  0.00000000000E+00 -0.00000000000E+00 -0.26766373867E+03  0.26766373867E+03  0.00000000000E+00 0. -1.
         23    2    1    2    0    0  0.00000000000E+00  0.00000000000E+00 -0.26004400903E+03  0.27528346830E+03  0.90322208164E+02 0.  0.
        -11    1    3    3    0    0  0.42852240334E+02  0.10841223896E+02 -0.15823323183E+03  0.16429121185E+03  0.00000000000E+00 0.  1.
         11    1    3    3    0    0 -0.42852240334E+02 -0.10841223896E+02 -0.10181077720E+03  0.11099225645E+03  0.00000000000E+00 0. -1.
<mgrwt>
<rscale>  0 0.90322208E+02</rscale>
<asrwt>0</asrwt>
<pdfrwt beam="2">  1        4 0.41179028E-01 0.90322208E+02</pdfrwt>
<pdfrwt beam="1">  1       -4 0.11722663E-02 0.90322208E+02</pdfrwt>
<totfact> 0.19073237E+04</totfact>
</mgrwt>
</event>
<event>
 5    1  0.6004828E+000  0.9103290E+02  0.7546771E-02  0.1300369E+00
         -2   -1    0    0    0  501 -0.00000000000E+00  0.00000000000E+00  0.18069949553E+02  0.18069949553E+02  0.00000000000E+00 0.  1.
          2   -1    0    0  501    0  0.00000000000E+00 -0.00000000000E+00 -0.11465152932E+03  0.11465152932E+03  0.00000000000E+00 0. -1.
         23    2    1    2    0    0  0.00000000000E+00  0.00000000000E+00 -0.96581579770E+02  0.13272147888E+03  0.91032902865E+02 0.  0.
        -11    1    3    3    0    0  0.21895269096E+02  0.26554536548E+02 -0.48643863313E+01  0.34759293353E+02  0.00000000000E+00 0.  1.
         11    1    3    3    0    0 -0.21895269096E+02 -0.26554536548E+02 -0.91717193439E+02  0.97962185522E+02  0.00000000000E+00 0. -1.
<mgrwt>
<rscale>  0 0.91032903E+02</rscale>
<asrwt>0</asrwt>
<pdfrwt beam="2">  1        2 0.17638697E-01 0.91032903E+02</pdfrwt>
<pdfrwt beam="1">  1       -2 0.27799922E-02 0.91032903E+02</pdfrwt>
<totfact> 0.12854906E+05</totfact>
</mgrwt>
</event>
<event>
 5    1  0.6004828E+000  0.8819802E+02  0.7546771E-02  0.1307275E+00
          2   -1    0    0  501    0  0.00000000000E+00  0.00000000000E+00  0.37455357659E+03  0.37455357659E+03  0.00000000000E+00 0.  1.
         -2   -1    0    0    0  501 -0.00000000000E+00 -0.00000000000E+00 -0.51921076734E+01  0.51921076734E+01  0.00000000000E+00 0. -1.
         23    2    1    2    0    0  0.00000000000E+00  0.00000000000E+00  0.36936146891E+03  0.37974568426E+03  0.88198015830E+02 0.  0.
        -11    1    3    3    0    0 -0.41768935561E+02  0.10787906872E+02  0.22407161492E+03  0.22818657175E+03  0.00000000000E+00 0.  1.
         11    1    3    3    0    0  0.41768935561E+02 -0.10787906872E+02  0.14528985399E+03  0.15155911251E+03  0.00000000000E+00 0. -1.
<mgrwt>
<rscale>  0 0.88198016E+02</rscale>
<asrwt>0</asrwt>
<pdfrwt beam="1">  1        2 0.57623606E-01 0.88198016E+02</pdfrwt>
<pdfrwt beam="2">  1       -2 0.79878609E-03 0.88198016E+02</pdfrwt>
<totfact> 0.21289799E+05</totfact>
</mgrwt>
</event>
<event>
 5    1  0.6004828E+000  0.9577499E+02  0.7546771E-02  0.1289440E+00
          1   -1    0    0  501    0  0.00000000000E+00  0.00000000000E+00  0.23478152531E+02  0.23478152531E+02  0.00000000000E+00 0.  1.
         -1   -1    0    0    0  501 -0.00000000000E+00 -0.00000000000E+00 -0.97674296941E+02  0.97674296941E+02  0.00000000000E+00 0. -1.
         23    2    1    2    0    0  0.00000000000E+00  0.00000000000E+00 -0.74196144410E+02  0.12115244947E+03  0.95774987172E+02 0.  0.
        -11    1    3    3    0    0  0.13681669588E+02  0.42483859344E+02 -0.15146360167E+02  0.47132564261E+02  0.00000000000E+00 0. -1.
         11    1    3    3    0    0 -0.13681669588E+02 -0.42483859344E+02 -0.59049784243E+02  0.74019885211E+02  0.00000000000E+00 0.  1.
<mgrwt>
<rscale>  0 0.95774987E+02</rscale>
<asrwt>0</asrwt>
<pdfrwt beam="1">  1        1 0.36120234E-02 0.95774987E+02</pdfrwt>
<pdfrwt beam="2">  1       -1 0.15026815E-01 0.95774987E+02</pdfrwt>
<totfact> 0.71990845E+04</totfact>
</mgrwt>
</event>
<event>
 5    1  0.6004828E+000  0.9572146E+02  0.7546771E-02  0.1289559E+00
          2   -1    0    0  501    0  0.00000000000E+00  0.00000000000E+00  0.24961911289E+03  0.24961911289E+03  0.00000000000E+00 0. -1.
         -2   -1    0    0    0  501 -0.00000000000E+00 -0.00000000000E+00 -0.91765780326E+01  0.91765780326E+01  0.00000000000E+00 0.  1.
         23    2    1    2    0    0  0.00000000000E+00  0.00000000000E+00  0.24044253486E+03  0.25879569092E+03  0.95721455649E+02 0.  0.
        -11    1    3    3    0    0  0.42142866859E+02  0.22649871118E+02  0.11678927269E+03  0.12620923938E+03  0.00000000000E+00 0. -1.
         11    1    3    3    0    0 -0.42142866859E+02 -0.22649871118E+02  0.12365326217E+03  0.13258645154E+03  0.00000000000E+00 0.  1.
<mgrwt>
<rscale>  0 0.95721456E+02</rscale>
<asrwt>0</asrwt>
<pdfrwt beam="1">  1        2 0.38402935E-01 0.95721456E+02</pdfrwt>
<pdfrwt beam="2">  1       -2 0.14117814E-02 0.95721456E+02</pdfrwt>
<totfact> 0.14720899E+05</totfact>
</mgrwt>
</event>
<event>
 5    1  0.6004828E+000  0.9088459E+02  0.7546771E-02  0.1300724E+00
          1   -1    0    0  501    0  0.00000000000E+00  0.00000000000E+00  0.67707273301E+01  0.67707273301E+01  0.00000000000E+00 0. -1.
         -1   -1    0    0    0  501 -0.00000000000E+00 -0.00000000000E+00 -0.30498970238E+03  0.30498970238E+03  0.00000000000E+00 0.  1.
         23    2    1    2    0    0  0.00000000000E+00  0.00000000000E+00 -0.29821897505E+03  0.31176042971E+03  0.90884588645E+02 0.  0.
        -11    1    3    3    0    0  0.27123497217E+02 -0.33931650999E+02 -0.19487025005E+03  0.19965333806E+03  0.00000000000E+00 0.  1.
         11    1    3    3    0    0 -0.27123497217E+02  0.33931650999E+02 -0.10334872499E+03  0.11210709165E+03  0.00000000000E+00 0. -1.
<mgrwt>
<rscale>  0 0.90884589E+02</rscale>
<asrwt>0</asrwt>
<pdfrwt beam="1">  1        1 0.10416503E-02 0.90884589E+02</pdfrwt>
<pdfrwt beam="2">  1       -1 0.46921495E-01 0.90884589E+02</pdfrwt>
<totfact> 0.60699011E+04</totfact>
</mgrwt>
</event>
<event>
 5    1  0.6004828E+000  0.9105036E+02  0.7546771E-02  0.1300328E+00
         -2   -1    0    0    0  501 -0.00000000000E+00  0.00000000000E+00  0.73601880166E+01  0.73601880166E+01  0.00000000000E+00 0. -1.
          2   -1    0    0  501    0  0.00000000000E+00 -0.00000000000E+00 -0.28158817320E+03  0.28158817320E+03  0.00000000000E+00 0.  1.
         23    2    1    2    0    0  0.00000000000E+00  0.00000000000E+00 -0.27422798519E+03  0.28894836122E+03  0.91050357452E+02 0.  0.
        -11    1    3    3    0    0  0.39579006881E+02  0.20918433335E+02 -0.16337233851E+03  0.16939480402E+03  0.00000000000E+00 0.  1.
         11    1    3    3    0    0 -0.39579006881E+02 -0.20918433335E+02 -0.11085564667E+03  0.11955355720E+03  0.00000000000E+00 0. -1.
<mgrwt>
<rscale>  0 0.91050357E+02</rscale>
<asrwt>0</asrwt>
<pdfrwt beam="2">  1        2 0.43321264E-01 0.91050357E+02</pdfrwt>
<pdfrwt beam="1">  1       -2 0.11323364E-02 0.91050357E+02</pdfrwt>
<totfact> 0.17611937E+05</totfact>
</mgrwt>
</event>
<event>
 5    1  0.6004828E+000  0.9044084E+02  0.7546771E-02  0.1301788E+00
          2   -1    0    0  501    0  0.00000000000E+00  0.00000000000E+00  0.90105368133E+02  0.90105368133E+02  0.00000000000E+00 0. -1.
         -2   -1    0    0    0  501 -0.00000000000E+00 -0.00000000000E+00 -0.22694389862E+02  0.22694389862E+02  0.00000000000E+00 0.  1.
         23    2    1    2    0    0  0.00000000000E+00  0.00000000000E+00  0.67410978272E+02  0.11279975799E+03  0.90440839294E+02 0.  0.
        -11    1    3    3    0    0  0.39094437602E+02 -0.21966490770E+02  0.40976328816E+02  0.60745051580E+02  0.00000000000E+00 0.  1.
         11    1    3    3    0    0 -0.39094437602E+02  0.21966490770E+02  0.26434649455E+02  0.52054706415E+02  0.00000000000E+00 0. -1.
<mgrwt>
<rscale>  0 0.90440839E+02</rscale>
<asrwt>0</asrwt>
<pdfrwt beam="1">  1        2 0.13862364E-01 0.90440839E+02</pdfrwt>
<pdfrwt beam="2">  1       -2 0.34914447E-02 0.90440839E+02</pdfrwt>
<totfact> 0.12159060E+05</totfact>
</mgrwt>
</event>
<event>
 5    1  0.6004828E+000  0.9125966E+02  0.7546771E-02  0.1299830E+00
          2   -1    0    0  501    0  0.00000000000E+00  0.00000000000E+00  0.11753769830E+03  0.11753769830E+03  0.00000000000E+00 0.  1.
         -2   -1    0    0    0  501 -0.00000000000E+00 -0.00000000000E+00 -0.17714159607E+02  0.17714159607E+02  0.00000000000E+00 0. -1.
         23    2    1    2    0    0  0.00000000000E+00  0.00000000000E+00  0.99823538695E+02  0.13525185791E+03  0.91259663544E+02 0.  0.
        -11    1    3    3    0    0 -0.13545395048E+02  0.15270747919E+02  0.11039356963E+03  0.11226492634E+03  0.00000000000E+00 0.  1.
         11    1    3    3    0    0  0.13545395048E+02 -0.15270747919E+02 -0.10570030939E+02  0.22986931571E+02  0.00000000000E+00 0. -1.
<mgrwt>
<rscale>  0 0.91259664E+02</rscale>
<asrwt>0</asrwt>
<pdfrwt beam="1">  1        2 0.18082722E-01 0.91259664E+02</pdfrwt>
<pdfrwt beam="2">  1       -2 0.27252554E-02 0.91259664E+02</pdfrwt>
<totfact> 0.12868688E+05</totfact>
</mgrwt>
</event>
<event>
 5    1  0.6004828E+000  0.9395538E+02  0.7546771E-02  0.1293546E+00
          3   -1    0    0  501    0  0.00000000000E+00  0.00000000000E+00  0.21539069653E+03  0.21539069653E+03  0.00000000000E+00 0. -1.
         -3   -1    0    0    0  501 -0.00000000000E+00 -0.00000000000E+00 -0.10246046994E+02  0.10246046994E+02  0.00000000000E+00 0.  1.
         23    2    1    2    0    0  0.00000000000E+00  0.00000000000E+00  0.20514464954E+03  0.22563674353E+03  0.93955376617E+02 0.  0.
        -11    1    3    3    0    0  0.28477096073E+02  0.16359207779E+02  0.21903241282E+02  0.39475570402E+02  0.00000000000E+00 0.  1.
         11    1    3    3    0    0 -0.28477096073E+02 -0.16359207779E+02  0.18324140825E+03  0.18616117312E+03  0.00000000000E+00 0. -1.
<mgrwt>
<rscale>  0 0.93955377E+02</rscale>
<asrwt>0</asrwt>
<pdfrwt beam="1">  1        3 0.33137027E-01 0.93955377E+02</pdfrwt>
<pdfrwt beam="2">  1       -3 0.15763151E-02 0.93955377E+02</pdfrwt>
<totfact> 0.25104054E+04</totfact>
</mgrwt>
</event>
<event>
 5    1  0.6004828E+000  0.9188095E+02  0.7546771E-02  0.1298360E+00
          2   -1    0    0  501    0  0.00000000000E+00  0.00000000000E+00  0.21797093927E+03  0.21797093927E+03  0.00000000000E+00 0. -1.
         -2   -1    0    0    0  501 -0.00000000000E+00 -0.00000000000E+00 -0.96826081379E+01  0.96826081379E+01  0.00000000000E+00 0.  1.
         23    2    1    2    0    0  0.00000000000E+00  0.00000000000E+00  0.20828833113E+03  0.22765354741E+03  0.91880948851E+02 0.  0.
        -11    1    3    3    0    0 -0.24808033012E+02 -0.35860732442E+02  0.13997215123E+03  0.14660707266E+03  0.00000000000E+00 0.  1.
         11    1    3    3    0    0  0.24808033012E+02  0.35860732442E+02  0.68316179905E+02  0.81046474754E+02  0.00000000000E+00 0. -1.
<mgrwt>
<rscale>  0 0.91880949E+02</rscale>
<asrwt>0</asrwt>
<pdfrwt beam="1">  1        2 0.33533987E-01 0.91880949E+02</pdfrwt>
<pdfrwt beam="2">  1       -2 0.14896322E-02 0.91880949E+02</pdfrwt>
<totfact> 0.15632940E+05</totfact>
</mgrwt>
</event>
<event>
 5    1  0.6004828E+000  0.9312760E+02  0.7546771E-02  0.1295450E+00
          1   -1    0    0  501    0  0.00000000000E+00  0.00000000000E+00  0.13450254738E+02  0.13450254738E+02  0.00000000000E+00 0. -1.
         -1   -1    0    0    0  501 -0.00000000000E+00 -0.00000000000E+00 -0.16120048949E+03  0.16120048949E+03  0.00000000000E+00 0.  1.
         23    2    1    2    0    0  0.00000000000E+00  0.00000000000E+00 -0.14775023475E+03  0.17465074423E+03  0.93127603802E+02 0.  0.
        -11    1    3    3    0    0  0.42076627890E+02  0.14996111320E+02 -0.98532182064E+02  0.10818464249E+03  0.00000000000E+00 0.  1.
         11    1    3    3    0    0 -0.42076627890E+02 -0.14996111320E+02 -0.49218052690E+02  0.66466101735E+02  0.00000000000E+00 0. -1.
<mgrwt>
<rscale>  0 0.93127604E+02</rscale>
<asrwt>0</asrwt>
<pdfrwt beam="1">  1        1 0.20692699E-02 0.93127604E+02</pdfrwt>
<pdfrwt beam="2">  1       -1 0.24800076E-01 0.93127604E+02</pdfrwt>
<totfact> 0.69569036E+04</totfact>
</mgrwt>
</event>
<event>
 5    1  0.6004828E+000  0.9057573E+02  0.7546771E-02  0.1301463E+00
         -1   -1    0    0    0  501 -0.00000000000E+00  0.00000000000E+00  0.79371534415E+01  0.79371534415E+01  0.00000000000E+00 0.  1.
          1   -1    0    0  501    0  0.00000000000E+00 -0.00000000000E+00 -0.25840384122E+03  0.25840384122E+03  0.00000000000E+00 0. -1.
         23    2    1    2    0    0  0.00000000000E+00  0.00000000000E+00 -0.25046668777E+03  0.26634099466E+03  0.90575734887E+02 0.  0.
        -11    1    3    3    0    0 -0.38189202481E+02  0.24290504759E+02 -0.12992635639E+03  0.13758379953E+03  0.00000000000E+00 0. -1.
         11    1    3    3    0    0  0.38189202481E+02 -0.24290504759E+02 -0.12054033138E+03  0.12875719513E+03  0.00000000000E+00 0.  1.
<mgrwt>
<rscale>  0 0.90575735E+02</rscale>
<asrwt>0</asrwt>
<pdfrwt beam="2">  1        1 0.39754432E-01 0.90575735E+02</pdfrwt>
<pdfrwt beam="1">  1       -1 0.12211007E-02 0.90575735E+02</pdfrwt>
<totfact> 0.12668578E+05</totfact>
</mgrwt>
</event>
<event>
 5    1  0.6004828E+000  0.1064947E+03  0.7546771E-02  0.1267202E+00
         -3   -1    0    0    0  501 -0.00000000000E+00  0.00000000000E+00  0.10886245889E+02  0.10886245889E+02  0.00000000000E+00 0.  1.
          3   -1    0    0  501    0  0.00000000000E+00 -0.00000000000E+00 -0.26044622884E+03  0.26044622884E+03  0.00000000000E+00 0. -1.
         23    2    1    2    0    0  0.00000000000E+00  0.00000000000E+00 -0.24955998295E+03  0.27133247473E+03  0.10649472641E+03 0.  0.
        -11    1    3    3    0    0 -0.43816107391E+02  0.89612342993E+01 -0.19840915360E+03  0.20338718549E+03  0.00000000000E+00 0. -1.
         11    1    3    3    0    0  0.43816107391E+02 -0.89612342993E+01 -0.51150829344E+02  0.67945289238E+02  0.00000000000E+00 0.  1.
<mgrwt>
<rscale>  0 0.10649473E+03</rscale>
<asrwt>0</asrwt>
<pdfrwt beam="2">  1        3 0.40068647E-01 0.10649473E+03</pdfrwt>
<pdfrwt beam="1">  1       -3 0.16748072E-02 0.10649473E+03</pdfrwt>
<totfact> 0.16524635E+04</totfact>
</mgrwt>
</event>
<event>
 5    1  0.6004828E+000  0.9206673E+02  0.7546771E-02  0.1297923E+00
         -4   -1    0    0    0  501 -0.00000000000E+00  0.00000000000E+00  0.10607079468E+03  0.10607079468E+03  0.00000000000E+00 0.  1.
          4   -1    0    0  501    0  0.00000000000E+00 -0.00000000000E+00 -0.19977888514E+02  0.19977888514E+02  0.00000000000E+00 0. -1.
         23    2    1    2    0    0  0.00000000000E+00  0.00000000000E+00  0.86092906162E+02  0.12604868319E+03  0.92066726034E+02 0.  0.
        -11    1    3    3    0    0 -0.83989598576E+01  0.21855522755E+02 -0.11216687032E+02  0.25961904198E+02  0.00000000000E+00 0. -1.
         11    1    3    3    0    0  0.83989598576E+01 -0.21855522755E+02  0.97309593194E+02  0.10008677899E+03  0.00000000000E+00 0.  1.
<mgrwt>
<rscale>  0 0.92066726E+02</rscale>
<asrwt>0</asrwt>
<pdfrwt beam="2">  1        4 0.30735214E-02 0.92066726E+02</pdfrwt>
<pdfrwt beam="1">  1       -4 0.16318583E-01 0.92066726E+02</pdfrwt>
<totfact> 0.24287352E+04</totfact>
</mgrwt>
</event>
<event>
 5    1  0.6004828E+000  0.9017613E+02  0.7546771E-02  0.1302426E+00
         -2   -1    0    0    0  501 -0.00000000000E+00  0.00000000000E+00  0.16527842497E+02  0.16527842497E+02  0.00000000000E+00 0.  1.
          2   -1    0    0  501    0  0.00000000000E+00 -0.00000000000E+00 -0.12300053569E+03  0.12300053569E+03  0.00000000000E+00 0. -1.
         23    2    1    2    0    0  0.00000000000E+00  0.00000000000E+00 -0.10647269319E+03  0.13952837818E+03  0.90176127237E+02 0.  0.
        -11    1    3    3    0    0  0.34977409596E+02  0.14427581965E+02 -0.91179894574E+02  0.98718526519E+02  0.00000000000E+00 0. -1.
         11    1    3    3    0    0 -0.34977409596E+02 -0.14427581965E+02 -0.15292798614E+02  0.40809851664E+02  0.00000000000E+00 0.  1.
<mgrwt>
<rscale>  0 0.90176127E+02</rscale>
<asrwt>0</asrwt>
<pdfrwt beam="2">  1        2 0.18923159E-01 0.90176127E+02</pdfrwt>
<pdfrwt beam="1">  1       -2 0.25427451E-02 0.90176127E+02</pdfrwt>
<totfact> 0.13490039E+05</totfact>
</mgrwt>
</event>
<event>
 5    1  0.6004828E+000  0.8980264E+02  0.7546771E-02  0.1303330E+00
          2   -1    0    0  501    0  0.00000000000E+00  0.00000000000E+00  0.54371963089E+02  0.54371963089E+02  0.00000000000E+00 0. -1.
         -2   -1    0    0    0  501 -0.00000000000E+00 -0.00000000000E+00 -0.37080296855E+02  0.37080296855E+02  0.00000000000E+00 0.  1.
         23    2    1    2    0    0  0.00000000000E+00  0.00000000000E+00  0.17291666233E+02  0.91452259944E+02  0.89802639870E+02 0.  0.
        -11    1    3    3    0    0 -0.25119916069E+02 -0.18343036329E+02  0.41623574069E+02  0.51961515407E+02  0.00000000000E+00 0. -1.
         11    1    3    3    0    0  0.25119916069E+02  0.18343036329E+02 -0.24331907836E+02  0.39490744537E+02  0.00000000000E+00 0.  1.
<mgrwt>
<rscale>  0 0.89802640E+02</rscale>
<asrwt>0</asrwt>
<pdfrwt beam="1">  1        2 0.83649174E-02 0.89802640E+02</pdfrwt>
<pdfrwt beam="2">  1       -2 0.57046610E-02 0.89802640E+02</pdfrwt>
<totfact> 0.10786531E+05</totfact>
</mgrwt>
</event>
<event>
 5    1  0.6004828E+000  0.9185093E+02  0.7546771E-02  0.1298430E+00
          1   -1    0    0  501    0  0.00000000000E+00  0.00000000000E+00  0.78401626081E+02  0.78401626081E+02  0.00000000000E+00 0. -1.
         -1   -1    0    0    0  501 -0.00000000000E+00 -0.00000000000E+00 -0.26901846437E+02  0.26901846437E+02  0.00000000000E+00 0.  1.
         23    2    1    2    0    0  0.00000000000E+00  0.00000000000E+00  0.51499779644E+02  0.10530347252E+03  0.91850933696E+02 0.  0.
        -11    1    3    3    0    0  0.69009146702E+01 -0.23369768399E+02  0.70379168266E+02  0.74478158034E+02  0.00000000000E+00 0. -1.
         11    1    3    3    0    0 -0.69009146702E+01  0.23369768399E+02 -0.18879388621E+02  0.30825314484E+02  0.00000000000E+00 0.  1.
<mgrwt>
<rscale>  0 0.91850934E+02</rscale>
<asrwt>0</asrwt>
<pdfrwt beam="1">  1        1 0.12061789E-01 0.91850934E+02</pdfrwt>
<pdfrwt beam="2">  1       -1 0.41387456E-02 0.91850934E+02</pdfrwt>
<totfact> 0.98410098E+04</totfact>
</mgrwt>
</event>
<event>
 5    1  0.6004828E+000  0.9135636E+02  0.7546771E-02  0.1299600E+00
         -2   -1    0    0    0  501 -0.00000000000E+00  0.00000000000E+00  0.90132279553E+02  0.90132279553E+02  0.00000000000E+00 0.  1.
          2   -1    0    0  501    0  0.00000000000E+00 -0.00000000000E+00 -0.23149265661E+02  0.23149265661E+02  0.00000000000E+00 0. -1.
         23    2    1    2    0    0  0.00000000000E+00  0.00000000000E+00  0.66983013892E+02  0.11328154521E+03  0.91356359034E+02 0.  0.
        -11    1    3    3    0    0 -0.29215053280E+02 -0.14649306064E+02  0.73062245523E+02  0.80038823250E+02  0.00000000000E+00 0.  1.
         11    1    3    3    0    0  0.29215053280E+02  0.14649306064E+02 -0.60792316315E+01  0.33242721964E+02  0.00000000000E+00 0. -1.
<mgrwt>
<rscale>  0 0.91356359E+02</rscale>
<asrwt>0</asrwt>
<pdfrwt beam="2">  1        2 0.35614255E-02 0.91356359E+02</pdfrwt>
<pdfrwt beam="1">  1       -2 0.13866504E-01 0.91356359E+02</pdfrwt>
<totfact> 0.81869868E+04</totfact>
</mgrwt>
</event>
<event>
 5    1  0.6004828E+000  0.9107194E+02  0.7546771E-02  0.1300276E+00
          4   -1    0    0  501    0  0.00000000000E+00  0.00000000000E+00  0.91677992885E+02  0.91677992885E+02  0.00000000000E+00 0. -1.
         -4   -1    0    0    0  501 -0.00000000000E+00 -0.00000000000E+00 -0.22617473457E+02  0.22617473457E+02  0.00000000000E+00 0.  1.
         23    2    1    2    0    0  0.00000000000E+00  0.00000000000E+00  0.69060519428E+02  0.11429546634E+03  0.91071940150E+02 0.  0.
        -11    1    3    3    0    0  0.11716925586E+02  0.38088238203E+02  0.62183747658E+02  0.73856744495E+02  0.00000000000E+00 0. -1.
         11    1    3    3    0    0 -0.11716925586E+02 -0.38088238203E+02  0.68767717706E+01  0.40438721847E+02  0.00000000000E+00 0.  1.
<mgrwt>
<rscale>  0 0.91071940E+02</rscale>
<asrwt>0</asrwt>
<pdfrwt beam="1">  1        4 0.14104306E-01 0.91071940E+02</pdfrwt>
<pdfrwt beam="2">  1       -4 0.34796113E-02 0.91071940E+02</pdfrwt>
<totfact> 0.25680295E+04</totfact>
</mgrwt>
</event>
<event>
 5    1  0.6004828E+000  0.9361817E+02  0.7546771E-02  0.1294319E+00
          1   -1    0    0  501    0  0.00000000000E+00  0.00000000000E+00  0.21090745243E+03  0.21090745243E+03  0.00000000000E+00 0. -1.
         -1   -1    0    0    0  501 -0.00000000000E+00 -0.00000000000E+00 -0.10388871921E+02  0.10388871921E+02  0.00000000000E+00 0.  1.
         23    2    1    2    0    0  0.00000000000E+00  0.00000000000E+00  0.20051858051E+03  0.22129632435E+03  0.93618171536E+02 0.  0.
        -11    1    3    3    0    0 -0.31394302264E+02  0.30502368849E+02  0.13946546213E+03  0.14617322548E+03  0.00000000000E+00 0.  1.
         11    1    3    3    0    0  0.31394302264E+02 -0.30502368849E+02  0.61053118376E+02  0.75123098867E+02  0.00000000000E+00 0. -1.
<mgrwt>
<rscale>  0 0.93618172E+02</rscale>
<asrwt>0</asrwt>
<pdfrwt beam="1">  1        1 0.32447297E-01 0.93618172E+02</pdfrwt>
<pdfrwt beam="2">  1       -1 0.15982881E-02 0.93618172E+02</pdfrwt>
<totfact> 0.11144061E+05</totfact>
</mgrwt>
</event>
<event>
 5    1  0.6004828E+000  0.9397161E+02  0.7546771E-02  0.1293509E+00
         -1   -1    0    0    0  501 -0.00000000000E+00  0.00000000000E+00  0.22471623678E+03  0.22471623678E+03  0.00000000000E+00 0.  1.
          1   -1    0    0  501    0  0.00000000000E+00 -0.00000000000E+00 -0.98242383074E+01  0.98242383074E+01  0.00000000000E+00 0. -1.
         23    2    1    2    0    0  0.00000000000E+00  0.00000000000E+00  0.21489199848E+03  0.23454047509E+03  0.93971609791E+02 0.  0.
        -11    1    3    3    0    0 -0.25281009754E+02  0.28254227343E+02  0.17671401884E+03  0.18073537361E+03  0.00000000000E+00 0.  1.
         11    1    3    3    0    0  0.25281009754E+02 -0.28254227343E+02  0.38177979634E+02  0.53805101485E+02  0.00000000000E+00 0. -1.
<mgrwt>
<rscale>  0 0.93971610E+02</rscale>
<asrwt>0</asrwt>
<pdfrwt beam="2">  1        1 0.15114215E-02 0.93971610E+02</pdfrwt>
<pdfrwt beam="1">  1       -1 0.34571725E-01 0.93971610E+02</pdfrwt>
<totfact> 0.61963161E+04</totfact>
</mgrwt>
</event>
<event>
 5    1  0.6004828E+000  0.9098425E+02  0.7546771E-02  0.1300486E+00
          3   -1    0    0  501    0  0.00000000000E+00  0.00000000000E+00  0.36111253208E+02  0.36111253208E+02  0.00000000000E+00 0. -1.
         -3   -1    0    0    0  501 -0.00000000000E+00 -0.00000000000E+00 -0.57309933120E+02  0.57309933120E+02  0.00000000000E+00 0.  1.
         23    2    1    2    0    0  0.00000000000E+00  0.00000000000E+00 -0.21198679912E+02  0.93421186329E+02  0.90984251522E+02 0.  0.
        -11    1    3    3    0    0 -0.19907515556E+01 -0.20630236825E+02  0.30981788808E+02  0.37275206249E+02  0.00000000000E+00 0. -1.
         11    1    3    3    0    0  0.19907515556E+01  0.20630236825E+02 -0.52180468720E+02  0.56145980079E+02  0.00000000000E+00 0.  1.
<mgrwt>
<rscale>  0 0.90984252E+02</rscale>
<asrwt>0</asrwt>
<pdfrwt beam="1">  1        3 0.55555774E-02 0.90984252E+02</pdfrwt>
<pdfrwt beam="2">  1       -3 0.88169128E-02 0.90984252E+02</pdfrwt>
<totfact> 0.35370970E+04</totfact>
</mgrwt>
</event>
<event>
 5    1  0.6004828E+000  0.9310769E+02  0.7546771E-02  0.1295496E+00
          2   -1    0    0  501    0  0.00000000000E+00  0.00000000000E+00  0.45308406738E+02  0.45308406738E+02  0.00000000000E+00 0.  1.
         -2   -1    0    0    0  501 -0.00000000000E+00 -0.00000000000E+00 -0.47833521454E+02  0.47833521454E+02  0.00000000000E+00 0. -1.
         23    2    1    2    0    0  0.00000000000E+00  0.00000000000E+00 -0.25251147165E+01  0.93141928192E+02  0.93107693468E+02 0.  0.
        -11    1    3    3    0    0  0.13022330065E+02  0.13528465687E+02  0.41351934191E+02  0.45415668282E+02  0.00000000000E+00 0.  1.
         11    1    3    3    0    0 -0.13022330065E+02 -0.13528465687E+02 -0.43877048908E+02  0.47726259910E+02  0.00000000000E+00 0. -1.
<mgrwt>
<rscale>  0 0.93107693E+02</rscale>
<asrwt>0</asrwt>
<pdfrwt beam="1">  1        2 0.69705241E-02 0.93107693E+02</pdfrwt>
<pdfrwt beam="2">  1       -2 0.73590033E-02 0.93107693E+02</pdfrwt>
<totfact> 0.92747412E+04</totfact>
</mgrwt>
</event>
<event>
 5    1  0.6004828E+000  0.8858183E+02  0.7546771E-02  0.1306323E+00
          4   -1    0    0  501    0  0.00000000000E+00  0.00000000000E+00  0.12688060904E+03  0.12688060904E+03  0.00000000000E+00 0. -1.
         -4   -1    0    0    0  501 -0.00000000000E+00 -0.00000000000E+00 -0.15460872637E+02  0.15460872637E+02  0.00000000000E+00 0.  1.
         23    2    1    2    0    0  0.00000000000E+00  0.00000000000E+00  0.11141973640E+03  0.14234148167E+03  0.88581825142E+02 0.  0.
        -11    1    3    3    0    0 -0.19687692870E+02 -0.86802114091E+01 -0.64985390651E+01  0.22476261492E+02  0.00000000000E+00 0.  1.
         11    1    3    3    0    0  0.19687692870E+02  0.86802114091E+01  0.11791827546E+03  0.11986522018E+03  0.00000000000E+00 0. -1.
<mgrwt>
<rscale>  0 0.88581825E+02</rscale>
<asrwt>0</asrwt>
<pdfrwt beam="1">  1        4 0.19520093E-01 0.88581825E+02</pdfrwt>
<pdfrwt beam="2">  1       -4 0.23785959E-02 0.88581825E+02</pdfrwt>
<totfact> 0.26001938E+04</totfact>
</mgrwt>
</event>
<event>
 5    1  0.6004828E+000  0.8705867E+02  0.7546771E-02  0.1310135E+00
          1   -1    0    0  501    0  0.00000000000E+00  0.00000000000E+00  0.11566481960E+03  0.11566481960E+03  0.00000000000E+00 0. -1.
         -1   -1    0    0    0  501 -0.00000000000E+00 -0.00000000000E+00 -0.16381845644E+02  0.16381845644E+02  0.00000000000E+00 0.  1.
         23    2    1    2    0    0  0.00000000000E+00  0.00000000000E+00  0.99282973951E+02  0.13204666524E+03  0.87058674951E+02 0.  0.
        -11    1    3    3    0    0  0.31017574797E+02  0.33550282559E+01  0.35996189154E+01  0.31405467951E+02  0.00000000000E+00 0.  1.
         11    1    3    3    0    0 -0.31017574797E+02 -0.33550282559E+01  0.95683355036E+02  0.10064119729E+03  0.00000000000E+00 0. -1.
<mgrwt>
<rscale>  0 0.87058675E+02</rscale>
<asrwt>0</asrwt>
<pdfrwt beam="1">  1        1 0.17794587E-01 0.87058675E+02</pdfrwt>
<pdfrwt beam="2">  1       -1 0.25202840E-02 0.87058675E+02</pdfrwt>
<totfact> 0.12131140E+05</totfact>
</mgrwt>
</event>
<event>
 5    1  0.6004828E+000  0.1208845E+03  0.7546771E-02  0.1241645E+00
          1   -1    0    0  501    0  0.00000000000E+00  0.00000000000E+00  0.80869880883E+01  0.80869880883E+01  0.00000000000E+00 0. -1.
         -1   -1    0    0    0  501 -0.00000000000E+00 -0.00000000000E+00 -0.45174643463E+03  0.45174643463E+03  0.00000000000E+00 0.  1.
         23    2    1    2    0    0  0.00000000000E+00  0.00000000000E+00 -0.44365944654E+03  0.45983342272E+03  0.12088454055E+03 0.  0.
        -11    1    3    3    0    0  0.18347445201E+02 -0.54544694675E+02 -0.29212643760E+03  0.29774084034E+03  0.00000000000E+00 0.  1.
         11    1    3    3    0    0 -0.18347445201E+02  0.54544694675E+02 -0.15153300894E+03  0.16209258238E+03  0.00000000000E+00 0. -1.
<mgrwt>
<rscale>  0 0.12088454E+03</rscale>
<asrwt>0</asrwt>
<pdfrwt beam="1">  1        1 0.12441517E-02 0.12088454E+03</pdfrwt>
<pdfrwt beam="2">  1       -1 0.69499469E-01 0.12088454E+03</pdfrwt>
<totfact> 0.23662122E+04</totfact>
</mgrwt>
</event>
<event>
 5    1  0.6004828E+000  0.9133137E+02  0.7546771E-02  0.1299659E+00
          4   -1    0    0  501    0  0.00000000000E+00  0.00000000000E+00  0.33403787727E+02  0.33403787727E+02  0.00000000000E+00 0. -1.
         -4   -1    0    0    0  501 -0.00000000000E+00 -0.00000000000E+00 -0.62428695733E+02  0.62428695733E+02  0.00000000000E+00 0.  1.
         23    2    1    2    0    0  0.00000000000E+00  0.00000000000E+00 -0.29024908006E+02  0.95832483460E+02  0.91331372492E+02 0.  0.
        -11    1    3    3    0    0 -0.23897791720E+02 -0.27609454859E+02 -0.43285945853E+02  0.56630906359E+02  0.00000000000E+00 0.  1.
         11    1    3    3    0    0  0.23897791720E+02  0.27609454859E+02  0.14261037847E+02  0.39201577101E+02  0.00000000000E+00 0. -1.
<mgrwt>
<rscale>  0 0.91331372E+02</rscale>
<asrwt>0</asrwt>
<pdfrwt beam="1">  1        4 0.51390443E-02 0.91331372E+02</pdfrwt>
<pdfrwt beam="2">  1       -4 0.96044146E-02 0.91331372E+02</pdfrwt>
<totfact> 0.26596291E+04</totfact>
</mgrwt>
</event>
<event>
 5    1  0.6004828E+000  0.9158237E+02  0.7546771E-02  0.1299064E+00
         -1   -1    0    0    0  501 -0.00000000000E+00  0.00000000000E+00  0.25617621072E+02  0.25617621072E+02  0.00000000000E+00 0.  1.
          1   -1    0    0  501    0  0.00000000000E+00 -0.00000000000E+00 -0.81851188386E+02  0.81851188386E+02  0.00000000000E+00 0. -1.
         23    2    1    2    0    0  0.00000000000E+00  0.00000000000E+00 -0.56233567313E+02  0.10746880946E+03  0.91582372286E+02 0.  0.
        -11    1    3    3    0    0  0.20517144913E+02  0.13047870499E+02 -0.73650180355E+02  0.77559971804E+02  0.00000000000E+00 0. -1.
         11    1    3    3    0    0 -0.20517144913E+02 -0.13047870499E+02  0.17416613042E+02  0.29908837654E+02  0.00000000000E+00 0.  1.
<mgrwt>
<rscale>  0 0.91582372E+02</rscale>
<asrwt>0</asrwt>
<pdfrwt beam="2">  1        1 0.12592491E-01 0.91582372E+02</pdfrwt>
<pdfrwt beam="1">  1       -1 0.39411725E-02 0.91582372E+02</pdfrwt>
<totfact> 0.99884641E+04</totfact>
</mgrwt>
</event>
<event>
 5    1  0.6004828E+000  0.9214957E+02  0.7546771E-02  0.1297728E+00
          4   -1    0    0  501    0  0.00000000000E+00  0.00000000000E+00  0.15567818612E+03  0.15567818612E+03  0.00000000000E+00 0. -1.
         -4   -1    0    0    0  501 -0.00000000000E+00 -0.00000000000E+00 -0.13636371572E+02  0.13636371572E+02  0.00000000000E+00 0.  1.
         23    2    1    2    0    0  0.00000000000E+00  0.00000000000E+00  0.14204181455E+03  0.16931455769E+03  0.92149565198E+02 0.  0.
        -11    1    3    3    0    0 -0.33973174580E+02  0.29365006304E+01  0.12795285874E+03  0.13241878147E+03  0.00000000000E+00 0. -1.
         11    1    3    3    0    0  0.33973174580E+02 -0.29365006304E+01  0.14088955807E+02  0.36895776218E+02  0.00000000000E+00 0.  1.
<mgrwt>
<rscale>  0 0.92149565E+02</rscale>
<asrwt>0</asrwt>
<pdfrwt beam="1">  1        4 0.23950489E-01 0.92149565E+02</pdfrwt>
<pdfrwt beam="2">  1       -4 0.20979034E-02 0.92149565E+02</pdfrwt>
<totfact> 0.22098989E+04</totfact>
</mgrwt>
</event>
<event>
 5    1  0.6004828E+000  0.9127477E+02  0.7546771E-02  0.1299794E+00
         -2   -1    0    0    0  501 -0.00000000000E+00  0.00000000000E+00  0.89488929268E+01  0.89488929268E+01  0.00000000000E+00 0.  1.
          2   -1    0    0  501    0  0.00000000000E+00 -0.00000000000E+00 -0.23274061514E+03  0.23274061514E+03  0.00000000000E+00 0. -1.
         23    2    1    2    0    0  0.00000000000E+00  0.00000000000E+00 -0.22379172221E+03  0.24168950806E+03  0.91274768574E+02 0.  0.
        -11    1    3    3    0    0  0.25040207753E+02 -0.23120244977E+02 -0.19226459244E+03  0.19526195543E+03  0.00000000000E+00 0. -1.
         11    1    3    3    0    0 -0.25040207753E+02  0.23120244977E+02 -0.31527129772E+02  0.46427552636E+02  0.00000000000E+00 0.  1.
<mgrwt>
<rscale>  0 0.91274769E+02</rscale>
<asrwt>0</asrwt>
<pdfrwt beam="2">  1        2 0.35806249E-01 0.91274769E+02</pdfrwt>
<pdfrwt beam="1">  1       -2 0.13767527E-02 0.91274769E+02</pdfrwt>
<totfact> 0.16301511E+05</totfact>
</mgrwt>
</event>
<event>
 5    1  0.6004828E+000  0.9016127E+02  0.7546771E-02  0.1302462E+00
          1   -1    0    0  501    0  0.00000000000E+00  0.00000000000E+00  0.65826009970E+02  0.65826009970E+02  0.00000000000E+00 0. -1.
         -1   -1    0    0    0  501 -0.00000000000E+00 -0.00000000000E+00 -0.30873263760E+02  0.30873263760E+02  0.00000000000E+00 0.  1.
         23    2    1    2    0    0  0.00000000000E+00  0.00000000000E+00  0.34952746210E+02  0.96699273731E+02  0.90161272576E+02 0.  0.
        -11    1    3    3    0    0  0.28085435522E+02 -0.34957784884E+02  0.12511968160E+02  0.46555211950E+02  0.00000000000E+00 0.  1.
         11    1    3    3    0    0 -0.28085435522E+02  0.34957784884E+02  0.22440778050E+02  0.50144061781E+02  0.00000000000E+00 0. -1.
<mgrwt>
<rscale>  0 0.90161273E+02</rscale>
<asrwt>0</asrwt>
<pdfrwt beam="1">  1        1 0.10127078E-01 0.90161273E+02</pdfrwt>
<pdfrwt beam="2">  1       -1 0.47497329E-02 0.90161273E+02</pdfrwt>
<totfact> 0.10080790E+05</totfact>
</mgrwt>
</event>
<event>
 5    1  0.6004828E+000  0.9251964E+02  0.7546771E-02  0.1296862E+00
          2   -1    0    0  501    0  0.00000000000E+00  0.00000000000E+00  0.24917558111E+02  0.24917558111E+02  0.00000000000E+00 0. -1.
         -2   -1    0    0    0  501 -0.00000000000E+00 -0.00000000000E+00 -0.85882043582E+02  0.85882043582E+02  0.00000000000E+00 0.  1.
         23    2    1    2    0    0  0.00000000000E+00  0.00000000000E+00 -0.60964485471E+02  0.11079960169E+03  0.92519637086E+02 0.  0.
        -11    1    3    3    0    0  0.32660502798E+02  0.31753619731E+02 -0.20829277973E+02  0.50088517945E+02  0.00000000000E+00 0.  1.
         11    1    3    3    0    0 -0.32660502798E+02 -0.31753619731E+02 -0.40135207498E+02  0.60711083748E+02  0.00000000000E+00 0. -1.
<mgrwt>
<rscale>  0 0.92519637E+02</rscale>
<asrwt>0</asrwt>
<pdfrwt beam="1">  1        2 0.38334706E-02 0.92519637E+02</pdfrwt>
<pdfrwt beam="2">  1       -2 0.13212622E-01 0.92519637E+02</pdfrwt>
<totfact> 0.80452121E+04</totfact>
</mgrwt>
</event>
<event>
 5    1  0.6004828E+000  0.8918837E+02  0.7546771E-02  0.1304829E+00
         -2   -1    0    0    0  501 -0.00000000000E+00  0.00000000000E+00  0.47448221207E+02  0.47448221207E+02  0.00000000000E+00 0.  1.
          2   -1    0    0  501    0  0.00000000000E+00 -0.00000000000E+00 -0.41911821322E+02  0.41911821322E+02  0.00000000000E+00 0. -1.
         23    2    1    2    0    0  0.00000000000E+00  0.00000000000E+00  0.55363998856E+01  0.89360042529E+02  0.89188370750E+02 0.  0.
        -11    1    3    3    0    0 -0.23112983883E+02  0.98084194112E+01  0.39693258844E+02  0.46967753970E+02  0.00000000000E+00 0.  1.
         11    1    3    3    0    0  0.23112983883E+02 -0.98084194112E+01 -0.34156858959E+02  0.42392288559E+02  0.00000000000E+00 0. -1.
<mgrwt>
<rscale>  0 0.89188371E+02</rscale>
<asrwt>0</asrwt>
<pdfrwt beam="2">  1        2 0.64479725E-02 0.89188371E+02</pdfrwt>
<pdfrwt beam="1">  1       -2 0.72997263E-02 0.89188371E+02</pdfrwt>
<totfact> 0.10287289E+05</totfact>
</mgrwt>
</event>
<event>
 5    1  0.6004828E+000  0.9653766E+02  0.7546771E-02  0.1287750E+00
         -3   -1    0    0    0  501 -0.00000000000E+00  0.00000000000E+00  0.82345108521E+02  0.82345108521E+02  0.00000000000E+00 0.  1.
          3   -1    0    0  501    0  0.00000000000E+00 -0.00000000000E+00 -0.28294091159E+02  0.28294091159E+02  0.00000000000E+00 0. -1.
         23    2    1    2    0    0  0.00000000000E+00  0.00000000000E+00  0.54051017361E+02  0.11063919968E+03  0.96537661190E+02 0.  0.
        -11    1    3    3    0    0 -0.58940816937E+01  0.32990216719E+02  0.66838726310E+02  0.74769712671E+02  0.00000000000E+00 0.  1.
         11    1    3    3    0    0  0.58940816937E+01 -0.32990216719E+02 -0.12787708949E+02  0.35869487009E+02  0.00000000000E+00 0. -1.
<mgrwt>
<rscale>  0 0.96537661E+02</rscale>
<asrwt>0</asrwt>
<pdfrwt beam="2">  1        3 0.43529371E-02 0.96537661E+02</pdfrwt>
<pdfrwt beam="1">  1       -3 0.12668478E-01 0.96537661E+02</pdfrwt>
<totfact> 0.29002921E+04</totfact>
</mgrwt>
</event>
<event>
 5    1  0.6004828E+000  0.9369907E+02  0.7546771E-02  0.1294133E+00
         -1   -1    0    0    0  501 -0.00000000000E+00  0.00000000000E+00  0.48601959049E+02  0.48601959049E+02  0.00000000000E+00 0.  1.
          1   -1    0    0  501    0  0.00000000000E+00 -0.00000000000E+00 -0.45160300874E+02  0.45160300874E+02  0.00000000000E+00 0. -1.
         23    2    1    2    0    0  0.00000000000E+00  0.00000000000E+00  0.34416581755E+01  0.93762259923E+02  0.93699073501E+02 0.  0.
        -11    1    3    3    0    0 -0.17427139756E+02 -0.26183506519E+02  0.36465964427E+02  0.48156492556E+02  0.00000000000E+00 0.  1.
         11    1    3    3    0    0  0.17427139756E+02  0.26183506519E+02 -0.33024306252E+02  0.45605767367E+02  0.00000000000E+00 0. -1.
<mgrwt>
<rscale>  0 0.93699074E+02</rscale>
<asrwt>0</asrwt>
<pdfrwt beam="2">  1        1 0.69477386E-02 0.93699074E+02</pdfrwt>
<pdfrwt beam="1">  1       -1 0.74772245E-02 0.93699074E+02</pdfrwt>
<totfact> 0.85508760E+04</totfact>
</mgrwt>
</event>
<event>
 5    1  0.6004828E+000  0.9169298E+02  0.7546771E-02  0.1298803E+00
          1   -1    0    0  501    0  0.00000000000E+00  0.00000000000E+00  0.11112395309E+03  0.11112395309E+03  0.00000000000E+00 0. -1.
         -1   -1    0    0    0  501 -0.00000000000E+00 -0.00000000000E+00 -0.18914919035E+02  0.18914919035E+02  0.00000000000E+00 0.  1.
         23    2    1    2    0    0  0.00000000000E+00  0.00000000000E+00  0.92209034058E+02  0.13003887213E+03  0.91692978480E+02 0.  0.
        -11    1    3    3    0    0  0.84602065823E+01  0.36120145427E+02  0.79009532069E+01  0.37929738499E+02  0.00000000000E+00 0.  1.
         11    1    3    3    0    0 -0.84602065823E+01 -0.36120145427E+02  0.84308080851E+02  0.92109133629E+02  0.00000000000E+00 0. -1.
<mgrwt>
<rscale>  0 0.91692978E+02</rscale>
<asrwt>0</asrwt>
<pdfrwt beam="1">  1        1 0.17095992E-01 0.91692978E+02</pdfrwt>
<pdfrwt beam="2">  1       -1 0.29099876E-02 0.91692978E+02</pdfrwt>
<totfact> 0.10470289E+05</totfact>
</mgrwt>
</event>
<event>
 5    1  0.6004828E+000  0.8975324E+02  0.7546771E-02  0.1303450E+00
          2   -1    0    0  501    0  0.00000000000E+00  0.00000000000E+00  0.97943620994E+02  0.97943620994E+02  0.00000000000E+00 0. -1.
         -2   -1    0    0    0  501 -0.00000000000E+00 -0.00000000000E+00 -0.20561940704E+02  0.20561940704E+02  0.00000000000E+00 0.  1.
         23    2    1    2    0    0  0.00000000000E+00  0.00000000000E+00  0.77381680291E+02  0.11850556170E+03  0.89753237873E+02 0.  0.
        -11    1    3    3    0    0  0.87616662719E+01  0.19561785133E+02  0.90748096431E+02  0.93245092307E+02  0.00000000000E+00 0. -1.
         11    1    3    3    0    0 -0.87616662719E+01 -0.19561785133E+02 -0.13366416140E+02  0.25260469391E+02  0.00000000000E+00 0.  1.
<mgrwt>
<rscale>  0 0.89753238E+02</rscale>
<asrwt>0</asrwt>
<pdfrwt beam="1">  1        2 0.15068249E-01 0.89753238E+02</pdfrwt>
<pdfrwt beam="2">  1       -2 0.31633755E-02 0.89753238E+02</pdfrwt>
<totfact> 0.12729611E+05</totfact>
</mgrwt>
</event>
<event>
 5    1  0.6004828E+000  0.9124298E+02  0.7546771E-02  0.1299869E+00
         -1   -1    0    0    0  501 -0.00000000000E+00  0.00000000000E+00  0.33382684631E+02  0.33382684631E+02  0.00000000000E+00 0.  1.
          1   -1    0    0  501    0  0.00000000000E+00 -0.00000000000E+00 -0.62347298069E+02  0.62347298069E+02  0.00000000000E+00 0. -1.
         23    2    1    2    0    0  0.00000000000E+00  0.00000000000E+00 -0.28964613438E+02  0.95729982701E+02  0.91242976476E+02 0.  0.
        -11    1    3    3    0    0  0.16825198323E+02 -0.21722261496E+02  0.23728121434E+02  0.36303824728E+02  0.00000000000E+00 0.  1.
         11    1    3    3    0    0 -0.16825198323E+02  0.21722261496E+02 -0.52692734872E+02  0.59426157973E+02  0.00000000000E+00 0. -1.
<mgrwt>
<rscale>  0 0.91242976E+02</rscale>
<asrwt>0</asrwt>
<pdfrwt beam="2">  1        1 0.95918919E-02 0.91242976E+02</pdfrwt>
<pdfrwt beam="1">  1       -1 0.51357977E-02 0.91242976E+02</pdfrwt>
<totfact> 0.96739026E+04</totfact>
</mgrwt>
</event>
<event>
 5    1  0.6004828E+000  0.9372939E+02  0.7546771E-02  0.1294064E+00
          3   -1    0    0  501    0  0.00000000000E+00  0.00000000000E+00  0.17654996934E+03  0.17654996934E+03  0.00000000000E+00 0. -1.
         -3   -1    0    0    0  501 -0.00000000000E+00 -0.00000000000E+00 -0.12440102814E+02  0.12440102814E+02  0.00000000000E+00 0.  1.
         23    2    1    2    0    0  0.00000000000E+00  0.00000000000E+00  0.16410986653E+03  0.18899007215E+03  0.93729392839E+02 0.  0.
        -11    1    3    3    0    0 -0.31571505957E+02  0.15990002644E+02  0.14400144918E+03  0.14828640376E+03  0.00000000000E+00 0. -1.
         11    1    3    3    0    0  0.31571505957E+02 -0.15990002644E+02  0.20108417346E+02  0.40703668399E+02  0.00000000000E+00 0.  1.
<mgrwt>
<rscale>  0 0.93729393E+02</rscale>
<asrwt>0</asrwt>
<pdfrwt beam="1">  1        3 0.27161532E-01 0.93729393E+02</pdfrwt>
<pdfrwt beam="2">  1       -3 0.19138621E-02 0.93729393E+02</pdfrwt>
<totfact> 0.26983183E+04</totfact>
</mgrwt>
</event>
<event>
 5    1  0.6004828E+000  0.8779622E+02  0.7546771E-02  0.1308278E+00
         -2   -1    0    0    0  501 -0.00000000000E+00  0.00000000000E+00  0.61451108485E+01  0.61451108485E+01  0.00000000000E+00 0.  1.
          2   -1    0    0  501    0  0.00000000000E+00 -0.00000000000E+00 -0.31358976682E+03  0.31358976682E+03  0.00000000000E+00 0. -1.
         23    2    1    2    0    0  0.00000000000E+00  0.00000000000E+00 -0.30744465598E+03  0.31973487767E+03  0.87796215820E+02 0.  0.
        -11    1    3    3    0    0 -0.43252058903E+02  0.64569876940E+01 -0.13980204472E+03  0.14648223441E+03  0.00000000000E+00 0.  1.
         11    1    3    3    0    0  0.43252058903E+02 -0.64569876940E+01 -0.16764261125E+03  0.17325264326E+03  0.00000000000E+00 0. -1.
<mgrwt>
<rscale>  0 0.87796216E+02</rscale>
<asrwt>0</asrwt>
<pdfrwt beam="2">  1        2 0.48244587E-01 0.87796216E+02</pdfrwt>
<pdfrwt beam="1">  1       -2 0.94540153E-03 0.87796216E+02</pdfrwt>
<totfact> 0.20194672E+05</totfact>
</mgrwt>
</event>
<event>
 5    1  0.6004828E+000  0.9083032E+02  0.7546771E-02  0.1300853E+00
          2   -1    0    0  501    0  0.00000000000E+00  0.00000000000E+00  0.99775506931E+02  0.99775506931E+02  0.00000000000E+00 0. -1.
         -2   -1    0    0    0  501 -0.00000000000E+00 -0.00000000000E+00 -0.20671774045E+02  0.20671774045E+02  0.00000000000E+00 0.  1.
         23    2    1    2    0    0  0.00000000000E+00  0.00000000000E+00  0.79103732886E+02  0.12044728098E+03  0.90830319486E+02 0.  0.
        -11    1    3    3    0    0  0.16094856570E+01  0.20816906791E+02  0.93033775450E+02  0.95347875838E+02  0.00000000000E+00 0. -1.
         11    1    3    3    0    0 -0.16094856570E+01 -0.20816906791E+02 -0.13930042563E+02  0.25099405137E+02  0.00000000000E+00 0.  1.
<mgrwt>
<rscale>  0 0.90830319E+02</rscale>
<asrwt>0</asrwt>
<pdfrwt beam="1">  1        2 0.15350078E-01 0.90830319E+02</pdfrwt>
<pdfrwt beam="2">  1       -2 0.31802730E-02 0.90830319E+02</pdfrwt>
<totfact> 0.12388369E+05</totfact>
</mgrwt>
</event>
<event>
 5    1  0.6004828E+000  0.9192389E+02  0.7546771E-02  0.1298258E+00
         -3   -1    0    0    0  501 -0.00000000000E+00  0.00000000000E+00  0.62893662825E+02  0.62893662825E+02  0.00000000000E+00 0.  1.
          3   -1    0    0  501    0  0.00000000000E+00 -0.00000000000E+00 -0.33588445978E+02  0.33588445978E+02  0.00000000000E+00 0. -1.
         23    2    1    2    0    0  0.00000000000E+00  0.00000000000E+00  0.29305216847E+02  0.96482108803E+02  0.91923890173E+02 0.  0.
        -11    1    3    3    0    0  0.11729993798E+02 -0.30535513683E+02  0.48541264819E+02  0.58534303965E+02  0.00000000000E+00 0.  1.
         11    1    3    3    0    0 -0.11729993798E+02  0.30535513683E+02 -0.19236047973E+02  0.37947804838E+02  0.00000000000E+00 0. -1.
<mgrwt>
<rscale>  0 0.91923890E+02</rscale>
<asrwt>0</asrwt>
<pdfrwt beam="2">  1        3 0.51674532E-02 0.91923890E+02</pdfrwt>
<pdfrwt beam="1">  1       -3 0.96759481E-02 0.91923890E+02</pdfrwt>
<totfact> 0.34165892E+04</totfact>
</mgrwt>
</event>
<event>
 5    1  0.6004828E+000  0.9221149E+02  0.7546771E-02  0.1297583E+00
         -2   -1    0    0    0  501 -0.00000000000E+00  0.00000000000E+00  0.11831606600E+03  0.11831606600E+03  0.00000000000E+00 0.  1.
          2   -1    0    0  501    0  0.00000000000E+00 -0.00000000000E+00 -0.17966618024E+02  0.17966618024E+02  0.00000000000E+00 0. -1.
         23    2    1    2    0    0  0.00000000000E+00  0.00000000000E+00  0.10034944797E+03  0.13628268402E+03  0.92211486570E+02 0.  0.
        -11    1    3    3    0    0 -0.12373537944E+02 -0.30130996953E+02  0.98400712709E+02  0.10365173264E+03  0.00000000000E+00 0.  1.
         11    1    3    3    0    0  0.12373537944E+02  0.30130996953E+02  0.19487352655E+01  0.32630951377E+02  0.00000000000E+00 0. -1.
<mgrwt>
<rscale>  0 0.92211487E+02</rscale>
<asrwt>0</asrwt>
<pdfrwt beam="2">  1        2 0.27640952E-02 0.92211487E+02</pdfrwt>
<pdfrwt beam="1">  1       -2 0.18202471E-01 0.92211487E+02</pdfrwt>
<totfact> 0.73645013E+04</totfact>
</mgrwt>
</event>
<event>
 5    1  0.6004828E+000  0.9812355E+02  0.7546771E-02  0.1284292E+00
         -1   -1    0    0    0  501 -0.00000000000E+00  0.00000000000E+00  0.21858090026E+02  0.21858090026E+02  0.00000000000E+00 0.  1.
          1   -1    0    0  501    0  0.00000000000E+00 -0.00000000000E+00 -0.11012206190E+03  0.11012206190E+03  0.00000000000E+00 0. -1.
         23    2    1    2    0    0  0.00000000000E+00  0.00000000000E+00 -0.88263971873E+02  0.13198015192E+03  0.98123553601E+02 0.  0.
        -11    1    3    3    0    0 -0.43619367788E+01 -0.48827069588E+02 -0.41459202041E+02  0.64202606262E+02  0.00000000000E+00 0.  1.
         11    1    3    3    0    0  0.43619367788E+01  0.48827069588E+02 -0.46804769832E+02  0.67777545662E+02  0.00000000000E+00 0. -1.
<mgrwt>
<rscale>  0 0.98123554E+02</rscale>
<asrwt>0</asrwt>
<pdfrwt beam="2">  1        1 0.16941856E-01 0.98123554E+02</pdfrwt>
<pdfrwt beam="1">  1       -1 0.33627831E-02 0.98123554E+02</pdfrwt>
<totfact> 0.86855036E+04</totfact>
</mgrwt>
</event>
<event>
 5    1  0.6004828E+000  0.9193134E+02  0.7546771E-02  0.1298241E+00
          1   -1    0    0  501    0  0.00000000000E+00  0.00000000000E+00  0.26398897385E+02  0.26398897385E+02  0.00000000000E+00 0. -1.
         -1   -1    0    0    0  501 -0.00000000000E+00 -0.00000000000E+00 -0.80035273501E+02  0.80035273501E+02  0.00000000000E+00 0.  1.
         23    2    1    2    0    0  0.00000000000E+00  0.00000000000E+00 -0.53636376117E+02  0.10643417089E+03  0.91931343345E+02 0.  0.
        -11    1    3    3    0    0 -0.31357899585E+02  0.33380441067E+02 -0.31342524696E+02  0.55497077099E+02  0.00000000000E+00 0. -1.
         11    1    3    3    0    0  0.31357899585E+02 -0.33380441067E+02 -0.22293851421E+02  0.50937093787E+02  0.00000000000E+00 0.  1.
<mgrwt>
<rscale>  0 0.91931343E+02</rscale>
<asrwt>0</asrwt>
<pdfrwt beam="1">  1        1 0.40613689E-02 0.91931343E+02</pdfrwt>
<pdfrwt beam="2">  1       -1 0.12313119E-01 0.91931343E+02</pdfrwt>
<totfact> 0.82875355E+04</totfact>
</mgrwt>
</event>
<event>
 5    1  0.6004828E+000  0.8864192E+02  0.7546771E-02  0.1306174E+00
          1   -1    0    0  501    0  0.00000000000E+00  0.00000000000E+00  0.25072089905E+03  0.25072089905E+03  0.00000000000E+00 0. -1.
         -1   -1    0    0    0  501 -0.00000000000E+00 -0.00000000000E+00 -0.78347977058E+01  0.78347977058E+01  0.00000000000E+00 0.  1.
         23    2    1    2    0    0  0.00000000000E+00  0.00000000000E+00  0.24288610134E+03  0.25855569675E+03  0.88641920662E+02 0.  0.
        -11    1    3    3    0    0  0.35991042039E+02  0.11822932318E+02  0.18854409156E+03  0.19231227547E+03  0.00000000000E+00 0. -1.
         11    1    3    3    0    0 -0.35991042039E+02 -0.11822932318E+02  0.54342009779E+02  0.66243421277E+02  0.00000000000E+00 0.  1.
<mgrwt>
<rscale>  0 0.88641921E+02</rscale>
<asrwt>0</asrwt>
<pdfrwt beam="1">  1        1 0.38572440E-01 0.88641921E+02</pdfrwt>
<pdfrwt beam="2">  1       -1 0.12053537E-02 0.88641921E+02</pdfrwt>
<totfact> 0.13339873E+05</totfact>
</mgrwt>
</event>
<event>
 5    1  0.6004828E+000  0.9161877E+02  0.7546771E-02  0.1298978E+00
         -3   -1    0    0    0  501 -0.00000000000E+00  0.00000000000E+00  0.11583066746E+03  0.11583066746E+03  0.00000000000E+00 0.  1.
          3   -1    0    0  501    0  0.00000000000E+00 -0.00000000000E+00 -0.18116962001E+02  0.18116962001E+02  0.00000000000E+00 0. -1.
         23    2    1    2    0    0  0.00000000000E+00  0.00000000000E+00  0.97713705464E+02  0.13394762946E+03  0.91618771023E+02 0.  0.
        -11    1    3    3    0    0  0.20784402718E+02 -0.39348034705E+02  0.64754535501E+02  0.78571044917E+02  0.00000000000E+00 0.  1.
         11    1    3    3    0    0 -0.20784402718E+02  0.39348034705E+02  0.32959169963E+02  0.55376584547E+02  0.00000000000E+00 0. -1.
<mgrwt>
<rscale>  0 0.91618771E+02</rscale>
<asrwt>0</asrwt>
<pdfrwt beam="2">  1        3 0.27872250E-02 0.91618771E+02</pdfrwt>
<pdfrwt beam="1">  1       -3 0.17820102E-01 0.91618771E+02</pdfrwt>
<totfact> 0.31897792E+04</totfact>
</mgrwt>
</event>
<event>
 5    1  0.6004828E+000  0.9254445E+02  0.7546771E-02  0.1296804E+00
         -1   -1    0    0    0  501 -0.00000000000E+00  0.00000000000E+00  0.14573608169E+03  0.14573608169E+03  0.00000000000E+00 0. -1.
          1   -1    0    0  501    0  0.00000000000E+00 -0.00000000000E+00 -0.14691754769E+02  0.14691754769E+02  0.00000000000E+00 0.  1.
         23    2    1    2    0    0  0.00000000000E+00  0.00000000000E+00  0.13104432692E+03  0.16042783646E+03  0.92544449281E+02 0.  0.
        -11    1    3    3    0    0  0.74424814268E+01  0.30465639576E+02  0.65423282733E+01  0.32036663119E+02  0.00000000000E+00 0.  1.
         11    1    3    3    0    0 -0.74424814268E+01 -0.30465639576E+02  0.12450199864E+03  0.12839117334E+03  0.00000000000E+00 0. -1.
<mgrwt>
<rscale>  0 0.92544449E+02</rscale>
<asrwt>0</asrwt>
<pdfrwt beam="2">  1        1 0.22602701E-02 0.92544449E+02</pdfrwt>
<pdfrwt beam="1">  1       -1 0.22420935E-01 0.92544449E+02</pdfrwt>
<totfact> 0.72434380E+04</totfact>
</mgrwt>
</event>
<event>
 5    1  0.6004828E+000  0.9071204E+02  0.7546771E-02  0.1301136E+00
         -2   -1    0    0    0  501 -0.00000000000E+00  0.00000000000E+00  0.76300408766E+01  0.76300408766E+01  0.00000000000E+00 0.  1.
          2   -1    0    0  501    0  0.00000000000E+00 -0.00000000000E+00 -0.26961434616E+03  0.26961434616E+03  0.00000000000E+00 0. -1.
         23    2    1    2    0    0  0.00000000000E+00  0.00000000000E+00 -0.26198430528E+03  0.27724438703E+03  0.90712038497E+02 0.  0.
        -11    1    3    3    0    0 -0.17720854837E+02  0.31056989204E+02 -0.21627386856E+03  0.21920983439E+03  0.00000000000E+00 0. -1.
         11    1    3    3    0    0  0.17720854837E+02 -0.31056989204E+02 -0.45710436722E+02  0.58034552638E+02  0.00000000000E+00 0.  1.
<mgrwt>
<rscale>  0 0.90712038E+02</rscale>
<asrwt>0</asrwt>
<pdfrwt beam="2">  1        2 0.41479127E-01 0.90712038E+02</pdfrwt>
<pdfrwt beam="1">  1       -2 0.11738525E-02 0.90712038E+02</pdfrwt>
<totfact> 0.17501852E+05</totfact>
</mgrwt>
</event>
<event>
 5    1  0.6004828E+000  0.9064219E+02  0.7546771E-02  0.1301304E+00
         -2   -1    0    0    0  501 -0.00000000000E+00  0.00000000000E+00  0.76606781228E+01  0.76606781228E+01  0.00000000000E+00 0.  1.
          2   -1    0    0  501    0  0.00000000000E+00 -0.00000000000E+00 -0.26812269962E+03  0.26812269962E+03  0.00000000000E+00 0. -1.
         23    2    1    2    0    0  0.00000000000E+00  0.00000000000E+00 -0.26046202150E+03  0.27578337774E+03  0.90642191042E+02 0.  0.
        -11    1    3    3    0    0  0.28061821196E+02  0.33966503621E+02 -0.97915104030E+02  0.10737111704E+03  0.00000000000E+00 0.  1.
         11    1    3    3    0    0 -0.28061821196E+02 -0.33966503621E+02 -0.16254691747E+03  0.16841226070E+03  0.00000000000E+00 0. -1.
<mgrwt>
<rscale>  0 0.90642191E+02</rscale>
<asrwt>0</asrwt>
<pdfrwt beam="2">  1        2 0.41249646E-01 0.90642191E+02</pdfrwt>
<pdfrwt beam="1">  1       -2 0.11785659E-02 0.90642191E+02</pdfrwt>
<totfact> 0.17501651E+05</totfact>
</mgrwt>
</event>
<event>
 5    1  0.6004828E+000  0.9058566E+02  0.7546771E-02  0.1301440E+00
         -1   -1    0    0    0  501 -0.00000000000E+00  0.00000000000E+00  0.16841790647E+02  0.16841790647E+02  0.00000000000E+00 0.  1.
          1   -1    0    0  501    0  0.00000000000E+00 -0.00000000000E+00 -0.12180655093E+03  0.12180655093E+03  0.00000000000E+00 0. -1.
         23    2    1    2    0    0  0.00000000000E+00  0.00000000000E+00 -0.10496476029E+03  0.13864834158E+03  0.90585659576E+02 0.  0.
        -11    1    3    3    0    0 -0.25392898731E+01 -0.30898975763E+02 -0.19444528462E+01  0.31064056290E+02  0.00000000000E+00 0. -1.
         11    1    3    3    0    0  0.25392898731E+01  0.30898975763E+02 -0.10302030744E+03  0.10758428529E+03  0.00000000000E+00 0.  1.
<mgrwt>
<rscale>  0 0.90585660E+02</rscale>
<asrwt>0</asrwt>
<pdfrwt beam="2">  1        1 0.18739469E-01 0.90585660E+02</pdfrwt>
<pdfrwt beam="1">  1       -1 0.25910447E-02 0.90585660E+02</pdfrwt>
<totfact> 0.10993956E+05</totfact>
</mgrwt>
</event>
<event>
 5    1  0.6004828E+000  0.8742092E+02  0.7546771E-02  0.1309220E+00
         -1   -1    0    0    0  501 -0.00000000000E+00  0.00000000000E+00  0.15097201569E+02  0.15097201569E+02  0.00000000000E+00 0.  1.
          1   -1    0    0  501    0  0.00000000000E+00 -0.00000000000E+00 -0.12655355437E+03  0.12655355437E+03  0.00000000000E+00 0. -1.
         23    2    1    2    0    0  0.00000000000E+00  0.00000000000E+00 -0.11145635280E+03  0.14165075594E+03  0.87420924718E+02 0.  0.
        -11    1    3    3    0    0 -0.13056098855E+01  0.43688306472E+02 -0.56508260753E+02  0.71439178837E+02  0.00000000000E+00 0.  1.
         11    1    3    3    0    0  0.13056098855E+01 -0.43688306472E+02 -0.54948092049E+02  0.70211577103E+02  0.00000000000E+00 0. -1.
<mgrwt>
<rscale>  0 0.87420925E+02</rscale>
<asrwt>0</asrwt>
<pdfrwt beam="2">  1        1 0.19469778E-01 0.87420925E+02</pdfrwt>
<pdfrwt beam="1">  1       -1 0.23226464E-02 0.87420925E+02</pdfrwt>
<totfact> 0.12182596E+05</totfact>
</mgrwt>
</event>
<event>
 5    1  0.6004828E+000  0.9076077E+02  0.7546771E-02  0.1301020E+00
          3   -1    0    0  501    0  0.00000000000E+00  0.00000000000E+00  0.12356685479E+03  0.12356685479E+03  0.00000000000E+00 0. -1.
         -3   -1    0    0    0  501 -0.00000000000E+00 -0.00000000000E+00 -0.16666112802E+02  0.16666112802E+02  0.00000000000E+00 0.  1.
         23    2    1    2    0    0  0.00000000000E+00  0.00000000000E+00  0.10690074199E+03  0.14023296759E+03  0.90760765545E+02 0.  0.
        -11    1    3    3    0    0  0.37369816409E+02  0.23677752589E+02  0.37827444738E+02  0.58206998905E+02  0.00000000000E+00 0. -1.
         11    1    3    3    0    0 -0.37369816409E+02 -0.23677752589E+02  0.69073297252E+02  0.82025968689E+02  0.00000000000E+00 0.  1.
<mgrwt>
<rscale>  0 0.90760766E+02</rscale>
<asrwt>0</asrwt>
<pdfrwt beam="1">  1        3 0.19010285E-01 0.90760766E+02</pdfrwt>
<pdfrwt beam="2">  1       -3 0.25640174E-02 0.90760766E+02</pdfrwt>
<totfact> 0.32313150E+04</totfact>
</mgrwt>
</event>
<event>
 5    1  0.6004828E+000  0.9215375E+02  0.7546771E-02  0.1297718E+00
         -2   -1    0    0    0  501 -0.00000000000E+00  0.00000000000E+00  0.12106883683E+02  0.12106883683E+02  0.00000000000E+00 0.  1.
          2   -1    0    0  501    0  0.00000000000E+00 -0.00000000000E+00 -0.17536125474E+03  0.17536125474E+03  0.00000000000E+00 0. -1.
         23    2    1    2    0    0  0.00000000000E+00  0.00000000000E+00 -0.16325437106E+03  0.18746813842E+03  0.92153747915E+02 0.  0.
        -11    1    3    3    0    0 -0.18604711477E+02 -0.40620874704E+02 -0.58711967593E+02  0.73778627593E+02  0.00000000000E+00 0.  1.
         11    1    3    3    0    0  0.18604711477E+02  0.40620874704E+02 -0.10454240346E+03  0.11368951083E+03  0.00000000000E+00 0. -1.
<mgrwt>
<rscale>  0 0.92153748E+02</rscale>
<asrwt>0</asrwt>
<pdfrwt beam="2">  1        2 0.26978654E-01 0.92153748E+02</pdfrwt>
<pdfrwt beam="1">  1       -2 0.18625975E-02 0.92153748E+02</pdfrwt>
<totfact> 0.14338251E+05</totfact>
</mgrwt>
</event>
<event>
 5    1  0.6004828E+000  0.9012848E+02  0.7546771E-02  0.1302541E+00
         -1   -1    0    0    0  501 -0.00000000000E+00  0.00000000000E+00  0.20663398884E+02  0.20663398884E+02  0.00000000000E+00 0.  1.
          1   -1    0    0  501    0  0.00000000000E+00 -0.00000000000E+00 -0.98279358973E+02  0.98279358973E+02  0.00000000000E+00 0. -1.
         23    2    1    2    0    0  0.00000000000E+00  0.00000000000E+00 -0.77615960089E+02  0.11894275786E+03  0.90128477111E+02 0.  0.
        -11    1    3    3    0    0 -0.16035792556E+02  0.39025617029E+02 -0.17914955780E+02  0.45837659931E+02  0.00000000000E+00 0.  1.
         11    1    3    3    0    0  0.16035792556E+02 -0.39025617029E+02 -0.59701004309E+02  0.73105097927E+02  0.00000000000E+00 0. -1.
<mgrwt>
<rscale>  0 0.90128477E+02</rscale>
<asrwt>0</asrwt>
<pdfrwt beam="2">  1        1 0.15119901E-01 0.90128477E+02</pdfrwt>
<pdfrwt beam="1">  1       -1 0.31789845E-02 0.90128477E+02</pdfrwt>
<totfact> 0.10748397E+05</totfact>
</mgrwt>
</event>
<event>
 5    1  0.6004828E+000  0.9231374E+02  0.7546771E-02  0.1297343E+00
          1   -1    0    0  501    0  0.00000000000E+00  0.00000000000E+00  0.78837311918E+02  0.78837311918E+02  0.00000000000E+00 0. -1.
         -1   -1    0    0    0  501 -0.00000000000E+00 -0.00000000000E+00 -0.27023456224E+02  0.27023456224E+02  0.00000000000E+00 0.  1.
         23    2    1    2    0    0  0.00000000000E+00  0.00000000000E+00  0.51813855694E+02  0.10586076814E+03  0.92313739983E+02 0.  0.
        -11    1    3    3    0    0 -0.16248385351E+02  0.26737425766E+02  0.64821418912E+02  0.71977193005E+02  0.00000000000E+00 0. -1.
         11    1    3    3    0    0  0.16248385351E+02 -0.26737425766E+02 -0.13007563218E+02  0.33883575136E+02  0.00000000000E+00 0.  1.
<mgrwt>
<rscale>  0 0.92313740E+02</rscale>
<asrwt>0</asrwt>
<pdfrwt beam="1">  1        1 0.12128817E-01 0.92313740E+02</pdfrwt>
<pdfrwt beam="2">  1       -1 0.41574548E-02 0.92313740E+02</pdfrwt>
<totfact> 0.97143097E+04</totfact>
</mgrwt>
</event>
<event>
 5    1  0.6004828E+000  0.9013857E+02  0.7546771E-02  0.1302516E+00
         -1   -1    0    0    0  501 -0.00000000000E+00  0.00000000000E+00  0.48052535140E+02  0.48052535140E+02  0.00000000000E+00 0.  1.
          1   -1    0    0  501    0  0.00000000000E+00 -0.00000000000E+00 -0.42271243564E+02  0.42271243564E+02  0.00000000000E+00 0. -1.
         23    2    1    2    0    0  0.00000000000E+00  0.00000000000E+00  0.57812915762E+01  0.90323778704E+02  0.90138569253E+02 0.  0.
        -11    1    3    3    0    0 -0.21878165241E+02  0.39393342183E+02  0.37589677797E+01  0.45217467437E+02  0.00000000000E+00 0. -1.
         11    1    3    3    0    0  0.21878165241E+02 -0.39393342183E+02  0.20223237965E+01  0.45106311267E+02  0.00000000000E+00 0.  1.
<mgrwt>
<rscale>  0 0.90138569E+02</rscale>
<asrwt>0</asrwt>
<pdfrwt beam="2">  1        1 0.65032682E-02 0.90138569E+02</pdfrwt>
<pdfrwt beam="1">  1       -1 0.73926977E-02 0.90138569E+02</pdfrwt>
<totfact> 0.94418107E+04</totfact>
</mgrwt>
</event>
<event>
 5    1  0.6004828E+000  0.9124914E+02  0.7546771E-02  0.1299855E+00
         -2   -1    0    0    0  501 -0.00000000000E+00  0.00000000000E+00  0.19841537219E+03  0.19841537219E+03  0.00000000000E+00 0.  1.
          2   -1    0    0  501    0  0.00000000000E+00 -0.00000000000E+00 -0.10491130566E+02  0.10491130566E+02  0.00000000000E+00 0. -1.
         23    2    1    2    0    0  0.00000000000E+00  0.00000000000E+00  0.18792424163E+03  0.20890650276E+03  0.91249144129E+02 0.  0.
        -11    1    3    3    0    0 -0.41533673410E+02  0.18215663767E+02  0.10535066313E+03  0.11469794529E+03  0.00000000000E+00 0.  1.
         11    1    3    3    0    0  0.41533673410E+02 -0.18215663767E+02  0.82573578501E+02  0.94208557466E+02  0.00000000000E+00 0. -1.
<mgrwt>
<rscale>  0 0.91249144E+02</rscale>
<asrwt>0</asrwt>
<pdfrwt beam="2">  1        2 0.16140202E-02 0.91249144E+02</pdfrwt>
<pdfrwt beam="1">  1       -2 0.30525439E-01 0.91249144E+02</pdfrwt>
<totfact> 0.62407164E+04</totfact>
</mgrwt>
</event>
<event>
 5    1  0.6004828E+000  0.9114082E+02  0.7546771E-02  0.1300112E+00
         -2   -1    0    0    0  501 -0.00000000000E+00  0.00000000000E+00  0.86774011521E+02  0.86774011521E+02  0.00000000000E+00 0.  1.
          2   -1    0    0  501    0  0.00000000000E+00 -0.00000000000E+00 -0.23931845485E+02  0.23931845485E+02  0.00000000000E+00 0. -1.
         23    2    1    2    0    0  0.00000000000E+00  0.00000000000E+00  0.62842166036E+02  0.11070585701E+03  0.91140819304E+02 0.  0.
        -11    1    3    3    0    0  0.15140910364E+02  0.16311029275E+02 -0.16881881439E+02  0.27933756704E+02  0.00000000000E+00 0. -1.
         11    1    3    3    0    0 -0.15140910364E+02 -0.16311029275E+02  0.79724047475E+02  0.82772100302E+02  0.00000000000E+00 0.  1.
<mgrwt>
<rscale>  0 0.91140819E+02</rscale>
<asrwt>0</asrwt>
<pdfrwt beam="2">  1        2 0.36818224E-02 0.91140819E+02</pdfrwt>
<pdfrwt beam="1">  1       -2 0.13349848E-01 0.91140819E+02</pdfrwt>
<totfact> 0.83247360E+04</totfact>
</mgrwt>
</event>
<event>
 5    1  0.6004828E+000  0.7557086E+02  0.7546771E-02  0.1342112E+00
          3   -1    0    0  501    0  0.00000000000E+00  0.00000000000E+00  0.13274274492E+03  0.13274274492E+03  0.00000000000E+00 0. -1.
         -3   -1    0    0    0  501 -0.00000000000E+00 -0.00000000000E+00 -0.10755680891E+02  0.10755680891E+02  0.00000000000E+00 0.  1.
         23    2    1    2    0    0  0.00000000000E+00  0.00000000000E+00  0.12198706403E+03  0.14349842581E+03  0.75570856948E+02 0.  0.
        -11    1    3    3    0    0  0.25574444549E+02 -0.92054201796E+01  0.11083439805E+03  0.11411860394E+03  0.00000000000E+00 0. -1.
         11    1    3    3    0    0 -0.25574444549E+02  0.92054201796E+01  0.11152665981E+02  0.29379821871E+02  0.00000000000E+00 0.  1.
<mgrwt>
<rscale>  0 0.75570857E+02</rscale>
<asrwt>0</asrwt>
<pdfrwt beam="1">  1        3 0.20421960E-01 0.75570857E+02</pdfrwt>
<pdfrwt beam="2">  1       -3 0.16547202E-02 0.75570857E+02</pdfrwt>
<totfact> 0.52417008E+04</totfact>
</mgrwt>
</event>
<event>
 5    1  0.6004828E+000  0.9098817E+02  0.7546771E-02  0.1300476E+00
          3   -1    0    0  501    0  0.00000000000E+00  0.00000000000E+00  0.11522841603E+03  0.11522841603E+03  0.00000000000E+00 0. -1.
         -3   -1    0    0    0  501 -0.00000000000E+00 -0.00000000000E+00 -0.17961819081E+02  0.17961819081E+02  0.00000000000E+00 0.  1.
         23    2    1    2    0    0  0.00000000000E+00  0.00000000000E+00  0.97266596949E+02  0.13319023511E+03  0.90988174215E+02 0.  0.
        -11    1    3    3    0    0 -0.41819931254E+02  0.97028391399E+01  0.26595150633E+02  0.50501027461E+02  0.00000000000E+00 0.  1.
         11    1    3    3    0    0  0.41819931254E+02 -0.97028391399E+01  0.70671446316E+02  0.82689207650E+02  0.00000000000E+00 0. -1.
<mgrwt>
<rscale>  0 0.90988174E+02</rscale>
<asrwt>0</asrwt>
<pdfrwt beam="1">  1        3 0.17727448E-01 0.90988174E+02</pdfrwt>
<pdfrwt beam="2">  1       -3 0.27633569E-02 0.90988174E+02</pdfrwt>
<totfact> 0.32549689E+04</totfact>
</mgrwt>
</event>
<event>
 5    1  0.6004828E+000  0.9157998E+02  0.7546771E-02  0.1299070E+00
          4   -1    0    0  501    0  0.00000000000E+00  0.00000000000E+00  0.63376738496E+02  0.63376738496E+02  0.00000000000E+00 0. -1.
         -4   -1    0    0    0  501 -0.00000000000E+00 -0.00000000000E+00 -0.33083484246E+02  0.33083484246E+02  0.00000000000E+00 0.  1.
         23    2    1    2    0    0  0.00000000000E+00  0.00000000000E+00  0.30293254250E+02  0.96460222742E+02  0.91579983176E+02 0.  0.
        -11    1    3    3    0    0 -0.59250032797E+01 -0.45066861937E+02  0.20972719106E+02  0.50059790804E+02  0.00000000000E+00 0.  1.
         11    1    3    3    0    0  0.59250032797E+01  0.45066861937E+02  0.93205351439E+01  0.46400431938E+02  0.00000000000E+00 0. -1.
<mgrwt>
<rscale>  0 0.91579983E+02</rscale>
<asrwt>0</asrwt>
<pdfrwt beam="1">  1        4 0.97502675E-02 0.91579983E+02</pdfrwt>
<pdfrwt beam="2">  1       -4 0.50897668E-02 0.91579983E+02</pdfrwt>
<totfact> 0.26361314E+04</totfact>
</mgrwt>
</event>
<event>
 5    1  0.6004828E+000  0.1087913E+03  0.7546771E-02  0.1262825E+00
          1   -1    0    0  501    0  0.00000000000E+00  0.00000000000E+00  0.35713483707E+02  0.35713483707E+02  0.00000000000E+00 0. -1.
         -1   -1    0    0    0  501 -0.00000000000E+00 -0.00000000000E+00 -0.82850634741E+02  0.82850634741E+02  0.00000000000E+00 0.  1.
         23    2    1    2    0    0  0.00000000000E+00  0.00000000000E+00 -0.47137151034E+02  0.11856411845E+03  0.10879126424E+03 0.  0.
        -11    1    3    3    0    0  0.30404305535E+02 -0.45071262211E+02 -0.21667039686E+02  0.58526071807E+02  0.00000000000E+00 0.  1.
         11    1    3    3    0    0 -0.30404305535E+02  0.45071262211E+02 -0.25470111348E+02  0.60038046641E+02  0.00000000000E+00 0. -1.
<mgrwt>
<rscale>  0 0.10879126E+03</rscale>
<asrwt>0</asrwt>
<pdfrwt beam="1">  1        1 0.54943822E-02 0.10879126E+03</pdfrwt>
<pdfrwt beam="2">  1       -1 0.12746251E-01 0.10879126E+03</pdfrwt>
<totfact> 0.53473299E+04</totfact>
</mgrwt>
</event>
<event>
 5    1  0.6004828E+000  0.9505111E+02  0.7546771E-02  0.1291061E+00
          1   -1    0    0  501    0  0.00000000000E+00  0.00000000000E+00  0.17938816620E+02  0.17938816620E+02  0.00000000000E+00 0. -1.
         -1   -1    0    0    0  501 -0.00000000000E+00 -0.00000000000E+00 -0.12591011862E+03  0.12591011862E+03  0.00000000000E+00 0.  1.
         23    2    1    2    0    0  0.00000000000E+00  0.00000000000E+00 -0.10797130200E+03  0.14384893524E+03  0.95051113165E+02 0.  0.
        -11    1    3    3    0    0  0.23895053881E+02  0.40370557353E+02 -0.65503597869E+02  0.80569701717E+02  0.00000000000E+00 0.  1.
         11    1    3    3    0    0 -0.23895053881E+02 -0.40370557353E+02 -0.42467704131E+02  0.63279233522E+02  0.00000000000E+00 0. -1.
<mgrwt>
<rscale>  0 0.95051113E+02</rscale>
<asrwt>0</asrwt>
<pdfrwt beam="1">  1        1 0.27598180E-02 0.95051113E+02</pdfrwt>
<pdfrwt beam="2">  1       -1 0.19370787E-01 0.95051113E+02</pdfrwt>
<totfact> 0.69801088E+04</totfact>
</mgrwt>
</event>
<event>
 5    1  0.6004828E+000  0.1015294E+03  0.7546771E-02  0.1277112E+00
          3   -1    0    0  501    0  0.00000000000E+00  0.00000000000E+00  0.31834694652E+02  0.31834694652E+02  0.00000000000E+00 0. -1.
         -3   -1    0    0    0  501 -0.00000000000E+00 -0.00000000000E+00 -0.80951185135E+02  0.80951185135E+02  0.00000000000E+00 0.  1.
         23    2    1    2    0    0  0.00000000000E+00  0.00000000000E+00 -0.49116490483E+02  0.11278587979E+03  0.10152942944E+03 0.  0.
        -11    1    3    3    0    0  0.36451101315E+02 -0.17588218944E+02  0.94827354764E+01  0.41568624043E+02  0.00000000000E+00 0. -1.
         11    1    3    3    0    0 -0.36451101315E+02  0.17588218944E+02 -0.58599225960E+02  0.71217255745E+02  0.00000000000E+00 0.  1.
<mgrwt>
<rscale>  0 0.10152943E+03</rscale>
<asrwt>0</asrwt>
<pdfrwt beam="1">  1        3 0.48976455E-02 0.10152943E+03</pdfrwt>
<pdfrwt beam="2">  1       -3 0.12454028E-01 0.10152943E+03</pdfrwt>
<totfact> 0.25139865E+04</totfact>
</mgrwt>
</event>
<event>
 5    1  0.6004828E+000  0.9747480E+02  0.7546771E-02  0.1285698E+00
         -3   -1    0    0    0  501 -0.00000000000E+00  0.00000000000E+00  0.16693215641E+03  0.16693215641E+03  0.00000000000E+00 0.  1.
          3   -1    0    0  501    0  0.00000000000E+00 -0.00000000000E+00 -0.14229339378E+02  0.14229339378E+02  0.00000000000E+00 0. -1.
         23    2    1    2    0    0  0.00000000000E+00  0.00000000000E+00  0.15270281703E+03  0.18116149578E+03  0.97474803034E+02 0.  0.
        -11    1    3    3    0    0 -0.15889398887E+02  0.25301262765E+02  0.14791650495E+03  0.15090367568E+03  0.00000000000E+00 0.  1.
         11    1    3    3    0    0  0.15889398887E+02 -0.25301262765E+02  0.47863120740E+01  0.30257820109E+02  0.00000000000E+00 0. -1.
<mgrwt>
<rscale>  0 0.97474803E+02</rscale>
<asrwt>0</asrwt>
<pdfrwt beam="2">  1        3 0.21891293E-02 0.97474803E+02</pdfrwt>
<pdfrwt beam="1">  1       -3 0.25681869E-01 0.97474803E+02</pdfrwt>
<totfact> 0.24608229E+04</totfact>
</mgrwt>
</event>
<event>
 5    1  0.6004828E+000  0.8819690E+02  0.7546771E-02  0.1307278E+00
          1   -1    0    0  501    0  0.00000000000E+00  0.00000000000E+00  0.26586066925E+03  0.26586066925E+03  0.00000000000E+00 0. -1.
         -1   -1    0    0    0  501 -0.00000000000E+00 -0.00000000000E+00 -0.73146330878E+01  0.73146330878E+01  0.00000000000E+00 0.  1.
         23    2    1    2    0    0  0.00000000000E+00  0.00000000000E+00  0.25854603616E+03  0.27317530234E+03  0.88196898994E+02 0.  0.
        -11    1    3    3    0    0 -0.25443939426E+02 -0.27941238993E+02  0.58876500417E+02  0.69961054819E+02  0.00000000000E+00 0.  1.
         11    1    3    3    0    0  0.25443939426E+02  0.27941238993E+02  0.19966953575E+03  0.20321424752E+03  0.00000000000E+00 0. -1.
<mgrwt>
<rscale>  0 0.88196899E+02</rscale>
<asrwt>0</asrwt>
<pdfrwt beam="1">  1        1 0.40901634E-01 0.88196899E+02</pdfrwt>
<pdfrwt beam="2">  1       -1 0.11253284E-02 0.88196899E+02</pdfrwt>
<totfact> 0.13674419E+05</totfact>
</mgrwt>
</event>
<event>
 5    1  0.6004828E+000  0.9449611E+02  0.7546771E-02  0.1292315E+00
         -2   -1    0    0    0  501 -0.00000000000E+00  0.00000000000E+00  0.25744251610E+02  0.25744251610E+02  0.00000000000E+00 0.  1.
          2   -1    0    0  501    0  0.00000000000E+00 -0.00000000000E+00 -0.86713675970E+02  0.86713675970E+02  0.00000000000E+00 0. -1.
         23    2    1    2    0    0  0.00000000000E+00  0.00000000000E+00 -0.60969424360E+02  0.11245792758E+03  0.94496109808E+02 0.  0.
        -11    1    3    3    0    0 -0.82757324942E+01 -0.13176690872E+02 -0.83577029561E+02  0.85013133108E+02  0.00000000000E+00 0. -1.
         11    1    3    3    0    0  0.82757324942E+01  0.13176690872E+02  0.22607605201E+02  0.27444794472E+02  0.00000000000E+00 0.  1.
<mgrwt>
<rscale>  0 0.94496110E+02</rscale>
<asrwt>0</asrwt>
<pdfrwt beam="2">  1        2 0.13340565E-01 0.94496110E+02</pdfrwt>
<pdfrwt beam="1">  1       -2 0.39606542E-02 0.94496110E+02</pdfrwt>
<totfact> 0.10644253E+05</totfact>
</mgrwt>
</event>
<event>
 5    1  0.6004828E+000  0.7816641E+02  0.7546771E-02  0.1334337E+00
         -2   -1    0    0    0  501 -0.00000000000E+00  0.00000000000E+00  0.29530723723E+02  0.29530723723E+02  0.00000000000E+00 0.  1.
          2   -1    0    0  501    0  0.00000000000E+00 -0.00000000000E+00 -0.51725684879E+02  0.51725684879E+02  0.00000000000E+00 0. -1.
         23    2    1    2    0    0  0.00000000000E+00  0.00000000000E+00 -0.22194961157E+02  0.81256408602E+02  0.78166409909E+02 0.  0.
        -11    1    3    3    0    0 -0.86682044709E+01 -0.13884927176E+02 -0.47990844530E+02  0.50705523665E+02  0.00000000000E+00 0. -1.
         11    1    3    3    0    0  0.86682044709E+01  0.13884927176E+02  0.25795883373E+02  0.30550884937E+02  0.00000000000E+00 0.  1.
<mgrwt>
<rscale>  0 0.78166410E+02</rscale>
<asrwt>0</asrwt>
<pdfrwt beam="2">  1        2 0.79577977E-02 0.78166410E+02</pdfrwt>
<pdfrwt beam="1">  1       -2 0.45431883E-02 0.78166410E+02</pdfrwt>
<totfact> 0.15703164E+05</totfact>
</mgrwt>
</event>
<event>
 5    1  0.6004828E+000  0.9019191E+02  0.7546771E-02  0.1302388E+00
          2   -1    0    0  501    0  0.00000000000E+00  0.00000000000E+00  0.18670609011E+03  0.18670609011E+03  0.00000000000E+00 0. -1.
         -2   -1    0    0    0  501 -0.00000000000E+00 -0.00000000000E+00 -0.10892227542E+02  0.10892227542E+02  0.00000000000E+00 0.  1.
         23    2    1    2    0    0  0.00000000000E+00  0.00000000000E+00  0.17581386257E+03  0.19759831765E+03  0.90191911320E+02 0.  0.
        -11    1    3    3    0    0  0.12840772302E+02 -0.43136282082E+02  0.81702119621E+02  0.93278403801E+02  0.00000000000E+00 0.  1.
         11    1    3    3    0    0 -0.12840772302E+02  0.43136282082E+02  0.94111742950E+02  0.10431991385E+03  0.00000000000E+00 0. -1.
<mgrwt>
<rscale>  0 0.90191911E+02</rscale>
<asrwt>0</asrwt>
<pdfrwt beam="1">  1        2 0.28724011E-01 0.90191911E+02</pdfrwt>
<pdfrwt beam="2">  1       -2 0.16757275E-02 0.90191911E+02</pdfrwt>
<totfact> 0.15538073E+05</totfact>
</mgrwt>
</event>
<event>
 5    1  0.6004828E+000  0.9055086E+02  0.7546771E-02  0.1301523E+00
          1   -1    0    0  501    0  0.00000000000E+00  0.00000000000E+00  0.36445507769E+02  0.36445507769E+02  0.00000000000E+00 0. -1.
         -1   -1    0    0    0  501 -0.00000000000E+00 -0.00000000000E+00 -0.56244642534E+02  0.56244642534E+02  0.00000000000E+00 0.  1.
         23    2    1    2    0    0  0.00000000000E+00  0.00000000000E+00 -0.19799134765E+02  0.92690150303E+02  0.90550859884E+02 0.  0.
        -11    1    3    3    0    0  0.28560542597E+02 -0.16595558089E+02  0.21795604445E+02  0.39574809095E+02  0.00000000000E+00 0. -1.
         11    1    3    3    0    0 -0.28560542597E+02  0.16595558089E+02 -0.41594739210E+02  0.53115341208E+02  0.00000000000E+00 0.  1.
<mgrwt>
<rscale>  0 0.90550860E+02</rscale>
<asrwt>0</asrwt>
<pdfrwt beam="1">  1        1 0.56070013E-02 0.90550860E+02</pdfrwt>
<pdfrwt beam="2">  1       -1 0.86530218E-02 0.90550860E+02</pdfrwt>
<totfact> 0.91145099E+04</totfact>
</mgrwt>
</event>
<event>
 5    1  0.6004828E+000  0.9149987E+02  0.7546771E-02  0.1299260E+00
          2   -1    0    0  501    0  0.00000000000E+00  0.00000000000E+00  0.28315140760E+03  0.28315140760E+03  0.00000000000E+00 0. -1.
         -2   -1    0    0    0  501 -0.00000000000E+00 -0.00000000000E+00 -0.73920044575E+01  0.73920044575E+01  0.00000000000E+00 0.  1.
         23    2    1    2    0    0  0.00000000000E+00  0.00000000000E+00  0.27575940315E+03  0.29054341206E+03  0.91499868135E+02 0.  0.
        -11    1    3    3    0    0 -0.26007101128E+02 -0.33563923950E+02  0.19196783283E+03  0.19660761720E+03  0.00000000000E+00 0. -1.
         11    1    3    3    0    0  0.26007101128E+02  0.33563923950E+02  0.83791570315E+02  0.93935794859E+02  0.00000000000E+00 0.  1.
<mgrwt>
<rscale>  0 0.91499868E+02</rscale>
<asrwt>0</asrwt>
<pdfrwt beam="1">  1        2 0.43561747E-01 0.91499868E+02</pdfrwt>
<pdfrwt beam="2">  1       -2 0.11372317E-02 0.91499868E+02</pdfrwt>
<totfact> 0.17417522E+05</totfact>
</mgrwt>
</event>
<event>
 5    1  0.6004828E+000  0.8941920E+02  0.7546771E-02  0.1304264E+00
         -4   -1    0    0    0  501 -0.00000000000E+00  0.00000000000E+00  0.15282759745E+02  0.15282759745E+02  0.00000000000E+00 0.  1.
          4   -1    0    0  501    0  0.00000000000E+00 -0.00000000000E+00 -0.13079759027E+03  0.13079759027E+03  0.00000000000E+00 0. -1.
         23    2    1    2    0    0  0.00000000000E+00  0.00000000000E+00 -0.11551483052E+03  0.14608035001E+03  0.89419195865E+02 0.  0.
        -11    1    3    3    0    0  0.12255438449E+02 -0.22628139382E+02  0.19710303119E+01  0.25809173252E+02  0.00000000000E+00 0.  1.
         11    1    3    3    0    0 -0.12255438449E+02  0.22628139382E+02 -0.11748586083E+03  0.12027117676E+03  0.00000000000E+00 0. -1.
<mgrwt>
<rscale>  0 0.89419196E+02</rscale>
<asrwt>0</asrwt>
<pdfrwt beam="2">  1        4 0.20122706E-01 0.89419196E+02</pdfrwt>
<pdfrwt beam="1">  1       -4 0.23511939E-02 0.89419196E+02</pdfrwt>
<totfact> 0.25151689E+04</totfact>
</mgrwt>
</event>
<event>
 5    1  0.6004828E+000  0.8713888E+02  0.7546771E-02  0.1309932E+00
         -1   -1    0    0    0  501 -0.00000000000E+00  0.00000000000E+00  0.27875552147E+03  0.27875552147E+03  0.00000000000E+00 0.  1.
          1   -1    0    0  501    0  0.00000000000E+00 -0.00000000000E+00 -0.68098954799E+01  0.68098954799E+01  0.00000000000E+00 0. -1.
         23    2    1    2    0    0  0.00000000000E+00  0.00000000000E+00  0.27194562599E+03  0.28556541695E+03  0.87138876872E+02 0.  0.
        -11    1    3    3    0    0  0.37959485229E+02 -0.70962994160E+01  0.20208771896E+03  0.20574432225E+03  0.00000000000E+00 0.  1.
         11    1    3    3    0    0 -0.37959485229E+02  0.70962994160E+01  0.69857907033E+02  0.79821094701E+02  0.00000000000E+00 0. -1.
<mgrwt>
<rscale>  0 0.87138877E+02</rscale>
<asrwt>0</asrwt>
<pdfrwt beam="2">  1        1 0.10476764E-02 0.87138877E+02</pdfrwt>
<pdfrwt beam="1">  1       -1 0.42885456E-01 0.87138877E+02</pdfrwt>
<totfact> 0.70125081E+04</totfact>
</mgrwt>
</event>
<event>
 5    1  0.6004828E+000  0.9199480E+02  0.7546771E-02  0.1298092E+00
         -2   -1    0    0    0  501 -0.00000000000E+00  0.00000000000E+00  0.20681490546E+02  0.20681490546E+02  0.00000000000E+00 0.  1.
          2   -1    0    0  501    0  0.00000000000E+00 -0.00000000000E+00 -0.10230215177E+03  0.10230215177E+03  0.00000000000E+00 0. -1.
         23    2    1    2    0    0  0.00000000000E+00  0.00000000000E+00 -0.81620661223E+02  0.12298364232E+03  0.91994803868E+02 0.  0.
        -11    1    3    3    0    0  0.19505708032E+02  0.24334275725E+02 -0.86009673756E+02  0.91489308668E+02  0.00000000000E+00 0. -1.
         11    1    3    3    0    0 -0.19505708032E+02 -0.24334275725E+02  0.43890125332E+01  0.31494333648E+02  0.00000000000E+00 0.  1.
<mgrwt>
<rscale>  0 0.91994804E+02</rscale>
<asrwt>0</asrwt>
<pdfrwt beam="2">  1        2 0.15738792E-01 0.91994804E+02</pdfrwt>
<pdfrwt beam="1">  1       -2 0.31817678E-02 0.91994804E+02</pdfrwt>
<totfact> 0.12052979E+05</totfact>
</mgrwt>
</event>
<event>
 5    1  0.6004828E+000  0.9145903E+02  0.7546771E-02  0.1299356E+00
          2   -1    0    0  501    0  0.00000000000E+00  0.00000000000E+00  0.30455361590E+03  0.30455361590E+03  0.00000000000E+00 0. -1.
         -2   -1    0    0    0  501 -0.00000000000E+00 -0.00000000000E+00 -0.68664046183E+01  0.68664046183E+01  0.00000000000E+00 0.  1.
         23    2    1    2    0    0  0.00000000000E+00  0.00000000000E+00  0.29768721129E+03  0.31142002052E+03  0.91459025903E+02 0.  0.
        -11    1    3    3    0    0 -0.34207928475E+02 -0.22433959320E+02  0.79250793297E+02  0.89186059110E+02  0.00000000000E+00 0.  1.
         11    1    3    3    0    0  0.34207928475E+02  0.22433959320E+02  0.21843641799E+03  0.22223396141E+03  0.00000000000E+00 0. -1.
<mgrwt>
<rscale>  0 0.91459026E+02</rscale>
<asrwt>0</asrwt>
<pdfrwt beam="1">  1        2 0.46854392E-01 0.91459026E+02</pdfrwt>
<pdfrwt beam="2">  1       -2 0.10563702E-02 0.91459026E+02</pdfrwt>
<totfact> 0.17918604E+05</totfact>
</mgrwt>
</event>
<event>
 5    1  0.6004828E+000  0.9072372E+02  0.7546771E-02  0.1301108E+00
          2   -1    0    0  501    0  0.00000000000E+00  0.00000000000E+00  0.70284271193E+02  0.70284271193E+02  0.00000000000E+00 0. -1.
         -2   -1    0    0    0  501 -0.00000000000E+00 -0.00000000000E+00 -0.29276800223E+02  0.29276800223E+02  0.00000000000E+00 0.  1.
         23    2    1    2    0    0  0.00000000000E+00  0.00000000000E+00  0.41007470969E+02  0.99561071416E+02  0.90723724936E+02 0.  0.
        -11    1    3    3    0    0 -0.16871595567E+02  0.26338041522E+02  0.56557525284E+02  0.64630463672E+02  0.00000000000E+00 0. -1.
         11    1    3    3    0    0  0.16871595567E+02 -0.26338041522E+02 -0.15550054315E+02  0.34930607744E+02  0.00000000000E+00 0.  1.
<mgrwt>
<rscale>  0 0.90723725E+02</rscale>
<asrwt>0</asrwt>
<pdfrwt beam="1">  1        2 0.10812965E-01 0.90723725E+02</pdfrwt>
<pdfrwt beam="2">  1       -2 0.45041231E-02 0.90723725E+02</pdfrwt>
<totfact> 0.11229665E+05</totfact>
</mgrwt>
</event>
<event>
 5    1  0.6004828E+000  0.9107202E+02  0.7546771E-02  0.1300276E+00
         -1   -1    0    0    0  501 -0.00000000000E+00  0.00000000000E+00  0.16245877096E+03  0.16245877096E+03  0.00000000000E+00 0.  1.
          1   -1    0    0  501    0  0.00000000000E+00 -0.00000000000E+00 -0.12763412775E+02  0.12763412775E+02  0.00000000000E+00 0. -1.
         23    2    1    2    0    0  0.00000000000E+00  0.00000000000E+00  0.14969535818E+03  0.17522218373E+03  0.91072023205E+02 0.  0.
        -11    1    3    3    0    0  0.61923318428E+01  0.45026396676E+02  0.80223510941E+02  0.92203758486E+02  0.00000000000E+00 0.  1.
         11    1    3    3    0    0 -0.61923318428E+01 -0.45026396676E+02  0.69471847239E+02  0.83018425244E+02  0.00000000000E+00 0. -1.
<mgrwt>
<rscale>  0 0.91072023E+02</rscale>
<asrwt>0</asrwt>
<pdfrwt beam="2">  1        1 0.19636021E-02 0.91072023E+02</pdfrwt>
<pdfrwt beam="1">  1       -1 0.24993656E-01 0.91072023E+02</pdfrwt>
<totfact> 0.73587764E+04</totfact>
</mgrwt>
</event>
<event>
 5    1  0.6004828E+000  0.9247460E+02  0.7546771E-02  0.1296967E+00
          2   -1    0    0  501    0  0.00000000000E+00  0.00000000000E+00  0.61372065098E+02  0.61372065098E+02  0.00000000000E+00 0. -1.
         -2   -1    0    0    0  501 -0.00000000000E+00 -0.00000000000E+00 -0.34834869135E+02  0.34834869135E+02  0.00000000000E+00 0.  1.
         23    2    1    2    0    0  0.00000000000E+00  0.00000000000E+00  0.26537195964E+02  0.96206934233E+02  0.92474598809E+02 0.  0.
        -11    1    3    3    0    0  0.10075700551E+02  0.34647625661E+02 -0.16810424558E+02  0.39806633610E+02  0.00000000000E+00 0.  1.
         11    1    3    3    0    0 -0.10075700551E+02 -0.34647625661E+02  0.43347620522E+02  0.56400300623E+02  0.00000000000E+00 0. -1.
<mgrwt>
<rscale>  0 0.92474599E+02</rscale>
<asrwt>0</asrwt>
<pdfrwt beam="1">  1        2 0.94418561E-02 0.92474599E+02</pdfrwt>
<pdfrwt beam="2">  1       -2 0.53592107E-02 0.92474599E+02</pdfrwt>
<totfact> 0.10254169E+05</totfact>
</mgrwt>
</event>
<event>
 5    1  0.6004828E+000  0.8917950E+02  0.7546771E-02  0.1304851E+00
         -1   -1    0    0    0  501 -0.00000000000E+00  0.00000000000E+00  0.12706530512E+02  0.12706530512E+02  0.00000000000E+00 0.  1.
          1   -1    0    0  501    0  0.00000000000E+00 -0.00000000000E+00 -0.15647432069E+03  0.15647432069E+03  0.00000000000E+00 0. -1.
         23    2    1    2    0    0  0.00000000000E+00  0.00000000000E+00 -0.14376779018E+03  0.16918085121E+03  0.89179498322E+02 0.  0.
        -11    1    3    3    0    0  0.19627240751E+02 -0.25571142180E+02 -0.13438552413E+02  0.34924297886E+02  0.00000000000E+00 0.  1.
         11    1    3    3    0    0 -0.19627240751E+02  0.25571142180E+02 -0.13032923777E+03  0.13425655332E+03  0.00000000000E+00 0. -1.
<mgrwt>
<rscale>  0 0.89179498E+02</rscale>
<asrwt>0</asrwt>
<pdfrwt beam="2">  1        1 0.24072973E-01 0.89179498E+02</pdfrwt>
<pdfrwt beam="1">  1       -1 0.19548508E-02 0.89179498E+02</pdfrwt>
<totfact> 0.11994846E+05</totfact>
</mgrwt>
</event>
<event>
 5    1  0.6004828E+000  0.7080132E+02  0.7546771E-02  0.1357389E+00
          1   -1    0    0  501    0  0.00000000000E+00  0.00000000000E+00  0.19049202229E+02  0.19049202229E+02  0.00000000000E+00 0. -1.
         -1   -1    0    0    0  501 -0.00000000000E+00 -0.00000000000E+00 -0.65787881571E+02  0.65787881571E+02  0.00000000000E+00 0.  1.
         23    2    1    2    0    0  0.00000000000E+00  0.00000000000E+00 -0.46738679342E+02  0.84837083800E+02  0.70801318074E+02 0.  0.
        -11    1    3    3    0    0  0.24680306614E+02  0.34749571889E+01 -0.53492994928E+02  0.59014348835E+02  0.00000000000E+00 0.  1.
         11    1    3    3    0    0 -0.24680306614E+02 -0.34749571889E+01  0.67543155867E+01  0.25822734965E+02  0.00000000000E+00 0. -1.
<mgrwt>
<rscale>  0 0.70801318E+02</rscale>
<asrwt>0</asrwt>
<pdfrwt beam="1">  1        1 0.29306465E-02 0.70801318E+02</pdfrwt>
<pdfrwt beam="2">  1       -1 0.10121212E-01 0.70801318E+02</pdfrwt>
<totfact> 0.16595983E+05</totfact>
</mgrwt>
</event>
<event>
 5    1  0.6004828E+000  0.8487185E+02  0.7546771E-02  0.1315768E+00
          2   -1    0    0  501    0  0.00000000000E+00  0.00000000000E+00  0.11836246040E+03  0.11836246040E+03  0.00000000000E+00 0. -1.
         -2   -1    0    0    0  501 -0.00000000000E+00 -0.00000000000E+00 -0.15214348582E+02  0.15214348582E+02  0.00000000000E+00 0.  1.
         23    2    1    2    0    0  0.00000000000E+00  0.00000000000E+00  0.10314811182E+03  0.13357680899E+03  0.84871850024E+02 0.  0.
        -11    1    3    3    0    0 -0.21804905691E+02  0.36363415804E+02  0.54325309379E+02  0.68912924479E+02  0.00000000000E+00 0. -1.
         11    1    3    3    0    0  0.21804905691E+02 -0.36363415804E+02  0.48822802443E+02  0.64663884507E+02  0.00000000000E+00 0.  1.
<mgrwt>
<rscale>  0 0.84871850E+02</rscale>
<asrwt>0</asrwt>
<pdfrwt beam="1">  1        2 0.18209609E-01 0.84871850E+02</pdfrwt>
<pdfrwt beam="2">  1       -2 0.23406691E-02 0.84871850E+02</pdfrwt>
<totfact> 0.15711918E+05</totfact>
</mgrwt>
</event>
<event>
 5    1  0.6004828E+000  0.9039943E+02  0.7546771E-02  0.1301887E+00
          3   -1    0    0  501    0  0.00000000000E+00  0.00000000000E+00  0.13378611912E+02  0.13378611912E+02  0.00000000000E+00 0. -1.
         -3   -1    0    0    0  501 -0.00000000000E+00 -0.00000000000E+00 -0.15270750398E+03  0.15270750398E+03  0.00000000000E+00 0.  1.
         23    2    1    2    0    0  0.00000000000E+00  0.00000000000E+00 -0.13932889207E+03  0.16608611590E+03  0.90399434332E+02 0.  0.
        -11    1    3    3    0    0  0.27777899992E+02 -0.35644962827E+02 -0.67981253777E+02  0.81631035569E+02  0.00000000000E+00 0. -1.
         11    1    3    3    0    0 -0.27777899992E+02  0.35644962827E+02 -0.71347638294E+02  0.84455080328E+02  0.00000000000E+00 0.  1.
<mgrwt>
<rscale>  0 0.90399434E+02</rscale>
<asrwt>0</asrwt>
<pdfrwt beam="1">  1        3 0.20582479E-02 0.90399434E+02</pdfrwt>
<pdfrwt beam="2">  1       -3 0.23493463E-01 0.90399434E+02</pdfrwt>
<totfact> 0.31061518E+04</totfact>
</mgrwt>
</event>
<event>
 5    1  0.6004828E+000  0.9163538E+02  0.7546771E-02  0.1298939E+00
         -2   -1    0    0    0  501 -0.00000000000E+00  0.00000000000E+00  0.20425515646E+03  0.20425515646E+03  0.00000000000E+00 0.  1.
          2   -1    0    0  501    0  0.00000000000E+00 -0.00000000000E+00 -0.10277639246E+02  0.10277639246E+02  0.00000000000E+00 0. -1.
         23    2    1    2    0    0  0.00000000000E+00  0.00000000000E+00  0.19397751721E+03  0.21453279571E+03  0.91635382081E+02 0.  0.
        -11    1    3    3    0    0 -0.35099451900E+02 -0.27134241090E+02  0.12378679808E+03  0.13149680582E+03  0.00000000000E+00 0.  1.
         11    1    3    3    0    0  0.35099451900E+02  0.27134241090E+02  0.70190719138E+02  0.83035989885E+02  0.00000000000E+00 0. -1.
<mgrwt>
<rscale>  0 0.91635382E+02</rscale>
<asrwt>0</asrwt>
<pdfrwt beam="2">  1        2 0.15811754E-02 0.91635382E+02</pdfrwt>
<pdfrwt beam="1">  1       -2 0.31423867E-01 0.91635382E+02</pdfrwt>
<totfact> 0.60962857E+04</totfact>
</mgrwt>
</event>
<event>
 5    1  0.6004828E+000  0.9353130E+02  0.7546771E-02  0.1294519E+00
          4   -1    0    0  501    0  0.00000000000E+00  0.00000000000E+00  0.48051405234E+02  0.48051405234E+02  0.00000000000E+00 0.  1.
         -4   -1    0    0    0  501 -0.00000000000E+00 -0.00000000000E+00 -0.45514296138E+02  0.45514296138E+02  0.00000000000E+00 0. -1.
         23    2    1    2    0    0  0.00000000000E+00  0.00000000000E+00  0.25371090963E+01  0.93565701371E+02  0.93531297171E+02 0.  0.
        -11    1    3    3    0    0  0.26907890663E+02  0.14648759197E+02  0.36614328665E+02  0.47741279722E+02  0.00000000000E+00 0.  1.
         11    1    3    3    0    0 -0.26907890663E+02 -0.14648759197E+02 -0.34077219569E+02  0.45824421649E+02  0.00000000000E+00 0. -1.
<mgrwt>
<rscale>  0 0.93531297E+02</rscale>
<asrwt>0</asrwt>
<pdfrwt beam="1">  1        4 0.73925238E-02 0.93531297E+02</pdfrwt>
<pdfrwt beam="2">  1       -4 0.70021995E-02 0.93531297E+02</pdfrwt>
<totfact> 0.25061049E+04</totfact>
</mgrwt>
</event>
<event>
 5    1  0.6004828E+000  0.8938223E+02  0.7546771E-02  0.1304355E+00
          2   -1    0    0  501    0  0.00000000000E+00  0.00000000000E+00  0.31305678648E+03  0.31305678648E+03  0.00000000000E+00 0. -1.
         -2   -1    0    0    0  501 -0.00000000000E+00 -0.00000000000E+00 -0.63799792719E+01  0.63799792719E+01  0.00000000000E+00 0.  1.
         23    2    1    2    0    0  0.00000000000E+00  0.00000000000E+00  0.30667680721E+03  0.31943676575E+03  0.89382231091E+02 0.  0.
        -11    1    3    3    0    0 -0.43580887093E+02  0.47031523394E+01  0.12220659351E+03  0.12983013848E+03  0.00000000000E+00 0.  1.
         11    1    3    3    0    0  0.43580887093E+02 -0.47031523394E+01  0.18447021370E+03  0.18960662727E+03  0.00000000000E+00 0. -1.
<mgrwt>
<rscale>  0 0.89382231E+02</rscale>
<asrwt>0</asrwt>
<pdfrwt beam="1">  1        2 0.48162571E-01 0.89382231E+02</pdfrwt>
<pdfrwt beam="2">  1       -2 0.98153552E-03 0.89382231E+02</pdfrwt>
<totfact> 0.19244710E+05</totfact>
</mgrwt>
</event>
<event>
 5    1  0.6004828E+000  0.9040929E+02  0.7546771E-02  0.1301864E+00
         -4   -1    0    0    0  501 -0.00000000000E+00  0.00000000000E+00  0.23901921668E+02  0.23901921668E+02  0.00000000000E+00 0.  1.
          4   -1    0    0  501    0  0.00000000000E+00 -0.00000000000E+00 -0.85493544593E+02  0.85493544593E+02  0.00000000000E+00 0. -1.
         23    2    1    2    0    0  0.00000000000E+00  0.00000000000E+00 -0.61591622926E+02  0.10939546626E+03  0.90409291690E+02 0.  0.
        -11    1    3    3    0    0 -0.10785756088E+02 -0.33025484942E+02  0.41991003800E+01  0.34994965838E+02  0.00000000000E+00 0.  1.
         11    1    3    3    0    0  0.10785756088E+02  0.33025484942E+02 -0.65790723306E+02  0.74400500422E+02  0.00000000000E+00 0. -1.
<mgrwt>
<rscale>  0 0.90409292E+02</rscale>
<asrwt>0</asrwt>
<pdfrwt beam="2">  1        4 0.13152853E-01 0.90409292E+02</pdfrwt>
<pdfrwt beam="1">  1       -4 0.36772187E-02 0.90409292E+02</pdfrwt>
<totfact> 0.26486466E+04</totfact>
</mgrwt>
</event>
<event>
 5    1  0.6004828E+000  0.8939079E+02  0.7546771E-02  0.1304334E+00
          1   -1    0    0  501    0  0.00000000000E+00  0.00000000000E+00  0.15354961180E+03  0.15354961180E+03  0.00000000000E+00 0. -1.
         -1   -1    0    0    0  501 -0.00000000000E+00 -0.00000000000E+00 -0.13009985458E+02  0.13009985458E+02  0.00000000000E+00 0.  1.
         23    2    1    2    0    0  0.00000000000E+00  0.00000000000E+00  0.14053962634E+03  0.16655959726E+03  0.89390787367E+02 0.  0.
        -11    1    3    3    0    0  0.12831998757E+02  0.33011174731E+02  0.12106858709E+03  0.12614277874E+03  0.00000000000E+00 0.  1.
         11    1    3    3    0    0 -0.12831998757E+02 -0.33011174731E+02  0.19471039252E+02  0.40416818513E+02  0.00000000000E+00 0. -1.
<mgrwt>
<rscale>  0 0.89390787E+02</rscale>
<asrwt>0</asrwt>
<pdfrwt beam="1">  1        1 0.23623016E-01 0.89390787E+02</pdfrwt>
<pdfrwt beam="2">  1       -1 0.20015363E-02 0.89390787E+02</pdfrwt>
<totfact> 0.11877574E+05</totfact>
</mgrwt>
</event>
<event>
 5    1  0.6004828E+000  0.9006801E+02  0.7546771E-02  0.1302687E+00
         -4   -1    0    0    0  501 -0.00000000000E+00  0.00000000000E+00  0.11258066509E+03  0.11258066509E+03  0.00000000000E+00 0.  1.
          4   -1    0    0  501    0  0.00000000000E+00 -0.00000000000E+00 -0.18014296889E+02  0.18014296889E+02  0.00000000000E+00 0. -1.
         23    2    1    2    0    0  0.00000000000E+00  0.00000000000E+00  0.94566368202E+02  0.13059496198E+03  0.90068008193E+02 0.  0.
        -11    1    3    3    0    0  0.26129568467E+02 -0.64512886160E+01 -0.50699526056E+01  0.27387549955E+02  0.00000000000E+00 0. -1.
         11    1    3    3    0    0 -0.26129568467E+02  0.64512886160E+01  0.99636320808E+02  0.10320741203E+03  0.00000000000E+00 0.  1.
<mgrwt>
<rscale>  0 0.90068008E+02</rscale>
<asrwt>0</asrwt>
<pdfrwt beam="2">  1        4 0.27714303E-02 0.90068008E+02</pdfrwt>
<pdfrwt beam="1">  1       -4 0.17320102E-01 0.90068008E+02</pdfrwt>
<totfact> 0.25511794E+04</totfact>
</mgrwt>
</event>
<event>
 5    1  0.6004828E+000  0.9349927E+02  0.7546771E-02  0.1294592E+00
          1   -1    0    0  501    0  0.00000000000E+00  0.00000000000E+00  0.82739396216E+02  0.82739396216E+02  0.00000000000E+00 0. -1.
         -1   -1    0    0    0  501 -0.00000000000E+00 -0.00000000000E+00 -0.26414602815E+02  0.26414602815E+02  0.00000000000E+00 0.  1.
         23    2    1    2    0    0  0.00000000000E+00  0.00000000000E+00  0.56324793401E+02  0.10915399903E+03  0.93499268194E+02 0.  0.
        -11    1    3    3    0    0  0.19978221906E+02 -0.22986118371E+02  0.69569819287E+02  0.75943734066E+02  0.00000000000E+00 0. -1.
         11    1    3    3    0    0 -0.19978221906E+02  0.22986118371E+02 -0.13245025886E+02  0.33210264965E+02  0.00000000000E+00 0.  1.
<mgrwt>
<rscale>  0 0.93499268E+02</rscale>
<asrwt>0</asrwt>
<pdfrwt beam="1">  1        1 0.12729138E-01 0.93499268E+02</pdfrwt>
<pdfrwt beam="2">  1       -1 0.40637851E-02 0.93499268E+02</pdfrwt>
<totfact> 0.94516334E+04</totfact>
</mgrwt>
</event>
<event>
 5    1  0.6004828E+000  0.8263987E+02  0.7546771E-02  0.1321723E+00
          3   -1    0    0  501    0  0.00000000000E+00  0.00000000000E+00  0.59838893136E+02  0.59838893136E+02  0.00000000000E+00 0. -1.
         -3   -1    0    0    0  501 -0.00000000000E+00 -0.00000000000E+00 -0.28532227421E+02  0.28532227421E+02  0.00000000000E+00 0.  1.
         23    2    1    2    0    0  0.00000000000E+00  0.00000000000E+00  0.31306665715E+02  0.88371120557E+02  0.82639867076E+02 0.  0.
        -11    1    3    3    0    0  0.32242640285E+02 -0.20228878435E+02  0.32847688733E+02  0.50276893603E+02  0.00000000000E+00 0. -1.
         11    1    3    3    0    0 -0.32242640285E+02  0.20228878435E+02 -0.15410230180E+01  0.38094226954E+02  0.00000000000E+00 0.  1.
<mgrwt>
<rscale>  0 0.82639867E+02</rscale>
<asrwt>0</asrwt>
<pdfrwt beam="1">  1        3 0.92059835E-02 0.82639867E+02</pdfrwt>
<pdfrwt beam="2">  1       -3 0.43895735E-02 0.82639867E+02</pdfrwt>
<totfact> 0.46393138E+04</totfact>
</mgrwt>
</event>
<event>
 5    1  0.6004828E+000  0.9127702E+02  0.7546771E-02  0.1299788E+00
         -1   -1    0    0    0  501 -0.00000000000E+00  0.00000000000E+00  0.36922228039E+02  0.36922228039E+02  0.00000000000E+00 0.  1.
          1   -1    0    0  501    0  0.00000000000E+00 -0.00000000000E+00 -0.56412459581E+02  0.56412459581E+02  0.00000000000E+00 0. -1.
         23    2    1    2    0    0  0.00000000000E+00  0.00000000000E+00 -0.19490231542E+02  0.93334687620E+02  0.91277022232E+02 0.  0.
        -11    1    3    3    0    0 -0.40103504170E+02  0.20712602003E+02 -0.16647907829E+02  0.48108790918E+02  0.00000000000E+00 0. -1.
         11    1    3    3    0    0  0.40103504170E+02 -0.20712602003E+02 -0.28423237131E+01  0.45225896703E+02  0.00000000000E+00 0.  1.
<mgrwt>
<rscale>  0 0.91277022E+02</rscale>
<asrwt>0</asrwt>
<pdfrwt beam="2">  1        1 0.86788400E-02 0.91277022E+02</pdfrwt>
<pdfrwt beam="1">  1       -1 0.56803428E-02 0.91277022E+02</pdfrwt>
<totfact> 0.95187237E+04</totfact>
</mgrwt>
</event>
<event>
 5    1  0.6004828E+000  0.9234139E+02  0.7546771E-02  0.1297279E+00
          3   -1    0    0  501    0  0.00000000000E+00  0.00000000000E+00  0.96770606648E+02  0.96770606648E+02  0.00000000000E+00 0. -1.
         -3   -1    0    0    0  501 -0.00000000000E+00 -0.00000000000E+00 -0.22028725573E+02  0.22028725573E+02  0.00000000000E+00 0.  1.
         23    2    1    2    0    0  0.00000000000E+00  0.00000000000E+00  0.74741881076E+02  0.11879933222E+03  0.92341391312E+02 0.  0.
        -11    1    3    3    0    0  0.21453988001E+02  0.14494601621E+02 -0.11810029904E+02  0.28457756125E+02  0.00000000000E+00 0.  1.
         11    1    3    3    0    0 -0.21453988001E+02 -0.14494601621E+02  0.86551910980E+02  0.90341576097E+02  0.00000000000E+00 0. -1.
<mgrwt>
<rscale>  0 0.92341391E+02</rscale>
<asrwt>0</asrwt>
<pdfrwt beam="1">  1        3 0.14887785E-01 0.92341391E+02</pdfrwt>
<pdfrwt beam="2">  1       -3 0.33890348E-02 0.92341391E+02</pdfrwt>
<totfact> 0.32196655E+04</totfact>
</mgrwt>
</event>
<event>
 5    1  0.6004828E+000  0.9162788E+02  0.7546771E-02  0.1298957E+00
         -1   -1    0    0    0  501 -0.00000000000E+00  0.00000000000E+00  0.36133532882E+02  0.36133532882E+02  0.00000000000E+00 0.  1.
          1   -1    0    0  501    0  0.00000000000E+00 -0.00000000000E+00 -0.58087792322E+02  0.58087792322E+02  0.00000000000E+00 0. -1.
         23    2    1    2    0    0  0.00000000000E+00  0.00000000000E+00 -0.21954259440E+02  0.94221325204E+02  0.91627881214E+02 0.  0.
        -11    1    3    3    0    0  0.11258869721E+02  0.34298030042E+02  0.18031256577E+02  0.40351495956E+02  0.00000000000E+00 0.  1.
         11    1    3    3    0    0 -0.11258869721E+02 -0.34298030042E+02 -0.39985516017E+02  0.53869829249E+02  0.00000000000E+00 0. -1.
<mgrwt>
<rscale>  0 0.91627881E+02</rscale>
<asrwt>0</asrwt>
<pdfrwt beam="2">  1        1 0.89365834E-02 0.91627881E+02</pdfrwt>
<pdfrwt beam="1">  1       -1 0.55590051E-02 0.91627881E+02</pdfrwt>
<totfact> 0.94593537E+04</totfact>
</mgrwt>
</event>
<event>
 5    1  0.6004828E+000  0.5955345E+02  0.7546771E-02  0.1399715E+00
          1   -1    0    0  501    0  0.00000000000E+00  0.00000000000E+00  0.60741232326E+02  0.60741232326E+02  0.00000000000E+00 0. -1.
         -1   -1    0    0    0  501 -0.00000000000E+00 -0.00000000000E+00 -0.14597223031E+02  0.14597223031E+02  0.00000000000E+00 0.  1.
         23    2    1    2    0    0  0.00000000000E+00  0.00000000000E+00  0.46144009295E+02  0.75338455357E+02  0.59553448781E+02 0.  0.
        -11    1    3    3    0    0 -0.18902838116E+02  0.21508182617E+02  0.12737641418E+02  0.31339539199E+02  0.00000000000E+00 0.  1.
         11    1    3    3    0    0  0.18902838116E+02 -0.21508182617E+02  0.33406367877E+02  0.43998916158E+02  0.00000000000E+00 0. -1.
<mgrwt>
<rscale>  0 0.59553449E+02</rscale>
<asrwt>0</asrwt>
<pdfrwt beam="1">  1        1 0.93448049E-02 0.59553449E+02</pdfrwt>
<pdfrwt beam="2">  1       -1 0.22457266E-02 0.59553449E+02</pdfrwt>
<totfact> 0.30321641E+05</totfact>
</mgrwt>
</event>
<event>
 5    1  0.6004828E+000  0.9346772E+02  0.7546771E-02  0.1294665E+00
         -2   -1    0    0    0  501 -0.00000000000E+00  0.00000000000E+00  0.49672579002E+02  0.49672579002E+02  0.00000000000E+00 0.  1.
          2   -1    0    0  501    0  0.00000000000E+00 -0.00000000000E+00 -0.43969003077E+02  0.43969003077E+02  0.00000000000E+00 0. -1.
         23    2    1    2    0    0  0.00000000000E+00  0.00000000000E+00  0.57035759246E+01  0.93641582079E+02  0.93467722322E+02 0.  0.
        -11    1    3    3    0    0 -0.13324077723E+02  0.33242754862E+02  0.32931659190E+02  0.48652913325E+02  0.00000000000E+00 0.  1.
         11    1    3    3    0    0  0.13324077723E+02 -0.33242754862E+02 -0.27228083265E+02  0.44988668754E+02  0.00000000000E+00 0. -1.
<mgrwt>
<rscale>  0 0.93467722E+02</rscale>
<asrwt>0</asrwt>
<pdfrwt beam="2">  1        2 0.67644620E-02 0.93467722E+02</pdfrwt>
<pdfrwt beam="1">  1       -2 0.76419352E-02 0.93467722E+02</pdfrwt>
<totfact> 0.90995161E+04</totfact>
</mgrwt>
</event>
<event>
 5    1  0.6004828E+000  0.9026422E+02  0.7546771E-02  0.1302213E+00
          2   -1    0    0  501    0  0.00000000000E+00  0.00000000000E+00  0.67706076258E+02  0.67706076258E+02  0.00000000000E+00 0. -1.
         -2   -1    0    0    0  501 -0.00000000000E+00 -0.00000000000E+00 -0.30084560571E+02  0.30084560571E+02  0.00000000000E+00 0.  1.
         23    2    1    2    0    0  0.00000000000E+00  0.00000000000E+00  0.37621515687E+02  0.97790636830E+02  0.90264224413E+02 0.  0.
        -11    1    3    3    0    0  0.16644877039E+02  0.34822741003E+02  0.44154310427E+02  0.58645360873E+02  0.00000000000E+00 0. -1.
         11    1    3    3    0    0 -0.16644877039E+02 -0.34822741003E+02 -0.65327947402E+01  0.39145275957E+02  0.00000000000E+00 0.  1.
<mgrwt>
<rscale>  0 0.90264224E+02</rscale>
<asrwt>0</asrwt>
<pdfrwt beam="1">  1        2 0.10416319E-01 0.90264224E+02</pdfrwt>
<pdfrwt beam="2">  1       -2 0.46283940E-02 0.90264224E+02</pdfrwt>
<totfact> 0.11273602E+05</totfact>
</mgrwt>
</event>
<event>
 5    1  0.6004828E+000  0.9070904E+02  0.7546771E-02  0.1301144E+00
         -2   -1    0    0    0  501 -0.00000000000E+00  0.00000000000E+00  0.12976164614E+02  0.12976164614E+02  0.00000000000E+00 0.  1.
          2   -1    0    0  501    0  0.00000000000E+00 -0.00000000000E+00 -0.15852392290E+03  0.15852392290E+03  0.00000000000E+00 0. -1.
         23    2    1    2    0    0  0.00000000000E+00  0.00000000000E+00 -0.14554775829E+03  0.17150008751E+03  0.90709040758E+02 0.  0.
        -11    1    3    3    0    0 -0.22212745543E+02 -0.39320918448E+02 -0.80681236269E+02  0.92460816447E+02  0.00000000000E+00 0.  1.
         11    1    3    3    0    0  0.22212745543E+02  0.39320918448E+02 -0.64866522018E+02  0.79039271067E+02  0.00000000000E+00 0. -1.
<mgrwt>
<rscale>  0 0.90709041E+02</rscale>
<asrwt>0</asrwt>
<pdfrwt beam="2">  1        2 0.24388294E-01 0.90709041E+02</pdfrwt>
<pdfrwt beam="1">  1       -2 0.19963331E-02 0.90709041E+02</pdfrwt>
<totfact> 0.14447870E+05</totfact>
</mgrwt>
</event>
<event>
 5    1  0.6004828E+000  0.9155162E+02  0.7546771E-02  0.1299137E+00
          3   -1    0    0  501    0  0.00000000000E+00  0.00000000000E+00  0.36618643057E+02  0.36618643057E+02  0.00000000000E+00 0. -1.
         -3   -1    0    0    0  501 -0.00000000000E+00 -0.00000000000E+00 -0.57222896902E+02  0.57222896902E+02  0.00000000000E+00 0.  1.
         23    2    1    2    0    0  0.00000000000E+00  0.00000000000E+00 -0.20604253845E+02  0.93841539959E+02  0.91551621206E+02 0.  0.
        -11    1    3    3    0    0 -0.45124163811E+01  0.21572697508E+02 -0.51426480490E+02  0.55950210678E+02  0.00000000000E+00 0.  1.
         11    1    3    3    0    0  0.45124163811E+01 -0.21572697508E+02  0.30822226645E+02  0.37891329281E+02  0.00000000000E+00 0. -1.
<mgrwt>
<rscale>  0 0.91551621E+02</rscale>
<asrwt>0</asrwt>
<pdfrwt beam="1">  1        3 0.56336374E-02 0.91551621E+02</pdfrwt>
<pdfrwt beam="2">  1       -3 0.88035226E-02 0.91551621E+02</pdfrwt>
<totfact> 0.34744539E+04</totfact>
</mgrwt>
</event>
<event>
 5    1  0.6004828E+000  0.9125090E+02  0.7546771E-02  0.1299850E+00
         -1   -1    0    0    0  501 -0.00000000000E+00  0.00000000000E+00  0.55900489311E+02  0.55900489311E+02  0.00000000000E+00 0.  1.
          1   -1    0    0  501    0  0.00000000000E+00 -0.00000000000E+00 -0.37239062687E+02  0.37239062687E+02  0.00000000000E+00 0. -1.
         23    2    1    2    0    0  0.00000000000E+00  0.00000000000E+00  0.18661426624E+02  0.93139551997E+02  0.91250903024E+02 0.  0.
        -11    1    3    3    0    0 -0.45519540602E+02 -0.22469108900E+01  0.11520969109E+02  0.47008615321E+02  0.00000000000E+00 0.  1.
         11    1    3    3    0    0  0.45519540602E+02  0.22469108900E+01  0.71404575154E+01  0.46130936677E+02  0.00000000000E+00 0. -1.
<mgrwt>
<rscale>  0 0.91250903E+02</rscale>
<asrwt>0</asrwt>
<pdfrwt beam="2">  1        1 0.57290865E-02 0.91250903E+02</pdfrwt>
<pdfrwt beam="1">  1       -1 0.86000753E-02 0.91250903E+02</pdfrwt>
<totfact> 0.89472258E+04</totfact>
</mgrwt>
</event>
<event>
 5    1  0.6004828E+000  0.8924419E+02  0.7546771E-02  0.1304692E+00
         -2   -1    0    0    0  501 -0.00000000000E+00  0.00000000000E+00  0.11735530395E+02  0.11735530395E+02  0.00000000000E+00 0. -1.
          2   -1    0    0  501    0  0.00000000000E+00 -0.00000000000E+00 -0.16966692242E+03  0.16966692242E+03  0.00000000000E+00 0.  1.
         23    2    1    2    0    0  0.00000000000E+00  0.00000000000E+00 -0.15793139202E+03  0.18140245281E+03  0.89244189166E+02 0.  0.
        -11    1    3    3    0    0  0.39774663098E+02  0.17941235741E+02 -0.97948927946E+02  0.10722828102E+03  0.00000000000E+00 0.  1.
         11    1    3    3    0    0 -0.39774663098E+02 -0.17941235741E+02 -0.59982464075E+02  0.74174171792E+02  0.00000000000E+00 0. -1.
<mgrwt>
<rscale>  0 0.89244189E+02</rscale>
<asrwt>0</asrwt>
<pdfrwt beam="2">  1        2 0.26102604E-01 0.89244189E+02</pdfrwt>
<pdfrwt beam="1">  1       -2 0.18054662E-02 0.89244189E+02</pdfrwt>
<totfact> 0.15456129E+05</totfact>
</mgrwt>
</event>
<event>
 5    1  0.6004828E+000  0.8270180E+02  0.7546771E-02  0.1321554E+00
          2   -1    0    0  501    0  0.00000000000E+00  0.00000000000E+00  0.17005999797E+03  0.17005999797E+03  0.00000000000E+00 0.  1.
         -2   -1    0    0    0  501 -0.00000000000E+00 -0.00000000000E+00 -0.10054669771E+02  0.10054669771E+02  0.00000000000E+00 0. -1.
         23    2    1    2    0    0  0.00000000000E+00  0.00000000000E+00  0.16000532820E+03  0.18011466775E+03  0.82701804595E+02 0.  0.
        -11    1    3    3    0    0  0.28166242981E+02  0.11379018595E+02  0.18902422124E+02  0.35778776810E+02  0.00000000000E+00 0. -1.
         11    1    3    3    0    0 -0.28166242981E+02 -0.11379018595E+02  0.14110290608E+03  0.14433589094E+03  0.00000000000E+00 0.  1.
<mgrwt>
<rscale>  0 0.82701805E+02</rscale>
<asrwt>0</asrwt>
<pdfrwt beam="1">  1        2 0.26163074E-01 0.82701805E+02</pdfrwt>
<pdfrwt beam="2">  1       -2 0.15468724E-02 0.82701805E+02</pdfrwt>
<totfact> 0.18973785E+05</totfact>
</mgrwt>
</event>
<event>
 5    1  0.6004828E+000  0.9012306E+02  0.7546771E-02  0.1302554E+00
         -1   -1    0    0    0  501 -0.00000000000E+00  0.00000000000E+00  0.12952944576E+02  0.12952944576E+02  0.00000000000E+00 0.  1.
          1   -1    0    0  501    0  0.00000000000E+00 -0.00000000000E+00 -0.15676291811E+03  0.15676291811E+03  0.00000000000E+00 0. -1.
         23    2    1    2    0    0  0.00000000000E+00  0.00000000000E+00 -0.14380997353E+03  0.16971586268E+03  0.90123057866E+02 0.  0.
        -11    1    3    3    0    0 -0.83971922637E+01  0.44268650404E+02 -0.72962146305E+02  0.85753723184E+02  0.00000000000E+00 0. -1.
         11    1    3    3    0    0  0.83971922637E+01 -0.44268650404E+02 -0.70847827225E+02  0.83962139498E+02  0.00000000000E+00 0.  1.
<mgrwt>
<rscale>  0 0.90123058E+02</rscale>
<asrwt>0</asrwt>
<pdfrwt beam="2">  1        1 0.24117373E-01 0.90123058E+02</pdfrwt>
<pdfrwt beam="1">  1       -1 0.19927606E-02 0.90123058E+02</pdfrwt>
<totfact> 0.11664290E+05</totfact>
</mgrwt>
</event>
<event>
 5    1  0.6004828E+000  0.9177018E+02  0.7546771E-02  0.1298621E+00
          4   -1    0    0  501    0  0.00000000000E+00  0.00000000000E+00  0.18127039385E+03  0.18127039385E+03  0.00000000000E+00 0. -1.
         -4   -1    0    0    0  501 -0.00000000000E+00 -0.00000000000E+00 -0.11614921109E+02  0.11614921109E+02  0.00000000000E+00 0.  1.
         23    2    1    2    0    0  0.00000000000E+00  0.00000000000E+00  0.16965547274E+03  0.19288531496E+03  0.91770176503E+02 0.  0.
        -11    1    3    3    0    0  0.45468862882E+02  0.33410762068E+00  0.97769310814E+02  0.10782563358E+03  0.00000000000E+00 0. -1.
         11    1    3    3    0    0 -0.45468862882E+02 -0.33410762068E+00  0.71886161924E+02  0.85059681376E+02  0.00000000000E+00 0.  1.
<mgrwt>
<rscale>  0 0.91770177E+02</rscale>
<asrwt>0</asrwt>
<pdfrwt beam="1">  1        4 0.27887751E-01 0.91770177E+02</pdfrwt>
<pdfrwt beam="2">  1       -4 0.17869111E-02 0.91770177E+02</pdfrwt>
<totfact> 0.21312705E+04</totfact>
</mgrwt>
</event>
<event>
 5    1  0.6004828E+000  0.9214976E+02  0.7546771E-02  0.1297728E+00
          1   -1    0    0  501    0  0.00000000000E+00  0.00000000000E+00  0.79100022546E+01  0.79100022546E+01  0.00000000000E+00 0. -1.
         -1   -1    0    0    0  501 -0.00000000000E+00 -0.00000000000E+00 -0.26838104157E+03  0.26838104157E+03  0.00000000000E+00 0.  1.
         23    2    1    2    0    0  0.00000000000E+00  0.00000000000E+00 -0.26047103931E+03  0.27629104382E+03  0.92149761668E+02 0.  0.
        -11    1    3    3    0    0  0.63404045807E+01  0.44224891718E+02 -0.16400487211E+03  0.16998129266E+03  0.00000000000E+00 0.  1.
         11    1    3    3    0    0 -0.63404045807E+01 -0.44224891718E+02 -0.96466167199E+02  0.10630975116E+03  0.00000000000E+00 0. -1.
<mgrwt>
<rscale>  0 0.92149762E+02</rscale>
<asrwt>0</asrwt>
<pdfrwt beam="1">  1        1 0.12169234E-02 0.92149762E+02</pdfrwt>
<pdfrwt beam="2">  1       -1 0.41289392E-01 0.92149762E+02</pdfrwt>
<totfact> 0.61449922E+04</totfact>
</mgrwt>
</event>
<event>
 5    1  0.6004828E+000  0.8992523E+02  0.7546771E-02  0.1303033E+00
         -4   -1    0    0    0  501 -0.00000000000E+00  0.00000000000E+00  0.30365891672E+02  0.30365891672E+02  0.00000000000E+00 0. -1.
          4   -1    0    0  501    0  0.00000000000E+00 -0.00000000000E+00 -0.66575904694E+02  0.66575904694E+02  0.00000000000E+00 0.  1.
         23    2    1    2    0    0  0.00000000000E+00  0.00000000000E+00 -0.36210013022E+02  0.96941796366E+02  0.89925229160E+02 0.  0.
        -11    1    3    3    0    0  0.26291718902E+02 -0.30036730356E+02 -0.40412008502E+02  0.56803081646E+02  0.00000000000E+00 0.  1.
         11    1    3    3    0    0 -0.26291718902E+02  0.30036730356E+02  0.42019954799E+01  0.40138714719E+02  0.00000000000E+00 0. -1.
<mgrwt>
<rscale>  0 0.89925229E+02</rscale>
<asrwt>0</asrwt>
<pdfrwt beam="2">  1        4 0.10242447E-01 0.89925229E+02</pdfrwt>
<pdfrwt beam="1">  1       -4 0.46716757E-02 0.89925229E+02</pdfrwt>
<totfact> 0.27664104E+04</totfact>
</mgrwt>
</event>
<event>
 5    1  0.6004828E+000  0.8934512E+02  0.7546771E-02  0.1304445E+00
         -3   -1    0    0    0  501 -0.00000000000E+00  0.00000000000E+00  0.14962657991E+02  0.14962657991E+02  0.00000000000E+00 0.  1.
          3   -1    0    0  501    0  0.00000000000E+00 -0.00000000000E+00 -0.13337454191E+03  0.13337454191E+03  0.00000000000E+00 0. -1.
         23    2    1    2    0    0  0.00000000000E+00  0.00000000000E+00 -0.11841188392E+03  0.14833719990E+03  0.89345120859E+02 0.  0.
        -11    1    3    3    0    0  0.22302531289E+02 -0.18806195789E+02 -0.30366627515E+01  0.29330823763E+02  0.00000000000E+00 0.  1.
         11    1    3    3    0    0 -0.22302531289E+02  0.18806195789E+02 -0.11537522117E+03  0.11900637614E+03  0.00000000000E+00 0. -1.
<mgrwt>
<rscale>  0 0.89345121E+02</rscale>
<asrwt>0</asrwt>
<pdfrwt beam="2">  1        3 0.20519160E-01 0.89345121E+02</pdfrwt>
<pdfrwt beam="1">  1       -3 0.23019474E-02 0.89345121E+02</pdfrwt>
<totfact> 0.33179035E+04</totfact>
</mgrwt>
</event>
<event>
 5    1  0.6004828E+000  0.9019896E+02  0.7546771E-02  0.1302371E+00
         -1   -1    0    0    0  501 -0.00000000000E+00  0.00000000000E+00  0.11755558038E+02  0.11755558038E+02  0.00000000000E+00 0.  1.
          1   -1    0    0  501    0  0.00000000000E+00 -0.00000000000E+00 -0.17302141505E+03  0.17302141505E+03  0.00000000000E+00 0. -1.
         23    2    1    2    0    0  0.00000000000E+00  0.00000000000E+00 -0.16126585702E+03  0.18477697309E+03  0.90198964216E+02 0.  0.
        -11    1    3    3    0    0  0.15652722698E+02  0.33899832537E+02 -0.28818132634E+02  0.47166631663E+02  0.00000000000E+00 0.  1.
         11    1    3    3    0    0 -0.15652722698E+02 -0.33899832537E+02 -0.13244772438E+03  0.13761034143E+03  0.00000000000E+00 0. -1.
<mgrwt>
<rscale>  0 0.90198964E+02</rscale>
<asrwt>0</asrwt>
<pdfrwt beam="2">  1        1 0.26618678E-01 0.90198964E+02</pdfrwt>
<pdfrwt beam="1">  1       -1 0.18085475E-02 0.90198964E+02</pdfrwt>
<totfact> 0.11854162E+05</totfact>
</mgrwt>
</event>
<event>
 5    1  0.6004828E+000  0.1215769E+03  0.7546771E-02  0.1240518E+00
         -2   -1    0    0    0  501 -0.00000000000E+00  0.00000000000E+00  0.44352206200E+02  0.44352206200E+02  0.00000000000E+00 0.  1.
          2   -1    0    0  501    0  0.00000000000E+00 -0.00000000000E+00 -0.83315754484E+02  0.83315754484E+02  0.00000000000E+00 0. -1.
         23    2    1    2    0    0  0.00000000000E+00  0.00000000000E+00 -0.38963548285E+02  0.12766796068E+03  0.12157693075E+03 0.  0.
        -11    1    3    3    0    0 -0.32050577364E+02  0.28829793531E+02 -0.64487371496E+02  0.77569437196E+02  0.00000000000E+00 0. -1.
         11    1    3    3    0    0  0.32050577364E+02 -0.28829793531E+02  0.25523823211E+02  0.50098523488E+02  0.00000000000E+00 0.  1.
<mgrwt>
<rscale>  0 0.12157693E+03</rscale>
<asrwt>0</asrwt>
<pdfrwt beam="2">  1        2 0.12817808E-01 0.12157693E+03</pdfrwt>
<pdfrwt beam="1">  1       -2 0.68234163E-02 0.12157693E+03</pdfrwt>
<totfact> 0.51253879E+04</totfact>
</mgrwt>
</event>
<event>
 5    1  0.6004828E+000  0.9077599E+02  0.7546771E-02  0.1300983E+00
          2   -1    0    0  501    0  0.00000000000E+00  0.00000000000E+00  0.31820480249E+02  0.31820480249E+02  0.00000000000E+00 0.  1.
         -2   -1    0    0    0  501 -0.00000000000E+00 -0.00000000000E+00 -0.64740384654E+02  0.64740384654E+02  0.00000000000E+00 0. -1.
         23    2    1    2    0    0  0.00000000000E+00  0.00000000000E+00 -0.32919904405E+02  0.96560864903E+02  0.90775990905E+02 0.  0.
        -11    1    3    3    0    0 -0.35924428148E+02 -0.27677145228E+02 -0.18444658395E+02  0.48957066181E+02  0.00000000000E+00 0.  1.
         11    1    3    3    0    0  0.35924428148E+02  0.27677145228E+02 -0.14475246009E+02  0.47603798722E+02  0.00000000000E+00 0. -1.
<mgrwt>
<rscale>  0 0.90775991E+02</rscale>
<asrwt>0</asrwt>
<pdfrwt beam="1">  1        2 0.48954586E-02 0.90775991E+02</pdfrwt>
<pdfrwt beam="2">  1       -2 0.99600590E-02 0.90775991E+02</pdfrwt>
<totfact> 0.91036857E+04</totfact>
</mgrwt>
</event>
<event>
 5    1  0.6004828E+000  0.7839083E+02  0.7546771E-02  0.1333681E+00
          2   -1    0    0  501    0  0.00000000000E+00  0.00000000000E+00  0.80310899637E+01  0.80310899637E+01  0.00000000000E+00 0. -1.
         -2   -1    0    0    0  501 -0.00000000000E+00 -0.00000000000E+00 -0.19129164397E+03  0.19129164397E+03  0.00000000000E+00 0.  1.
         23    2    1    2    0    0  0.00000000000E+00  0.00000000000E+00 -0.18326055400E+03  0.19932273393E+03  0.78390826045E+02 0.  0.
        -11    1    3    3    0    0  0.54044272932E+01  0.38809046199E+02 -0.89177545733E+02  0.97406286061E+02  0.00000000000E+00 0.  1.
         11    1    3    3    0    0 -0.54044272932E+01 -0.38809046199E+02 -0.94083008272E+02  0.10191644787E+03  0.00000000000E+00 0. -1.
<mgrwt>
<rscale>  0 0.78390826E+02</rscale>
<asrwt>0</asrwt>
<pdfrwt beam="1">  1        2 0.12355524E-02 0.78390826E+02</pdfrwt>
<pdfrwt beam="2">  1       -2 0.29429482E-01 0.78390826E+02</pdfrwt>
<totfact> 0.93275839E+04</totfact>
</mgrwt>
</event>
<event>
 5    1  0.6004828E+000  0.9200938E+02  0.7546771E-02  0.1298057E+00
          4   -1    0    0  501    0  0.00000000000E+00  0.00000000000E+00  0.89989376786E+02  0.89989376786E+02  0.00000000000E+00 0. -1.
         -4   -1    0    0    0  501 -0.00000000000E+00 -0.00000000000E+00 -0.23518680097E+02  0.23518680097E+02  0.00000000000E+00 0.  1.
         23    2    1    2    0    0  0.00000000000E+00  0.00000000000E+00  0.66470696690E+02  0.11350805688E+03  0.92009377017E+02 0.  0.
        -11    1    3    3    0    0 -0.13912897902E+02 -0.13665979004E+02  0.84637633274E+02  0.86855377936E+02  0.00000000000E+00 0. -1.
         11    1    3    3    0    0  0.13912897902E+02  0.13665979004E+02 -0.18166936585E+02  0.26652678947E+02  0.00000000000E+00 0.  1.
<mgrwt>
<rscale>  0 0.92009377E+02</rscale>
<asrwt>0</asrwt>
<pdfrwt beam="1">  1        4 0.13844519E-01 0.92009377E+02</pdfrwt>
<pdfrwt beam="2">  1       -4 0.36182585E-02 0.92009377E+02</pdfrwt>
<totfact> 0.25021980E+04</totfact>
</mgrwt>
</event>
<event>
 5    1  0.6004828E+000  0.8857529E+02  0.7546771E-02  0.1306339E+00
          1   -1    0    0  501    0  0.00000000000E+00  0.00000000000E+00  0.17026050621E+03  0.17026050621E+03  0.00000000000E+00 0. -1.
         -1   -1    0    0    0  501 -0.00000000000E+00 -0.00000000000E+00 -0.11519966506E+02  0.11519966506E+02  0.00000000000E+00 0.  1.
         23    2    1    2    0    0  0.00000000000E+00  0.00000000000E+00  0.15874053971E+03  0.18178047272E+03  0.88575286143E+02 0.  0.
        -11    1    3    3    0    0 -0.33442636957E+02 -0.28812042645E+02  0.72013069180E+02  0.84465530844E+02  0.00000000000E+00 0.  1.
         11    1    3    3    0    0  0.33442636957E+02  0.28812042645E+02  0.86727470529E+02  0.97314941876E+02  0.00000000000E+00 0. -1.
<mgrwt>
<rscale>  0 0.88575286E+02</rscale>
<asrwt>0</asrwt>
<pdfrwt beam="1">  1        1 0.26193922E-01 0.88575286E+02</pdfrwt>
<pdfrwt beam="2">  1       -1 0.17723027E-02 0.88575286E+02</pdfrwt>
<totfact> 0.12408396E+05</totfact>
</mgrwt>
</event>
<event>
 5    1  0.6004828E+000  0.9828746E+02  0.7546771E-02  0.1283939E+00
         -2   -1    0    0    0  501 -0.00000000000E+00  0.00000000000E+00  0.95343288105E+01  0.95343288105E+01  0.00000000000E+00 0.  1.
          2   -1    0    0  501    0  0.00000000000E+00 -0.00000000000E+00 -0.25330635872E+03  0.25330635872E+03  0.00000000000E+00 0. -1.
         23    2    1    2    0    0  0.00000000000E+00  0.00000000000E+00 -0.24377202991E+03  0.26284068753E+03  0.98287458281E+02 0.  0.
        -11    1    3    3    0    0 -0.44750687833E+02  0.17951766239E+02 -0.96485845517E+02  0.10786291466E+03  0.00000000000E+00 0.  1.
         11    1    3    3    0    0  0.44750687833E+02 -0.17951766239E+02 -0.14728618440E+03  0.15497777288E+03  0.00000000000E+00 0. -1.
<mgrwt>
<rscale>  0 0.98287458E+02</rscale>
<asrwt>0</asrwt>
<pdfrwt beam="2">  1        2 0.38970211E-01 0.98287458E+02</pdfrwt>
<pdfrwt beam="1">  1       -2 0.14668197E-02 0.98287458E+02</pdfrwt>
<totfact> 0.13782161E+05</totfact>
</mgrwt>
</event>
<event>
 5    1  0.6004828E+000  0.8964627E+02  0.7546771E-02  0.1303711E+00
          1   -1    0    0  501    0  0.00000000000E+00  0.00000000000E+00  0.14070851025E+03  0.14070851025E+03  0.00000000000E+00 0. -1.
         -1   -1    0    0    0  501 -0.00000000000E+00 -0.00000000000E+00 -0.14278549789E+02  0.14278549789E+02  0.00000000000E+00 0.  1.
         23    2    1    2    0    0  0.00000000000E+00  0.00000000000E+00  0.12642996046E+03  0.15498706004E+03  0.89646270850E+02 0.  0.
        -11    1    3    3    0    0 -0.44222268846E+02  0.60305196352E+01  0.56057936736E+02  0.71655205673E+02  0.00000000000E+00 0. -1.
         11    1    3    3    0    0  0.44222268846E+02 -0.60305196352E+01  0.70372023726E+02  0.83331854367E+02  0.00000000000E+00 0.  1.
<mgrwt>
<rscale>  0 0.89646271E+02</rscale>
<asrwt>0</asrwt>
<pdfrwt beam="1">  1        1 0.21647462E-01 0.89646271E+02</pdfrwt>
<pdfrwt beam="2">  1       -1 0.21967001E-02 0.89646271E+02</pdfrwt>
<totfact> 0.11600912E+05</totfact>
</mgrwt>
</event>
<event>
 5    1  0.6004828E+000  0.9145940E+02  0.7546771E-02  0.1299356E+00
          4   -1    0    0  501    0  0.00000000000E+00  0.00000000000E+00  0.22446183659E+02  0.22446183659E+02  0.00000000000E+00 0. -1.
         -4   -1    0    0    0  501 -0.00000000000E+00 -0.00000000000E+00 -0.93165301015E+02  0.93165301015E+02  0.00000000000E+00 0.  1.
         23    2    1    2    0    0  0.00000000000E+00  0.00000000000E+00 -0.70719117356E+02  0.11561148467E+03  0.91459399895E+02 0.  0.
        -11    1    3    3    0    0  0.33935292557E+02  0.10675884053E+02  0.96200540095E+00  0.35587975998E+02  0.00000000000E+00 0.  1.
         11    1    3    3    0    0 -0.33935292557E+02 -0.10675884053E+02 -0.71681122757E+02  0.80023508676E+02  0.00000000000E+00 0. -1.
<mgrwt>
<rscale>  0 0.91459400E+02</rscale>
<asrwt>0</asrwt>
<pdfrwt beam="1">  1        4 0.34532590E-02 0.91459400E+02</pdfrwt>
<pdfrwt beam="2">  1       -4 0.14333123E-01 0.91459400E+02</pdfrwt>
<totfact> 0.25310922E+04</totfact>
</mgrwt>
</event>
<event>
 5    1  0.6004828E+000  0.9703123E+02  0.7546771E-02  0.1286666E+00
         -2   -1    0    0    0  501 -0.00000000000E+00  0.00000000000E+00  0.28845343958E+02  0.28845343958E+02  0.00000000000E+00 0.  1.
          2   -1    0    0  501    0  0.00000000000E+00 -0.00000000000E+00 -0.81599476207E+02  0.81599476207E+02  0.00000000000E+00 0. -1.
         23    2    1    2    0    0  0.00000000000E+00  0.00000000000E+00 -0.52754132249E+02  0.11044482016E+03  0.97031231218E+02 0.  0.
        -11    1    3    3    0    0  0.56650972307E+01  0.46285831044E+02 -0.11135975214E+02  0.47942480391E+02  0.00000000000E+00 0.  1.
         11    1    3    3    0    0 -0.56650972307E+01 -0.46285831044E+02 -0.41618157035E+02  0.62502339773E+02  0.00000000000E+00 0. -1.
<mgrwt>
<rscale>  0 0.97031231E+02</rscale>
<asrwt>0</asrwt>
<pdfrwt beam="2">  1        2 0.12553765E-01 0.97031231E+02</pdfrwt>
<pdfrwt beam="1">  1       -2 0.44377453E-02 0.97031231E+02</pdfrwt>
<totfact> 0.97080401E+04</totfact>
</mgrwt>
</event>
<event>
 5    1  0.6004828E+000  0.9182592E+02  0.7546771E-02  0.1298489E+00
         -1   -1    0    0    0  501 -0.00000000000E+00  0.00000000000E+00  0.59654885602E+01  0.59654885602E+01  0.00000000000E+00 0.  1.
          1   -1    0    0  501    0  0.00000000000E+00 -0.00000000000E+00 -0.35336584142E+03  0.35336584142E+03  0.00000000000E+00 0. -1.
         23    2    1    2    0    0  0.00000000000E+00  0.00000000000E+00 -0.34740035286E+03  0.35933132998E+03  0.91825919752E+02 0.  0.
        -11    1    3    3    0    0 -0.40977818101E+02  0.18661054444E+02 -0.13857225353E+03  0.14570410419E+03  0.00000000000E+00 0. -1.
         11    1    3    3    0    0  0.40977818101E+02 -0.18661054444E+02 -0.20882809934E+03  0.21362722580E+03  0.00000000000E+00 0.  1.
<mgrwt>
<rscale>  0 0.91825920E+02</rscale>
<asrwt>0</asrwt>
<pdfrwt beam="2">  1        1 0.54363985E-01 0.91825920E+02</pdfrwt>
<pdfrwt beam="1">  1       -1 0.91776732E-03 0.91825920E+02</pdfrwt>
<totfact> 0.12958772E+05</totfact>
</mgrwt>
</event>
<event>
 4    1  0.6004828E+000  0.1336725E+03  0.7546771E-02  0.1222106E+00
          1   -1    0    0  501    0  0.00000000000E+00  0.00000000000E+00  0.13574438261E+02  0.13574438261E+02  0.00000000000E+00 0. -1.
         -1   -1    0    0    0  501 -0.00000000000E+00 -0.00000000000E+00 -0.32908037097E+03  0.32908037097E+03  0.00000000000E+00 0.  1.
        -11    1    1    2    0    0  0.56111538638E+02  0.44454732009E+01 -0.25013519266E+03  0.25639009654E+03  0.00000000000E+00 0.  1.
         11    1    1    2    0    0 -0.56111538638E+02 -0.44454732009E+01 -0.65370740056E+02  0.86264712691E+02  0.00000000000E+00 0. -1.
<mgrwt>
<rscale>  0 0.13367245E+03</rscale>
<asrwt>0</asrwt>
<pdfrwt beam="1">  1        1 0.20883754E-02 0.13367245E+03</pdfrwt>
<pdfrwt beam="2">  1       -1 0.50627743E-01 0.13367245E+03</pdfrwt>
<totfact> 0.21173437E+04</totfact>
</mgrwt>
</event>
<event>
 5    1  0.6004828E+000  0.8705257E+02  0.7546771E-02  0.1310150E+00
          2   -1    0    0  501    0  0.00000000000E+00  0.00000000000E+00  0.33376899900E+02  0.33376899900E+02  0.00000000000E+00 0. -1.
         -2   -1    0    0    0  501 -0.00000000000E+00 -0.00000000000E+00 -0.56761940603E+02  0.56761940603E+02  0.00000000000E+00 0.  1.
         23    2    1    2    0    0  0.00000000000E+00  0.00000000000E+00 -0.23385040703E+02  0.90138840503E+02  0.87052572843E+02 0.  0.
        -11    1    3    3    0    0  0.30918428461E+02 -0.30625864534E+02 -0.10861049288E+02  0.44853708749E+02  0.00000000000E+00 0. -1.
         11    1    3    3    0    0 -0.30918428461E+02  0.30625864534E+02 -0.12523991415E+02  0.45285131753E+02  0.00000000000E+00 0.  1.
<mgrwt>
<rscale>  0 0.87052573E+02</rscale>
<asrwt>0</asrwt>
<pdfrwt beam="1">  1        2 0.51349077E-02 0.87052573E+02</pdfrwt>
<pdfrwt beam="2">  1       -2 0.87326061E-02 0.87052573E+02</pdfrwt>
<totfact> 0.10417552E+05</totfact>
</mgrwt>
</event>
<event>
 5    1  0.6004828E+000  0.7110310E+02  0.7546771E-02  0.1356382E+00
          1   -1    0    0  501    0  0.00000000000E+00  0.00000000000E+00  0.29081675038E+03  0.29081675038E+03  0.00000000000E+00 0. -1.
         -1   -1    0    0    0  501 -0.00000000000E+00 -0.00000000000E+00 -0.43460794062E+01  0.43460794062E+01  0.00000000000E+00 0.  1.
         23    2    1    2    0    0  0.00000000000E+00  0.00000000000E+00  0.28647067097E+03  0.29516282978E+03  0.71103099505E+02 0.  0.
        -11    1    3    3    0    0 -0.27072139942E+02  0.22901856750E+02  0.15383258598E+03  0.15786659024E+03  0.00000000000E+00 0. -1.
         11    1    3    3    0    0  0.27072139942E+02 -0.22901856750E+02  0.13263808499E+03  0.13729623954E+03  0.00000000000E+00 0.  1.
<mgrwt>
<rscale>  0 0.71103100E+02</rscale>
<asrwt>0</asrwt>
<pdfrwt beam="1">  1        1 0.44741023E-01 0.71103100E+02</pdfrwt>
<pdfrwt beam="2">  1       -1 0.66862783E-03 0.71103100E+02</pdfrwt>
<totfact> 0.24496617E+05</totfact>
</mgrwt>
</event>
<event>
 5    1  0.6004828E+000  0.9199450E+02  0.7546771E-02  0.1298092E+00
         -2   -1    0    0    0  501 -0.00000000000E+00  0.00000000000E+00  0.19168542782E+03  0.19168542782E+03  0.00000000000E+00 0.  1.
          2   -1    0    0  501    0  0.00000000000E+00 -0.00000000000E+00 -0.11037598700E+02  0.11037598700E+02  0.00000000000E+00 0. -1.
         23    2    1    2    0    0  0.00000000000E+00  0.00000000000E+00  0.18064782912E+03  0.20272302652E+03  0.91994496115E+02 0.  0.
        -11    1    3    3    0    0  0.23289838971E+02 -0.27661012060E+02  0.15297091683E+03  0.15718667114E+03  0.00000000000E+00 0.  1.
         11    1    3    3    0    0 -0.23289838971E+02  0.27661012060E+02  0.27676912287E+02  0.45536355380E+02  0.00000000000E+00 0. -1.
<mgrwt>
<rscale>  0 0.91994496E+02</rscale>
<asrwt>0</asrwt>
<pdfrwt beam="2">  1        2 0.16980923E-02 0.91994496E+02</pdfrwt>
<pdfrwt beam="1">  1       -2 0.29490063E-01 0.91994496E+02</pdfrwt>
<totfact> 0.62030143E+04</totfact>
</mgrwt>
</event>
<event>
 5    1  0.6004828E+000  0.1036486E+03  0.7546771E-02  0.1272805E+00
          2   -1    0    0  501    0  0.00000000000E+00  0.00000000000E+00  0.72671560832E+02  0.72671560832E+02  0.00000000000E+00 0. -1.
         -2   -1    0    0    0  501 -0.00000000000E+00 -0.00000000000E+00 -0.36957484651E+02  0.36957484651E+02  0.00000000000E+00 0.  1.
         23    2    1    2    0    0  0.00000000000E+00  0.00000000000E+00  0.35714076181E+02  0.10962904548E+03  0.10364860045E+03 0.  0.
        -11    1    3    3    0    0  0.72663496686E+01  0.49659284560E+02  0.41920832653E+01  0.50362862732E+02  0.00000000000E+00 0.  1.
         11    1    3    3    0    0 -0.72663496686E+01 -0.49659284560E+02  0.31521992916E+02  0.59266182751E+02  0.00000000000E+00 0. -1.
<mgrwt>
<rscale>  0 0.10364860E+03</rscale>
<asrwt>0</asrwt>
<pdfrwt beam="1">  1        2 0.11180240E-01 0.10364860E+03</pdfrwt>
<pdfrwt beam="2">  1       -2 0.56857669E-02 0.10364860E+03</pdfrwt>
<totfact> 0.77816550E+04</totfact>
</mgrwt>
</event>
<event>
 5    1  0.6004828E+000  0.9745502E+02  0.7546771E-02  0.1285741E+00
         -2   -1    0    0    0  501 -0.00000000000E+00  0.00000000000E+00  0.23315580825E+03  0.23315580825E+03  0.00000000000E+00 0. -1.
          2   -1    0    0  501    0  0.00000000000E+00 -0.00000000000E+00 -0.10183619608E+02  0.10183619608E+02  0.00000000000E+00 0.  1.
         23    2    1    2    0    0  0.00000000000E+00  0.00000000000E+00  0.22297218864E+03  0.24333942786E+03  0.97455016506E+02 0.  0.
        -11    1    3    3    0    0 -0.23972150548E+02  0.27873470708E+02  0.31631762236E+02  0.48499100542E+02  0.00000000000E+00 0.  1.
         11    1    3    3    0    0  0.23972150548E+02 -0.27873470708E+02  0.19134042641E+03  0.19484032732E+03  0.00000000000E+00 0. -1.
<mgrwt>
<rscale>  0 0.97455017E+02</rscale>
<asrwt>0</asrwt>
<pdfrwt beam="2">  1        2 0.15667109E-02 0.97455017E+02</pdfrwt>
<pdfrwt beam="1">  1       -2 0.35870120E-01 0.97455017E+02</pdfrwt>
<totfact> 0.48988122E+04</totfact>
</mgrwt>
</event>
<event>
 5    1  0.6004828E+000  0.9130087E+02  0.7546771E-02  0.1299732E+00
         -3   -1    0    0    0  501 -0.00000000000E+00  0.00000000000E+00  0.63671786017E+02  0.63671786017E+02  0.00000000000E+00 0.  1.
          3   -1    0    0  501    0  0.00000000000E+00 -0.00000000000E+00 -0.32729759778E+02  0.32729759778E+02  0.00000000000E+00 0. -1.
         23    2    1    2    0    0  0.00000000000E+00  0.00000000000E+00  0.30942026239E+02  0.96401545795E+02  0.91300870992E+02 0.  0.
        -11    1    3    3    0    0 -0.21104956247E+02  0.17450103918E+02  0.54035983985E+02  0.60578980431E+02  0.00000000000E+00 0.  1.
         11    1    3    3    0    0  0.21104956247E+02 -0.17450103918E+02 -0.23093957745E+02  0.35822565364E+02  0.00000000000E+00 0. -1.
<mgrwt>
<rscale>  0 0.91300871E+02</rscale>
<asrwt>0</asrwt>
<pdfrwt beam="2">  1        3 0.50353477E-02 0.91300871E+02</pdfrwt>
<pdfrwt beam="1">  1       -3 0.97956594E-02 0.91300871E+02</pdfrwt>
<totfact> 0.34811882E+04</totfact>
</mgrwt>
</event>
<event>
 5    1  0.6004828E+000  0.9692685E+02  0.7546771E-02  0.1286894E+00
         -1   -1    0    0    0  501 -0.00000000000E+00  0.00000000000E+00  0.34336080637E+02  0.34336080637E+02  0.00000000000E+00 0.  1.
          1   -1    0    0  501    0  0.00000000000E+00 -0.00000000000E+00 -0.68403374002E+02  0.68403374002E+02  0.00000000000E+00 0. -1.
         23    2    1    2    0    0  0.00000000000E+00  0.00000000000E+00 -0.34067293365E+02  0.10273945464E+03  0.96926854185E+02 0.  0.
        -11    1    3    3    0    0  0.44392513313E+02 -0.10873465605E+02  0.50483781168E-01  0.45704814201E+02  0.00000000000E+00 0.  1.
         11    1    3    3    0    0 -0.44392513313E+02  0.10873465605E+02 -0.34117777146E+02  0.57034640438E+02  0.00000000000E+00 0. -1.
<mgrwt>
<rscale>  0 0.96926854E+02</rscale>
<asrwt>0</asrwt>
<pdfrwt beam="2">  1        1 0.10523596E-01 0.96926854E+02</pdfrwt>
<pdfrwt beam="1">  1       -1 0.52824740E-02 0.96926854E+02</pdfrwt>
<totfact> 0.82972481E+04</totfact>
</mgrwt>
</event>
<event>
 5    1  0.6004828E+000  0.9203906E+02  0.7546771E-02  0.1297988E+00
         -2   -1    0    0    0  501 -0.00000000000E+00  0.00000000000E+00  0.34592590057E+02  0.34592590057E+02  0.00000000000E+00 0.  1.
          2   -1    0    0  501    0  0.00000000000E+00 -0.00000000000E+00 -0.61221116906E+02  0.61221116906E+02  0.00000000000E+00 0. -1.
         23    2    1    2    0    0  0.00000000000E+00  0.00000000000E+00 -0.26628526849E+02  0.95813706964E+02  0.92039056927E+02 0.  0.
        -11    1    3    3    0    0  0.35201473529E+02  0.67994037903E+01 -0.43349225874E+02  0.56254164418E+02  0.00000000000E+00 0. -1.
         11    1    3    3    0    0 -0.35201473529E+02 -0.67994037903E+01  0.16720699024E+02  0.39559542545E+02  0.00000000000E+00 0.  1.
<mgrwt>
<rscale>  0 0.92039057E+02</rscale>
<asrwt>0</asrwt>
<pdfrwt beam="2">  1        2 0.94186333E-02 0.92039057E+02</pdfrwt>
<pdfrwt beam="1">  1       -2 0.53219370E-02 0.92039057E+02</pdfrwt>
<totfact> 0.10384945E+05</totfact>
</mgrwt>
</event>
<event>
 5    1  0.6004828E+000  0.9294541E+02  0.7546771E-02  0.1295872E+00
         -1   -1    0    0    0  501 -0.00000000000E+00  0.00000000000E+00  0.76891199988E+02  0.76891199988E+02  0.00000000000E+00 0.  1.
          1   -1    0    0  501    0  0.00000000000E+00 -0.00000000000E+00 -0.28087901134E+02  0.28087901134E+02  0.00000000000E+00 0. -1.
         23    2    1    2    0    0  0.00000000000E+00  0.00000000000E+00  0.48803298854E+02  0.10497910112E+03  0.92945412438E+02 0.  0.
        -11    1    3    3    0    0  0.34681045483E+02 -0.30740824040E+02  0.28304332820E+02  0.54303852855E+02  0.00000000000E+00 0. -1.
         11    1    3    3    0    0 -0.34681045483E+02  0.30740824040E+02  0.20498966034E+02  0.50675248267E+02  0.00000000000E+00 0.  1.
<mgrwt>
<rscale>  0 0.92945412E+02</rscale>
<asrwt>0</asrwt>
<pdfrwt beam="2">  1        1 0.43212156E-02 0.92945412E+02</pdfrwt>
<pdfrwt beam="1">  1       -1 0.11829415E-01 0.92945412E+02</pdfrwt>
<totfact> 0.81126285E+04</totfact>
</mgrwt>
</event>
<event>
 5    1  0.6004828E+000  0.9229554E+02  0.7546771E-02  0.1297386E+00
         -2   -1    0    0    0  501 -0.00000000000E+00  0.00000000000E+00  0.24610607253E+02  0.24610607253E+02  0.00000000000E+00 0.  1.
          2   -1    0    0  501    0  0.00000000000E+00 -0.00000000000E+00 -0.86532466389E+02  0.86532466389E+02  0.00000000000E+00 0. -1.
         23    2    1    2    0    0  0.00000000000E+00  0.00000000000E+00 -0.61921859136E+02  0.11114307364E+03  0.92295537161E+02 0.  0.
        -11    1    3    3    0    0 -0.29149101395E+02  0.57759192807E+01  0.11556077232E+02  0.31883761959E+02  0.00000000000E+00 0.  1.
         11    1    3    3    0    0  0.29149101395E+02 -0.57759192807E+01 -0.73477936367E+02  0.79259311683E+02  0.00000000000E+00 0. -1.
<mgrwt>
<rscale>  0 0.92295537E+02</rscale>
<asrwt>0</asrwt>
<pdfrwt beam="2">  1        2 0.13312687E-01 0.92295537E+02</pdfrwt>
<pdfrwt beam="1">  1       -2 0.37862472E-02 0.92295537E+02</pdfrwt>
<totfact> 0.11358366E+05</totfact>
</mgrwt>
</event>
<event>
 5    1  0.6004828E+000  0.7409816E+02  0.7546771E-02  0.1346687E+00
         -1   -1    0    0    0  501 -0.00000000000E+00  0.00000000000E+00  0.13065959980E+02  0.13065959980E+02  0.00000000000E+00 0.  1.
          1   -1    0    0  501    0  0.00000000000E+00 -0.00000000000E+00 -0.10505422119E+03  0.10505422119E+03  0.00000000000E+00 0. -1.
         23    2    1    2    0    0  0.00000000000E+00  0.00000000000E+00 -0.91988261210E+02  0.11812018117E+03  0.74098157865E+02 0.  0.
        -11    1    3    3    0    0 -0.27049745675E+02  0.18688886818E+02 -0.18769416235E+02  0.37858344092E+02  0.00000000000E+00 0.  1.
         11    1    3    3    0    0  0.27049745675E+02 -0.18688886818E+02 -0.73218844975E+02  0.80261837077E+02  0.00000000000E+00 0. -1.
<mgrwt>
<rscale>  0 0.74098158E+02</rscale>
<asrwt>0</asrwt>
<pdfrwt beam="2">  1        1 0.16162188E-01 0.74098158E+02</pdfrwt>
<pdfrwt beam="1">  1       -1 0.20101477E-02 0.74098158E+02</pdfrwt>
<totfact> 0.18381961E+05</totfact>
</mgrwt>
</event>
<event>
 5    1  0.6004828E+000  0.8769143E+02  0.7546771E-02  0.1308541E+00
         -2   -1    0    0    0  501 -0.00000000000E+00  0.00000000000E+00  0.15098192544E+03  0.15098192544E+03  0.00000000000E+00 0. -1.
          2   -1    0    0  501    0  0.00000000000E+00 -0.00000000000E+00 -0.12732960290E+02  0.12732960290E+02  0.00000000000E+00 0.  1.
         23    2    1    2    0    0  0.00000000000E+00  0.00000000000E+00  0.13824896515E+03  0.16371488573E+03  0.87691433130E+02 0.  0.
        -11    1    3    3    0    0 -0.31130134352E+02 -0.29882110013E+02  0.83636416975E+02  0.94112039655E+02  0.00000000000E+00 0. -1.
         11    1    3    3    0    0  0.31130134352E+02  0.29882110013E+02  0.54612548171E+02  0.69602846072E+02  0.00000000000E+00 0.  1.
<mgrwt>
<rscale>  0 0.87691433E+02</rscale>
<asrwt>0</asrwt>
<pdfrwt beam="2">  1        2 0.19589171E-02 0.87691433E+02</pdfrwt>
<pdfrwt beam="1">  1       -2 0.23227987E-01 0.87691433E+02</pdfrwt>
<totfact> 0.76911292E+04</totfact>
</mgrwt>
</event>
<event>
 5    1  0.6004828E+000  0.8743989E+02  0.7546771E-02  0.1309173E+00
         -2   -1    0    0    0  501 -0.00000000000E+00  0.00000000000E+00  0.12061715054E+02  0.12061715054E+02  0.00000000000E+00 0.  1.
          2   -1    0    0  501    0  0.00000000000E+00 -0.00000000000E+00 -0.15847113324E+03  0.15847113324E+03  0.00000000000E+00 0. -1.
         23    2    1    2    0    0  0.00000000000E+00  0.00000000000E+00 -0.14640941818E+03  0.17053284829E+03  0.87439891433E+02 0.  0.
        -11    1    3    3    0    0  0.18604926095E+02 -0.35508109522E+02 -0.39174329516E+02  0.56049952808E+02  0.00000000000E+00 0.  1.
         11    1    3    3    0    0 -0.18604926095E+02  0.35508109522E+02 -0.10723508867E+03  0.11448289548E+03  0.00000000000E+00 0. -1.
<mgrwt>
<rscale>  0 0.87439891E+02</rscale>
<asrwt>0</asrwt>
<pdfrwt beam="2">  1        2 0.24380174E-01 0.87439891E+02</pdfrwt>
<pdfrwt beam="1">  1       -2 0.18556485E-02 0.87439891E+02</pdfrwt>
<totfact> 0.15950826E+05</totfact>
</mgrwt>
</event>
<event>
 5    1  0.6004828E+000  0.8963697E+02  0.7546771E-02  0.1303733E+00
         -2   -1    0    0    0  501 -0.00000000000E+00  0.00000000000E+00  0.19095244548E+02  0.19095244548E+02  0.00000000000E+00 0.  1.
          2   -1    0    0  501    0  0.00000000000E+00 -0.00000000000E+00 -0.10519355655E+03  0.10519355655E+03  0.00000000000E+00 0. -1.
         23    2    1    2    0    0  0.00000000000E+00  0.00000000000E+00 -0.86098312000E+02  0.12428880110E+03  0.89636971996E+02 0.  0.
        -11    1    3    3    0    0  0.12101982797E+02  0.19870818703E+02  0.10065881209E+02  0.25350135859E+02  0.00000000000E+00 0.  1.
         11    1    3    3    0    0 -0.12101982797E+02 -0.19870818703E+02 -0.96164193208E+02  0.98938665237E+02  0.00000000000E+00 0. -1.
<mgrwt>
<rscale>  0 0.89636972E+02</rscale>
<asrwt>0</asrwt>
<pdfrwt beam="2">  1        2 0.16183624E-01 0.89636972E+02</pdfrwt>
<pdfrwt beam="1">  1       -2 0.29377299E-02 0.89636972E+02</pdfrwt>
<totfact> 0.13055347E+05</totfact>
</mgrwt>
</event>
<event>
 5    1  0.6004828E+000  0.8376642E+02  0.7546771E-02  0.1318690E+00
          3   -1    0    0  501    0  0.00000000000E+00  0.00000000000E+00  0.21409054981E+03  0.21409054981E+03  0.00000000000E+00 0. -1.
         -3   -1    0    0    0  501 -0.00000000000E+00 -0.00000000000E+00 -0.81937452616E+01  0.81937452616E+01  0.00000000000E+00 0.  1.
         23    2    1    2    0    0  0.00000000000E+00  0.00000000000E+00  0.20589680455E+03  0.22228429507E+03  0.83766423537E+02 0.  0.
        -11    1    3    3    0    0 -0.24555320139E+02 -0.23567566792E+02  0.38175626355E+02  0.51144622388E+02  0.00000000000E+00 0.  1.
         11    1    3    3    0    0  0.24555320139E+02  0.23567566792E+02  0.16772117819E+03  0.17113967268E+03  0.00000000000E+00 0. -1.
<mgrwt>
<rscale>  0 0.83766424E+02</rscale>
<asrwt>0</asrwt>
<pdfrwt beam="1">  1        3 0.32937003E-01 0.83766424E+02</pdfrwt>
<pdfrwt beam="2">  1       -3 0.12605764E-02 0.83766424E+02</pdfrwt>
<totfact> 0.34364394E+04</totfact>
</mgrwt>
</event>
<event>
 5    1  0.6004828E+000  0.8482389E+02  0.7546771E-02  0.1315894E+00
         -1   -1    0    0    0  501 -0.00000000000E+00  0.00000000000E+00  0.29172123202E+02  0.29172123202E+02  0.00000000000E+00 0.  1.
          1   -1    0    0  501    0  0.00000000000E+00 -0.00000000000E+00 -0.61660681632E+02  0.61660681632E+02  0.00000000000E+00 0. -1.
         23    2    1    2    0    0  0.00000000000E+00  0.00000000000E+00 -0.32488558430E+02  0.90832804834E+02  0.84823888175E+02 0.  0.
        -11    1    3    3    0    0 -0.35674462105E+02  0.57000361930E+01 -0.40035617598E+02  0.53925952338E+02  0.00000000000E+00 0. -1.
         11    1    3    3    0    0  0.35674462105E+02 -0.57000361930E+01  0.75470591681E+01  0.36906852496E+02  0.00000000000E+00 0.  1.
<mgrwt>
<rscale>  0 0.84823888E+02</rscale>
<asrwt>0</asrwt>
<pdfrwt beam="2">  1        1 0.94862587E-02 0.84823888E+02</pdfrwt>
<pdfrwt beam="1">  1       -1 0.44880190E-02 0.84823888E+02</pdfrwt>
<totfact> 0.11806718E+05</totfact>
</mgrwt>
</event>
<event>
 5    1  0.6004828E+000  0.9134384E+02  0.7546771E-02  0.1299630E+00
         -3   -1    0    0    0  501 -0.00000000000E+00  0.00000000000E+00  0.16529176143E+02  0.16529176143E+02  0.00000000000E+00 0.  1.
          3   -1    0    0  501    0  0.00000000000E+00 -0.00000000000E+00 -0.12619650022E+03  0.12619650022E+03  0.00000000000E+00 0. -1.
         23    2    1    2    0    0  0.00000000000E+00  0.00000000000E+00 -0.10966732408E+03  0.14272567637E+03  0.91343837907E+02 0.  0.
        -11    1    3    3    0    0  0.36524923197E+02 -0.63786592336E+01 -0.13165090359E+02  0.39345608552E+02  0.00000000000E+00 0.  1.
         11    1    3    3    0    0 -0.36524923197E+02  0.63786592336E+01 -0.96502233722E+02  0.10338006782E+03  0.00000000000E+00 0. -1.
<mgrwt>
<rscale>  0 0.91343838E+02</rscale>
<asrwt>0</asrwt>
<pdfrwt beam="2">  1        3 0.19414846E-01 0.91343838E+02</pdfrwt>
<pdfrwt beam="1">  1       -3 0.25429502E-02 0.91343838E+02</pdfrwt>
<totfact> 0.31600669E+04</totfact>
</mgrwt>
</event>
<event>
 5    1  0.6004828E+000  0.9886561E+02  0.7546771E-02  0.1282700E+00
          1   -1    0    0  501    0  0.00000000000E+00  0.00000000000E+00  0.14803096133E+02  0.14803096133E+02  0.00000000000E+00 0. -1.
         -1   -1    0    0    0  501 -0.00000000000E+00 -0.00000000000E+00 -0.16507371714E+03  0.16507371714E+03  0.00000000000E+00 0.  1.
         23    2    1    2    0    0  0.00000000000E+00  0.00000000000E+00 -0.15027062101E+03  0.17987681327E+03  0.98865607850E+02 0.  0.
        -11    1    3    3    0    0  0.44088122118E+02  0.31946849972E+01 -0.11539454766E+03  0.12357131606E+03  0.00000000000E+00 0.  1.
         11    1    3    3    0    0 -0.44088122118E+02 -0.31946849972E+01 -0.34876073352E+02  0.56305497214E+02  0.00000000000E+00 0. -1.
<mgrwt>
<rscale>  0 0.98865608E+02</rscale>
<asrwt>0</asrwt>
<pdfrwt beam="1">  1        1 0.22773994E-02 0.98865608E+02</pdfrwt>
<pdfrwt beam="2">  1       -1 0.25395957E-01 0.98865608E+02</pdfrwt>
<totfact> 0.59176914E+04</totfact>
</mgrwt>
</event>
<event>
 5    1  0.6004828E+000  0.8935664E+02  0.7546771E-02  0.1304417E+00
         -3   -1    0    0    0  501 -0.00000000000E+00  0.00000000000E+00  0.31694544739E+03  0.31694544739E+03  0.00000000000E+00 0.  1.
          3   -1    0    0  501    0  0.00000000000E+00 -0.00000000000E+00 -0.62980939950E+01  0.62980939950E+01  0.00000000000E+00 0. -1.
         23    2    1    2    0    0  0.00000000000E+00  0.00000000000E+00  0.31064735339E+03  0.32324354138E+03  0.89356638677E+02 0.  0.
        -11    1    3    3    0    0  0.41442946940E+02 -0.53680976218E+01  0.98147540245E+02  0.10667367988E+03  0.00000000000E+00 0. -1.
         11    1    3    3    0    0 -0.41442946940E+02  0.53680976218E+01  0.21249981315E+03  0.21656986150E+03  0.00000000000E+00 0.  1.
<mgrwt>
<rscale>  0 0.89356639E+02</rscale>
<asrwt>0</asrwt>
<pdfrwt beam="2">  1        3 0.96893779E-03 0.89356639E+02</pdfrwt>
<pdfrwt beam="1">  1       -3 0.48760825E-01 0.89356639E+02</pdfrwt>
<totfact> 0.24432854E+04</totfact>
</mgrwt>
</event>
<event>
 5    1  0.6004828E+000  0.8974151E+02  0.7546771E-02  0.1303479E+00
         -1   -1    0    0    0  501 -0.00000000000E+00  0.00000000000E+00  0.98282346643E+02  0.98282346643E+02  0.00000000000E+00 0.  1.
          1   -1    0    0  501    0  0.00000000000E+00 -0.00000000000E+00 -0.20485720539E+02  0.20485720539E+02  0.00000000000E+00 0. -1.
         23    2    1    2    0    0  0.00000000000E+00  0.00000000000E+00  0.77796626105E+02  0.11876806718E+03  0.89741510734E+02 0.  0.
        -11    1    3    3    0    0 -0.29265108636E+02 -0.27521801600E+02  0.65350310706E+02  0.76710880950E+02  0.00000000000E+00 0.  1.
         11    1    3    3    0    0  0.29265108636E+02  0.27521801600E+02  0.12446315399E+02  0.42057186232E+02  0.00000000000E+00 0. -1.
<mgrwt>
<rscale>  0 0.89741511E+02</rscale>
<asrwt>0</asrwt>
<pdfrwt beam="2">  1        1 0.31516494E-02 0.89741511E+02</pdfrwt>
<pdfrwt beam="1">  1       -1 0.15120361E-01 0.89741511E+02</pdfrwt>
<totfact> 0.85031593E+04</totfact>
</mgrwt>
</event>
<event>
 5    1  0.6004828E+000  0.9237294E+02  0.7546771E-02  0.1297205E+00
         -2   -1    0    0    0  501 -0.00000000000E+00  0.00000000000E+00  0.32324801173E+03  0.32324801173E+03  0.00000000000E+00 0.  1.
          2   -1    0    0  501    0  0.00000000000E+00 -0.00000000000E+00 -0.65992357547E+01  0.65992357547E+01  0.00000000000E+00 0. -1.
         23    2    1    2    0    0  0.00000000000E+00  0.00000000000E+00  0.31664877597E+03  0.32984724748E+03  0.92372936223E+02 0.  0.
        -11    1    3    3    0    0  0.32231985777E+02  0.31606079586E+02  0.19319152665E+03  0.19839559255E+03  0.00000000000E+00 0.  1.
         11    1    3    3    0    0 -0.32231985777E+02 -0.31606079586E+02  0.12345724932E+03  0.13145165493E+03  0.00000000000E+00 0. -1.
<mgrwt>
<rscale>  0 0.92372936E+02</rscale>
<asrwt>0</asrwt>
<pdfrwt beam="2">  1        2 0.10152673E-02 0.92372936E+02</pdfrwt>
<pdfrwt beam="1">  1       -2 0.49730451E-01 0.92372936E+02</pdfrwt>
<totfact> 0.47238353E+04</totfact>
</mgrwt>
</event>
<event>
 5    1  0.6004828E+000  0.9168143E+02  0.7546771E-02  0.1298830E+00
         -1   -1    0    0    0  501 -0.00000000000E+00  0.00000000000E+00  0.17610504363E+02  0.17610504363E+02  0.00000000000E+00 0.  1.
          1   -1    0    0  501    0  0.00000000000E+00 -0.00000000000E+00 -0.11932488027E+03  0.11932488027E+03  0.00000000000E+00 0. -1.
         23    2    1    2    0    0  0.00000000000E+00  0.00000000000E+00 -0.10171437590E+03  0.13693538463E+03  0.91681433771E+02 0.  0.
        -11    1    3    3    0    0 -0.24134216430E+02  0.17825830724E+01 -0.10900664826E+03  0.11166059005E+03  0.00000000000E+00 0. -1.
         11    1    3    3    0    0  0.24134216430E+02 -0.17825830724E+01  0.72922723553E+01  0.25274794583E+02  0.00000000000E+00 0.  1.
<mgrwt>
<rscale>  0 0.91681434E+02</rscale>
<asrwt>0</asrwt>
<pdfrwt beam="2">  1        1 0.18357674E-01 0.91681434E+02</pdfrwt>
<pdfrwt beam="1">  1       -1 0.27093083E-02 0.91681434E+02</pdfrwt>
<totfact> 0.10603198E+05</totfact>
</mgrwt>
</event>
<event>
 5    1  0.6004828E+000  0.9059249E+02  0.7546771E-02  0.1301423E+00
          2   -1    0    0  501    0  0.00000000000E+00  0.00000000000E+00  0.71348071323E+02  0.71348071323E+02  0.00000000000E+00 0. -1.
         -2   -1    0    0    0  501 -0.00000000000E+00 -0.00000000000E+00 -0.28756905507E+02  0.28756905507E+02  0.00000000000E+00 0.  1.
         23    2    1    2    0    0  0.00000000000E+00  0.00000000000E+00  0.42591165816E+02  0.10010497683E+03  0.90592488544E+02 0.  0.
        -11    1    3    3    0    0  0.17121503963E+02 -0.41909785718E+02  0.22924744298E+02  0.50745639596E+02  0.00000000000E+00 0.  1.
         11    1    3    3    0    0 -0.17121503963E+02  0.41909785718E+02  0.19666421517E+02  0.49359337234E+02  0.00000000000E+00 0. -1.
<mgrwt>
<rscale>  0 0.90592489E+02</rscale>
<asrwt>0</asrwt>
<pdfrwt beam="1">  1        2 0.10976626E-01 0.90592489E+02</pdfrwt>
<pdfrwt beam="2">  1       -2 0.44241393E-02 0.90592489E+02</pdfrwt>
<totfact> 0.11322134E+05</totfact>
</mgrwt>
</event>
<event>
 5    1  0.6004828E+000  0.8834610E+02  0.7546771E-02  0.1306907E+00
          1   -1    0    0  501    0  0.00000000000E+00  0.00000000000E+00  0.45006390385E+02  0.45006390385E+02  0.00000000000E+00 0. -1.
         -1   -1    0    0    0  501 -0.00000000000E+00 -0.00000000000E+00 -0.43355139307E+02  0.43355139307E+02  0.00000000000E+00 0.  1.
         23    2    1    2    0    0  0.00000000000E+00  0.00000000000E+00  0.16512510778E+01  0.88361529692E+02  0.88346099514E+02 0.  0.
        -11    1    3    3    0    0  0.15241417912E+02 -0.34587009937E+02 -0.22040918768E+02  0.43753447595E+02  0.00000000000E+00 0.  1.
         11    1    3    3    0    0 -0.15241417912E+02  0.34587009937E+02  0.23692169846E+02  0.44608082097E+02  0.00000000000E+00 0. -1.
<mgrwt>
<rscale>  0 0.88346100E+02</rscale>
<asrwt>0</asrwt>
<pdfrwt beam="1">  1        1 0.69240601E-02 0.88346100E+02</pdfrwt>
<pdfrwt beam="2">  1       -1 0.66700214E-02 0.88346100E+02</pdfrwt>
<totfact> 0.10081146E+05</totfact>
</mgrwt>
</event>
<event>
 5    1  0.6004828E+000  0.9311103E+02  0.7546771E-02  0.1295488E+00
          2   -1    0    0  501    0  0.00000000000E+00  0.00000000000E+00  0.17729559212E+02  0.17729559212E+02  0.00000000000E+00 0. -1.
         -2   -1    0    0    0  501 -0.00000000000E+00 -0.00000000000E+00 -0.12224873331E+03  0.12224873331E+03  0.00000000000E+00 0.  1.
         23    2    1    2    0    0  0.00000000000E+00  0.00000000000E+00 -0.10451917410E+03  0.13997829252E+03  0.93111033844E+02 0.  0.
        -11    1    3    3    0    0 -0.26826940994E+02  0.23343893575E+02 -0.97429981287E+02  0.10371703517E+03  0.00000000000E+00 0. -1.
         11    1    3    3    0    0  0.26826940994E+02 -0.23343893575E+02 -0.70891928123E+01  0.36261257356E+02  0.00000000000E+00 0.  1.
<mgrwt>
<rscale>  0 0.93111034E+02</rscale>
<asrwt>0</asrwt>
<pdfrwt beam="1">  1        2 0.27276246E-02 0.93111034E+02</pdfrwt>
<pdfrwt beam="2">  1       -2 0.18807497E-01 0.93111034E+02</pdfrwt>
<totfact> 0.71109883E+04</totfact>
</mgrwt>
</event>
<event>
 5    1  0.6004828E+000  0.9014045E+02  0.7546771E-02  0.1302512E+00
         -2   -1    0    0    0  501 -0.00000000000E+00  0.00000000000E+00  0.29528850158E+02  0.29528850158E+02  0.00000000000E+00 0.  1.
          2   -1    0    0  501    0  0.00000000000E+00 -0.00000000000E+00 -0.68791202357E+02  0.68791202357E+02  0.00000000000E+00 0. -1.
         23    2    1    2    0    0  0.00000000000E+00  0.00000000000E+00 -0.39262352199E+02  0.98320052515E+02  0.90140448337E+02 0.  0.
        -11    1    3    3    0    0  0.23258392398E+02  0.30615333341E+02 -0.45282741518E+02  0.59403519524E+02  0.00000000000E+00 0. -1.
         11    1    3    3    0    0 -0.23258392398E+02 -0.30615333341E+02  0.60203893189E+01  0.38916532991E+02  0.00000000000E+00 0.  1.
<mgrwt>
<rscale>  0 0.90140448E+02</rscale>
<asrwt>0</asrwt>
<pdfrwt beam="2">  1        2 0.10583262E-01 0.90140448E+02</pdfrwt>
<pdfrwt beam="1">  1       -2 0.45429001E-02 0.90140448E+02</pdfrwt>
<totfact> 0.11366295E+05</totfact>
</mgrwt>
</event>
<event>
 5    1  0.6004828E+000  0.8996138E+02  0.7546771E-02  0.1302945E+00
          4   -1    0    0  501    0  0.00000000000E+00  0.00000000000E+00  0.43372962747E+02  0.43372962747E+02  0.00000000000E+00 0. -1.
         -4   -1    0    0    0  501 -0.00000000000E+00 -0.00000000000E+00 -0.46648007733E+02  0.46648007733E+02  0.00000000000E+00 0.  1.
         23    2    1    2    0    0  0.00000000000E+00  0.00000000000E+00 -0.32750449864E+01  0.90020970480E+02  0.89961376193E+02 0.  0.
        -11    1    3    3    0    0  0.20152363910E+02 -0.87005070690E+01  0.37649735283E+02  0.43581178980E+02  0.00000000000E+00 0. -1.
         11    1    3    3    0    0 -0.20152363910E+02  0.87005070690E+01 -0.40924780269E+02  0.46439791500E+02  0.00000000000E+00 0.  1.
<mgrwt>
<rscale>  0 0.89961376E+02</rscale>
<asrwt>0</asrwt>
<pdfrwt beam="1">  1        4 0.66727635E-02 0.89961376E+02</pdfrwt>
<pdfrwt beam="2">  1       -4 0.71766166E-02 0.89961376E+02</pdfrwt>
<totfact> 0.28093800E+04</totfact>
</mgrwt>
</event>
<event>
 5    1  0.6004828E+000  0.8586825E+02  0.7546771E-02  0.1313177E+00
         -2   -1    0    0    0  501 -0.00000000000E+00  0.00000000000E+00  0.51033015019E+02  0.51033015019E+02  0.00000000000E+00 0.  1.
          2   -1    0    0  501    0  0.00000000000E+00 -0.00000000000E+00 -0.36120523741E+02  0.36120523741E+02  0.00000000000E+00 0. -1.
         23    2    1    2    0    0  0.00000000000E+00  0.00000000000E+00  0.14912491278E+02  0.87153538761E+02  0.85868253286E+02 0.  0.
        -11    1    3    3    0    0 -0.13244647410E+02 -0.75864301601E+01  0.48186254800E+02  0.50545917335E+02  0.00000000000E+00 0.  1.
         11    1    3    3    0    0  0.13244647410E+02  0.75864301601E+01 -0.33273763521E+02  0.36607621426E+02  0.00000000000E+00 0. -1.
<mgrwt>
<rscale>  0 0.85868253E+02</rscale>
<asrwt>0</asrwt>
<pdfrwt beam="2">  1        2 0.55570036E-02 0.85868253E+02</pdfrwt>
<pdfrwt beam="1">  1       -2 0.78512331E-02 0.85868253E+02</pdfrwt>
<totfact> 0.11053535E+05</totfact>
</mgrwt>
</event>
<event>
 5    1  0.6004828E+000  0.9328270E+02  0.7546771E-02  0.1295091E+00
          1   -1    0    0  501    0  0.00000000000E+00  0.00000000000E+00  0.20832962559E+02  0.20832962559E+02  0.00000000000E+00 0. -1.
         -1   -1    0    0    0  501 -0.00000000000E+00 -0.00000000000E+00 -0.10442181314E+03  0.10442181314E+03  0.00000000000E+00 0.  1.
         23    2    1    2    0    0  0.00000000000E+00  0.00000000000E+00 -0.83588850585E+02  0.12525477570E+03  0.93282704154E+02 0.  0.
        -11    1    3    3    0    0  0.31068785297E+02  0.14237215494E+02  0.82469543450E+00  0.34185491768E+02  0.00000000000E+00 0. -1.
         11    1    3    3    0    0 -0.31068785297E+02 -0.14237215494E+02 -0.84413546019E+02  0.91069283935E+02  0.00000000000E+00 0.  1.
<mgrwt>
<rscale>  0 0.93282704E+02</rscale>
<asrwt>0</asrwt>
<pdfrwt beam="1">  1        1 0.32050712E-02 0.93282704E+02</pdfrwt>
<pdfrwt beam="2">  1       -1 0.16064894E-01 0.93282704E+02</pdfrwt>
<totfact> 0.76092024E+04</totfact>
</mgrwt>
</event>
<event>
 5    1  0.6004828E+000  0.9148085E+02  0.7546771E-02  0.1299305E+00
         -3   -1    0    0    0  501 -0.00000000000E+00  0.00000000000E+00  0.79728425350E+02  0.79728425350E+02  0.00000000000E+00 0.  1.
          3   -1    0    0  501    0  0.00000000000E+00 -0.00000000000E+00 -0.26241414426E+02  0.26241414426E+02  0.00000000000E+00 0. -1.
         23    2    1    2    0    0  0.00000000000E+00  0.00000000000E+00  0.53487010924E+02  0.10596983978E+03  0.91480853760E+02 0.  0.
        -11    1    3    3    0    0  0.58118053450E+01 -0.42140241725E+02  0.72699379033E+01  0.43155869255E+02  0.00000000000E+00 0. -1.
         11    1    3    3    0    0 -0.58118053450E+01  0.42140241725E+02  0.46217073020E+02  0.62813970521E+02  0.00000000000E+00 0.  1.
<mgrwt>
<rscale>  0 0.91480854E+02</rscale>
<asrwt>0</asrwt>
<pdfrwt beam="2">  1        3 0.40371407E-02 0.91480854E+02</pdfrwt>
<pdfrwt beam="1">  1       -3 0.12265912E-01 0.91480854E+02</pdfrwt>
<totfact> 0.33926480E+04</totfact>
</mgrwt>
</event>
<event>
 5    1  0.6004828E+000  0.1124646E+03  0.7546771E-02  0.1256073E+00
          1   -1    0    0  501    0  0.00000000000E+00  0.00000000000E+00  0.37582014753E+02  0.37582014753E+02  0.00000000000E+00 0. -1.
         -1   -1    0    0    0  501 -0.00000000000E+00 -0.00000000000E+00 -0.84137820872E+02  0.84137820872E+02  0.00000000000E+00 0.  1.
         23    2    1    2    0    0  0.00000000000E+00  0.00000000000E+00 -0.46555806119E+02  0.12171983562E+03  0.11246455131E+03 0.  0.
        -11    1    3    3    0    0  0.55925083750E+02  0.50956911112E+01 -0.26431036658E+02  0.62065938801E+02  0.00000000000E+00 0.  1.
         11    1    3    3    0    0 -0.55925083750E+02 -0.50956911112E+01 -0.20124769461E+02  0.59653896824E+02  0.00000000000E+00 0. -1.
<mgrwt>
<rscale>  0 0.11246455E+03</rscale>
<asrwt>0</asrwt>
<pdfrwt beam="1">  1        1 0.57818485E-02 0.11246455E+03</pdfrwt>
<pdfrwt beam="2">  1       -1 0.12944280E-01 0.11246455E+03</pdfrwt>
<totfact> 0.48955379E+04</totfact>
</mgrwt>
</event>
<event>
 5    1  0.6004828E+000  0.7590561E+02  0.7546771E-02  0.1341089E+00
          3   -1    0    0  501    0  0.00000000000E+00  0.00000000000E+00  0.25238627730E+02  0.25238627730E+02  0.00000000000E+00 0. -1.
         -3   -1    0    0    0  501 -0.00000000000E+00 -0.00000000000E+00 -0.57071856761E+02  0.57071856761E+02  0.00000000000E+00 0.  1.
         23    2    1    2    0    0  0.00000000000E+00  0.00000000000E+00 -0.31833229031E+02  0.82310484490E+02  0.75905608400E+02 0.  0.
        -11    1    3    3    0    0  0.94740564178E+01  0.32848752390E+01 -0.55609454163E+02  0.56506278789E+02  0.00000000000E+00 0.  1.
         11    1    3    3    0    0 -0.94740564178E+01 -0.32848752390E+01  0.23776225132E+02  0.25804205701E+02  0.00000000000E+00 0. -1.
<mgrwt>
<rscale>  0 0.75905608E+02</rscale>
<asrwt>0</asrwt>
<pdfrwt beam="1">  1        3 0.38828658E-02 0.75905608E+02</pdfrwt>
<pdfrwt beam="2">  1       -3 0.87802856E-02 0.75905608E+02</pdfrwt>
<totfact> 0.59066959E+04</totfact>
</mgrwt>
</event>
<event>
 5    1  0.6004828E+000  0.9223666E+02  0.7546771E-02  0.1297524E+00
         -2   -1    0    0    0  501 -0.00000000000E+00  0.00000000000E+00  0.22355431348E+02  0.22355431348E+02  0.00000000000E+00 0.  1.
          2   -1    0    0  501    0  0.00000000000E+00 -0.00000000000E+00 -0.95140200429E+02  0.95140200429E+02  0.00000000000E+00 0. -1.
         23    2    1    2    0    0  0.00000000000E+00  0.00000000000E+00 -0.72784769081E+02  0.11749563178E+03  0.92236656903E+02 0.  0.
        -11    1    3    3    0    0 -0.10176818885E+02 -0.23599997813E+02  0.12387452762E+02  0.28530273839E+02  0.00000000000E+00 0.  1.
         11    1    3    3    0    0  0.10176818885E+02  0.23599997813E+02 -0.85172221843E+02  0.88965357938E+02  0.00000000000E+00 0. -1.
<mgrwt>
<rscale>  0 0.92236657E+02</rscale>
<asrwt>0</asrwt>
<pdfrwt beam="2">  1        2 0.14636954E-01 0.92236657E+02</pdfrwt>
<pdfrwt beam="1">  1       -2 0.34392972E-02 0.92236657E+02</pdfrwt>
<totfact> 0.11704368E+05</totfact>
</mgrwt>
</event>
<event>
 5    1  0.6004828E+000  0.9415442E+02  0.7546771E-02  0.1293092E+00
         -3   -1    0    0    0  501 -0.00000000000E+00  0.00000000000E+00  0.26195871588E+03  0.26195871588E+03  0.00000000000E+00 0.  1.
          3   -1    0    0  501    0  0.00000000000E+00 -0.00000000000E+00 -0.84603546776E+01  0.84603546776E+01  0.00000000000E+00 0. -1.
         23    2    1    2    0    0  0.00000000000E+00  0.00000000000E+00  0.25349836120E+03  0.27041907055E+03  0.94154418849E+02 0.  0.
        -11    1    3    3    0    0 -0.40491070411E+02  0.31316710486E+01  0.58364135625E+02  0.71103491292E+02  0.00000000000E+00 0.  1.
         11    1    3    3    0    0  0.40491070411E+02 -0.31316710486E+01  0.19513422557E+03  0.19931557926E+03  0.00000000000E+00 0. -1.
<mgrwt>
<rscale>  0 0.94154419E+02</rscale>
<asrwt>0</asrwt>
<pdfrwt beam="2">  1        3 0.13015932E-02 0.94154419E+02</pdfrwt>
<pdfrwt beam="1">  1       -3 0.40301335E-01 0.94154419E+02</pdfrwt>
<totfact> 0.23124421E+04</totfact>
</mgrwt>
</event>
<event>
 5    1  0.6004828E+000  0.9112828E+02  0.7546771E-02  0.1300142E+00
         -1   -1    0    0    0  501 -0.00000000000E+00  0.00000000000E+00  0.15515026441E+02  0.15515026441E+02  0.00000000000E+00 0.  1.
          1   -1    0    0  501    0  0.00000000000E+00 -0.00000000000E+00 -0.13381161765E+03  0.13381161765E+03  0.00000000000E+00 0. -1.
         23    2    1    2    0    0  0.00000000000E+00  0.00000000000E+00 -0.11829659121E+03  0.14932664409E+03  0.91128278508E+02 0.  0.
        -11    1    3    3    0    0  0.33363645131E+02  0.65196074299E+01 -0.10886300146E+03  0.11404731994E+03  0.00000000000E+00 0.  1.
         11    1    3    3    0    0 -0.33363645131E+02 -0.65196074299E+01 -0.94335897522E+01  0.35279324158E+02  0.00000000000E+00 0. -1.
<mgrwt>
<rscale>  0 0.91128279E+02</rscale>
<asrwt>0</asrwt>
<pdfrwt beam="2">  1        1 0.20586404E-01 0.91128279E+02</pdfrwt>
<pdfrwt beam="1">  1       -1 0.23869270E-02 0.91128279E+02</pdfrwt>
<totfact> 0.10999073E+05</totfact>
</mgrwt>
</event>
<event>
 5    1  0.6004828E+000  0.8875534E+02  0.7546771E-02  0.1305894E+00
          2   -1    0    0  501    0  0.00000000000E+00  0.00000000000E+00  0.22987227366E+02  0.22987227366E+02  0.00000000000E+00 0. -1.
         -2   -1    0    0    0  501 -0.00000000000E+00 -0.00000000000E+00 -0.85672682714E+02  0.85672682714E+02  0.00000000000E+00 0.  1.
         23    2    1    2    0    0  0.00000000000E+00  0.00000000000E+00 -0.62685455349E+02  0.10865991008E+03  0.88755336438E+02 0.  0.
        -11    1    3    3    0    0  0.39362115319E+02 -0.49265737154E+01 -0.69884947066E+01  0.40280098178E+02  0.00000000000E+00 0. -1.
         11    1    3    3    0    0 -0.39362115319E+02  0.49265737154E+01 -0.55696960642E+02  0.68379811902E+02  0.00000000000E+00 0.  1.
<mgrwt>
<rscale>  0 0.88755336E+02</rscale>
<asrwt>0</asrwt>
<pdfrwt beam="1">  1        2 0.35364966E-02 0.88755336E+02</pdfrwt>
<pdfrwt beam="2">  1       -2 0.13180413E-01 0.88755336E+02</pdfrwt>
<totfact> 0.89195666E+04</totfact>
</mgrwt>
</event>
<event>
 5    1  0.6004828E+000  0.9195513E+02  0.7546771E-02  0.1298185E+00
          2   -1    0    0  501    0  0.00000000000E+00  0.00000000000E+00  0.22278297812E+03  0.22278297812E+03  0.00000000000E+00 0. -1.
         -2   -1    0    0    0  501 -0.00000000000E+00 -0.00000000000E+00 -0.94887704415E+01  0.94887704415E+01  0.00000000000E+00 0.  1.
         23    2    1    2    0    0  0.00000000000E+00  0.00000000000E+00  0.21329420768E+03  0.23227174856E+03  0.91955131181E+02 0.  0.
        -11    1    3    3    0    0 -0.24673432847E+02 -0.32794428030E+02  0.54287677400E+02  0.68054424660E+02  0.00000000000E+00 0.  1.
         11    1    3    3    0    0  0.24673432847E+02  0.32794428030E+02  0.15900653028E+03  0.16421732390E+03  0.00000000000E+00 0. -1.
<mgrwt>
<rscale>  0 0.91955131E+02</rscale>
<asrwt>0</asrwt>
<pdfrwt beam="1">  1        2 0.34274300E-01 0.91955131E+02</pdfrwt>
<pdfrwt beam="2">  1       -2 0.14598110E-02 0.91955131E+02</pdfrwt>
<totfact> 0.15724467E+05</totfact>
</mgrwt>
</event>
<event>
 5    1  0.6004828E+000  0.8991476E+02  0.7546771E-02  0.1303058E+00
          1   -1    0    0  501    0  0.00000000000E+00  0.00000000000E+00  0.54157016783E+02  0.54157016783E+02  0.00000000000E+00 0. -1.
         -1   -1    0    0    0  501 -0.00000000000E+00 -0.00000000000E+00 -0.37320482429E+02  0.37320482429E+02  0.00000000000E+00 0.  1.
         23    2    1    2    0    0  0.00000000000E+00  0.00000000000E+00  0.16836534355E+02  0.91477499212E+02  0.89914759483E+02 0.  0.
        -11    1    3    3    0    0  0.27495004421E+02  0.29362189866E+02 -0.12006829607E+02  0.41979488075E+02  0.00000000000E+00 0.  1.
         11    1    3    3    0    0 -0.27495004421E+02 -0.29362189866E+02  0.28843363962E+02  0.49498011137E+02  0.00000000000E+00 0. -1.
<mgrwt>
<rscale>  0 0.89914759E+02</rscale>
<asrwt>0</asrwt>
<pdfrwt beam="1">  1        1 0.83318488E-02 0.89914759E+02</pdfrwt>
<pdfrwt beam="2">  1       -1 0.57416126E-02 0.89914759E+02</pdfrwt>
<totfact> 0.98644184E+04</totfact>
</mgrwt>
</event>
<event>
 5    1  0.6004828E+000  0.9166302E+02  0.7546771E-02  0.1298874E+00
         -1   -1    0    0    0  501 -0.00000000000E+00  0.00000000000E+00  0.59716404416E+01  0.59716404416E+01  0.00000000000E+00 0. -1.
          1   -1    0    0  501    0  0.00000000000E+00 -0.00000000000E+00 -0.35175045421E+03  0.35175045421E+03  0.00000000000E+00 0.  1.
         23    2    1    2    0    0  0.00000000000E+00  0.00000000000E+00 -0.34577881377E+03  0.35772209465E+03  0.91663018447E+02 0.  0.
        -11    1    3    3    0    0  0.28873814630E+02 -0.34486232517E+02 -0.20725200838E+03  0.21207638337E+03  0.00000000000E+00 0.  1.
         11    1    3    3    0    0 -0.28873814630E+02  0.34486232517E+02 -0.13852680538E+03  0.14564571128E+03  0.00000000000E+00 0. -1.
<mgrwt>
<rscale>  0 0.91663018E+02</rscale>
<asrwt>0</asrwt>
<pdfrwt beam="2">  1        1 0.54115466E-01 0.91663018E+02</pdfrwt>
<pdfrwt beam="1">  1       -1 0.91871371E-03 0.91663018E+02</pdfrwt>
<totfact> 0.13009554E+05</totfact>
</mgrwt>
</event>
<event>
 5    1  0.6004828E+000  0.8986992E+02  0.7546771E-02  0.1303167E+00
          1   -1    0    0  501    0  0.00000000000E+00  0.00000000000E+00  0.11413121766E+02  0.11413121766E+02  0.00000000000E+00 0. -1.
         -1   -1    0    0    0  501 -0.00000000000E+00 -0.00000000000E+00 -0.17691483774E+03  0.17691483774E+03  0.00000000000E+00 0.  1.
         23    2    1    2    0    0  0.00000000000E+00  0.00000000000E+00 -0.16550171598E+03  0.18832795951E+03  0.89869919001E+02 0.  0.
        -11    1    3    3    0    0 -0.96682674351E+01 -0.40375185410E+02 -0.46726720555E+02  0.62506138946E+02  0.00000000000E+00 0.  1.
         11    1    3    3    0    0  0.96682674351E+01  0.40375185410E+02 -0.11877499542E+03  0.12582182056E+03  0.00000000000E+00 0. -1.
<mgrwt>
<rscale>  0 0.89869919E+02</rscale>
<asrwt>0</asrwt>
<pdfrwt beam="1">  1        1 0.17558649E-02 0.89869919E+02</pdfrwt>
<pdfrwt beam="2">  1       -1 0.27217667E-01 0.89869919E+02</pdfrwt>
<totfact> 0.74540734E+04</totfact>
</mgrwt>
</event>
<event>
 5    1  0.6004828E+000  0.8974025E+02  0.7546771E-02  0.1303482E+00
         -1   -1    0    0    0  501 -0.00000000000E+00  0.00000000000E+00  0.14549465017E+03  0.14549465017E+03  0.00000000000E+00 0.  1.
          1   -1    0    0  501    0  0.00000000000E+00 -0.00000000000E+00 -0.13837815085E+02  0.13837815085E+02  0.00000000000E+00 0. -1.
         23    2    1    2    0    0  0.00000000000E+00  0.00000000000E+00  0.13165683508E+03  0.15933246525E+03  0.89740248827E+02 0.  0.
        -11    1    3    3    0    0 -0.14550313602E+02  0.19458254298E+02 -0.11474510330E+01  0.24323896277E+02  0.00000000000E+00 0. -1.
         11    1    3    3    0    0  0.14550313602E+02 -0.19458254298E+02  0.13280428611E+03  0.13500856898E+03  0.00000000000E+00 0.  1.
<mgrwt>
<rscale>  0 0.89740249E+02</rscale>
<asrwt>0</asrwt>
<pdfrwt beam="2">  1        1 0.21288947E-02 0.89740249E+02</pdfrwt>
<pdfrwt beam="1">  1       -1 0.22383791E-01 0.89740249E+02</pdfrwt>
<totfact> 0.78483573E+04</totfact>
</mgrwt>
</event>
<event>
 5    1  0.6004828E+000  0.9242844E+02  0.7546771E-02  0.1297075E+00
          4   -1    0    0  501    0  0.00000000000E+00  0.00000000000E+00  0.19440899816E+03  0.19440899816E+03  0.00000000000E+00 0.  1.
         -4   -1    0    0    0  501 -0.00000000000E+00 -0.00000000000E+00 -0.10985881856E+02  0.10985881856E+02  0.00000000000E+00 0. -1.
         23    2    1    2    0    0  0.00000000000E+00  0.00000000000E+00  0.18342311630E+03  0.20539488001E+03  0.92428443362E+02 0.  0.
        -11    1    3    3    0    0  0.72815879117E+01 -0.35045939464E+02  0.15667122546E+03  0.16070815873E+03  0.00000000000E+00 0.  1.
         11    1    3    3    0    0 -0.72815879117E+01  0.35045939464E+02  0.26751890838E+02  0.44686721280E+02  0.00000000000E+00 0. -1.
<mgrwt>
<rscale>  0 0.92428443E+02</rscale>
<asrwt>0</asrwt>
<pdfrwt beam="1">  1        4 0.29909074E-01 0.92428443E+02</pdfrwt>
<pdfrwt beam="2">  1       -4 0.16901358E-02 0.92428443E+02</pdfrwt>
<totfact> 0.20402790E+04</totfact>
</mgrwt>
</event>
<event>
 5    1  0.6004828E+000  0.8744955E+02  0.7546771E-02  0.1309148E+00
         -4   -1    0    0    0  501 -0.00000000000E+00  0.00000000000E+00  0.64998745161E+02  0.64998745161E+02  0.00000000000E+00 0. -1.
          4   -1    0    0  501    0  0.00000000000E+00 -0.00000000000E+00 -0.29413734244E+02  0.29413734244E+02  0.00000000000E+00 0.  1.
         23    2    1    2    0    0  0.00000000000E+00  0.00000000000E+00  0.35585010917E+02  0.94412479405E+02  0.87449546971E+02 0.  0.
        -11    1    3    3    0    0  0.20822068076E+02  0.15668748509E+02 -0.20114193894E+02  0.32918824323E+02  0.00000000000E+00 0.  1.
         11    1    3    3    0    0 -0.20822068076E+02 -0.15668748509E+02  0.55699204811E+02  0.61493655082E+02  0.00000000000E+00 0. -1.
<mgrwt>
<rscale>  0 0.87449547E+02</rscale>
<asrwt>0</asrwt>
<pdfrwt beam="2">  1        4 0.45251899E-02 0.87449547E+02</pdfrwt>
<pdfrwt beam="1">  1       -4 0.99998069E-02 0.87449547E+02</pdfrwt>
<totfact> 0.30007259E+04</totfact>
</mgrwt>
</event>
<event>
 5    1  0.6004828E+000  0.9065893E+02  0.7546771E-02  0.1301264E+00
          3   -1    0    0  501    0  0.00000000000E+00  0.00000000000E+00  0.29357251654E+02  0.29357251654E+02  0.00000000000E+00 0. -1.
         -3   -1    0    0    0  501 -0.00000000000E+00 -0.00000000000E+00 -0.69991579904E+02  0.69991579904E+02  0.00000000000E+00 0.  1.
         23    2    1    2    0    0  0.00000000000E+00  0.00000000000E+00 -0.40634328250E+02  0.99348831558E+02  0.90658930612E+02 0.  0.
        -11    1    3    3    0    0  0.35096353307E+02  0.23133283620E+02 -0.38909802428E+02  0.57278927639E+02  0.00000000000E+00 0.  1.
         11    1    3    3    0    0 -0.35096353307E+02 -0.23133283620E+02 -0.17245258217E+01  0.42069903919E+02  0.00000000000E+00 0. -1.
<mgrwt>
<rscale>  0 0.90658931E+02</rscale>
<asrwt>0</asrwt>
<pdfrwt beam="1">  1        3 0.45165003E-02 0.90658931E+02</pdfrwt>
<pdfrwt beam="2">  1       -3 0.10767935E-01 0.90658931E+02</pdfrwt>
<totfact> 0.35262665E+04</totfact>
</mgrwt>
</event>
<event>
 5    1  0.6004828E+000  0.9428660E+02  0.7546771E-02  0.1292791E+00
          2   -1    0    0  501    0  0.00000000000E+00  0.00000000000E+00  0.48150351265E+02  0.48150351265E+02  0.00000000000E+00 0.  1.
         -2   -1    0    0    0  501 -0.00000000000E+00 -0.00000000000E+00 -0.46157306392E+02  0.46157306392E+02  0.00000000000E+00 0. -1.
         23    2    1    2    0    0  0.00000000000E+00  0.00000000000E+00  0.19930448724E+01  0.94307657657E+02  0.94286595362E+02 0.  0.
        -11    1    3    3    0    0 -0.36257846424E+02  0.20825126998E+01 -0.29068838748E+02  0.46518444434E+02  0.00000000000E+00 0. -1.
         11    1    3    3    0    0  0.36257846424E+02 -0.20825126998E+01  0.31061883620E+02  0.47789213223E+02  0.00000000000E+00 0.  1.
<mgrwt>
<rscale>  0 0.94286595E+02</rscale>
<asrwt>0</asrwt>
<pdfrwt beam="1">  1        2 0.74077464E-02 0.94286595E+02</pdfrwt>
<pdfrwt beam="2">  1       -2 0.71011240E-02 0.94286595E+02</pdfrwt>
<totfact> 0.90898391E+04</totfact>
</mgrwt>
</event>
<event>
 5    1  0.6004828E+000  0.9160133E+02  0.7546771E-02  0.1299020E+00
         -3   -1    0    0    0  501 -0.00000000000E+00  0.00000000000E+00  0.13206001674E+03  0.13206001674E+03  0.00000000000E+00 0.  1.
          3   -1    0    0  501    0  0.00000000000E+00 -0.00000000000E+00 -0.15884451039E+02  0.15884451039E+02  0.00000000000E+00 0. -1.
         23    2    1    2    0    0  0.00000000000E+00  0.00000000000E+00  0.11617556570E+03  0.14794446778E+03  0.91601329034E+02 0.  0.
        -11    1    3    3    0    0 -0.43816839014E+02 -0.98926917082E+01  0.72526382430E+02  0.85310356222E+02  0.00000000000E+00 0.  1.
         11    1    3    3    0    0  0.43816839014E+02  0.98926917082E+01  0.43649183273E+02  0.62634111559E+02  0.00000000000E+00 0. -1.
<mgrwt>
<rscale>  0 0.91601329E+02</rscale>
<asrwt>0</asrwt>
<pdfrwt beam="2">  1        3 0.24437618E-02 0.91601329E+02</pdfrwt>
<pdfrwt beam="1">  1       -3 0.20316925E-01 0.91601329E+02</pdfrwt>
<totfact> 0.31040662E+04</totfact>
</mgrwt>
</event>
<event>
 5    1  0.6004828E+000  0.9161342E+02  0.7546771E-02  0.1298991E+00
         -1   -1    0    0    0  501 -0.00000000000E+00  0.00000000000E+00  0.34125450611E+02  0.34125450611E+02  0.00000000000E+00 0.  1.
          1   -1    0    0  501    0  0.00000000000E+00 -0.00000000000E+00 -0.61486502767E+02  0.61486502767E+02  0.00000000000E+00 0. -1.
         23    2    1    2    0    0  0.00000000000E+00  0.00000000000E+00 -0.27361052156E+02  0.95611953378E+02  0.91613418524E+02 0.  0.
        -11    1    3    3    0    0  0.20130017648E+02  0.23308581410E+02 -0.49068382070E+02  0.57932837811E+02  0.00000000000E+00 0. -1.
         11    1    3    3    0    0 -0.20130017648E+02 -0.23308581410E+02  0.21707329914E+02  0.37679115566E+02  0.00000000000E+00 0.  1.
<mgrwt>
<rscale>  0 0.91613419E+02</rscale>
<asrwt>0</asrwt>
<pdfrwt beam="2">  1        1 0.94594620E-02 0.91613419E+02</pdfrwt>
<pdfrwt beam="1">  1       -1 0.52500693E-02 0.91613419E+02</pdfrwt>
<totfact> 0.95455588E+04</totfact>
</mgrwt>
</event>
<event>
 5    1  0.6004828E+000  0.9252531E+02  0.7546771E-02  0.1296849E+00
         -4   -1    0    0    0  501 -0.00000000000E+00  0.00000000000E+00  0.15206877351E+02  0.15206877351E+02  0.00000000000E+00 0.  1.
          4   -1    0    0  501    0  0.00000000000E+00 -0.00000000000E+00 -0.14074113488E+03  0.14074113488E+03  0.00000000000E+00 0. -1.
         23    2    1    2    0    0  0.00000000000E+00  0.00000000000E+00 -0.12553425753E+03  0.15594801223E+03  0.92525308460E+02 0.  0.
        -11    1    3    3    0    0  0.10584096191E+02  0.40968086080E+02 -0.31242836270E+02  0.52597737475E+02  0.00000000000E+00 0.  1.
         11    1    3    3    0    0 -0.10584096191E+02 -0.40968086080E+02 -0.94291421260E+02  0.10335027476E+03  0.00000000000E+00 0. -1.
<mgrwt>
<rscale>  0 0.92525308E+02</rscale>
<asrwt>0</asrwt>
<pdfrwt beam="2">  1        4 0.21652482E-01 0.92525308E+02</pdfrwt>
<pdfrwt beam="1">  1       -4 0.23395196E-02 0.92525308E+02</pdfrwt>
<totfact> 0.22470590E+04</totfact>
</mgrwt>
</event>
<event>
 5    1  0.6004828E+000  0.9260277E+02  0.7546771E-02  0.1296668E+00
          3   -1    0    0  501    0  0.00000000000E+00  0.00000000000E+00  0.30973878272E+02  0.30973878272E+02  0.00000000000E+00 0. -1.
         -3   -1    0    0    0  501 -0.00000000000E+00 -0.00000000000E+00 -0.69213756080E+02  0.69213756080E+02  0.00000000000E+00 0.  1.
         23    2    1    2    0    0  0.00000000000E+00  0.00000000000E+00 -0.38239877808E+02  0.10018763435E+03  0.92602774377E+02 0.  0.
        -11    1    3    3    0    0 -0.23426183455E+02 -0.10057954564E+02 -0.60936326936E+02  0.66054405317E+02  0.00000000000E+00 0.  1.
         11    1    3    3    0    0  0.23426183455E+02  0.10057954564E+02  0.22696449129E+02  0.34133229035E+02  0.00000000000E+00 0. -1.
<mgrwt>
<rscale>  0 0.92602774E+02</rscale>
<asrwt>0</asrwt>
<pdfrwt beam="1">  1        3 0.47652121E-02 0.92602774E+02</pdfrwt>
<pdfrwt beam="2">  1       -3 0.10648270E-01 0.92602774E+02</pdfrwt>
<totfact> 0.33221341E+04</totfact>
</mgrwt>
</event>
<event>
 5    1  0.6004828E+000  0.7508645E+02  0.7546771E-02  0.1343604E+00
         -1   -1    0    0    0  501 -0.00000000000E+00  0.00000000000E+00  0.72837751862E+02  0.72837751862E+02  0.00000000000E+00 0.  1.
          1   -1    0    0  501    0  0.00000000000E+00 -0.00000000000E+00 -0.19351141160E+02  0.19351141160E+02  0.00000000000E+00 0. -1.
         23    2    1    2    0    0  0.00000000000E+00  0.00000000000E+00  0.53486610702E+02  0.92188893022E+02  0.75086446662E+02 0.  0.
        -11    1    3    3    0    0 -0.33978034949E+02 -0.93461203035E+00  0.71715079731E+01  0.34739183716E+02  0.00000000000E+00 0. -1.
         11    1    3    3    0    0  0.33978034949E+02  0.93461203035E+00  0.46315102729E+02  0.57449709307E+02  0.00000000000E+00 0.  1.
<mgrwt>
<rscale>  0 0.75086447E+02</rscale>
<asrwt>0</asrwt>
<pdfrwt beam="2">  1        1 0.29770987E-02 0.75086447E+02</pdfrwt>
<pdfrwt beam="1">  1       -1 0.11205808E-01 0.75086447E+02</pdfrwt>
<totfact> 0.14094355E+05</totfact>
</mgrwt>
</event>
<event>
 5    1  0.6004828E+000  0.9122872E+02  0.7546771E-02  0.1299903E+00
         -4   -1    0    0    0  501 -0.00000000000E+00  0.00000000000E+00  0.98793032822E+02  0.98793032822E+02  0.00000000000E+00 0.  1.
          4   -1    0    0  501    0  0.00000000000E+00 -0.00000000000E+00 -0.21060898603E+02  0.21060898603E+02  0.00000000000E+00 0. -1.
         23    2    1    2    0    0  0.00000000000E+00  0.00000000000E+00  0.77732134219E+02  0.11985393142E+03  0.91228724576E+02 0.  0.
        -11    1    3    3    0    0  0.29439174092E+02 -0.32543343572E+02  0.22513096307E+02  0.49321128205E+02  0.00000000000E+00 0. -1.
         11    1    3    3    0    0 -0.29439174092E+02  0.32543343572E+02  0.55219037913E+02  0.70532803220E+02  0.00000000000E+00 0.  1.
<mgrwt>
<rscale>  0 0.91228725E+02</rscale>
<asrwt>0</asrwt>
<pdfrwt beam="2">  1        4 0.32401383E-02 0.91228725E+02</pdfrwt>
<pdfrwt beam="1">  1       -4 0.15198928E-01 0.91228725E+02</pdfrwt>
<totfact> 0.25242084E+04</totfact>
</mgrwt>
</event>
<event>
 5    1  0.6004828E+000  0.9189898E+02  0.7546771E-02  0.1298317E+00
         -3   -1    0    0    0  501 -0.00000000000E+00  0.00000000000E+00  0.78496096110E+01  0.78496096110E+01  0.00000000000E+00 0.  1.
          3   -1    0    0  501    0  0.00000000000E+00 -0.00000000000E+00 -0.26897590144E+03  0.26897590144E+03  0.00000000000E+00 0. -1.
         23    2    1    2    0    0  0.00000000000E+00  0.00000000000E+00 -0.26112629183E+03  0.27682551105E+03  0.91898984131E+02 0.  0.
        -11    1    3    3    0    0  0.19496633889E+02 -0.32484400585E+02 -0.20888248372E+03  0.21229047793E+03  0.00000000000E+00 0. -1.
         11    1    3    3    0    0 -0.19496633889E+02  0.32484400585E+02 -0.52243808110E+02  0.64535033123E+02  0.00000000000E+00 0.  1.
<mgrwt>
<rscale>  0 0.91898984E+02</rscale>
<asrwt>0</asrwt>
<pdfrwt beam="2">  1        3 0.41380906E-01 0.91898984E+02</pdfrwt>
<pdfrwt beam="1">  1       -3 0.12076323E-02 0.91898984E+02</pdfrwt>
<totfact> 0.24432085E+04</totfact>
</mgrwt>
</event>
<event>
 5    1  0.6004828E+000  0.8865014E+02  0.7546771E-02  0.1306154E+00
          2   -1    0    0  501    0  0.00000000000E+00  0.00000000000E+00  0.42457421165E+02  0.42457421165E+02  0.00000000000E+00 0. -1.
         -2   -1    0    0    0  501 -0.00000000000E+00 -0.00000000000E+00 -0.46274874894E+02  0.46274874894E+02  0.00000000000E+00 0.  1.
         23    2    1    2    0    0  0.00000000000E+00  0.00000000000E+00 -0.38174537295E+01  0.88732296059E+02  0.88650140501E+02 0.  0.
        -11    1    3    3    0    0 -0.10845227172E+02  0.71402202489E+01 -0.44328542387E+02  0.46191139494E+02  0.00000000000E+00 0.  1.
         11    1    3    3    0    0  0.10845227172E+02 -0.71402202489E+01  0.40511088658E+02  0.42541156564E+02  0.00000000000E+00 0. -1.
<mgrwt>
<rscale>  0 0.88650141E+02</rscale>
<asrwt>0</asrwt>
<pdfrwt beam="1">  1        2 0.65319109E-02 0.88650141E+02</pdfrwt>
<pdfrwt beam="2">  1       -2 0.71192116E-02 0.88650141E+02</pdfrwt>
<totfact> 0.10501830E+05</totfact>
</mgrwt>
</event>
<event>
 5    1  0.6004828E+000  0.8959358E+02  0.7546771E-02  0.1303839E+00
          1   -1    0    0  501    0  0.00000000000E+00  0.00000000000E+00  0.29431124725E+02  0.29431124725E+02  0.00000000000E+00 0. -1.
         -1   -1    0    0    0  501 -0.00000000000E+00 -0.00000000000E+00 -0.68184700061E+02  0.68184700061E+02  0.00000000000E+00 0.  1.
         23    2    1    2    0    0  0.00000000000E+00  0.00000000000E+00 -0.38753575336E+02  0.97615824786E+02  0.89593580391E+02 0.  0.
        -11    1    3    3    0    0  0.38533728376E+01 -0.35883144450E+02 -0.48291799494E+02  0.60287199605E+02  0.00000000000E+00 0.  1.
         11    1    3    3    0    0 -0.38533728376E+01  0.35883144450E+02  0.95382241574E+01  0.37328625181E+02  0.00000000000E+00 0. -1.
<mgrwt>
<rscale>  0 0.89593580E+02</rscale>
<asrwt>0</asrwt>
<pdfrwt beam="1">  1        1 0.45278654E-02 0.89593580E+02</pdfrwt>
<pdfrwt beam="2">  1       -1 0.10489954E-01 0.89593580E+02</pdfrwt>
<totfact> 0.90867846E+04</totfact>
</mgrwt>
</event>
<event>
 5    1  0.6004828E+000  0.9090607E+02  0.7546771E-02  0.1300672E+00
         -3   -1    0    0    0  501 -0.00000000000E+00  0.00000000000E+00  0.62746674737E+02  0.62746674737E+02  0.00000000000E+00 0.  1.
          3   -1    0    0  501    0  0.00000000000E+00 -0.00000000000E+00 -0.32925705552E+02  0.32925705552E+02  0.00000000000E+00 0. -1.
         23    2    1    2    0    0  0.00000000000E+00  0.00000000000E+00  0.29820969185E+02  0.95672380290E+02  0.90906073214E+02 0.  0.
        -11    1    3    3    0    0 -0.12344258882E+02  0.46901464365E+01 -0.30862409449E+02  0.33568832538E+02  0.00000000000E+00 0. -1.
         11    1    3    3    0    0  0.12344258882E+02 -0.46901464365E+01  0.60683378634E+02  0.62103547752E+02  0.00000000000E+00 0.  1.
<mgrwt>
<rscale>  0 0.90906073E+02</rscale>
<asrwt>0</asrwt>
<pdfrwt beam="2">  1        3 0.50654932E-02 0.90906073E+02</pdfrwt>
<pdfrwt beam="1">  1       -3 0.96533346E-02 0.90906073E+02</pdfrwt>
<totfact> 0.35280832E+04</totfact>
</mgrwt>
</event>
<event>
 5    1  0.6004828E+000  0.9193688E+02  0.7546771E-02  0.1298228E+00
         -1   -1    0    0    0  501 -0.00000000000E+00  0.00000000000E+00  0.16208306131E+02  0.16208306131E+02  0.00000000000E+00 0.  1.
          1   -1    0    0  501    0  0.00000000000E+00 -0.00000000000E+00 -0.13037128156E+03  0.13037128156E+03  0.00000000000E+00 0. -1.
         23    2    1    2    0    0  0.00000000000E+00  0.00000000000E+00 -0.11416297543E+03  0.14657958769E+03  0.91936883618E+02 0.  0.
        -11    1    3    3    0    0 -0.43849466838E+02 -0.84590971864E+01 -0.39706319994E+02  0.59757208056E+02  0.00000000000E+00 0. -1.
         11    1    3    3    0    0  0.43849466838E+02  0.84590971864E+01 -0.74456655437E+02  0.86822379638E+02  0.00000000000E+00 0.  1.
<mgrwt>
<rscale>  0 0.91936884E+02</rscale>
<asrwt>0</asrwt>
<pdfrwt beam="2">  1        1 0.20057120E-01 0.91936884E+02</pdfrwt>
<pdfrwt beam="1">  1       -1 0.24935856E-02 0.91936884E+02</pdfrwt>
<totfact> 0.10689038E+05</totfact>
</mgrwt>
</event>
<event>
 5    1  0.6004828E+000  0.8862485E+02  0.7546771E-02  0.1306216E+00
          2   -1    0    0  501    0  0.00000000000E+00  0.00000000000E+00  0.21965225155E+03  0.21965225155E+03  0.00000000000E+00 0. -1.
         -2   -1    0    0    0  501 -0.00000000000E+00 -0.00000000000E+00 -0.89395442126E+01  0.89395442126E+01  0.00000000000E+00 0.  1.
         23    2    1    2    0    0  0.00000000000E+00  0.00000000000E+00  0.21071270733E+03  0.22859179576E+03  0.88624850107E+02 0.  0.
        -11    1    3    3    0    0  0.76379624290E+00 -0.33831298809E+02  0.17914701928E+03  0.18231509724E+03  0.00000000000E+00 0. -1.
         11    1    3    3    0    0 -0.76379624290E+00  0.33831298809E+02  0.31565688056E+02  0.46276698524E+02  0.00000000000E+00 0.  1.
<mgrwt>
<rscale>  0 0.88624850E+02</rscale>
<asrwt>0</asrwt>
<pdfrwt beam="1">  1        2 0.33792650E-01 0.88624850E+02</pdfrwt>
<pdfrwt beam="2">  1       -2 0.13753147E-02 0.88624850E+02</pdfrwt>
<totfact> 0.17269931E+05</totfact>
</mgrwt>
</event>
<event>
 5    1  0.6004828E+000  0.9092223E+02  0.7546771E-02  0.1300634E+00
          3   -1    0    0  501    0  0.00000000000E+00  0.00000000000E+00  0.12547137790E+03  0.12547137790E+03  0.00000000000E+00 0. -1.
         -3   -1    0    0    0  501 -0.00000000000E+00 -0.00000000000E+00 -0.16471589103E+02  0.16471589103E+02  0.00000000000E+00 0.  1.
         23    2    1    2    0    0  0.00000000000E+00  0.00000000000E+00  0.10899978880E+03  0.14194296700E+03  0.90922230087E+02 0.  0.
        -11    1    3    3    0    0  0.13911460951E+02 -0.42549294454E+02  0.42134094745E+02  0.61475630491E+02  0.00000000000E+00 0.  1.
         11    1    3    3    0    0 -0.13911460951E+02  0.42549294454E+02  0.66865694054E+02  0.80467336514E+02  0.00000000000E+00 0. -1.
<mgrwt>
<rscale>  0 0.90922230E+02</rscale>
<asrwt>0</asrwt>
<pdfrwt beam="1">  1        3 0.19303288E-01 0.90922230E+02</pdfrwt>
<pdfrwt beam="2">  1       -3 0.25340907E-02 0.90922230E+02</pdfrwt>
<totfact> 0.32049224E+04</totfact>
</mgrwt>
</event>
<event>
 5    1  0.6004828E+000  0.9158176E+02  0.7546771E-02  0.1299066E+00
          1   -1    0    0  501    0  0.00000000000E+00  0.00000000000E+00  0.47391729054E+02  0.47391729054E+02  0.00000000000E+00 0. -1.
         -1   -1    0    0    0  501 -0.00000000000E+00 -0.00000000000E+00 -0.44244103652E+02  0.44244103652E+02  0.00000000000E+00 0.  1.
         23    2    1    2    0    0  0.00000000000E+00  0.00000000000E+00  0.31476254022E+01  0.91635832706E+02  0.91581757409E+02 0.  0.
        -11    1    3    3    0    0  0.10187690810E+02  0.22750976716E+02 -0.36859915178E+02  0.44497745252E+02  0.00000000000E+00 0.  1.
         11    1    3    3    0    0 -0.10187690810E+02 -0.22750976716E+02  0.40007540580E+02  0.47138087454E+02  0.00000000000E+00 0. -1.
<mgrwt>
<rscale>  0 0.91581757E+02</rscale>
<asrwt>0</asrwt>
<pdfrwt beam="1">  1        1 0.72910352E-02 0.91581757E+02</pdfrwt>
<pdfrwt beam="2">  1       -1 0.68067852E-02 0.91581757E+02</pdfrwt>
<totfact> 0.91863620E+04</totfact>
</mgrwt>
</event>
<event>
 5    1  0.6004828E+000  0.8970682E+02  0.7546771E-02  0.1303563E+00
         -1   -1    0    0    0  501 -0.00000000000E+00  0.00000000000E+00  0.14339438297E+03  0.14339438297E+03  0.00000000000E+00 0.  1.
          1   -1    0    0  501    0  0.00000000000E+00 -0.00000000000E+00 -0.14030035398E+02  0.14030035398E+02  0.00000000000E+00 0. -1.
         23    2    1    2    0    0  0.00000000000E+00  0.00000000000E+00  0.12936434757E+03  0.15742441837E+03  0.89706817331E+02 0.  0.
        -11    1    3    3    0    0  0.33109892637E+02 -0.30017737193E+02  0.71364253688E+02  0.84203243649E+02  0.00000000000E+00 0. -1.
         11    1    3    3    0    0 -0.33109892637E+02  0.30017737193E+02  0.58000093885E+02  0.73221174720E+02  0.00000000000E+00 0.  1.
<mgrwt>
<rscale>  0 0.89706817E+02</rscale>
<asrwt>0</asrwt>
<pdfrwt beam="2">  1        1 0.21584671E-02 0.89706817E+02</pdfrwt>
<pdfrwt beam="1">  1       -1 0.22060673E-01 0.89706817E+02</pdfrwt>
<totfact> 0.78820131E+04</totfact>
</mgrwt>
</event>
<event>
 5    1  0.6004828E+000  0.9032231E+02  0.7546771E-02  0.1302073E+00
         -3   -1    0    0    0  501 -0.00000000000E+00  0.00000000000E+00  0.22116768540E+03  0.22116768540E+03  0.00000000000E+00 0.  1.
          3   -1    0    0  501    0  0.00000000000E+00 -0.00000000000E+00 -0.92216443539E+01  0.92216443539E+01  0.00000000000E+00 0. -1.
         23    2    1    2    0    0  0.00000000000E+00  0.00000000000E+00  0.21194604105E+03  0.23038932975E+03  0.90322305935E+02 0.  0.
        -11    1    3    3    0    0  0.44775864377E+02 -0.33662085453E+01  0.11829086867E+03  0.12652643598E+03  0.00000000000E+00 0.  1.
         11    1    3    3    0    0 -0.44775864377E+02  0.33662085453E+01  0.93655172379E+02  0.10386289378E+03  0.00000000000E+00 0. -1.
<mgrwt>
<rscale>  0 0.90322306E+02</rscale>
<asrwt>0</asrwt>
<pdfrwt beam="2">  1        3 0.14187147E-02 0.90322306E+02</pdfrwt>
<pdfrwt beam="1">  1       -3 0.34025794E-01 0.90322306E+02</pdfrwt>
<totfact> 0.27689348E+04</totfact>
</mgrwt>
</event>
<event>
 5    1  0.6004828E+000  0.9065675E+02  0.7546771E-02  0.1301269E+00
         -1   -1    0    0    0  501 -0.00000000000E+00  0.00000000000E+00  0.52164215814E+01  0.52164215814E+01  0.00000000000E+00 0.  1.
          1   -1    0    0  501    0  0.00000000000E+00 -0.00000000000E+00 -0.39388335881E+03  0.39388335881E+03  0.00000000000E+00 0. -1.
         23    2    1    2    0    0  0.00000000000E+00  0.00000000000E+00 -0.38866693723E+03  0.39909978040E+03  0.90656751618E+02 0.  0.
        -11    1    3    3    0    0 -0.11959581079E+02 -0.43643249887E+02 -0.20589473924E+03  0.21080893835E+03  0.00000000000E+00 0. -1.
         11    1    3    3    0    0  0.11959581079E+02  0.43643249887E+02 -0.18277219799E+03  0.18829084205E+03  0.00000000000E+00 0.  1.
<mgrwt>
<rscale>  0 0.90656752E+02</rscale>
<asrwt>0</asrwt>
<pdfrwt beam="2">  1        1 0.60597452E-01 0.90656752E+02</pdfrwt>
<pdfrwt beam="1">  1       -1 0.80252623E-03 0.90656752E+02</pdfrwt>
<totfact> 0.13660785E+05</totfact>
</mgrwt>
</event>
<event>
 5    1  0.6004828E+000  0.1068040E+03  0.7546771E-02  0.1266606E+00
          2   -1    0    0  501    0  0.00000000000E+00  0.00000000000E+00  0.34778377343E+02  0.34778377343E+02  0.00000000000E+00 0. -1.
         -2   -1    0    0    0  501 -0.00000000000E+00 -0.00000000000E+00 -0.81998412453E+02  0.81998412453E+02  0.00000000000E+00 0.  1.
         23    2    1    2    0    0  0.00000000000E+00  0.00000000000E+00 -0.47220035110E+02  0.11677678980E+03  0.10680396490E+03 0.  0.
        -11    1    3    3    0    0 -0.46137610933E+02  0.57654617222E+01  0.51075157114E+01  0.46776130753E+02  0.00000000000E+00 0. -1.
         11    1    3    3    0    0  0.46137610933E+02 -0.57654617222E+01 -0.52327550822E+02  0.70000659043E+02  0.00000000000E+00 0.  1.
<mgrwt>
<rscale>  0 0.10680396E+03</rscale>
<asrwt>0</asrwt>
<pdfrwt beam="1">  1        2 0.53505196E-02 0.10680396E+03</pdfrwt>
<pdfrwt beam="2">  1       -2 0.12615140E-01 0.10680396E+03</pdfrwt>
<totfact> 0.57334759E+04</totfact>
</mgrwt>
</event>
<event>
 5    1  0.6004828E+000  0.9486556E+02  0.7546771E-02  0.1291479E+00
          2   -1    0    0  501    0  0.00000000000E+00  0.00000000000E+00  0.19821894985E+02  0.19821894985E+02  0.00000000000E+00 0. -1.
         -2   -1    0    0    0  501 -0.00000000000E+00 -0.00000000000E+00 -0.11350421157E+03  0.11350421157E+03  0.00000000000E+00 0.  1.
         23    2    1    2    0    0  0.00000000000E+00  0.00000000000E+00 -0.93682316589E+02  0.13332610656E+03  0.94865558813E+02 0.  0.
        -11    1    3    3    0    0  0.23198129643E+02 -0.40273463350E+02 -0.33525688313E+02  0.57306865610E+02  0.00000000000E+00 0.  1.
         11    1    3    3    0    0 -0.23198129643E+02  0.40273463350E+02 -0.60156628276E+02  0.76019240950E+02  0.00000000000E+00 0. -1.
<mgrwt>
<rscale>  0 0.94865559E+02</rscale>
<asrwt>0</asrwt>
<pdfrwt beam="1">  1        2 0.30495223E-02 0.94865559E+02</pdfrwt>
<pdfrwt beam="2">  1       -2 0.17462186E-01 0.94865559E+02</pdfrwt>
<totfact> 0.69507638E+04</totfact>
</mgrwt>
</event>
<event>
 5    1  0.6004828E+000  0.9094155E+02  0.7546771E-02  0.1300587E+00
         -2   -1    0    0    0  501 -0.00000000000E+00  0.00000000000E+00  0.88122934784E+01  0.88122934784E+01  0.00000000000E+00 0.  1.
          2   -1    0    0  501    0  0.00000000000E+00 -0.00000000000E+00 -0.23462580716E+03  0.23462580716E+03  0.00000000000E+00 0. -1.
         23    2    1    2    0    0  0.00000000000E+00  0.00000000000E+00 -0.22581351369E+03  0.24343810064E+03  0.90941552007E+02 0.  0.
        -11    1    3    3    0    0 -0.22513018232E+02  0.38317656655E+02 -0.13865376641E+03  0.14560201146E+03  0.00000000000E+00 0.  1.
         11    1    3    3    0    0  0.22513018232E+02 -0.38317656655E+02 -0.87159747271E+02  0.97836089179E+02  0.00000000000E+00 0. -1.
<mgrwt>
<rscale>  0 0.90941552E+02</rscale>
<asrwt>0</asrwt>
<pdfrwt beam="2">  1        2 0.36096280E-01 0.90941552E+02</pdfrwt>
<pdfrwt beam="1">  1       -2 0.13557374E-02 0.90941552E+02</pdfrwt>
<totfact> 0.16511219E+05</totfact>
</mgrwt>
</event>
<event>
 5    1  0.6004828E+000  0.9027189E+02  0.7546771E-02  0.1302195E+00
          1   -1    0    0  501    0  0.00000000000E+00  0.00000000000E+00  0.18611292688E+02  0.18611292688E+02  0.00000000000E+00 0. -1.
         -1   -1    0    0    0  501 -0.00000000000E+00 -0.00000000000E+00 -0.10946330130E+03  0.10946330130E+03  0.00000000000E+00 0.  1.
         23    2    1    2    0    0  0.00000000000E+00  0.00000000000E+00 -0.90852008616E+02  0.12807459399E+03  0.90271890181E+02 0.  0.
        -11    1    3    3    0    0  0.22735453240E+02 -0.21686902836E+02 -0.91399920721E+02  0.96649718554E+02  0.00000000000E+00 0.  1.
         11    1    3    3    0    0 -0.22735453240E+02  0.21686902836E+02  0.54791210550E+00  0.31424875439E+02  0.00000000000E+00 0. -1.
<mgrwt>
<rscale>  0 0.90271890E+02</rscale>
<asrwt>0</asrwt>
<pdfrwt beam="1">  1        1 0.28632758E-02 0.90271890E+02</pdfrwt>
<pdfrwt beam="2">  1       -1 0.16840508E-01 0.90271890E+02</pdfrwt>
<totfact> 0.82066956E+04</totfact>
</mgrwt>
</event>
<event>
 5    1  0.6004828E+000  0.9152288E+02  0.7546771E-02  0.1299205E+00
         -3   -1    0    0    0  501 -0.00000000000E+00  0.00000000000E+00  0.33457611293E+02  0.33457611293E+02  0.00000000000E+00 0.  1.
          3   -1    0    0  501    0  0.00000000000E+00 -0.00000000000E+00 -0.62589918768E+02  0.62589918768E+02  0.00000000000E+00 0. -1.
         23    2    1    2    0    0  0.00000000000E+00  0.00000000000E+00 -0.29132307475E+02  0.96047530061E+02  0.91522875239E+02 0.  0.
        -11    1    3    3    0    0 -0.31470863382E+02 -0.32566333254E+02 -0.21457999475E+02  0.50114140171E+02  0.00000000000E+00 0. -1.
         11    1    3    3    0    0  0.31470863382E+02  0.32566333254E+02 -0.76743079997E+01  0.45933389891E+02  0.00000000000E+00 0.  1.
<mgrwt>
<rscale>  0 0.91522875E+02</rscale>
<asrwt>0</asrwt>
<pdfrwt beam="2">  1        3 0.96292183E-02 0.91522875E+02</pdfrwt>
<pdfrwt beam="1">  1       -3 0.51473248E-02 0.91522875E+02</pdfrwt>
<totfact> 0.34607434E+04</totfact>
</mgrwt>
</event>
<event>
 5    1  0.6004828E+000  0.8273678E+02  0.7546771E-02  0.1321459E+00
          2   -1    0    0  501    0  0.00000000000E+00  0.00000000000E+00  0.24063916855E+03  0.24063916855E+03  0.00000000000E+00 0. -1.
         -2   -1    0    0    0  501 -0.00000000000E+00 -0.00000000000E+00 -0.71116582922E+01  0.71116582922E+01  0.00000000000E+00 0.  1.
         23    2    1    2    0    0  0.00000000000E+00  0.00000000000E+00  0.23352751026E+03  0.24775082685E+03  0.82736776308E+02 0.  0.
        -11    1    3    3    0    0 -0.31777101477E+02  0.99000207948E+01  0.43198496525E+02  0.54533518977E+02  0.00000000000E+00 0.  1.
         11    1    3    3    0    0  0.31777101477E+02 -0.99000207948E+01  0.19032901374E+03  0.19321730787E+03  0.00000000000E+00 0. -1.
<mgrwt>
<rscale>  0 0.82736776E+02</rscale>
<asrwt>0</asrwt>
<pdfrwt beam="1">  1        2 0.37021404E-01 0.82736776E+02</pdfrwt>
<pdfrwt beam="2">  1       -2 0.10941015E-02 0.82736776E+02</pdfrwt>
<totfact> 0.21439360E+05</totfact>
</mgrwt>
</event>
<event>
 5    1  0.6004828E+000  0.9003861E+02  0.7546771E-02  0.1302758E+00
         -2   -1    0    0    0  501 -0.00000000000E+00  0.00000000000E+00  0.25582536575E+02  0.25582536575E+02  0.00000000000E+00 0.  1.
          2   -1    0    0  501    0  0.00000000000E+00 -0.00000000000E+00 -0.79223481306E+02  0.79223481306E+02  0.00000000000E+00 0. -1.
         23    2    1    2    0    0  0.00000000000E+00  0.00000000000E+00 -0.53640944731E+02  0.10480601788E+03  0.90038605234E+02 0.  0.
        -11    1    3    3    0    0 -0.15161318036E+02 -0.11870604911E+02 -0.74188192822E+02  0.76646361816E+02  0.00000000000E+00 0. -1.
         11    1    3    3    0    0  0.15161318036E+02  0.11870604911E+02  0.20547248091E+02  0.28159656064E+02  0.00000000000E+00 0.  1.
<mgrwt>
<rscale>  0 0.90038605E+02</rscale>
<asrwt>0</asrwt>
<pdfrwt beam="2">  1        2 0.12188228E-01 0.90038605E+02</pdfrwt>
<pdfrwt beam="1">  1       -2 0.39357748E-02 0.90038605E+02</pdfrwt>
<totfact> 0.11860035E+05</totfact>
</mgrwt>
</event>
<event>
 5    1  0.6004828E+000  0.9063256E+02  0.7546771E-02  0.1301327E+00
          1   -1    0    0  501    0  0.00000000000E+00  0.00000000000E+00  0.13628153557E+03  0.13628153557E+03  0.00000000000E+00 0. -1.
         -1   -1    0    0    0  501 -0.00000000000E+00 -0.00000000000E+00 -0.15068549161E+02  0.15068549161E+02  0.00000000000E+00 0.  1.
         23    2    1    2    0    0  0.00000000000E+00  0.00000000000E+00  0.12121298641E+03  0.15135008473E+03  0.90632555265E+02 0.  0.
        -11    1    3    3    0    0  0.43070164764E+02  0.68681389745E+01  0.81151024876E+02  0.92128710314E+02  0.00000000000E+00 0.  1.
         11    1    3    3    0    0 -0.43070164764E+02 -0.68681389745E+01  0.40061961529E+02  0.59221374413E+02  0.00000000000E+00 0. -1.
<mgrwt>
<rscale>  0 0.90632555E+02</rscale>
<asrwt>0</asrwt>
<pdfrwt beam="1">  1        1 0.20966389E-01 0.90632555E+02</pdfrwt>
<pdfrwt beam="2">  1       -1 0.23182384E-02 0.90632555E+02</pdfrwt>
<totfact> 0.11199032E+05</totfact>
</mgrwt>
</event>
<event>
 5    1  0.6004828E+000  0.9167177E+02  0.7546771E-02  0.1298853E+00
         -1   -1    0    0    0  501 -0.00000000000E+00  0.00000000000E+00  0.10685152600E+03  0.10685152600E+03  0.00000000000E+00 0.  1.
          1   -1    0    0  501    0  0.00000000000E+00 -0.00000000000E+00 -0.19662125608E+02  0.19662125608E+02  0.00000000000E+00 0. -1.
         23    2    1    2    0    0  0.00000000000E+00  0.00000000000E+00  0.87189400392E+02  0.12651365161E+03  0.91671765023E+02 0.  0.
        -11    1    3    3    0    0 -0.13781416127E+02  0.99087309355E+01  0.10235430550E+03  0.10375217701E+03  0.00000000000E+00 0.  1.
         11    1    3    3    0    0  0.13781416127E+02 -0.99087309355E+01 -0.15164905107E+02  0.22761474603E+02  0.00000000000E+00 0. -1.
<mgrwt>
<rscale>  0 0.91671765E+02</rscale>
<asrwt>0</asrwt>
<pdfrwt beam="2">  1        1 0.30249425E-02 0.91671765E+02</pdfrwt>
<pdfrwt beam="1">  1       -1 0.16438696E-01 0.91671765E+02</pdfrwt>
<totfact> 0.79242402E+04</totfact>
</mgrwt>
</event>
<event>
 5    1  0.6004828E+000  0.9094446E+02  0.7546771E-02  0.1300581E+00
          4   -1    0    0  501    0  0.00000000000E+00  0.00000000000E+00  0.17475680889E+02  0.17475680889E+02  0.00000000000E+00 0. -1.
         -4   -1    0    0    0  501 -0.00000000000E+00 -0.00000000000E+00 -0.11832007501E+03  0.11832007501E+03  0.00000000000E+00 0.  1.
         23    2    1    2    0    0  0.00000000000E+00  0.00000000000E+00 -0.10084439412E+03  0.13579575590E+03  0.90944463793E+02 0.  0.
        -11    1    3    3    0    0  0.19718118335E+02 -0.73368232492E+01 -0.11061557748E+03  0.11259857525E+03  0.00000000000E+00 0.  1.
         11    1    3    3    0    0 -0.19718118335E+02  0.73368232492E+01  0.97711833590E+01  0.23197180654E+02  0.00000000000E+00 0. -1.
<mgrwt>
<rscale>  0 0.90944464E+02</rscale>
<asrwt>0</asrwt>
<pdfrwt beam="1">  1        4 0.26885664E-02 0.90944464E+02</pdfrwt>
<pdfrwt beam="2">  1       -4 0.18203088E-01 0.90944464E+02</pdfrwt>
<totfact> 0.24575059E+04</totfact>
</mgrwt>
</event>
<event>
 5    1  0.6004828E+000  0.9059069E+02  0.7546771E-02  0.1301428E+00
          4   -1    0    0  501    0  0.00000000000E+00  0.00000000000E+00  0.35732181156E+02  0.35732181156E+02  0.00000000000E+00 0. -1.
         -4   -1    0    0    0  501 -0.00000000000E+00 -0.00000000000E+00 -0.57417937329E+02  0.57417937329E+02  0.00000000000E+00 0.  1.
         23    2    1    2    0    0  0.00000000000E+00  0.00000000000E+00 -0.21685756173E+02  0.93150118486E+02  0.90590686900E+02 0.  0.
        -11    1    3    3    0    0  0.11027981179E+02 -0.23687223772E+02 -0.48887772244E+02  0.55432077481E+02  0.00000000000E+00 0.  1.
         11    1    3    3    0    0 -0.11027981179E+02  0.23687223772E+02  0.27202016071E+02  0.37718041004E+02  0.00000000000E+00 0. -1.
<mgrwt>
<rscale>  0 0.90590687E+02</rscale>
<asrwt>0</asrwt>
<pdfrwt beam="1">  1        4 0.54972587E-02 0.90590687E+02</pdfrwt>
<pdfrwt beam="2">  1       -4 0.88335287E-02 0.90590687E+02</pdfrwt>
<totfact> 0.27363856E+04</totfact>
</mgrwt>
</event>
<event>
 5    1  0.6004828E+000  0.8976598E+02  0.7546771E-02  0.1303419E+00
          3   -1    0    0  501    0  0.00000000000E+00  0.00000000000E+00  0.95210611639E+01  0.95210611639E+01  0.00000000000E+00 0. -1.
         -3   -1    0    0    0  501 -0.00000000000E+00 -0.00000000000E+00 -0.21158176539E+03  0.21158176539E+03  0.00000000000E+00 0.  1.
         23    2    1    2    0    0  0.00000000000E+00  0.00000000000E+00 -0.20206070422E+03  0.22110282655E+03  0.89765983077E+02 0.  0.
        -11    1    3    3    0    0  0.77062391982E+01  0.42073249712E+02 -0.67534106831E+02  0.79939977792E+02  0.00000000000E+00 0. -1.
         11    1    3    3    0    0 -0.77062391982E+01 -0.42073249712E+02 -0.13452659739E+03  0.14116284876E+03  0.00000000000E+00 0.  1.
<mgrwt>
<rscale>  0 0.89765983E+02</rscale>
<asrwt>0</asrwt>
<pdfrwt beam="1">  1        3 0.14647787E-02 0.89765983E+02</pdfrwt>
<pdfrwt beam="2">  1       -3 0.32551039E-01 0.89765983E+02</pdfrwt>
<totfact> 0.28615736E+04</totfact>
</mgrwt>
</event>
<event>
 5    1  0.6004828E+000  0.9201811E+02  0.7546771E-02  0.1298037E+00
          4   -1    0    0  501    0  0.00000000000E+00  0.00000000000E+00  0.16316035958E+02  0.16316035958E+02  0.00000000000E+00 0. -1.
         -4   -1    0    0    0  501 -0.00000000000E+00 -0.00000000000E+00 -0.12973943450E+03  0.12973943450E+03  0.00000000000E+00 0.  1.
         23    2    1    2    0    0  0.00000000000E+00  0.00000000000E+00 -0.11342339854E+03  0.14605547046E+03  0.92018112966E+02 0.  0.
        -11    1    3    3    0    0 -0.24214221816E+02  0.35455515861E+02 -0.30466335041E+02  0.52646174733E+02  0.00000000000E+00 0. -1.
         11    1    3    3    0    0  0.24214221816E+02 -0.35455515861E+02 -0.82957063500E+02  0.93409295725E+02  0.00000000000E+00 0.  1.
<mgrwt>
<rscale>  0 0.92018113E+02</rscale>
<asrwt>0</asrwt>
<pdfrwt beam="1">  1        4 0.25101594E-02 0.92018113E+02</pdfrwt>
<pdfrwt beam="2">  1       -4 0.19959913E-01 0.92018113E+02</pdfrwt>
<totfact> 0.23288207E+04</totfact>
</mgrwt>
</event>
<event>
 5    1  0.6004828E+000  0.9090585E+02  0.7546771E-02  0.1300673E+00
          2   -1    0    0  501    0  0.00000000000E+00  0.00000000000E+00  0.73403593517E+02  0.73403593517E+02  0.00000000000E+00 0. -1.
         -2   -1    0    0    0  501 -0.00000000000E+00 -0.00000000000E+00 -0.28145328457E+02  0.28145328457E+02  0.00000000000E+00 0.  1.
         23    2    1    2    0    0  0.00000000000E+00  0.00000000000E+00  0.45258265060E+02  0.10154892197E+03  0.90905846884E+02 0.  0.
        -11    1    3    3    0    0  0.25613102103E+02  0.34693803144E+02  0.38673004642E+02  0.57924884670E+02  0.00000000000E+00 0. -1.
         11    1    3    3    0    0 -0.25613102103E+02 -0.34693803144E+02  0.65852604175E+01  0.43624037304E+02  0.00000000000E+00 0.  1.
<mgrwt>
<rscale>  0 0.90905847E+02</rscale>
<asrwt>0</asrwt>
<pdfrwt beam="1">  1        2 0.11292860E-01 0.90905847E+02</pdfrwt>
<pdfrwt beam="2">  1       -2 0.43300506E-02 0.90905847E+02</pdfrwt>
<totfact> 0.11302728E+05</totfact>
</mgrwt>
</event>
<event>
 5    1  0.6004828E+000  0.9144405E+02  0.7546771E-02  0.1299392E+00
          4   -1    0    0  501    0  0.00000000000E+00  0.00000000000E+00  0.45179918174E+02  0.45179918174E+02  0.00000000000E+00 0.  1.
         -4   -1    0    0    0  501 -0.00000000000E+00 -0.00000000000E+00 -0.46270635356E+02  0.46270635356E+02  0.00000000000E+00 0. -1.
         23    2    1    2    0    0  0.00000000000E+00  0.00000000000E+00 -0.10907171819E+01  0.91450553531E+02  0.91444048888E+02 0.  0.
        -11    1    3    3    0    0 -0.27376301998E+02  0.36448239822E+02 -0.40906667641E+01  0.45767561130E+02  0.00000000000E+00 0. -1.
         11    1    3    3    0    0  0.27376301998E+02 -0.36448239822E+02  0.29999495822E+01  0.45682992401E+02  0.00000000000E+00 0.  1.
<mgrwt>
<rscale>  0 0.91444049E+02</rscale>
<asrwt>0</asrwt>
<pdfrwt beam="1">  1        4 0.69507567E-02 0.91444049E+02</pdfrwt>
<pdfrwt beam="2">  1       -4 0.71185593E-02 0.91444049E+02</pdfrwt>
<totfact> 0.26784444E+04</totfact>
</mgrwt>
</event>
<event>
 5    1  0.6004828E+000  0.9172133E+02  0.7546771E-02  0.1298736E+00
          2   -1    0    0  501    0  0.00000000000E+00  0.00000000000E+00  0.26539610228E+03  0.26539610228E+03  0.00000000000E+00 0.  1.
         -2   -1    0    0    0  501 -0.00000000000E+00 -0.00000000000E+00 -0.79247610260E+01  0.79247610260E+01  0.00000000000E+00 0. -1.
         23    2    1    2    0    0  0.00000000000E+00  0.00000000000E+00  0.25747134126E+03  0.27332086331E+03  0.91721332040E+02 0.  0.
        -11    1    3    3    0    0 -0.29738215424E+02 -0.27660587104E+02  0.19221052740E+03  0.19645446389E+03  0.00000000000E+00 0.  1.
         11    1    3    3    0    0  0.29738215424E+02  0.27660587104E+02  0.65260813852E+02  0.76866399423E+02  0.00000000000E+00 0. -1.
<mgrwt>
<rscale>  0 0.91721332E+02</rscale>
<asrwt>0</asrwt>
<pdfrwt beam="1">  1        2 0.40830163E-01 0.91721332E+02</pdfrwt>
<pdfrwt beam="2">  1       -2 0.12191942E-02 0.91721332E+02</pdfrwt>
<totfact> 0.16891724E+05</totfact>
</mgrwt>
</event>
<event>
 5    1  0.6004828E+000  0.9197938E+02  0.7546771E-02  0.1298128E+00
          1   -1    0    0  501    0  0.00000000000E+00  0.00000000000E+00  0.28156218994E+03  0.28156218994E+03  0.00000000000E+00 0. -1.
         -1   -1    0    0    0  501 -0.00000000000E+00 -0.00000000000E+00 -0.75118446655E+01  0.75118446655E+01  0.00000000000E+00 0.  1.
         23    2    1    2    0    0  0.00000000000E+00  0.00000000000E+00  0.27405034527E+03  0.28907403460E+03  0.91979376699E+02 0.  0.
        -11    1    3    3    0    0 -0.41887602093E+02 -0.96713806387E+01  0.18837384385E+03  0.19321700717E+03  0.00000000000E+00 0. -1.
         11    1    3    3    0    0  0.41887602093E+02  0.96713806387E+01  0.85676501421E+02  0.95857027433E+02  0.00000000000E+00 0.  1.
<mgrwt>
<rscale>  0 0.91979377E+02</rscale>
<asrwt>0</asrwt>
<pdfrwt beam="1">  1        1 0.43317252E-01 0.91979377E+02</pdfrwt>
<pdfrwt beam="2">  1       -1 0.11556686E-02 0.91979377E+02</pdfrwt>
<totfact> 0.12364248E+05</totfact>
</mgrwt>
</event>
<event>
 5    1  0.6004828E+000  0.8729645E+02  0.7546771E-02  0.1309534E+00
          1   -1    0    0  501    0  0.00000000000E+00  0.00000000000E+00  0.21622592672E+02  0.21622592672E+02  0.00000000000E+00 0. -1.
         -1   -1    0    0    0  501 -0.00000000000E+00 -0.00000000000E+00 -0.88110043022E+02  0.88110043022E+02  0.00000000000E+00 0.  1.
         23    2    1    2    0    0  0.00000000000E+00  0.00000000000E+00 -0.66487450351E+02  0.10973263569E+03  0.87296450571E+02 0.  0.
        -11    1    3    3    0    0  0.38584458460E+02 -0.20269246046E+02 -0.30278456626E+02  0.53069649571E+02  0.00000000000E+00 0. -1.
         11    1    3    3    0    0 -0.38584458460E+02  0.20269246046E+02 -0.36208993725E+02  0.56662986124E+02  0.00000000000E+00 0.  1.
<mgrwt>
<rscale>  0 0.87296451E+02</rscale>
<asrwt>0</asrwt>
<pdfrwt beam="1">  1        1 0.33265527E-02 0.87296451E+02</pdfrwt>
<pdfrwt beam="2">  1       -1 0.13555391E-01 0.87296451E+02</pdfrwt>
<totfact> 0.93070802E+04</totfact>
</mgrwt>
</event>
<event>
 5    1  0.6004828E+000  0.8597715E+02  0.7546771E-02  0.1312897E+00
          2   -1    0    0  501    0  0.00000000000E+00  0.00000000000E+00  0.42064117087E+02  0.42064117087E+02  0.00000000000E+00 0. -1.
         -2   -1    0    0    0  501 -0.00000000000E+00 -0.00000000000E+00 -0.43933346157E+02  0.43933346157E+02  0.00000000000E+00 0.  1.
         23    2    1    2    0    0  0.00000000000E+00  0.00000000000E+00 -0.18692290708E+01  0.85997463244E+02  0.85977146191E+02 0.  0.
        -11    1    3    3    0    0  0.52962247590E+01  0.11389024605E+02 -0.42057071593E+02  0.43892563711E+02  0.00000000000E+00 0.  1.
         11    1    3    3    0    0 -0.52962247590E+01 -0.11389024605E+02  0.40187842522E+02  0.42104899533E+02  0.00000000000E+00 0. -1.
<mgrwt>
<rscale>  0 0.85977146E+02</rscale>
<asrwt>0</asrwt>
<pdfrwt beam="1">  1        2 0.64714026E-02 0.85977146E+02</pdfrwt>
<pdfrwt beam="2">  1       -2 0.67589763E-02 0.85977146E+02</pdfrwt>
<totfact> 0.11435126E+05</totfact>
</mgrwt>
</event>
<event>
 5    1  0.6004828E+000  0.9095953E+02  0.7546771E-02  0.1300545E+00
          3   -1    0    0  501    0  0.00000000000E+00  0.00000000000E+00  0.26547344364E+03  0.26547344364E+03  0.00000000000E+00 0. -1.
         -3   -1    0    0    0  501 -0.00000000000E+00 -0.00000000000E+00 -0.77913966975E+01  0.77913966975E+01  0.00000000000E+00 0.  1.
         23    2    1    2    0    0  0.00000000000E+00  0.00000000000E+00  0.25768204694E+03  0.27326484033E+03  0.90959527528E+02 0.  0.
        -11    1    3    3    0    0 -0.48996715696E+01  0.41399995715E+02  0.18345244745E+03  0.18812965450E+03  0.00000000000E+00 0. -1.
         11    1    3    3    0    0  0.48996715696E+01 -0.41399995715E+02  0.74229599485E+02  0.85135185831E+02  0.00000000000E+00 0.  1.
<mgrwt>
<rscale>  0 0.90959528E+02</rscale>
<asrwt>0</asrwt>
<pdfrwt beam="1">  1        3 0.40842061E-01 0.90959528E+02</pdfrwt>
<pdfrwt beam="2">  1       -3 0.11986766E-02 0.90959528E+02</pdfrwt>
<totfact> 0.25265378E+04</totfact>
</mgrwt>
</event>
<event>
 5    1  0.6004828E+000  0.8868655E+02  0.7546771E-02  0.1306064E+00
         -1   -1    0    0    0  501 -0.00000000000E+00  0.00000000000E+00  0.52140552547E+02  0.52140552547E+02  0.00000000000E+00 0.  1.
          1   -1    0    0  501    0  0.00000000000E+00 -0.00000000000E+00 -0.37712032020E+02  0.37712032020E+02  0.00000000000E+00 0. -1.
         23    2    1    2    0    0  0.00000000000E+00  0.00000000000E+00  0.14428520527E+02  0.89852584566E+02  0.88686553370E+02 0.  0.
        -11    1    3    3    0    0  0.12597510276E+02 -0.88154259539E+01  0.49353379443E+02  0.51692988523E+02  0.00000000000E+00 0.  1.
         11    1    3    3    0    0 -0.12597510276E+02  0.88154259539E+01 -0.34924858916E+02  0.38159596044E+02  0.00000000000E+00 0. -1.
<mgrwt>
<rscale>  0 0.88686553E+02</rscale>
<asrwt>0</asrwt>
<pdfrwt beam="2">  1        1 0.58018511E-02 0.88686553E+02</pdfrwt>
<pdfrwt beam="1">  1       -1 0.80216234E-02 0.88686553E+02</pdfrwt>
<totfact> 0.97161646E+04</totfact>
</mgrwt>
</event>
<event>
 5    1  0.6004828E+000  0.8488725E+02  0.7546771E-02  0.1315728E+00
          1   -1    0    0  501    0  0.00000000000E+00  0.00000000000E+00  0.94864507040E+02  0.94864507040E+02  0.00000000000E+00 0. -1.
         -1   -1    0    0    0  501 -0.00000000000E+00 -0.00000000000E+00 -0.18989835130E+02  0.18989835130E+02  0.00000000000E+00 0.  1.
         23    2    1    2    0    0  0.00000000000E+00  0.00000000000E+00  0.75874671910E+02  0.11385434217E+03  0.84887251066E+02 0.  0.
        -11    1    3    3    0    0 -0.24902213971E+02 -0.22329843850E+02  0.28921656765E+01  0.33572411431E+02  0.00000000000E+00 0.  1.
         11    1    3    3    0    0  0.24902213971E+02  0.22329843850E+02  0.72982506234E+02  0.80281930739E+02  0.00000000000E+00 0. -1.
<mgrwt>
<rscale>  0 0.84887251E+02</rscale>
<asrwt>0</asrwt>
<pdfrwt beam="1">  1        1 0.14594539E-01 0.84887251E+02</pdfrwt>
<pdfrwt beam="2">  1       -1 0.29215132E-02 0.84887251E+02</pdfrwt>
<totfact> 0.12572722E+05</totfact>
</mgrwt>
</event>
<event>
 5    1  0.6004828E+000  0.8984462E+02  0.7546771E-02  0.1303228E+00
         -4   -1    0    0    0  501 -0.00000000000E+00  0.00000000000E+00  0.84669284640E+01  0.84669284640E+01  0.00000000000E+00 0.  1.
          4   -1    0    0  501    0  0.00000000000E+00 -0.00000000000E+00 -0.23834074636E+03  0.23834074636E+03  0.00000000000E+00 0. -1.
         23    2    1    2    0    0  0.00000000000E+00  0.00000000000E+00 -0.22987381790E+03  0.24680767483E+03  0.89844622533E+02 0.  0.
        -11    1    3    3    0    0 -0.36540782267E+02 -0.57525868989E+01 -0.44917139859E+02  0.58188233156E+02  0.00000000000E+00 0.  1.
         11    1    3    3    0    0  0.36540782267E+02  0.57525868989E+01 -0.18495667804E+03  0.18861944167E+03  0.00000000000E+00 0. -1.
<mgrwt>
<rscale>  0 0.89844623E+02</rscale>
<asrwt>0</asrwt>
<pdfrwt beam="2">  1        4 0.36667813E-01 0.89844623E+02</pdfrwt>
<pdfrwt beam="1">  1       -4 0.13026042E-02 0.89844623E+02</pdfrwt>
<totfact> 0.20359112E+04</totfact>
</mgrwt>
</event>
<event>
 5    1  0.6004828E+000  0.9297672E+02  0.7546771E-02  0.1295799E+00
         -1   -1    0    0    0  501 -0.00000000000E+00  0.00000000000E+00  0.16834970914E+03  0.16834970914E+03  0.00000000000E+00 0.  1.
          1   -1    0    0  501    0  0.00000000000E+00 -0.00000000000E+00 -0.12837371386E+02  0.12837371386E+02  0.00000000000E+00 0. -1.
         23    2    1    2    0    0  0.00000000000E+00  0.00000000000E+00  0.15551233775E+03  0.18118708053E+03  0.92976722657E+02 0.  0.
        -11    1    3    3    0    0 -0.44434014338E+02  0.93687511944E+01  0.97147081427E+02  0.10723670341E+03  0.00000000000E+00 0.  1.
         11    1    3    3    0    0  0.44434014338E+02 -0.93687511944E+01  0.58365256326E+02  0.73950377113E+02  0.00000000000E+00 0. -1.
<mgrwt>
<rscale>  0 0.92976723E+02</rscale>
<asrwt>0</asrwt>
<pdfrwt beam="2">  1        1 0.19749803E-02 0.92976723E+02</pdfrwt>
<pdfrwt beam="1">  1       -1 0.25899954E-01 0.92976723E+02</pdfrwt>
<totfact> 0.69110123E+04</totfact>
</mgrwt>
</event>
<event>
 5    1  0.6004828E+000  0.9093117E+02  0.7546771E-02  0.1300612E+00
         -3   -1    0    0    0  501 -0.00000000000E+00  0.00000000000E+00  0.18532599939E+02  0.18532599939E+02  0.00000000000E+00 0.  1.
          3   -1    0    0  501    0  0.00000000000E+00 -0.00000000000E+00 -0.11153964464E+03  0.11153964464E+03  0.00000000000E+00 0. -1.
         23    2    1    2    0    0  0.00000000000E+00  0.00000000000E+00 -0.93007044701E+02  0.13007224458E+03  0.90931174225E+02 0.  0.
        -11    1    3    3    0    0 -0.18973652552E+02 -0.23940354966E+02 -0.94673277833E+02  0.99479493478E+02  0.00000000000E+00 0. -1.
         11    1    3    3    0    0  0.18973652552E+02  0.23940354966E+02  0.16662331323E+01  0.30592751101E+02  0.00000000000E+00 0.  1.
<mgrwt>
<rscale>  0 0.90931174E+02</rscale>
<asrwt>0</asrwt>
<pdfrwt beam="2">  1        3 0.17159946E-01 0.90931174E+02</pdfrwt>
<pdfrwt beam="1">  1       -3 0.28511692E-02 0.90931174E+02</pdfrwt>
<totfact> 0.32810378E+04</totfact>
</mgrwt>
</event>
<event>
 5    1  0.6004828E+000  0.8434939E+02  0.7546771E-02  0.1317143E+00
         -2   -1    0    0    0  501 -0.00000000000E+00  0.00000000000E+00  0.22623109831E+03  0.22623109831E+03  0.00000000000E+00 0.  1.
          2   -1    0    0  501    0  0.00000000000E+00 -0.00000000000E+00 -0.78623365340E+01  0.78623365340E+01  0.00000000000E+00 0. -1.
         23    2    1    2    0    0  0.00000000000E+00  0.00000000000E+00  0.21836876178E+03  0.23409343485E+03  0.84349393107E+02 0.  0.
        -11    1    3    3    0    0 -0.18917819489E+02  0.37490256638E+02  0.12004059560E+03  0.12717369157E+03  0.00000000000E+00 0. -1.
         11    1    3    3    0    0  0.18917819489E+02 -0.37490256638E+02  0.98328166181E+02  0.10691974327E+03  0.00000000000E+00 0.  1.
<mgrwt>
<rscale>  0 0.84349393E+02</rscale>
<asrwt>0</asrwt>
<pdfrwt beam="2">  1        2 0.12095904E-02 0.84349393E+02</pdfrwt>
<pdfrwt beam="1">  1       -2 0.34804779E-01 0.84349393E+02</pdfrwt>
<totfact> 0.71931803E+04</totfact>
</mgrwt>
</event>
<event>
 5    1  0.6004828E+000  0.8767513E+02  0.7546771E-02  0.1308581E+00
         -1   -1    0    0    0  501 -0.00000000000E+00  0.00000000000E+00  0.18826094125E+03  0.18826094125E+03  0.00000000000E+00 0.  1.
          1   -1    0    0  501    0  0.00000000000E+00 -0.00000000000E+00 -0.10207810737E+02  0.10207810737E+02  0.00000000000E+00 0. -1.
         23    2    1    2    0    0  0.00000000000E+00  0.00000000000E+00  0.17805313052E+03  0.19846875199E+03  0.87675128915E+02 0.  0.
        -11    1    3    3    0    0 -0.38877598225E+02  0.82897878927E+01  0.13086148576E+03  0.13676591930E+03  0.00000000000E+00 0.  1.
         11    1    3    3    0    0  0.38877598225E+02 -0.82897878927E+01  0.47191644754E+02  0.61702832687E+02  0.00000000000E+00 0. -1.
<mgrwt>
<rscale>  0 0.87675129E+02</rscale>
<asrwt>0</asrwt>
<pdfrwt beam="2">  1        1 0.15704326E-02 0.87675129E+02</pdfrwt>
<pdfrwt beam="1">  1       -1 0.28963219E-01 0.87675129E+02</pdfrwt>
<totfact> 0.78174670E+04</totfact>
</mgrwt>
</event>
<event>
 5    1  0.6004828E+000  0.9190632E+02  0.7546771E-02  0.1298300E+00
          3   -1    0    0  501    0  0.00000000000E+00  0.00000000000E+00  0.42304742485E+03  0.42304742485E+03  0.00000000000E+00 0. -1.
         -3   -1    0    0    0  501 -0.00000000000E+00 -0.00000000000E+00 -0.49916225236E+01  0.49916225236E+01  0.00000000000E+00 0.  1.
         23    2    1    2    0    0  0.00000000000E+00  0.00000000000E+00  0.41805580232E+03  0.42803904737E+03  0.91906323056E+02 0.  0.
        -11    1    3    3    0    0 -0.40952811185E+02  0.19698510241E+02  0.17725916932E+03  0.18299174069E+03  0.00000000000E+00 0.  1.
         11    1    3    3    0    0  0.40952811185E+02 -0.19698510241E+02  0.24079663300E+03  0.24504730668E+03  0.00000000000E+00 0. -1.
<mgrwt>
<rscale>  0 0.91906323E+02</rscale>
<asrwt>0</asrwt>
<pdfrwt beam="1">  1        3 0.65084191E-01 0.91906323E+02</pdfrwt>
<pdfrwt beam="2">  1       -3 0.76794226E-03 0.91906323E+02</pdfrwt>
<totfact> 0.19377399E+04</totfact>
</mgrwt>
</event>
<event>
 5    1  0.6004828E+000  0.9291233E+02  0.7546771E-02  0.1295948E+00
         -4   -1    0    0    0  501 -0.00000000000E+00  0.00000000000E+00  0.67966297362E+02  0.67966297362E+02  0.00000000000E+00 0.  1.
          4   -1    0    0  501    0  0.00000000000E+00 -0.00000000000E+00 -0.31753610827E+02  0.31753610827E+02  0.00000000000E+00 0. -1.
         23    2    1    2    0    0  0.00000000000E+00  0.00000000000E+00  0.36212686535E+02  0.99719908189E+02  0.92912331922E+02 0.  0.
        -11    1    3    3    0    0  0.15261629451E+02  0.27545673721E+02  0.54762737482E+02  0.63171503787E+02  0.00000000000E+00 0.  1.
         11    1    3    3    0    0 -0.15261629451E+02 -0.27545673721E+02 -0.18550050947E+02  0.36548404402E+02  0.00000000000E+00 0. -1.
<mgrwt>
<rscale>  0 0.92912332E+02</rscale>
<asrwt>0</asrwt>
<pdfrwt beam="2">  1        4 0.48851709E-02 0.92912332E+02</pdfrwt>
<pdfrwt beam="1">  1       -4 0.10456353E-01 0.92912332E+02</pdfrwt>
<totfact> 0.25152295E+04</totfact>
</mgrwt>
</event>
<event>
 5    1  0.6004828E+000  0.9584620E+02  0.7546771E-02  0.1289282E+00
          1   -1    0    0  501    0  0.00000000000E+00  0.00000000000E+00  0.31184945310E+03  0.31184945310E+03  0.00000000000E+00 0. -1.
         -1   -1    0    0    0  501 -0.00000000000E+00 -0.00000000000E+00 -0.73645263389E+01  0.73645263389E+01  0.00000000000E+00 0.  1.
         23    2    1    2    0    0  0.00000000000E+00  0.00000000000E+00  0.30448492676E+03  0.31921397944E+03  0.95846199948E+02 0.  0.
        -11    1    3    3    0    0  0.30779787818E+02  0.29162373360E+02  0.22662368843E+03  0.23055614396E+03  0.00000000000E+00 0. -1.
         11    1    3    3    0    0 -0.30779787818E+02 -0.29162373360E+02  0.77861238333E+02  0.88657835485E+02  0.00000000000E+00 0.  1.
<mgrwt>
<rscale>  0 0.95846200E+02</rscale>
<asrwt>0</asrwt>
<pdfrwt beam="1">  1        1 0.47976829E-01 0.95846200E+02</pdfrwt>
<pdfrwt beam="2">  1       -1 0.11330043E-02 0.95846200E+02</pdfrwt>
<totfact> 0.11294509E+05</totfact>
</mgrwt>
</event>
<event>
 5    1  0.6004828E+000  0.9029177E+02  0.7546771E-02  0.1302147E+00
          2   -1    0    0  501    0  0.00000000000E+00  0.00000000000E+00  0.32207796668E+03  0.32207796668E+03  0.00000000000E+00 0. -1.
         -2   -1    0    0    0  501 -0.00000000000E+00 -0.00000000000E+00 -0.63281287186E+01  0.63281287186E+01  0.00000000000E+00 0.  1.
         23    2    1    2    0    0  0.00000000000E+00  0.00000000000E+00  0.31574983796E+03  0.32840609540E+03  0.90291767743E+02 0.  0.
        -11    1    3    3    0    0 -0.36233968846E+02 -0.23661212076E+02  0.11109845806E+03  0.11922927844E+03  0.00000000000E+00 0.  1.
         11    1    3    3    0    0  0.36233968846E+02  0.23661212076E+02  0.20465137990E+03  0.20917681695E+03  0.00000000000E+00 0. -1.
<mgrwt>
<rscale>  0 0.90291768E+02</rscale>
<asrwt>0</asrwt>
<pdfrwt beam="1">  1        2 0.49550444E-01 0.90291768E+02</pdfrwt>
<pdfrwt beam="2">  1       -2 0.97355852E-03 0.90291768E+02</pdfrwt>
<totfact> 0.18931448E+05</totfact>
</mgrwt>
</event>
<event>
 5    1  0.6004828E+000  0.9201123E+02  0.7546771E-02  0.1298053E+00
          1   -1    0    0  501    0  0.00000000000E+00  0.00000000000E+00  0.15969069946E+02  0.15969069946E+02  0.00000000000E+00 0. -1.
         -1   -1    0    0    0  501 -0.00000000000E+00 -0.00000000000E+00 -0.13253851631E+03  0.13253851631E+03  0.00000000000E+00 0.  1.
         23    2    1    2    0    0  0.00000000000E+00  0.00000000000E+00 -0.11656944637E+03  0.14850758626E+03  0.92011234912E+02 0.  0.
        -11    1    3    3    0    0 -0.99137887491E+01  0.42663923334E+02 -0.80997273387E+02  0.92081767238E+02  0.00000000000E+00 0.  1.
         11    1    3    3    0    0  0.99137887491E+01 -0.42663923334E+02 -0.35572172980E+02  0.56425819020E+02  0.00000000000E+00 0. -1.
<mgrwt>
<rscale>  0 0.92011235E+02</rscale>
<asrwt>0</asrwt>
<pdfrwt beam="1">  1        1 0.24567800E-02 0.92011235E+02</pdfrwt>
<pdfrwt beam="2">  1       -1 0.20390541E-01 0.92011235E+02</pdfrwt>
<totfact> 0.75108012E+04</totfact>
</mgrwt>
</event>
<event>
 5    1  0.6004828E+000  0.8917450E+02  0.7546771E-02  0.1304863E+00
         -2   -1    0    0    0  501 -0.00000000000E+00  0.00000000000E+00  0.25157961017E+02  0.25157961017E+02  0.00000000000E+00 0.  1.
          2   -1    0    0  501    0  0.00000000000E+00 -0.00000000000E+00 -0.79021620338E+02  0.79021620338E+02  0.00000000000E+00 0. -1.
         23    2    1    2    0    0  0.00000000000E+00  0.00000000000E+00 -0.53863659320E+02  0.10417958135E+03  0.89174499583E+02 0.  0.
        -11    1    3    3    0    0 -0.21741114893E+02 -0.21375494109E+02  0.11076083671E+02  0.32438672209E+02  0.00000000000E+00 0.  1.
         11    1    3    3    0    0  0.21741114893E+02  0.21375494109E+02 -0.64939742992E+02  0.71740909146E+02  0.00000000000E+00 0. -1.
<mgrwt>
<rscale>  0 0.89174500E+02</rscale>
<asrwt>0</asrwt>
<pdfrwt beam="2">  1        2 0.12157172E-01 0.89174500E+02</pdfrwt>
<pdfrwt beam="1">  1       -2 0.38704556E-02 0.89174500E+02</pdfrwt>
<totfact> 0.12172369E+05</totfact>
</mgrwt>
</event>
<event>
 5    1  0.6004828E+000  0.8208497E+02  0.7546771E-02  0.1323237E+00
          2   -1    0    0  501    0  0.00000000000E+00  0.00000000000E+00  0.64996128117E+02  0.64996128117E+02  0.00000000000E+00 0. -1.
         -2   -1    0    0    0  501 -0.00000000000E+00 -0.00000000000E+00 -0.25916709002E+02  0.25916709002E+02  0.00000000000E+00 0.  1.
         23    2    1    2    0    0  0.00000000000E+00  0.00000000000E+00  0.39079419116E+02  0.90912837119E+02  0.82084973988E+02 0.  0.
        -11    1    3    3    0    0 -0.20575007602E+02  0.27019854575E+02 -0.59839206182E+01  0.34484935625E+02  0.00000000000E+00 0.  1.
         11    1    3    3    0    0  0.20575007602E+02 -0.27019854575E+02  0.45063339734E+02  0.56427901494E+02  0.00000000000E+00 0. -1.
<mgrwt>
<rscale>  0 0.82084974E+02</rscale>
<asrwt>0</asrwt>
<pdfrwt beam="1">  1        2 0.99994043E-02 0.82084974E+02</pdfrwt>
<pdfrwt beam="2">  1       -2 0.39871860E-02 0.82084974E+02</pdfrwt>
<totfact> 0.14516885E+05</totfact>
</mgrwt>
</event>
<event>
 5    1  0.6004828E+000  0.9539619E+02  0.7546771E-02  0.1290286E+00
         -2   -1    0    0    0  501 -0.00000000000E+00  0.00000000000E+00  0.29901757344E+02  0.29901757344E+02  0.00000000000E+00 0. -1.
          2   -1    0    0  501    0  0.00000000000E+00 -0.00000000000E+00 -0.76086102621E+02  0.76086102621E+02  0.00000000000E+00 0.  1.
         23    2    1    2    0    0  0.00000000000E+00  0.00000000000E+00 -0.46184345277E+02  0.10598785997E+03  0.95396188139E+02 0.  0.
        -11    1    3    3    0    0 -0.13991131699E+02  0.30517632755E+02  0.14552351832E+02  0.36590280390E+02  0.00000000000E+00 0. -1.
         11    1    3    3    0    0  0.13991131699E+02 -0.30517632755E+02 -0.60736697108E+02  0.69397579575E+02  0.00000000000E+00 0.  1.
<mgrwt>
<rscale>  0 0.95396188E+02</rscale>
<asrwt>0</asrwt>
<pdfrwt beam="2">  1        2 0.11705554E-01 0.95396188E+02</pdfrwt>
<pdfrwt beam="1">  1       -2 0.46002704E-02 0.95396188E+02</pdfrwt>
<totfact> 0.99763509E+04</totfact>
</mgrwt>
</event>
<event>
 5    1  0.6004828E+000  0.9223299E+02  0.7546771E-02  0.1297533E+00
          2   -1    0    0  501    0  0.00000000000E+00  0.00000000000E+00  0.19906474318E+03  0.19906474318E+03  0.00000000000E+00 0. -1.
         -2   -1    0    0    0  501 -0.00000000000E+00 -0.00000000000E+00 -0.10683615435E+02  0.10683615435E+02  0.00000000000E+00 0.  1.
         23    2    1    2    0    0  0.00000000000E+00  0.00000000000E+00  0.18838112774E+03  0.20974835861E+03  0.92232991121E+02 0.  0.
        -11    1    3    3    0    0 -0.44994548764E+02  0.29656816582E+01  0.11617155461E+03  0.12461594916E+03  0.00000000000E+00 0. -1.
         11    1    3    3    0    0  0.44994548764E+02 -0.29656816582E+01  0.72209573139E+02  0.85132409452E+02  0.00000000000E+00 0.  1.
<mgrwt>
<rscale>  0 0.92232991E+02</rscale>
<asrwt>0</asrwt>
<pdfrwt beam="1">  1        2 0.30625342E-01 0.92232991E+02</pdfrwt>
<pdfrwt beam="2">  1       -2 0.16436333E-02 0.92232991E+02</pdfrwt>
<totfact> 0.14969573E+05</totfact>
</mgrwt>
</event>
<event>
 5    1  0.6004828E+000  0.9297916E+02  0.7546771E-02  0.1295793E+00
         -2   -1    0    0    0  501 -0.00000000000E+00  0.00000000000E+00  0.57495120041E+02  0.57495120041E+02  0.00000000000E+00 0.  1.
          2   -1    0    0  501    0  0.00000000000E+00 -0.00000000000E+00 -0.37590684668E+02  0.37590684668E+02  0.00000000000E+00 0. -1.
         23    2    1    2    0    0  0.00000000000E+00  0.00000000000E+00  0.19904435373E+02  0.95085804709E+02  0.92979157394E+02 0.  0.
        -11    1    3    3    0    0 -0.11455428290E+02 -0.47301677559E+01  0.55774559805E+02  0.57134952926E+02  0.00000000000E+00 0.  1.
         11    1    3    3    0    0  0.11455428290E+02  0.47301677559E+01 -0.35870124432E+02  0.37950851783E+02  0.00000000000E+00 0. -1.
<mgrwt>
<rscale>  0 0.92979157E+02</rscale>
<asrwt>0</asrwt>
<pdfrwt beam="2">  1        2 0.57831823E-02 0.92979157E+02</pdfrwt>
<pdfrwt beam="1">  1       -2 0.88454031E-02 0.92979157E+02</pdfrwt>
<totfact> 0.88651596E+04</totfact>
</mgrwt>
</event>
<event>
 5    1  0.6004828E+000  0.9071752E+02  0.7546771E-02  0.1301123E+00
          3   -1    0    0  501    0  0.00000000000E+00  0.00000000000E+00  0.18769043437E+02  0.18769043437E+02  0.00000000000E+00 0. -1.
         -3   -1    0    0    0  501 -0.00000000000E+00 -0.00000000000E+00 -0.10961758324E+03  0.10961758324E+03  0.00000000000E+00 0.  1.
         23    2    1    2    0    0  0.00000000000E+00  0.00000000000E+00 -0.90848539800E+02  0.12838662667E+03  0.90717521598E+02 0.  0.
        -11    1    3    3    0    0  0.38928112027E+02  0.63410629270E+01 -0.77127123265E+02  0.86626786435E+02  0.00000000000E+00 0.  1.
         11    1    3    3    0    0 -0.38928112027E+02 -0.63410629270E+01 -0.13721416535E+02  0.41759840238E+02  0.00000000000E+00 0. -1.
<mgrwt>
<rscale>  0 0.90717522E+02</rscale>
<asrwt>0</asrwt>
<pdfrwt beam="1">  1        3 0.28875452E-02 0.90717522E+02</pdfrwt>
<pdfrwt beam="2">  1       -3 0.16864243E-01 0.90717522E+02</pdfrwt>
<totfact> 0.33134506E+04</totfact>
</mgrwt>
</event>
<event>
 5    1  0.6004828E+000  0.9237039E+02  0.7546771E-02  0.1297211E+00
         -1   -1    0    0    0  501 -0.00000000000E+00  0.00000000000E+00  0.15061960000E+02  0.15061960000E+02  0.00000000000E+00 0.  1.
          1   -1    0    0  501    0  0.00000000000E+00 -0.00000000000E+00 -0.14161982875E+03  0.14161982875E+03  0.00000000000E+00 0. -1.
         23    2    1    2    0    0  0.00000000000E+00  0.00000000000E+00 -0.12655786875E+03  0.15668178875E+03  0.92370389103E+02 0.  0.
        -11    1    3    3    0    0 -0.38132681003E+02 -0.23720868314E+02 -0.44987016122E+02  0.63565812932E+02  0.00000000000E+00 0. -1.
         11    1    3    3    0    0  0.38132681003E+02  0.23720868314E+02 -0.81570852627E+02  0.93115975817E+02  0.00000000000E+00 0.  1.
<mgrwt>
<rscale>  0 0.92370389E+02</rscale>
<asrwt>0</asrwt>
<pdfrwt beam="2">  1        1 0.21787666E-01 0.92370389E+02</pdfrwt>
<pdfrwt beam="1">  1       -1 0.23172247E-02 0.92370389E+02</pdfrwt>
<totfact> 0.10712446E+05</totfact>
</mgrwt>
</event>
<event>
 5    1  0.6004828E+000  0.9493455E+02  0.7546771E-02  0.1291324E+00
         -2   -1    0    0    0  501 -0.00000000000E+00  0.00000000000E+00  0.41251160298E+02  0.41251160298E+02  0.00000000000E+00 0.  1.
          2   -1    0    0  501    0  0.00000000000E+00 -0.00000000000E+00 -0.54620092766E+02  0.54620092766E+02  0.00000000000E+00 0. -1.
         23    2    1    2    0    0  0.00000000000E+00  0.00000000000E+00 -0.13368932468E+02  0.95871253064E+02  0.94934550132E+02 0.  0.
        -11    1    3    3    0    0  0.36261264695E+02  0.21880844507E+02  0.14962790183E+02  0.44916987473E+02  0.00000000000E+00 0.  1.
         11    1    3    3    0    0 -0.36261264695E+02 -0.21880844507E+02 -0.28331722650E+02  0.50954265591E+02  0.00000000000E+00 0. -1.
<mgrwt>
<rscale>  0 0.94934550E+02</rscale>
<asrwt>0</asrwt>
<pdfrwt beam="2">  1        2 0.84030911E-02 0.94934550E+02</pdfrwt>
<pdfrwt beam="1">  1       -2 0.63463324E-02 0.94934550E+02</pdfrwt>
<totfact> 0.92204519E+04</totfact>
</mgrwt>
</event>
<event>
 5    1  0.6004828E+000  0.8439473E+02  0.7546771E-02  0.1317023E+00
          1   -1    0    0  501    0  0.00000000000E+00  0.00000000000E+00  0.56363061947E+02  0.56363061947E+02  0.00000000000E+00 0. -1.
         -1   -1    0    0    0  501 -0.00000000000E+00 -0.00000000000E+00 -0.31591923514E+02  0.31591923514E+02  0.00000000000E+00 0.  1.
         23    2    1    2    0    0  0.00000000000E+00  0.00000000000E+00  0.24771138433E+02  0.87954985461E+02  0.84394728319E+02 0.  0.
        -11    1    3    3    0    0 -0.35455505688E+02  0.22853190156E+02  0.13553727961E+02  0.44306486270E+02  0.00000000000E+00 0.  1.
         11    1    3    3    0    0  0.35455505688E+02 -0.22853190156E+02  0.11217410472E+02  0.43648499191E+02  0.00000000000E+00 0. -1.
<mgrwt>
<rscale>  0 0.84394728E+02</rscale>
<asrwt>0</asrwt>
<pdfrwt beam="1">  1        1 0.86712403E-02 0.84394728E+02</pdfrwt>
<pdfrwt beam="2">  1       -1 0.48602959E-02 0.84394728E+02</pdfrwt>
<totfact> 0.11819020E+05</totfact>
</mgrwt>
</event>
<event>
 5    1  0.6004828E+000  0.9325421E+02  0.7546771E-02  0.1295157E+00
          2   -1    0    0  501    0  0.00000000000E+00  0.00000000000E+00  0.17449570740E+02  0.17449570740E+02  0.00000000000E+00 0. -1.
         -2   -1    0    0    0  501 -0.00000000000E+00 -0.00000000000E+00 -0.12459256005E+03  0.12459256005E+03  0.00000000000E+00 0.  1.
         23    2    1    2    0    0  0.00000000000E+00  0.00000000000E+00 -0.10714298931E+03  0.14204213079E+03  0.93254205058E+02 0.  0.
        -11    1    3    3    0    0 -0.26729972190E+02  0.32416685316E+02 -0.84366455101E+02  0.94249836320E+02  0.00000000000E+00 0.  1.
         11    1    3    3    0    0  0.26729972190E+02 -0.32416685316E+02 -0.22776534211E+02  0.47792294471E+02  0.00000000000E+00 0. -1.
<mgrwt>
<rscale>  0 0.93254205E+02</rscale>
<asrwt>0</asrwt>
<pdfrwt beam="1">  1        2 0.26845493E-02 0.93254205E+02</pdfrwt>
<pdfrwt beam="2">  1       -2 0.19168087E-01 0.93254205E+02</pdfrwt>
<totfact> 0.70391800E+04</totfact>
</mgrwt>
</event>
<event>
 5    1  0.6004828E+000  0.8979244E+02  0.7546771E-02  0.1303355E+00
         -2   -1    0    0    0  501 -0.00000000000E+00  0.00000000000E+00  0.83448394585E+02  0.83448394585E+02  0.00000000000E+00 0.  1.
          2   -1    0    0  501    0  0.00000000000E+00 -0.00000000000E+00 -0.24154697955E+02  0.24154697955E+02  0.00000000000E+00 0. -1.
         23    2    1    2    0    0  0.00000000000E+00  0.00000000000E+00  0.59293696630E+02  0.10760309254E+03  0.89792444361E+02 0.  0.
        -11    1    3    3    0    0  0.33576554732E+02  0.28959831078E+02  0.38087709151E+02  0.58452805169E+02  0.00000000000E+00 0.  1.
         11    1    3    3    0    0 -0.33576554732E+02 -0.28959831078E+02  0.21205987479E+02  0.49150287372E+02  0.00000000000E+00 0. -1.
<mgrwt>
<rscale>  0 0.89792444E+02</rscale>
<asrwt>0</asrwt>
<pdfrwt beam="2">  1        2 0.37161074E-02 0.89792444E+02</pdfrwt>
<pdfrwt beam="1">  1       -2 0.12838214E-01 0.89792444E+02</pdfrwt>
<totfact> 0.87314517E+04</totfact>
</mgrwt>
</event>
<event>
 5    1  0.6004828E+000  0.9095561E+02  0.7546771E-02  0.1300554E+00
         -1   -1    0    0    0  501 -0.00000000000E+00  0.00000000000E+00  0.44350071539E+02  0.44350071539E+02  0.00000000000E+00 0. -1.
          1   -1    0    0  501    0  0.00000000000E+00 -0.00000000000E+00 -0.46634210525E+02  0.46634210525E+02  0.00000000000E+00 0.  1.
         23    2    1    2    0    0  0.00000000000E+00  0.00000000000E+00 -0.22841389861E+01  0.90984282064E+02  0.90955606159E+02 0.  0.
        -11    1    3    3    0    0 -0.16940075236E+02  0.13892614868E+02  0.38723470849E+02  0.44491326025E+02  0.00000000000E+00 0. -1.
         11    1    3    3    0    0  0.16940075236E+02 -0.13892614868E+02 -0.41007609835E+02  0.46492956039E+02  0.00000000000E+00 0.  1.
<mgrwt>
<rscale>  0 0.90955606E+02</rscale>
<asrwt>0</asrwt>
<pdfrwt beam="2">  1        1 0.71744939E-02 0.90955606E+02</pdfrwt>
<pdfrwt beam="1">  1       -1 0.68230879E-02 0.90955606E+02</pdfrwt>
<totfact> 0.93422344E+04</totfact>
</mgrwt>
</event>
<event>
 5    1  0.6004828E+000  0.9152805E+02  0.7546771E-02  0.1299193E+00
          3   -1    0    0  501    0  0.00000000000E+00  0.00000000000E+00  0.21774410085E+02  0.21774410085E+02  0.00000000000E+00 0. -1.
         -3   -1    0    0    0  501 -0.00000000000E+00 -0.00000000000E+00 -0.96183822741E+02  0.96183822741E+02  0.00000000000E+00 0.  1.
         23    2    1    2    0    0  0.00000000000E+00  0.00000000000E+00 -0.74409412656E+02  0.11795823283E+03  0.91528050344E+02 0.  0.
        -11    1    3    3    0    0 -0.31637480204E+02  0.22106161162E+02 -0.55122387622E+01  0.38987142639E+02  0.00000000000E+00 0. -1.
         11    1    3    3    0    0  0.31637480204E+02 -0.22106161162E+02 -0.68897173893E+02  0.78971090188E+02  0.00000000000E+00 0.  1.
<mgrwt>
<rscale>  0 0.91528050E+02</rscale>
<asrwt>0</asrwt>
<pdfrwt beam="1">  1        3 0.33499093E-02 0.91528050E+02</pdfrwt>
<pdfrwt beam="2">  1       -3 0.14797511E-01 0.91528050E+02</pdfrwt>
<totfact> 0.33040706E+04</totfact>
</mgrwt>
</event>
<event>
 5    1  0.6004828E+000  0.9084221E+02  0.7546771E-02  0.1300825E+00
         -1   -1    0    0    0  501 -0.00000000000E+00  0.00000000000E+00  0.85702419194E+01  0.85702419194E+01  0.00000000000E+00 0.  1.
          1   -1    0    0  501    0  0.00000000000E+00 -0.00000000000E+00 -0.24072559165E+03  0.24072559165E+03  0.00000000000E+00 0. -1.
         23    2    1    2    0    0  0.00000000000E+00  0.00000000000E+00 -0.23215534973E+03  0.24929583357E+03  0.90842205096E+02 0.  0.
        -11    1    3    3    0    0  0.43705737417E+02 -0.36693065324E+01 -0.83674179579E+02  0.94472343158E+02  0.00000000000E+00 0. -1.
         11    1    3    3    0    0 -0.43705737417E+02  0.36693065324E+01 -0.14848117016E+03  0.15482349042E+03  0.00000000000E+00 0.  1.
<mgrwt>
<rscale>  0 0.90842205E+02</rscale>
<asrwt>0</asrwt>
<pdfrwt beam="2">  1        1 0.37034700E-01 0.90842205E+02</pdfrwt>
<pdfrwt beam="1">  1       -1 0.13184990E-02 0.90842205E+02</pdfrwt>
<totfact> 0.12397429E+05</totfact>
</mgrwt>
</event>
<event>
 5    1  0.6004828E+000  0.8204829E+02  0.7546771E-02  0.1323337E+00
          1   -1    0    0  501    0  0.00000000000E+00  0.00000000000E+00  0.25255888004E+03  0.25255888004E+03  0.00000000000E+00 0. -1.
         -1   -1    0    0    0  501 -0.00000000000E+00 -0.00000000000E+00 -0.66637157951E+01  0.66637157951E+01  0.00000000000E+00 0.  1.
         23    2    1    2    0    0  0.00000000000E+00  0.00000000000E+00  0.24589516425E+03  0.25922259584E+03  0.82048293051E+02 0.  0.
        -11    1    3    3    0    0 -0.23062626042E+02 -0.25155451561E+02  0.19487484716E+03  0.19784056085E+03  0.00000000000E+00 0. -1.
         11    1    3    3    0    0  0.23062626042E+02  0.25155451561E+02  0.51020317092E+02  0.61382034989E+02  0.00000000000E+00 0.  1.
<mgrwt>
<rscale>  0 0.82048293E+02</rscale>
<asrwt>0</asrwt>
<pdfrwt beam="1">  1        1 0.38855205E-01 0.82048293E+02</pdfrwt>
<pdfrwt beam="2">  1       -1 0.10251872E-02 0.82048293E+02</pdfrwt>
<totfact> 0.16397130E+05</totfact>
</mgrwt>
</event>
<event>
 5    1  0.6004828E+000  0.1001937E+03  0.7546771E-02  0.1279889E+00
          1   -1    0    0  501    0  0.00000000000E+00  0.00000000000E+00  0.12778489635E+03  0.12778489635E+03  0.00000000000E+00 0. -1.
         -1   -1    0    0    0  501 -0.00000000000E+00 -0.00000000000E+00 -0.19640006239E+02  0.19640006239E+02  0.00000000000E+00 0.  1.
         23    2    1    2    0    0  0.00000000000E+00  0.00000000000E+00  0.10814489011E+03  0.14742490259E+03  0.10019373556E+03 0.  0.
        -11    1    3    3    0    0  0.21404930823E+02  0.17960551690E+02 -0.71091371435E+01  0.28832140252E+02  0.00000000000E+00 0.  1.
         11    1    3    3    0    0 -0.21404930823E+02 -0.17960551690E+02  0.11525402725E+03  0.11859276234E+03  0.00000000000E+00 0. -1.
<mgrwt>
<rscale>  0 0.10019374E+03</rscale>
<asrwt>0</asrwt>
<pdfrwt beam="1">  1        1 0.19659214E-01 0.10019374E+03</pdfrwt>
<pdfrwt beam="2">  1       -1 0.30215395E-02 0.10019374E+03</pdfrwt>
<totfact> 0.84245110E+04</totfact>
</mgrwt>
</event>
<event>
 5    1  0.6004828E+000  0.9178383E+02  0.7546771E-02  0.1298588E+00
         -1   -1    0    0    0  501 -0.00000000000E+00  0.00000000000E+00  0.78440510384E+01  0.78440510384E+01  0.00000000000E+00 0.  1.
          1   -1    0    0  501    0  0.00000000000E+00 -0.00000000000E+00 -0.26849237925E+03  0.26849237925E+03  0.00000000000E+00 0. -1.
         23    2    1    2    0    0  0.00000000000E+00  0.00000000000E+00 -0.26064832821E+03  0.27633643029E+03  0.91783831392E+02 0.  0.
        -11    1    3    3    0    0 -0.21224765639E+02 -0.40602252178E+02 -0.13830934025E+03  0.14570005888E+03  0.00000000000E+00 0.  1.
         11    1    3    3    0    0  0.21224765639E+02  0.40602252178E+02 -0.12233898797E+03  0.13063637141E+03  0.00000000000E+00 0. -1.
<mgrwt>
<rscale>  0 0.91783831E+02</rscale>
<asrwt>0</asrwt>
<pdfrwt beam="2">  1        1 0.41306522E-01 0.91783831E+02</pdfrwt>
<pdfrwt beam="1">  1       -1 0.12067770E-02 0.91783831E+02</pdfrwt>
<totfact> 0.12320202E+05</totfact>
</mgrwt>
</event>
<event>
 5    1  0.6004828E+000  0.9131593E+02  0.7546771E-02  0.1299696E+00
          1   -1    0    0  501    0  0.00000000000E+00  0.00000000000E+00  0.44213837259E+02  0.44213837259E+02  0.00000000000E+00 0. -1.
         -1   -1    0    0    0  501 -0.00000000000E+00 -0.00000000000E+00 -0.47149257826E+02  0.47149257826E+02  0.00000000000E+00 0.  1.
         23    2    1    2    0    0  0.00000000000E+00  0.00000000000E+00 -0.29354205668E+01  0.91363095085E+02  0.91315926593E+02 0.  0.
        -11    1    3    3    0    0  0.35818919029E+02  0.55774905959E+01 -0.29240763680E+02  0.46573872743E+02  0.00000000000E+00 0.  1.
         11    1    3    3    0    0 -0.35818919029E+02 -0.55774905959E+01  0.26305343113E+02  0.44789222342E+02  0.00000000000E+00 0. -1.
<mgrwt>
<rscale>  0 0.91315927E+02</rscale>
<asrwt>0</asrwt>
<pdfrwt beam="1">  1        1 0.68021288E-02 0.91315927E+02</pdfrwt>
<pdfrwt beam="2">  1       -1 0.72537319E-02 0.91315927E+02</pdfrwt>
<totfact> 0.91653250E+04</totfact>
</mgrwt>
</event>
<event>
 5    1  0.6004828E+000  0.9132878E+02  0.7546771E-02  0.1299665E+00
         -1   -1    0    0    0  501 -0.00000000000E+00  0.00000000000E+00  0.11133588044E+02  0.11133588044E+02  0.00000000000E+00 0.  1.
          1   -1    0    0  501    0  0.00000000000E+00 -0.00000000000E+00 -0.18729240062E+03  0.18729240062E+03  0.00000000000E+00 0. -1.
         23    2    1    2    0    0  0.00000000000E+00  0.00000000000E+00 -0.17615881258E+03  0.19842598867E+03  0.91328778210E+02 0.  0.
        -11    1    3    3    0    0  0.40293096677E+02  0.15202911703E+02 -0.55088342104E+02  0.69924156054E+02  0.00000000000E+00 0.  1.
         11    1    3    3    0    0 -0.40293096677E+02 -0.15202911703E+02 -0.12107047047E+03  0.12850183261E+03  0.00000000000E+00 0. -1.
<mgrwt>
<rscale>  0 0.91328778E+02</rscale>
<asrwt>0</asrwt>
<pdfrwt beam="2">  1        1 0.28814214E-01 0.91328778E+02</pdfrwt>
<pdfrwt beam="1">  1       -1 0.17128598E-02 0.91328778E+02</pdfrwt>
<totfact> 0.11639160E+05</totfact>
</mgrwt>
</event>
<event>
 5    1  0.6004828E+000  0.9208035E+02  0.7546771E-02  0.1297891E+00
         -4   -1    0    0    0  501 -0.00000000000E+00  0.00000000000E+00  0.22049269654E+02  0.22049269654E+02  0.00000000000E+00 0.  1.
          4   -1    0    0  501    0  0.00000000000E+00 -0.00000000000E+00 -0.96134598048E+02  0.96134598048E+02  0.00000000000E+00 0. -1.
         23    2    1    2    0    0  0.00000000000E+00  0.00000000000E+00 -0.74085328394E+02  0.11818386770E+03  0.92080349161E+02 0.  0.
        -11    1    3    3    0    0  0.15804570710E+02  0.29697003886E+02  0.33005014028E+01  0.33802215972E+02  0.00000000000E+00 0. -1.
         11    1    3    3    0    0 -0.15804570710E+02 -0.29697003886E+02 -0.77385829797E+02  0.84381651729E+02  0.00000000000E+00 0.  1.
<mgrwt>
<rscale>  0 0.92080349E+02</rscale>
<asrwt>0</asrwt>
<pdfrwt beam="2">  1        4 0.14789938E-01 0.92080349E+02</pdfrwt>
<pdfrwt beam="1">  1       -4 0.33921954E-02 0.92080349E+02</pdfrwt>
<totfact> 0.24707106E+04</totfact>
</mgrwt>
</event>
<event>
 5    1  0.6004828E+000  0.9165772E+02  0.7546771E-02  0.1298886E+00
         -2   -1    0    0    0  501 -0.00000000000E+00  0.00000000000E+00  0.12080650301E+02  0.12080650301E+02  0.00000000000E+00 0. -1.
          2   -1    0    0  501    0  0.00000000000E+00 -0.00000000000E+00 -0.17385522857E+03  0.17385522857E+03  0.00000000000E+00 0.  1.
         23    2    1    2    0    0  0.00000000000E+00  0.00000000000E+00 -0.16177457827E+03  0.18593587887E+03  0.91657715863E+02 0.  0.
        -11    1    3    3    0    0  0.35166712538E+02  0.29119583076E+02 -0.72865652718E+02  0.85988668645E+02  0.00000000000E+00 0. -1.
         11    1    3    3    0    0 -0.35166712538E+02 -0.29119583076E+02 -0.88908925549E+02  0.99947210224E+02  0.00000000000E+00 0.  1.
<mgrwt>
<rscale>  0 0.91657716E+02</rscale>
<asrwt>0</asrwt>
<pdfrwt beam="2">  1        2 0.26746958E-01 0.91657716E+02</pdfrwt>
<pdfrwt beam="1">  1       -2 0.18585616E-02 0.91657716E+02</pdfrwt>
<totfact> 0.14505127E+05</totfact>
</mgrwt>
</event>
<event>
 5    1  0.6004828E+000  0.8743760E+02  0.7546771E-02  0.1309178E+00
         -1   -1    0    0    0  501 -0.00000000000E+00  0.00000000000E+00  0.37280573156E+02  0.37280573156E+02  0.00000000000E+00 0.  1.
          1   -1    0    0  501    0  0.00000000000E+00 -0.00000000000E+00 -0.51268887674E+02  0.51268887674E+02  0.00000000000E+00 0. -1.
         23    2    1    2    0    0  0.00000000000E+00  0.00000000000E+00 -0.13988314519E+02  0.88549460830E+02  0.87437601009E+02 0.  0.
        -11    1    3    3    0    0  0.61169414465E+01 -0.30440906970E+02  0.24174928110E+02  0.39350895021E+02  0.00000000000E+00 0.  1.
         11    1    3    3    0    0 -0.61169414465E+01  0.30440906970E+02 -0.38163242628E+02  0.49198565809E+02  0.00000000000E+00 0. -1.
<mgrwt>
<rscale>  0 0.87437601E+02</rscale>
<asrwt>0</asrwt>
<pdfrwt beam="2">  1        1 0.78875212E-02 0.87437601E+02</pdfrwt>
<pdfrwt beam="1">  1       -1 0.57354728E-02 0.87437601E+02</pdfrwt>
<totfact> 0.10573859E+05</totfact>
</mgrwt>
</event>
<event>
 5    1  0.6004828E+000  0.1056390E+03  0.7546771E-02  0.1268866E+00
         -3   -1    0    0    0  501 -0.00000000000E+00  0.00000000000E+00  0.48220441523E+02  0.48220441523E+02  0.00000000000E+00 0.  1.
          3   -1    0    0  501    0  0.00000000000E+00 -0.00000000000E+00 -0.57857239531E+02  0.57857239531E+02  0.00000000000E+00 0. -1.
         23    2    1    2    0    0  0.00000000000E+00  0.00000000000E+00 -0.96367980085E+01  0.10607768105E+03  0.10563903891E+03 0.  0.
        -11    1    3    3    0    0 -0.38656892591E+02  0.32518767949E+02  0.10675381680E+02  0.51631283034E+02  0.00000000000E+00 0.  1.
         11    1    3    3    0    0  0.38656892591E+02 -0.32518767949E+02 -0.20312179688E+02  0.54446398020E+02  0.00000000000E+00 0. -1.
<mgrwt>
<rscale>  0 0.10563904E+03</rscale>
<asrwt>0</asrwt>
<pdfrwt beam="2">  1        3 0.89011138E-02 0.10563904E+03</pdfrwt>
<pdfrwt beam="1">  1       -3 0.74185294E-02 0.10563904E+03</pdfrwt>
<totfact> 0.22844538E+04</totfact>
</mgrwt>
</event>
<event>
 5    1  0.6004828E+000  0.9199387E+02  0.7546771E-02  0.1298094E+00
          1   -1    0    0  501    0  0.00000000000E+00  0.00000000000E+00  0.60877674729E+01  0.60877674729E+01  0.00000000000E+00 0. -1.
         -1   -1    0    0    0  501 -0.00000000000E+00 -0.00000000000E+00 -0.34753591319E+03  0.34753591319E+03  0.00000000000E+00 0.  1.
         23    2    1    2    0    0  0.00000000000E+00  0.00000000000E+00 -0.34144814572E+03  0.35362368067E+03  0.91993865622E+02 0.  0.
        -11    1    3    3    0    0 -0.42652219578E+02 -0.16417361006E+02 -0.19068925451E+03  0.19608960544E+03  0.00000000000E+00 0.  1.
         11    1    3    3    0    0  0.42652219578E+02  0.16417361006E+02 -0.15075889121E+03  0.15753407522E+03  0.00000000000E+00 0. -1.
<mgrwt>
<rscale>  0 0.91993866E+02</rscale>
<asrwt>0</asrwt>
<pdfrwt beam="1">  1        1 0.93657960E-03 0.91993866E+02</pdfrwt>
<pdfrwt beam="2">  1       -1 0.53467064E-01 0.91993866E+02</pdfrwt>
<totfact> 0.55650464E+04</totfact>
</mgrwt>
</event>
<event>
 5    1  0.6004828E+000  0.8870534E+02  0.7546771E-02  0.1306018E+00
         -1   -1    0    0    0  501 -0.00000000000E+00  0.00000000000E+00  0.19583688105E+02  0.19583688105E+02  0.00000000000E+00 0.  1.
          1   -1    0    0  501    0  0.00000000000E+00 -0.00000000000E+00 -0.10044886985E+03  0.10044886985E+03  0.00000000000E+00 0. -1.
         23    2    1    2    0    0  0.00000000000E+00  0.00000000000E+00 -0.80865181743E+02  0.12003255795E+03  0.88705340034E+02 0.  0.
        -11    1    3    3    0    0 -0.27156830053E+02  0.23355343567E+02 -0.50378385221E+01  0.36171056228E+02  0.00000000000E+00 0.  1.
         11    1    3    3    0    0  0.27156830053E+02 -0.23355343567E+02 -0.75827343221E+02  0.83861501725E+02  0.00000000000E+00 0. -1.
<mgrwt>
<rscale>  0 0.88705340E+02</rscale>
<asrwt>0</asrwt>
<pdfrwt beam="2">  1        1 0.15453672E-01 0.88705340E+02</pdfrwt>
<pdfrwt beam="1">  1       -1 0.30128751E-02 0.88705340E+02</pdfrwt>
<totfact> 0.11263832E+05</totfact>
</mgrwt>
</event>
<event>
 5    1  0.6004828E+000  0.9154978E+02  0.7546771E-02  0.1299141E+00
          1   -1    0    0  501    0  0.00000000000E+00  0.00000000000E+00  0.43701792565E+02  0.43701792565E+02  0.00000000000E+00 0. -1.
         -1   -1    0    0    0  501 -0.00000000000E+00 -0.00000000000E+00 -0.47946333454E+02  0.47946333454E+02  0.00000000000E+00 0.  1.
         23    2    1    2    0    0  0.00000000000E+00  0.00000000000E+00 -0.42445408893E+01  0.91648126020E+02  0.91549783591E+02 0.  0.
        -11    1    3    3    0    0  0.14966781915E+02 -0.29031500424E+02 -0.34227082653E+02  0.47310947620E+02  0.00000000000E+00 0.  1.
         11    1    3    3    0    0 -0.14966781915E+02  0.29031500424E+02  0.29982541764E+02  0.44337178399E+02  0.00000000000E+00 0. -1.
<mgrwt>
<rscale>  0 0.91549784E+02</rscale>
<asrwt>0</asrwt>
<pdfrwt beam="1">  1        1 0.67233527E-02 0.91549784E+02</pdfrwt>
<pdfrwt beam="2">  1       -1 0.73763590E-02 0.91549784E+02</pdfrwt>
<totfact> 0.90835574E+04</totfact>
</mgrwt>
</event>
<event>
 5    1  0.6004828E+000  0.9278013E+02  0.7546771E-02  0.1296256E+00
         -3   -1    0    0    0  501 -0.00000000000E+00  0.00000000000E+00  0.57730109027E+02  0.57730109027E+02  0.00000000000E+00 0.  1.
          3   -1    0    0  501    0  0.00000000000E+00 -0.00000000000E+00 -0.37277565910E+02  0.37277565910E+02  0.00000000000E+00 0. -1.
         23    2    1    2    0    0  0.00000000000E+00  0.00000000000E+00  0.20452543117E+02  0.95007674937E+02  0.92780125981E+02 0.  0.
        -11    1    3    3    0    0 -0.23487411116E+02 -0.15156218178E+02  0.48137682728E+02  0.55665123092E+02  0.00000000000E+00 0.  1.
         11    1    3    3    0    0  0.23487411116E+02  0.15156218178E+02 -0.27685139612E+02  0.39342551845E+02  0.00000000000E+00 0. -1.
<mgrwt>
<rscale>  0 0.92780126E+02</rscale>
<asrwt>0</asrwt>
<pdfrwt beam="2">  1        3 0.57350102E-02 0.92780126E+02</pdfrwt>
<pdfrwt beam="1">  1       -3 0.88815552E-02 0.92780126E+02</pdfrwt>
<totfact> 0.33418139E+04</totfact>
</mgrwt>
</event>
<event>
 5    1  0.6004828E+000  0.8855250E+02  0.7546771E-02  0.1306395E+00
          2   -1    0    0  501    0  0.00000000000E+00  0.00000000000E+00  0.52939185625E+02  0.52939185625E+02  0.00000000000E+00 0. -1.
         -2   -1    0    0    0  501 -0.00000000000E+00 -0.00000000000E+00 -0.37030908018E+02  0.37030908018E+02  0.00000000000E+00 0.  1.
         23    2    1    2    0    0  0.00000000000E+00  0.00000000000E+00  0.15908277607E+02  0.89970093642E+02  0.88552495468E+02 0.  0.
        -11    1    3    3    0    0  0.29503614542E+02 -0.29762748473E+02  0.22469258495E+02  0.47551572477E+02  0.00000000000E+00 0.  1.
         11    1    3    3    0    0 -0.29503614542E+02  0.29762748473E+02 -0.65609808880E+01  0.42418521166E+02  0.00000000000E+00 0. -1.
<mgrwt>
<rscale>  0 0.88552495E+02</rscale>
<asrwt>0</asrwt>
<pdfrwt beam="1">  1        2 0.81444902E-02 0.88552495E+02</pdfrwt>
<pdfrwt beam="2">  1       -2 0.56970627E-02 0.88552495E+02</pdfrwt>
<totfact> 0.11144712E+05</totfact>
</mgrwt>
</event>
<event>
 5    1  0.6004828E+000  0.9788673E+02  0.7546771E-02  0.1284804E+00
         -2   -1    0    0    0  501 -0.00000000000E+00  0.00000000000E+00  0.19514972417E+02  0.19514972417E+02  0.00000000000E+00 0.  1.
          2   -1    0    0  501    0  0.00000000000E+00 -0.00000000000E+00 -0.12274950445E+03  0.12274950445E+03  0.00000000000E+00 0. -1.
         23    2    1    2    0    0  0.00000000000E+00  0.00000000000E+00 -0.10323453204E+03  0.14226447687E+03  0.97886734414E+02 0.  0.
        -11    1    3    3    0    0 -0.28607076736E+02 -0.93471870805E+01  0.44778084451E+01  0.30426723684E+02  0.00000000000E+00 0.  1.
         11    1    3    3    0    0  0.28607076736E+02  0.93471870805E+01 -0.10771234048E+03  0.11183775319E+03  0.00000000000E+00 0. -1.
<mgrwt>
<rscale>  0 0.97886734E+02</rscale>
<asrwt>0</asrwt>
<pdfrwt beam="2">  1        2 0.18884539E-01 0.97886734E+02</pdfrwt>
<pdfrwt beam="1">  1       -2 0.30023034E-02 0.97886734E+02</pdfrwt>
<totfact> 0.10762848E+05</totfact>
</mgrwt>
</event>
<event>
 5    1  0.6004828E+000  0.8894965E+02  0.7546771E-02  0.1305415E+00
          3   -1    0    0  501    0  0.00000000000E+00  0.00000000000E+00  0.22291855800E+02  0.22291855800E+02  0.00000000000E+00 0. -1.
         -3   -1    0    0    0  501 -0.00000000000E+00 -0.00000000000E+00 -0.88732399435E+02  0.88732399435E+02  0.00000000000E+00 0.  1.
         23    2    1    2    0    0  0.00000000000E+00  0.00000000000E+00 -0.66440543635E+02  0.11102425523E+03  0.88949645373E+02 0.  0.
        -11    1    3    3    0    0  0.34079378606E+02 -0.16771246704E+02 -0.43410902599E+01  0.38229881334E+02  0.00000000000E+00 0. -1.
         11    1    3    3    0    0 -0.34079378606E+02  0.16771246704E+02 -0.62099453375E+02  0.72794373901E+02  0.00000000000E+00 0.  1.
<mgrwt>
<rscale>  0 0.88949645E+02</rscale>
<asrwt>0</asrwt>
<pdfrwt beam="1">  1        3 0.34295163E-02 0.88949645E+02</pdfrwt>
<pdfrwt beam="2">  1       -3 0.13651138E-01 0.88949645E+02</pdfrwt>
<totfact> 0.36221701E+04</totfact>
</mgrwt>
</event>
<event>
 5    1  0.6004828E+000  0.9129357E+02  0.7546771E-02  0.1299749E+00
          1   -1    0    0  501    0  0.00000000000E+00  0.00000000000E+00  0.17218476481E+03  0.17218476481E+03  0.00000000000E+00 0. -1.
         -1   -1    0    0    0  501 -0.00000000000E+00 -0.00000000000E+00 -0.12101122510E+02  0.12101122510E+02  0.00000000000E+00 0.  1.
         23    2    1    2    0    0  0.00000000000E+00  0.00000000000E+00  0.16008364230E+03  0.18428588732E+03  0.91293568957E+02 0.  0.
        -11    1    3    3    0    0 -0.12757996557E+01  0.45628113714E+02  0.80600167315E+02  0.92627962284E+02  0.00000000000E+00 0.  1.
         11    1    3    3    0    0  0.12757996557E+01 -0.45628113714E+02  0.79483474983E+02  0.91657925033E+02  0.00000000000E+00 0. -1.
<mgrwt>
<rscale>  0 0.91293569E+02</rscale>
<asrwt>0</asrwt>
<pdfrwt beam="1">  1        1 0.26489962E-01 0.91293569E+02</pdfrwt>
<pdfrwt beam="2">  1       -1 0.18617113E-02 0.91293569E+02</pdfrwt>
<totfact> 0.11465655E+05</totfact>
</mgrwt>
</event>
<event>
 5    1  0.6004828E+000  0.9015676E+02  0.7546771E-02  0.1302473E+00
          1   -1    0    0  501    0  0.00000000000E+00  0.00000000000E+00  0.15195069895E+03  0.15195069895E+03  0.00000000000E+00 0. -1.
         -1   -1    0    0    0  501 -0.00000000000E+00 -0.00000000000E+00 -0.13373156483E+02  0.13373156483E+02  0.00000000000E+00 0.  1.
         23    2    1    2    0    0  0.00000000000E+00  0.00000000000E+00  0.13857754247E+03  0.16532385544E+03  0.90156762915E+02 0.  0.
        -11    1    3    3    0    0  0.40971668573E+02 -0.16011169777E+02  0.51226195004E+02  0.67521539067E+02  0.00000000000E+00 0.  1.
         11    1    3    3    0    0 -0.40971668573E+02  0.16011169777E+02  0.87351347466E+02  0.97802316370E+02  0.00000000000E+00 0. -1.
<mgrwt>
<rscale>  0 0.90156763E+02</rscale>
<asrwt>0</asrwt>
<pdfrwt beam="1">  1        1 0.23377029E-01 0.90156763E+02</pdfrwt>
<pdfrwt beam="2">  1       -1 0.20574088E-02 0.90156763E+02</pdfrwt>
<totfact> 0.11585817E+05</totfact>
</mgrwt>
</event>
<event>
 5    1  0.6004828E+000  0.8316913E+02  0.7546771E-02  0.1320291E+00
         -1   -1    0    0    0  501 -0.00000000000E+00  0.00000000000E+00  0.87607229171E+02  0.87607229171E+02  0.00000000000E+00 0.  1.
          1   -1    0    0  501    0  0.00000000000E+00 -0.00000000000E+00 -0.19738963577E+02  0.19738963577E+02  0.00000000000E+00 0. -1.
         23    2    1    2    0    0  0.00000000000E+00  0.00000000000E+00  0.67868265594E+02  0.10734619275E+03  0.83169126620E+02 0.  0.
        -11    1    3    3    0    0 -0.20261017546E+02 -0.33917620482E+02  0.50681504714E+02  0.64261409347E+02  0.00000000000E+00 0.  1.
         11    1    3    3    0    0  0.20261017546E+02  0.33917620482E+02  0.17186760880E+02  0.43084783401E+02  0.00000000000E+00 0. -1.
<mgrwt>
<rscale>  0 0.83169127E+02</rscale>
<asrwt>0</asrwt>
<pdfrwt beam="2">  1        1 0.30367637E-02 0.83169127E+02</pdfrwt>
<pdfrwt beam="1">  1       -1 0.13478035E-01 0.83169127E+02</pdfrwt>
<totfact> 0.10545943E+05</totfact>
</mgrwt>
</event>
<event>
 5    1  0.6004828E+000  0.9187027E+02  0.7546771E-02  0.1298385E+00
          2   -1    0    0  501    0  0.00000000000E+00  0.00000000000E+00  0.25023934133E+03  0.25023934133E+03  0.00000000000E+00 0. -1.
         -2   -1    0    0    0  501 -0.00000000000E+00 -0.00000000000E+00 -0.84320745253E+01  0.84320745253E+01  0.00000000000E+00 0.  1.
         23    2    1    2    0    0  0.00000000000E+00  0.00000000000E+00  0.24180726681E+03  0.25867141586E+03  0.91870273218E+02 0.  0.
        -11    1    3    3    0    0  0.30322245457E+02  0.27340767589E+02  0.61636377974E+02  0.73932396361E+02  0.00000000000E+00 0.  1.
         11    1    3    3    0    0 -0.30322245457E+02 -0.27340767589E+02  0.18017088884E+03  0.18473901950E+03  0.00000000000E+00 0. -1.
<mgrwt>
<rscale>  0 0.91870273E+02</rscale>
<asrwt>0</asrwt>
<pdfrwt beam="1">  1        2 0.38498355E-01 0.91870273E+02</pdfrwt>
<pdfrwt beam="2">  1       -2 0.12972424E-02 0.91870273E+02</pdfrwt>
<totfact> 0.16454326E+05</totfact>
</mgrwt>
</event>
<event>
 5    1  0.6004828E+000  0.9239992E+02  0.7546771E-02  0.1297142E+00
         -1   -1    0    0    0  501 -0.00000000000E+00  0.00000000000E+00  0.13216881098E+03  0.13216881098E+03  0.00000000000E+00 0.  1.
          1   -1    0    0  501    0  0.00000000000E+00 -0.00000000000E+00 -0.16149318515E+02  0.16149318515E+02  0.00000000000E+00 0. -1.
         23    2    1    2    0    0  0.00000000000E+00  0.00000000000E+00  0.11601949246E+03  0.14831812949E+03  0.92399918316E+02 0.  0.
        -11    1    3    3    0    0 -0.23518932825E+02 -0.32521693315E+02  0.21278370990E+02  0.45426531997E+02  0.00000000000E+00 0. -1.
         11    1    3    3    0    0  0.23518932825E+02  0.32521693315E+02  0.94741121471E+02  0.10289159749E+03  0.00000000000E+00 0.  1.
<mgrwt>
<rscale>  0 0.92399918E+02</rscale>
<asrwt>0</asrwt>
<pdfrwt beam="2">  1        1 0.24845106E-02 0.92399918E+02</pdfrwt>
<pdfrwt beam="1">  1       -1 0.20333663E-01 0.92399918E+02</pdfrwt>
<totfact> 0.74336412E+04</totfact>
</mgrwt>
</event>
<event>
 5    1  0.6004828E+000  0.1017571E+03  0.7546771E-02  0.1276644E+00
          1   -1    0    0  501    0  0.00000000000E+00  0.00000000000E+00  0.89498725381E+02  0.89498725381E+02  0.00000000000E+00 0.  1.
         -1   -1    0    0    0  501 -0.00000000000E+00 -0.00000000000E+00 -0.28923595004E+02  0.28923595004E+02  0.00000000000E+00 0. -1.
         23    2    1    2    0    0  0.00000000000E+00  0.00000000000E+00  0.60575130377E+02  0.11842232038E+03  0.10175706140E+03 0.  0.
        -11    1    3    3    0    0  0.21112179251E+02  0.47260720268E+01 -0.23303798225E+02  0.31798221354E+02  0.00000000000E+00 0. -1.
         11    1    3    3    0    0 -0.21112179251E+02 -0.47260720268E+01  0.83878928602E+02  0.86624099031E+02  0.00000000000E+00 0.  1.
<mgrwt>
<rscale>  0 0.10175706E+03</rscale>
<asrwt>0</asrwt>
<pdfrwt beam="1">  1        1 0.13769035E-01 0.10175706E+03</pdfrwt>
<pdfrwt beam="2">  1       -1 0.44497839E-02 0.10175706E+03</pdfrwt>
<totfact> 0.75778522E+04</totfact>
</mgrwt>
</event>
<event>
 5    1  0.6004828E+000  0.8419552E+02  0.7546771E-02  0.1317550E+00
         -1   -1    0    0    0  501 -0.00000000000E+00  0.00000000000E+00  0.87812589531E+02  0.87812589531E+02  0.00000000000E+00 0.  1.
          1   -1    0    0  501    0  0.00000000000E+00 -0.00000000000E+00 -0.20181861188E+02  0.20181861188E+02  0.00000000000E+00 0. -1.
         23    2    1    2    0    0  0.00000000000E+00  0.00000000000E+00  0.67630728343E+02  0.10799445072E+03  0.84195522267E+02 0.  0.
        -11    1    3    3    0    0  0.32457420040E+02  0.25435063635E+02  0.22947122513E+02  0.47191069170E+02  0.00000000000E+00 0. -1.
         11    1    3    3    0    0 -0.32457420040E+02 -0.25435063635E+02  0.44683605830E+02  0.60803381549E+02  0.00000000000E+00 0.  1.
<mgrwt>
<rscale>  0 0.84195522E+02</rscale>
<asrwt>0</asrwt>
<pdfrwt beam="2">  1        1 0.31049018E-02 0.84195522E+02</pdfrwt>
<pdfrwt beam="1">  1       -1 0.13509629E-01 0.84195522E+02</pdfrwt>
<totfact> 0.10216059E+05</totfact>
</mgrwt>
</event>
<event>
 5    1  0.6004828E+000  0.8990411E+02  0.7546771E-02  0.1303084E+00
         -1   -1    0    0    0  501 -0.00000000000E+00  0.00000000000E+00  0.70233269189E+02  0.70233269189E+02  0.00000000000E+00 0.  1.
          1   -1    0    0  501    0  0.00000000000E+00 -0.00000000000E+00 -0.28771081909E+02  0.28771081909E+02  0.00000000000E+00 0. -1.
         23    2    1    2    0    0  0.00000000000E+00  0.00000000000E+00  0.41462187280E+02  0.99004351097E+02  0.89904107593E+02 0.  0.
        -11    1    3    3    0    0  0.43019291980E+02 -0.58638724641E+01  0.79056353528E+01  0.44130981782E+02  0.00000000000E+00 0. -1.
         11    1    3    3    0    0 -0.43019291980E+02  0.58638724641E+01  0.33556551927E+02  0.54873369315E+02  0.00000000000E+00 0.  1.
<mgrwt>
<rscale>  0 0.89904108E+02</rscale>
<asrwt>0</asrwt>
<pdfrwt beam="2">  1        1 0.44263203E-02 0.89904108E+02</pdfrwt>
<pdfrwt beam="1">  1       -1 0.10805118E-01 0.89904108E+02</pdfrwt>
<totfact> 0.89645851E+04</totfact>
</mgrwt>
</event>
<event>
 5    1  0.6004828E+000  0.9259213E+02  0.7546771E-02  0.1296693E+00
          2   -1    0    0  501    0  0.00000000000E+00  0.00000000000E+00  0.14263568786E+03  0.14263568786E+03  0.00000000000E+00 0. -1.
         -2   -1    0    0    0  501 -0.00000000000E+00 -0.00000000000E+00 -0.15026572688E+02  0.15026572688E+02  0.00000000000E+00 0.  1.
         23    2    1    2    0    0  0.00000000000E+00  0.00000000000E+00  0.12760911517E+03  0.15766226054E+03  0.92592127776E+02 0.  0.
        -11    1    3    3    0    0 -0.29702955109E+02  0.33850762416E+02  0.45529729747E+02  0.64039799727E+02  0.00000000000E+00 0.  1.
         11    1    3    3    0    0  0.29702955109E+02 -0.33850762416E+02  0.82079385421E+02  0.93622460817E+02  0.00000000000E+00 0. -1.
<mgrwt>
<rscale>  0 0.92592128E+02</rscale>
<asrwt>0</asrwt>
<pdfrwt beam="1">  1        2 0.21943951E-01 0.92592128E+02</pdfrwt>
<pdfrwt beam="2">  1       -2 0.23117805E-02 0.92592128E+02</pdfrwt>
<totfact> 0.13180345E+05</totfact>
</mgrwt>
</event>
<event>
 5    1  0.6004828E+000  0.8085648E+02  0.7546771E-02  0.1326638E+00
         -1   -1    0    0    0  501 -0.00000000000E+00  0.00000000000E+00  0.51812685484E+01  0.51812685484E+01  0.00000000000E+00 0.  1.
          1   -1    0    0  501    0  0.00000000000E+00 -0.00000000000E+00 -0.31545223957E+03  0.31545223957E+03  0.00000000000E+00 0. -1.
         23    2    1    2    0    0  0.00000000000E+00  0.00000000000E+00 -0.31027097102E+03  0.32063350812E+03  0.80856484401E+02 0.  0.
        -11    1    3    3    0    0  0.85415571034E+01 -0.38255696710E+02 -0.11588214729E+03  0.12233204237E+03  0.00000000000E+00 0. -1.
         11    1    3    3    0    0 -0.85415571034E+01  0.38255696710E+02 -0.19438882373E+03  0.19830146575E+03  0.00000000000E+00 0.  1.
<mgrwt>
<rscale>  0 0.80856484E+02</rscale>
<asrwt>0</asrwt>
<pdfrwt beam="2">  1        1 0.48531115E-01 0.80856484E+02</pdfrwt>
<pdfrwt beam="1">  1       -1 0.79711822E-03 0.80856484E+02</pdfrwt>
<totfact> 0.17772788E+05</totfact>
</mgrwt>
</event>
<event>
 5    1  0.6004828E+000  0.9129850E+02  0.7546771E-02  0.1299737E+00
         -2   -1    0    0    0  501 -0.00000000000E+00  0.00000000000E+00  0.18455918083E+03  0.18455918083E+03  0.00000000000E+00 0.  1.
          2   -1    0    0  501    0  0.00000000000E+00 -0.00000000000E+00 -0.11290979108E+02  0.11290979108E+02  0.00000000000E+00 0. -1.
         23    2    1    2    0    0  0.00000000000E+00  0.00000000000E+00  0.17326820173E+03  0.19585015994E+03  0.91298496265E+02 0.  0.
        -11    1    3    3    0    0 -0.37794797767E+02  0.25524570692E+02  0.82395892839E+02  0.94175546741E+02  0.00000000000E+00 0. -1.
         11    1    3    3    0    0  0.37794797767E+02 -0.25524570692E+02  0.90872308887E+02  0.10167461320E+03  0.00000000000E+00 0.  1.
<mgrwt>
<rscale>  0 0.91298496E+02</rscale>
<asrwt>0</asrwt>
<pdfrwt beam="2">  1        2 0.17370738E-02 0.91298496E+02</pdfrwt>
<pdfrwt beam="1">  1       -2 0.28393718E-01 0.91298496E+02</pdfrwt>
<totfact> 0.64251792E+04</totfact>
</mgrwt>
</event>
<event>
 5    1  0.6004828E+000  0.9189978E+02  0.7546771E-02  0.1298315E+00
          3   -1    0    0  501    0  0.00000000000E+00  0.00000000000E+00  0.11516225112E+02  0.11516225112E+02  0.00000000000E+00 0. -1.
         -3   -1    0    0    0  501 -0.00000000000E+00 -0.00000000000E+00 -0.18334068531E+03  0.18334068531E+03  0.00000000000E+00 0.  1.
         23    2    1    2    0    0  0.00000000000E+00  0.00000000000E+00 -0.17182446020E+03  0.19485691042E+03  0.91899784640E+02 0.  0.
        -11    1    3    3    0    0 -0.44815085016E+02  0.10021144850E+02 -0.89316261086E+02  0.10043012339E+03  0.00000000000E+00 0.  1.
         11    1    3    3    0    0  0.44815085016E+02 -0.10021144850E+02 -0.82508199110E+02  0.94426787033E+02  0.00000000000E+00 0. -1.
<mgrwt>
<rscale>  0 0.91899785E+02</rscale>
<asrwt>0</asrwt>
<pdfrwt beam="1">  1        3 0.17717271E-02 0.91899785E+02</pdfrwt>
<pdfrwt beam="2">  1       -3 0.28206257E-01 0.91899785E+02</pdfrwt>
<totfact> 0.28157879E+04</totfact>
</mgrwt>
</event>
<event>
 5    1  0.6004828E+000  0.9458785E+02  0.7546771E-02  0.1292107E+00
         -4   -1    0    0    0  501 -0.00000000000E+00  0.00000000000E+00  0.12954628131E+03  0.12954628131E+03  0.00000000000E+00 0. -1.
          4   -1    0    0  501    0  0.00000000000E+00 -0.00000000000E+00 -0.17265762762E+02  0.17265762762E+02  0.00000000000E+00 0.  1.
         23    2    1    2    0    0  0.00000000000E+00  0.00000000000E+00  0.11228051854E+03  0.14681204407E+03  0.94587850377E+02 0.  0.
        -11    1    3    3    0    0 -0.27948756218E+02  0.28516394634E+02  0.16800808509E+02  0.43319567214E+02  0.00000000000E+00 0. -1.
         11    1    3    3    0    0  0.27948756218E+02 -0.28516394634E+02  0.95479710035E+02  0.10349247685E+03  0.00000000000E+00 0.  1.
<mgrwt>
<rscale>  0 0.94587850E+02</rscale>
<asrwt>0</asrwt>
<pdfrwt beam="2">  1        4 0.26562713E-02 0.94587850E+02</pdfrwt>
<pdfrwt beam="1">  1       -4 0.19930196E-01 0.94587850E+02</pdfrwt>
<totfact> 0.21581538E+04</totfact>
</mgrwt>
</event>
<event>
 5    1  0.6004828E+000  0.9184490E+02  0.7546771E-02  0.1298445E+00
          3   -1    0    0  501    0  0.00000000000E+00  0.00000000000E+00  0.81311323341E+02  0.81311323341E+02  0.00000000000E+00 0. -1.
         -3   -1    0    0    0  501 -0.00000000000E+00 -0.00000000000E+00 -0.25935767606E+02  0.25935767606E+02  0.00000000000E+00 0.  1.
         23    2    1    2    0    0  0.00000000000E+00  0.00000000000E+00  0.55375555735E+02  0.10724709095E+03  0.91844903743E+02 0.  0.
        -11    1    3    3    0    0 -0.42130407360E+02  0.88446624722E+01  0.90165747762E+01  0.43982927362E+02  0.00000000000E+00 0.  1.
         11    1    3    3    0    0  0.42130407360E+02 -0.88446624722E+01  0.46358980959E+02  0.63264163585E+02  0.00000000000E+00 0. -1.
<mgrwt>
<rscale>  0 0.91844904E+02</rscale>
<asrwt>0</asrwt>
<pdfrwt beam="1">  1        3 0.12509434E-01 0.91844904E+02</pdfrwt>
<pdfrwt beam="2">  1       -3 0.39901181E-02 0.91844904E+02</pdfrwt>
<totfact> 0.33469426E+04</totfact>
</mgrwt>
</event>
<event>
 5    1  0.6004828E+000  0.8999068E+02  0.7546771E-02  0.1302874E+00
         -4   -1    0    0    0  501 -0.00000000000E+00  0.00000000000E+00  0.34661433510E+02  0.34661433510E+02  0.00000000000E+00 0.  1.
          4   -1    0    0  501    0  0.00000000000E+00 -0.00000000000E+00 -0.58410184365E+02  0.58410184365E+02  0.00000000000E+00 0. -1.
         23    2    1    2    0    0  0.00000000000E+00  0.00000000000E+00 -0.23748750855E+02  0.93071617875E+02  0.89990682221E+02 0.  0.
        -11    1    3    3    0    0  0.38279645285E+02  0.16971094036E+01  0.12520651253E+02  0.40311017492E+02  0.00000000000E+00 0.  1.
         11    1    3    3    0    0 -0.38279645285E+02 -0.16971094036E+01 -0.36269402109E+02  0.52760600383E+02  0.00000000000E+00 0. -1.
<mgrwt>
<rscale>  0 0.89990682E+02</rscale>
<asrwt>0</asrwt>
<pdfrwt beam="2">  1        4 0.89861822E-02 0.89990682E+02</pdfrwt>
<pdfrwt beam="1">  1       -4 0.53325283E-02 0.89990682E+02</pdfrwt>
<totfact> 0.27865162E+04</totfact>
</mgrwt>
</event>
<event>
 5    1  0.6004828E+000  0.8951631E+02  0.7546771E-02  0.1304027E+00
          2   -1    0    0  501    0  0.00000000000E+00  0.00000000000E+00  0.94789195777E+02  0.94789195777E+02  0.00000000000E+00 0. -1.
         -2   -1    0    0    0  501 -0.00000000000E+00 -0.00000000000E+00 -0.21134185545E+02  0.21134185545E+02  0.00000000000E+00 0.  1.
         23    2    1    2    0    0  0.00000000000E+00  0.00000000000E+00  0.73655010232E+02  0.11592338132E+03  0.89516310274E+02 0.  0.
        -11    1    3    3    0    0 -0.99572883456E+00  0.41958460222E+02  0.56964134170E+02  0.70756034668E+02  0.00000000000E+00 0. -1.
         11    1    3    3    0    0  0.99572883456E+00 -0.41958460222E+02  0.16690876062E+02  0.45167346655E+02  0.00000000000E+00 0.  1.
<mgrwt>
<rscale>  0 0.89516310E+02</rscale>
<asrwt>0</asrwt>
<pdfrwt beam="1">  1        2 0.14582953E-01 0.89516310E+02</pdfrwt>
<pdfrwt beam="2">  1       -2 0.32514132E-02 0.89516310E+02</pdfrwt>
<totfact> 0.12697301E+05</totfact>
</mgrwt>
</event>
<event>
 5    1  0.6004828E+000  0.9016831E+02  0.7546771E-02  0.1302445E+00
         -3   -1    0    0    0  501 -0.00000000000E+00  0.00000000000E+00  0.21635494829E+03  0.21635494829E+03  0.00000000000E+00 0.  1.
          3   -1    0    0  501    0  0.00000000000E+00 -0.00000000000E+00 -0.93946590489E+01  0.93946590489E+01  0.00000000000E+00 0. -1.
         23    2    1    2    0    0  0.00000000000E+00  0.00000000000E+00  0.20696028925E+03  0.22574960734E+03  0.90168308685E+02 0.  0.
        -11    1    3    3    0    0  0.18286015009E+02  0.34329713345E+02  0.16055414684E+03  0.16519849162E+03  0.00000000000E+00 0.  1.
         11    1    3    3    0    0 -0.18286015009E+02 -0.34329713345E+02  0.46406142401E+02  0.60551115727E+02  0.00000000000E+00 0. -1.
<mgrwt>
<rscale>  0 0.90168309E+02</rscale>
<asrwt>0</asrwt>
<pdfrwt beam="2">  1        3 0.14453323E-02 0.90168309E+02</pdfrwt>
<pdfrwt beam="1">  1       -3 0.33285373E-01 0.90168309E+02</pdfrwt>
<totfact> 0.28043503E+04</totfact>
</mgrwt>
</event>
<event>
 5    1  0.6004828E+000  0.9089396E+02  0.7546771E-02  0.1300701E+00
         -2   -1    0    0    0  501 -0.00000000000E+00  0.00000000000E+00  0.98396933689E+01  0.98396933689E+01  0.00000000000E+00 0.  1.
          2   -1    0    0  501    0  0.00000000000E+00 -0.00000000000E+00 -0.20990775971E+03  0.20990775971E+03  0.00000000000E+00 0. -1.
         23    2    1    2    0    0  0.00000000000E+00  0.00000000000E+00 -0.20006806634E+03  0.21974745307E+03  0.90893960003E+02 0.  0.
        -11    1    3    3    0    0  0.31327754690E+02 -0.69245886821E+01 -0.22216196872E+02  0.39024832425E+02  0.00000000000E+00 0.  1.
         11    1    3    3    0    0 -0.31327754690E+02  0.69245886821E+01 -0.17785186946E+03  0.18072262065E+03  0.00000000000E+00 0. -1.
<mgrwt>
<rscale>  0 0.90893960E+02</rscale>
<asrwt>0</asrwt>
<pdfrwt beam="2">  1        2 0.32293504E-01 0.90893960E+02</pdfrwt>
<pdfrwt beam="1">  1       -2 0.15137988E-02 0.90893960E+02</pdfrwt>
<totfact> 0.15873825E+05</totfact>
</mgrwt>
</event>
<event>
 5    1  0.6004828E+000  0.9255822E+02  0.7546771E-02  0.1296772E+00
          3   -1    0    0  501    0  0.00000000000E+00  0.00000000000E+00  0.11771059438E+03  0.11771059438E+03  0.00000000000E+00 0. -1.
         -3   -1    0    0    0  501 -0.00000000000E+00 -0.00000000000E+00 -0.18195100278E+02  0.18195100278E+02  0.00000000000E+00 0.  1.
         23    2    1    2    0    0  0.00000000000E+00  0.00000000000E+00  0.99515494103E+02  0.13590569466E+03  0.92558220997E+02 0.  0.
        -11    1    3    3    0    0 -0.25719669635E+02 -0.15871646071E+02 -0.17038106637E+01  0.30270671051E+02  0.00000000000E+00 0.  1.
         11    1    3    3    0    0  0.25719669635E+02  0.15871646071E+02  0.10121930477E+03  0.10563502361E+03  0.00000000000E+00 0. -1.
<mgrwt>
<rscale>  0 0.92558221E+02</rscale>
<asrwt>0</asrwt>
<pdfrwt beam="1">  1        3 0.18109322E-01 0.92558221E+02</pdfrwt>
<pdfrwt beam="2">  1       -3 0.27992463E-02 0.92558221E+02</pdfrwt>
<totfact> 0.30902519E+04</totfact>
</mgrwt>
</event>
<event>
 5    1  0.6004828E+000  0.9157455E+02  0.7546771E-02  0.1299083E+00
          2   -1    0    0  501    0  0.00000000000E+00  0.00000000000E+00  0.19864422049E+03  0.19864422049E+03  0.00000000000E+00 0. -1.
         -2   -1    0    0    0  501 -0.00000000000E+00 -0.00000000000E+00 -0.10553917799E+02  0.10553917799E+02  0.00000000000E+00 0.  1.
         23    2    1    2    0    0  0.00000000000E+00  0.00000000000E+00  0.18809030269E+03  0.20919813829E+03  0.91574554855E+02 0.  0.
        -11    1    3    3    0    0 -0.27064863137E+02 -0.10506794030E+02  0.13161974384E+02  0.31876905545E+02  0.00000000000E+00 0.  1.
         11    1    3    3    0    0  0.27064863137E+02  0.10506794030E+02  0.17492832831E+03  0.17732123274E+03  0.00000000000E+00 0. -1.
<mgrwt>
<rscale>  0 0.91574555E+02</rscale>
<asrwt>0</asrwt>
<pdfrwt beam="1">  1        2 0.30560647E-01 0.91574555E+02</pdfrwt>
<pdfrwt beam="2">  1       -2 0.16236798E-02 0.91574555E+02</pdfrwt>
<totfact> 0.15250002E+05</totfact>
</mgrwt>
</event>
<event>
 5    1  0.6004828E+000  0.9133375E+02  0.7546771E-02  0.1299654E+00
         -1   -1    0    0    0  501 -0.00000000000E+00  0.00000000000E+00  0.13164962164E+03  0.13164962164E+03  0.00000000000E+00 0.  1.
          1   -1    0    0  501    0  0.00000000000E+00 -0.00000000000E+00 -0.15841012891E+02  0.15841012891E+02  0.00000000000E+00 0. -1.
         23    2    1    2    0    0  0.00000000000E+00  0.00000000000E+00  0.11580860874E+03  0.14749063453E+03  0.91333747399E+02 0.  0.
        -11    1    3    3    0    0 -0.32511289005E+02  0.32049466149E+02  0.56055201527E+02  0.72293414716E+02  0.00000000000E+00 0. -1.
         11    1    3    3    0    0  0.32511289005E+02 -0.32049466149E+02  0.59753407217E+02  0.75197219811E+02  0.00000000000E+00 0.  1.
<mgrwt>
<rscale>  0 0.91333747E+02</rscale>
<asrwt>0</asrwt>
<pdfrwt beam="2">  1        1 0.24370790E-02 0.91333747E+02</pdfrwt>
<pdfrwt beam="1">  1       -1 0.20253787E-01 0.91333747E+02</pdfrwt>
<totfact> 0.76672946E+04</totfact>
</mgrwt>
</event>
<event>
 5    1  0.6004828E+000  0.9088038E+02  0.7546771E-02  0.1300734E+00
          2   -1    0    0  501    0  0.00000000000E+00  0.00000000000E+00  0.30020520278E+02  0.30020520278E+02  0.00000000000E+00 0. -1.
         -2   -1    0    0    0  501 -0.00000000000E+00 -0.00000000000E+00 -0.68779975817E+02  0.68779975817E+02  0.00000000000E+00 0.  1.
         23    2    1    2    0    0  0.00000000000E+00  0.00000000000E+00 -0.38759455539E+02  0.98800496094E+02  0.90880375411E+02 0.  0.
        -11    1    3    3    0    0 -0.16514088138E+02 -0.25030012768E+02 -0.56495856030E+02  0.63960913023E+02  0.00000000000E+00 0.  1.
         11    1    3    3    0    0  0.16514088138E+02  0.25030012768E+02  0.17736400491E+02  0.34839583071E+02  0.00000000000E+00 0. -1.
<mgrwt>
<rscale>  0 0.90880375E+02</rscale>
<asrwt>0</asrwt>
<pdfrwt beam="1">  1        2 0.46185416E-02 0.90880375E+02</pdfrwt>
<pdfrwt beam="2">  1       -2 0.10581535E-01 0.90880375E+02</pdfrwt>
<totfact> 0.89341125E+04</totfact>
</mgrwt>
</event>
<event>
 5    1  0.6004828E+000  0.9267924E+02  0.7546771E-02  0.1296490E+00
          1   -1    0    0  501    0  0.00000000000E+00  0.00000000000E+00  0.15800524676E+02  0.15800524676E+02  0.00000000000E+00 0. -1.
         -1   -1    0    0    0  501 -0.00000000000E+00 -0.00000000000E+00 -0.13590436016E+03  0.13590436016E+03  0.00000000000E+00 0.  1.
         23    2    1    2    0    0  0.00000000000E+00  0.00000000000E+00 -0.12010383549E+03  0.15170488484E+03  0.92679235998E+02 0.  0.
        -11    1    3    3    0    0 -0.21638910144E+02  0.17715413549E+02 -0.12053421584E+03  0.12373591030E+03  0.00000000000E+00 0.  1.
         11    1    3    3    0    0  0.21638910144E+02 -0.17715413549E+02  0.43038035427E+00  0.27968974538E+02  0.00000000000E+00 0. -1.
<mgrwt>
<rscale>  0 0.92679236E+02</rscale>
<asrwt>0</asrwt>
<pdfrwt beam="1">  1        1 0.24308500E-02 0.92679236E+02</pdfrwt>
<pdfrwt beam="2">  1       -1 0.20908362E-01 0.92679236E+02</pdfrwt>
<totfact> 0.73307576E+04</totfact>
</mgrwt>
</event>
<event>
 5    1  0.6004828E+000  0.9395839E+02  0.7546771E-02  0.1293539E+00
         -2   -1    0    0    0  501 -0.00000000000E+00  0.00000000000E+00  0.41663518267E+02  0.41663518267E+02  0.00000000000E+00 0.  1.
          2   -1    0    0  501    0  0.00000000000E+00 -0.00000000000E+00 -0.52973079720E+02  0.52973079720E+02  0.00000000000E+00 0. -1.
         23    2    1    2    0    0  0.00000000000E+00  0.00000000000E+00 -0.11309561453E+02  0.94636597987E+02  0.93958392379E+02 0.  0.
        -11    1    3    3    0    0 -0.10976097152E+02 -0.86321385062E+01  0.39524947298E+02  0.41919088525E+02  0.00000000000E+00 0.  1.
         11    1    3    3    0    0  0.10976097152E+02  0.86321385062E+01 -0.50834508751E+02  0.52717509462E+02  0.00000000000E+00 0. -1.
<mgrwt>
<rscale>  0 0.93958392E+02</rscale>
<asrwt>0</asrwt>
<pdfrwt beam="2">  1        2 0.81497046E-02 0.93958392E+02</pdfrwt>
<pdfrwt beam="1">  1       -2 0.64097720E-02 0.93958392E+02</pdfrwt>
<totfact> 0.94189479E+04</totfact>
</mgrwt>
</event>
<event>
 5    1  0.6004828E+000  0.9075769E+02  0.7546771E-02  0.1301027E+00
          3   -1    0    0  501    0  0.00000000000E+00  0.00000000000E+00  0.30452612140E+02  0.30452612140E+02  0.00000000000E+00 0. -1.
         -3   -1    0    0    0  501 -0.00000000000E+00 -0.00000000000E+00 -0.67621120656E+02  0.67621120656E+02  0.00000000000E+00 0.  1.
         23    2    1    2    0    0  0.00000000000E+00  0.00000000000E+00 -0.37168508517E+02  0.98073732796E+02  0.90757694105E+02 0.  0.
        -11    1    3    3    0    0  0.30420299850E+02 -0.28947944874E+02 -0.37171436460E+02  0.56081136258E+02  0.00000000000E+00 0.  1.
         11    1    3    3    0    0 -0.30420299850E+02  0.28947944874E+02  0.29279437756E-02  0.41992596538E+02  0.00000000000E+00 0. -1.
<mgrwt>
<rscale>  0 0.90757694E+02</rscale>
<asrwt>0</asrwt>
<pdfrwt beam="1">  1        3 0.46850173E-02 0.90757694E+02</pdfrwt>
<pdfrwt beam="2">  1       -3 0.10403249E-01 0.90757694E+02</pdfrwt>
<totfact> 0.35254797E+04</totfact>
</mgrwt>
</event>
<event>
 5    1  0.6004828E+000  0.9259463E+02  0.7546771E-02  0.1296687E+00
         -3   -1    0    0    0  501 -0.00000000000E+00  0.00000000000E+00  0.24673211614E+03  0.24673211614E+03  0.00000000000E+00 0.  1.
          3   -1    0    0  501    0  0.00000000000E+00 -0.00000000000E+00 -0.86873228346E+01  0.86873228346E+01  0.00000000000E+00 0. -1.
         23    2    1    2    0    0  0.00000000000E+00  0.00000000000E+00  0.23804479330E+03  0.25541943897E+03  0.92594633680E+02 0.  0.
        -11    1    3    3    0    0 -0.32616712038E+02 -0.32825499333E+02  0.11504576324E+03  0.12400359249E+03  0.00000000000E+00 0.  1.
         11    1    3    3    0    0  0.32616712038E+02  0.32825499333E+02  0.12299903006E+03  0.13141584648E+03  0.00000000000E+00 0. -1.
<mgrwt>
<rscale>  0 0.92594634E+02</rscale>
<asrwt>0</asrwt>
<pdfrwt beam="2">  1        3 0.13365114E-02 0.92594634E+02</pdfrwt>
<pdfrwt beam="1">  1       -3 0.37958782E-01 0.92594634E+02</pdfrwt>
<totfact> 0.24806814E+04</totfact>
</mgrwt>
</event>
<event>
 5    1  0.6004828E+000  0.8830178E+02  0.7546771E-02  0.1307017E+00
         -1   -1    0    0    0  501 -0.00000000000E+00  0.00000000000E+00  0.38756969344E+02  0.38756969344E+02  0.00000000000E+00 0.  1.
          1   -1    0    0  501    0  0.00000000000E+00 -0.00000000000E+00 -0.50295495809E+02  0.50295495809E+02  0.00000000000E+00 0. -1.
         23    2    1    2    0    0  0.00000000000E+00  0.00000000000E+00 -0.11538526464E+02  0.89052465153E+02  0.88301777767E+02 0.  0.
        -11    1    3    3    0    0  0.92815769236E+01 -0.41138480835E+02 -0.18948594303E+02  0.46233878289E+02  0.00000000000E+00 0. -1.
         11    1    3    3    0    0 -0.92815769236E+01  0.41138480835E+02  0.74100678386E+01  0.42818586864E+02  0.00000000000E+00 0.  1.
<mgrwt>
<rscale>  0 0.88301778E+02</rscale>
<asrwt>0</asrwt>
<pdfrwt beam="2">  1        1 0.77377686E-02 0.88301778E+02</pdfrwt>
<pdfrwt beam="1">  1       -1 0.59626107E-02 0.88301778E+02</pdfrwt>
<totfact> 0.10260568E+05</totfact>
</mgrwt>
</event>
<event>
 5    1  0.6004828E+000  0.9398140E+02  0.7546771E-02  0.1293487E+00
          2   -1    0    0  501    0  0.00000000000E+00  0.00000000000E+00  0.26475127200E+03  0.26475127200E+03  0.00000000000E+00 0. -1.
         -2   -1    0    0    0  501 -0.00000000000E+00 -0.00000000000E+00 -0.83403786875E+01  0.83403786875E+01  0.00000000000E+00 0.  1.
         23    2    1    2    0    0  0.00000000000E+00  0.00000000000E+00  0.25641089331E+03  0.27309165069E+03  0.93981399574E+02 0.  0.
        -11    1    3    3    0    0 -0.65906219469E+01 -0.43592547816E+02  0.80957789920E+02  0.92184110732E+02  0.00000000000E+00 0.  1.
         11    1    3    3    0    0  0.65906219469E+01  0.43592547816E+02  0.17545310339E+03  0.18090753996E+03  0.00000000000E+00 0. -1.
<mgrwt>
<rscale>  0 0.93981400E+02</rscale>
<asrwt>0</asrwt>
<pdfrwt beam="1">  1        2 0.40730959E-01 0.93981400E+02</pdfrwt>
<pdfrwt beam="2">  1       -2 0.12831354E-02 0.93981400E+02</pdfrwt>
<totfact> 0.15809822E+05</totfact>
</mgrwt>
</event>
<event>
 5    1  0.6004828E+000  0.1088036E+03  0.7546771E-02  0.1262802E+00
          2   -1    0    0  501    0  0.00000000000E+00  0.00000000000E+00  0.49996733968E+03  0.49996733968E+03  0.00000000000E+00 0.  1.
         -2   -1    0    0    0  501 -0.00000000000E+00 -0.00000000000E+00 -0.59194979045E+01  0.59194979045E+01  0.00000000000E+00 0. -1.
         23    2    1    2    0    0  0.00000000000E+00  0.00000000000E+00  0.49404784178E+03  0.50588683759E+03  0.10880359589E+03 0.  0.
        -11    1    3    3    0    0 -0.23387457191E+02 -0.48999962531E+02  0.26285022376E+03  0.26839934727E+03  0.00000000000E+00 0.  1.
         11    1    3    3    0    0  0.23387457191E+02  0.48999962531E+02  0.23119761801E+03  0.23748749032E+03  0.00000000000E+00 0. -1.
<mgrwt>
<rscale>  0 0.10880360E+03</rscale>
<asrwt>0</asrwt>
<pdfrwt beam="1">  1        2 0.76918019E-01 0.10880360E+03</pdfrwt>
<pdfrwt beam="2">  1       -2 0.91069238E-03 0.10880360E+03</pdfrwt>
<totfact> 0.13439503E+05</totfact>
</mgrwt>
</event>
<event>
 5    1  0.6004828E+000  0.8903863E+02  0.7546771E-02  0.1305197E+00
         -2   -1    0    0    0  501 -0.00000000000E+00  0.00000000000E+00  0.14182610506E+03  0.14182610506E+03  0.00000000000E+00 0.  1.
          2   -1    0    0  501    0  0.00000000000E+00 -0.00000000000E+00 -0.13974644823E+02  0.13974644823E+02  0.00000000000E+00 0. -1.
         23    2    1    2    0    0  0.00000000000E+00  0.00000000000E+00  0.12785146024E+03  0.15580074989E+03  0.89038630827E+02 0.  0.
        -11    1    3    3    0    0  0.13965756759E+02  0.28017894965E+02  0.11931282675E+03  0.12335151165E+03  0.00000000000E+00 0.  1.
         11    1    3    3    0    0 -0.13965756759E+02 -0.28017894965E+02  0.85386334927E+01  0.32449238235E+02  0.00000000000E+00 0. -1.
<mgrwt>
<rscale>  0 0.89038631E+02</rscale>
<asrwt>0</asrwt>
<pdfrwt beam="2">  1        2 0.21499455E-02 0.89038631E+02</pdfrwt>
<pdfrwt beam="1">  1       -2 0.21819400E-01 0.89038631E+02</pdfrwt>
<totfact> 0.75673883E+04</totfact>
</mgrwt>
</event>
<event>
 5    1  0.6004828E+000  0.9299338E+02  0.7546771E-02  0.1295761E+00
          2   -1    0    0  501    0  0.00000000000E+00  0.00000000000E+00  0.90981524206E+01  0.90981524206E+01  0.00000000000E+00 0. -1.
         -2   -1    0    0    0  501 -0.00000000000E+00 -0.00000000000E+00 -0.23762430472E+03  0.23762430472E+03  0.00000000000E+00 0.  1.
         23    2    1    2    0    0  0.00000000000E+00  0.00000000000E+00 -0.22852615230E+03  0.24672245714E+03  0.92993379188E+02 0.  0.
        -11    1    3    3    0    0 -0.42651166145E+02  0.51127008304E+01 -0.67049457735E+02  0.79629714717E+02  0.00000000000E+00 0.  1.
         11    1    3    3    0    0  0.42651166145E+02 -0.51127008304E+01 -0.16147669456E+03  0.16709274242E+03  0.00000000000E+00 0. -1.
<mgrwt>
<rscale>  0 0.92993379E+02</rscale>
<asrwt>0</asrwt>
<pdfrwt beam="1">  1        2 0.13997158E-02 0.92993379E+02</pdfrwt>
<pdfrwt beam="2">  1       -2 0.36557584E-01 0.92993379E+02</pdfrwt>
<totfact> 0.54751092E+04</totfact>
</mgrwt>
</event>
<event>
 5    1  0.6004828E+000  0.9087512E+02  0.7546771E-02  0.1300746E+00
          2   -1    0    0  501    0  0.00000000000E+00  0.00000000000E+00  0.24218168889E+03  0.24218168889E+03  0.00000000000E+00 0. -1.
         -2   -1    0    0    0  501 -0.00000000000E+00 -0.00000000000E+00 -0.85248876951E+01  0.85248876951E+01  0.00000000000E+00 0.  1.
         23    2    1    2    0    0  0.00000000000E+00  0.00000000000E+00  0.23365680120E+03  0.25070657659E+03  0.90875116498E+02 0.  0.
        -11    1    3    3    0    0 -0.25567605509E+02 -0.36654063212E+02  0.13946889955E+03  0.14645407725E+03  0.00000000000E+00 0.  1.
         11    1    3    3    0    0  0.25567605509E+02  0.36654063212E+02  0.94187901643E+02  0.10425249933E+03  0.00000000000E+00 0. -1.
<mgrwt>
<rscale>  0 0.90875116E+02</rscale>
<asrwt>0</asrwt>
<pdfrwt beam="1">  1        2 0.37258716E-01 0.90875116E+02</pdfrwt>
<pdfrwt beam="2">  1       -2 0.13115214E-02 0.90875116E+02</pdfrwt>
<totfact> 0.16738016E+05</totfact>
</mgrwt>
</event>
<event>
 5    1  0.6004828E+000  0.9154899E+02  0.7546771E-02  0.1299143E+00
          2   -1    0    0  501    0  0.00000000000E+00  0.00000000000E+00  0.37160957214E+02  0.37160957214E+02  0.00000000000E+00 0. -1.
         -2   -1    0    0    0  501 -0.00000000000E+00 -0.00000000000E+00 -0.56384567957E+02  0.56384567957E+02  0.00000000000E+00 0.  1.
         23    2    1    2    0    0  0.00000000000E+00  0.00000000000E+00 -0.19223610743E+02  0.93545525171E+02  0.91548992728E+02 0.  0.
        -11    1    3    3    0    0  0.23142181976E+02 -0.20260480698E+02  0.25028203787E+02  0.39654238733E+02  0.00000000000E+00 0. -1.
         11    1    3    3    0    0 -0.23142181976E+02  0.20260480698E+02 -0.44251814529E+02  0.53891286437E+02  0.00000000000E+00 0.  1.
<mgrwt>
<rscale>  0 0.91548993E+02</rscale>
<asrwt>0</asrwt>
<pdfrwt beam="1">  1        2 0.57170704E-02 0.91548993E+02</pdfrwt>
<pdfrwt beam="2">  1       -2 0.86745489E-02 0.91548993E+02</pdfrwt>
<totfact> 0.92480383E+04</totfact>
</mgrwt>
</event>
<event>
 5    1  0.6004828E+000  0.9214197E+02  0.7546771E-02  0.1297746E+00
          1   -1    0    0  501    0  0.00000000000E+00  0.00000000000E+00  0.12470777530E+02  0.12470777530E+02  0.00000000000E+00 0. -1.
         -1   -1    0    0    0  501 -0.00000000000E+00 -0.00000000000E+00 -0.17020074368E+03  0.17020074368E+03  0.00000000000E+00 0.  1.
         23    2    1    2    0    0  0.00000000000E+00  0.00000000000E+00 -0.15772996615E+03  0.18267152121E+03  0.92141968934E+02 0.  0.
        -11    1    3    3    0    0  0.24616058044E-01 -0.37269927525E+02 -0.13255699989E+03  0.13769679126E+03  0.00000000000E+00 0.  1.
         11    1    3    3    0    0 -0.24616058044E-01  0.37269927525E+02 -0.25172966262E+02  0.44974729950E+02  0.00000000000E+00 0. -1.
<mgrwt>
<rscale>  0 0.92141969E+02</rscale>
<asrwt>0</asrwt>
<pdfrwt beam="1">  1        1 0.19185811E-02 0.92141969E+02</pdfrwt>
<pdfrwt beam="2">  1       -1 0.26184730E-01 0.92141969E+02</pdfrwt>
<totfact> 0.70555908E+04</totfact>
</mgrwt>
</event>
<event>
 5    1  0.6004828E+000  0.8616558E+02  0.7546771E-02  0.1312412E+00
          1   -1    0    0  501    0  0.00000000000E+00  0.00000000000E+00  0.37017467775E+02  0.37017467775E+02  0.00000000000E+00 0. -1.
         -1   -1    0    0    0  501 -0.00000000000E+00 -0.00000000000E+00 -0.50141918101E+02  0.50141918101E+02  0.00000000000E+00 0.  1.
         23    2    1    2    0    0  0.00000000000E+00  0.00000000000E+00 -0.13124450325E+02  0.87159385876E+02  0.86165581005E+02 0.  0.
        -11    1    3    3    0    0 -0.91446055701E+01 -0.35239310680E+02 -0.29864720693E+02  0.47088580042E+02  0.00000000000E+00 0.  1.
         11    1    3    3    0    0  0.91446055701E+01  0.35239310680E+02  0.16740270368E+02  0.40070805835E+02  0.00000000000E+00 0. -1.
<mgrwt>
<rscale>  0 0.86165581E+02</rscale>
<asrwt>0</asrwt>
<pdfrwt beam="1">  1        1 0.56949951E-02 0.86165581E+02</pdfrwt>
<pdfrwt beam="2">  1       -1 0.77141412E-02 0.86165581E+02</pdfrwt>
<totfact> 0.10508002E+05</totfact>
</mgrwt>
</event>
<event>
 5    1  0.6004828E+000  0.8901365E+02  0.7546771E-02  0.1305258E+00
          2   -1    0    0  501    0  0.00000000000E+00  0.00000000000E+00  0.34944314549E+03  0.34944314549E+03  0.00000000000E+00 0.  1.
         -2   -1    0    0    0  501 -0.00000000000E+00 -0.00000000000E+00 -0.56686120911E+01  0.56686120911E+01  0.00000000000E+00 0. -1.
         23    2    1    2    0    0  0.00000000000E+00  0.00000000000E+00  0.34377453340E+03  0.35511175758E+03  0.89013653777E+02 0.  0.
        -11    1    3    3    0    0 -0.36768551652E+02 -0.24054413480E+02  0.14358876890E+03  0.15016083295E+03  0.00000000000E+00 0.  1.
         11    1    3    3    0    0  0.36768551652E+02  0.24054413480E+02  0.20018576450E+03  0.20495092464E+03  0.00000000000E+00 0. -1.
<mgrwt>
<rscale>  0 0.89013654E+02</rscale>
<asrwt>0</asrwt>
<pdfrwt beam="1">  1        2 0.53760467E-01 0.89013654E+02</pdfrwt>
<pdfrwt beam="2">  1       -2 0.87209444E-03 0.89013654E+02</pdfrwt>
<totfact> 0.20260256E+05</totfact>
</mgrwt>
</event>
<event>
 5    1  0.6004828E+000  0.1010524E+03  0.7546771E-02  0.1278098E+00
          4   -1    0    0  501    0  0.00000000000E+00  0.00000000000E+00  0.44801804454E+02  0.44801804454E+02  0.00000000000E+00 0. -1.
         -4   -1    0    0    0  501 -0.00000000000E+00 -0.00000000000E+00 -0.56982060651E+02  0.56982060651E+02  0.00000000000E+00 0.  1.
         23    2    1    2    0    0  0.00000000000E+00  0.00000000000E+00 -0.12180256197E+02  0.10178386511E+03  0.10105244458E+03 0.  0.
        -11    1    3    3    0    0 -0.26534617940E+02  0.36798339713E+02 -0.28492863191E+02  0.53572819672E+02  0.00000000000E+00 0.  1.
         11    1    3    3    0    0  0.26534617940E+02 -0.36798339713E+02  0.16312606994E+02  0.48211045433E+02  0.00000000000E+00 0. -1.
<mgrwt>
<rscale>  0 0.10105244E+03</rscale>
<asrwt>0</asrwt>
<pdfrwt beam="1">  1        4 0.68925853E-02 0.10105244E+03</pdfrwt>
<pdfrwt beam="2">  1       -4 0.87664709E-02 0.10105244E+03</pdfrwt>
<totfact> 0.19894137E+04</totfact>
</mgrwt>
</event>
<event>
 5    1  0.6004828E+000  0.9192887E+02  0.7546771E-02  0.1298247E+00
          4   -1    0    0  501    0  0.00000000000E+00  0.00000000000E+00  0.10912145409E+03  0.10912145409E+03  0.00000000000E+00 0. -1.
         -4   -1    0    0    0  501 -0.00000000000E+00 -0.00000000000E+00 -0.19361264357E+02  0.19361264357E+02  0.00000000000E+00 0.  1.
         23    2    1    2    0    0  0.00000000000E+00  0.00000000000E+00  0.89760189735E+02  0.12848271845E+03  0.91928870759E+02 0.  0.
        -11    1    3    3    0    0 -0.31991489728E+01 -0.45101583998E+02  0.56434198880E+02  0.72313250767E+02  0.00000000000E+00 0.  1.
         11    1    3    3    0    0  0.31991489728E+01  0.45101583998E+02  0.33325990855E+02  0.56169467683E+02  0.00000000000E+00 0. -1.
<mgrwt>
<rscale>  0 0.91928871E+02</rscale>
<asrwt>0</asrwt>
<pdfrwt beam="1">  1        4 0.16787916E-01 0.91928871E+02</pdfrwt>
<pdfrwt beam="2">  1       -4 0.29786561E-02 0.91928871E+02</pdfrwt>
<totfact> 0.24255523E+04</totfact>
</mgrwt>
</event>
<event>
 5    1  0.6004828E+000  0.8998526E+02  0.7546771E-02  0.1302887E+00
         -1   -1    0    0    0  501 -0.00000000000E+00  0.00000000000E+00  0.16677064653E+03  0.16677064653E+03  0.00000000000E+00 0.  1.
          1   -1    0    0  501    0  0.00000000000E+00 -0.00000000000E+00 -0.12138448850E+02  0.12138448850E+02  0.00000000000E+00 0. -1.
         23    2    1    2    0    0  0.00000000000E+00  0.00000000000E+00  0.15463219768E+03  0.17890909538E+03  0.89985264630E+02 0.  0.
        -11    1    3    3    0    0 -0.27999069381E+01  0.39957843410E+02  0.11805577109E+03  0.12466608928E+03  0.00000000000E+00 0.  1.
         11    1    3    3    0    0  0.27999069381E+01 -0.39957843410E+02  0.36576426597E+02  0.54243006106E+02  0.00000000000E+00 0. -1.
<mgrwt>
<rscale>  0 0.89985265E+02</rscale>
<asrwt>0</asrwt>
<pdfrwt beam="2">  1        1 0.18674538E-02 0.89985265E+02</pdfrwt>
<pdfrwt beam="1">  1       -1 0.25657021E-01 0.89985265E+02</pdfrwt>
<totfact> 0.75423810E+04</totfact>
</mgrwt>
</event>
<event>
 5    1  0.6004828E+000  0.9067843E+02  0.7546771E-02  0.1301217E+00
          2   -1    0    0  501    0  0.00000000000E+00  0.00000000000E+00  0.19512876247E+02  0.19512876247E+02  0.00000000000E+00 0. -1.
         -2   -1    0    0    0  501 -0.00000000000E+00 -0.00000000000E+00 -0.10534810843E+03  0.10534810843E+03  0.00000000000E+00 0.  1.
         23    2    1    2    0    0  0.00000000000E+00  0.00000000000E+00 -0.85835232183E+02  0.12486098468E+03  0.90678434098E+02 0.  0.
        -11    1    3    3    0    0 -0.20615035344E+02  0.11328936699E+02 -0.96288449510E+02  0.99120078682E+02  0.00000000000E+00 0.  1.
         11    1    3    3    0    0  0.20615035344E+02 -0.11328936699E+02  0.10453217327E+02  0.25740905995E+02  0.00000000000E+00 0. -1.
<mgrwt>
<rscale>  0 0.90678434E+02</rscale>
<asrwt>0</asrwt>
<pdfrwt beam="1">  1        2 0.30019809E-02 0.90678434E+02</pdfrwt>
<pdfrwt beam="2">  1       -2 0.16207402E-01 0.90678434E+02</pdfrwt>
<totfact> 0.79643604E+04</totfact>
</mgrwt>
</event>
<event>
 5    1  0.6004828E+000  0.9104706E+02  0.7546771E-02  0.1300336E+00
         -2   -1    0    0    0  501 -0.00000000000E+00  0.00000000000E+00  0.40193923182E+02  0.40193923182E+02  0.00000000000E+00 0.  1.
          2   -1    0    0  501    0  0.00000000000E+00 -0.00000000000E+00 -0.51559832811E+02  0.51559832811E+02  0.00000000000E+00 0. -1.
         23    2    1    2    0    0  0.00000000000E+00  0.00000000000E+00 -0.11365909630E+02  0.91753755993E+02  0.91047063858E+02 0.  0.
        -11    1    3    3    0    0 -0.18455275114E+02  0.28014093875E+02  0.25329355199E+02  0.42035257463E+02  0.00000000000E+00 0.  1.
         11    1    3    3    0    0  0.18455275114E+02 -0.28014093875E+02 -0.36695264829E+02  0.49718498530E+02  0.00000000000E+00 0. -1.
<mgrwt>
<rscale>  0 0.91047064E+02</rscale>
<asrwt>0</asrwt>
<pdfrwt beam="2">  1        2 0.79322820E-02 0.91047064E+02</pdfrwt>
<pdfrwt beam="1">  1       -2 0.61836805E-02 0.91047064E+02</pdfrwt>
<totfact> 0.10230804E+05</totfact>
</mgrwt>
</event>
<event>
 5    1  0.6004828E+000  0.8925426E+02  0.7546771E-02  0.1304668E+00
         -1   -1    0    0    0  501 -0.00000000000E+00  0.00000000000E+00  0.98860787685E+01  0.98860787685E+01  0.00000000000E+00 0.  1.
          1   -1    0    0  501    0  0.00000000000E+00 -0.00000000000E+00 -0.20145304011E+03  0.20145304011E+03  0.00000000000E+00 0. -1.
         23    2    1    2    0    0  0.00000000000E+00  0.00000000000E+00 -0.19156696135E+03  0.21133911888E+03  0.89254257550E+02 0.  0.
        -11    1    3    3    0    0 -0.19965569368E+02 -0.22205692184E+02 -0.17256224314E+02  0.34489041783E+02  0.00000000000E+00 0.  1.
         11    1    3    3    0    0  0.19965569368E+02  0.22205692184E+02 -0.17431073703E+03  0.17685007710E+03  0.00000000000E+00 0. -1.
<mgrwt>
<rscale>  0 0.89254258E+02</rscale>
<asrwt>0</asrwt>
<pdfrwt beam="2">  1        1 0.30992774E-01 0.89254258E+02</pdfrwt>
<pdfrwt beam="1">  1       -1 0.15209353E-02 0.89254258E+02</pdfrwt>
<totfact> 0.12553289E+05</totfact>
</mgrwt>
</event>
<event>
 5    1  0.6004828E+000  0.9095283E+02  0.7546771E-02  0.1300561E+00
          1   -1    0    0  501    0  0.00000000000E+00  0.00000000000E+00  0.50636631221E+02  0.50636631221E+02  0.00000000000E+00 0. -1.
         -1   -1    0    0    0  501 -0.00000000000E+00 -0.00000000000E+00 -0.40842060616E+02  0.40842060616E+02  0.00000000000E+00 0.  1.
         23    2    1    2    0    0  0.00000000000E+00  0.00000000000E+00  0.97945706058E+01  0.91478691837E+02  0.90952830890E+02 0.  0.
        -11    1    3    3    0    0  0.67713137441E+01  0.19867860517E+02 -0.35678518367E+02  0.41394918097E+02  0.00000000000E+00 0.  1.
         11    1    3    3    0    0 -0.67713137441E+01 -0.19867860517E+02  0.45473088973E+02  0.50083773741E+02  0.00000000000E+00 0. -1.
<mgrwt>
<rscale>  0 0.90952831E+02</rscale>
<asrwt>0</asrwt>
<pdfrwt beam="1">  1        1 0.77902510E-02 0.90952831E+02</pdfrwt>
<pdfrwt beam="2">  1       -1 0.62833939E-02 0.90952831E+02</pdfrwt>
<totfact> 0.94590006E+04</totfact>
</mgrwt>
</event>
<event>
 5    1  0.6004828E+000  0.9287964E+02  0.7546771E-02  0.1296024E+00
         -1   -1    0    0    0  501 -0.00000000000E+00  0.00000000000E+00  0.13494545843E+02  0.13494545843E+02  0.00000000000E+00 0.  1.
          1   -1    0    0  501    0  0.00000000000E+00 -0.00000000000E+00 -0.15981691742E+03  0.15981691742E+03  0.00000000000E+00 0. -1.
         23    2    1    2    0    0  0.00000000000E+00  0.00000000000E+00 -0.14632237157E+03  0.17331146326E+03  0.92879636490E+02 0.  0.
        -11    1    3    3    0    0  0.36584993096E+02  0.27924284500E+02 -0.61593720351E+02  0.76889620700E+02  0.00000000000E+00 0. -1.
         11    1    3    3    0    0 -0.36584993096E+02 -0.27924284500E+02 -0.84728651223E+02  0.96421842561E+02  0.00000000000E+00 0.  1.
<mgrwt>
<rscale>  0 0.92879636E+02</rscale>
<asrwt>0</asrwt>
<pdfrwt beam="2">  1        1 0.24587219E-01 0.92879636E+02</pdfrwt>
<pdfrwt beam="1">  1       -1 0.20760839E-02 0.92879636E+02</pdfrwt>
<totfact> 0.10792881E+05</totfact>
</mgrwt>
</event>
<event>
 5    1  0.6004828E+000  0.8967904E+02  0.7546771E-02  0.1303631E+00
         -1   -1    0    0    0  501 -0.00000000000E+00  0.00000000000E+00  0.91613792438E+02  0.91613792438E+02  0.00000000000E+00 0.  1.
          1   -1    0    0  501    0  0.00000000000E+00 -0.00000000000E+00 -0.21946287945E+02  0.21946287945E+02  0.00000000000E+00 0. -1.
         23    2    1    2    0    0  0.00000000000E+00  0.00000000000E+00  0.69667504493E+02  0.11356008038E+03  0.89679042560E+02 0.  0.
        -11    1    3    3    0    0 -0.36519649897E+02 -0.10774207077E+02  0.64821528966E+02  0.75177117424E+02  0.00000000000E+00 0.  1.
         11    1    3    3    0    0  0.36519649897E+02  0.10774207077E+02  0.48459755270E+01  0.38382962959E+02  0.00000000000E+00 0. -1.
<mgrwt>
<rscale>  0 0.89679043E+02</rscale>
<asrwt>0</asrwt>
<pdfrwt beam="2">  1        1 0.33763520E-02 0.89679043E+02</pdfrwt>
<pdfrwt beam="1">  1       -1 0.14094429E-01 0.89679043E+02</pdfrwt>
<totfact> 0.86270994E+04</totfact>
</mgrwt>
</event>
<event>
 5    1  0.6004828E+000  0.9057341E+02  0.7546771E-02  0.1301469E+00
          3   -1    0    0  501    0  0.00000000000E+00  0.00000000000E+00  0.86435636039E+01  0.86435636039E+01  0.00000000000E+00 0. -1.
         -3   -1    0    0    0  501 -0.00000000000E+00 -0.00000000000E+00 -0.23727317997E+03  0.23727317997E+03  0.00000000000E+00 0.  1.
         23    2    1    2    0    0  0.00000000000E+00  0.00000000000E+00 -0.22862961636E+03  0.24591674357E+03  0.90573413816E+02 0.  0.
        -11    1    3    3    0    0  0.16897529245E+02 -0.35642162071E+02 -0.53907701311E+02  0.66797683136E+02  0.00000000000E+00 0.  1.
         11    1    3    3    0    0 -0.16897529245E+02  0.35642162071E+02 -0.17472191505E+03  0.17911906044E+03  0.00000000000E+00 0. -1.
<mgrwt>
<rscale>  0 0.90573414E+02</rscale>
<asrwt>0</asrwt>
<pdfrwt beam="1">  1        3 0.13297793E-02 0.90573414E+02</pdfrwt>
<pdfrwt beam="2">  1       -3 0.36503559E-01 0.90573414E+02</pdfrwt>
<totfact> 0.26755369E+04</totfact>
</mgrwt>
</event>
<event>
 5    1  0.6004828E+000  0.8957306E+02  0.7546771E-02  0.1303889E+00
          1   -1    0    0  501    0  0.00000000000E+00  0.00000000000E+00  0.14365329435E+02  0.14365329435E+02  0.00000000000E+00 0. -1.
         -1   -1    0    0    0  501 -0.00000000000E+00 -0.00000000000E+00 -0.13963014972E+03  0.13963014972E+03  0.00000000000E+00 0.  1.
         23    2    1    2    0    0  0.00000000000E+00  0.00000000000E+00 -0.12526482029E+03  0.15399547916E+03  0.89573056213E+02 0.  0.
        -11    1    3    3    0    0  0.36221358569E+02  0.38562375094E+01 -0.17834505637E+02  0.40557699338E+02  0.00000000000E+00 0.  1.
         11    1    3    3    0    0 -0.36221358569E+02 -0.38562375094E+01 -0.10743031465E+03  0.11343777982E+03  0.00000000000E+00 0. -1.
<mgrwt>
<rscale>  0 0.89573056E+02</rscale>
<asrwt>0</asrwt>
<pdfrwt beam="1">  1        1 0.22100506E-02 0.89573056E+02</pdfrwt>
<pdfrwt beam="2">  1       -1 0.21481563E-01 0.89573056E+02</pdfrwt>
<totfact> 0.79600127E+04</totfact>
</mgrwt>
</event>
<event>
 5    1  0.6004828E+000  0.9075152E+02  0.7546771E-02  0.1301042E+00
          1   -1    0    0  501    0  0.00000000000E+00  0.00000000000E+00  0.17161484419E+03  0.17161484419E+03  0.00000000000E+00 0. -1.
         -1   -1    0    0    0  501 -0.00000000000E+00 -0.00000000000E+00 -0.11997560389E+02  0.11997560389E+02  0.00000000000E+00 0.  1.
         23    2    1    2    0    0  0.00000000000E+00  0.00000000000E+00  0.15961728380E+03  0.18361240458E+03  0.90751516941E+02 0.  0.
        -11    1    3    3    0    0 -0.29511612593E+01  0.35428556866E+02  0.13685791502E+03  0.14140007390E+03  0.00000000000E+00 0. -1.
         11    1    3    3    0    0  0.29511612593E+01 -0.35428556866E+02  0.22759368784E+02  0.42212330684E+02  0.00000000000E+00 0.  1.
<mgrwt>
<rscale>  0 0.90751517E+02</rscale>
<asrwt>0</asrwt>
<pdfrwt beam="1">  1        1 0.26402282E-01 0.90751517E+02</pdfrwt>
<pdfrwt beam="2">  1       -1 0.18457786E-02 0.90751517E+02</pdfrwt>
<totfact> 0.11643456E+05</totfact>
</mgrwt>
</event>
<event>
 5    1  0.6004828E+000  0.9133969E+02  0.7546771E-02  0.1299639E+00
         -4   -1    0    0    0  501 -0.00000000000E+00  0.00000000000E+00  0.26924000827E+02  0.26924000827E+02  0.00000000000E+00 0.  1.
          4   -1    0    0  501    0  0.00000000000E+00 -0.00000000000E+00 -0.77467491912E+02  0.77467491912E+02  0.00000000000E+00 0. -1.
         23    2    1    2    0    0  0.00000000000E+00  0.00000000000E+00 -0.50543491085E+02  0.10439149274E+03  0.91339691620E+02 0.  0.
        -11    1    3    3    0    0  0.29537508272E+02 -0.64259148471E+00  0.14530764024E+02  0.32924465400E+02  0.00000000000E+00 0.  1.
         11    1    3    3    0    0 -0.29537508272E+02  0.64259148471E+00 -0.65074255109E+02  0.71467027339E+02  0.00000000000E+00 0. -1.
<mgrwt>
<rscale>  0 0.91339692E+02</rscale>
<asrwt>0</asrwt>
<pdfrwt beam="2">  1        4 0.11918076E-01 0.91339692E+02</pdfrwt>
<pdfrwt beam="1">  1       -4 0.41421540E-02 0.91339692E+02</pdfrwt>
<totfact> 0.26062635E+04</totfact>
</mgrwt>
</event>
<event>
 5    1  0.6004828E+000  0.8491908E+02  0.7546771E-02  0.1315644E+00
         -3   -1    0    0    0  501 -0.00000000000E+00  0.00000000000E+00  0.47293231292E+02  0.47293231292E+02  0.00000000000E+00 0.  1.
          3   -1    0    0  501    0  0.00000000000E+00 -0.00000000000E+00 -0.38119888182E+02  0.38119888182E+02  0.00000000000E+00 0. -1.
         23    2    1    2    0    0  0.00000000000E+00  0.00000000000E+00  0.91733431103E+01  0.85413119475E+02  0.84919083571E+02 0.  0.
        -11    1    3    3    0    0  0.60872826224E+01  0.15542390648E+02  0.43854699488E+02  0.46923934020E+02  0.00000000000E+00 0.  1.
         11    1    3    3    0    0 -0.60872826224E+01 -0.15542390648E+02 -0.34681356377E+02  0.38489185454E+02  0.00000000000E+00 0. -1.
<mgrwt>
<rscale>  0 0.84919084E+02</rscale>
<asrwt>0</asrwt>
<pdfrwt beam="2">  1        3 0.58645982E-02 0.84919084E+02</pdfrwt>
<pdfrwt beam="1">  1       -3 0.72758817E-02 0.84919084E+02</pdfrwt>
<totfact> 0.43397603E+04</totfact>
</mgrwt>
</event>
<event>
 5    1  0.6004828E+000  0.9275277E+02  0.7546771E-02  0.1296319E+00
          1   -1    0    0  501    0  0.00000000000E+00  0.00000000000E+00  0.39487348769E+02  0.39487348769E+02  0.00000000000E+00 0. -1.
         -1   -1    0    0    0  501 -0.00000000000E+00 -0.00000000000E+00 -0.54467293933E+02  0.54467293933E+02  0.00000000000E+00 0.  1.
         23    2    1    2    0    0  0.00000000000E+00  0.00000000000E+00 -0.14979945164E+02  0.93954642702E+02  0.92752768843E+02 0.  0.
        -11    1    3    3    0    0  0.22228845562E+02  0.18736741043E+02 -0.44091013603E+02  0.52812920015E+02  0.00000000000E+00 0.  1.
         11    1    3    3    0    0 -0.22228845562E+02 -0.18736741043E+02  0.29111068439E+02  0.41141722686E+02  0.00000000000E+00 0. -1.
<mgrwt>
<rscale>  0 0.92752769E+02</rscale>
<asrwt>0</asrwt>
<pdfrwt beam="1">  1        1 0.60749767E-02 0.92752769E+02</pdfrwt>
<pdfrwt beam="2">  1       -1 0.83795837E-02 0.92752769E+02</pdfrwt>
<totfact> 0.86197235E+04</totfact>
</mgrwt>
</event>
<event>
 5    1  0.6004828E+000  0.9486013E+02  0.7546771E-02  0.1291491E+00
         -1   -1    0    0    0  501 -0.00000000000E+00  0.00000000000E+00  0.31313669616E+02  0.31313669616E+02  0.00000000000E+00 0.  1.
          1   -1    0    0  501    0  0.00000000000E+00 -0.00000000000E+00 -0.71841176442E+02  0.71841176442E+02  0.00000000000E+00 0. -1.
         23    2    1    2    0    0  0.00000000000E+00  0.00000000000E+00 -0.40527506826E+02  0.10315484606E+03  0.94860125742E+02 0.  0.
        -11    1    3    3    0    0  0.10275908007E+02 -0.29677912634E+02  0.18386161644E+02  0.36392632822E+02  0.00000000000E+00 0.  1.
         11    1    3    3    0    0 -0.10275908007E+02  0.29677912634E+02 -0.58913668470E+02  0.66762213237E+02  0.00000000000E+00 0. -1.
<mgrwt>
<rscale>  0 0.94860126E+02</rscale>
<asrwt>0</asrwt>
<pdfrwt beam="2">  1        1 0.11052488E-01 0.94860126E+02</pdfrwt>
<pdfrwt beam="1">  1       -1 0.48174877E-02 0.94860126E+02</pdfrwt>
<totfact> 0.88787244E+04</totfact>
</mgrwt>
</event>
<event>
 5    1  0.6004828E+000  0.9052691E+02  0.7546771E-02  0.1301581E+00
          2   -1    0    0  501    0  0.00000000000E+00  0.00000000000E+00  0.10092715780E+02  0.10092715780E+02  0.00000000000E+00 0.  1.
         -2   -1    0    0    0  501 -0.00000000000E+00 -0.00000000000E+00 -0.20299594187E+03  0.20299594187E+03  0.00000000000E+00 0. -1.
         23    2    1    2    0    0  0.00000000000E+00  0.00000000000E+00 -0.19290322609E+03  0.21308865765E+03  0.90526909721E+02 0.  0.
        -11    1    3    3    0    0 -0.11783892962E+02  0.43409214300E+02 -0.10835213025E+03  0.11731753556E+03  0.00000000000E+00 0. -1.
         11    1    3    3    0    0  0.11783892962E+02 -0.43409214300E+02 -0.84551095843E+02  0.95771122097E+02  0.00000000000E+00 0.  1.
<mgrwt>
<rscale>  0 0.90526910E+02</rscale>
<asrwt>0</asrwt>
<pdfrwt beam="1">  1        2 0.15527257E-02 0.90526910E+02</pdfrwt>
<pdfrwt beam="2">  1       -2 0.31230142E-01 0.90526910E+02</pdfrwt>
<totfact> 0.63058696E+04</totfact>
</mgrwt>
</event>
<event>
 5    1  0.6004828E+000  0.9260035E+02  0.7546771E-02  0.1296674E+00
         -4   -1    0    0    0  501 -0.00000000000E+00  0.00000000000E+00  0.19846825861E+03  0.19846825861E+03  0.00000000000E+00 0.  1.
          4   -1    0    0  501    0  0.00000000000E+00 -0.00000000000E+00 -0.10801255339E+02  0.10801255339E+02  0.00000000000E+00 0. -1.
         23    2    1    2    0    0  0.00000000000E+00  0.00000000000E+00  0.18766700327E+03  0.20926951395E+03  0.92600352869E+02 0.  0.
        -11    1    3    3    0    0  0.53472504408E+01  0.33607618296E+02  0.16478356013E+03  0.16826077019E+03  0.00000000000E+00 0.  1.
         11    1    3    3    0    0 -0.53472504408E+01 -0.33607618296E+02  0.22883443138E+02  0.41008743759E+02  0.00000000000E+00 0. -1.
<mgrwt>
<rscale>  0 0.92600353E+02</rscale>
<asrwt>0</asrwt>
<pdfrwt beam="2">  1        4 0.16617317E-02 0.92600353E+02</pdfrwt>
<pdfrwt beam="1">  1       -4 0.30533576E-01 0.92600353E+02</pdfrwt>
<totfact> 0.20150130E+04</totfact>
</mgrwt>
</event>
<event>
 5    1  0.6004828E+000  0.1016314E+03  0.7546771E-02  0.1276902E+00
          1   -1    0    0  501    0  0.00000000000E+00  0.00000000000E+00  0.59502795777E+01  0.59502795777E+01  0.00000000000E+00 0. -1.
         -1   -1    0    0    0  501 -0.00000000000E+00 -0.00000000000E+00 -0.43396836139E+03  0.43396836139E+03  0.00000000000E+00 0.  1.
         23    2    1    2    0    0  0.00000000000E+00  0.00000000000E+00 -0.42801808181E+03  0.43991864097E+03  0.10163135497E+03 0.  0.
        -11    1    3    3    0    0  0.18140060040E+02 -0.47251481280E+02 -0.19442550908E+03  0.20090555703E+03  0.00000000000E+00 0.  1.
         11    1    3    3    0    0 -0.18140060040E+02  0.47251481280E+02 -0.23359257273E+03  0.23901308394E+03  0.00000000000E+00 0. -1.
<mgrwt>
<rscale>  0 0.10163135E+03</rscale>
<asrwt>0</asrwt>
<pdfrwt beam="1">  1        1 0.91542735E-03 0.10163135E+03</pdfrwt>
<pdfrwt beam="2">  1       -1 0.66764383E-01 0.10163135E+03</pdfrwt>
<totfact> 0.38371339E+04</totfact>
</mgrwt>
</event>
<event>
 5    1  0.6004828E+000  0.8910674E+02  0.7546771E-02  0.1305029E+00
          1   -1    0    0  501    0  0.00000000000E+00  0.00000000000E+00  0.11336895318E+03  0.11336895318E+03  0.00000000000E+00 0. -1.
         -1   -1    0    0    0  501 -0.00000000000E+00 -0.00000000000E+00 -0.17509227550E+02  0.17509227550E+02  0.00000000000E+00 0.  1.
         23    2    1    2    0    0  0.00000000000E+00  0.00000000000E+00  0.95859725628E+02  0.13087818073E+03  0.89106740449E+02 0.  0.
        -11    1    3    3    0    0 -0.16628078033E+02 -0.22497235520E+02 -0.30006823463E+01  0.28135790013E+02  0.00000000000E+00 0.  1.
         11    1    3    3    0    0  0.16628078033E+02  0.22497235520E+02  0.98860407975E+02  0.10274239072E+03  0.00000000000E+00 0. -1.
<mgrwt>
<rscale>  0 0.89106740E+02</rscale>
<asrwt>0</asrwt>
<pdfrwt beam="1">  1        1 0.17441377E-01 0.89106740E+02</pdfrwt>
<pdfrwt beam="2">  1       -1 0.26937274E-02 0.89106740E+02</pdfrwt>
<totfact> 0.11353879E+05</totfact>
</mgrwt>
</event>
<event>
 5    1  0.6004828E+000  0.9004908E+02  0.7546771E-02  0.1302733E+00
          4   -1    0    0  501    0  0.00000000000E+00  0.00000000000E+00  0.81220532730E+02  0.81220532730E+02  0.00000000000E+00 0. -1.
         -4   -1    0    0    0  501 -0.00000000000E+00 -0.00000000000E+00 -0.24959317164E+02  0.24959317164E+02  0.00000000000E+00 0.  1.
         23    2    1    2    0    0  0.00000000000E+00  0.00000000000E+00  0.56261215566E+02  0.10617984989E+03  0.90049076323E+02 0.  0.
        -11    1    3    3    0    0 -0.32085937367E+02 -0.10321336565E+02  0.63330678095E+02  0.71741286253E+02  0.00000000000E+00 0. -1.
         11    1    3    3    0    0  0.32085937367E+02  0.10321336565E+02 -0.70694625296E+01  0.34438563641E+02  0.00000000000E+00 0.  1.
<mgrwt>
<rscale>  0 0.90049076E+02</rscale>
<asrwt>0</asrwt>
<pdfrwt beam="1">  1        4 0.12495466E-01 0.90049076E+02</pdfrwt>
<pdfrwt beam="2">  1       -4 0.38398950E-02 0.90049076E+02</pdfrwt>
<totfact> 0.26972507E+04</totfact>
</mgrwt>
</event>
<event>
 5    1  0.6004828E+000  0.8963263E+02  0.7546771E-02  0.1303744E+00
         -1   -1    0    0    0  501 -0.00000000000E+00  0.00000000000E+00  0.26121792958E+02  0.26121792958E+02  0.00000000000E+00 0.  1.
          1   -1    0    0  501    0  0.00000000000E+00 -0.00000000000E+00 -0.76889907533E+02  0.76889907533E+02  0.00000000000E+00 0. -1.
         23    2    1    2    0    0  0.00000000000E+00  0.00000000000E+00 -0.50768114575E+02  0.10301170049E+03  0.89632633457E+02 0.  0.
        -11    1    3    3    0    0 -0.27848348587E+02  0.61481541272E+01 -0.65115614954E+02  0.71087084826E+02  0.00000000000E+00 0. -1.
         11    1    3    3    0    0  0.27848348587E+02 -0.61481541272E+01  0.14347500380E+02  0.31924615664E+02  0.00000000000E+00 0.  1.
<mgrwt>
<rscale>  0 0.89632633E+02</rscale>
<asrwt>0</asrwt>
<pdfrwt beam="2">  1        1 0.11829216E-01 0.89632633E+02</pdfrwt>
<pdfrwt beam="1">  1       -1 0.40187375E-02 0.89632633E+02</pdfrwt>
<totfact> 0.10492059E+05</totfact>
</mgrwt>
</event>
<event>
 5    1  0.6004828E+000  0.8949871E+02  0.7546771E-02  0.1304070E+00
         -1   -1    0    0    0  501 -0.00000000000E+00  0.00000000000E+00  0.50550615686E+01  0.50550615686E+01  0.00000000000E+00 0.  1.
          1   -1    0    0  501    0  0.00000000000E+00 -0.00000000000E+00 -0.39613852117E+03  0.39613852117E+03  0.00000000000E+00 0. -1.
         23    2    1    2    0    0  0.00000000000E+00  0.00000000000E+00 -0.39108345961E+03  0.40119358274E+03  0.89498706454E+02 0.  0.
        -11    1    3    3    0    0  0.16045140576E+02  0.40691545940E+02 -0.23789201466E+03  0.24187984432E+03  0.00000000000E+00 0. -1.
         11    1    3    3    0    0 -0.16045140576E+02 -0.40691545940E+02 -0.15319144494E+03  0.15931373842E+03  0.00000000000E+00 0.  1.
<mgrwt>
<rscale>  0 0.89498706E+02</rscale>
<asrwt>0</asrwt>
<pdfrwt beam="2">  1        1 0.60944396E-01 0.89498706E+02</pdfrwt>
<pdfrwt beam="1">  1       -1 0.77770168E-03 0.89498706E+02</pdfrwt>
<totfact> 0.14147759E+05</totfact>
</mgrwt>
</event>
<event>
 5    1  0.6004828E+000  0.1015624E+03  0.7546771E-02  0.1277044E+00
          1   -1    0    0  501    0  0.00000000000E+00  0.00000000000E+00  0.10026801716E+03  0.10026801716E+03  0.00000000000E+00 0. -1.
         -1   -1    0    0    0  501 -0.00000000000E+00 -0.00000000000E+00 -0.25718368585E+02  0.25718368585E+02  0.00000000000E+00 0.  1.
         23    2    1    2    0    0  0.00000000000E+00  0.00000000000E+00  0.74549648571E+02  0.12598638574E+03  0.10156239112E+03 0.  0.
        -11    1    3    3    0    0  0.49738420259E+02 -0.45595034654E+01  0.48646086105E+02  0.69721884764E+02  0.00000000000E+00 0.  1.
         11    1    3    3    0    0 -0.49738420259E+02  0.45595034654E+01  0.25903562466E+02  0.56264500977E+02  0.00000000000E+00 0. -1.
<mgrwt>
<rscale>  0 0.10156239E+03</rscale>
<asrwt>0</asrwt>
<pdfrwt beam="1">  1        1 0.15425849E-01 0.10156239E+03</pdfrwt>
<pdfrwt beam="2">  1       -1 0.39566721E-02 0.10156239E+03</pdfrwt>
<totfact> 0.77700473E+04</totfact>
</mgrwt>
</event>
<event>
 4    1  0.6004828E+000  0.5252949E+02  0.7546771E-02  0.1432157E+00
         -3   -1    0    0    0  501 -0.00000000000E+00  0.00000000000E+00  0.17718801441E+02  0.17718801441E+02  0.00000000000E+00 0.  1.
          3   -1    0    0  501    0  0.00000000000E+00 -0.00000000000E+00 -0.38932478502E+02  0.38932478502E+02  0.00000000000E+00 0. -1.
        -11    1    1    2    0    0  0.17271432358E+02 -0.19170209142E+02 -0.53193219471E+01  0.26345672893E+02  0.00000000000E+00 0. -1.
         11    1    1    2    0    0 -0.17271432358E+02  0.19170209142E+02 -0.15894355114E+02  0.30305607051E+02  0.00000000000E+00 0.  1.
<mgrwt>
<rscale>  0 0.52529491E+02</rscale>
<asrwt>0</asrwt>
<pdfrwt beam="2">  1        3 0.59896121E-02 0.52529491E+02</pdfrwt>
<pdfrwt beam="1">  1       -3 0.27259694E-02 0.52529491E+02</pdfrwt>
<totfact> 0.16392136E+05</totfact>
</mgrwt>
</event>
<event>
 5    1  0.6004828E+000  0.9171415E+02  0.7546771E-02  0.1298753E+00
          2   -1    0    0  501    0  0.00000000000E+00  0.00000000000E+00  0.24088742936E+03  0.24088742936E+03  0.00000000000E+00 0. -1.
         -2   -1    0    0    0  501 -0.00000000000E+00 -0.00000000000E+00 -0.87296851791E+01  0.87296851791E+01  0.00000000000E+00 0.  1.
         23    2    1    2    0    0  0.00000000000E+00  0.00000000000E+00  0.23215774418E+03  0.24961711454E+03  0.91714152058E+02 0.  0.
        -11    1    3    3    0    0 -0.33068839642E+02 -0.26950106079E+02  0.16186593313E+03  0.16739306043E+03  0.00000000000E+00 0. -1.
         11    1    3    3    0    0  0.33068839642E+02  0.26950106079E+02  0.70291811054E+02  0.82224054109E+02  0.00000000000E+00 0.  1.
<mgrwt>
<rscale>  0 0.91714152E+02</rscale>
<asrwt>0</asrwt>
<pdfrwt beam="1">  1        2 0.37059599E-01 0.91714152E+02</pdfrwt>
<pdfrwt beam="2">  1       -2 0.13430287E-02 0.91714152E+02</pdfrwt>
<totfact> 0.16298248E+05</totfact>
</mgrwt>
</event>
<event>
 5    1  0.6004828E+000  0.8972895E+02  0.7546771E-02  0.1303509E+00
         -4   -1    0    0    0  501 -0.00000000000E+00  0.00000000000E+00  0.29281744442E+02  0.29281744442E+02  0.00000000000E+00 0.  1.
          4   -1    0    0  501    0  0.00000000000E+00 -0.00000000000E+00 -0.68739792912E+02  0.68739792912E+02  0.00000000000E+00 0. -1.
         23    2    1    2    0    0  0.00000000000E+00  0.00000000000E+00 -0.39458048470E+02  0.98021537355E+02  0.89728948485E+02 0.  0.
        -11    1    3    3    0    0 -0.14725833940E+02 -0.40863537301E+02 -0.74597435287E+01  0.44071834991E+02  0.00000000000E+00 0.  1.
         11    1    3    3    0    0  0.14725833940E+02  0.40863537301E+02 -0.31998304942E+02  0.53949702364E+02  0.00000000000E+00 0. -1.
<mgrwt>
<rscale>  0 0.89728948E+02</rscale>
<asrwt>0</asrwt>
<pdfrwt beam="2">  1        4 0.10575353E-01 0.89728948E+02</pdfrwt>
<pdfrwt beam="1">  1       -4 0.45048838E-02 0.89728948E+02</pdfrwt>
<totfact> 0.27756986E+04</totfact>
</mgrwt>
</event>
<event>
 5    1  0.6004828E+000  0.6193699E+02  0.7546771E-02  0.1389878E+00
         -3   -1    0    0    0  501 -0.00000000000E+00  0.00000000000E+00  0.95229640236E+01  0.95229640236E+01  0.00000000000E+00 0.  1.
          3   -1    0    0  501    0  0.00000000000E+00 -0.00000000000E+00 -0.10070896215E+03  0.10070896215E+03  0.00000000000E+00 0. -1.
         23    2    1    2    0    0  0.00000000000E+00  0.00000000000E+00 -0.91185998121E+02  0.11023192617E+03  0.61936994547E+02 0.  0.
        -11    1    3    3    0    0 -0.20862159044E+02  0.81504591206E+01 -0.75302871861E+01  0.23629745850E+02  0.00000000000E+00 0.  1.
         11    1    3    3    0    0  0.20862159044E+02 -0.81504591206E+01 -0.83655710935E+02  0.86602180319E+02  0.00000000000E+00 0. -1.
<mgrwt>
<rscale>  0 0.61936995E+02</rscale>
<asrwt>0</asrwt>
<pdfrwt beam="2">  1        3 0.15493687E-01 0.61936995E+02</pdfrwt>
<pdfrwt beam="1">  1       -3 0.14650714E-02 0.61936995E+02</pdfrwt>
<totfact> 0.94578552E+04</totfact>
</mgrwt>
</event>
<event>
 5    1  0.6004828E+000  0.8396100E+02  0.7546771E-02  0.1318172E+00
          1   -1    0    0  501    0  0.00000000000E+00  0.00000000000E+00  0.12649738262E+03  0.12649738262E+03  0.00000000000E+00 0. -1.
         -1   -1    0    0    0  501 -0.00000000000E+00 -0.00000000000E+00 -0.13932005242E+02  0.13932005242E+02  0.00000000000E+00 0.  1.
         23    2    1    2    0    0  0.00000000000E+00  0.00000000000E+00  0.11256537738E+03  0.14042938787E+03  0.83960995653E+02 0.  0.
        -11    1    3    3    0    0  0.25272613643E+01 -0.31111588631E+02  0.93305141053E+01  0.32578773621E+02  0.00000000000E+00 0.  1.
         11    1    3    3    0    0 -0.25272613643E+01  0.31111588631E+02  0.10323486328E+03  0.10785061425E+03  0.00000000000E+00 0. -1.
<mgrwt>
<rscale>  0 0.83960996E+02</rscale>
<asrwt>0</asrwt>
<pdfrwt beam="1">  1        1 0.19461135E-01 0.83960996E+02</pdfrwt>
<pdfrwt beam="2">  1       -1 0.21433855E-02 0.83960996E+02</pdfrwt>
<totfact> 0.13577678E+05</totfact>
</mgrwt>
</event>
<event>
 5    1  0.6004828E+000  0.8966090E+02  0.7546771E-02  0.1303675E+00
         -1   -1    0    0    0  501 -0.00000000000E+00  0.00000000000E+00  0.43915689202E+02  0.43915689202E+02  0.00000000000E+00 0.  1.
          1   -1    0    0  501    0  0.00000000000E+00 -0.00000000000E+00 -0.45764260377E+02  0.45764260377E+02  0.00000000000E+00 0. -1.
         23    2    1    2    0    0  0.00000000000E+00  0.00000000000E+00 -0.18485711757E+01  0.89679949579E+02  0.89660895273E+02 0.  0.
        -11    1    3    3    0    0  0.20243839603E+02  0.11369802503E+02  0.37433356887E+02  0.44049309400E+02  0.00000000000E+00 0.  1.
         11    1    3    3    0    0 -0.20243839603E+02 -0.11369802503E+02 -0.39281928063E+02  0.45630640179E+02  0.00000000000E+00 0. -1.
<mgrwt>
<rscale>  0 0.89660895E+02</rscale>
<asrwt>0</asrwt>
<pdfrwt beam="2">  1        1 0.70406555E-02 0.89660895E+02</pdfrwt>
<pdfrwt beam="1">  1       -1 0.67562599E-02 0.89660895E+02</pdfrwt>
<totfact> 0.96973538E+04</totfact>
</mgrwt>
</event>
<event>
 5    1  0.6004828E+000  0.8991095E+02  0.7546771E-02  0.1303067E+00
         -1   -1    0    0    0  501 -0.00000000000E+00  0.00000000000E+00  0.29083029600E+02  0.29083029600E+02  0.00000000000E+00 0.  1.
          1   -1    0    0  501    0  0.00000000000E+00 -0.00000000000E+00 -0.69490511697E+02  0.69490511697E+02  0.00000000000E+00 0. -1.
         23    2    1    2    0    0  0.00000000000E+00  0.00000000000E+00 -0.40407482097E+02  0.98573541297E+02  0.89910947245E+02 0.  0.
        -11    1    3    3    0    0  0.32628929718E+02  0.15809281882E+02  0.89354495431E+01  0.37341969776E+02  0.00000000000E+00 0.  1.
         11    1    3    3    0    0 -0.32628929718E+02 -0.15809281882E+02 -0.49342931640E+02  0.61231571521E+02  0.00000000000E+00 0. -1.
<mgrwt>
<rscale>  0 0.89910947E+02</rscale>
<asrwt>0</asrwt>
<pdfrwt beam="2">  1        1 0.10690848E-01 0.89910947E+02</pdfrwt>
<pdfrwt beam="1">  1       -1 0.44743123E-02 0.89910947E+02</pdfrwt>
<totfact> 0.10242426E+05</totfact>
</mgrwt>
</event>
<event>
 5    1  0.6004828E+000  0.9247838E+02  0.7546771E-02  0.1296959E+00
          1   -1    0    0  501    0  0.00000000000E+00  0.00000000000E+00  0.51350598024E+02  0.51350598024E+02  0.00000000000E+00 0. -1.
         -1   -1    0    0    0  501 -0.00000000000E+00 -0.00000000000E+00 -0.41636568179E+02  0.41636568179E+02  0.00000000000E+00 0.  1.
         23    2    1    2    0    0  0.00000000000E+00  0.00000000000E+00  0.97140298447E+01  0.92987166203E+02  0.92478379650E+02 0.  0.
        -11    1    3    3    0    0  0.75291338709E+01 -0.18235987349E+02 -0.37191997644E+02  0.42100876240E+02  0.00000000000E+00 0.  1.
         11    1    3    3    0    0 -0.75291338709E+01  0.18235987349E+02  0.46906027489E+02  0.50886289963E+02  0.00000000000E+00 0. -1.
<mgrwt>
<rscale>  0 0.92478380E+02</rscale>
<asrwt>0</asrwt>
<pdfrwt beam="1">  1        1 0.79000920E-02 0.92478380E+02</pdfrwt>
<pdfrwt beam="2">  1       -1 0.64056259E-02 0.92478380E+02</pdfrwt>
<totfact> 0.90479605E+04</totfact>
</mgrwt>
</event>
<event>
 5    1  0.6004828E+000  0.9134592E+02  0.7546771E-02  0.1299625E+00
          1   -1    0    0  501    0  0.00000000000E+00  0.00000000000E+00  0.73898378288E+02  0.73898378288E+02  0.00000000000E+00 0. -1.
         -1   -1    0    0    0  501 -0.00000000000E+00 -0.00000000000E+00 -0.28228216663E+02  0.28228216663E+02  0.00000000000E+00 0.  1.
         23    2    1    2    0    0  0.00000000000E+00  0.00000000000E+00  0.45670161625E+02  0.10212659495E+03  0.91345923463E+02 0.  0.
        -11    1    3    3    0    0 -0.63550109574E+01 -0.36838171347E+02 -0.65027257527E+01  0.37943675028E+02  0.00000000000E+00 0.  1.
         11    1    3    3    0    0  0.63550109574E+01  0.36838171347E+02  0.52172887378E+02  0.64182919923E+02  0.00000000000E+00 0. -1.
<mgrwt>
<rscale>  0 0.91345923E+02</rscale>
<asrwt>0</asrwt>
<pdfrwt beam="1">  1        1 0.11368981E-01 0.91345923E+02</pdfrwt>
<pdfrwt beam="2">  1       -1 0.43428026E-02 0.91345923E+02</pdfrwt>
<totfact> 0.98992718E+04</totfact>
</mgrwt>
</event>
<event>
 5    1  0.6004828E+000  0.9258548E+02  0.7546771E-02  0.1296709E+00
          1   -1    0    0  501    0  0.00000000000E+00  0.00000000000E+00  0.95844040020E+02  0.95844040020E+02  0.00000000000E+00 0. -1.
         -1   -1    0    0    0  501 -0.00000000000E+00 -0.00000000000E+00 -0.22359425616E+02  0.22359425616E+02  0.00000000000E+00 0.  1.
         23    2    1    2    0    0  0.00000000000E+00  0.00000000000E+00  0.73484614404E+02  0.11820346564E+03  0.92585477989E+02 0.  0.
        -11    1    3    3    0    0  0.42088656660E+02  0.83622418949E+01  0.14569094804E+02  0.45317111916E+02  0.00000000000E+00 0.  1.
         11    1    3    3    0    0 -0.42088656660E+02 -0.83622418949E+01  0.58915519600E+02  0.72886353721E+02  0.00000000000E+00 0. -1.
<mgrwt>
<rscale>  0 0.92585478E+02</rscale>
<asrwt>0</asrwt>
<pdfrwt beam="1">  1        1 0.14745237E-01 0.92585478E+02</pdfrwt>
<pdfrwt beam="2">  1       -1 0.34399117E-02 0.92585478E+02</pdfrwt>
<totfact> 0.99462138E+04</totfact>
</mgrwt>
</event>
<event>
 5    1  0.6004828E+000  0.9067734E+02  0.7546771E-02  0.1301220E+00
         -2   -1    0    0    0  501 -0.00000000000E+00  0.00000000000E+00  0.60194652671E+02  0.60194652671E+02  0.00000000000E+00 0.  1.
          2   -1    0    0  501    0  0.00000000000E+00 -0.00000000000E+00 -0.34149133071E+02  0.34149133071E+02  0.00000000000E+00 0. -1.
         23    2    1    2    0    0  0.00000000000E+00  0.00000000000E+00  0.26045519600E+02  0.94343785742E+02  0.90677344562E+02 0.  0.
        -11    1    3    3    0    0  0.13534936875E+02  0.20770783994E+01  0.57991734833E+02  0.59586492427E+02  0.00000000000E+00 0.  1.
         11    1    3    3    0    0 -0.13534936875E+02 -0.20770783994E+01 -0.31946215232E+02  0.34757293315E+02  0.00000000000E+00 0. -1.
<mgrwt>
<rscale>  0 0.90677345E+02</rscale>
<asrwt>0</asrwt>
<pdfrwt beam="2">  1        2 0.52537128E-02 0.90677345E+02</pdfrwt>
<pdfrwt beam="1">  1       -2 0.92607158E-02 0.90677345E+02</pdfrwt>
<totfact> 0.93032460E+04</totfact>
</mgrwt>
</event>
<event>
 5    1  0.6004828E+000  0.9177511E+02  0.7546771E-02  0.1298609E+00
         -2   -1    0    0    0  501 -0.00000000000E+00  0.00000000000E+00  0.51773099619E+02  0.51773099619E+02  0.00000000000E+00 0.  1.
          2   -1    0    0  501    0  0.00000000000E+00 -0.00000000000E+00 -0.40671079999E+02  0.40671079999E+02  0.00000000000E+00 0. -1.
         23    2    1    2    0    0  0.00000000000E+00  0.00000000000E+00  0.11102019620E+02  0.92444179617E+02  0.91775113759E+02 0.  0.
        -11    1    3    3    0    0  0.30761658094E+00  0.38393727227E+02  0.30863774676E+02  0.49262008745E+02  0.00000000000E+00 0.  1.
         11    1    3    3    0    0 -0.30761658094E+00 -0.38393727227E+02 -0.19761755055E+02  0.43182170872E+02  0.00000000000E+00 0. -1.
<mgrwt>
<rscale>  0 0.91775114E+02</rscale>
<asrwt>0</asrwt>
<pdfrwt beam="2">  1        2 0.62570892E-02 0.91775114E+02</pdfrwt>
<pdfrwt beam="1">  1       -2 0.79650923E-02 0.91775114E+02</pdfrwt>
<totfact> 0.94001450E+04</totfact>
</mgrwt>
</event>
<event>
 5    1  0.6004828E+000  0.8767606E+02  0.7546771E-02  0.1308579E+00
          1   -1    0    0  501    0  0.00000000000E+00  0.00000000000E+00  0.20784810480E+03  0.20784810480E+03  0.00000000000E+00 0. -1.
         -1   -1    0    0    0  501 -0.00000000000E+00 -0.00000000000E+00 -0.92460449970E+01  0.92460449970E+01  0.00000000000E+00 0.  1.
         23    2    1    2    0    0  0.00000000000E+00  0.00000000000E+00  0.19860205980E+03  0.21709414979E+03  0.87676061259E+02 0.  0.
        -11    1    3    3    0    0 -0.23395407086E+02 -0.30868158791E+02  0.48460569675E+02  0.62037207489E+02  0.00000000000E+00 0.  1.
         11    1    3    3    0    0  0.23395407086E+02  0.30868158791E+02  0.15014149013E+03  0.15505694230E+03  0.00000000000E+00 0. -1.
<mgrwt>
<rscale>  0 0.87676061E+02</rscale>
<asrwt>0</asrwt>
<pdfrwt beam="1">  1        1 0.31976628E-01 0.87676061E+02</pdfrwt>
<pdfrwt beam="2">  1       -1 0.14224686E-02 0.87676061E+02</pdfrwt>
<totfact> 0.13245373E+05</totfact>
</mgrwt>
</event>
<event>
 5    1  0.6004828E+000  0.9423643E+02  0.7546771E-02  0.1292905E+00
         -2   -1    0    0    0  501 -0.00000000000E+00  0.00000000000E+00  0.78593718469E+01  0.78593718469E+01  0.00000000000E+00 0.  1.
          2   -1    0    0  501    0  0.00000000000E+00 -0.00000000000E+00 -0.28248139611E+03  0.28248139611E+03  0.00000000000E+00 0. -1.
         23    2    1    2    0    0  0.00000000000E+00  0.00000000000E+00 -0.27462202426E+03  0.29034076796E+03  0.94236433122E+02 0.  0.
        -11    1    3    3    0    0 -0.33434896022E+02  0.19492160708E+02 -0.22011378905E+03  0.22349030568E+03  0.00000000000E+00 0. -1.
         11    1    3    3    0    0  0.33434896022E+02 -0.19492160708E+02 -0.54508235208E+02  0.66850462276E+02  0.00000000000E+00 0.  1.
<mgrwt>
<rscale>  0 0.94236433E+02</rscale>
<asrwt>0</asrwt>
<pdfrwt beam="2">  1        2 0.43458676E-01 0.94236433E+02</pdfrwt>
<pdfrwt beam="1">  1       -2 0.12091341E-02 0.94236433E+02</pdfrwt>
<totfact> 0.16081385E+05</totfact>
</mgrwt>
</event>
<event>
 5    1  0.6004828E+000  0.1047234E+03  0.7546771E-02  0.1270665E+00
         -2   -1    0    0    0  501 -0.00000000000E+00  0.00000000000E+00  0.16907900263E+03  0.16907900263E+03  0.00000000000E+00 0.  1.
          2   -1    0    0  501    0  0.00000000000E+00 -0.00000000000E+00 -0.16215793709E+02  0.16215793709E+02  0.00000000000E+00 0. -1.
         23    2    1    2    0    0  0.00000000000E+00  0.00000000000E+00  0.15286320892E+03  0.18529479634E+03  0.10472344966E+03 0.  0.
        -11    1    3    3    0    0 -0.47385134788E+02  0.41024675270E+01  0.11517920637E+03  0.12461312458E+03  0.00000000000E+00 0. -1.
         11    1    3    3    0    0  0.47385134788E+02 -0.41024675270E+01  0.37684002553E+02  0.60681671756E+02  0.00000000000E+00 0.  1.
<mgrwt>
<rscale>  0 0.10472345E+03</rscale>
<asrwt>0</asrwt>
<pdfrwt beam="2">  1        2 0.24947376E-02 0.10472345E+03</pdfrwt>
<pdfrwt beam="1">  1       -2 0.26012153E-01 0.10472345E+03</pdfrwt>
<totfact> 0.46938250E+04</totfact>
</mgrwt>
</event>
<event>
 5    1  0.6004828E+000  0.9223549E+02  0.7546771E-02  0.1297527E+00
          2   -1    0    0  501    0  0.00000000000E+00  0.00000000000E+00  0.47354014087E+03  0.47354014087E+03  0.00000000000E+00 0. -1.
         -2   -1    0    0    0  501 -0.00000000000E+00 -0.00000000000E+00 -0.44913747108E+01  0.44913747108E+01  0.00000000000E+00 0.  1.
         23    2    1    2    0    0  0.00000000000E+00  0.00000000000E+00  0.46904876616E+03  0.47803151558E+03  0.92235485866E+02 0.  0.
        -11    1    3    3    0    0 -0.44027080066E+02 -0.13345287079E+02  0.21783813141E+03  0.22264305954E+03  0.00000000000E+00 0. -1.
         11    1    3    3    0    0  0.44027080066E+02  0.13345287079E+02  0.25121063475E+03  0.25538845604E+03  0.00000000000E+00 0.  1.
<mgrwt>
<rscale>  0 0.92235486E+02</rscale>
<asrwt>0</asrwt>
<pdfrwt beam="1">  1        2 0.72852290E-01 0.92235486E+02</pdfrwt>
<pdfrwt beam="2">  1       -2 0.69098110E-03 0.92235486E+02</pdfrwt>
<totfact> 0.20528509E+05</totfact>
</mgrwt>
</event>
<event>
 5    1  0.6004828E+000  0.9130382E+02  0.7546771E-02  0.1299725E+00
         -2   -1    0    0    0  501 -0.00000000000E+00  0.00000000000E+00  0.68244728409E+02  0.68244728409E+02  0.00000000000E+00 0.  1.
          2   -1    0    0  501    0  0.00000000000E+00 -0.00000000000E+00 -0.30538579346E+02  0.30538579346E+02  0.00000000000E+00 0. -1.
         23    2    1    2    0    0  0.00000000000E+00  0.00000000000E+00  0.37706149063E+02  0.98783307755E+02  0.91303823654E+02 0.  0.
        -11    1    3    3    0    0 -0.34214753030E+02  0.13832690329E+02  0.47926392403E+02  0.60489104270E+02  0.00000000000E+00 0.  1.
         11    1    3    3    0    0  0.34214753030E+02 -0.13832690329E+02 -0.10220243340E+02  0.38294203485E+02  0.00000000000E+00 0. -1.
<mgrwt>
<rscale>  0 0.91303824E+02</rscale>
<asrwt>0</asrwt>
<pdfrwt beam="2">  1        2 0.46982430E-02 0.91303824E+02</pdfrwt>
<pdfrwt beam="1">  1       -2 0.10499189E-01 0.91303824E+02</pdfrwt>
<totfact> 0.88520447E+04</totfact>
</mgrwt>
</event>
<event>
 5    1  0.6004828E+000  0.9061056E+02  0.7546771E-02  0.1301380E+00
         -3   -1    0    0    0  501 -0.00000000000E+00  0.00000000000E+00  0.61266418969E+01  0.61266418969E+01  0.00000000000E+00 0.  1.
          3   -1    0    0  501    0  0.00000000000E+00 -0.00000000000E+00 -0.33502339955E+03  0.33502339955E+03  0.00000000000E+00 0. -1.
         23    2    1    2    0    0  0.00000000000E+00  0.00000000000E+00 -0.32889675765E+03  0.34115004145E+03  0.90610560006E+02 0.  0.
        -11    1    3    3    0    0  0.30342160783E+02 -0.33059181709E+02 -0.14093220169E+03  0.14790348775E+03  0.00000000000E+00 0.  1.
         11    1    3    3    0    0 -0.30342160783E+02  0.33059181709E+02 -0.18796455596E+03  0.19324655370E+03  0.00000000000E+00 0. -1.
<mgrwt>
<rscale>  0 0.90610560E+02</rscale>
<asrwt>0</asrwt>
<pdfrwt beam="2">  1        3 0.51542063E-01 0.90610560E+02</pdfrwt>
<pdfrwt beam="1">  1       -3 0.94256027E-03 0.90610560E+02</pdfrwt>
<totfact> 0.22900547E+04</totfact>
</mgrwt>
</event>
<event>
 5    1  0.6004828E+000  0.8212452E+02  0.7546771E-02  0.1323128E+00
          2   -1    0    0  501    0  0.00000000000E+00  0.00000000000E+00  0.15057449038E+02  0.15057449038E+02  0.00000000000E+00 0. -1.
         -2   -1    0    0    0  501 -0.00000000000E+00 -0.00000000000E+00 -0.11197841779E+03  0.11197841779E+03  0.00000000000E+00 0.  1.
         23    2    1    2    0    0  0.00000000000E+00  0.00000000000E+00 -0.96920968755E+02  0.12703586683E+03  0.82124522995E+02 0.  0.
        -11    1    3    3    0    0  0.19754481056E+02 -0.28823302996E+02 -0.81820066081E+02  0.88969351638E+02  0.00000000000E+00 0. -1.
         11    1    3    3    0    0 -0.19754481056E+02  0.28823302996E+02 -0.15100902674E+02  0.38066515193E+02  0.00000000000E+00 0.  1.
<mgrwt>
<rscale>  0 0.82124523E+02</rscale>
<asrwt>0</asrwt>
<pdfrwt beam="1">  1        2 0.23165307E-02 0.82124523E+02</pdfrwt>
<pdfrwt beam="2">  1       -2 0.17227448E-01 0.82124523E+02</pdfrwt>
<totfact> 0.10013634E+05</totfact>
</mgrwt>
</event>
<event>
 5    1  0.6004828E+000  0.1059198E+03  0.7546771E-02  0.1268318E+00
         -1   -1    0    0    0  501 -0.00000000000E+00  0.00000000000E+00  0.43098408610E+02  0.43098408610E+02  0.00000000000E+00 0.  1.
          1   -1    0    0  501    0  0.00000000000E+00 -0.00000000000E+00 -0.65077831090E+02  0.65077831090E+02  0.00000000000E+00 0. -1.
         23    2    1    2    0    0  0.00000000000E+00  0.00000000000E+00 -0.21979422479E+02  0.10817623970E+03  0.10591979901E+03 0.  0.
        -11    1    3    3    0    0 -0.28344280635E+02  0.71111426652E+01  0.34118890537E+02  0.44922881544E+02  0.00000000000E+00 0.  1.
         11    1    3    3    0    0  0.28344280635E+02 -0.71111426652E+01 -0.56098313016E+02  0.63253358156E+02  0.00000000000E+00 0. -1.
<mgrwt>
<rscale>  0 0.10591980E+03</rscale>
<asrwt>0</asrwt>
<pdfrwt beam="2">  1        1 0.10011974E-01 0.10591980E+03</pdfrwt>
<pdfrwt beam="1">  1       -1 0.66305244E-02 0.10591980E+03</pdfrwt>
<totfact> 0.64149078E+04</totfact>
</mgrwt>
</event>
<event>
 5    1  0.6004828E+000  0.9384849E+02  0.7546771E-02  0.1293791E+00
         -1   -1    0    0    0  501 -0.00000000000E+00  0.00000000000E+00  0.10190335434E+02  0.10190335434E+02  0.00000000000E+00 0.  1.
          1   -1    0    0  501    0  0.00000000000E+00 -0.00000000000E+00 -0.21607579461E+03  0.21607579461E+03  0.00000000000E+00 0. -1.
         23    2    1    2    0    0  0.00000000000E+00  0.00000000000E+00 -0.20588545917E+03  0.22626613004E+03  0.93848491224E+02 0.  0.
        -11    1    3    3    0    0 -0.21673785144E+02  0.31736957749E+02 -0.16785555578E+03  0.17219894035E+03  0.00000000000E+00 0. -1.
         11    1    3    3    0    0  0.21673785144E+02 -0.31736957749E+02 -0.38029903391E+02  0.54067189695E+02  0.00000000000E+00 0.  1.
<mgrwt>
<rscale>  0 0.93848491E+02</rscale>
<asrwt>0</asrwt>
<pdfrwt beam="2">  1        1 0.33242427E-01 0.93848491E+02</pdfrwt>
<pdfrwt beam="1">  1       -1 0.15677441E-02 0.93848491E+02</pdfrwt>
<totfact> 0.11123407E+05</totfact>
</mgrwt>
</event>
<event>
 5    1  0.6004828E+000  0.9211213E+02  0.7546771E-02  0.1297816E+00
         -1   -1    0    0    0  501 -0.00000000000E+00  0.00000000000E+00  0.41597386865E+02  0.41597386865E+02  0.00000000000E+00 0. -1.
          1   -1    0    0  501    0  0.00000000000E+00 -0.00000000000E+00 -0.50992657006E+02  0.50992657006E+02  0.00000000000E+00 0.  1.
         23    2    1    2    0    0  0.00000000000E+00  0.00000000000E+00 -0.93952701415E+01  0.92590043871E+02  0.92112133419E+02 0.  0.
        -11    1    3    3    0    0 -0.16412468750E+02  0.74454118061E-01 -0.47953292596E+02  0.50684247500E+02  0.00000000000E+00 0.  1.
         11    1    3    3    0    0  0.16412468750E+02 -0.74454118061E-01  0.38558022455E+02  0.41905796371E+02  0.00000000000E+00 0. -1.
<mgrwt>
<rscale>  0 0.92112133E+02</rscale>
<asrwt>0</asrwt>
<pdfrwt beam="2">  1        1 0.78450242E-02 0.92112133E+02</pdfrwt>
<pdfrwt beam="1">  1       -1 0.63995980E-02 0.92112133E+02</pdfrwt>
<totfact> 0.91393701E+04</totfact>
</mgrwt>
</event>
<event>
 5    1  0.6004828E+000  0.9372582E+02  0.7546771E-02  0.1294072E+00
         -2   -1    0    0    0  501 -0.00000000000E+00  0.00000000000E+00  0.22036733551E+02  0.22036733551E+02  0.00000000000E+00 0.  1.
          2   -1    0    0  501    0  0.00000000000E+00 -0.00000000000E+00 -0.99657802048E+02  0.99657802048E+02  0.00000000000E+00 0. -1.
         23    2    1    2    0    0  0.00000000000E+00  0.00000000000E+00 -0.77621068497E+02  0.12169453560E+03  0.93725822057E+02 0.  0.
        -11    1    3    3    0    0 -0.35075465966E+02 -0.27031584587E+02 -0.18900462926E+02  0.48147921833E+02  0.00000000000E+00 0. -1.
         11    1    3    3    0    0  0.35075465966E+02  0.27031584587E+02 -0.58720605570E+02  0.73546613767E+02  0.00000000000E+00 0.  1.
<mgrwt>
<rscale>  0 0.93725822E+02</rscale>
<asrwt>0</asrwt>
<pdfrwt beam="2">  1        2 0.15331970E-01 0.93725822E+02</pdfrwt>
<pdfrwt beam="1">  1       -2 0.33902667E-02 0.93725822E+02</pdfrwt>
<totfact> 0.11356397E+05</totfact>
</mgrwt>
</event>
<event>
 5    1  0.6004828E+000  0.9180363E+02  0.7546771E-02  0.1298542E+00
         -1   -1    0    0    0  501 -0.00000000000E+00  0.00000000000E+00  0.13000734891E+03  0.13000734891E+03  0.00000000000E+00 0.  1.
          1   -1    0    0  501    0  0.00000000000E+00 -0.00000000000E+00 -0.16206596246E+02  0.16206596246E+02  0.00000000000E+00 0. -1.
         23    2    1    2    0    0  0.00000000000E+00  0.00000000000E+00  0.11380075266E+03  0.14621394515E+03  0.91803629836E+02 0.  0.
        -11    1    3    3    0    0  0.45791425021E+02  0.43992430176E+00  0.61918833148E+02  0.77012921236E+02  0.00000000000E+00 0.  1.
         11    1    3    3    0    0 -0.45791425021E+02 -0.43992430176E+00  0.51881919513E+02  0.69201023918E+02  0.00000000000E+00 0. -1.
<mgrwt>
<rscale>  0 0.91803630E+02</rscale>
<asrwt>0</asrwt>
<pdfrwt beam="2">  1        1 0.24933226E-02 0.91803630E+02</pdfrwt>
<pdfrwt beam="1">  1       -1 0.20001130E-01 0.91803630E+02</pdfrwt>
<totfact> 0.75864623E+04</totfact>
</mgrwt>
</event>
<event>
 5    1  0.6004828E+000  0.8705598E+02  0.7546771E-02  0.1310142E+00
         -1   -1    0    0    0  501 -0.00000000000E+00  0.00000000000E+00  0.74326932023E+02  0.74326932023E+02  0.00000000000E+00 0.  1.
          1   -1    0    0  501    0  0.00000000000E+00 -0.00000000000E+00 -0.25491243492E+02  0.25491243492E+02  0.00000000000E+00 0. -1.
         23    2    1    2    0    0  0.00000000000E+00  0.00000000000E+00  0.48835688532E+02  0.99818175515E+02  0.87055980202E+02 0.  0.
        -11    1    3    3    0    0  0.16343370277E+02  0.11841633771E+02  0.68637816451E+02  0.71543552397E+02  0.00000000000E+00 0.  1.
         11    1    3    3    0    0 -0.16343370277E+02 -0.11841633771E+02 -0.19802127919E+02  0.28274623119E+02  0.00000000000E+00 0. -1.
<mgrwt>
<rscale>  0 0.87055980E+02</rscale>
<asrwt>0</asrwt>
<pdfrwt beam="2">  1        1 0.39217298E-02 0.87055980E+02</pdfrwt>
<pdfrwt beam="1">  1       -1 0.11434912E-01 0.87055980E+02</pdfrwt>
<totfact> 0.96426209E+04</totfact>
</mgrwt>
</event>
<event>
 5    1  0.6004828E+000  0.9166608E+02  0.7546771E-02  0.1298866E+00
         -4   -1    0    0    0  501 -0.00000000000E+00  0.00000000000E+00  0.19247566412E+03  0.19247566412E+03  0.00000000000E+00 0.  1.
          4   -1    0    0  501    0  0.00000000000E+00 -0.00000000000E+00 -0.10913938639E+02  0.10913938639E+02  0.00000000000E+00 0. -1.
         23    2    1    2    0    0  0.00000000000E+00  0.00000000000E+00  0.18156172549E+03  0.20338960276E+03  0.91666080700E+02 0.  0.
        -11    1    3    3    0    0  0.10078447237E+02 -0.28597577573E+02  0.14521202729E+02  0.33619367490E+02  0.00000000000E+00 0. -1.
         11    1    3    3    0    0 -0.10078447237E+02  0.28597577573E+02  0.16704052276E+03  0.16977023527E+03  0.00000000000E+00 0.  1.
<mgrwt>
<rscale>  0 0.91666081E+02</rscale>
<asrwt>0</asrwt>
<pdfrwt beam="2">  1        4 0.16790676E-02 0.91666081E+02</pdfrwt>
<pdfrwt beam="1">  1       -4 0.29611638E-01 0.91666081E+02</pdfrwt>
<totfact> 0.20942668E+04</totfact>
</mgrwt>
</event>
<event>
 5    1  0.6004828E+000  0.8993579E+02  0.7546771E-02  0.1303007E+00
         -2   -1    0    0    0  501 -0.00000000000E+00  0.00000000000E+00  0.15061132216E+02  0.15061132216E+02  0.00000000000E+00 0.  1.
          2   -1    0    0  501    0  0.00000000000E+00 -0.00000000000E+00 -0.13426027464E+03  0.13426027464E+03  0.00000000000E+00 0. -1.
         23    2    1    2    0    0  0.00000000000E+00  0.00000000000E+00 -0.11919914243E+03  0.14932140686E+03  0.89935793715E+02 0.  0.
        -11    1    3    3    0    0 -0.42635752256E+02 -0.35132314330E+01 -0.36595925955E+02  0.56297530693E+02  0.00000000000E+00 0.  1.
         11    1    3    3    0    0  0.42635752256E+02  0.35132314330E+01 -0.82603216471E+02  0.93023876166E+02  0.00000000000E+00 0. -1.
<mgrwt>
<rscale>  0 0.89935794E+02</rscale>
<asrwt>0</asrwt>
<pdfrwt beam="2">  1        2 0.20655426E-01 0.89935794E+02</pdfrwt>
<pdfrwt beam="1">  1       -2 0.23170973E-02 0.89935794E+02</pdfrwt>
<totfact> 0.13981914E+05</totfact>
</mgrwt>
</event>
<event>
 5    1  0.6004828E+000  0.9078158E+02  0.7546771E-02  0.1300970E+00
          1   -1    0    0  501    0  0.00000000000E+00  0.00000000000E+00  0.15200678218E+03  0.15200678218E+03  0.00000000000E+00 0. -1.
         -1   -1    0    0    0  501 -0.00000000000E+00 -0.00000000000E+00 -0.13554156564E+02  0.13554156564E+02  0.00000000000E+00 0.  1.
         23    2    1    2    0    0  0.00000000000E+00  0.00000000000E+00  0.13845262562E+03  0.16556093874E+03  0.90781577966E+02 0.  0.
        -11    1    3    3    0    0 -0.18294678569E+02  0.26940677508E+02  0.11559907829E+02  0.34556140374E+02  0.00000000000E+00 0.  1.
         11    1    3    3    0    0  0.18294678569E+02 -0.26940677508E+02  0.12689271779E+03  0.13100479837E+03  0.00000000000E+00 0. -1.
<mgrwt>
<rscale>  0 0.90781578E+02</rscale>
<asrwt>0</asrwt>
<pdfrwt beam="1">  1        1 0.23385658E-01 0.90781578E+02</pdfrwt>
<pdfrwt beam="2">  1       -1 0.20852550E-02 0.90781578E+02</pdfrwt>
<totfact> 0.11373159E+05</totfact>
</mgrwt>
</event>
<event>
 5    1  0.6004828E+000  0.9239333E+02  0.7546771E-02  0.1297157E+00
          2   -1    0    0  501    0  0.00000000000E+00  0.00000000000E+00  0.32367907083E+03  0.32367907083E+03  0.00000000000E+00 0. -1.
         -2   -1    0    0    0  501 -0.00000000000E+00 -0.00000000000E+00 -0.65933572542E+01  0.65933572542E+01  0.00000000000E+00 0.  1.
         23    2    1    2    0    0  0.00000000000E+00  0.00000000000E+00  0.31708571357E+03  0.33027242808E+03  0.92393327674E+02 0.  0.
        -11    1    3    3    0    0  0.11284135325E+01 -0.45478402334E+02  0.18726774726E+03  0.19271421214E+03  0.00000000000E+00 0.  1.
         11    1    3    3    0    0 -0.11284135325E+01  0.45478402334E+02  0.12981796631E+03  0.13755821594E+03  0.00000000000E+00 0. -1.
<mgrwt>
<rscale>  0 0.92393328E+02</rscale>
<asrwt>0</asrwt>
<pdfrwt beam="1">  1        2 0.49796768E-01 0.92393328E+02</pdfrwt>
<pdfrwt beam="2">  1       -2 0.10143629E-02 0.92393328E+02</pdfrwt>
<totfact> 0.17838005E+05</totfact>
</mgrwt>
</event>
<event>
 5    1  0.6004828E+000  0.9152300E+02  0.7546771E-02  0.1299205E+00
          2   -1    0    0  501    0  0.00000000000E+00  0.00000000000E+00  0.90352338863E+02  0.90352338863E+02  0.00000000000E+00 0. -1.
         -2   -1    0    0    0  501 -0.00000000000E+00 -0.00000000000E+00 -0.23177206753E+02  0.23177206753E+02  0.00000000000E+00 0.  1.
         23    2    1    2    0    0  0.00000000000E+00  0.00000000000E+00  0.67175132110E+02  0.11352954562E+03  0.91522999042E+02 0.  0.
        -11    1    3    3    0    0 -0.21380152904E+02  0.37976470121E+02  0.50900225599E+02  0.67008627707E+02  0.00000000000E+00 0. -1.
         11    1    3    3    0    0  0.21380152904E+02 -0.37976470121E+02  0.16274906511E+02  0.46520917908E+02  0.00000000000E+00 0.  1.
<mgrwt>
<rscale>  0 0.91522999E+02</rscale>
<asrwt>0</asrwt>
<pdfrwt beam="1">  1        2 0.13900360E-01 0.91522999E+02</pdfrwt>
<pdfrwt beam="2">  1       -2 0.35657242E-02 0.91522999E+02</pdfrwt>
<totfact> 0.11775428E+05</totfact>
</mgrwt>
</event>
<event>
 5    1  0.6004828E+000  0.1059476E+03  0.7546771E-02  0.1268264E+00
         -2   -1    0    0    0  501 -0.00000000000E+00  0.00000000000E+00  0.15507203108E+03  0.15507203108E+03  0.00000000000E+00 0.  1.
          2   -1    0    0  501    0  0.00000000000E+00 -0.00000000000E+00 -0.18096256014E+02  0.18096256014E+02  0.00000000000E+00 0. -1.
         23    2    1    2    0    0  0.00000000000E+00  0.00000000000E+00  0.13697577506E+03  0.17316828709E+03  0.10594759412E+03 0.  0.
        -11    1    3    3    0    0  0.50989044529E+02  0.86256413939E+01  0.87262179423E+02  0.10143457157E+03  0.00000000000E+00 0.  1.
         11    1    3    3    0    0 -0.50989044529E+02 -0.86256413939E+01  0.49713595639E+02  0.71733715524E+02  0.00000000000E+00 0. -1.
<mgrwt>
<rscale>  0 0.10594759E+03</rscale>
<asrwt>0</asrwt>
<pdfrwt beam="2">  1        2 0.27840395E-02 0.10594759E+03</pdfrwt>
<pdfrwt beam="1">  1       -2 0.23857235E-01 0.10594759E+03</pdfrwt>
<totfact> 0.47152779E+04</totfact>
</mgrwt>
</event>
<event>
 5    1  0.6004828E+000  0.9057930E+02  0.7546771E-02  0.1301455E+00
          4   -1    0    0  501    0  0.00000000000E+00  0.00000000000E+00  0.16336399306E+02  0.16336399306E+02  0.00000000000E+00 0.  1.
         -4   -1    0    0    0  501 -0.00000000000E+00 -0.00000000000E+00 -0.12555718334E+03  0.12555718334E+03  0.00000000000E+00 0. -1.
         23    2    1    2    0    0  0.00000000000E+00  0.00000000000E+00 -0.10922078404E+03  0.14189358265E+03  0.90579297477E+02 0.  0.
        -11    1    3    3    0    0 -0.28577830815E+02 -0.27237239464E+02 -0.19842547067E+02  0.44184684019E+02  0.00000000000E+00 0.  1.
         11    1    3    3    0    0  0.28577830815E+02  0.27237239464E+02 -0.89378236970E+02  0.97708898631E+02  0.00000000000E+00 0. -1.
<mgrwt>
<rscale>  0 0.90579297E+02</rscale>
<asrwt>0</asrwt>
<pdfrwt beam="1">  1        4 0.25132923E-02 0.90579297E+02</pdfrwt>
<pdfrwt beam="2">  1       -4 0.19316489E-01 0.90579297E+02</pdfrwt>
<totfact> 0.24516378E+04</totfact>
</mgrwt>
</event>
<event>
 5    1  0.6004828E+000  0.9018678E+02  0.7546771E-02  0.1302400E+00
          2   -1    0    0  501    0  0.00000000000E+00  0.00000000000E+00  0.36300195414E+02  0.36300195414E+02  0.00000000000E+00 0. -1.
         -2   -1    0    0    0  501 -0.00000000000E+00 -0.00000000000E+00 -0.56016609885E+02  0.56016609885E+02  0.00000000000E+00 0.  1.
         23    2    1    2    0    0  0.00000000000E+00  0.00000000000E+00 -0.19716414470E+02  0.92316805299E+02  0.90186781410E+02 0.  0.
        -11    1    3    3    0    0 -0.31673424365E+02 -0.12968881279E+02 -0.39911744193E+02  0.52577038878E+02  0.00000000000E+00 0.  1.
         11    1    3    3    0    0  0.31673424365E+02  0.12968881279E+02  0.20195329722E+02  0.39739766421E+02  0.00000000000E+00 0. -1.
<mgrwt>
<rscale>  0 0.90186781E+02</rscale>
<asrwt>0</asrwt>
<pdfrwt beam="1">  1        2 0.55846455E-02 0.90186781E+02</pdfrwt>
<pdfrwt beam="2">  1       -2 0.86179399E-02 0.90186781E+02</pdfrwt>
<totfact> 0.96023755E+04</totfact>
</mgrwt>
</event>
<event>
 5    1  0.6004828E+000  0.8933525E+02  0.7546771E-02  0.1304470E+00
         -2   -1    0    0    0  501 -0.00000000000E+00  0.00000000000E+00  0.46628355470E+02  0.46628355470E+02  0.00000000000E+00 0.  1.
          2   -1    0    0  501    0  0.00000000000E+00 -0.00000000000E+00 -0.42789347855E+02  0.42789347855E+02  0.00000000000E+00 0. -1.
         23    2    1    2    0    0  0.00000000000E+00  0.00000000000E+00  0.38390076154E+01  0.89417703325E+02  0.89335254455E+02 0.  0.
        -11    1    3    3    0    0 -0.89802684508E+01 -0.39220982651E+02  0.21334988986E+02  0.45542424800E+02  0.00000000000E+00 0.  1.
         11    1    3    3    0    0  0.89802684508E+01  0.39220982651E+02 -0.17495981371E+02  0.43875278526E+02  0.00000000000E+00 0. -1.
<mgrwt>
<rscale>  0 0.89335254E+02</rscale>
<asrwt>0</asrwt>
<pdfrwt beam="2">  1        2 0.65829766E-02 0.89335254E+02</pdfrwt>
<pdfrwt beam="1">  1       -2 0.71735931E-02 0.89335254E+02</pdfrwt>
<totfact> 0.10292979E+05</totfact>
</mgrwt>
</event>
<event>
 5    1  0.6004828E+000  0.8984583E+02  0.7546771E-02  0.1303225E+00
          1   -1    0    0  501    0  0.00000000000E+00  0.00000000000E+00  0.52355700827E+02  0.52355700827E+02  0.00000000000E+00 0. -1.
         -1   -1    0    0    0  501 -0.00000000000E+00 -0.00000000000E+00 -0.38545339971E+02  0.38545339971E+02  0.00000000000E+00 0.  1.
         23    2    1    2    0    0  0.00000000000E+00  0.00000000000E+00  0.13810360856E+02  0.90901040798E+02  0.89845829904E+02 0.  0.
        -11    1    3    3    0    0 -0.11701016512E+02  0.42999385153E+02  0.11633731884E+01  0.44578182423E+02  0.00000000000E+00 0.  1.
         11    1    3    3    0    0  0.11701016512E+02 -0.42999385153E+02  0.12646987668E+02  0.46322858375E+02  0.00000000000E+00 0. -1.
<mgrwt>
<rscale>  0 0.89845830E+02</rscale>
<asrwt>0</asrwt>
<pdfrwt beam="1">  1        1 0.80547233E-02 0.89845830E+02</pdfrwt>
<pdfrwt beam="2">  1       -1 0.59300523E-02 0.89845830E+02</pdfrwt>
<totfact> 0.98359503E+04</totfact>
</mgrwt>
</event>
<event>
 5    1  0.6004828E+000  0.9130236E+02  0.7546771E-02  0.1299728E+00
          2   -1    0    0  501    0  0.00000000000E+00  0.00000000000E+00  0.14048694219E+03  0.14048694219E+03  0.00000000000E+00 0. -1.
         -2   -1    0    0    0  501 -0.00000000000E+00 -0.00000000000E+00 -0.14834334062E+02  0.14834334062E+02  0.00000000000E+00 0.  1.
         23    2    1    2    0    0  0.00000000000E+00  0.00000000000E+00  0.12565260813E+03  0.15532127625E+03  0.91302359922E+02 0.  0.
        -11    1    3    3    0    0 -0.89043867448E+01  0.43519381519E+02  0.80733588223E+02  0.92147365336E+02  0.00000000000E+00 0. -1.
         11    1    3    3    0    0  0.89043867448E+01 -0.43519381519E+02  0.44919019904E+02  0.63173910915E+02  0.00000000000E+00 0.  1.
<mgrwt>
<rscale>  0 0.91302360E+02</rscale>
<asrwt>0</asrwt>
<pdfrwt beam="1">  1        2 0.21613375E-01 0.91302360E+02</pdfrwt>
<pdfrwt beam="2">  1       -2 0.22822053E-02 0.91302360E+02</pdfrwt>
<totfact> 0.13624100E+05</totfact>
</mgrwt>
</event>
<event>
 5    1  0.6004828E+000  0.9115022E+02  0.7546771E-02  0.1300090E+00
         -2   -1    0    0    0  501 -0.00000000000E+00  0.00000000000E+00  0.37244282018E+02  0.37244282018E+02  0.00000000000E+00 0.  1.
          2   -1    0    0  501    0  0.00000000000E+00 -0.00000000000E+00 -0.55769380313E+02  0.55769380313E+02  0.00000000000E+00 0. -1.
         23    2    1    2    0    0  0.00000000000E+00  0.00000000000E+00 -0.18525098296E+02  0.93013662331E+02  0.91150217297E+02 0.  0.
        -11    1    3    3    0    0  0.25349991224E+02 -0.26709966842E+02  0.18138712889E+02  0.41049449315E+02  0.00000000000E+00 0.  1.
         11    1    3    3    0    0 -0.25349991224E+02  0.26709966842E+02 -0.36663811185E+02  0.51964213016E+02  0.00000000000E+00 0. -1.
<mgrwt>
<rscale>  0 0.91150217E+02</rscale>
<asrwt>0</asrwt>
<pdfrwt beam="2">  1        2 0.85799046E-02 0.91150217E+02</pdfrwt>
<pdfrwt beam="1">  1       -2 0.57298896E-02 0.91150217E+02</pdfrwt>
<totfact> 0.10410837E+05</totfact>
</mgrwt>
</event>
<event>
 5    1  0.6004828E+000  0.9276330E+02  0.7546771E-02  0.1296295E+00
         -1   -1    0    0    0  501 -0.00000000000E+00  0.00000000000E+00  0.33746832485E+03  0.33746832485E+03  0.00000000000E+00 0.  1.
          1   -1    0    0  501    0  0.00000000000E+00 -0.00000000000E+00 -0.63746939588E+01  0.63746939588E+01  0.00000000000E+00 0. -1.
         23    2    1    2    0    0  0.00000000000E+00  0.00000000000E+00  0.33109363089E+03  0.34384301880E+03  0.92763296442E+02 0.  0.
        -11    1    3    3    0    0 -0.21381963500E+02 -0.38182885135E+02  0.22250620591E+03  0.22676889723E+03  0.00000000000E+00 0.  1.
         11    1    3    3    0    0  0.21381963500E+02  0.38182885135E+02  0.10858742497E+03  0.11707412157E+03  0.00000000000E+00 0. -1.
<mgrwt>
<rscale>  0 0.92763296E+02</rscale>
<asrwt>0</asrwt>
<pdfrwt beam="2">  1        1 0.98072241E-03 0.92763296E+02</pdfrwt>
<pdfrwt beam="1">  1       -1 0.51918190E-01 0.92763296E+02</pdfrwt>
<totfact> 0.55157397E+04</totfact>
</mgrwt>
</event>
<event>
 5    1  0.6004828E+000  0.9216017E+02  0.7546771E-02  0.1297703E+00
          1   -1    0    0  501    0  0.00000000000E+00  0.00000000000E+00  0.59365132502E+02  0.59365132502E+02  0.00000000000E+00 0. -1.
         -1   -1    0    0    0  501 -0.00000000000E+00 -0.00000000000E+00 -0.35768034907E+02  0.35768034907E+02  0.00000000000E+00 0.  1.
         23    2    1    2    0    0  0.00000000000E+00  0.00000000000E+00  0.23597097596E+02  0.95133167409E+02  0.92160167786E+02 0.  0.
        -11    1    3    3    0    0 -0.40675939082E+02  0.15729858507E+02 -0.35614403196E+01  0.43756648935E+02  0.00000000000E+00 0.  1.
         11    1    3    3    0    0  0.40675939082E+02 -0.15729858507E+02  0.27158537915E+02  0.51376518474E+02  0.00000000000E+00 0. -1.
<mgrwt>
<rscale>  0 0.92160168E+02</rscale>
<asrwt>0</asrwt>
<pdfrwt beam="1">  1        1 0.91330973E-02 0.92160168E+02</pdfrwt>
<pdfrwt beam="2">  1       -1 0.55027746E-02 0.92160168E+02</pdfrwt>
<totfact> 0.93389460E+04</totfact>
</mgrwt>
</event>
<event>
 5    1  0.6004828E+000  0.9008779E+02  0.7546771E-02  0.1302639E+00
         -1   -1    0    0    0  501 -0.00000000000E+00  0.00000000000E+00  0.68963786597E+01  0.68963786597E+01  0.00000000000E+00 0.  1.
          1   -1    0    0  501    0  0.00000000000E+00 -0.00000000000E+00 -0.29420548866E+03  0.29420548866E+03  0.00000000000E+00 0. -1.
         23    2    1    2    0    0  0.00000000000E+00  0.00000000000E+00 -0.28730911000E+03  0.30110186732E+03  0.90087789485E+02 0.  0.
        -11    1    3    3    0    0  0.38773842749E+02  0.74609565671E+01 -0.71204451424E+02  0.81419596272E+02  0.00000000000E+00 0.  1.
         11    1    3    3    0    0 -0.38773842749E+02 -0.74609565671E+01 -0.21610465858E+03  0.21968227105E+03  0.00000000000E+00 0. -1.
<mgrwt>
<rscale>  0 0.90087789E+02</rscale>
<asrwt>0</asrwt>
<pdfrwt beam="2">  1        1 0.45262383E-01 0.90087789E+02</pdfrwt>
<pdfrwt beam="1">  1       -1 0.10609813E-02 0.90087789E+02</pdfrwt>
<totfact> 0.13179463E+05</totfact>
</mgrwt>
</event>
<event>
 5    1  0.6004828E+000  0.8833182E+02  0.7546771E-02  0.1306942E+00
          2   -1    0    0  501    0  0.00000000000E+00  0.00000000000E+00  0.13996784259E+03  0.13996784259E+03  0.00000000000E+00 0. -1.
         -2   -1    0    0    0  501 -0.00000000000E+00 -0.00000000000E+00 -0.13936255414E+02  0.13936255414E+02  0.00000000000E+00 0.  1.
         23    2    1    2    0    0  0.00000000000E+00  0.00000000000E+00  0.12603158718E+03  0.15390409801E+03  0.88331819954E+02 0.  0.
        -11    1    3    3    0    0  0.25789037951E+02  0.35739739872E+02  0.58019157592E+02  0.72860319326E+02  0.00000000000E+00 0.  1.
         11    1    3    3    0    0 -0.25789037951E+02 -0.35739739872E+02  0.68012429586E+02  0.81043778680E+02  0.00000000000E+00 0. -1.
<mgrwt>
<rscale>  0 0.88331820E+02</rscale>
<asrwt>0</asrwt>
<pdfrwt beam="1">  1        2 0.21533513E-01 0.88331820E+02</pdfrwt>
<pdfrwt beam="2">  1       -2 0.21440394E-02 0.88331820E+02</pdfrwt>
<totfact> 0.14884638E+05</totfact>
</mgrwt>
</event>
<event>
 5    1  0.6004828E+000  0.5585628E+02  0.7546771E-02  0.1416092E+00
         -2   -1    0    0    0  501 -0.00000000000E+00  0.00000000000E+00  0.14900105220E+02  0.14900105220E+02  0.00000000000E+00 0.  1.
          2   -1    0    0  501    0  0.00000000000E+00 -0.00000000000E+00 -0.52347350774E+02  0.52347350774E+02  0.00000000000E+00 0. -1.
         23    2    1    2    0    0  0.00000000000E+00  0.00000000000E+00 -0.37447245554E+02  0.67247455994E+02  0.55856281097E+02 0.  0.
        -11    1    3    3    0    0  0.23642564375E+02  0.14858337665E+02 -0.18133833453E+02  0.33295299429E+02  0.00000000000E+00 0.  1.
         11    1    3    3    0    0 -0.23642564375E+02 -0.14858337665E+02 -0.19313412101E+02  0.33952156565E+02  0.00000000000E+00 0. -1.
<mgrwt>
<rscale>  0 0.55856281E+02</rscale>
<asrwt>0</asrwt>
<pdfrwt beam="2">  1        2 0.80534387E-02 0.55856281E+02</pdfrwt>
<pdfrwt beam="1">  1       -2 0.22923238E-02 0.55856281E+02</pdfrwt>
<totfact> 0.38835165E+05</totfact>
</mgrwt>
</event>
<event>
 5    1  0.6004828E+000  0.7955051E+02  0.7546771E-02  0.1330332E+00
         -2   -1    0    0    0  501 -0.00000000000E+00  0.00000000000E+00  0.77910175674E+01  0.77910175674E+01  0.00000000000E+00 0.  1.
          2   -1    0    0  501    0  0.00000000000E+00 -0.00000000000E+00 -0.20306342879E+03  0.20306342879E+03  0.00000000000E+00 0. -1.
         23    2    1    2    0    0  0.00000000000E+00  0.00000000000E+00 -0.19527241122E+03  0.21085444635E+03  0.79550505742E+02 0.  0.
        -11    1    3    3    0    0 -0.25238048943E+02 -0.25132766596E+02 -0.14456375586E+03  0.14888685160E+03  0.00000000000E+00 0. -1.
         11    1    3    3    0    0  0.25238048943E+02  0.25132766596E+02 -0.50708655363E+02  0.61967594757E+02  0.00000000000E+00 0.  1.
<mgrwt>
<rscale>  0 0.79550506E+02</rscale>
<asrwt>0</asrwt>
<pdfrwt beam="2">  1        2 0.31240523E-01 0.79550506E+02</pdfrwt>
<pdfrwt beam="1">  1       -2 0.11986183E-02 0.79550506E+02</pdfrwt>
<totfact> 0.22382313E+05</totfact>
</mgrwt>
</event>
<event>
 5    1  0.6004828E+000  0.9108313E+02  0.7546771E-02  0.1300250E+00
         -1   -1    0    0    0  501 -0.00000000000E+00  0.00000000000E+00  0.30989232582E+02  0.30989232582E+02  0.00000000000E+00 0.  1.
          1   -1    0    0  501    0  0.00000000000E+00 -0.00000000000E+00 -0.66927570158E+02  0.66927570158E+02  0.00000000000E+00 0. -1.
         23    2    1    2    0    0  0.00000000000E+00  0.00000000000E+00 -0.35938337577E+02  0.97916802740E+02  0.91083127697E+02 0.  0.
        -11    1    3    3    0    0 -0.33766245984E+02  0.24890088857E+02  0.10912153243E+01  0.41962681540E+02  0.00000000000E+00 0. -1.
         11    1    3    3    0    0  0.33766245984E+02 -0.24890088857E+02 -0.37029552901E+02  0.55954121200E+02  0.00000000000E+00 0.  1.
<mgrwt>
<rscale>  0 0.91083128E+02</rscale>
<asrwt>0</asrwt>
<pdfrwt beam="2">  1        1 0.10296549E-01 0.91083128E+02</pdfrwt>
<pdfrwt beam="1">  1       -1 0.47675743E-02 0.91083128E+02</pdfrwt>
<totfact> 0.98267098E+04</totfact>
</mgrwt>
</event>
<event>
 5    1  0.6004828E+000  0.1110330E+03  0.7546771E-02  0.1258669E+00
          1   -1    0    0  501    0  0.00000000000E+00  0.00000000000E+00  0.10568978099E+03  0.10568978099E+03  0.00000000000E+00 0. -1.
         -1   -1    0    0    0  501 -0.00000000000E+00 -0.00000000000E+00 -0.29161602532E+02  0.29161602532E+02  0.00000000000E+00 0.  1.
         23    2    1    2    0    0  0.00000000000E+00  0.00000000000E+00  0.76528178456E+02  0.13485138352E+03  0.11103302905E+03 0.  0.
        -11    1    3    3    0    0 -0.40570667106E+02 -0.27207036483E+02  0.70302493030E+02  0.85607490267E+02  0.00000000000E+00 0.  1.
         11    1    3    3    0    0  0.40570667106E+02  0.27207036483E+02  0.62256854264E+01  0.49243893252E+02  0.00000000000E+00 0. -1.
<mgrwt>
<rscale>  0 0.11103303E+03</rscale>
<asrwt>0</asrwt>
<pdfrwt beam="1">  1        1 0.16259966E-01 0.11103303E+03</pdfrwt>
<pdfrwt beam="2">  1       -1 0.44864004E-02 0.11103303E+03</pdfrwt>
<totfact> 0.61223609E+04</totfact>
</mgrwt>
</event>
<event>
 5    1  0.6004828E+000  0.9383034E+02  0.7546771E-02  0.1293832E+00
         -2   -1    0    0    0  501 -0.00000000000E+00  0.00000000000E+00  0.18714005912E+02  0.18714005912E+02  0.00000000000E+00 0.  1.
          2   -1    0    0  501    0  0.00000000000E+00 -0.00000000000E+00 -0.11761422769E+03  0.11761422769E+03  0.00000000000E+00 0. -1.
         23    2    1    2    0    0  0.00000000000E+00  0.00000000000E+00 -0.98900221776E+02  0.13632823360E+03  0.93830343755E+02 0.  0.
        -11    1    3    3    0    0 -0.34641820886E+02 -0.50218966897E+01 -0.40649797903E+01  0.35239172257E+02  0.00000000000E+00 0.  1.
         11    1    3    3    0    0  0.34641820886E+02  0.50218966897E+01 -0.94835241985E+02  0.10108906134E+03  0.00000000000E+00 0. -1.
<mgrwt>
<rscale>  0 0.93830344E+02</rscale>
<asrwt>0</asrwt>
<pdfrwt beam="2">  1        2 0.18094497E-01 0.93830344E+02</pdfrwt>
<pdfrwt beam="1">  1       -2 0.28790778E-02 0.93830344E+02</pdfrwt>
<totfact> 0.11926733E+05</totfact>
</mgrwt>
</event>
<event>
 5    1  0.6004828E+000  0.9264834E+02  0.7546771E-02  0.1296562E+00
          3   -1    0    0  501    0  0.00000000000E+00  0.00000000000E+00  0.26212916780E+02  0.26212916780E+02  0.00000000000E+00 0. -1.
         -3   -1    0    0    0  501 -0.00000000000E+00 -0.00000000000E+00 -0.81865310776E+02  0.81865310776E+02  0.00000000000E+00 0.  1.
         23    2    1    2    0    0  0.00000000000E+00  0.00000000000E+00 -0.55652393996E+02  0.10807822756E+03  0.92648336812E+02 0.  0.
        -11    1    3    3    0    0 -0.17529304728E+02  0.25046572817E+02  0.12774197492E+02  0.33132875753E+02  0.00000000000E+00 0. -1.
         11    1    3    3    0    0  0.17529304728E+02 -0.25046572817E+02 -0.68426591488E+02  0.74945351802E+02  0.00000000000E+00 0.  1.
<mgrwt>
<rscale>  0 0.92648337E+02</rscale>
<asrwt>0</asrwt>
<pdfrwt beam="1">  1        3 0.40327565E-02 0.92648337E+02</pdfrwt>
<pdfrwt beam="2">  1       -3 0.12594663E-01 0.92648337E+02</pdfrwt>
<totfact> 0.32628259E+04</totfact>
</mgrwt>
</event>
<event>
 5    1  0.6004828E+000  0.9111375E+02  0.7546771E-02  0.1300177E+00
          2   -1    0    0  501    0  0.00000000000E+00  0.00000000000E+00  0.55965457948E+02  0.55965457948E+02  0.00000000000E+00 0. -1.
         -2   -1    0    0    0  501 -0.00000000000E+00 -0.00000000000E+00 -0.37084106844E+02  0.37084106844E+02  0.00000000000E+00 0.  1.
         23    2    1    2    0    0  0.00000000000E+00  0.00000000000E+00  0.18881351104E+02  0.93049564792E+02  0.91113753564E+02 0.  0.
        -11    1    3    3    0    0  0.19057027732E+02  0.26841430580E+02 -0.22721221259E+02  0.39998582438E+02  0.00000000000E+00 0.  1.
         11    1    3    3    0    0 -0.19057027732E+02 -0.26841430580E+02  0.41602572363E+02  0.53050982354E+02  0.00000000000E+00 0. -1.
<mgrwt>
<rscale>  0 0.91113754E+02</rscale>
<asrwt>0</asrwt>
<pdfrwt beam="1">  1        2 0.86100704E-02 0.91113754E+02</pdfrwt>
<pdfrwt beam="2">  1       -2 0.57052472E-02 0.91113754E+02</pdfrwt>
<totfact> 0.10432345E+05</totfact>
</mgrwt>
</event>
<event>
 5    1  0.6004828E+000  0.9213769E+02  0.7546771E-02  0.1297756E+00
          1   -1    0    0  501    0  0.00000000000E+00  0.00000000000E+00  0.16772462613E+02  0.16772462613E+02  0.00000000000E+00 0. -1.
         -1   -1    0    0    0  501 -0.00000000000E+00 -0.00000000000E+00 -0.12653708821E+03  0.12653708821E+03  0.00000000000E+00 0.  1.
         23    2    1    2    0    0  0.00000000000E+00  0.00000000000E+00 -0.10976462559E+03  0.14330955082E+03  0.92137692202E+02 0.  0.
        -11    1    3    3    0    0  0.23068144575E+02  0.39466905413E+02 -0.63757913765E+02  0.78452836052E+02  0.00000000000E+00 0. -1.
         11    1    3    3    0    0 -0.23068144575E+02 -0.39466905413E+02 -0.46006711828E+02  0.64856714766E+02  0.00000000000E+00 0.  1.
<mgrwt>
<rscale>  0 0.92137692E+02</rscale>
<asrwt>0</asrwt>
<pdfrwt beam="1">  1        1 0.25803791E-02 0.92137692E+02</pdfrwt>
<pdfrwt beam="2">  1       -1 0.19467243E-01 0.92137692E+02</pdfrwt>
<totfact> 0.75588495E+04</totfact>
</mgrwt>
</event>
<event>
 5    1  0.6004828E+000  0.9585903E+02  0.7546771E-02  0.1289253E+00
         -1   -1    0    0    0  501 -0.00000000000E+00  0.00000000000E+00  0.57732575270E+01  0.57732575270E+01  0.00000000000E+00 0.  1.
          1   -1    0    0  501    0  0.00000000000E+00 -0.00000000000E+00 -0.39791027300E+03  0.39791027300E+03  0.00000000000E+00 0. -1.
         23    2    1    2    0    0  0.00000000000E+00  0.00000000000E+00 -0.39213701548E+03  0.40368353053E+03  0.95859031472E+02 0.  0.
        -11    1    3    3    0    0 -0.51324970083E+00 -0.44619499586E+02 -0.12239316857E+03  0.13027375361E+03  0.00000000000E+00 0.  1.
         11    1    3    3    0    0  0.51324970083E+00  0.44619499586E+02 -0.26974384691E+03  0.27340977692E+03  0.00000000000E+00 0. -1.
<mgrwt>
<rscale>  0 0.95859031E+02</rscale>
<asrwt>0</asrwt>
<pdfrwt beam="2">  1        1 0.61216967E-01 0.95859031E+02</pdfrwt>
<pdfrwt beam="1">  1       -1 0.88819343E-03 0.95859031E+02</pdfrwt>
<totfact> 0.11794787E+05</totfact>
</mgrwt>
</event>
<event>
 5    1  0.6004828E+000  0.9140469E+02  0.7546771E-02  0.1299485E+00
          2   -1    0    0  501    0  0.00000000000E+00  0.00000000000E+00  0.10578257862E+03  0.10578257862E+03  0.00000000000E+00 0. -1.
         -2   -1    0    0    0  501 -0.00000000000E+00 -0.00000000000E+00 -0.19745258001E+02  0.19745258001E+02  0.00000000000E+00 0.  1.
         23    2    1    2    0    0  0.00000000000E+00  0.00000000000E+00  0.86037320620E+02  0.12552783662E+03  0.91404689307E+02 0.  0.
        -11    1    3    3    0    0 -0.31870603547E+02  0.88307375717E+00 -0.19497220183E+01  0.31942395115E+02  0.00000000000E+00 0.  1.
         11    1    3    3    0    0  0.31870603547E+02 -0.88307375717E+00  0.87987042639E+02  0.93585441507E+02  0.00000000000E+00 0. -1.
<mgrwt>
<rscale>  0 0.91404689E+02</rscale>
<asrwt>0</asrwt>
<pdfrwt beam="1">  1        2 0.16274243E-01 0.91404689E+02</pdfrwt>
<pdfrwt beam="2">  1       -2 0.30377321E-02 0.91404689E+02</pdfrwt>
<totfact> 0.12395740E+05</totfact>
</mgrwt>
</event>
<event>
 5    1  0.6004828E+000  0.9097891E+02  0.7546771E-02  0.1300498E+00
         -2   -1    0    0    0  501 -0.00000000000E+00  0.00000000000E+00  0.24418041822E+02  0.24418041822E+02  0.00000000000E+00 0.  1.
          2   -1    0    0  501    0  0.00000000000E+00 -0.00000000000E+00 -0.84744328417E+02  0.84744328417E+02  0.00000000000E+00 0. -1.
         23    2    1    2    0    0  0.00000000000E+00  0.00000000000E+00 -0.60326286594E+02  0.10916237024E+03  0.90978910864E+02 0.  0.
        -11    1    3    3    0    0 -0.28633621920E+02 -0.32338412544E+02 -0.13041058240E+02  0.45119025146E+02  0.00000000000E+00 0.  1.
         11    1    3    3    0    0  0.28633621920E+02  0.32338412544E+02 -0.47285228354E+02  0.64043345092E+02  0.00000000000E+00 0. -1.
<mgrwt>
<rscale>  0 0.90978911E+02</rscale>
<asrwt>0</asrwt>
<pdfrwt beam="2">  1        2 0.13037589E-01 0.90978911E+02</pdfrwt>
<pdfrwt beam="1">  1       -2 0.37566219E-02 0.90978911E+02</pdfrwt>
<totfact> 0.11748516E+05</totfact>
</mgrwt>
</event>
<event>
 5    1  0.6004828E+000  0.9350658E+02  0.7546771E-02  0.1294576E+00
         -1   -1    0    0    0  501 -0.00000000000E+00  0.00000000000E+00  0.20530387746E+03  0.20530387746E+03  0.00000000000E+00 0.  1.
          1   -1    0    0  501    0  0.00000000000E+00 -0.00000000000E+00 -0.10646998631E+02  0.10646998631E+02  0.00000000000E+00 0. -1.
         23    2    1    2    0    0  0.00000000000E+00  0.00000000000E+00  0.19465687883E+03  0.21595087609E+03  0.93506579495E+02 0.  0.
        -11    1    3    3    0    0 -0.15515608328E+02 -0.43659903568E+02  0.82915254563E+02  0.94983476040E+02  0.00000000000E+00 0.  1.
         11    1    3    3    0    0  0.15515608328E+02  0.43659903568E+02  0.11174162426E+03  0.12096740005E+03  0.00000000000E+00 0. -1.
<mgrwt>
<rscale>  0 0.93506579E+02</rscale>
<asrwt>0</asrwt>
<pdfrwt beam="2">  1        1 0.16379999E-02 0.93506579E+02</pdfrwt>
<pdfrwt beam="1">  1       -1 0.31585209E-01 0.93506579E+02</pdfrwt>
<totfact> 0.64510265E+04</totfact>
</mgrwt>
</event>
<event>
 5    1  0.6004828E+000  0.8196712E+02  0.7546771E-02  0.1323560E+00
         -1   -1    0    0    0  501 -0.00000000000E+00  0.00000000000E+00  0.12838347098E+03  0.12838347098E+03  0.00000000000E+00 0.  1.
          1   -1    0    0  501    0  0.00000000000E+00 -0.00000000000E+00 -0.13083086380E+02  0.13083086380E+02  0.00000000000E+00 0. -1.
         23    2    1    2    0    0  0.00000000000E+00  0.00000000000E+00  0.11530038460E+03  0.14146655736E+03  0.81967116347E+02 0.  0.
        -11    1    3    3    0    0  0.23369131357E+02 -0.26875153079E+02  0.92650620725E+02  0.99259899628E+02  0.00000000000E+00 0.  1.
         11    1    3    3    0    0 -0.23369131357E+02  0.26875153079E+02  0.22649763878E+02  0.42206657735E+02  0.00000000000E+00 0. -1.
<mgrwt>
<rscale>  0 0.81967116E+02</rscale>
<asrwt>0</asrwt>
<pdfrwt beam="2">  1        1 0.20127826E-02 0.81967116E+02</pdfrwt>
<pdfrwt beam="1">  1       -1 0.19751302E-01 0.81967116E+02</pdfrwt>
<totfact> 0.10191897E+05</totfact>
</mgrwt>
</event>
<event>
 5    1  0.6004828E+000  0.9085330E+02  0.7546771E-02  0.1300798E+00
         -1   -1    0    0    0  501 -0.00000000000E+00  0.00000000000E+00  0.75135238444E+01  0.75135238444E+01  0.00000000000E+00 0.  1.
          1   -1    0    0  501    0  0.00000000000E+00 -0.00000000000E+00 -0.27464885964E+03  0.27464885964E+03  0.00000000000E+00 0. -1.
         23    2    1    2    0    0  0.00000000000E+00  0.00000000000E+00 -0.26713533579E+03  0.28216238348E+03  0.90853304964E+02 0.  0.
        -11    1    3    3    0    0  0.17022829239E+02  0.33307747035E+02 -0.21361973529E+03  0.21686994728E+03  0.00000000000E+00 0. -1.
         11    1    3    3    0    0 -0.17022829239E+02 -0.33307747035E+02 -0.53515600499E+02  0.65292436198E+02  0.00000000000E+00 0.  1.
<mgrwt>
<rscale>  0 0.90853305E+02</rscale>
<asrwt>0</asrwt>
<pdfrwt beam="2">  1        1 0.42253670E-01 0.90853305E+02</pdfrwt>
<pdfrwt beam="1">  1       -1 0.11559268E-02 0.90853305E+02</pdfrwt>
<totfact> 0.12716023E+05</totfact>
</mgrwt>
</event>
<event>
 5    1  0.6004828E+000  0.9168038E+02  0.7546771E-02  0.1298833E+00
         -2   -1    0    0    0  501 -0.00000000000E+00  0.00000000000E+00  0.27835140137E+02  0.27835140137E+02  0.00000000000E+00 0.  1.
          2   -1    0    0  501    0  0.00000000000E+00 -0.00000000000E+00 -0.75491733898E+02  0.75491733898E+02  0.00000000000E+00 0. -1.
         23    2    1    2    0    0  0.00000000000E+00  0.00000000000E+00 -0.47656593762E+02  0.10332687403E+03  0.91680379411E+02 0.  0.
        -11    1    3    3    0    0  0.45191819060E+02  0.75246399213E+01 -0.22081476019E+02  0.50857765376E+02  0.00000000000E+00 0.  1.
         11    1    3    3    0    0 -0.45191819060E+02 -0.75246399213E+01 -0.25575117742E+02  0.52469108659E+02  0.00000000000E+00 0. -1.
<mgrwt>
<rscale>  0 0.91680379E+02</rscale>
<asrwt>0</asrwt>
<pdfrwt beam="2">  1        2 0.11614113E-01 0.91680379E+02</pdfrwt>
<pdfrwt beam="1">  1       -2 0.42823292E-02 0.91680379E+02</pdfrwt>
<totfact> 0.11125617E+05</totfact>
</mgrwt>
</event>
<event>
 5    1  0.6004828E+000  0.9228976E+02  0.7546771E-02  0.1297400E+00
         -3   -1    0    0    0  501 -0.00000000000E+00  0.00000000000E+00  0.17376188925E+03  0.17376188925E+03  0.00000000000E+00 0.  1.
          3   -1    0    0  501    0  0.00000000000E+00 -0.00000000000E+00 -0.12254411938E+02  0.12254411938E+02  0.00000000000E+00 0. -1.
         23    2    1    2    0    0  0.00000000000E+00  0.00000000000E+00  0.16150747731E+03  0.18601630119E+03  0.92289756096E+02 0.  0.
        -11    1    3    3    0    0 -0.22883883843E+02  0.16512214876E+02  0.15434335760E+03  0.15690187193E+03  0.00000000000E+00 0.  1.
         11    1    3    3    0    0  0.22883883843E+02 -0.16512214876E+02  0.71641197126E+01  0.29114429259E+02  0.00000000000E+00 0. -1.
<mgrwt>
<rscale>  0 0.92289756E+02</rscale>
<asrwt>0</asrwt>
<pdfrwt beam="2">  1        3 0.18852943E-02 0.92289756E+02</pdfrwt>
<pdfrwt beam="1">  1       -3 0.26732597E-01 0.92289756E+02</pdfrwt>
<totfact> 0.28293001E+04</totfact>
</mgrwt>
</event>
<event>
 5    1  0.6004828E+000  0.9126565E+02  0.7546771E-02  0.1299815E+00
          1   -1    0    0  501    0  0.00000000000E+00  0.00000000000E+00  0.67690488136E+01  0.67690488136E+01  0.00000000000E+00 0. -1.
         -1   -1    0    0    0  501 -0.00000000000E+00 -0.00000000000E+00 -0.30762887530E+03  0.30762887530E+03  0.00000000000E+00 0.  1.
         23    2    1    2    0    0  0.00000000000E+00  0.00000000000E+00 -0.30085982648E+03  0.31439792411E+03  0.91265653416E+02 0.  0.
        -11    1    3    3    0    0 -0.13586846932E+02  0.43377556087E+02 -0.16426956945E+03  0.17044267725E+03  0.00000000000E+00 0.  1.
         11    1    3    3    0    0  0.13586846932E+02 -0.43377556087E+02 -0.13659025703E+03  0.14395524686E+03  0.00000000000E+00 0. -1.
<mgrwt>
<rscale>  0 0.91265653E+02</rscale>
<asrwt>0</asrwt>
<pdfrwt beam="1">  1        1 0.10413925E-02 0.91265653E+02</pdfrwt>
<pdfrwt beam="2">  1       -1 0.47327502E-01 0.91265653E+02</pdfrwt>
<totfact> 0.59831481E+04</totfact>
</mgrwt>
</event>
<event>
 5    1  0.6004828E+000  0.9066032E+02  0.7546771E-02  0.1301260E+00
         -1   -1    0    0    0  501 -0.00000000000E+00  0.00000000000E+00  0.12384370477E+03  0.12384370477E+03  0.00000000000E+00 0.  1.
          1   -1    0    0  501    0  0.00000000000E+00 -0.00000000000E+00 -0.16592071213E+02  0.16592071213E+02  0.00000000000E+00 0. -1.
         23    2    1    2    0    0  0.00000000000E+00  0.00000000000E+00  0.10725163356E+03  0.14043577598E+03  0.90660323600E+02 0.  0.
        -11    1    3    3    0    0 -0.23319356083E+02  0.38794700072E+02  0.49830704226E+02  0.67319538066E+02  0.00000000000E+00 0.  1.
         11    1    3    3    0    0  0.23319356083E+02 -0.38794700072E+02  0.57420929333E+02  0.73116237918E+02  0.00000000000E+00 0. -1.
<mgrwt>
<rscale>  0 0.90660324E+02</rscale>
<asrwt>0</asrwt>
<pdfrwt beam="2">  1        1 0.25526264E-02 0.90660324E+02</pdfrwt>
<pdfrwt beam="1">  1       -1 0.19052877E-01 0.90660324E+02</pdfrwt>
<totfact> 0.79175460E+04</totfact>
</mgrwt>
</event>
<event>
 5    1  0.6004828E+000  0.9282358E+02  0.7546771E-02  0.1296155E+00
          1   -1    0    0  501    0  0.00000000000E+00  0.00000000000E+00  0.48763561213E+02  0.48763561213E+02  0.00000000000E+00 0. -1.
         -1   -1    0    0    0  501 -0.00000000000E+00 -0.00000000000E+00 -0.44173442398E+02  0.44173442398E+02  0.00000000000E+00 0.  1.
         23    2    1    2    0    0  0.00000000000E+00  0.00000000000E+00  0.45901188152E+01  0.92937003611E+02  0.92823582399E+02 0.  0.
        -11    1    3    3    0    0  0.14169462236E+02  0.44103983076E+02 -0.55787475805E+00  0.46327596608E+02  0.00000000000E+00 0.  1.
         11    1    3    3    0    0 -0.14169462236E+02 -0.44103983076E+02  0.51479935733E+01  0.46609407002E+02  0.00000000000E+00 0. -1.
<mgrwt>
<rscale>  0 0.92823582E+02</rscale>
<asrwt>0</asrwt>
<pdfrwt beam="1">  1        1 0.75020863E-02 0.92823582E+02</pdfrwt>
<pdfrwt beam="2">  1       -1 0.67959143E-02 0.92823582E+02</pdfrwt>
<totfact> 0.88837777E+04</totfact>
</mgrwt>
</event>
<event>
 5    1  0.6004828E+000  0.9074590E+02  0.7546771E-02  0.1301055E+00
         -3   -1    0    0    0  501 -0.00000000000E+00  0.00000000000E+00  0.49152686256E+02  0.49152686256E+02  0.00000000000E+00 0.  1.
          3   -1    0    0  501    0  0.00000000000E+00 -0.00000000000E+00 -0.41883871047E+02  0.41883871047E+02  0.00000000000E+00 0. -1.
         23    2    1    2    0    0  0.00000000000E+00  0.00000000000E+00  0.72688152085E+01  0.91036557303E+02  0.90745903991E+02 0.  0.
        -11    1    3    3    0    0  0.44484712346E+02  0.39698210539E+01 -0.43947050852E+01  0.44877194035E+02  0.00000000000E+00 0.  1.
         11    1    3    3    0    0 -0.44484712346E+02 -0.39698210539E+01  0.11663520294E+02  0.46159363268E+02  0.00000000000E+00 0. -1.
<mgrwt>
<rscale>  0 0.90745904E+02</rscale>
<asrwt>0</asrwt>
<pdfrwt beam="2">  1        3 0.64436725E-02 0.90745904E+02</pdfrwt>
<pdfrwt beam="1">  1       -3 0.75619517E-02 0.90745904E+02</pdfrwt>
<totfact> 0.35808641E+04</totfact>
</mgrwt>
</event>
<event>
 5    1  0.6004828E+000  0.7956873E+02  0.7546771E-02  0.1330280E+00
          2   -1    0    0  501    0  0.00000000000E+00  0.00000000000E+00  0.60647975935E+02  0.60647975935E+02  0.00000000000E+00 0. -1.
         -2   -1    0    0    0  501 -0.00000000000E+00 -0.00000000000E+00 -0.26098081811E+02  0.26098081811E+02  0.00000000000E+00 0.  1.
         23    2    1    2    0    0  0.00000000000E+00  0.00000000000E+00  0.34549894124E+02  0.86746057745E+02  0.79568733497E+02 0.  0.
        -11    1    3    3    0    0  0.98426116824E+01  0.20032927588E+02  0.53178897091E+02  0.57673133158E+02  0.00000000000E+00 0. -1.
         11    1    3    3    0    0 -0.98426116824E+01 -0.20032927588E+02 -0.18629002967E+02  0.29072924587E+02  0.00000000000E+00 0.  1.
<mgrwt>
<rscale>  0 0.79568733E+02</rscale>
<asrwt>0</asrwt>
<pdfrwt beam="1">  1        2 0.93304578E-02 0.79568733E+02</pdfrwt>
<pdfrwt beam="2">  1       -2 0.40150895E-02 0.79568733E+02</pdfrwt>
<totfact> 0.15541833E+05</totfact>
</mgrwt>
</event>
<event>
 5    1  0.6004828E+000  0.9016061E+02  0.7546771E-02  0.1302463E+00
         -1   -1    0    0    0  501 -0.00000000000E+00  0.00000000000E+00  0.32768504156E+02  0.32768504156E+02  0.00000000000E+00 0.  1.
          1   -1    0    0  501    0  0.00000000000E+00 -0.00000000000E+00 -0.62017901999E+02  0.62017901999E+02  0.00000000000E+00 0. -1.
         23    2    1    2    0    0  0.00000000000E+00  0.00000000000E+00 -0.29249397843E+02  0.94786406155E+02  0.90160609568E+02 0.  0.
        -11    1    3    3    0    0  0.17584055538E+02  0.37177494784E+02  0.47851794106E+01  0.41403660099E+02  0.00000000000E+00 0.  1.
         11    1    3    3    0    0 -0.17584055538E+02 -0.37177494784E+02 -0.34034577254E+02  0.53382746056E+02  0.00000000000E+00 0. -1.
<mgrwt>
<rscale>  0 0.90160610E+02</rscale>
<asrwt>0</asrwt>
<pdfrwt beam="2">  1        1 0.95412157E-02 0.90160610E+02</pdfrwt>
<pdfrwt beam="1">  1       -1 0.50413083E-02 0.90160610E+02</pdfrwt>
<totfact> 0.99905440E+04</totfact>
</mgrwt>
</event>
<event>
 5    1  0.6004828E+000  0.9078810E+02  0.7546771E-02  0.1300954E+00
          1   -1    0    0  501    0  0.00000000000E+00  0.00000000000E+00  0.63883542112E+02  0.63883542112E+02  0.00000000000E+00 0. -1.
         -1   -1    0    0    0  501 -0.00000000000E+00 -0.00000000000E+00 -0.32255876582E+02  0.32255876582E+02  0.00000000000E+00 0.  1.
         23    2    1    2    0    0  0.00000000000E+00  0.00000000000E+00  0.31627665530E+02  0.96139418694E+02  0.90788097237E+02 0.  0.
        -11    1    3    3    0    0 -0.22177747705E+02  0.31164972607E+02  0.41698689310E+02  0.56585233949E+02  0.00000000000E+00 0. -1.
         11    1    3    3    0    0  0.22177747705E+02 -0.31164972607E+02 -0.10071023780E+02  0.39554184745E+02  0.00000000000E+00 0.  1.
<mgrwt>
<rscale>  0 0.90788097E+02</rscale>
<asrwt>0</asrwt>
<pdfrwt beam="1">  1        1 0.98282373E-02 0.90788097E+02</pdfrwt>
<pdfrwt beam="2">  1       -1 0.49624425E-02 0.90788097E+02</pdfrwt>
<totfact> 0.98449890E+04</totfact>
</mgrwt>
</event>
<event>
 5    1  0.6004828E+000  0.8962916E+02  0.7546771E-02  0.1303752E+00
          1   -1    0    0  501    0  0.00000000000E+00  0.00000000000E+00  0.10708015354E+03  0.10708015354E+03  0.00000000000E+00 0.  1.
         -1   -1    0    0    0  501 -0.00000000000E+00 -0.00000000000E+00 -0.18755545608E+02  0.18755545608E+02  0.00000000000E+00 0. -1.
         23    2    1    2    0    0  0.00000000000E+00  0.00000000000E+00  0.88324607933E+02  0.12583569915E+03  0.89629162741E+02 0.  0.
        -11    1    3    3    0    0 -0.28857685217E+02 -0.23397587888E+02  0.79349165783E+02  0.87615656280E+02  0.00000000000E+00 0.  1.
         11    1    3    3    0    0  0.28857685217E+02  0.23397587888E+02  0.89754421503E+01  0.38220042868E+02  0.00000000000E+00 0. -1.
<mgrwt>
<rscale>  0 0.89629163E+02</rscale>
<asrwt>0</asrwt>
<pdfrwt beam="1">  1        1 0.16473869E-01 0.89629163E+02</pdfrwt>
<pdfrwt beam="2">  1       -1 0.28854686E-02 0.89629163E+02</pdfrwt>
<totfact> 0.11068477E+05</totfact>
</mgrwt>
</event>
<event>
 5    1  0.6004828E+000  0.9180387E+02  0.7546771E-02  0.1298541E+00
          2   -1    0    0  501    0  0.00000000000E+00  0.00000000000E+00  0.89532523547E+01  0.89532523547E+01  0.00000000000E+00 0. -1.
         -2   -1    0    0    0  501 -0.00000000000E+00 -0.00000000000E+00 -0.23533208620E+03  0.23533208620E+03  0.00000000000E+00 0.  1.
         23    2    1    2    0    0  0.00000000000E+00  0.00000000000E+00 -0.22637883385E+03  0.24428533856E+03  0.91803868218E+02 0.  0.
        -11    1    3    3    0    0  0.24592460279E+02 -0.34461522853E+02 -0.16038670973E+03  0.16588032529E+03  0.00000000000E+00 0.  1.
         11    1    3    3    0    0 -0.24592460279E+02  0.34461522853E+02 -0.65992124116E+02  0.78405013266E+02  0.00000000000E+00 0. -1.
<mgrwt>
<rscale>  0 0.91803868E+02</rscale>
<asrwt>0</asrwt>
<pdfrwt beam="1">  1        2 0.13774236E-02 0.91803868E+02</pdfrwt>
<pdfrwt beam="2">  1       -2 0.36204933E-01 0.91803868E+02</pdfrwt>
<totfact> 0.56855744E+04</totfact>
</mgrwt>
</event>
<event>
 5    1  0.6004828E+000  0.9367666E+02  0.7546771E-02  0.1294185E+00
         -1   -1    0    0    0  501 -0.00000000000E+00  0.00000000000E+00  0.84492726368E+02  0.84492726368E+02  0.00000000000E+00 0.  1.
          1   -1    0    0  501    0  0.00000000000E+00 -0.00000000000E+00 -0.25964712162E+02  0.25964712162E+02  0.00000000000E+00 0. -1.
         23    2    1    2    0    0  0.00000000000E+00  0.00000000000E+00  0.58528014206E+02  0.11045743853E+03  0.93676663475E+02 0.  0.
        -11    1    3    3    0    0  0.45917486749E+02  0.18686304660E+01  0.18591567721E+02  0.49573720453E+02  0.00000000000E+00 0. -1.
         11    1    3    3    0    0 -0.45917486749E+02 -0.18686304660E+01  0.39936446485E+02  0.60883718078E+02  0.00000000000E+00 0.  1.
<mgrwt>
<rscale>  0 0.93676663E+02</rscale>
<asrwt>0</asrwt>
<pdfrwt beam="2">  1        1 0.39945711E-02 0.93676663E+02</pdfrwt>
<pdfrwt beam="1">  1       -1 0.12998881E-01 0.93676663E+02</pdfrwt>
<totfact> 0.78238435E+04</totfact>
</mgrwt>
</event>
<event>
 5    1  0.6004828E+000  0.8418890E+02  0.7546771E-02  0.1317567E+00
         -4   -1    0    0    0  501 -0.00000000000E+00  0.00000000000E+00  0.89653823935E+01  0.89653823935E+01  0.00000000000E+00 0. -1.
          4   -1    0    0  501    0  0.00000000000E+00 -0.00000000000E+00 -0.19764271958E+03  0.19764271958E+03  0.00000000000E+00 0.  1.
         23    2    1    2    0    0  0.00000000000E+00  0.00000000000E+00 -0.18867733718E+03  0.20660810197E+03  0.84188896139E+02 0.  0.
        -11    1    3    3    0    0 -0.17294987056E+02 -0.31729079213E+02 -0.14732064202E+03  0.15168791187E+03  0.00000000000E+00 0.  1.
         11    1    3    3    0    0  0.17294987056E+02  0.31729079213E+02 -0.41356695167E+02  0.54920190095E+02  0.00000000000E+00 0. -1.
<mgrwt>
<rscale>  0 0.84188896E+02</rscale>
<asrwt>0</asrwt>
<pdfrwt beam="2">  1        4 0.30406571E-01 0.84188896E+02</pdfrwt>
<pdfrwt beam="1">  1       -4 0.13792897E-02 0.84188896E+02</pdfrwt>
<totfact> 0.26095767E+04</totfact>
</mgrwt>
</event>
<event>
 5    1  0.6004828E+000  0.9323306E+02  0.7546771E-02  0.1295206E+00
          2   -1    0    0  501    0  0.00000000000E+00  0.00000000000E+00  0.41520760012E+03  0.41520760012E+03  0.00000000000E+00 0. -1.
         -2   -1    0    0    0  501 -0.00000000000E+00 -0.00000000000E+00 -0.52337694428E+01  0.52337694428E+01  0.00000000000E+00 0.  1.
         23    2    1    2    0    0  0.00000000000E+00  0.00000000000E+00  0.40997383068E+03  0.42044136956E+03  0.93233059585E+02 0.  0.
        -11    1    3    3    0    0  0.45482877707E+02  0.96600666144E+01  0.22000575878E+03  0.22486561087E+03  0.00000000000E+00 0. -1.
         11    1    3    3    0    0 -0.45482877707E+02 -0.96600666144E+01  0.18996807189E+03  0.19557575870E+03  0.00000000000E+00 0.  1.
<mgrwt>
<rscale>  0 0.93233060E+02</rscale>
<asrwt>0</asrwt>
<pdfrwt beam="1">  1        2 0.63878067E-01 0.93233060E+02</pdfrwt>
<pdfrwt beam="2">  1       -2 0.80519562E-03 0.93233060E+02</pdfrwt>
<totfact> 0.19064851E+05</totfact>
</mgrwt>
</event>
<event>
 5    1  0.6004828E+000  0.8998522E+02  0.7546771E-02  0.1302887E+00
          2   -1    0    0  501    0  0.00000000000E+00  0.00000000000E+00  0.23430366225E+02  0.23430366225E+02  0.00000000000E+00 0.  1.
         -2   -1    0    0    0  501 -0.00000000000E+00 -0.00000000000E+00 -0.86397917116E+02  0.86397917116E+02  0.00000000000E+00 0. -1.
         23    2    1    2    0    0  0.00000000000E+00  0.00000000000E+00 -0.62967550891E+02  0.10982828334E+03  0.89985217434E+02 0.  0.
        -11    1    3    3    0    0  0.10895366950E+02  0.26020821801E+02  0.11295964898E+02  0.30387349526E+02  0.00000000000E+00 0.  1.
         11    1    3    3    0    0 -0.10895366950E+02 -0.26020821801E+02 -0.74263515790E+02  0.79440933816E+02  0.00000000000E+00 0. -1.
<mgrwt>
<rscale>  0 0.89985217E+02</rscale>
<asrwt>0</asrwt>
<pdfrwt beam="1">  1        2 0.36046718E-02 0.89985217E+02</pdfrwt>
<pdfrwt beam="2">  1       -2 0.13291987E-01 0.89985217E+02</pdfrwt>
<totfact> 0.86015129E+04</totfact>
</mgrwt>
</event>
<event>
 5    1  0.6004828E+000  0.9099786E+02  0.7546771E-02  0.1300453E+00
          2   -1    0    0  501    0  0.00000000000E+00  0.00000000000E+00  0.22064399490E+03  0.22064399490E+03  0.00000000000E+00 0. -1.
         -2   -1    0    0    0  501 -0.00000000000E+00 -0.00000000000E+00 -0.93823205904E+01  0.93823205904E+01  0.00000000000E+00 0.  1.
         23    2    1    2    0    0  0.00000000000E+00  0.00000000000E+00  0.21126167431E+03  0.23002631549E+03  0.90997861437E+02 0.  0.
        -11    1    3    3    0    0  0.12976559411E+02  0.40814392952E+02  0.66802078825E+02  0.79351896647E+02  0.00000000000E+00 0.  1.
         11    1    3    3    0    0 -0.12976559411E+02 -0.40814392952E+02  0.14445959549E+03  0.15067441885E+03  0.00000000000E+00 0. -1.
<mgrwt>
<rscale>  0 0.90997861E+02</rscale>
<asrwt>0</asrwt>
<pdfrwt beam="1">  1        2 0.33945226E-01 0.90997861E+02</pdfrwt>
<pdfrwt beam="2">  1       -2 0.14434341E-02 0.90997861E+02</pdfrwt>
<totfact> 0.16116038E+05</totfact>
</mgrwt>
</event>
<event>
 5    1  0.6004828E+000  0.9175038E+02  0.7546771E-02  0.1298667E+00
          2   -1    0    0  501    0  0.00000000000E+00  0.00000000000E+00  0.18923557626E+02  0.18923557626E+02  0.00000000000E+00 0. -1.
         -2   -1    0    0    0  501 -0.00000000000E+00 -0.00000000000E+00 -0.11121233111E+03  0.11121233111E+03  0.00000000000E+00 0.  1.
         23    2    1    2    0    0  0.00000000000E+00  0.00000000000E+00 -0.92288773480E+02  0.13013588873E+03  0.91750377796E+02 0.  0.
        -11    1    3    3    0    0  0.25087059125E+02 -0.15803199373E+02 -0.95796039266E+02  0.10027952326E+03  0.00000000000E+00 0.  1.
         11    1    3    3    0    0 -0.25087059125E+02  0.15803199373E+02  0.35072657860E+01  0.29856365473E+02  0.00000000000E+00 0. -1.
<mgrwt>
<rscale>  0 0.91750378E+02</rscale>
<asrwt>0</asrwt>
<pdfrwt beam="1">  1        2 0.29113166E-02 0.91750378E+02</pdfrwt>
<pdfrwt beam="2">  1       -2 0.17109589E-01 0.91750378E+02</pdfrwt>
<totfact> 0.76057441E+04</totfact>
</mgrwt>
</event>
<event>
 5    1  0.6004828E+000  0.9857448E+02  0.7546771E-02  0.1283322E+00
          1   -1    0    0  501    0  0.00000000000E+00  0.00000000000E+00  0.83766602232E+02  0.83766602232E+02  0.00000000000E+00 0. -1.
         -1   -1    0    0    0  501 -0.00000000000E+00 -0.00000000000E+00 -0.29000003920E+02  0.29000003920E+02  0.00000000000E+00 0.  1.
         23    2    1    2    0    0  0.00000000000E+00  0.00000000000E+00  0.54766598312E+02  0.11276660615E+03  0.98574475259E+02 0.  0.
        -11    1    3    3    0    0  0.32986663176E+01  0.30398593842E+02 -0.16837996119E+02  0.34906644358E+02  0.00000000000E+00 0.  1.
         11    1    3    3    0    0 -0.32986663176E+01 -0.30398593842E+02  0.71604594431E+02  0.77859961795E+02  0.00000000000E+00 0. -1.
<mgrwt>
<rscale>  0 0.98574475E+02</rscale>
<asrwt>0</asrwt>
<pdfrwt beam="1">  1        1 0.12887169E-01 0.98574475E+02</pdfrwt>
<pdfrwt beam="2">  1       -1 0.44615391E-02 0.98574475E+02</pdfrwt>
<totfact> 0.81839404E+04</totfact>
</mgrwt>
</event>
<event>
 5    1  0.6004828E+000  0.8933444E+02  0.7546771E-02  0.1304471E+00
         -2   -1    0    0    0  501 -0.00000000000E+00  0.00000000000E+00  0.15083518010E+03  0.15083518010E+03  0.00000000000E+00 0. -1.
          2   -1    0    0  501    0  0.00000000000E+00 -0.00000000000E+00 -0.13227422209E+02  0.13227422209E+02  0.00000000000E+00 0.  1.
         23    2    1    2    0    0  0.00000000000E+00  0.00000000000E+00  0.13760775789E+03  0.16406260230E+03  0.89334441534E+02 0.  0.
        -11    1    3    3    0    0  0.26423362174E+02 -0.34642481186E+02  0.50729049848E+02  0.66871010684E+02  0.00000000000E+00 0.  1.
         11    1    3    3    0    0 -0.26423362174E+02  0.34642481186E+02  0.86878708038E+02  0.97191591621E+02  0.00000000000E+00 0. -1.
<mgrwt>
<rscale>  0 0.89334442E+02</rscale>
<asrwt>0</asrwt>
<pdfrwt beam="2">  1        2 0.20349881E-02 0.89334442E+02</pdfrwt>
<pdfrwt beam="1">  1       -2 0.23205411E-01 0.89334442E+02</pdfrwt>
<totfact> 0.73410161E+04</totfact>
</mgrwt>
</event>
<event>
 5    1  0.6004828E+000  0.9285860E+02  0.7546771E-02  0.1296073E+00
          1   -1    0    0  501    0  0.00000000000E+00  0.00000000000E+00  0.70345133770E+02  0.70345133770E+02  0.00000000000E+00 0. -1.
         -1   -1    0    0    0  501 -0.00000000000E+00 -0.00000000000E+00 -0.30644337881E+02  0.30644337881E+02  0.00000000000E+00 0.  1.
         23    2    1    2    0    0  0.00000000000E+00  0.00000000000E+00  0.39700795889E+02  0.10098947165E+03  0.92858603210E+02 0.  0.
        -11    1    3    3    0    0  0.88293507078E+01 -0.90030302488E+01  0.68447110215E+02  0.69598986231E+02  0.00000000000E+00 0. -1.
         11    1    3    3    0    0 -0.88293507078E+01  0.90030302488E+01 -0.28746314326E+02  0.31390485420E+02  0.00000000000E+00 0.  1.
<mgrwt>
<rscale>  0 0.92858603E+02</rscale>
<asrwt>0</asrwt>
<pdfrwt beam="1">  1        1 0.10822328E-01 0.92858603E+02</pdfrwt>
<pdfrwt beam="2">  1       -1 0.47145136E-02 0.92858603E+02</pdfrwt>
<totfact> 0.93878264E+04</totfact>
</mgrwt>
</event>
<event>
 5    1  0.6004828E+000  0.9968512E+02  0.7546771E-02  0.1280959E+00
         -2   -1    0    0    0  501 -0.00000000000E+00  0.00000000000E+00  0.41331423547E+02  0.41331423547E+02  0.00000000000E+00 0.  1.
          2   -1    0    0  501    0  0.00000000000E+00 -0.00000000000E+00 -0.60106339673E+02  0.60106339673E+02  0.00000000000E+00 0. -1.
         23    2    1    2    0    0  0.00000000000E+00  0.00000000000E+00 -0.18774916126E+02  0.10143776322E+03  0.99685115897E+02 0.  0.
        -11    1    3    3    0    0  0.49462106771E+01 -0.27161863437E+02 -0.51614636931E+02  0.58534627111E+02  0.00000000000E+00 0. -1.
         11    1    3    3    0    0 -0.49462106771E+01  0.27161863437E+02  0.32839720805E+02  0.42903136109E+02  0.00000000000E+00 0.  1.
<mgrwt>
<rscale>  0 0.99685116E+02</rscale>
<asrwt>0</asrwt>
<pdfrwt beam="2">  1        2 0.92471292E-02 0.99685116E+02</pdfrwt>
<pdfrwt beam="1">  1       -2 0.63586805E-02 0.99685116E+02</pdfrwt>
<totfact> 0.82325752E+04</totfact>
</mgrwt>
</event>
<event>
 5    1  0.6004828E+000  0.9108745E+02  0.7546771E-02  0.1300239E+00
         -2   -1    0    0    0  501 -0.00000000000E+00  0.00000000000E+00  0.94515608235E+02  0.94515608235E+02  0.00000000000E+00 0.  1.
          2   -1    0    0  501    0  0.00000000000E+00 -0.00000000000E+00 -0.21945908822E+02  0.21945908822E+02  0.00000000000E+00 0. -1.
         23    2    1    2    0    0  0.00000000000E+00  0.00000000000E+00  0.72569699412E+02  0.11646151706E+03  0.91087450741E+02 0.  0.
        -11    1    3    3    0    0  0.42652461946E+02  0.11646651686E+02  0.22316592284E+02  0.49526834108E+02  0.00000000000E+00 0. -1.
         11    1    3    3    0    0 -0.42652461946E+02 -0.11646651686E+02  0.50253107128E+02  0.66934682949E+02  0.00000000000E+00 0.  1.
<mgrwt>
<rscale>  0 0.91087451E+02</rscale>
<asrwt>0</asrwt>
<pdfrwt beam="2">  1        2 0.33762937E-02 0.91087451E+02</pdfrwt>
<pdfrwt beam="1">  1       -2 0.14540863E-01 0.91087451E+02</pdfrwt>
<totfact> 0.81344027E+04</totfact>
</mgrwt>
</event>
<event>
 5    1  0.6004828E+000  0.9063972E+02  0.7546771E-02  0.1301310E+00
         -1   -1    0    0    0  501 -0.00000000000E+00  0.00000000000E+00  0.66666130925E+02  0.66666130925E+02  0.00000000000E+00 0.  1.
          1   -1    0    0  501    0  0.00000000000E+00 -0.00000000000E+00 -0.30808590739E+02  0.30808590739E+02  0.00000000000E+00 0. -1.
         23    2    1    2    0    0  0.00000000000E+00  0.00000000000E+00  0.35857540186E+02  0.97474721664E+02  0.90639716324E+02 0.  0.
        -11    1    3    3    0    0 -0.23256455297E+02  0.20636761577E+02  0.53387108576E+02  0.61781243137E+02  0.00000000000E+00 0.  1.
         11    1    3    3    0    0  0.23256455297E+02 -0.20636761577E+02 -0.17529568391E+02  0.35693478527E+02  0.00000000000E+00 0. -1.
<mgrwt>
<rscale>  0 0.90639716E+02</rscale>
<asrwt>0</asrwt>
<pdfrwt beam="2">  1        1 0.47397832E-02 0.90639716E+02</pdfrwt>
<pdfrwt beam="1">  1       -1 0.10256328E-01 0.90639716E+02</pdfrwt>
<totfact> 0.88541168E+04</totfact>
</mgrwt>
</event>
<event>
 5    1  0.6004828E+000  0.7633028E+02  0.7546771E-02  0.1339800E+00
          2   -1    0    0  501    0  0.00000000000E+00  0.00000000000E+00  0.10674681044E+03  0.10674681044E+03  0.00000000000E+00 0. -1.
         -2   -1    0    0    0  501 -0.00000000000E+00 -0.00000000000E+00 -0.13645163882E+02  0.13645163882E+02  0.00000000000E+00 0.  1.
         23    2    1    2    0    0  0.00000000000E+00  0.00000000000E+00  0.93101646562E+02  0.12039197433E+03  0.76330275052E+02 0.  0.
        -11    1    3    3    0    0  0.33115310100E+01  0.28809713460E+02  0.74168259864E+01  0.29932843751E+02  0.00000000000E+00 0.  1.
         11    1    3    3    0    0 -0.33115310100E+01 -0.28809713460E+02  0.85684820576E+02  0.90459130575E+02  0.00000000000E+00 0. -1.
<mgrwt>
<rscale>  0 0.76330275E+02</rscale>
<asrwt>0</asrwt>
<pdfrwt beam="1">  1        2 0.16422586E-01 0.76330275E+02</pdfrwt>
<pdfrwt beam="2">  1       -2 0.20992561E-02 0.76330275E+02</pdfrwt>
<totfact> 0.20262959E+05</totfact>
</mgrwt>
</event>
<event>
 5    1  0.6004828E+000  0.9073287E+02  0.7546771E-02  0.1301087E+00
          1   -1    0    0  501    0  0.00000000000E+00  0.00000000000E+00  0.26100157591E+03  0.26100157591E+03  0.00000000000E+00 0. -1.
         -1   -1    0    0    0  501 -0.00000000000E+00 -0.00000000000E+00 -0.78854447041E+01  0.78854447041E+01  0.00000000000E+00 0.  1.
         23    2    1    2    0    0  0.00000000000E+00  0.00000000000E+00  0.25311613120E+03  0.26888702061E+03  0.90732871541E+02 0.  0.
        -11    1    3    3    0    0 -0.39602151891E+02  0.58712513547E+01  0.63322780986E+02  0.74917131677E+02  0.00000000000E+00 0.  1.
         11    1    3    3    0    0  0.39602151891E+02 -0.58712513547E+01  0.18979335022E+03  0.19396988894E+03  0.00000000000E+00 0. -1.
<mgrwt>
<rscale>  0 0.90732872E+02</rscale>
<asrwt>0</asrwt>
<pdfrwt beam="1">  1        1 0.40154082E-01 0.90732872E+02</pdfrwt>
<pdfrwt beam="2">  1       -1 0.12131455E-02 0.90732872E+02</pdfrwt>
<totfact> 0.12634862E+05</totfact>
</mgrwt>
</event>
<event>
 5    1  0.6004828E+000  0.9149170E+02  0.7546771E-02  0.1299279E+00
          1   -1    0    0  501    0  0.00000000000E+00  0.00000000000E+00  0.40923619111E+02  0.40923619111E+02  0.00000000000E+00 0. -1.
         -1   -1    0    0    0  501 -0.00000000000E+00 -0.00000000000E+00 -0.51136312133E+02  0.51136312133E+02  0.00000000000E+00 0.  1.
         23    2    1    2    0    0  0.00000000000E+00  0.00000000000E+00 -0.10212693022E+02  0.92059931243E+02  0.91491703677E+02 0.  0.
        -11    1    3    3    0    0 -0.38636517274E+02  0.24481900362E+02 -0.58451053148E+01  0.46111920026E+02  0.00000000000E+00 0.  1.
         11    1    3    3    0    0  0.38636517274E+02 -0.24481900362E+02 -0.43675877072E+01  0.45948011217E+02  0.00000000000E+00 0. -1.
<mgrwt>
<rscale>  0 0.91491704E+02</rscale>
<asrwt>0</asrwt>
<pdfrwt beam="1">  1        1 0.62959414E-02 0.91491704E+02</pdfrwt>
<pdfrwt beam="2">  1       -1 0.78671250E-02 0.91491704E+02</pdfrwt>
<totfact> 0.90096586E+04</totfact>
</mgrwt>
</event>
<event>
 5    1  0.6004828E+000  0.8814921E+02  0.7546771E-02  0.1307397E+00
         -4   -1    0    0    0  501 -0.00000000000E+00  0.00000000000E+00  0.33443089460E+03  0.33443089460E+03  0.00000000000E+00 0. -1.
          4   -1    0    0  501    0  0.00000000000E+00 -0.00000000000E+00 -0.58085859877E+01  0.58085859877E+01  0.00000000000E+00 0.  1.
         23    2    1    2    0    0  0.00000000000E+00  0.00000000000E+00  0.32862230861E+03  0.34023948058E+03  0.88149205515E+02 0.  0.
        -11    1    3    3    0    0  0.52647853667E+01  0.42330616607E+02  0.12150870595E+03  0.12877874316E+03  0.00000000000E+00 0.  1.
         11    1    3    3    0    0 -0.52647853667E+01 -0.42330616607E+02  0.20711360266E+03  0.21146073743E+03  0.00000000000E+00 0. -1.
<mgrwt>
<rscale>  0 0.88149206E+02</rscale>
<asrwt>0</asrwt>
<pdfrwt beam="2">  1        4 0.89362888E-03 0.88149206E+02</pdfrwt>
<pdfrwt beam="1">  1       -4 0.51450892E-01 0.88149206E+02</pdfrwt>
<totfact> 0.18214234E+04</totfact>
</mgrwt>
</event>
<event>
 5    1  0.6004828E+000  0.8970240E+02  0.7546771E-02  0.1303574E+00
          4   -1    0    0  501    0  0.00000000000E+00  0.00000000000E+00  0.22120850989E+02  0.22120850989E+02  0.00000000000E+00 0. -1.
         -4   -1    0    0    0  501 -0.00000000000E+00 -0.00000000000E+00 -0.90938194482E+02  0.90938194482E+02  0.00000000000E+00 0.  1.
         23    2    1    2    0    0  0.00000000000E+00  0.00000000000E+00 -0.68817343492E+02  0.11305904547E+03  0.89702402406E+02 0.  0.
        -11    1    3    3    0    0  0.33810001737E+02 -0.26547909628E+02 -0.50535741290E+02  0.66345827833E+02  0.00000000000E+00 0.  1.
         11    1    3    3    0    0 -0.33810001737E+02  0.26547909628E+02 -0.18281602202E+02  0.46713217638E+02  0.00000000000E+00 0. -1.
<mgrwt>
<rscale>  0 0.89702402E+02</rscale>
<asrwt>0</asrwt>
<pdfrwt beam="1">  1        4 0.34032078E-02 0.89702402E+02</pdfrwt>
<pdfrwt beam="2">  1       -4 0.13990492E-01 0.89702402E+02</pdfrwt>
<totfact> 0.26826349E+04</totfact>
</mgrwt>
</event>
<event>
 5    1  0.6004828E+000  0.8593407E+02  0.7546771E-02  0.1313008E+00
          1   -1    0    0  501    0  0.00000000000E+00  0.00000000000E+00  0.25641646843E+03  0.25641646843E+03  0.00000000000E+00 0. -1.
         -1   -1    0    0    0  501 -0.00000000000E+00 -0.00000000000E+00 -0.71998740728E+01  0.71998740728E+01  0.00000000000E+00 0.  1.
         23    2    1    2    0    0  0.00000000000E+00  0.00000000000E+00  0.24921659436E+03  0.26361634251E+03  0.85934074334E+02 0.  0.
        -11    1    3    3    0    0  0.41749110429E+02 -0.94672193477E+00  0.93583706295E+02  0.10247826398E+03  0.00000000000E+00 0.  1.
         11    1    3    3    0    0 -0.41749110429E+02  0.94672193477E+00  0.15563288806E+03  0.16113807853E+03  0.00000000000E+00 0. -1.
<mgrwt>
<rscale>  0 0.85934074E+02</rscale>
<asrwt>0</asrwt>
<pdfrwt beam="1">  1        1 0.39448680E-01 0.85934074E+02</pdfrwt>
<pdfrwt beam="2">  1       -1 0.11076731E-02 0.85934074E+02</pdfrwt>
<totfact> 0.14549112E+05</totfact>
</mgrwt>
</event>
<event>
 5    1  0.6004828E+000  0.9161372E+02  0.7546771E-02  0.1298990E+00
          3   -1    0    0  501    0  0.00000000000E+00  0.00000000000E+00  0.49294198018E+02  0.49294198018E+02  0.00000000000E+00 0. -1.
         -3   -1    0    0    0  501 -0.00000000000E+00 -0.00000000000E+00 -0.42566237023E+02  0.42566237023E+02  0.00000000000E+00 0.  1.
         23    2    1    2    0    0  0.00000000000E+00  0.00000000000E+00  0.67279609952E+01  0.91860435041E+02  0.91613722044E+02 0.  0.
        -11    1    3    3    0    0  0.28960414690E+02 -0.34782260063E+02 -0.37088996156E+01  0.45412191871E+02  0.00000000000E+00 0.  1.
         11    1    3    3    0    0 -0.28960414690E+02  0.34782260063E+02  0.10436860611E+02  0.46448243170E+02  0.00000000000E+00 0. -1.
<mgrwt>
<rscale>  0 0.91613722E+02</rscale>
<asrwt>0</asrwt>
<pdfrwt beam="1">  1        3 0.75837227E-02 0.91613722E+02</pdfrwt>
<pdfrwt beam="2">  1       -3 0.65486519E-02 0.91613722E+02</pdfrwt>
<totfact> 0.34828615E+04</totfact>
</mgrwt>
</event>
<event>
 5    1  0.6004828E+000  0.9432291E+02  0.7546771E-02  0.1292708E+00
         -1   -1    0    0    0  501 -0.00000000000E+00  0.00000000000E+00  0.14737523990E+03  0.14737523990E+03  0.00000000000E+00 0.  1.
          1   -1    0    0  501    0  0.00000000000E+00 -0.00000000000E+00 -0.15092106206E+02  0.15092106206E+02  0.00000000000E+00 0. -1.
         23    2    1    2    0    0  0.00000000000E+00  0.00000000000E+00  0.13228313370E+03  0.16246734611E+03  0.94322908624E+02 0.  0.
        -11    1    3    3    0    0 -0.17492833391E+02  0.15741087379E+02  0.13653983350E+03  0.13855290392E+03  0.00000000000E+00 0.  1.
         11    1    3    3    0    0  0.17492833391E+02 -0.15741087379E+02 -0.42566998067E+01  0.23914442188E+02  0.00000000000E+00 0. -1.
<mgrwt>
<rscale>  0 0.94322909E+02</rscale>
<asrwt>0</asrwt>
<pdfrwt beam="2">  1        1 0.23218626E-02 0.94322909E+02</pdfrwt>
<pdfrwt beam="1">  1       -1 0.22673113E-01 0.94322909E+02</pdfrwt>
<totfact> 0.68758882E+04</totfact>
</mgrwt>
</event>
<event>
 5    1  0.6004828E+000  0.8810379E+02  0.7546771E-02  0.1307510E+00
         -2   -1    0    0    0  501 -0.00000000000E+00  0.00000000000E+00  0.29128292357E+02  0.29128292357E+02  0.00000000000E+00 0.  1.
          2   -1    0    0  501    0  0.00000000000E+00 -0.00000000000E+00 -0.66621462523E+02  0.66621462523E+02  0.00000000000E+00 0. -1.
         23    2    1    2    0    0  0.00000000000E+00  0.00000000000E+00 -0.37493170166E+02  0.95749754881E+02  0.88103789649E+02 0.  0.
        -11    1    3    3    0    0  0.35541925503E+02  0.61634160713E+01 -0.46226382542E+02  0.58635267621E+02  0.00000000000E+00 0. -1.
         11    1    3    3    0    0 -0.35541925503E+02 -0.61634160713E+01  0.87332123761E+01  0.37114487259E+02  0.00000000000E+00 0.  1.
<mgrwt>
<rscale>  0 0.88103790E+02</rscale>
<asrwt>0</asrwt>
<pdfrwt beam="2">  1        2 0.10249456E-01 0.88103790E+02</pdfrwt>
<pdfrwt beam="1">  1       -2 0.44812758E-02 0.88103790E+02</pdfrwt>
<totfact> 0.12009338E+05</totfact>
</mgrwt>
</event>
<event>
 5    1  0.6004828E+000  0.9128570E+02  0.7546771E-02  0.1299768E+00
          3   -1    0    0  501    0  0.00000000000E+00  0.00000000000E+00  0.18173094407E+03  0.18173094407E+03  0.00000000000E+00 0. -1.
         -3   -1    0    0    0  501 -0.00000000000E+00 -0.00000000000E+00 -0.11463483943E+02  0.11463483943E+02  0.00000000000E+00 0.  1.
         23    2    1    2    0    0  0.00000000000E+00  0.00000000000E+00  0.17026746013E+03  0.19319442802E+03  0.91285700069E+02 0.  0.
        -11    1    3    3    0    0  0.17630684892E+02  0.28680617721E+02  0.19907908197E+02  0.39111937965E+02  0.00000000000E+00 0.  1.
         11    1    3    3    0    0 -0.17630684892E+02 -0.28680617721E+02  0.15035955193E+03  0.15408249005E+03  0.00000000000E+00 0. -1.
<mgrwt>
<rscale>  0 0.91285700E+02</rscale>
<asrwt>0</asrwt>
<pdfrwt beam="1">  1        3 0.27958605E-01 0.91285700E+02</pdfrwt>
<pdfrwt beam="2">  1       -3 0.17636130E-02 0.91285700E+02</pdfrwt>
<totfact> 0.28761349E+04</totfact>
</mgrwt>
</event>
<event>
 5    1  0.6004828E+000  0.9251406E+02  0.7546771E-02  0.1296875E+00
         -1   -1    0    0    0  501 -0.00000000000E+00  0.00000000000E+00  0.15049809897E+03  0.15049809897E+03  0.00000000000E+00 0.  1.
          1   -1    0    0  501    0  0.00000000000E+00 -0.00000000000E+00 -0.14217541814E+02  0.14217541814E+02  0.00000000000E+00 0. -1.
         23    2    1    2    0    0  0.00000000000E+00  0.00000000000E+00  0.13628055715E+03  0.16471564078E+03  0.92514064120E+02 0.  0.
        -11    1    3    3    0    0 -0.34067341024E+02 -0.29662344486E+02  0.50400582486E+02  0.67680552006E+02  0.00000000000E+00 0.  1.
         11    1    3    3    0    0  0.34067341024E+02  0.29662344486E+02  0.85879974665E+02  0.97035088774E+02  0.00000000000E+00 0. -1.
<mgrwt>
<rscale>  0 0.92514064E+02</rscale>
<asrwt>0</asrwt>
<pdfrwt beam="2">  1        1 0.21873142E-02 0.92514064E+02</pdfrwt>
<pdfrwt beam="1">  1       -1 0.23153553E-01 0.92514064E+02</pdfrwt>
<totfact> 0.71955454E+04</totfact>
</mgrwt>
</event>
<event>
 5    1  0.6004828E+000  0.9182635E+02  0.7546771E-02  0.1298488E+00
         -4   -1    0    0    0  501 -0.00000000000E+00  0.00000000000E+00  0.50027531265E+02  0.50027531265E+02  0.00000000000E+00 0.  1.
          4   -1    0    0  501    0  0.00000000000E+00 -0.00000000000E+00 -0.42137194186E+02  0.42137194186E+02  0.00000000000E+00 0. -1.
         23    2    1    2    0    0  0.00000000000E+00  0.00000000000E+00  0.78903370791E+01  0.92164725450E+02  0.91826353506E+02 0.  0.
        -11    1    3    3    0    0  0.64944816704E+01 -0.21798748554E+02  0.43975163792E+02  0.49509380538E+02  0.00000000000E+00 0.  1.
         11    1    3    3    0    0 -0.64944816704E+01  0.21798748554E+02 -0.36084826713E+02  0.42655344913E+02  0.00000000000E+00 0. -1.
<mgrwt>
<rscale>  0 0.91826354E+02</rscale>
<asrwt>0</asrwt>
<pdfrwt beam="2">  1        4 0.64826453E-02 0.91826354E+02</pdfrwt>
<pdfrwt beam="1">  1       -4 0.76965433E-02 0.91826354E+02</pdfrwt>
<totfact> 0.26437222E+04</totfact>
</mgrwt>
</event>
<event>
 5    1  0.6004828E+000  0.9161845E+02  0.7546771E-02  0.1298979E+00
         -1   -1    0    0    0  501 -0.00000000000E+00  0.00000000000E+00  0.12075015422E+02  0.12075015422E+02  0.00000000000E+00 0.  1.
          1   -1    0    0  501    0  0.00000000000E+00 -0.00000000000E+00 -0.17378735567E+03  0.17378735567E+03  0.00000000000E+00 0. -1.
         23    2    1    2    0    0  0.00000000000E+00  0.00000000000E+00 -0.16171234025E+03  0.18586237109E+03  0.91618447920E+02 0.  0.
        -11    1    3    3    0    0 -0.28587061368E+02  0.35557860083E+02 -0.72515576334E+02  0.85674326974E+02  0.00000000000E+00 0.  1.
         11    1    3    3    0    0  0.28587061368E+02 -0.35557860083E+02 -0.89196763915E+02  0.10018804412E+03  0.00000000000E+00 0. -1.
<mgrwt>
<rscale>  0 0.91618448E+02</rscale>
<asrwt>0</asrwt>
<pdfrwt beam="2">  1        1 0.26736517E-01 0.91618448E+02</pdfrwt>
<pdfrwt beam="1">  1       -1 0.18576947E-02 0.91618448E+02</pdfrwt>
<totfact> 0.11376424E+05</totfact>
</mgrwt>
</event>
<event>
 5    1  0.6004828E+000  0.9247927E+02  0.7546771E-02  0.1296956E+00
         -1   -1    0    0    0  501 -0.00000000000E+00  0.00000000000E+00  0.24112994647E+03  0.24112994647E+03  0.00000000000E+00 0.  1.
          1   -1    0    0  501    0  0.00000000000E+00 -0.00000000000E+00 -0.88670192744E+01  0.88670192744E+01  0.00000000000E+00 0. -1.
         23    2    1    2    0    0  0.00000000000E+00  0.00000000000E+00  0.23226292719E+03  0.24999696574E+03  0.92479270822E+02 0.  0.
        -11    1    3    3    0    0  0.31213562299E+02  0.14127821358E+02  0.32189547985E+02  0.47011156199E+02  0.00000000000E+00 0. -1.
         11    1    3    3    0    0 -0.31213562299E+02 -0.14127821358E+02  0.20007337921E+03  0.20298580954E+03  0.00000000000E+00 0.  1.
<mgrwt>
<rscale>  0 0.92479271E+02</rscale>
<asrwt>0</asrwt>
<pdfrwt beam="2">  1        1 0.13641570E-02 0.92479271E+02</pdfrwt>
<pdfrwt beam="1">  1       -1 0.37096910E-01 0.92479271E+02</pdfrwt>
<totfact> 0.63166007E+04</totfact>
</mgrwt>
</event>
<event>
 5    1  0.6004828E+000  0.9384645E+02  0.7546771E-02  0.1293795E+00
         -1   -1    0    0    0  501 -0.00000000000E+00  0.00000000000E+00  0.82872619259E+02  0.82872619259E+02  0.00000000000E+00 0.  1.
          1   -1    0    0  501    0  0.00000000000E+00 -0.00000000000E+00 -0.26568354596E+02  0.26568354596E+02  0.00000000000E+00 0. -1.
         23    2    1    2    0    0  0.00000000000E+00  0.00000000000E+00  0.56304264663E+02  0.10944097386E+03  0.93846451927E+02 0.  0.
        -11    1    3    3    0    0  0.28720806740E+02  0.81393236094E+01 -0.14066719578E+02  0.33000089823E+02  0.00000000000E+00 0. -1.
         11    1    3    3    0    0 -0.28720806740E+02 -0.81393236094E+01  0.70370984241E+02  0.76440884033E+02  0.00000000000E+00 0.  1.
<mgrwt>
<rscale>  0 0.93846452E+02</rscale>
<asrwt>0</asrwt>
<pdfrwt beam="2">  1        1 0.40874392E-02 0.93846452E+02</pdfrwt>
<pdfrwt beam="1">  1       -1 0.12749634E-01 0.93846452E+02</pdfrwt>
<totfact> 0.78138589E+04</totfact>
</mgrwt>
</event>
<event>
 5    1  0.6004828E+000  0.7365469E+02  0.7546771E-02  0.1348088E+00
          1   -1    0    0  501    0  0.00000000000E+00  0.00000000000E+00  0.15912040675E+02  0.15912040675E+02  0.00000000000E+00 0.  1.
         -1   -1    0    0    0  501 -0.00000000000E+00 -0.00000000000E+00 -0.85234405609E+02  0.85234405609E+02  0.00000000000E+00 0. -1.
         23    2    1    2    0    0  0.00000000000E+00  0.00000000000E+00 -0.69322364934E+02  0.10114644628E+03  0.73654689706E+02 0.  0.
        -11    1    3    3    0    0 -0.19834182304E+01 -0.35413078080E+02 -0.21050510992E+02  0.41244927688E+02  0.00000000000E+00 0.  1.
         11    1    3    3    0    0  0.19834182304E+01  0.35413078080E+02 -0.48271853942E+02  0.59901518595E+02  0.00000000000E+00 0. -1.
<mgrwt>
<rscale>  0 0.73654690E+02</rscale>
<asrwt>0</asrwt>
<pdfrwt beam="1">  1        1 0.24480063E-02 0.73654690E+02</pdfrwt>
<pdfrwt beam="2">  1       -1 0.13112985E-01 0.73654690E+02</pdfrwt>
<totfact> 0.14442470E+05</totfact>
</mgrwt>
</event>
<event>
 5    1  0.6004828E+000  0.9218113E+02  0.7546771E-02  0.1297654E+00
          1   -1    0    0  501    0  0.00000000000E+00  0.00000000000E+00  0.28989012031E+03  0.28989012031E+03  0.00000000000E+00 0. -1.
         -1   -1    0    0    0  501 -0.00000000000E+00 -0.00000000000E+00 -0.73280873181E+01  0.73280873181E+01  0.00000000000E+00 0.  1.
         23    2    1    2    0    0  0.00000000000E+00  0.00000000000E+00  0.28256203299E+03  0.29721820763E+03  0.92181128530E+02 0.  0.
        -11    1    3    3    0    0 -0.42458193217E+02 -0.15483423719E+02  0.17046133383E+03  0.17635050584E+03  0.00000000000E+00 0.  1.
         11    1    3    3    0    0  0.42458193217E+02  0.15483423719E+02  0.11210069916E+03  0.12086770178E+03  0.00000000000E+00 0. -1.
<mgrwt>
<rscale>  0 0.92181129E+02</rscale>
<asrwt>0</asrwt>
<pdfrwt beam="1">  1        1 0.44598471E-01 0.92181129E+02</pdfrwt>
<pdfrwt beam="2">  1       -1 0.11273983E-02 0.92181129E+02</pdfrwt>
<totfact> 0.12361589E+05</totfact>
</mgrwt>
</event>
<event>
 5    1  0.6004828E+000  0.9225214E+02  0.7546771E-02  0.1297488E+00
          3   -1    0    0  501    0  0.00000000000E+00  0.00000000000E+00  0.62765823676E+01  0.62765823676E+01  0.00000000000E+00 0. -1.
         -3   -1    0    0    0  501 -0.00000000000E+00 -0.00000000000E+00 -0.33897657632E+03  0.33897657632E+03  0.00000000000E+00 0.  1.
         23    2    1    2    0    0  0.00000000000E+00  0.00000000000E+00 -0.33269999396E+03  0.34525315869E+03  0.92252141482E+02 0.  0.
        -11    1    3    3    0    0  0.23664275126E+02  0.35713499931E+02 -0.23031955814E+03  0.23427025176E+03  0.00000000000E+00 0.  1.
         11    1    3    3    0    0 -0.23664275126E+02 -0.35713499931E+02 -0.10238043581E+03  0.11098290694E+03  0.00000000000E+00 0. -1.
<mgrwt>
<rscale>  0 0.92252141E+02</rscale>
<asrwt>0</asrwt>
<pdfrwt beam="1">  1        3 0.96562764E-03 0.92252141E+02</pdfrwt>
<pdfrwt beam="2">  1       -3 0.52150265E-01 0.92252141E+02</pdfrwt>
<totfact> 0.21675821E+04</totfact>
</mgrwt>
</event>
<event>
 5    1  0.6004828E+000  0.8927552E+02  0.7546771E-02  0.1304616E+00
         -4   -1    0    0    0  501 -0.00000000000E+00  0.00000000000E+00  0.34884661653E+02  0.34884661653E+02  0.00000000000E+00 0.  1.
          4   -1    0    0  501    0  0.00000000000E+00 -0.00000000000E+00 -0.57117645646E+02  0.57117645646E+02  0.00000000000E+00 0. -1.
         23    2    1    2    0    0  0.00000000000E+00  0.00000000000E+00 -0.22232983993E+02  0.92002307299E+02  0.89275522799E+02 0.  0.
        -11    1    3    3    0    0  0.37052028120E+02  0.78732924119E+01 -0.35453212421E+02  0.51882287846E+02  0.00000000000E+00 0. -1.
         11    1    3    3    0    0 -0.37052028120E+02 -0.78732924119E+01  0.13220228428E+02  0.40120019453E+02  0.00000000000E+00 0.  1.
<mgrwt>
<rscale>  0 0.89275523E+02</rscale>
<asrwt>0</asrwt>
<pdfrwt beam="2">  1        4 0.87873300E-02 0.89275523E+02</pdfrwt>
<pdfrwt beam="1">  1       -4 0.53668711E-02 0.89275523E+02</pdfrwt>
<totfact> 0.28545247E+04</totfact>
</mgrwt>
</event>
<event>
 5    1  0.6004828E+000  0.9155293E+02  0.7546771E-02  0.1299134E+00
         -1   -1    0    0    0  501 -0.00000000000E+00  0.00000000000E+00  0.44377266415E+01  0.44377266415E+01  0.00000000000E+00 0.  1.
          1   -1    0    0  501    0  0.00000000000E+00 -0.00000000000E+00 -0.47219775253E+03  0.47219775253E+03  0.00000000000E+00 0. -1.
         23    2    1    2    0    0  0.00000000000E+00  0.00000000000E+00 -0.46776002589E+03  0.47663547917E+03  0.91552925600E+02 0.  0.
        -11    1    3    3    0    0  0.35261352664E+02 -0.28624328789E+02 -0.26368219711E+03  0.26756497578E+03  0.00000000000E+00 0.  1.
         11    1    3    3    0    0 -0.35261352664E+02  0.28624328789E+02 -0.20407782878E+03  0.20907050339E+03  0.00000000000E+00 0. -1.
<mgrwt>
<rscale>  0 0.91552926E+02</rscale>
<asrwt>0</asrwt>
<pdfrwt beam="2">  1        1 0.72645806E-01 0.91552926E+02</pdfrwt>
<pdfrwt beam="1">  1       -1 0.68272719E-03 0.91552926E+02</pdfrwt>
<totfact> 0.13676879E+05</totfact>
</mgrwt>
</event>
<event>
 5    1  0.6004828E+000  0.7727963E+02  0.7546771E-02  0.1336954E+00
          3   -1    0    0  501    0  0.00000000000E+00  0.00000000000E+00  0.17494614449E+02  0.17494614449E+02  0.00000000000E+00 0. -1.
         -3   -1    0    0    0  501 -0.00000000000E+00 -0.00000000000E+00 -0.85342568158E+02  0.85342568158E+02  0.00000000000E+00 0.  1.
         23    2    1    2    0    0  0.00000000000E+00  0.00000000000E+00 -0.67847953709E+02  0.10283718261E+03  0.77279630590E+02 0.  0.
        -11    1    3    3    0    0  0.23386949321E+02 -0.14125220228E+02  0.24355880902E+01  0.27429971461E+02  0.00000000000E+00 0. -1.
         11    1    3    3    0    0 -0.23386949321E+02  0.14125220228E+02 -0.70283541799E+02  0.75407211146E+02  0.00000000000E+00 0.  1.
<mgrwt>
<rscale>  0 0.77279631E+02</rscale>
<asrwt>0</asrwt>
<pdfrwt beam="1">  1        3 0.26914791E-02 0.77279631E+02</pdfrwt>
<pdfrwt beam="2">  1       -3 0.13129626E-01 0.77279631E+02</pdfrwt>
<totfact> 0.53786775E+04</totfact>
</mgrwt>
</event>
<event>
 5    1  0.6004828E+000  0.8983748E+02  0.7546771E-02  0.1303246E+00
         -2   -1    0    0    0  501 -0.00000000000E+00  0.00000000000E+00  0.14286176949E+03  0.14286176949E+03  0.00000000000E+00 0. -1.
          2   -1    0    0  501    0  0.00000000000E+00 -0.00000000000E+00 -0.14123396529E+02  0.14123396529E+02  0.00000000000E+00 0.  1.
         23    2    1    2    0    0  0.00000000000E+00  0.00000000000E+00  0.12873837297E+03  0.15698516602E+03  0.89837484813E+02 0.  0.
        -11    1    3    3    0    0 -0.33286170389E+01  0.25175329146E+02 -0.37596959835E+00  0.25397209338E+02  0.00000000000E+00 0.  1.
         11    1    3    3    0    0  0.33286170389E+01 -0.25175329146E+02  0.12911434256E+03  0.13158795669E+03  0.00000000000E+00 0. -1.
<mgrwt>
<rscale>  0 0.89837485E+02</rscale>
<asrwt>0</asrwt>
<pdfrwt beam="2">  1        2 0.21728303E-02 0.89837485E+02</pdfrwt>
<pdfrwt beam="1">  1       -2 0.21978733E-01 0.89837485E+02</pdfrwt>
<totfact> 0.73797613E+04</totfact>
</mgrwt>
</event>
<event>
 5    1  0.6004828E+000  0.9188901E+02  0.7546771E-02  0.1298341E+00
         -2   -1    0    0    0  501 -0.00000000000E+00  0.00000000000E+00  0.23989743173E+03  0.23989743173E+03  0.00000000000E+00 0.  1.
          2   -1    0    0  501    0  0.00000000000E+00 -0.00000000000E+00 -0.87991677592E+01  0.87991677592E+01  0.00000000000E+00 0. -1.
         23    2    1    2    0    0  0.00000000000E+00  0.00000000000E+00  0.23109826397E+03  0.24869659949E+03  0.91889014507E+02 0.  0.
        -11    1    3    3    0    0 -0.47446774215E+01  0.34882006384E+02  0.19545389911E+03  0.19859882429E+03  0.00000000000E+00 0.  1.
         11    1    3    3    0    0  0.47446774215E+01 -0.34882006384E+02  0.35644364857E+02  0.50097775192E+02  0.00000000000E+00 0. -1.
<mgrwt>
<rscale>  0 0.91889015E+02</rscale>
<asrwt>0</asrwt>
<pdfrwt beam="2">  1        2 0.13537183E-02 0.91889015E+02</pdfrwt>
<pdfrwt beam="1">  1       -2 0.36907292E-01 0.91889015E+02</pdfrwt>
<totfact> 0.56196271E+04</totfact>
</mgrwt>
</event>
<event>
 5    1  0.6004828E+000  0.8985838E+02  0.7546771E-02  0.1303195E+00
         -3   -1    0    0    0  501 -0.00000000000E+00  0.00000000000E+00  0.15489945010E+03  0.15489945010E+03  0.00000000000E+00 0.  1.
          3   -1    0    0  501    0  0.00000000000E+00 -0.00000000000E+00 -0.13031888105E+02  0.13031888105E+02  0.00000000000E+00 0. -1.
         23    2    1    2    0    0  0.00000000000E+00  0.00000000000E+00  0.14186756200E+03  0.16793133821E+03  0.89858384167E+02 0.  0.
        -11    1    3    3    0    0 -0.16826083464E+02 -0.23099442034E+02  0.13572451667E+03  0.13870056140E+03  0.00000000000E+00 0.  1.
         11    1    3    3    0    0  0.16826083464E+02  0.23099442034E+02  0.61430453277E+01  0.29230776810E+02  0.00000000000E+00 0. -1.
<mgrwt>
<rscale>  0 0.89858384E+02</rscale>
<asrwt>0</asrwt>
<pdfrwt beam="2">  1        3 0.20049060E-02 0.89858384E+02</pdfrwt>
<pdfrwt beam="1">  1       -3 0.23830683E-01 0.89858384E+02</pdfrwt>
<totfact> 0.31457709E+04</totfact>
</mgrwt>
</event>
<event>
 5    1  0.6004828E+000  0.9182250E+02  0.7546771E-02  0.1298497E+00
          2   -1    0    0  501    0  0.00000000000E+00  0.00000000000E+00  0.13671133596E+03  0.13671133596E+03  0.00000000000E+00 0. -1.
         -2   -1    0    0    0  501 -0.00000000000E+00 -0.00000000000E+00 -0.15418199959E+02  0.15418199959E+02  0.00000000000E+00 0.  1.
         23    2    1    2    0    0  0.00000000000E+00  0.00000000000E+00  0.12129313600E+03  0.15212953592E+03  0.91822496469E+02 0.  0.
        -11    1    3    3    0    0  0.25636094072E+02 -0.35539591604E+02  0.83337225846E+02  0.94156067794E+02  0.00000000000E+00 0.  1.
         11    1    3    3    0    0 -0.25636094072E+02  0.35539591604E+02  0.37955910152E+02  0.57973468123E+02  0.00000000000E+00 0. -1.
<mgrwt>
<rscale>  0 0.91822496E+02</rscale>
<asrwt>0</asrwt>
<pdfrwt beam="1">  1        2 0.21032512E-01 0.91822496E+02</pdfrwt>
<pdfrwt beam="2">  1       -2 0.23720308E-02 0.91822496E+02</pdfrwt>
<totfact> 0.13293344E+05</totfact>
</mgrwt>
</event>
<event>
 4    1  0.6004828E+000  0.1586243E+03  0.7546771E-02  0.1190259E+00
         -2   -1    0    0    0  501 -0.00000000000E+00  0.00000000000E+00  0.10511249395E+02  0.10511249395E+02  0.00000000000E+00 0.  1.
          2   -1    0    0  501    0  0.00000000000E+00 -0.00000000000E+00 -0.59844588936E+03  0.59844588936E+03  0.00000000000E+00 0. -1.
        -11    1    1    2    0    0 -0.79700086588E+01  0.74030837149E+02 -0.18908989534E+03  0.20322173705E+03  0.00000000000E+00 0.  1.
         11    1    1    2    0    0  0.79700086588E+01 -0.74030837149E+02 -0.39884474462E+03  0.40573540171E+03  0.00000000000E+00 0. -1.
<mgrwt>
<rscale>  0 0.15862426E+03</rscale>
<asrwt>0</asrwt>
<pdfrwt beam="2">  1        2 0.92068606E-01 0.15862426E+03</pdfrwt>
<pdfrwt beam="1">  1       -2 0.16171152E-02 0.15862426E+03</pdfrwt>
<totfact> 0.50547023E+04</totfact>
</mgrwt>
</event>
<event>
 5    1  0.6004828E+000  0.8928076E+02  0.7546771E-02  0.1304603E+00
          1   -1    0    0  501    0  0.00000000000E+00  0.00000000000E+00  0.21882271361E+03  0.21882271361E+03  0.00000000000E+00 0.  1.
         -1   -1    0    0    0  501 -0.00000000000E+00 -0.00000000000E+00 -0.91067484795E+01  0.91067484795E+01  0.00000000000E+00 0. -1.
         23    2    1    2    0    0  0.00000000000E+00  0.00000000000E+00  0.20971596513E+03  0.22792946209E+03  0.89280757488E+02 0.  0.
        -11    1    3    3    0    0 -0.36840832410E+02  0.22911007129E+02  0.78009203008E+02  0.89261396663E+02  0.00000000000E+00 0. -1.
         11    1    3    3    0    0  0.36840832410E+02 -0.22911007129E+02  0.13170676212E+03  0.13866806542E+03  0.00000000000E+00 0.  1.
<mgrwt>
<rscale>  0 0.89280757E+02</rscale>
<asrwt>0</asrwt>
<pdfrwt beam="1">  1        1 0.33665029E-01 0.89280757E+02</pdfrwt>
<pdfrwt beam="2">  1       -1 0.14010384E-02 0.89280757E+02</pdfrwt>
<totfact> 0.12745913E+05</totfact>
</mgrwt>
</event>
<event>
 5    1  0.6004828E+000  0.9068541E+02  0.7546771E-02  0.1301200E+00
         -3   -1    0    0    0  501 -0.00000000000E+00  0.00000000000E+00  0.72345482011E+02  0.72345482011E+02  0.00000000000E+00 0.  1.
          3   -1    0    0  501    0  0.00000000000E+00 -0.00000000000E+00 -0.28418650636E+02  0.28418650636E+02  0.00000000000E+00 0. -1.
         23    2    1    2    0    0  0.00000000000E+00  0.00000000000E+00  0.43926831375E+02  0.10076413265E+03  0.90685411800E+02 0.  0.
        -11    1    3    3    0    0 -0.15721242942E+02  0.38140506305E+02  0.10543445019E+01  0.41267024889E+02  0.00000000000E+00 0. -1.
         11    1    3    3    0    0  0.15721242942E+02 -0.38140506305E+02  0.42872486873E+02  0.59497107758E+02  0.00000000000E+00 0.  1.
<mgrwt>
<rscale>  0 0.90685412E+02</rscale>
<asrwt>0</asrwt>
<pdfrwt beam="2">  1        3 0.43721001E-02 0.90685412E+02</pdfrwt>
<pdfrwt beam="1">  1       -3 0.11130074E-01 0.90685412E+02</pdfrwt>
<totfact> 0.35128319E+04</totfact>
</mgrwt>
</event>
<event>
 5    1  0.6004828E+000  0.9233849E+02  0.7546771E-02  0.1297286E+00
         -1   -1    0    0    0  501 -0.00000000000E+00  0.00000000000E+00  0.11985196887E+03  0.11985196887E+03  0.00000000000E+00 0.  1.
          1   -1    0    0  501    0  0.00000000000E+00 -0.00000000000E+00 -0.17785265946E+02  0.17785265946E+02  0.00000000000E+00 0. -1.
         23    2    1    2    0    0  0.00000000000E+00  0.00000000000E+00  0.10206670293E+03  0.13763723482E+03  0.92338489063E+02 0.  0.
        -11    1    3    3    0    0  0.40652799419E+01 -0.21263988766E+02 -0.97505056675E+01  0.23743548177E+02  0.00000000000E+00 0. -1.
         11    1    3    3    0    0 -0.40652799419E+01  0.21263988766E+02  0.11181720859E+03  0.11389368664E+03  0.00000000000E+00 0.  1.
<mgrwt>
<rscale>  0 0.92338489E+02</rscale>
<asrwt>0</asrwt>
<pdfrwt beam="2">  1        1 0.27361948E-02 0.92338489E+02</pdfrwt>
<pdfrwt beam="1">  1       -1 0.18438764E-01 0.92338489E+02</pdfrwt>
<totfact> 0.76018311E+04</totfact>
</mgrwt>
</event>
<event>
 5    1  0.6004828E+000  0.9649112E+02  0.7546771E-02  0.1287853E+00
          2   -1    0    0  501    0  0.00000000000E+00  0.00000000000E+00  0.30219815896E+03  0.30219815896E+03  0.00000000000E+00 0. -1.
         -2   -1    0    0    0  501 -0.00000000000E+00 -0.00000000000E+00 -0.77023430689E+01  0.77023430689E+01  0.00000000000E+00 0.  1.
         23    2    1    2    0    0  0.00000000000E+00  0.00000000000E+00  0.29449581589E+03  0.30990050203E+03  0.96491116588E+02 0.  0.
        -11    1    3    3    0    0  0.37499724301E+02  0.15863071129E+02  0.23036627411E+03  0.23393692867E+03  0.00000000000E+00 0. -1.
         11    1    3    3    0    0 -0.37499724301E+02 -0.15863071129E+02  0.64129541779E+02  0.75963573357E+02  0.00000000000E+00 0.  1.
<mgrwt>
<rscale>  0 0.96491117E+02</rscale>
<asrwt>0</asrwt>
<pdfrwt beam="1">  1        2 0.46492015E-01 0.96491117E+02</pdfrwt>
<pdfrwt beam="2">  1       -2 0.11849761E-02 0.96491117E+02</pdfrwt>
<totfact> 0.15479446E+05</totfact>
</mgrwt>
</event>
<event>
 5    1  0.6004828E+000  0.9353810E+02  0.7546771E-02  0.1294503E+00
         -2   -1    0    0    0  501 -0.00000000000E+00  0.00000000000E+00  0.83034120816E+01  0.83034120816E+01  0.00000000000E+00 0.  1.
          2   -1    0    0  501    0  0.00000000000E+00 -0.00000000000E+00 -0.26342712636E+03  0.26342712636E+03  0.00000000000E+00 0. -1.
         23    2    1    2    0    0  0.00000000000E+00  0.00000000000E+00 -0.25512371428E+03  0.27173053844E+03  0.93538098840E+02 0.  0.
        -11    1    3    3    0    0 -0.34614287508E+02 -0.31366305401E+02 -0.12084253350E+03  0.12955659735E+03  0.00000000000E+00 0.  1.
         11    1    3    3    0    0  0.34614287508E+02  0.31366305401E+02 -0.13428118078E+03  0.14217394109E+03  0.00000000000E+00 0. -1.
<mgrwt>
<rscale>  0 0.93538099E+02</rscale>
<asrwt>0</asrwt>
<pdfrwt beam="2">  1        2 0.40527248E-01 0.93538099E+02</pdfrwt>
<pdfrwt beam="1">  1       -2 0.12774481E-02 0.93538099E+02</pdfrwt>
<totfact> 0.15981758E+05</totfact>
</mgrwt>
</event>
<event>
 5    1  0.6004828E+000  0.9177730E+02  0.7546771E-02  0.1298604E+00
         -1   -1    0    0    0  501 -0.00000000000E+00  0.00000000000E+00  0.66024378024E+01  0.66024378024E+01  0.00000000000E+00 0.  1.
          1   -1    0    0  501    0  0.00000000000E+00 -0.00000000000E+00 -0.31893799676E+03  0.31893799676E+03  0.00000000000E+00 0. -1.
         23    2    1    2    0    0  0.00000000000E+00  0.00000000000E+00 -0.31233555896E+03  0.32554043456E+03  0.91777301909E+02 0.  0.
        -11    1    3    3    0    0  0.45405596079E+00 -0.44451370250E+02 -0.11578134779E+03  0.12402197781E+03  0.00000000000E+00 0.  1.
         11    1    3    3    0    0 -0.45405596079E+00  0.44451370250E+02 -0.19655421117E+03  0.20151845675E+03  0.00000000000E+00 0. -1.
<mgrwt>
<rscale>  0 0.91777302E+02</rscale>
<asrwt>0</asrwt>
<pdfrwt beam="2">  1        1 0.49067390E-01 0.91777302E+02</pdfrwt>
<pdfrwt beam="1">  1       -1 0.10157595E-02 0.91777302E+02</pdfrwt>
<totfact> 0.12736340E+05</totfact>
</mgrwt>
</event>
<event>
 5    1  0.6004828E+000  0.9261308E+02  0.7546771E-02  0.1296644E+00
          1   -1    0    0  501    0  0.00000000000E+00  0.00000000000E+00  0.83175617168E+02  0.83175617168E+02  0.00000000000E+00 0. -1.
         -1   -1    0    0    0  501 -0.00000000000E+00 -0.00000000000E+00 -0.25780341236E+02  0.25780341236E+02  0.00000000000E+00 0.  1.
         23    2    1    2    0    0  0.00000000000E+00  0.00000000000E+00  0.57395275932E+02  0.10895595840E+03  0.92613083160E+02 0.  0.
        -11    1    3    3    0    0  0.42572536112E+02 -0.14855936446E+02  0.41102284350E+02  0.61012436908E+02  0.00000000000E+00 0.  1.
         11    1    3    3    0    0 -0.42572536112E+02  0.14855936446E+02  0.16292991582E+02  0.47943521496E+02  0.00000000000E+00 0. -1.
<mgrwt>
<rscale>  0 0.92613083E+02</rscale>
<asrwt>0</asrwt>
<pdfrwt beam="1">  1        1 0.12796249E-01 0.92613083E+02</pdfrwt>
<pdfrwt beam="2">  1       -1 0.39662064E-02 0.92613083E+02</pdfrwt>
<totfact> 0.97107825E+04</totfact>
</mgrwt>
</event>
<event>
 5    1  0.6004828E+000  0.9223884E+02  0.7546771E-02  0.1297519E+00
         -2   -1    0    0    0  501 -0.00000000000E+00  0.00000000000E+00  0.22897697562E+03  0.22897697562E+03  0.00000000000E+00 0.  1.
          2   -1    0    0  501    0  0.00000000000E+00 -0.00000000000E+00 -0.92891475174E+01  0.92891475174E+01  0.00000000000E+00 0. -1.
         23    2    1    2    0    0  0.00000000000E+00  0.00000000000E+00  0.21968782810E+03  0.23826612314E+03  0.92238840076E+02 0.  0.
        -11    1    3    3    0    0 -0.25218252005E+02  0.22357808729E+02  0.28519239557E+02  0.44149505890E+02  0.00000000000E+00 0. -1.
         11    1    3    3    0    0  0.25218252005E+02 -0.22357808729E+02  0.19116858855E+03  0.19411661725E+03  0.00000000000E+00 0.  1.
<mgrwt>
<rscale>  0 0.92238840E+02</rscale>
<asrwt>0</asrwt>
<pdfrwt beam="2">  1        2 0.14290998E-02 0.92238840E+02</pdfrwt>
<pdfrwt beam="1">  1       -2 0.35227223E-01 0.92238840E+02</pdfrwt>
<totfact> 0.56907478E+04</totfact>
</mgrwt>
</event>
<event>
 5    1  0.6004828E+000  0.9264424E+02  0.7546771E-02  0.1296572E+00
         -4   -1    0    0    0  501 -0.00000000000E+00  0.00000000000E+00  0.16463640734E+03  0.16463640734E+03  0.00000000000E+00 0.  1.
          4   -1    0    0  501    0  0.00000000000E+00 -0.00000000000E+00 -0.13033196998E+02  0.13033196998E+02  0.00000000000E+00 0. -1.
         23    2    1    2    0    0  0.00000000000E+00  0.00000000000E+00  0.15160321035E+03  0.17766960434E+03  0.92644238459E+02 0.  0.
        -11    1    3    3    0    0 -0.14111389337E+02 -0.36344348025E+02  0.27830874336E+02  0.47901988567E+02  0.00000000000E+00 0. -1.
         11    1    3    3    0    0  0.14111389337E+02  0.36344348025E+02  0.12377233601E+03  0.12976761577E+03  0.00000000000E+00 0.  1.
<mgrwt>
<rscale>  0 0.92644238E+02</rscale>
<asrwt>0</asrwt>
<pdfrwt beam="2">  1        4 0.20051074E-02 0.92644238E+02</pdfrwt>
<pdfrwt beam="1">  1       -4 0.25328677E-01 0.92644238E+02</pdfrwt>
<totfact> 0.21416254E+04</totfact>
</mgrwt>
</event>
<event>
 5    1  0.6004828E+000  0.9024109E+02  0.7546771E-02  0.1302269E+00
         -2   -1    0    0    0  501 -0.00000000000E+00  0.00000000000E+00  0.10941199770E+02  0.10941199770E+02  0.00000000000E+00 0.  1.
          2   -1    0    0  501    0  0.00000000000E+00 -0.00000000000E+00 -0.18607317545E+03  0.18607317545E+03  0.00000000000E+00 0. -1.
         23    2    1    2    0    0  0.00000000000E+00  0.00000000000E+00 -0.17513197567E+03  0.19701437522E+03  0.90241094507E+02 0.  0.
        -11    1    3    3    0    0 -0.21369848792E+02  0.28097882489E+02 -0.26214475045E+02  0.43969991354E+02  0.00000000000E+00 0.  1.
         11    1    3    3    0    0  0.21369848792E+02 -0.28097882489E+02 -0.14891750063E+03  0.15304438386E+03  0.00000000000E+00 0. -1.
<mgrwt>
<rscale>  0 0.90241095E+02</rscale>
<asrwt>0</asrwt>
<pdfrwt beam="2">  1        2 0.28626643E-01 0.90241095E+02</pdfrwt>
<pdfrwt beam="1">  1       -2 0.16832615E-02 0.90241095E+02</pdfrwt>
<totfact> 0.15496510E+05</totfact>
</mgrwt>
</event>
<event>
 5    1  0.6004828E+000  0.9134064E+02  0.7546771E-02  0.1299637E+00
         -2   -1    0    0    0  501 -0.00000000000E+00  0.00000000000E+00  0.37461833140E+02  0.37461833140E+02  0.00000000000E+00 0.  1.
          2   -1    0    0  501    0  0.00000000000E+00 -0.00000000000E+00 -0.55677421869E+02  0.55677421869E+02  0.00000000000E+00 0. -1.
         23    2    1    2    0    0  0.00000000000E+00  0.00000000000E+00 -0.18215588730E+02  0.93139255009E+02  0.91340643477E+02 0.  0.
        -11    1    3    3    0    0 -0.41153645199E+02 -0.13612520225E+02  0.55578711436E+01  0.43701409036E+02  0.00000000000E+00 0.  1.
         11    1    3    3    0    0  0.41153645199E+02  0.13612520225E+02 -0.23773459873E+02  0.49437845973E+02  0.00000000000E+00 0. -1.
<mgrwt>
<rscale>  0 0.91340643E+02</rscale>
<asrwt>0</asrwt>
<pdfrwt beam="2">  1        2 0.85657572E-02 0.91340643E+02</pdfrwt>
<pdfrwt beam="1">  1       -2 0.57633589E-02 0.91340643E+02</pdfrwt>
<totfact> 0.10344880E+05</totfact>
</mgrwt>
</event>
<event>
 5    1  0.6004828E+000  0.7492897E+02  0.7546771E-02  0.1344091E+00
          1   -1    0    0  501    0  0.00000000000E+00  0.00000000000E+00  0.30710400266E+03  0.30710400266E+03  0.00000000000E+00 0. -1.
         -1   -1    0    0    0  501 -0.00000000000E+00 -0.00000000000E+00 -0.45703984905E+01  0.45703984905E+01  0.00000000000E+00 0.  1.
         23    2    1    2    0    0  0.00000000000E+00  0.00000000000E+00  0.30253360417E+03  0.31167440115E+03  0.74928970905E+02 0.  0.
        -11    1    3    3    0    0 -0.35930072022E+02 -0.43785711851E+01  0.19147652197E+03  0.19486764849E+03  0.00000000000E+00 0. -1.
         11    1    3    3    0    0  0.35930072022E+02  0.43785711851E+01  0.11105708220E+03  0.11680675266E+03  0.00000000000E+00 0.  1.
<mgrwt>
<rscale>  0 0.74928971E+02</rscale>
<asrwt>0</asrwt>
<pdfrwt beam="1">  1        1 0.47246753E-01 0.74928971E+02</pdfrwt>
<pdfrwt beam="2">  1       -1 0.70313847E-03 0.74928971E+02</pdfrwt>
<totfact> 0.21589702E+05</totfact>
</mgrwt>
</event>
<event>
 5    1  0.6004828E+000  0.9095869E+02  0.7546771E-02  0.1300547E+00
         -1   -1    0    0    0  501 -0.00000000000E+00  0.00000000000E+00  0.34416072914E+03  0.34416072914E+03  0.00000000000E+00 0.  1.
          1   -1    0    0  501    0  0.00000000000E+00 -0.00000000000E+00 -0.60098981724E+01  0.60098981724E+01  0.00000000000E+00 0. -1.
         23    2    1    2    0    0  0.00000000000E+00  0.00000000000E+00  0.33815083096E+03  0.35017062731E+03  0.90958692538E+02 0.  0.
        -11    1    3    3    0    0 -0.44744539268E+02 -0.81281371249E+01  0.17092382770E+03  0.17687027812E+03  0.00000000000E+00 0.  1.
         11    1    3    3    0    0  0.44744539268E+02  0.81281371249E+01  0.16722700326E+03  0.17330034918E+03  0.00000000000E+00 0. -1.
<mgrwt>
<rscale>  0 0.90958693E+02</rscale>
<asrwt>0</asrwt>
<pdfrwt beam="2">  1        1 0.92459999E-03 0.90958693E+02</pdfrwt>
<pdfrwt beam="1">  1       -1 0.52947789E-01 0.90958693E+02</pdfrwt>
<totfact> 0.57573627E+04</totfact>
</mgrwt>
</event>
<event>
 5    1  0.6004828E+000  0.8743057E+02  0.7546771E-02  0.1309196E+00
          2   -1    0    0  501    0  0.00000000000E+00  0.00000000000E+00  0.41402510538E+02  0.41402510538E+02  0.00000000000E+00 0. -1.
         -2   -1    0    0    0  501 -0.00000000000E+00 -0.00000000000E+00 -0.46157257402E+02  0.46157257402E+02  0.00000000000E+00 0.  1.
         23    2    1    2    0    0  0.00000000000E+00  0.00000000000E+00 -0.47547468646E+01  0.87559767940E+02  0.87430574423E+02 0.  0.
        -11    1    3    3    0    0  0.24417924606E+02  0.33531250775E+02 -0.16198001688E+02  0.44530383776E+02  0.00000000000E+00 0.  1.
         11    1    3    3    0    0 -0.24417924606E+02 -0.33531250775E+02  0.11443254823E+02  0.43029384164E+02  0.00000000000E+00 0. -1.
<mgrwt>
<rscale>  0 0.87430574E+02</rscale>
<asrwt>0</asrwt>
<pdfrwt beam="1">  1        2 0.63696170E-02 0.87430574E+02</pdfrwt>
<pdfrwt beam="2">  1       -2 0.71011165E-02 0.87430574E+02</pdfrwt>
<totfact> 0.10857758E+05</totfact>
</mgrwt>
</event>
<event>
 5    1  0.6004828E+000  0.9147493E+02  0.7546771E-02  0.1299319E+00
         -3   -1    0    0    0  501 -0.00000000000E+00  0.00000000000E+00  0.82214597375E+02  0.82214597375E+02  0.00000000000E+00 0.  1.
          3   -1    0    0  501    0  0.00000000000E+00 -0.00000000000E+00 -0.25444575860E+02  0.25444575860E+02  0.00000000000E+00 0. -1.
         23    2    1    2    0    0  0.00000000000E+00  0.00000000000E+00  0.56770021515E+02  0.10765917323E+03  0.91474926831E+02 0.  0.
        -11    1    3    3    0    0  0.15833010935E+01  0.29738405627E+02  0.69240364105E+02  0.75373122750E+02  0.00000000000E+00 0.  1.
         11    1    3    3    0    0 -0.15833010935E+01 -0.29738405627E+02 -0.12470342591E+02  0.32286050485E+02  0.00000000000E+00 0. -1.
<mgrwt>
<rscale>  0 0.91474927E+02</rscale>
<asrwt>0</asrwt>
<pdfrwt beam="2">  1        3 0.39145502E-02 0.91474927E+02</pdfrwt>
<pdfrwt beam="1">  1       -3 0.12648400E-01 0.91474927E+02</pdfrwt>
<totfact> 0.33811912E+04</totfact>
</mgrwt>
</event>
<event>
 5    1  0.6004828E+000  0.9174573E+02  0.7546771E-02  0.1298678E+00
          1   -1    0    0  501    0  0.00000000000E+00  0.00000000000E+00  0.24617228134E+03  0.24617228134E+03  0.00000000000E+00 0. -1.
         -1   -1    0    0    0  501 -0.00000000000E+00 -0.00000000000E+00 -0.85481582534E+01  0.85481582534E+01  0.00000000000E+00 0.  1.
         23    2    1    2    0    0  0.00000000000E+00  0.00000000000E+00  0.23762412309E+03  0.25472043959E+03  0.91745727279E+02 0.  0.
        -11    1    3    3    0    0  0.45754463334E+02  0.24690901741E+00  0.10969314644E+03  0.11885334768E+03  0.00000000000E+00 0.  1.
         11    1    3    3    0    0 -0.45754463334E+02 -0.24690901741E+00  0.12793097665E+03  0.13586709191E+03  0.00000000000E+00 0. -1.
<mgrwt>
<rscale>  0 0.91745727E+02</rscale>
<asrwt>0</asrwt>
<pdfrwt beam="1">  1        1 0.37872653E-01 0.91745727E+02</pdfrwt>
<pdfrwt beam="2">  1       -1 0.13151015E-02 0.91745727E+02</pdfrwt>
<totfact> 0.12126435E+05</totfact>
</mgrwt>
</event>
<event>
 5    1  0.6004828E+000  0.8990575E+02  0.7546771E-02  0.1303080E+00
         -1   -1    0    0    0  501 -0.00000000000E+00  0.00000000000E+00  0.11663770912E+03  0.11663770912E+03  0.00000000000E+00 0.  1.
          1   -1    0    0  501    0  0.00000000000E+00 -0.00000000000E+00 -0.17325108600E+02  0.17325108600E+02  0.00000000000E+00 0. -1.
         23    2    1    2    0    0  0.00000000000E+00  0.00000000000E+00  0.99312600520E+02  0.13396281772E+03  0.89905750148E+02 0.  0.
        -11    1    3    3    0    0  0.42883179653E+02 -0.10651500723E+02  0.37338520760E+02  0.57849690555E+02  0.00000000000E+00 0. -1.
         11    1    3    3    0    0 -0.42883179653E+02  0.10651500723E+02  0.61974079760E+02  0.76113127166E+02  0.00000000000E+00 0.  1.
<mgrwt>
<rscale>  0 0.89905750E+02</rscale>
<asrwt>0</asrwt>
<pdfrwt beam="2">  1        1 0.26654014E-02 0.89905750E+02</pdfrwt>
<pdfrwt beam="1">  1       -1 0.17944262E-01 0.89905750E+02</pdfrwt>
<totfact> 0.81899229E+04</totfact>
</mgrwt>
</event>
<event>
 5    1  0.6004828E+000  0.9086469E+02  0.7546771E-02  0.1300771E+00
         -2   -1    0    0    0  501 -0.00000000000E+00  0.00000000000E+00  0.15934155614E+03  0.15934155614E+03  0.00000000000E+00 0.  1.
          2   -1    0    0  501    0  0.00000000000E+00 -0.00000000000E+00 -0.12953920371E+02  0.12953920371E+02  0.00000000000E+00 0. -1.
         23    2    1    2    0    0  0.00000000000E+00  0.00000000000E+00  0.14638763577E+03  0.17229547651E+03  0.90864686868E+02 0.  0.
        -11    1    3    3    0    0 -0.14781104297E+02 -0.29050334001E+02  0.13320697416E+03  0.13713679635E+03  0.00000000000E+00 0.  1.
         11    1    3    3    0    0  0.14781104297E+02  0.29050334001E+02  0.13180661612E+02  0.35158680157E+02  0.00000000000E+00 0. -1.
<mgrwt>
<rscale>  0 0.90864687E+02</rscale>
<asrwt>0</asrwt>
<pdfrwt beam="2">  1        2 0.19929109E-02 0.90864687E+02</pdfrwt>
<pdfrwt beam="1">  1       -2 0.24514084E-01 0.90864687E+02</pdfrwt>
<totfact> 0.68907902E+04</totfact>
</mgrwt>
</event>
<event>
 5    1  0.6004828E+000  0.9404503E+02  0.7546771E-02  0.1293342E+00
         -4   -1    0    0    0  501 -0.00000000000E+00  0.00000000000E+00  0.54724075599E+02  0.54724075599E+02  0.00000000000E+00 0.  1.
          4   -1    0    0  501    0  0.00000000000E+00 -0.00000000000E+00 -0.40404826914E+02  0.40404826914E+02  0.00000000000E+00 0. -1.
         23    2    1    2    0    0  0.00000000000E+00  0.00000000000E+00  0.14319248685E+02  0.95128902514E+02  0.94045027570E+02 0.  0.
        -11    1    3    3    0    0  0.26208076796E+02  0.28727095294E+02  0.33903082770E+02  0.51590002081E+02  0.00000000000E+00 0. -1.
         11    1    3    3    0    0 -0.26208076796E+02 -0.28727095294E+02 -0.19583834085E+02  0.43538900433E+02  0.00000000000E+00 0.  1.
<mgrwt>
<rscale>  0 0.94045028E+02</rscale>
<asrwt>0</asrwt>
<pdfrwt beam="2">  1        4 0.62161272E-02 0.94045028E+02</pdfrwt>
<pdfrwt beam="1">  1       -4 0.84190885E-02 0.94045028E+02</pdfrwt>
<totfact> 0.24599133E+04</totfact>
</mgrwt>
</event>
<event>
 5    1  0.6004828E+000  0.8068201E+02  0.7546771E-02  0.1327127E+00
         -1   -1    0    0    0  501 -0.00000000000E+00  0.00000000000E+00  0.71948106103E+01  0.71948106103E+01  0.00000000000E+00 0.  1.
          1   -1    0    0  501    0  0.00000000000E+00 -0.00000000000E+00 -0.22619032463E+03  0.22619032463E+03  0.00000000000E+00 0. -1.
         23    2    1    2    0    0  0.00000000000E+00  0.00000000000E+00 -0.21899551402E+03  0.23338513524E+03  0.80682006608E+02 0.  0.
        -11    1    3    3    0    0 -0.30372230305E+02  0.26499281793E+02 -0.10473388125E+03  0.11222241394E+03  0.00000000000E+00 0.  1.
         11    1    3    3    0    0  0.30372230305E+02 -0.26499281793E+02 -0.11426163277E+03  0.12116272130E+03  0.00000000000E+00 0. -1.
<mgrwt>
<rscale>  0 0.80682007E+02</rscale>
<asrwt>0</asrwt>
<pdfrwt beam="2">  1        1 0.34798504E-01 0.80682007E+02</pdfrwt>
<pdfrwt beam="1">  1       -1 0.11068942E-02 0.80682007E+02</pdfrwt>
<totfact> 0.16784240E+05</totfact>
</mgrwt>
</event>
<event>
 5    1  0.6004828E+000  0.8915062E+02  0.7546771E-02  0.1304922E+00
         -1   -1    0    0    0  501 -0.00000000000E+00  0.00000000000E+00  0.21162190731E+03  0.21162190731E+03  0.00000000000E+00 0.  1.
          1   -1    0    0  501    0  0.00000000000E+00 -0.00000000000E+00 -0.93891893186E+01  0.93891893186E+01  0.00000000000E+00 0. -1.
         23    2    1    2    0    0  0.00000000000E+00  0.00000000000E+00  0.20223271799E+03  0.22101109662E+03  0.89150617534E+02 0.  0.
        -11    1    3    3    0    0 -0.30323734585E+02  0.24446914533E+02  0.15484871650E+03  0.15967249453E+03  0.00000000000E+00 0.  1.
         11    1    3    3    0    0  0.30323734585E+02 -0.24446914533E+02  0.47384001489E+02  0.61338602091E+02  0.00000000000E+00 0. -1.
<mgrwt>
<rscale>  0 0.89150618E+02</rscale>
<asrwt>0</asrwt>
<pdfrwt beam="2">  1        1 0.14444908E-02 0.89150618E+02</pdfrwt>
<pdfrwt beam="1">  1       -1 0.32557213E-01 0.89150618E+02</pdfrwt>
<totfact> 0.72403573E+04</totfact>
</mgrwt>
</event>
<event>
 5    1  0.6004828E+000  0.9128079E+02  0.7546771E-02  0.1299779E+00
          1   -1    0    0  501    0  0.00000000000E+00  0.00000000000E+00  0.24551672253E+02  0.24551672253E+02  0.00000000000E+00 0. -1.
         -1   -1    0    0    0  501 -0.00000000000E+00 -0.00000000000E+00 -0.84843323697E+02  0.84843323697E+02  0.00000000000E+00 0.  1.
         23    2    1    2    0    0  0.00000000000E+00  0.00000000000E+00 -0.60291651443E+02  0.10939499595E+03  0.91280786068E+02 0.  0.
        -11    1    3    3    0    0 -0.33683607524E+02 -0.83641792354E+01 -0.65667146695E+02  0.74274619253E+02  0.00000000000E+00 0.  1.
         11    1    3    3    0    0  0.33683607524E+02  0.83641792354E+01  0.53754952520E+01  0.35120376697E+02  0.00000000000E+00 0. -1.
<mgrwt>
<rscale>  0 0.91280786E+02</rscale>
<asrwt>0</asrwt>
<pdfrwt beam="1">  1        1 0.37771803E-02 0.91280786E+02</pdfrwt>
<pdfrwt beam="2">  1       -1 0.13052819E-01 0.91280786E+02</pdfrwt>
<totfact> 0.83559283E+04</totfact>
</mgrwt>
</event>
<event>
 5    1  0.6004828E+000  0.8598247E+02  0.7546771E-02  0.1312883E+00
         -1   -1    0    0    0  501 -0.00000000000E+00  0.00000000000E+00  0.11040293686E+03  0.11040293686E+03  0.00000000000E+00 0.  1.
          1   -1    0    0  501    0  0.00000000000E+00 -0.00000000000E+00 -0.16740914045E+02  0.16740914045E+02  0.00000000000E+00 0. -1.
         23    2    1    2    0    0  0.00000000000E+00  0.00000000000E+00  0.93662022815E+02  0.12714385090E+03  0.85982465103E+02 0.  0.
        -11    1    3    3    0    0  0.11040593568E+02  0.36523510534E+02  0.76122498272E+02  0.85149845985E+02  0.00000000000E+00 0.  1.
         11    1    3    3    0    0 -0.11040593568E+02 -0.36523510534E+02  0.17539524543E+02  0.41994004920E+02  0.00000000000E+00 0. -1.
<mgrwt>
<rscale>  0 0.85982465E+02</rscale>
<asrwt>0</asrwt>
<pdfrwt beam="2">  1        1 0.25755253E-02 0.85982465E+02</pdfrwt>
<pdfrwt beam="1">  1       -1 0.16985067E-01 0.85982465E+02</pdfrwt>
<totfact> 0.92873311E+04</totfact>
</mgrwt>
</event>
<event>
 5    1  0.6004828E+000  0.8861223E+02  0.7546771E-02  0.1306248E+00
         -1   -1    0    0    0  501 -0.00000000000E+00  0.00000000000E+00  0.87432951902E+02  0.87432951902E+02  0.00000000000E+00 0.  1.
          1   -1    0    0  501    0  0.00000000000E+00 -0.00000000000E+00 -0.22451855804E+02  0.22451855804E+02  0.00000000000E+00 0. -1.
         23    2    1    2    0    0  0.00000000000E+00  0.00000000000E+00  0.64981096097E+02  0.10988480771E+03  0.88612234565E+02 0.  0.
        -11    1    3    3    0    0 -0.29168098698E+02  0.30737527105E+02  0.48537683900E+02  0.64431982063E+02  0.00000000000E+00 0.  1.
         11    1    3    3    0    0  0.29168098698E+02 -0.30737527105E+02  0.16443412197E+02  0.45452825643E+02  0.00000000000E+00 0. -1.
<mgrwt>
<rscale>  0 0.88612235E+02</rscale>
<asrwt>0</asrwt>
<pdfrwt beam="2">  1        1 0.34541317E-02 0.88612235E+02</pdfrwt>
<pdfrwt beam="1">  1       -1 0.13451223E-01 0.88612235E+02</pdfrwt>
<totfact> 0.89690988E+04</totfact>
</mgrwt>
</event>
<event>
 5    1  0.6004828E+000  0.8898632E+02  0.7546771E-02  0.1305325E+00
         -2   -1    0    0    0  501 -0.00000000000E+00  0.00000000000E+00  0.18376745645E+02  0.18376745645E+02  0.00000000000E+00 0.  1.
          2   -1    0    0  501    0  0.00000000000E+00 -0.00000000000E+00 -0.10772534558E+03  0.10772534558E+03  0.00000000000E+00 0. -1.
         23    2    1    2    0    0  0.00000000000E+00  0.00000000000E+00 -0.89348599934E+02  0.12610209122E+03  0.88986319742E+02 0.  0.
        -11    1    3    3    0    0 -0.43723303272E+02 -0.75893964011E+01 -0.40122999348E+02  0.59826258979E+02  0.00000000000E+00 0.  1.
         11    1    3    3    0    0  0.43723303272E+02  0.75893964011E+01 -0.49225600586E+02  0.66275832245E+02  0.00000000000E+00 0. -1.
<mgrwt>
<rscale>  0 0.88986320E+02</rscale>
<asrwt>0</asrwt>
<pdfrwt beam="2">  1        2 0.16573130E-01 0.88986320E+02</pdfrwt>
<pdfrwt beam="1">  1       -2 0.28271916E-02 0.88986320E+02</pdfrwt>
<totfact> 0.13415927E+05</totfact>
</mgrwt>
</event>
<event>
 5    1  0.6004828E+000  0.9148778E+02  0.7546771E-02  0.1299288E+00
          3   -1    0    0  501    0  0.00000000000E+00  0.00000000000E+00  0.10859695038E+02  0.10859695038E+02  0.00000000000E+00 0. -1.
         -3   -1    0    0    0  501 -0.00000000000E+00 -0.00000000000E+00 -0.19268530241E+03  0.19268530241E+03  0.00000000000E+00 0.  1.
         23    2    1    2    0    0  0.00000000000E+00  0.00000000000E+00 -0.18182560737E+03  0.20354499745E+03  0.91487783281E+02 0.  0.
        -11    1    3    3    0    0 -0.40468463297E+02  0.74208355510E+01 -0.13539489621E+03  0.14150810310E+03  0.00000000000E+00 0.  1.
         11    1    3    3    0    0  0.40468463297E+02 -0.74208355510E+01 -0.46430711164E+02  0.62036894354E+02  0.00000000000E+00 0. -1.
<mgrwt>
<rscale>  0 0.91487783E+02</rscale>
<asrwt>0</asrwt>
<pdfrwt beam="1">  1        3 0.16707224E-02 0.91487783E+02</pdfrwt>
<pdfrwt beam="2">  1       -3 0.29643891E-01 0.91487783E+02</pdfrwt>
<totfact> 0.28055585E+04</totfact>
</mgrwt>
</event>
<event>
 5    1  0.6004828E+000  0.9030746E+02  0.7546771E-02  0.1302109E+00
         -2   -1    0    0    0  501 -0.00000000000E+00  0.00000000000E+00  0.55730345891E+02  0.55730345891E+02  0.00000000000E+00 0. -1.
          2   -1    0    0  501    0  0.00000000000E+00 -0.00000000000E+00 -0.36584364890E+02  0.36584364890E+02  0.00000000000E+00 0.  1.
         23    2    1    2    0    0  0.00000000000E+00  0.00000000000E+00  0.19145981001E+02  0.92314710780E+02  0.90307459481E+02 0.  0.
        -11    1    3    3    0    0 -0.27725976325E+02  0.35005719852E+02  0.27363540732E+01  0.44739443661E+02  0.00000000000E+00 0.  1.
         11    1    3    3    0    0  0.27725976325E+02 -0.35005719852E+02  0.16409626928E+02  0.47575267119E+02  0.00000000000E+00 0. -1.
<mgrwt>
<rscale>  0 0.90307459E+02</rscale>
<asrwt>0</asrwt>
<pdfrwt beam="2">  1        2 0.56283638E-02 0.90307459E+02</pdfrwt>
<pdfrwt beam="1">  1       -2 0.85738994E-02 0.90307459E+02</pdfrwt>
<totfact> 0.95843339E+04</totfact>
</mgrwt>
</event>
<event>
 5    1  0.6004828E+000  0.9162332E+02  0.7546771E-02  0.1298968E+00
          1   -1    0    0  501    0  0.00000000000E+00  0.00000000000E+00  0.18959857566E+03  0.18959857566E+03  0.00000000000E+00 0. -1.
         -1   -1    0    0    0  501 -0.00000000000E+00 -0.00000000000E+00 -0.11069218001E+02  0.11069218001E+02  0.00000000000E+00 0.  1.
         23    2    1    2    0    0  0.00000000000E+00  0.00000000000E+00  0.17852935766E+03  0.20066779367E+03  0.91623315085E+02 0.  0.
        -11    1    3    3    0    0  0.35622706724E+02  0.68118312549E+01  0.15056234894E+03  0.15486897429E+03  0.00000000000E+00 0. -1.
         11    1    3    3    0    0 -0.35622706724E+02 -0.68118312549E+01  0.27967008726E+02  0.45798819378E+02  0.00000000000E+00 0.  1.
<mgrwt>
<rscale>  0 0.91623315E+02</rscale>
<asrwt>0</asrwt>
<pdfrwt beam="1">  1        1 0.29169009E-01 0.91623315E+02</pdfrwt>
<pdfrwt beam="2">  1       -1 0.17029568E-02 0.91623315E+02</pdfrwt>
<totfact> 0.11566113E+05</totfact>
</mgrwt>
</event>
<event>
 5    1  0.6004828E+000  0.9196376E+02  0.7546771E-02  0.1298165E+00
          4   -1    0    0  501    0  0.00000000000E+00  0.00000000000E+00  0.41312354281E+03  0.41312354281E+03  0.00000000000E+00 0. -1.
         -4   -1    0    0    0  501 -0.00000000000E+00 -0.00000000000E+00 -0.51179197699E+01  0.51179197699E+01  0.00000000000E+00 0.  1.
         23    2    1    2    0    0  0.00000000000E+00  0.00000000000E+00  0.40800562304E+03  0.41824146258E+03  0.91963756929E+02 0.  0.
        -11    1    3    3    0    0  0.31388600753E+02 -0.32804590732E+02  0.23709564837E+03  0.24140367004E+03  0.00000000000E+00 0.  1.
         11    1    3    3    0    0 -0.31388600753E+02  0.32804590732E+02  0.17090997466E+03  0.17683779254E+03  0.00000000000E+00 0. -1.
<mgrwt>
<rscale>  0 0.91963757E+02</rscale>
<asrwt>0</asrwt>
<pdfrwt beam="1">  1        4 0.63557442E-01 0.91963757E+02</pdfrwt>
<pdfrwt beam="2">  1       -4 0.78737260E-03 0.91963757E+02</pdfrwt>
<totfact> 0.14401334E+04</totfact>
</mgrwt>
</event>
<event>
 5    1  0.6004828E+000  0.9240000E+02  0.7546771E-02  0.1297142E+00
          1   -1    0    0  501    0  0.00000000000E+00  0.00000000000E+00  0.22360952690E+03  0.22360952690E+03  0.00000000000E+00 0. -1.
         -1   -1    0    0    0  501 -0.00000000000E+00 -0.00000000000E+00 -0.95453885882E+01  0.95453885882E+01  0.00000000000E+00 0.  1.
         23    2    1    2    0    0  0.00000000000E+00  0.00000000000E+00  0.21406413831E+03  0.23315491548E+03  0.92399996239E+02 0.  0.
        -11    1    3    3    0    0  0.40357618479E+02  0.11452273100E+02  0.58197618764E+02  0.71741583187E+02  0.00000000000E+00 0.  1.
         11    1    3    3    0    0 -0.40357618479E+02 -0.11452273100E+02  0.15586651954E+03  0.16141333230E+03  0.00000000000E+00 0. -1.
<mgrwt>
<rscale>  0 0.92399996E+02</rscale>
<asrwt>0</asrwt>
<pdfrwt beam="1">  1        1 0.34401461E-01 0.92399996E+02</pdfrwt>
<pdfrwt beam="2">  1       -1 0.14685215E-02 0.92399996E+02</pdfrwt>
<totfact> 0.11676099E+05</totfact>
</mgrwt>
</event>
<event>
 5    1  0.6004828E+000  0.8495277E+02  0.7546771E-02  0.1315556E+00
          1   -1    0    0  501    0  0.00000000000E+00  0.00000000000E+00  0.46163467614E+02  0.46163467614E+02  0.00000000000E+00 0. -1.
         -1   -1    0    0    0  501 -0.00000000000E+00 -0.00000000000E+00 -0.39083786008E+02  0.39083786008E+02  0.00000000000E+00 0.  1.
         23    2    1    2    0    0  0.00000000000E+00  0.00000000000E+00  0.70796816057E+01  0.85247253622E+02  0.84952765455E+02 0.  0.
        -11    1    3    3    0    0 -0.11362995729E+02 -0.37338728862E+01 -0.37359065483E+02  0.39227021968E+02  0.00000000000E+00 0.  1.
         11    1    3    3    0    0  0.11362995729E+02  0.37338728862E+01  0.44438747089E+02  0.46020231654E+02  0.00000000000E+00 0. -1.
<mgrwt>
<rscale>  0 0.84952765E+02</rscale>
<asrwt>0</asrwt>
<pdfrwt beam="1">  1        1 0.71020719E-02 0.84952765E+02</pdfrwt>
<pdfrwt beam="2">  1       -1 0.60128902E-02 0.84952765E+02</pdfrwt>
<totfact> 0.11282682E+05</totfact>
</mgrwt>
</event>
<event>
 5    1  0.6004828E+000  0.9082611E+02  0.7546771E-02  0.1300863E+00
          1   -1    0    0  501    0  0.00000000000E+00  0.00000000000E+00  0.33755552686E+03  0.33755552686E+03  0.00000000000E+00 0. -1.
         -1   -1    0    0    0  501 -0.00000000000E+00 -0.00000000000E+00 -0.61096479225E+01  0.61096479225E+01  0.00000000000E+00 0.  1.
         23    2    1    2    0    0  0.00000000000E+00  0.00000000000E+00  0.33144587894E+03  0.34366517478E+03  0.90826106895E+02 0.  0.
        -11    1    3    3    0    0  0.99091694799E+01 -0.43941033396E+02  0.14387535106E+03  0.15076180783E+03  0.00000000000E+00 0.  1.
         11    1    3    3    0    0 -0.99091694799E+01  0.43941033396E+02  0.18757052788E+03  0.19290336696E+03  0.00000000000E+00 0. -1.
<mgrwt>
<rscale>  0 0.90826107E+02</rscale>
<asrwt>0</asrwt>
<pdfrwt beam="1">  1        1 0.51931605E-01 0.90826107E+02</pdfrwt>
<pdfrwt beam="2">  1       -1 0.93994609E-03 0.90826107E+02</pdfrwt>
<totfact> 0.13232407E+05</totfact>
</mgrwt>
</event>
<event>
 5    1  0.6004828E+000  0.8989028E+02  0.7546771E-02  0.1303118E+00
         -1   -1    0    0    0  501 -0.00000000000E+00  0.00000000000E+00  0.60159568053E+02  0.60159568053E+02  0.00000000000E+00 0.  1.
          1   -1    0    0  501    0  0.00000000000E+00 -0.00000000000E+00 -0.33578462833E+02  0.33578462833E+02  0.00000000000E+00 0. -1.
         23    2    1    2    0    0  0.00000000000E+00  0.00000000000E+00  0.26581105220E+02  0.93738030886E+02  0.89890284679E+02 0.  0.
        -11    1    3    3    0    0  0.23271294795E+02  0.38383407911E+02  0.15674600712E+02  0.47545055177E+02  0.00000000000E+00 0.  1.
         11    1    3    3    0    0 -0.23271294795E+02 -0.38383407911E+02  0.10906504508E+02  0.46192975709E+02  0.00000000000E+00 0. -1.
<mgrwt>
<rscale>  0 0.89890285E+02</rscale>
<asrwt>0</asrwt>
<pdfrwt beam="2">  1        1 0.51659174E-02 0.89890285E+02</pdfrwt>
<pdfrwt beam="1">  1       -1 0.92553182E-02 0.89890285E+02</pdfrwt>
<totfact> 0.91893314E+04</totfact>
</mgrwt>
</event>
<event>
 5    1  0.6004828E+000  0.9087594E+02  0.7546771E-02  0.1300744E+00
         -4   -1    0    0    0  501 -0.00000000000E+00  0.00000000000E+00  0.12624138159E+03  0.12624138159E+03  0.00000000000E+00 0.  1.
          4   -1    0    0  501    0  0.00000000000E+00 -0.00000000000E+00 -0.16354456460E+02  0.16354456460E+02  0.00000000000E+00 0. -1.
         23    2    1    2    0    0  0.00000000000E+00  0.00000000000E+00  0.10988692513E+03  0.14259583805E+03  0.90875941343E+02 0.  0.
        -11    1    3    3    0    0 -0.13967266999E+01 -0.43321439198E+02  0.76338386665E+02  0.87785233486E+02  0.00000000000E+00 0.  1.
         11    1    3    3    0    0  0.13967266999E+01  0.43321439198E+02  0.33548538468E+02  0.54810604567E+02  0.00000000000E+00 0. -1.
<mgrwt>
<rscale>  0 0.90875941E+02</rscale>
<asrwt>0</asrwt>
<pdfrwt beam="2">  1        4 0.25160703E-02 0.90875941E+02</pdfrwt>
<pdfrwt beam="1">  1       -4 0.19421750E-01 0.90875941E+02</pdfrwt>
<totfact> 0.24265316E+04</totfact>
</mgrwt>
</event>
<event>
 5    1  0.6004828E+000  0.9295916E+02  0.7546771E-02  0.1295840E+00
          3   -1    0    0  501    0  0.00000000000E+00  0.00000000000E+00  0.19223773384E+03  0.19223773384E+03  0.00000000000E+00 0. -1.
         -3   -1    0    0    0  501 -0.00000000000E+00 -0.00000000000E+00 -0.11237914166E+02  0.11237914166E+02  0.00000000000E+00 0.  1.
         23    2    1    2    0    0  0.00000000000E+00  0.00000000000E+00  0.18099981967E+03  0.20347564800E+03  0.92959155596E+02 0.  0.
        -11    1    3    3    0    0 -0.37395898577E+02 -0.24888118112E+02  0.64372493881E+02  0.78496430633E+02  0.00000000000E+00 0.  1.
         11    1    3    3    0    0  0.37395898577E+02  0.24888118112E+02  0.11662732579E+03  0.12497921737E+03  0.00000000000E+00 0. -1.
<mgrwt>
<rscale>  0 0.92959156E+02</rscale>
<asrwt>0</asrwt>
<pdfrwt beam="1">  1        3 0.29575034E-01 0.92959156E+02</pdfrwt>
<pdfrwt beam="2">  1       -3 0.17289100E-02 0.92959156E+02</pdfrwt>
<totfact> 0.26875401E+04</totfact>
</mgrwt>
</event>
<event>
 5    1  0.6004828E+000  0.9632708E+02  0.7546771E-02  0.1288215E+00
          2   -1    0    0  501    0  0.00000000000E+00  0.00000000000E+00  0.45335630760E+02  0.45335630760E+02  0.00000000000E+00 0.  1.
         -2   -1    0    0    0  501 -0.00000000000E+00 -0.00000000000E+00 -0.51167848422E+02  0.51167848422E+02  0.00000000000E+00 0. -1.
         23    2    1    2    0    0  0.00000000000E+00  0.00000000000E+00 -0.58322176619E+01  0.96503479182E+02  0.96327082025E+02 0.  0.
        -11    1    3    3    0    0  0.12143965318E+02  0.25111932710E+02  0.36419536569E+02  0.45874477675E+02  0.00000000000E+00 0.  1.
         11    1    3    3    0    0 -0.12143965318E+02 -0.25111932710E+02 -0.42251754231E+02  0.50629001507E+02  0.00000000000E+00 0. -1.
<mgrwt>
<rscale>  0 0.96327082E+02</rscale>
<asrwt>0</asrwt>
<pdfrwt beam="1">  1        2 0.69747124E-02 0.96327082E+02</pdfrwt>
<pdfrwt beam="2">  1       -2 0.78719767E-02 0.96327082E+02</pdfrwt>
<totfact> 0.84066306E+04</totfact>
</mgrwt>
</event>
<event>
 5    1  0.6004828E+000  0.9122265E+02  0.7546771E-02  0.1299918E+00
          2   -1    0    0  501    0  0.00000000000E+00  0.00000000000E+00  0.10650303951E+03  0.10650303951E+03  0.00000000000E+00 0.  1.
         -2   -1    0    0    0  501 -0.00000000000E+00 -0.00000000000E+00 -0.19533647659E+02  0.19533647659E+02  0.00000000000E+00 0. -1.
         23    2    1    2    0    0  0.00000000000E+00  0.00000000000E+00  0.86969391852E+02  0.12603668717E+03  0.91222647374E+02 0.  0.
        -11    1    3    3    0    0 -0.18439088953E+02 -0.32271411733E+02  0.80011947799E+02  0.88223329155E+02  0.00000000000E+00 0.  1.
         11    1    3    3    0    0  0.18439088953E+02  0.32271411733E+02  0.69574440536E+01  0.37813358016E+02  0.00000000000E+00 0. -1.
<mgrwt>
<rscale>  0 0.91222647E+02</rscale>
<asrwt>0</asrwt>
<pdfrwt beam="1">  1        2 0.16385083E-01 0.91222647E+02</pdfrwt>
<pdfrwt beam="2">  1       -2 0.30051766E-02 0.91222647E+02</pdfrwt>
<totfact> 0.12490116E+05</totfact>
</mgrwt>
</event>
<event>
 5    1  0.6004828E+000  0.9156502E+02  0.7546771E-02  0.1299105E+00
          1   -1    0    0  501    0  0.00000000000E+00  0.00000000000E+00  0.34613624761E+02  0.34613624761E+02  0.00000000000E+00 0. -1.
         -1   -1    0    0    0  501 -0.00000000000E+00 -0.00000000000E+00 -0.60555292970E+02  0.60555292970E+02  0.00000000000E+00 0.  1.
         23    2    1    2    0    0  0.00000000000E+00  0.00000000000E+00 -0.25941668210E+02  0.95168917731E+02  0.91565019263E+02 0.  0.
        -11    1    3    3    0    0  0.11679322233E+02  0.19949104969E+02  0.28102452386E+02  0.36388476019E+02  0.00000000000E+00 0. -1.
         11    1    3    3    0    0 -0.11679322233E+02 -0.19949104969E+02 -0.54044120596E+02  0.58780441712E+02  0.00000000000E+00 0.  1.
<mgrwt>
<rscale>  0 0.91565019E+02</rscale>
<asrwt>0</asrwt>
<pdfrwt beam="1">  1        1 0.53251731E-02 0.91565019E+02</pdfrwt>
<pdfrwt beam="2">  1       -1 0.93161989E-02 0.91565019E+02</pdfrwt>
<totfact> 0.87603188E+04</totfact>
</mgrwt>
</event>
<event>
 5    1  0.6004828E+000  0.8976019E+02  0.7546771E-02  0.1303433E+00
         -1   -1    0    0    0  501 -0.00000000000E+00  0.00000000000E+00  0.43222913622E+02  0.43222913622E+02  0.00000000000E+00 0.  1.
          1   -1    0    0  501    0  0.00000000000E+00 -0.00000000000E+00 -0.46600813298E+02  0.46600813298E+02  0.00000000000E+00 0. -1.
         23    2    1    2    0    0  0.00000000000E+00  0.00000000000E+00 -0.33778996762E+01  0.89823726920E+02  0.89760190015E+02 0.  0.
        -11    1    3    3    0    0  0.23596889622E+02 -0.13057684493E+02  0.34209923774E+02  0.43561854974E+02  0.00000000000E+00 0.  1.
         11    1    3    3    0    0 -0.23596889622E+02  0.13057684493E+02 -0.37587823451E+02  0.46261871946E+02  0.00000000000E+00 0. -1.
<mgrwt>
<rscale>  0 0.89760190E+02</rscale>
<asrwt>0</asrwt>
<pdfrwt beam="2">  1        1 0.71693559E-02 0.89760190E+02</pdfrwt>
<pdfrwt beam="1">  1       -1 0.66496790E-02 0.89760190E+02</pdfrwt>
<totfact> 0.96933881E+04</totfact>
</mgrwt>
</event>
<event>
 5    1  0.6004828E+000  0.9615065E+02  0.7546771E-02  0.1288605E+00
          1   -1    0    0  501    0  0.00000000000E+00  0.00000000000E+00  0.25642185730E+03  0.25642185730E+03  0.00000000000E+00 0. -1.
         -1   -1    0    0    0  501 -0.00000000000E+00 -0.00000000000E+00 -0.90134151349E+01  0.90134151349E+01  0.00000000000E+00 0.  1.
         23    2    1    2    0    0  0.00000000000E+00  0.00000000000E+00  0.24740844217E+03  0.26543527244E+03  0.96150645333E+02 0.  0.
        -11    1    3    3    0    0 -0.18477075562E+01 -0.48018891592E+02  0.12761678489E+03  0.13636448130E+03  0.00000000000E+00 0.  1.
         11    1    3    3    0    0  0.18477075562E+01  0.48018891592E+02  0.11979165727E+03  0.12907079114E+03  0.00000000000E+00 0. -1.
<mgrwt>
<rscale>  0 0.96150645E+02</rscale>
<asrwt>0</asrwt>
<pdfrwt beam="1">  1        1 0.39449511E-01 0.96150645E+02</pdfrwt>
<pdfrwt beam="2">  1       -1 0.13866794E-02 0.96150645E+02</pdfrwt>
<totfact> 0.10779463E+05</totfact>
</mgrwt>
</event>
<event>
 5    1  0.6004828E+000  0.9234153E+02  0.7546771E-02  0.1297278E+00
         -1   -1    0    0    0  501 -0.00000000000E+00  0.00000000000E+00  0.17309647930E+02  0.17309647930E+02  0.00000000000E+00 0. -1.
          1   -1    0    0  501    0  0.00000000000E+00 -0.00000000000E+00 -0.12315325263E+03  0.12315325263E+03  0.00000000000E+00 0.  1.
         23    2    1    2    0    0  0.00000000000E+00  0.00000000000E+00 -0.10584360470E+03  0.14046290056E+03  0.92341527918E+02 0.  0.
        -11    1    3    3    0    0 -0.38138753322E+02  0.16306762345E+02 -0.83769670557E+02  0.93476375135E+02  0.00000000000E+00 0.  1.
         11    1    3    3    0    0  0.38138753322E+02 -0.16306762345E+02 -0.22073934145E+02  0.46986525428E+02  0.00000000000E+00 0. -1.
<mgrwt>
<rscale>  0 0.92341528E+02</rscale>
<asrwt>0</asrwt>
<pdfrwt beam="2">  1        1 0.18946655E-01 0.92341528E+02</pdfrwt>
<pdfrwt beam="1">  1       -1 0.26630226E-02 0.92341528E+02</pdfrwt>
<totfact> 0.10456170E+05</totfact>
</mgrwt>
</event>
<event>
 5    1  0.6004828E+000  0.9252684E+02  0.7546771E-02  0.1296845E+00
         -2   -1    0    0    0  501 -0.00000000000E+00  0.00000000000E+00  0.14556122387E+03  0.14556122387E+03  0.00000000000E+00 0.  1.
          2   -1    0    0  501    0  0.00000000000E+00 -0.00000000000E+00 -0.14703807621E+02  0.14703807621E+02  0.00000000000E+00 0. -1.
         23    2    1    2    0    0  0.00000000000E+00  0.00000000000E+00  0.13085741625E+03  0.16026503149E+03  0.92526844383E+02 0.  0.
        -11    1    3    3    0    0  0.50852238942E+01  0.24357665878E+02  0.13298361166E+03  0.13529152360E+03  0.00000000000E+00 0.  1.
         11    1    3    3    0    0 -0.50852238942E+01 -0.24357665878E+02 -0.21261954141E+01  0.24973507884E+02  0.00000000000E+00 0. -1.
<mgrwt>
<rscale>  0 0.92526844E+02</rscale>
<asrwt>0</asrwt>
<pdfrwt beam="2">  1        2 0.22621243E-02 0.92526844E+02</pdfrwt>
<pdfrwt beam="1">  1       -2 0.22394033E-01 0.92526844E+02</pdfrwt>
<totfact> 0.68039060E+04</totfact>
</mgrwt>
</event>
<event>
 5    1  0.6004828E+000  0.9366297E+02  0.7546771E-02  0.1294216E+00
         -3   -1    0    0    0  501 -0.00000000000E+00  0.00000000000E+00  0.20575613201E+03  0.20575613201E+03  0.00000000000E+00 0.  1.
          3   -1    0    0  501    0  0.00000000000E+00 -0.00000000000E+00 -0.10659161843E+02  0.10659161843E+02  0.00000000000E+00 0. -1.
         23    2    1    2    0    0  0.00000000000E+00  0.00000000000E+00  0.19509697017E+03  0.21641529386E+03  0.93662968376E+02 0.  0.
        -11    1    3    3    0    0  0.15430784080E+02 -0.30201461668E+02  0.22929062298E+02  0.40938725946E+02  0.00000000000E+00 0. -1.
         11    1    3    3    0    0 -0.15430784080E+02  0.30201461668E+02  0.17216790787E+03  0.17547656791E+03  0.00000000000E+00 0.  1.
<mgrwt>
<rscale>  0 0.93662968E+02</rscale>
<asrwt>0</asrwt>
<pdfrwt beam="2">  1        3 0.16398712E-02 0.93662968E+02</pdfrwt>
<pdfrwt beam="1">  1       -3 0.31654786E-01 0.93662968E+02</pdfrwt>
<totfact> 0.25728634E+04</totfact>
</mgrwt>
</event>
<event>
 5    1  0.6004828E+000  0.8961637E+02  0.7546771E-02  0.1303783E+00
         -2   -1    0    0    0  501 -0.00000000000E+00  0.00000000000E+00  0.76084294431E+01  0.76084294431E+01  0.00000000000E+00 0. -1.
          2   -1    0    0  501    0  0.00000000000E+00 -0.00000000000E+00 -0.26388800990E+03  0.26388800990E+03  0.00000000000E+00 0.  1.
         23    2    1    2    0    0  0.00000000000E+00  0.00000000000E+00 -0.25627958046E+03  0.27149643935E+03  0.89616366903E+02 0.  0.
        -11    1    3    3    0    0  0.24963078027E+02 -0.32391239356E+02 -0.18362470734E+03  0.18812331274E+03  0.00000000000E+00 0.  1.
         11    1    3    3    0    0 -0.24963078027E+02  0.32391239356E+02 -0.72654873122E+02  0.83373126605E+02  0.00000000000E+00 0. -1.
<mgrwt>
<rscale>  0 0.89616367E+02</rscale>
<asrwt>0</asrwt>
<pdfrwt beam="2">  1        2 0.40598150E-01 0.89616367E+02</pdfrwt>
<pdfrwt beam="1">  1       -2 0.11705277E-02 0.89616367E+02</pdfrwt>
<totfact> 0.17934869E+05</totfact>
</mgrwt>
</event>
<event>
 5    1  0.6004828E+000  0.9278244E+02  0.7546771E-02  0.1296250E+00
          2   -1    0    0  501    0  0.00000000000E+00  0.00000000000E+00  0.75214733741E+01  0.75214733741E+01  0.00000000000E+00 0. -1.
         -2   -1    0    0    0  501 -0.00000000000E+00 -0.00000000000E+00 -0.28613348475E+03  0.28613348475E+03  0.00000000000E+00 0.  1.
         23    2    1    2    0    0  0.00000000000E+00  0.00000000000E+00 -0.27861201138E+03  0.29365495813E+03  0.92782442024E+02 0.  0.
        -11    1    3    3    0    0 -0.26701186470E+02  0.37904178010E+02 -0.14427545158E+03  0.15154235711E+03  0.00000000000E+00 0. -1.
         11    1    3    3    0    0  0.26701186470E+02 -0.37904178010E+02 -0.13433655980E+03  0.14211260102E+03  0.00000000000E+00 0.  1.
<mgrwt>
<rscale>  0 0.92782442E+02</rscale>
<asrwt>0</asrwt>
<pdfrwt beam="1">  1        2 0.11571495E-02 0.92782442E+02</pdfrwt>
<pdfrwt beam="2">  1       -2 0.44020545E-01 0.92782442E+02</pdfrwt>
<totfact> 0.50053267E+04</totfact>
</mgrwt>
</event>
<event>
 5    1  0.6004828E+000  0.9057217E+02  0.7546771E-02  0.1301472E+00
          1   -1    0    0  501    0  0.00000000000E+00  0.00000000000E+00  0.85480900386E+02  0.85480900386E+02  0.00000000000E+00 0. -1.
         -1   -1    0    0    0  501 -0.00000000000E+00 -0.00000000000E+00 -0.23991669519E+02  0.23991669519E+02  0.00000000000E+00 0.  1.
         23    2    1    2    0    0  0.00000000000E+00  0.00000000000E+00  0.61489230867E+02  0.10947256991E+03  0.90572170390E+02 0.  0.
        -11    1    3    3    0    0 -0.35301191990E+02 -0.25099745557E+02  0.14770936877E+02  0.45764090280E+02  0.00000000000E+00 0.  1.
         11    1    3    3    0    0  0.35301191990E+02  0.25099745557E+02  0.46718293990E+02  0.63708479626E+02  0.00000000000E+00 0. -1.
<mgrwt>
<rscale>  0 0.90572170E+02</rscale>
<asrwt>0</asrwt>
<pdfrwt beam="1">  1        1 0.13150908E-01 0.90572170E+02</pdfrwt>
<pdfrwt beam="2">  1       -1 0.36910261E-02 0.90572170E+02</pdfrwt>
<totfact> 0.10368189E+05</totfact>
</mgrwt>
</event>
<event>
 5    1  0.6004828E+000  0.9236142E+02  0.7546771E-02  0.1297232E+00
         -2   -1    0    0    0  501 -0.00000000000E+00  0.00000000000E+00  0.13613747737E+02  0.13613747737E+02  0.00000000000E+00 0.  1.
          2   -1    0    0  501    0  0.00000000000E+00 -0.00000000000E+00 -0.15665474358E+03  0.15665474358E+03  0.00000000000E+00 0. -1.
         23    2    1    2    0    0  0.00000000000E+00  0.00000000000E+00 -0.14304099584E+03  0.17026849132E+03  0.92361424003E+02 0.  0.
        -11    1    3    3    0    0  0.43716427584E+02 -0.33609625001E+01 -0.98250393566E+02  0.10758978551E+03  0.00000000000E+00 0.  1.
         11    1    3    3    0    0 -0.43716427584E+02  0.33609625001E+01 -0.44790602275E+02  0.62678705808E+02  0.00000000000E+00 0. -1.
<mgrwt>
<rscale>  0 0.92361424E+02</rscale>
<asrwt>0</asrwt>
<pdfrwt beam="2">  1        2 0.24100729E-01 0.92361424E+02</pdfrwt>
<pdfrwt beam="1">  1       -2 0.20944228E-02 0.92361424E+02</pdfrwt>
<totfact> 0.13701283E+05</totfact>
</mgrwt>
</event>
<event>
 5    1  0.6004828E+000  0.9001063E+02  0.7546771E-02  0.1302826E+00
          1   -1    0    0  501    0  0.00000000000E+00  0.00000000000E+00  0.24280033099E+02  0.24280033099E+02  0.00000000000E+00 0. -1.
         -1   -1    0    0    0  501 -0.00000000000E+00 -0.00000000000E+00 -0.83421559569E+02  0.83421559569E+02  0.00000000000E+00 0.  1.
         23    2    1    2    0    0  0.00000000000E+00  0.00000000000E+00 -0.59141526470E+02  0.10770159267E+03  0.90010626650E+02 0.  0.
        -11    1    3    3    0    0 -0.44002273025E+02  0.43614557395E+01 -0.19541483584E+02  0.48343478445E+02  0.00000000000E+00 0. -1.
         11    1    3    3    0    0  0.44002273025E+02 -0.43614557395E+01 -0.39600042886E+02  0.59358114223E+02  0.00000000000E+00 0.  1.
<mgrwt>
<rscale>  0 0.90010627E+02</rscale>
<asrwt>0</asrwt>
<pdfrwt beam="1">  1        1 0.37353898E-02 0.90010627E+02</pdfrwt>
<pdfrwt beam="2">  1       -1 0.12834086E-01 0.90010627E+02</pdfrwt>
<totfact> 0.86865182E+04</totfact>
</mgrwt>
</event>
<event>
 5    1  0.6004828E+000  0.9169367E+02  0.7546771E-02  0.1298801E+00
         -2   -1    0    0    0  501 -0.00000000000E+00  0.00000000000E+00  0.46077206869E+01  0.46077206869E+01  0.00000000000E+00 0.  1.
          2   -1    0    0  501    0  0.00000000000E+00 -0.00000000000E+00 -0.45617618138E+03  0.45617618138E+03  0.00000000000E+00 0. -1.
         23    2    1    2    0    0  0.00000000000E+00  0.00000000000E+00 -0.45156846069E+03  0.46078390207E+03  0.91693673235E+02 0.  0.
        -11    1    3    3    0    0  0.31585913454E+02  0.32978672010E+02 -0.20526685944E+03  0.21028491700E+03  0.00000000000E+00 0.  1.
         11    1    3    3    0    0 -0.31585913454E+02 -0.32978672010E+02 -0.24630160126E+03  0.25049898506E+03  0.00000000000E+00 0. -1.
<mgrwt>
<rscale>  0 0.91693673E+02</rscale>
<asrwt>0</asrwt>
<pdfrwt beam="2">  1        2 0.70180972E-01 0.91693673E+02</pdfrwt>
<pdfrwt beam="1">  1       -2 0.70887989E-03 0.91693673E+02</pdfrwt>
<totfact> 0.20590180E+05</totfact>
</mgrwt>
</event>
<event>
 5    1  0.6004828E+000  0.8943738E+02  0.7546771E-02  0.1304220E+00
          2   -1    0    0  501    0  0.00000000000E+00  0.00000000000E+00  0.14316791914E+03  0.14316791914E+03  0.00000000000E+00 0. -1.
         -2   -1    0    0    0  501 -0.00000000000E+00 -0.00000000000E+00 -0.13967941766E+02  0.13967941766E+02  0.00000000000E+00 0.  1.
         23    2    1    2    0    0  0.00000000000E+00  0.00000000000E+00  0.12919997737E+03  0.15713586091E+03  0.89437378255E+02 0.  0.
        -11    1    3    3    0    0 -0.14157162807E+02  0.28951462850E+02  0.11906925684E+03  0.12335355846E+03  0.00000000000E+00 0. -1.
         11    1    3    3    0    0  0.14157162807E+02 -0.28951462850E+02  0.10130720529E+02  0.33782302443E+02  0.00000000000E+00 0.  1.
<mgrwt>
<rscale>  0 0.89437378E+02</rscale>
<asrwt>0</asrwt>
<pdfrwt beam="1">  1        2 0.22025833E-01 0.89437378E+02</pdfrwt>
<pdfrwt beam="2">  1       -2 0.21489142E-02 0.89437378E+02</pdfrwt>
<totfact> 0.14500477E+05</totfact>
</mgrwt>
</event>
<event>
 5    1  0.6004828E+000  0.9151834E+02  0.7546771E-02  0.1299216E+00
          2   -1    0    0  501    0  0.00000000000E+00  0.00000000000E+00  0.19833673003E+02  0.19833673003E+02  0.00000000000E+00 0. -1.
         -2   -1    0    0    0  501 -0.00000000000E+00 -0.00000000000E+00 -0.10557305336E+03  0.10557305336E+03  0.00000000000E+00 0.  1.
         23    2    1    2    0    0  0.00000000000E+00  0.00000000000E+00 -0.85739380354E+02  0.12540672636E+03  0.91518335173E+02 0.  0.
        -11    1    3    3    0    0  0.32920191278E+02  0.13707550198E+02 -0.35763677221E+01  0.35838894127E+02  0.00000000000E+00 0. -1.
         11    1    3    3    0    0 -0.32920191278E+02 -0.13707550198E+02 -0.82163012632E+02  0.89567832233E+02  0.00000000000E+00 0.  1.
<mgrwt>
<rscale>  0 0.91518335E+02</rscale>
<asrwt>0</asrwt>
<pdfrwt beam="1">  1        2 0.30513344E-02 0.91518335E+02</pdfrwt>
<pdfrwt beam="2">  1       -2 0.16242008E-01 0.91518335E+02</pdfrwt>
<totfact> 0.77781567E+04</totfact>
</mgrwt>
</event>
<event>
 5    1  0.6004828E+000  0.9157717E+02  0.7546771E-02  0.1299077E+00
         -2   -1    0    0    0  501 -0.00000000000E+00  0.00000000000E+00  0.64629495864E+02  0.64629495864E+02  0.00000000000E+00 0.  1.
          2   -1    0    0  501    0  0.00000000000E+00 -0.00000000000E+00 -0.32440212956E+02  0.32440212956E+02  0.00000000000E+00 0. -1.
         23    2    1    2    0    0  0.00000000000E+00  0.00000000000E+00  0.32189282909E+02  0.97069708820E+02  0.91577172026E+02 0.  0.
        -11    1    3    3    0    0  0.51351061972E+01  0.45281347012E+02  0.20814207507E+02  0.50099909551E+02  0.00000000000E+00 0.  1.
         11    1    3    3    0    0 -0.51351061972E+01 -0.45281347012E+02  0.11375075402E+02  0.46969799268E+02  0.00000000000E+00 0. -1.
<mgrwt>
<rscale>  0 0.91577172E+02</rscale>
<asrwt>0</asrwt>
<pdfrwt beam="2">  1        2 0.49908020E-02 0.91577172E+02</pdfrwt>
<pdfrwt beam="1">  1       -2 0.99429993E-02 0.91577172E+02</pdfrwt>
<totfact> 0.89159666E+04</totfact>
</mgrwt>
</event>
<event>
 5    1  0.6004828E+000  0.9412406E+02  0.7546771E-02  0.1293161E+00
          2   -1    0    0  501    0  0.00000000000E+00  0.00000000000E+00  0.52488788301E+03  0.52488788301E+03  0.00000000000E+00 0. -1.
         -2   -1    0    0    0  501 -0.00000000000E+00 -0.00000000000E+00 -0.42196340375E+01  0.42196340375E+01  0.00000000000E+00 0.  1.
         23    2    1    2    0    0  0.00000000000E+00  0.00000000000E+00  0.52066824897E+03  0.52910751705E+03  0.94124062323E+02 0.  0.
        -11    1    3    3    0    0  0.42338535391E+02 -0.20535663180E+02  0.26457719273E+03  0.26872914980E+03  0.00000000000E+00 0.  1.
         11    1    3    3    0    0 -0.42338535391E+02  0.20535663180E+02  0.25609105624E+03  0.26037836725E+03  0.00000000000E+00 0. -1.
<mgrwt>
<rscale>  0 0.94124062E+02</rscale>
<asrwt>0</asrwt>
<pdfrwt beam="1">  1        2 0.80751930E-01 0.94124062E+02</pdfrwt>
<pdfrwt beam="2">  1       -2 0.64917488E-03 0.94124062E+02</pdfrwt>
<totfact> 0.20117682E+05</totfact>
</mgrwt>
</event>
<event>
 5    1  0.6004828E+000  0.7834884E+02  0.7546771E-02  0.1333804E+00
         -2   -1    0    0    0  501 -0.00000000000E+00  0.00000000000E+00  0.20363714702E+02  0.20363714702E+02  0.00000000000E+00 0. -1.
          2   -1    0    0  501    0  0.00000000000E+00 -0.00000000000E+00 -0.75361253784E+02  0.75361253784E+02  0.00000000000E+00 0.  1.
         23    2    1    2    0    0  0.00000000000E+00  0.00000000000E+00 -0.54997539082E+02  0.95724968486E+02  0.78348837174E+02 0.  0.
        -11    1    3    3    0    0 -0.35026426536E+02 -0.34393450297E+01 -0.64800707337E+01  0.35786463458E+02  0.00000000000E+00 0. -1.
         11    1    3    3    0    0  0.35026426536E+02  0.34393450297E+01 -0.48517468348E+02  0.59938505028E+02  0.00000000000E+00 0.  1.
<mgrwt>
<rscale>  0 0.78348837E+02</rscale>
<asrwt>0</asrwt>
<pdfrwt beam="2">  1        2 0.11594039E-01 0.78348837E+02</pdfrwt>
<pdfrwt beam="1">  1       -2 0.31328792E-02 0.78348837E+02</pdfrwt>
<totfact> 0.17140849E+05</totfact>
</mgrwt>
</event>
<event>
 5    1  0.6004828E+000  0.9361664E+02  0.7546771E-02  0.1294323E+00
          2   -1    0    0  501    0  0.00000000000E+00  0.00000000000E+00  0.48228371174E+02  0.48228371174E+02  0.00000000000E+00 0. -1.
         -2   -1    0    0    0  501 -0.00000000000E+00 -0.00000000000E+00 -0.45430077124E+02  0.45430077124E+02  0.00000000000E+00 0.  1.
         23    2    1    2    0    0  0.00000000000E+00  0.00000000000E+00  0.27982940491E+01  0.93658448298E+02  0.93616635744E+02 0.  0.
        -11    1    3    3    0    0  0.14449285990E+02  0.99545282180E+01 -0.42015443377E+02  0.45532098346E+02  0.00000000000E+00 0.  1.
         11    1    3    3    0    0 -0.14449285990E+02 -0.99545282180E+01  0.44813737426E+02  0.48126349952E+02  0.00000000000E+00 0. -1.
<mgrwt>
<rscale>  0 0.93616636E+02</rscale>
<asrwt>0</asrwt>
<pdfrwt beam="1">  1        2 0.74197494E-02 0.93616636E+02</pdfrwt>
<pdfrwt beam="2">  1       -2 0.69892427E-02 0.93616636E+02</pdfrwt>
<totfact> 0.92823632E+04</totfact>
</mgrwt>
</event>
<event>
 5    1  0.6004828E+000  0.7244588E+02  0.7546771E-02  0.1351968E+00
          1   -1    0    0  501    0  0.00000000000E+00  0.00000000000E+00  0.21503737682E+02  0.21503737682E+02  0.00000000000E+00 0. -1.
         -1   -1    0    0    0  501 -0.00000000000E+00 -0.00000000000E+00 -0.61017357382E+02  0.61017357382E+02  0.00000000000E+00 0.  1.
         23    2    1    2    0    0  0.00000000000E+00  0.00000000000E+00 -0.39513619700E+02  0.82521095064E+02  0.72445876272E+02 0.  0.
        -11    1    3    3    0    0 -0.29557585044E+02 -0.27255480640E+01 -0.43405164589E+02  0.52584101769E+02  0.00000000000E+00 0.  1.
         11    1    3    3    0    0  0.29557585044E+02  0.27255480640E+01  0.38915448890E+01  0.29936993295E+02  0.00000000000E+00 0. -1.
<mgrwt>
<rscale>  0 0.72445876E+02</rscale>
<asrwt>0</asrwt>
<pdfrwt beam="1">  1        1 0.33082674E-02 0.72445876E+02</pdfrwt>
<pdfrwt beam="2">  1       -1 0.93872856E-02 0.72445876E+02</pdfrwt>
<totfact> 0.15827839E+05</totfact>
</mgrwt>
</event>
<event>
 5    1  0.6004828E+000  0.8762520E+02  0.7546771E-02  0.1308707E+00
         -3   -1    0    0    0  501 -0.00000000000E+00  0.00000000000E+00  0.13916245661E+03  0.13916245661E+03  0.00000000000E+00 0.  1.
          3   -1    0    0  501    0  0.00000000000E+00 -0.00000000000E+00 -0.13793546808E+02  0.13793546808E+02  0.00000000000E+00 0. -1.
         23    2    1    2    0    0  0.00000000000E+00  0.00000000000E+00  0.12536890980E+03  0.15295600342E+03  0.87625198639E+02 0.  0.
        -11    1    3    3    0    0  0.30469389828E+02  0.15511852087E+02  0.11050617377E+03  0.11567461135E+03  0.00000000000E+00 0.  1.
         11    1    3    3    0    0 -0.30469389828E+02 -0.15511852087E+02  0.14862736036E+02  0.37281392063E+02  0.00000000000E+00 0. -1.
<mgrwt>
<rscale>  0 0.87625199E+02</rscale>
<asrwt>0</asrwt>
<pdfrwt beam="2">  1        3 0.21220842E-02 0.87625199E+02</pdfrwt>
<pdfrwt beam="1">  1       -3 0.21409608E-01 0.87625199E+02</pdfrwt>
<totfact> 0.34649551E+04</totfact>
</mgrwt>
</event>
<event>
 5    1  0.6004828E+000  0.9179284E+02  0.7546771E-02  0.1298567E+00
         -1   -1    0    0    0  501 -0.00000000000E+00  0.00000000000E+00  0.14328043120E+02  0.14328043120E+02  0.00000000000E+00 0.  1.
          1   -1    0    0  501    0  0.00000000000E+00 -0.00000000000E+00 -0.14701808823E+03  0.14701808823E+03  0.00000000000E+00 0. -1.
         23    2    1    2    0    0  0.00000000000E+00  0.00000000000E+00 -0.13269004511E+03  0.16134613135E+03  0.91792843023E+02 0.  0.
        -11    1    3    3    0    0 -0.32645877229E+02 -0.18218878853E+02 -0.19548692820E+02  0.42188057998E+02  0.00000000000E+00 0.  1.
         11    1    3    3    0    0  0.32645877229E+02  0.18218878853E+02 -0.11314135229E+03  0.11915807335E+03  0.00000000000E+00 0. -1.
<mgrwt>
<rscale>  0 0.91792843E+02</rscale>
<asrwt>0</asrwt>
<pdfrwt beam="2">  1        1 0.22618167E-01 0.91792843E+02</pdfrwt>
<pdfrwt beam="1">  1       -1 0.22043143E-02 0.91792843E+02</pdfrwt>
<totfact> 0.10970588E+05</totfact>
</mgrwt>
</event>
<event>
 5    1  0.6004828E+000  0.9217419E+02  0.7546771E-02  0.1297670E+00
         -1   -1    0    0    0  501 -0.00000000000E+00  0.00000000000E+00  0.10311633252E+02  0.10311633252E+02  0.00000000000E+00 0.  1.
          1   -1    0    0  501    0  0.00000000000E+00 -0.00000000000E+00 -0.20598290867E+03  0.20598290867E+03  0.00000000000E+00 0. -1.
         23    2    1    2    0    0  0.00000000000E+00  0.00000000000E+00 -0.19567127542E+03  0.21629454192E+03  0.92174187501E+02 0.  0.
        -11    1    3    3    0    0  0.24637549143E+02 -0.30907809005E+02 -0.42220157297E+02  0.57834619108E+02  0.00000000000E+00 0.  1.
         11    1    3    3    0    0 -0.24637549143E+02  0.30907809005E+02 -0.15345111812E+03  0.15845992281E+03  0.00000000000E+00 0. -1.
<mgrwt>
<rscale>  0 0.92174188E+02</rscale>
<asrwt>0</asrwt>
<pdfrwt beam="2">  1        1 0.31689679E-01 0.92174188E+02</pdfrwt>
<pdfrwt beam="1">  1       -1 0.15864051E-02 0.92174188E+02</pdfrwt>
<totfact> 0.11565864E+05</totfact>
</mgrwt>
</event>
<event>
 5    1  0.6004828E+000  0.1064587E+03  0.7546771E-02  0.1267272E+00
         -1   -1    0    0    0  501 -0.00000000000E+00  0.00000000000E+00  0.76194201103E+02  0.76194201103E+02  0.00000000000E+00 0.  1.
          1   -1    0    0  501    0  0.00000000000E+00 -0.00000000000E+00 -0.37186079872E+02  0.37186079872E+02  0.00000000000E+00 0. -1.
         23    2    1    2    0    0  0.00000000000E+00  0.00000000000E+00  0.39008121231E+02  0.11338028097E+03  0.10645869900E+03 0.  0.
        -11    1    3    3    0    0  0.44772335773E+02  0.27230385699E+02  0.29455424988E+02  0.60113875413E+02  0.00000000000E+00 0.  1.
         11    1    3    3    0    0 -0.44772335773E+02 -0.27230385699E+02  0.95526962430E+01  0.53266405561E+02  0.00000000000E+00 0. -1.
<mgrwt>
<rscale>  0 0.10645870E+03</rscale>
<asrwt>0</asrwt>
<pdfrwt beam="2">  1        1 0.57209354E-02 0.10645870E+03</pdfrwt>
<pdfrwt beam="1">  1       -1 0.11722185E-01 0.10645870E+03</pdfrwt>
<totfact> 0.57401586E+04</totfact>
</mgrwt>
</event>
<event>
 5    1  0.6004828E+000  0.9185888E+02  0.7546771E-02  0.1298412E+00
          1   -1    0    0  501    0  0.00000000000E+00  0.00000000000E+00  0.25852659373E+03  0.25852659373E+03  0.00000000000E+00 0. -1.
         -1   -1    0    0    0  501 -0.00000000000E+00 -0.00000000000E+00 -0.81597544852E+01  0.81597544852E+01  0.00000000000E+00 0.  1.
         23    2    1    2    0    0  0.00000000000E+00  0.00000000000E+00  0.25036683925E+03  0.26668634822E+03  0.91858881612E+02 0.  0.
        -11    1    3    3    0    0  0.31017306756E+02  0.18029634335E+02  0.41927730365E+02  0.55182203710E+02  0.00000000000E+00 0.  1.
         11    1    3    3    0    0 -0.31017306756E+02 -0.18029634335E+02  0.20843910888E+03  0.21150414451E+03  0.00000000000E+00 0. -1.
<mgrwt>
<rscale>  0 0.91858882E+02</rscale>
<asrwt>0</asrwt>
<pdfrwt beam="1">  1        1 0.39773316E-01 0.91858882E+02</pdfrwt>
<pdfrwt beam="2">  1       -1 0.12553470E-02 0.91858882E+02</pdfrwt>
<totfact> 0.12202583E+05</totfact>
</mgrwt>
</event>
<event>
 5    1  0.6004828E+000  0.9359658E+02  0.7546771E-02  0.1294369E+00
          2   -1    0    0  501    0  0.00000000000E+00  0.00000000000E+00  0.75161545989E+02  0.75161545989E+02  0.00000000000E+00 0.  1.
         -2   -1    0    0    0  501 -0.00000000000E+00 -0.00000000000E+00 -0.29138301393E+02  0.29138301393E+02  0.00000000000E+00 0. -1.
         23    2    1    2    0    0  0.00000000000E+00  0.00000000000E+00  0.46023244597E+02  0.10429984738E+03  0.93596576437E+02 0.  0.
        -11    1    3    3    0    0  0.24317236411E+02  0.20981548073E+02 -0.14917839755E+02  0.35413207835E+02  0.00000000000E+00 0. -1.
         11    1    3    3    0    0 -0.24317236411E+02 -0.20981548073E+02  0.60941084351E+02  0.68886639547E+02  0.00000000000E+00 0.  1.
<mgrwt>
<rscale>  0 0.93596576E+02</rscale>
<asrwt>0</asrwt>
<pdfrwt beam="1">  1        2 0.11563315E-01 0.93596576E+02</pdfrwt>
<pdfrwt beam="2">  1       -2 0.44828156E-02 0.93596576E+02</pdfrwt>
<totfact> 0.10487048E+05</totfact>
</mgrwt>
</event>
<event>
 5    1  0.6004828E+000  0.8920169E+02  0.7546771E-02  0.1304797E+00
          2   -1    0    0  501    0  0.00000000000E+00  0.00000000000E+00  0.11268521103E+03  0.11268521103E+03  0.00000000000E+00 0.  1.
         -2   -1    0    0    0  501 -0.00000000000E+00 -0.00000000000E+00 -0.17653030303E+02  0.17653030303E+02  0.00000000000E+00 0. -1.
         23    2    1    2    0    0  0.00000000000E+00  0.00000000000E+00  0.95032180731E+02  0.13033824134E+03  0.89201691578E+02 0.  0.
        -11    1    3    3    0    0 -0.25598434910E+02 -0.32682859196E+02  0.23694812549E+02  0.47800557494E+02  0.00000000000E+00 0.  1.
         11    1    3    3    0    0  0.25598434910E+02  0.32682859196E+02  0.71337368182E+02  0.82537683843E+02  0.00000000000E+00 0. -1.
<mgrwt>
<rscale>  0 0.89201692E+02</rscale>
<asrwt>0</asrwt>
<pdfrwt beam="1">  1        2 0.17336186E-01 0.89201692E+02</pdfrwt>
<pdfrwt beam="2">  1       -2 0.27158509E-02 0.89201692E+02</pdfrwt>
<totfact> 0.13515156E+05</totfact>
</mgrwt>
</event>
<event>
 5    1  0.6004828E+000  0.9230357E+02  0.7546771E-02  0.1297367E+00
         -1   -1    0    0    0  501 -0.00000000000E+00  0.00000000000E+00  0.14911663375E+03  0.14911663375E+03  0.00000000000E+00 0.  1.
          1   -1    0    0  501    0  0.00000000000E+00 -0.00000000000E+00 -0.14284034559E+02  0.14284034559E+02  0.00000000000E+00 0. -1.
         23    2    1    2    0    0  0.00000000000E+00  0.00000000000E+00  0.13483259919E+03  0.16340066831E+03  0.92303567641E+02 0.  0.
        -11    1    3    3    0    0  0.14969814221E+02 -0.43253031701E+02  0.56933313172E+02  0.73050135099E+02  0.00000000000E+00 0.  1.
         11    1    3    3    0    0 -0.14969814221E+02  0.43253031701E+02  0.77899286019E+02  0.90350533210E+02  0.00000000000E+00 0. -1.
<mgrwt>
<rscale>  0 0.92303568E+02</rscale>
<asrwt>0</asrwt>
<pdfrwt beam="2">  1        1 0.21975439E-02 0.92303568E+02</pdfrwt>
<pdfrwt beam="1">  1       -1 0.22941020E-01 0.92303568E+02</pdfrwt>
<totfact> 0.72539469E+04</totfact>
</mgrwt>
</event>
<event>
 5    1  0.6004828E+000  0.8603973E+02  0.7546771E-02  0.1312736E+00
         -2   -1    0    0    0  501 -0.00000000000E+00  0.00000000000E+00  0.14114849146E+02  0.14114849146E+02  0.00000000000E+00 0.  1.
          2   -1    0    0  501    0  0.00000000000E+00 -0.00000000000E+00 -0.13111786987E+03  0.13111786987E+03  0.00000000000E+00 0. -1.
         23    2    1    2    0    0  0.00000000000E+00  0.00000000000E+00 -0.11700302072E+03  0.14523271901E+03  0.86039733926E+02 0.  0.
        -11    1    3    3    0    0 -0.30396553807E+02  0.29898377186E+02 -0.48827569531E+02  0.64822796823E+02  0.00000000000E+00 0.  1.
         11    1    3    3    0    0  0.30396553807E+02 -0.29898377186E+02 -0.68175451188E+02  0.80409922188E+02  0.00000000000E+00 0. -1.
<mgrwt>
<rscale>  0 0.86039734E+02</rscale>
<asrwt>0</asrwt>
<pdfrwt beam="2">  1        2 0.20171980E-01 0.86039734E+02</pdfrwt>
<pdfrwt beam="1">  1       -2 0.21715152E-02 0.86039734E+02</pdfrwt>
<totfact> 0.15643146E+05</totfact>
</mgrwt>
</event>
<event>
 5    1  0.6004828E+000  0.1166716E+03  0.7546771E-02  0.1248691E+00
         -1   -1    0    0    0  501 -0.00000000000E+00  0.00000000000E+00  0.24575832731E+02  0.24575832731E+02  0.00000000000E+00 0.  1.
          1   -1    0    0  501    0  0.00000000000E+00 -0.00000000000E+00 -0.13847207525E+03  0.13847207525E+03  0.00000000000E+00 0. -1.
         23    2    1    2    0    0  0.00000000000E+00  0.00000000000E+00 -0.11389624252E+03  0.16304790798E+03  0.11667161710E+03 0.  0.
        -11    1    3    3    0    0  0.45088648423E+02 -0.16324464765E+02 -0.10522863548E+02  0.49093838959E+02  0.00000000000E+00 0.  1.
         11    1    3    3    0    0 -0.45088648423E+02  0.16324464765E+02 -0.10337337897E+03  0.11395406902E+03  0.00000000000E+00 0. -1.
<mgrwt>
<rscale>  0 0.11667162E+03</rscale>
<asrwt>0</asrwt>
<pdfrwt beam="2">  1        1 0.21303396E-01 0.11667162E+03</pdfrwt>
<pdfrwt beam="1">  1       -1 0.37808974E-02 0.11667162E+03</pdfrwt>
<totfact> 0.56157170E+04</totfact>
</mgrwt>
</event>
<event>
 5    1  0.6004828E+000  0.1001442E+03  0.7546771E-02  0.1279993E+00
         -1   -1    0    0    0  501 -0.00000000000E+00  0.00000000000E+00  0.51775082203E+02  0.51775082203E+02  0.00000000000E+00 0.  1.
          1   -1    0    0  501    0  0.00000000000E+00 -0.00000000000E+00 -0.48425172254E+02  0.48425172254E+02  0.00000000000E+00 0. -1.
         23    2    1    2    0    0  0.00000000000E+00  0.00000000000E+00  0.33499099490E+01  0.10020025446E+03  0.10014424146E+03 0.  0.
        -11    1    3    3    0    0 -0.34050232434E+02  0.29994848399E+02  0.22855356990E+02  0.50808233609E+02  0.00000000000E+00 0.  1.
         11    1    3    3    0    0  0.34050232434E+02 -0.29994848399E+02 -0.19505447041E+02  0.49392020849E+02  0.00000000000E+00 0. -1.
<mgrwt>
<rscale>  0 0.10014424E+03</rscale>
<asrwt>0</asrwt>
<pdfrwt beam="2">  1        1 0.74500265E-02 0.10014424E+03</pdfrwt>
<pdfrwt beam="1">  1       -1 0.79653973E-02 0.10014424E+03</pdfrwt>
<totfact> 0.71605922E+04</totfact>
</mgrwt>
</event>
<event>
 5    1  0.6004828E+000  0.9049876E+02  0.7546771E-02  0.1301648E+00
         -4   -1    0    0    0  501 -0.00000000000E+00  0.00000000000E+00  0.25417596599E+02  0.25417596599E+02  0.00000000000E+00 0.  1.
          4   -1    0    0  501    0  0.00000000000E+00 -0.00000000000E+00 -0.80554676132E+02  0.80554676132E+02  0.00000000000E+00 0. -1.
         23    2    1    2    0    0  0.00000000000E+00  0.00000000000E+00 -0.55137079533E+02  0.10597227273E+03  0.90498757164E+02 0.  0.
        -11    1    3    3    0    0 -0.50677176831E+01  0.29849922308E+02  0.11808567443E+02  0.32498336717E+02  0.00000000000E+00 0.  1.
         11    1    3    3    0    0  0.50677176831E+01 -0.29849922308E+02 -0.66945646976E+02  0.73473936014E+02  0.00000000000E+00 0. -1.
<mgrwt>
<rscale>  0 0.90498757E+02</rscale>
<asrwt>0</asrwt>
<pdfrwt beam="2">  1        4 0.12393027E-01 0.90498757E+02</pdfrwt>
<pdfrwt beam="1">  1       -4 0.39103996E-02 0.90498757E+02</pdfrwt>
<totfact> 0.26625230E+04</totfact>
</mgrwt>
</event>
<event>
 5    1  0.6004828E+000  0.9133054E+02  0.7546771E-02  0.1299661E+00
         -1   -1    0    0    0  501 -0.00000000000E+00  0.00000000000E+00  0.22547971491E+03  0.22547971491E+03  0.00000000000E+00 0.  1.
          1   -1    0    0  501    0  0.00000000000E+00 -0.00000000000E+00 -0.92483570125E+01  0.92483570125E+01  0.00000000000E+00 0. -1.
         23    2    1    2    0    0  0.00000000000E+00  0.00000000000E+00  0.21623135790E+03  0.23472807192E+03  0.91330540402E+02 0.  0.
        -11    1    3    3    0    0  0.39272115375E+02  0.18023481436E+02  0.14607762643E+03  0.15233455903E+03  0.00000000000E+00 0. -1.
         11    1    3    3    0    0 -0.39272115375E+02 -0.18023481436E+02  0.70153731462E+02  0.82393512895E+02  0.00000000000E+00 0.  1.
<mgrwt>
<rscale>  0 0.91330540E+02</rscale>
<asrwt>0</asrwt>
<pdfrwt beam="2">  1        1 0.14228243E-02 0.91330540E+02</pdfrwt>
<pdfrwt beam="1">  1       -1 0.34689183E-01 0.91330540E+02</pdfrwt>
<totfact> 0.66684772E+04</totfact>
</mgrwt>
</event>
<event>
 5    1  0.6004828E+000  0.9102322E+02  0.7546771E-02  0.1300393E+00
          4   -1    0    0  501    0  0.00000000000E+00  0.00000000000E+00  0.74879945976E+02  0.74879945976E+02  0.00000000000E+00 0. -1.
         -4   -1    0    0    0  501 -0.00000000000E+00 -0.00000000000E+00 -0.27661701209E+02  0.27661701209E+02  0.00000000000E+00 0.  1.
         23    2    1    2    0    0  0.00000000000E+00  0.00000000000E+00  0.47218244767E+02  0.10254164718E+03  0.91023221039E+02 0.  0.
        -11    1    3    3    0    0 -0.81480224397E+01  0.26545695033E+02 -0.17012780912E+02  0.32565302222E+02  0.00000000000E+00 0.  1.
         11    1    3    3    0    0  0.81480224397E+01 -0.26545695033E+02  0.64231025679E+02  0.69976344962E+02  0.00000000000E+00 0. -1.
<mgrwt>
<rscale>  0 0.91023221E+02</rscale>
<asrwt>0</asrwt>
<pdfrwt beam="1">  1        4 0.11519992E-01 0.91023221E+02</pdfrwt>
<pdfrwt beam="2">  1       -4 0.42556464E-02 0.91023221E+02</pdfrwt>
<totfact> 0.26422585E+04</totfact>
</mgrwt>
</event>
<event>
 5    1  0.6004828E+000  0.8272833E+02  0.7546771E-02  0.1321482E+00
          2   -1    0    0  501    0  0.00000000000E+00  0.00000000000E+00  0.22062476267E+02  0.22062476267E+02  0.00000000000E+00 0. -1.
         -2   -1    0    0    0  501 -0.00000000000E+00 -0.00000000000E+00 -0.77552226818E+02  0.77552226818E+02  0.00000000000E+00 0.  1.
         23    2    1    2    0    0  0.00000000000E+00  0.00000000000E+00 -0.55489750552E+02  0.99614703085E+02  0.82728330422E+02 0.  0.
        -11    1    3    3    0    0 -0.15219755123E+02  0.13607549892E+02  0.15573068817E+02  0.25677360310E+02  0.00000000000E+00 0. -1.
         11    1    3    3    0    0  0.15219755123E+02 -0.13607549892E+02 -0.71062819369E+02  0.73937342776E+02  0.00000000000E+00 0.  1.
<mgrwt>
<rscale>  0 0.82728330E+02</rscale>
<asrwt>0</asrwt>
<pdfrwt beam="1">  1        2 0.33942271E-02 0.82728330E+02</pdfrwt>
<pdfrwt beam="2">  1       -2 0.11931112E-01 0.82728330E+02</pdfrwt>
<totfact> 0.10894386E+05</totfact>
</mgrwt>
</event>
<event>
 5    1  0.6004828E+000  0.9034310E+02  0.7546771E-02  0.1302023E+00
          1   -1    0    0  501    0  0.00000000000E+00  0.00000000000E+00  0.29996677725E+02  0.29996677725E+02  0.00000000000E+00 0. -1.
         -1   -1    0    0    0  501 -0.00000000000E+00 -0.00000000000E+00 -0.68023163781E+02  0.68023163781E+02  0.00000000000E+00 0.  1.
         23    2    1    2    0    0  0.00000000000E+00  0.00000000000E+00 -0.38026486056E+02  0.98019841507E+02  0.90343099832E+02 0.  0.
        -11    1    3    3    0    0 -0.34244692261E+02 -0.25719661799E+02 -0.34595700804E+02  0.55055085735E+02  0.00000000000E+00 0.  1.
         11    1    3    3    0    0  0.34244692261E+02  0.25719661799E+02 -0.34307852516E+01  0.42964755772E+02  0.00000000000E+00 0. -1.
<mgrwt>
<rscale>  0 0.90343100E+02</rscale>
<asrwt>0</asrwt>
<pdfrwt beam="1">  1        1 0.46148736E-02 0.90343100E+02</pdfrwt>
<pdfrwt beam="2">  1       -1 0.10465102E-01 0.90343100E+02</pdfrwt>
<totfact> 0.88996009E+04</totfact>
</mgrwt>
</event>
<event>
 5    1  0.6004828E+000  0.9235089E+02  0.7546771E-02  0.1297257E+00
          1   -1    0    0  501    0  0.00000000000E+00  0.00000000000E+00  0.13900413498E+03  0.13900413498E+03  0.00000000000E+00 0. -1.
         -1   -1    0    0    0  501 -0.00000000000E+00 -0.00000000000E+00 -0.15338909195E+02  0.15338909195E+02  0.00000000000E+00 0.  1.
         23    2    1    2    0    0  0.00000000000E+00  0.00000000000E+00  0.12366522578E+03  0.15434304417E+03  0.92350891803E+02 0.  0.
        -11    1    3    3    0    0 -0.38476900521E+02 -0.12927906388E+02  0.25043115349E+02  0.47694446885E+02  0.00000000000E+00 0.  1.
         11    1    3    3    0    0  0.38476900521E+02  0.12927906388E+02  0.98622110433E+02  0.10664859729E+03  0.00000000000E+00 0. -1.
<mgrwt>
<rscale>  0 0.92350892E+02</rscale>
<asrwt>0</asrwt>
<pdfrwt beam="1">  1        1 0.21385251E-01 0.92350892E+02</pdfrwt>
<pdfrwt beam="2">  1       -1 0.23598323E-02 0.92350892E+02</pdfrwt>
<totfact> 0.10682277E+05</totfact>
</mgrwt>
</event>
<event>
 5    1  0.6004828E+000  0.9241779E+02  0.7546771E-02  0.1297100E+00
         -1   -1    0    0    0  501 -0.00000000000E+00  0.00000000000E+00  0.87984638032E+02  0.87984638032E+02  0.00000000000E+00 0.  1.
          1   -1    0    0  501    0  0.00000000000E+00 -0.00000000000E+00 -0.24268576387E+02  0.24268576387E+02  0.00000000000E+00 0. -1.
         23    2    1    2    0    0  0.00000000000E+00  0.00000000000E+00  0.63716061645E+02  0.11225321442E+03  0.92417788525E+02 0.  0.
        -11    1    3    3    0    0  0.11343396239E+02 -0.24993949071E+02  0.77010367549E+02  0.81755530935E+02  0.00000000000E+00 0.  1.
         11    1    3    3    0    0 -0.11343396239E+02  0.24993949071E+02 -0.13294305904E+02  0.30497683484E+02  0.00000000000E+00 0. -1.
<mgrwt>
<rscale>  0 0.92417789E+02</rscale>
<asrwt>0</asrwt>
<pdfrwt beam="2">  1        1 0.37336272E-02 0.92417789E+02</pdfrwt>
<pdfrwt beam="1">  1       -1 0.13536098E-01 0.92417789E+02</pdfrwt>
<totfact> 0.80431064E+04</totfact>
</mgrwt>
</event>
<event>
 5    1  0.6004828E+000  0.8903595E+02  0.7546771E-02  0.1305203E+00
          1   -1    0    0  501    0  0.00000000000E+00  0.00000000000E+00  0.44422961890E+02  0.44422961890E+02  0.00000000000E+00 0. -1.
         -1   -1    0    0    0  501 -0.00000000000E+00 -0.00000000000E+00 -0.44613195725E+02  0.44613195725E+02  0.00000000000E+00 0.  1.
         23    2    1    2    0    0  0.00000000000E+00  0.00000000000E+00 -0.19023383447E+00  0.89036157615E+02  0.89035954389E+02 0.  0.
        -11    1    3    3    0    0  0.17910370158E+02 -0.33165273064E+02 -0.23783429615E+02  0.44568691038E+02  0.00000000000E+00 0.  1.
         11    1    3    3    0    0 -0.17910370158E+02  0.33165273064E+02  0.23593195781E+02  0.44467466577E+02  0.00000000000E+00 0. -1.
<mgrwt>
<rscale>  0 0.89035954E+02</rscale>
<asrwt>0</asrwt>
<pdfrwt beam="1">  1        1 0.68343018E-02 0.89035954E+02</pdfrwt>
<pdfrwt beam="2">  1       -1 0.68635686E-02 0.89035954E+02</pdfrwt>
<totfact> 0.98455096E+04</totfact>
</mgrwt>
</event>
<event>
 5    1  0.6004828E+000  0.7750447E+02  0.7546771E-02  0.1336286E+00
         -1   -1    0    0    0  501 -0.00000000000E+00  0.00000000000E+00  0.20108778021E+02  0.20108778021E+02  0.00000000000E+00 0.  1.
          1   -1    0    0  501    0  0.00000000000E+00 -0.00000000000E+00 -0.74680609555E+02  0.74680609555E+02  0.00000000000E+00 0. -1.
         23    2    1    2    0    0  0.00000000000E+00  0.00000000000E+00 -0.54571831534E+02  0.94789387576E+02  0.77504472130E+02 0.  0.
        -11    1    3    3    0    0 -0.28699615619E+02  0.15535626670E+02 -0.17276959708E+01  0.32680400335E+02  0.00000000000E+00 0.  1.
         11    1    3    3    0    0  0.28699615619E+02 -0.15535626670E+02 -0.52844135563E+02  0.62108987241E+02  0.00000000000E+00 0. -1.
<mgrwt>
<rscale>  0 0.77504472E+02</rscale>
<asrwt>0</asrwt>
<pdfrwt beam="2">  1        1 0.11489324E-01 0.77504472E+02</pdfrwt>
<pdfrwt beam="1">  1       -1 0.30936582E-02 0.77504472E+02</pdfrwt>
<totfact> 0.15502439E+05</totfact>
</mgrwt>
</event>
<event>
 5    1  0.6004828E+000  0.9108668E+02  0.7546771E-02  0.1300241E+00
         -2   -1    0    0    0  501 -0.00000000000E+00  0.00000000000E+00  0.39364956996E+02  0.39364956996E+02  0.00000000000E+00 0.  1.
          2   -1    0    0  501    0  0.00000000000E+00 -0.00000000000E+00 -0.52691428896E+02  0.52691428896E+02  0.00000000000E+00 0. -1.
         23    2    1    2    0    0  0.00000000000E+00  0.00000000000E+00 -0.13326471900E+02  0.92056385893E+02  0.91086680312E+02 0.  0.
        -11    1    3    3    0    0  0.37797650112E+02  0.11992355563E+01  0.18985981272E+02  0.42315103743E+02  0.00000000000E+00 0.  1.
         11    1    3    3    0    0 -0.37797650112E+02 -0.11992355563E+01 -0.32312453172E+02  0.49741282150E+02  0.00000000000E+00 0. -1.
<mgrwt>
<rscale>  0 0.91086680E+02</rscale>
<asrwt>0</asrwt>
<pdfrwt beam="2">  1        2 0.81063737E-02 0.91086680E+02</pdfrwt>
<pdfrwt beam="1">  1       -2 0.60561472E-02 0.91086680E+02</pdfrwt>
<totfact> 0.10276495E+05</totfact>
</mgrwt>
</event>
<event>
 5    1  0.6004828E+000  0.9104108E+02  0.7546771E-02  0.1300350E+00
         -2   -1    0    0    0  501 -0.00000000000E+00  0.00000000000E+00  0.88776715246E+01  0.88776715246E+01  0.00000000000E+00 0.  1.
          2   -1    0    0  501    0  0.00000000000E+00 -0.00000000000E+00 -0.23340800622E+03  0.23340800622E+03  0.00000000000E+00 0. -1.
         23    2    1    2    0    0  0.00000000000E+00  0.00000000000E+00 -0.22453033469E+03  0.24228567774E+03  0.91041081066E+02 0.  0.
        -11    1    3    3    0    0 -0.81700811000E+01 -0.37329861841E+02 -0.46436797199E+02  0.60138547906E+02  0.00000000000E+00 0.  1.
         11    1    3    3    0    0  0.81700811000E+01  0.37329861841E+02 -0.17809353750E+03  0.18214712984E+03  0.00000000000E+00 0. -1.
<mgrwt>
<rscale>  0 0.91041081E+02</rscale>
<asrwt>0</asrwt>
<pdfrwt beam="2">  1        2 0.35908923E-01 0.91041081E+02</pdfrwt>
<pdfrwt beam="1">  1       -2 0.13657957E-02 0.91041081E+02</pdfrwt>
<totfact> 0.16431381E+05</totfact>
</mgrwt>
</event>
<event>
 5    1  0.6004828E+000  0.9225760E+02  0.7546771E-02  0.1297475E+00
         -4   -1    0    0    0  501 -0.00000000000E+00  0.00000000000E+00  0.10162673536E+03  0.10162673536E+03  0.00000000000E+00 0.  1.
          4   -1    0    0  501    0  0.00000000000E+00 -0.00000000000E+00 -0.20938057249E+02  0.20938057249E+02  0.00000000000E+00 0. -1.
         23    2    1    2    0    0  0.00000000000E+00  0.00000000000E+00  0.80688678111E+02  0.12256479261E+03  0.92257604629E+02 0.  0.
        -11    1    3    3    0    0 -0.29145714447E+02  0.24922886284E+02  0.74402931895E+02  0.83704355955E+02  0.00000000000E+00 0.  1.
         11    1    3    3    0    0  0.29145714447E+02 -0.24922886284E+02  0.62857462164E+01  0.38860436653E+02  0.00000000000E+00 0. -1.
<mgrwt>
<rscale>  0 0.92257605E+02</rscale>
<asrwt>0</asrwt>
<pdfrwt beam="2">  1        4 0.32212396E-02 0.92257605E+02</pdfrwt>
<pdfrwt beam="1">  1       -4 0.15634882E-01 0.92257605E+02</pdfrwt>
<totfact> 0.24338868E+04</totfact>
</mgrwt>
</event>
<event>
 5    1  0.6004828E+000  0.8970304E+02  0.7546771E-02  0.1303572E+00
          1   -1    0    0  501    0  0.00000000000E+00  0.00000000000E+00  0.15113762953E+03  0.15113762953E+03  0.00000000000E+00 0. -1.
         -1   -1    0    0    0  501 -0.00000000000E+00 -0.00000000000E+00 -0.13310111602E+02  0.13310111602E+02  0.00000000000E+00 0.  1.
         23    2    1    2    0    0  0.00000000000E+00  0.00000000000E+00  0.13782751793E+03  0.16444774114E+03  0.89703037104E+02 0.  0.
        -11    1    3    3    0    0  0.24356010924E+02  0.12599314172E+02  0.38477070072E+01  0.27690482751E+02  0.00000000000E+00 0.  1.
         11    1    3    3    0    0 -0.24356010924E+02 -0.12599314172E+02  0.13397981093E+03  0.13675725839E+03  0.00000000000E+00 0. -1.
<mgrwt>
<rscale>  0 0.89703037E+02</rscale>
<asrwt>0</asrwt>
<pdfrwt beam="1">  1        1 0.23251942E-01 0.89703037E+02</pdfrwt>
<pdfrwt beam="2">  1       -1 0.20477096E-02 0.89703037E+02</pdfrwt>
<totfact> 0.11732613E+05</totfact>
</mgrwt>
</event>
<event>
 5    1  0.6004828E+000  0.9230198E+02  0.7546771E-02  0.1297371E+00
         -4   -1    0    0    0  501 -0.00000000000E+00  0.00000000000E+00  0.46245226015E+02  0.46245226015E+02  0.00000000000E+00 0. -1.
          4   -1    0    0  501    0  0.00000000000E+00 -0.00000000000E+00 -0.46056949472E+02  0.46056949472E+02  0.00000000000E+00 0.  1.
         23    2    1    2    0    0  0.00000000000E+00  0.00000000000E+00  0.18827654237E+00  0.92302175487E+02  0.92301983465E+02 0.  0.
        -11    1    3    3    0    0  0.24037288557E+02  0.32330752498E+01  0.39358325970E+02  0.46231178223E+02  0.00000000000E+00 0. -1.
         11    1    3    3    0    0 -0.24037288557E+02 -0.32330752498E+01 -0.39170049427E+02  0.46070997264E+02  0.00000000000E+00 0.  1.
<mgrwt>
<rscale>  0 0.92301983E+02</rscale>
<asrwt>0</asrwt>
<pdfrwt beam="2">  1        4 0.70856846E-02 0.92301983E+02</pdfrwt>
<pdfrwt beam="1">  1       -4 0.71146501E-02 0.92301983E+02</pdfrwt>
<totfact> 0.26059189E+04</totfact>
</mgrwt>
</event>
<event>
 5    1  0.6004828E+000  0.9443821E+02  0.7546771E-02  0.1292446E+00
          3   -1    0    0  501    0  0.00000000000E+00  0.00000000000E+00  0.11102496334E+03  0.11102496334E+03  0.00000000000E+00 0. -1.
         -3   -1    0    0    0  501 -0.00000000000E+00 -0.00000000000E+00 -0.20082366178E+02  0.20082366178E+02  0.00000000000E+00 0.  1.
         23    2    1    2    0    0  0.00000000000E+00  0.00000000000E+00  0.90942597159E+02  0.13110732952E+03  0.94438211941E+02 0.  0.
        -11    1    3    3    0    0 -0.47065663782E+02  0.24248895228E+01  0.41403079778E+02  0.62731744847E+02  0.00000000000E+00 0.  1.
         11    1    3    3    0    0  0.47065663782E+02 -0.24248895228E+01  0.49539517381E+02  0.68375584669E+02  0.00000000000E+00 0. -1.
<mgrwt>
<rscale>  0 0.94438212E+02</rscale>
<asrwt>0</asrwt>
<pdfrwt beam="1">  1        3 0.17080763E-01 0.94438212E+02</pdfrwt>
<pdfrwt beam="2">  1       -3 0.30895949E-02 0.94438212E+02</pdfrwt>
<totfact> 0.29537330E+04</totfact>
</mgrwt>
</event>
<event>
 5    1  0.6004828E+000  0.9024207E+02  0.7546771E-02  0.1302267E+00
         -2   -1    0    0    0  501 -0.00000000000E+00  0.00000000000E+00  0.10651239963E+02  0.10651239963E+02  0.00000000000E+00 0.  1.
          2   -1    0    0  501    0  0.00000000000E+00 -0.00000000000E+00 -0.19114277731E+03  0.19114277731E+03  0.00000000000E+00 0. -1.
         23    2    1    2    0    0  0.00000000000E+00  0.00000000000E+00 -0.18049153735E+03  0.20179401728E+03  0.90242065321E+02 0.  0.
        -11    1    3    3    0    0 -0.54608676576E+01 -0.31968642406E+02 -0.16039407703E+03  0.16364007798E+03  0.00000000000E+00 0. -1.
         11    1    3    3    0    0  0.54608676576E+01  0.31968642406E+02 -0.20097460317E+02  0.38153939300E+02  0.00000000000E+00 0.  1.
<mgrwt>
<rscale>  0 0.90242065E+02</rscale>
<asrwt>0</asrwt>
<pdfrwt beam="2">  1        2 0.29406580E-01 0.90242065E+02</pdfrwt>
<pdfrwt beam="1">  1       -2 0.16386524E-02 0.90242065E+02</pdfrwt>
<totfact> 0.15645668E+05</totfact>
</mgrwt>
</event>
<event>
 5    1  0.6004828E+000  0.9175276E+02  0.7546771E-02  0.1298662E+00
          2   -1    0    0  501    0  0.00000000000E+00  0.00000000000E+00  0.71902716267E+02  0.71902716267E+02  0.00000000000E+00 0. -1.
         -2   -1    0    0    0  501 -0.00000000000E+00 -0.00000000000E+00 -0.29270692382E+02  0.29270692382E+02  0.00000000000E+00 0.  1.
         23    2    1    2    0    0  0.00000000000E+00  0.00000000000E+00  0.42632023885E+02  0.10117340865E+03  0.91752761033E+02 0.  0.
        -11    1    3    3    0    0 -0.11742639150E+02  0.26753987033E+02  0.60316665434E+02  0.67020635072E+02  0.00000000000E+00 0. -1.
         11    1    3    3    0    0  0.11742639150E+02 -0.26753987033E+02 -0.17684641549E+02  0.34152773578E+02  0.00000000000E+00 0.  1.
<mgrwt>
<rscale>  0 0.91752761E+02</rscale>
<asrwt>0</asrwt>
<pdfrwt beam="1">  1        2 0.11061956E-01 0.91752761E+02</pdfrwt>
<pdfrwt beam="2">  1       -2 0.45031835E-02 0.91752761E+02</pdfrwt>
<totfact> 0.10950068E+05</totfact>
</mgrwt>
</event>
<event>
 5    1  0.6004828E+000  0.9415263E+02  0.7546771E-02  0.1293096E+00
         -2   -1    0    0    0  501 -0.00000000000E+00  0.00000000000E+00  0.32879497503E+02  0.32879497503E+02  0.00000000000E+00 0.  1.
          2   -1    0    0  501    0  0.00000000000E+00 -0.00000000000E+00 -0.67403077715E+02  0.67403077715E+02  0.00000000000E+00 0. -1.
         23    2    1    2    0    0  0.00000000000E+00  0.00000000000E+00 -0.34523580212E+02  0.10028257522E+03  0.94152627694E+02 0.  0.
        -11    1    3    3    0    0  0.14272950920E+02  0.32612685031E+02  0.15547552506E+02  0.38846244887E+02  0.00000000000E+00 0.  1.
         11    1    3    3    0    0 -0.14272950920E+02 -0.32612685031E+02 -0.50071132718E+02  0.61436330331E+02  0.00000000000E+00 0. -1.
<mgrwt>
<rscale>  0 0.94152628E+02</rscale>
<asrwt>0</asrwt>
<pdfrwt beam="2">  1        2 0.10369704E-01 0.94152628E+02</pdfrwt>
<pdfrwt beam="1">  1       -2 0.50583843E-02 0.94152628E+02</pdfrwt>
<totfact> 0.10001443E+05</totfact>
</mgrwt>
</event>
<event>
 5    1  0.6004828E+000  0.9318864E+02  0.7546771E-02  0.1295309E+00
          1   -1    0    0  501    0  0.00000000000E+00  0.00000000000E+00  0.19405183280E+03  0.19405183280E+03  0.00000000000E+00 0. -1.
         -1   -1    0    0    0  501 -0.00000000000E+00 -0.00000000000E+00 -0.11187889778E+02  0.11187889778E+02  0.00000000000E+00 0.  1.
         23    2    1    2    0    0  0.00000000000E+00  0.00000000000E+00  0.18286394302E+03  0.20523972258E+03  0.93188637003E+02 0.  0.
        -11    1    3    3    0    0 -0.29344624564E+02 -0.26712218277E+01  0.11937788431E+02  0.31792345140E+02  0.00000000000E+00 0.  1.
         11    1    3    3    0    0  0.29344624564E+02  0.26712218277E+01  0.17092615459E+03  0.17344737744E+03  0.00000000000E+00 0. -1.
<mgrwt>
<rscale>  0 0.93188637E+02</rscale>
<asrwt>0</asrwt>
<pdfrwt beam="1">  1        1 0.29854126E-01 0.93188637E+02</pdfrwt>
<pdfrwt beam="2">  1       -1 0.17212139E-02 0.93188637E+02</pdfrwt>
<totfact> 0.11100720E+05</totfact>
</mgrwt>
</event>
<event>
 5    1  0.6004828E+000  0.9399451E+02  0.7546771E-02  0.1293457E+00
         -2   -1    0    0    0  501 -0.00000000000E+00  0.00000000000E+00  0.79452259771E+01  0.79452259771E+01  0.00000000000E+00 0.  1.
          2   -1    0    0  501    0  0.00000000000E+00 -0.00000000000E+00 -0.27799611221E+03  0.27799611221E+03  0.00000000000E+00 0. -1.
         23    2    1    2    0    0  0.00000000000E+00  0.00000000000E+00 -0.27005088623E+03  0.28594133819E+03  0.93994509037E+02 0.  0.
        -11    1    3    3    0    0 -0.21310276550E+02  0.35508756796E+02 -0.67428882137E+02  0.79130612548E+02  0.00000000000E+00 0. -1.
         11    1    3    3    0    0  0.21310276550E+02 -0.35508756796E+02 -0.20262200410E+03  0.20681072564E+03  0.00000000000E+00 0.  1.
<mgrwt>
<rscale>  0 0.93994509E+02</rscale>
<asrwt>0</asrwt>
<pdfrwt beam="2">  1        2 0.42768630E-01 0.93994509E+02</pdfrwt>
<pdfrwt beam="1">  1       -2 0.12223425E-02 0.93994509E+02</pdfrwt>
<totfact> 0.16095778E+05</totfact>
</mgrwt>
</event>
<event>
 5    1  0.6004828E+000  0.9164266E+02  0.7546771E-02  0.1298922E+00
         -1   -1    0    0    0  501 -0.00000000000E+00  0.00000000000E+00  0.47514950069E+02  0.47514950069E+02  0.00000000000E+00 0.  1.
          1   -1    0    0  501    0  0.00000000000E+00 -0.00000000000E+00 -0.44188077884E+02  0.44188077884E+02  0.00000000000E+00 0. -1.
         23    2    1    2    0    0  0.00000000000E+00  0.00000000000E+00  0.33268721843E+01  0.91703027953E+02  0.91642660684E+02 0.  0.
        -11    1    3    3    0    0 -0.13386443662E+02  0.18463767386E+01  0.45475702635E+02  0.47440968700E+02  0.00000000000E+00 0.  1.
         11    1    3    3    0    0  0.13386443662E+02 -0.18463767386E+01 -0.42148830451E+02  0.44262059254E+02  0.00000000000E+00 0. -1.
<mgrwt>
<rscale>  0 0.91642661E+02</rscale>
<asrwt>0</asrwt>
<pdfrwt beam="2">  1        1 0.67981658E-02 0.91642661E+02</pdfrwt>
<pdfrwt beam="1">  1       -1 0.73099923E-02 0.91642661E+02</pdfrwt>
<totfact> 0.90728263E+04</totfact>
</mgrwt>
</event>
<event>
 5    1  0.6004828E+000  0.9215868E+02  0.7546771E-02  0.1297707E+00
         -1   -1    0    0    0  501 -0.00000000000E+00  0.00000000000E+00  0.71208852893E+01  0.71208852893E+01  0.00000000000E+00 0.  1.
          1   -1    0    0  501    0  0.00000000000E+00 -0.00000000000E+00 -0.29818001779E+03  0.29818001779E+03  0.00000000000E+00 0. -1.
         23    2    1    2    0    0  0.00000000000E+00  0.00000000000E+00 -0.29105913250E+03  0.30530090308E+03  0.92158682764E+02 0.  0.
        -11    1    3    3    0    0 -0.36240961342E+01 -0.45919446121E+02 -0.14968851296E+03  0.15661539043E+03  0.00000000000E+00 0. -1.
         11    1    3    3    0    0  0.36240961342E+01  0.45919446121E+02 -0.14137061953E+03  0.14868551265E+03  0.00000000000E+00 0.  1.
<mgrwt>
<rscale>  0 0.92158683E+02</rscale>
<asrwt>0</asrwt>
<pdfrwt beam="2">  1        1 0.45873846E-01 0.92158683E+02</pdfrwt>
<pdfrwt beam="1">  1       -1 0.10955209E-02 0.92158683E+02</pdfrwt>
<totfact> 0.12436804E+05</totfact>
</mgrwt>
</event>
<event>
 5    1  0.6004828E+000  0.9290116E+02  0.7546771E-02  0.1295974E+00
         -2   -1    0    0    0  501 -0.00000000000E+00  0.00000000000E+00  0.57575247619E+01  0.57575247619E+01  0.00000000000E+00 0.  1.
          2   -1    0    0  501    0  0.00000000000E+00 -0.00000000000E+00 -0.37475418592E+03  0.37475418592E+03  0.00000000000E+00 0. -1.
         23    2    1    2    0    0  0.00000000000E+00  0.00000000000E+00 -0.36899666116E+03  0.38051171068E+03  0.92901162641E+02 0.  0.
        -11    1    3    3    0    0  0.37219788777E+02  0.27088581523E+02 -0.15906673558E+03  0.16559387155E+03  0.00000000000E+00 0.  1.
         11    1    3    3    0    0 -0.37219788777E+02 -0.27088581523E+02 -0.20992992558E+03  0.21491783913E+03  0.00000000000E+00 0. -1.
<mgrwt>
<rscale>  0 0.92901163E+02</rscale>
<asrwt>0</asrwt>
<pdfrwt beam="2">  1        2 0.57654511E-01 0.92901163E+02</pdfrwt>
<pdfrwt beam="1">  1       -2 0.88577272E-03 0.92901163E+02</pdfrwt>
<totfact> 0.18550188E+05</totfact>
</mgrwt>
</event>
<event>
 5    1  0.6004828E+000  0.9411726E+02  0.7546771E-02  0.1293177E+00
          1   -1    0    0  501    0  0.00000000000E+00  0.00000000000E+00  0.11765922280E+03  0.11765922280E+03  0.00000000000E+00 0. -1.
         -1   -1    0    0    0  501 -0.00000000000E+00 -0.00000000000E+00 -0.18821428907E+02  0.18821428907E+02  0.00000000000E+00 0.  1.
         23    2    1    2    0    0  0.00000000000E+00  0.00000000000E+00  0.98837793889E+02  0.13648065170E+03  0.94117260841E+02 0.  0.
        -11    1    3    3    0    0 -0.22135875789E+02 -0.37940589758E+02  0.73900880333E+02  0.85969910213E+02  0.00000000000E+00 0. -1.
         11    1    3    3    0    0  0.22135875789E+02  0.37940589758E+02  0.24936913556E+02  0.50510741489E+02  0.00000000000E+00 0.  1.
<mgrwt>
<rscale>  0 0.94117261E+02</rscale>
<asrwt>0</asrwt>
<pdfrwt beam="1">  1        1 0.18101418E-01 0.94117261E+02</pdfrwt>
<pdfrwt beam="2">  1       -1 0.28956045E-02 0.94117261E+02</pdfrwt>
<totfact> 0.98487041E+04</totfact>
</mgrwt>
</event>
<event>
 5    1  0.6004828E+000  0.9073300E+02  0.7546771E-02  0.1301086E+00
          3   -1    0    0  501    0  0.00000000000E+00  0.00000000000E+00  0.11944422452E+03  0.11944422452E+03  0.00000000000E+00 0. -1.
         -3   -1    0    0    0  501 -0.00000000000E+00 -0.00000000000E+00 -0.17230796407E+02  0.17230796407E+02  0.00000000000E+00 0.  1.
         23    2    1    2    0    0  0.00000000000E+00  0.00000000000E+00  0.10221342812E+03  0.13667502093E+03  0.90732995426E+02 0.  0.
        -11    1    3    3    0    0 -0.15931489519E+02  0.34077997574E+02  0.12909796364E+02  0.39771662262E+02  0.00000000000E+00 0.  1.
         11    1    3    3    0    0  0.15931489519E+02 -0.34077997574E+02  0.89303631754E+02  0.96903358669E+02  0.00000000000E+00 0. -1.
<mgrwt>
<rscale>  0 0.90732995E+02</rscale>
<asrwt>0</asrwt>
<pdfrwt beam="1">  1        3 0.18376034E-01 0.90732995E+02</pdfrwt>
<pdfrwt beam="2">  1       -3 0.26508918E-02 0.90732995E+02</pdfrwt>
<totfact> 0.32569921E+04</totfact>
</mgrwt>
</event>
<event>
 5    1  0.6004828E+000  0.9016045E+02  0.7546771E-02  0.1302464E+00
         -2   -1    0    0    0  501 -0.00000000000E+00  0.00000000000E+00  0.26273196027E+03  0.26273196027E+03  0.00000000000E+00 0.  1.
          2   -1    0    0  501    0  0.00000000000E+00 -0.00000000000E+00 -0.77349800459E+01  0.77349800459E+01  0.00000000000E+00 0. -1.
         23    2    1    2    0    0  0.00000000000E+00  0.00000000000E+00  0.25499698023E+03  0.27046694032E+03  0.90160445210E+02 0.  0.
        -11    1    3    3    0    0  0.63160665640E+01  0.38514668108E+02  0.19517492227E+03  0.19903899779E+03  0.00000000000E+00 0.  1.
         11    1    3    3    0    0 -0.63160665640E+01 -0.38514668108E+02  0.59822057955E+02  0.71427942532E+02  0.00000000000E+00 0. -1.
<mgrwt>
<rscale>  0 0.90160445E+02</rscale>
<asrwt>0</asrwt>
<pdfrwt beam="2">  1        2 0.11899971E-02 0.90160445E+02</pdfrwt>
<pdfrwt beam="1">  1       -2 0.40420295E-01 0.90160445E+02</pdfrwt>
<totfact> 0.56378191E+04</totfact>
</mgrwt>
</event>
<event>
 5    1  0.6004828E+000  0.1001438E+03  0.7546771E-02  0.1279994E+00
          2   -1    0    0  501    0  0.00000000000E+00  0.00000000000E+00  0.10936997433E+03  0.10936997433E+03  0.00000000000E+00 0. -1.
         -2   -1    0    0    0  501 -0.00000000000E+00 -0.00000000000E+00 -0.22923971188E+02  0.22923971188E+02  0.00000000000E+00 0.  1.
         23    2    1    2    0    0  0.00000000000E+00  0.00000000000E+00  0.86446003146E+02  0.13229394552E+03  0.10014377945E+03 0.  0.
        -11    1    3    3    0    0 -0.64268535419E+01  0.41245998286E+02  0.79752980046E+02  0.90017079753E+02  0.00000000000E+00 0. -1.
         11    1    3    3    0    0  0.64268535419E+01 -0.41245998286E+02  0.66930231004E+01  0.42276865769E+02  0.00000000000E+00 0.  1.
<mgrwt>
<rscale>  0 0.10014378E+03</rscale>
<asrwt>0</asrwt>
<pdfrwt beam="1">  1        2 0.16826150E-01 0.10014378E+03</pdfrwt>
<pdfrwt beam="2">  1       -2 0.35267649E-02 0.10014378E+03</pdfrwt>
<totfact> 0.97308022E+04</totfact>
</mgrwt>
</event>
<event>
 5    1  0.6004828E+000  0.8830519E+02  0.7546771E-02  0.1307009E+00
         -1   -1    0    0    0  501 -0.00000000000E+00  0.00000000000E+00  0.11368875203E+02  0.11368875203E+02  0.00000000000E+00 0.  1.
          1   -1    0    0  501    0  0.00000000000E+00 -0.00000000000E+00 -0.17147269477E+03  0.17147269477E+03  0.00000000000E+00 0. -1.
         23    2    1    2    0    0  0.00000000000E+00  0.00000000000E+00 -0.16010381957E+03  0.18284156998E+03  0.88305190508E+02 0.  0.
        -11    1    3    3    0    0 -0.14584763991E+01  0.38092464692E+02 -0.33924838558E+02  0.51029968556E+02  0.00000000000E+00 0.  1.
         11    1    3    3    0    0  0.14584763991E+01 -0.38092464692E+02 -0.12617898101E+03  0.13181160142E+03  0.00000000000E+00 0. -1.
<mgrwt>
<rscale>  0 0.88305191E+02</rscale>
<asrwt>0</asrwt>
<pdfrwt beam="2">  1        1 0.26380415E-01 0.88305191E+02</pdfrwt>
<pdfrwt beam="1">  1       -1 0.17490577E-02 0.88305191E+02</pdfrwt>
<totfact> 0.12526922E+05</totfact>
</mgrwt>
</event>
<event>
 5    1  0.6004828E+000  0.9038670E+02  0.7546771E-02  0.1301918E+00
          1   -1    0    0  501    0  0.00000000000E+00  0.00000000000E+00  0.66834790861E+02  0.66834790861E+02  0.00000000000E+00 0. -1.
         -1   -1    0    0    0  501 -0.00000000000E+00 -0.00000000000E+00 -0.30559513729E+02  0.30559513729E+02  0.00000000000E+00 0.  1.
         23    2    1    2    0    0  0.00000000000E+00  0.00000000000E+00  0.36275277132E+02  0.97394304589E+02  0.90386696120E+02 0.  0.
        -11    1    3    3    0    0 -0.15033998060E+02 -0.12861050999E+02  0.61920488709E+02  0.65004420253E+02  0.00000000000E+00 0. -1.
         11    1    3    3    0    0  0.15033998060E+02  0.12861050999E+02 -0.25645211577E+02  0.32389884336E+02  0.00000000000E+00 0.  1.
<mgrwt>
<rscale>  0 0.90386696E+02</rscale>
<asrwt>0</asrwt>
<pdfrwt beam="1">  1        1 0.10282276E-01 0.90386696E+02</pdfrwt>
<pdfrwt beam="2">  1       -1 0.47014636E-02 0.90386696E+02</pdfrwt>
<totfact> 0.10034828E+05</totfact>
</mgrwt>
</event>
<event>
 5    1  0.6004828E+000  0.8798106E+02  0.7546771E-02  0.1307816E+00
         -1   -1    0    0    0  501 -0.00000000000E+00  0.00000000000E+00  0.27800558469E+02  0.27800558469E+02  0.00000000000E+00 0.  1.
          1   -1    0    0  501    0  0.00000000000E+00 -0.00000000000E+00 -0.69608911416E+02  0.69608911416E+02  0.00000000000E+00 0. -1.
         23    2    1    2    0    0  0.00000000000E+00  0.00000000000E+00 -0.41808352947E+02  0.97409469886E+02  0.87981057321E+02 0.  0.
        -11    1    3    3    0    0 -0.37750216305E+01  0.23615133665E+02 -0.61782998078E+02  0.66250012663E+02  0.00000000000E+00 0. -1.
         11    1    3    3    0    0  0.37750216305E+01 -0.23615133665E+02  0.19974645131E+02  0.31159457223E+02  0.00000000000E+00 0.  1.
<mgrwt>
<rscale>  0 0.87981057E+02</rscale>
<asrwt>0</asrwt>
<pdfrwt beam="2">  1        1 0.10709063E-01 0.87981057E+02</pdfrwt>
<pdfrwt beam="1">  1       -1 0.42770090E-02 0.87981057E+02</pdfrwt>
<totfact> 0.10874129E+05</totfact>
</mgrwt>
</event>
<event>
 5    1  0.6004828E+000  0.9108105E+02  0.7546771E-02  0.1300255E+00
         -2   -1    0    0    0  501 -0.00000000000E+00  0.00000000000E+00  0.17867400648E+02  0.17867400648E+02  0.00000000000E+00 0.  1.
          2   -1    0    0  501    0  0.00000000000E+00 -0.00000000000E+00 -0.11607391900E+03  0.11607391900E+03  0.00000000000E+00 0. -1.
         23    2    1    2    0    0  0.00000000000E+00  0.00000000000E+00 -0.98206518354E+02  0.13394131965E+03  0.91081045570E+02 0.  0.
        -11    1    3    3    0    0 -0.31855057137E+02 -0.17030661609E+02 -0.83190164221E+01  0.37067426863E+02  0.00000000000E+00 0.  1.
         11    1    3    3    0    0  0.31855057137E+02  0.17030661609E+02 -0.89887501932E+02  0.96873892786E+02  0.00000000000E+00 0. -1.
<mgrwt>
<rscale>  0 0.91081046E+02</rscale>
<asrwt>0</asrwt>
<pdfrwt beam="2">  1        2 0.17857525E-01 0.91081046E+02</pdfrwt>
<pdfrwt beam="1">  1       -2 0.27488310E-02 0.91081046E+02</pdfrwt>
<totfact> 0.12886504E+05</totfact>
</mgrwt>
</event>
<event>
 5    1  0.6004828E+000  0.9206949E+02  0.7546771E-02  0.1297916E+00
         -2   -1    0    0    0  501 -0.00000000000E+00  0.00000000000E+00  0.26984779594E+02  0.26984779594E+02  0.00000000000E+00 0.  1.
          2   -1    0    0  501    0  0.00000000000E+00 -0.00000000000E+00 -0.78533084499E+02  0.78533084499E+02  0.00000000000E+00 0. -1.
         23    2    1    2    0    0  0.00000000000E+00  0.00000000000E+00 -0.51548304905E+02  0.10551786409E+03  0.92069494972E+02 0.  0.
        -11    1    3    3    0    0  0.29071180498E+02  0.32608121605E+02 -0.91354436576E+01  0.44630476818E+02  0.00000000000E+00 0.  1.
         11    1    3    3    0    0 -0.29071180498E+02 -0.32608121605E+02 -0.42412861247E+02  0.60887387276E+02  0.00000000000E+00 0. -1.
<mgrwt>
<rscale>  0 0.92069495E+02</rscale>
<asrwt>0</asrwt>
<pdfrwt beam="2">  1        2 0.12082013E-01 0.92069495E+02</pdfrwt>
<pdfrwt beam="1">  1       -2 0.41515045E-02 0.92069495E+02</pdfrwt>
<totfact> 0.11119085E+05</totfact>
</mgrwt>
</event>
<event>
 5    1  0.6004828E+000  0.9151360E+02  0.7546771E-02  0.1299227E+00
          4   -1    0    0  501    0  0.00000000000E+00  0.00000000000E+00  0.81631838955E+02  0.81631838955E+02  0.00000000000E+00 0. -1.
         -4   -1    0    0    0  501 -0.00000000000E+00 -0.00000000000E+00 -0.25647893685E+02  0.25647893685E+02  0.00000000000E+00 0.  1.
         23    2    1    2    0    0  0.00000000000E+00  0.00000000000E+00  0.55983945270E+02  0.10727973264E+03  0.91513599576E+02 0.  0.
        -11    1    3    3    0    0  0.23263910644E+02 -0.10533306347E+02  0.72500485154E+02  0.76866640545E+02  0.00000000000E+00 0. -1.
         11    1    3    3    0    0 -0.23263910644E+02  0.10533306347E+02 -0.16516539884E+02  0.30413092096E+02  0.00000000000E+00 0.  1.
<mgrwt>
<rscale>  0 0.91513600E+02</rscale>
<asrwt>0</asrwt>
<pdfrwt beam="1">  1        4 0.12558744E-01 0.91513600E+02</pdfrwt>
<pdfrwt beam="2">  1       -4 0.39458299E-02 0.91513600E+02</pdfrwt>
<totfact> 0.25756041E+04</totfact>
</mgrwt>
</event>
<event>
 5    1  0.6004828E+000  0.9014131E+02  0.7546771E-02  0.1302510E+00
          2   -1    0    0  501    0  0.00000000000E+00  0.00000000000E+00  0.15989648891E+03  0.15989648891E+03  0.00000000000E+00 0. -1.
         -2   -1    0    0    0  501 -0.00000000000E+00 -0.00000000000E+00 -0.12704243250E+02  0.12704243250E+02  0.00000000000E+00 0.  1.
         23    2    1    2    0    0  0.00000000000E+00  0.00000000000E+00  0.14719224566E+03  0.17260073216E+03  0.90141308840E+02 0.  0.
        -11    1    3    3    0    0  0.43637119615E+02 -0.53817128435E+01  0.54621165132E+02  0.70118704508E+02  0.00000000000E+00 0.  1.
         11    1    3    3    0    0 -0.43637119615E+02  0.53817128435E+01  0.92571080527E+02  0.10248202765E+03  0.00000000000E+00 0. -1.
<mgrwt>
<rscale>  0 0.90141309E+02</rscale>
<asrwt>0</asrwt>
<pdfrwt beam="1">  1        2 0.24599458E-01 0.90141309E+02</pdfrwt>
<pdfrwt beam="2">  1       -2 0.19544991E-02 0.90141309E+02</pdfrwt>
<totfact> 0.14738886E+05</totfact>
</mgrwt>
</event>
<event>
 5    1  0.6004828E+000  0.8944276E+02  0.7546771E-02  0.1304207E+00
          3   -1    0    0  501    0  0.00000000000E+00  0.00000000000E+00  0.48779762511E+02  0.48779762511E+02  0.00000000000E+00 0. -1.
         -3   -1    0    0    0  501 -0.00000000000E+00 -0.00000000000E+00 -0.41000648299E+02  0.41000648299E+02  0.00000000000E+00 0.  1.
         23    2    1    2    0    0  0.00000000000E+00  0.00000000000E+00  0.77791142124E+01  0.89780410810E+02  0.89442761291E+02 0.  0.
        -11    1    3    3    0    0 -0.13620850682E+02 -0.21923988570E+02 -0.32769717675E+02  0.41713825581E+02  0.00000000000E+00 0.  1.
         11    1    3    3    0    0  0.13620850682E+02  0.21923988570E+02  0.40548831888E+02  0.48066585229E+02  0.00000000000E+00 0. -1.
<mgrwt>
<rscale>  0 0.89442761E+02</rscale>
<asrwt>0</asrwt>
<pdfrwt beam="1">  1        3 0.75045789E-02 0.89442761E+02</pdfrwt>
<pdfrwt beam="2">  1       -3 0.63077920E-02 0.89442761E+02</pdfrwt>
<totfact> 0.37345811E+04</totfact>
</mgrwt>
</event>
<event>
 5    1  0.6004828E+000  0.9159522E+02  0.7546771E-02  0.1299034E+00
         -4   -1    0    0    0  501 -0.00000000000E+00  0.00000000000E+00  0.55125614029E+02  0.55125614029E+02  0.00000000000E+00 0.  1.
          4   -1    0    0  501    0  0.00000000000E+00 -0.00000000000E+00 -0.38048034426E+02  0.38048034426E+02  0.00000000000E+00 0. -1.
         23    2    1    2    0    0  0.00000000000E+00  0.00000000000E+00  0.17077579603E+02  0.93173648455E+02  0.91595223900E+02 0.  0.
        -11    1    3    3    0    0  0.41851678304E+02  0.47329017987E+01  0.26833653177E+02  0.49940046848E+02  0.00000000000E+00 0.  1.
         11    1    3    3    0    0 -0.41851678304E+02 -0.47329017987E+01 -0.97560735739E+01  0.43233601607E+02  0.00000000000E+00 0. -1.
<mgrwt>
<rscale>  0 0.91595224E+02</rscale>
<asrwt>0</asrwt>
<pdfrwt beam="2">  1        4 0.58535438E-02 0.91595224E+02</pdfrwt>
<pdfrwt beam="1">  1       -4 0.84808637E-02 0.91595224E+02</pdfrwt>
<totfact> 0.26555646E+04</totfact>
</mgrwt>
</event>
<event>
 5    1  0.6004828E+000  0.6377770E+02  0.7546771E-02  0.1382629E+00
          1   -1    0    0  501    0  0.00000000000E+00  0.00000000000E+00  0.14607726345E+02  0.14607726345E+02  0.00000000000E+00 0. -1.
         -1   -1    0    0    0  501 -0.00000000000E+00 -0.00000000000E+00 -0.69613765094E+02  0.69613765094E+02  0.00000000000E+00 0.  1.
         23    2    1    2    0    0  0.00000000000E+00  0.00000000000E+00 -0.55006038749E+02  0.84221491440E+02  0.63777702385E+02 0.  0.
        -11    1    3    3    0    0 -0.20600788225E+01 -0.18983321332E+02  0.62236838851E+01  0.20083442301E+02  0.00000000000E+00 0. -1.
         11    1    3    3    0    0  0.20600788225E+01  0.18983321332E+02 -0.61229722634E+02  0.64138049139E+02  0.00000000000E+00 0.  1.
<mgrwt>
<rscale>  0 0.63777702E+02</rscale>
<asrwt>0</asrwt>
<pdfrwt beam="1">  1        1 0.22473425E-02 0.63777702E+02</pdfrwt>
<pdfrwt beam="2">  1       -1 0.10709810E-01 0.63777702E+02</pdfrwt>
<totfact> 0.21421340E+05</totfact>
</mgrwt>
</event>
<event>
 5    1  0.6004828E+000  0.8664489E+02  0.7546771E-02  0.1311186E+00
          1   -1    0    0  501    0  0.00000000000E+00  0.00000000000E+00  0.10188526257E+03  0.10188526257E+03  0.00000000000E+00 0. -1.
         -1   -1    0    0    0  501 -0.00000000000E+00 -0.00000000000E+00 -0.18421055725E+02  0.18421055725E+02  0.00000000000E+00 0.  1.
         23    2    1    2    0    0  0.00000000000E+00  0.00000000000E+00  0.83464206850E+02  0.12030631830E+03  0.86644886737E+02 0.  0.
        -11    1    3    3    0    0 -0.33746743365E+02 -0.24904378603E+02  0.26664278972E+02  0.49699643202E+02  0.00000000000E+00 0. -1.
         11    1    3    3    0    0  0.33746743365E+02  0.24904378603E+02  0.56799927877E+02  0.70606675097E+02  0.00000000000E+00 0.  1.
<mgrwt>
<rscale>  0 0.86644887E+02</rscale>
<asrwt>0</asrwt>
<pdfrwt beam="1">  1        1 0.15674655E-01 0.86644887E+02</pdfrwt>
<pdfrwt beam="2">  1       -1 0.28340086E-02 0.86644887E+02</pdfrwt>
<totfact> 0.12032271E+05</totfact>
</mgrwt>
</event>
<event>
 5    1  0.6004828E+000  0.9052567E+02  0.7546771E-02  0.1301584E+00
         -1   -1    0    0    0  501 -0.00000000000E+00  0.00000000000E+00  0.18459793643E+02  0.18459793643E+02  0.00000000000E+00 0.  1.
          1   -1    0    0  501    0  0.00000000000E+00 -0.00000000000E+00 -0.11098304716E+03  0.11098304716E+03  0.00000000000E+00 0. -1.
         23    2    1    2    0    0  0.00000000000E+00  0.00000000000E+00 -0.92523253519E+02  0.12944284080E+03  0.90525668149E+02 0.  0.
        -11    1    3    3    0    0 -0.20554219266E+02  0.92802960871E+01  0.98540476258E+01  0.24611015414E+02  0.00000000000E+00 0.  1.
         11    1    3    3    0    0  0.20554219266E+02 -0.92802960871E+01 -0.10237730114E+03  0.10483182539E+03  0.00000000000E+00 0. -1.
<mgrwt>
<rscale>  0 0.90525668E+02</rscale>
<asrwt>0</asrwt>
<pdfrwt beam="2">  1        1 0.17074315E-01 0.90525668E+02</pdfrwt>
<pdfrwt beam="1">  1       -1 0.28399683E-02 0.90525668E+02</pdfrwt>
<totfact> 0.10838944E+05</totfact>
</mgrwt>
</event>
<event>
 5    1  0.6004828E+000  0.9252906E+02  0.7546771E-02  0.1296840E+00
         -1   -1    0    0    0  501 -0.00000000000E+00  0.00000000000E+00  0.25655810985E+02  0.25655810985E+02  0.00000000000E+00 0.  1.
          1   -1    0    0  501    0  0.00000000000E+00 -0.00000000000E+00 -0.83427747325E+02  0.83427747325E+02  0.00000000000E+00 0. -1.
         23    2    1    2    0    0  0.00000000000E+00  0.00000000000E+00 -0.57771936340E+02  0.10908355831E+03  0.92529055248E+02 0.  0.
        -11    1    3    3    0    0 -0.16518868402E+02  0.43175776866E+02 -0.31055227632E+02  0.55690644497E+02  0.00000000000E+00 0. -1.
         11    1    3    3    0    0  0.16518868402E+02 -0.43175776866E+02 -0.26716708708E+02  0.53392913813E+02  0.00000000000E+00 0.  1.
<mgrwt>
<rscale>  0 0.92529055E+02</rscale>
<asrwt>0</asrwt>
<pdfrwt beam="2">  1        1 0.12835038E-01 0.92529055E+02</pdfrwt>
<pdfrwt beam="1">  1       -1 0.39470479E-02 0.92529055E+02</pdfrwt>
<totfact> 0.97397777E+04</totfact>
</mgrwt>
</event>
<event>
 5    1  0.6004828E+000  0.9348615E+02  0.7546771E-02  0.1294623E+00
          3   -1    0    0  501    0  0.00000000000E+00  0.00000000000E+00  0.25199669352E+02  0.25199669352E+02  0.00000000000E+00 0.  1.
         -3   -1    0    0    0  501 -0.00000000000E+00 -0.00000000000E+00 -0.86704112185E+02  0.86704112185E+02  0.00000000000E+00 0. -1.
         23    2    1    2    0    0  0.00000000000E+00  0.00000000000E+00 -0.61504442833E+02  0.11190378154E+03  0.93486147819E+02 0.  0.
        -11    1    3    3    0    0 -0.17457750506E+02 -0.38329614320E+02 -0.55018836473E+02  0.69289283107E+02  0.00000000000E+00 0.  1.
         11    1    3    3    0    0  0.17457750506E+02  0.38329614320E+02 -0.64856063598E+01  0.42614498430E+02  0.00000000000E+00 0. -1.
<mgrwt>
<rscale>  0 0.93486148E+02</rscale>
<asrwt>0</asrwt>
<pdfrwt beam="1">  1        3 0.38768722E-02 0.93486148E+02</pdfrwt>
<pdfrwt beam="2">  1       -3 0.13339094E-01 0.93486148E+02</pdfrwt>
<totfact> 0.31582578E+04</totfact>
</mgrwt>
</event>
<event>
 5    1  0.6004828E+000  0.9216258E+02  0.7546771E-02  0.1297698E+00
         -4   -1    0    0    0  501 -0.00000000000E+00  0.00000000000E+00  0.53571187258E+02  0.53571187258E+02  0.00000000000E+00 0.  1.
          4   -1    0    0  501    0  0.00000000000E+00 -0.00000000000E+00 -0.39638566835E+02  0.39638566835E+02  0.00000000000E+00 0. -1.
         23    2    1    2    0    0  0.00000000000E+00  0.00000000000E+00  0.13932620423E+02  0.93209754094E+02  0.92162575628E+02 0.  0.
        -11    1    3    3    0    0 -0.40041531116E+02  0.11042000397E+02  0.27148882961E+02  0.49621687122E+02  0.00000000000E+00 0.  1.
         11    1    3    3    0    0  0.40041531116E+02 -0.11042000397E+02 -0.13216262538E+02  0.43588066971E+02  0.00000000000E+00 0. -1.
<mgrwt>
<rscale>  0 0.92162576E+02</rscale>
<asrwt>0</asrwt>
<pdfrwt beam="2">  1        4 0.60982410E-02 0.92162576E+02</pdfrwt>
<pdfrwt beam="1">  1       -4 0.82417212E-02 0.92162576E+02</pdfrwt>
<totfact> 0.26110921E+04</totfact>
</mgrwt>
</event>
<event>
 5    1  0.6004828E+000  0.8772497E+02  0.7546771E-02  0.1308456E+00
          2   -1    0    0  501    0  0.00000000000E+00  0.00000000000E+00  0.26075332467E+02  0.26075332467E+02  0.00000000000E+00 0.  1.
         -2   -1    0    0    0  501 -0.00000000000E+00 -0.00000000000E+00 -0.73783054457E+02  0.73783054457E+02  0.00000000000E+00 0. -1.
         23    2    1    2    0    0  0.00000000000E+00  0.00000000000E+00 -0.47707721991E+02  0.99858386924E+02  0.87724971938E+02 0.  0.
        -11    1    3    3    0    0 -0.10814425905E+02 -0.42271537888E+02 -0.18752628863E+02  0.47492060519E+02  0.00000000000E+00 0.  1.
         11    1    3    3    0    0  0.10814425905E+02  0.42271537888E+02 -0.28955093128E+02  0.52366326405E+02  0.00000000000E+00 0. -1.
<mgrwt>
<rscale>  0 0.87724972E+02</rscale>
<asrwt>0</asrwt>
<pdfrwt beam="1">  1        2 0.40115896E-02 0.87724972E+02</pdfrwt>
<pdfrwt beam="2">  1       -2 0.11351239E-01 0.87724972E+02</pdfrwt>
<totfact> 0.95584706E+04</totfact>
</mgrwt>
</event>
<event>
 5    1  0.6004828E+000  0.9014400E+02  0.7546771E-02  0.1302503E+00
          2   -1    0    0  501    0  0.00000000000E+00  0.00000000000E+00  0.55364452355E+02  0.55364452355E+02  0.00000000000E+00 0. -1.
         -2   -1    0    0    0  501 -0.00000000000E+00 -0.00000000000E+00 -0.36692949311E+02  0.36692949311E+02  0.00000000000E+00 0.  1.
         23    2    1    2    0    0  0.00000000000E+00  0.00000000000E+00  0.18671503044E+02  0.92057401667E+02  0.90143996892E+02 0.  0.
        -11    1    3    3    0    0  0.11347983894E+02  0.26707098299E+02  0.44556049594E+02  0.53172242697E+02  0.00000000000E+00 0. -1.
         11    1    3    3    0    0 -0.11347983894E+02 -0.26707098299E+02 -0.25884546550E+02  0.38885158970E+02  0.00000000000E+00 0.  1.
<mgrwt>
<rscale>  0 0.90143997E+02</rscale>
<asrwt>0</asrwt>
<pdfrwt beam="1">  1        2 0.85176081E-02 0.90143997E+02</pdfrwt>
<pdfrwt beam="2">  1       -2 0.56450691E-02 0.90143997E+02</pdfrwt>
<totfact> 0.10722207E+05</totfact>
</mgrwt>
</event>
<event>
 5    1  0.6004828E+000  0.8539132E+02  0.7546771E-02  0.1314412E+00
          2   -1    0    0  501    0  0.00000000000E+00  0.00000000000E+00  0.16295205646E+02  0.16295205646E+02  0.00000000000E+00 0. -1.
         -2   -1    0    0    0  501 -0.00000000000E+00 -0.00000000000E+00 -0.11186843782E+03  0.11186843782E+03  0.00000000000E+00 0.  1.
         23    2    1    2    0    0  0.00000000000E+00  0.00000000000E+00 -0.95573232171E+02  0.12816364346E+03  0.85391315707E+02 0.  0.
        -11    1    3    3    0    0 -0.28956871147E+02  0.16624098549E+02 -0.87724551113E+02  0.93864039478E+02  0.00000000000E+00 0.  1.
         11    1    3    3    0    0  0.28956871147E+02 -0.16624098549E+02 -0.78486810580E+01  0.34299603985E+02  0.00000000000E+00 0. -1.
<mgrwt>
<rscale>  0 0.85391316E+02</rscale>
<asrwt>0</asrwt>
<pdfrwt beam="1">  1        2 0.25069548E-02 0.85391316E+02</pdfrwt>
<pdfrwt beam="2">  1       -2 0.17210528E-01 0.85391316E+02</pdfrwt>
<totfact> 0.90854158E+04</totfact>
</mgrwt>
</event>
<event>
 5    1  0.6004828E+000  0.9069967E+02  0.7546771E-02  0.1301166E+00
          1   -1    0    0  501    0  0.00000000000E+00  0.00000000000E+00  0.94982446995E+01  0.94982446995E+01  0.00000000000E+00 0. -1.
         -1   -1    0    0    0  501 -0.00000000000E+00 -0.00000000000E+00 -0.21652502667E+03  0.21652502667E+03  0.00000000000E+00 0.  1.
         23    2    1    2    0    0  0.00000000000E+00  0.00000000000E+00 -0.20702678197E+03  0.22602327137E+03  0.90699673359E+02 0.  0.
        -11    1    3    3    0    0 -0.41303154149E+02  0.52734423228E+01 -0.14828951019E+03  0.15402447393E+03  0.00000000000E+00 0.  1.
         11    1    3    3    0    0  0.41303154149E+02 -0.52734423228E+01 -0.58737271777E+02  0.71998797437E+02  0.00000000000E+00 0. -1.
<mgrwt>
<rscale>  0 0.90699673E+02</rscale>
<asrwt>0</asrwt>
<pdfrwt beam="1">  1        1 0.14612687E-02 0.90699673E+02</pdfrwt>
<pdfrwt beam="2">  1       -1 0.33311537E-01 0.90699673E+02</pdfrwt>
<totfact> 0.68753820E+04</totfact>
</mgrwt>
</event>
<event>
 5    1  0.6004828E+000  0.9111863E+02  0.7546771E-02  0.1300165E+00
          1   -1    0    0  501    0  0.00000000000E+00  0.00000000000E+00  0.10401257960E+03  0.10401257960E+03  0.00000000000E+00 0. -1.
         -1   -1    0    0    0  501 -0.00000000000E+00 -0.00000000000E+00 -0.19955772620E+02  0.19955772620E+02  0.00000000000E+00 0.  1.
         23    2    1    2    0    0  0.00000000000E+00  0.00000000000E+00  0.84056806981E+02  0.12396835222E+03  0.91118634498E+02 0.  0.
        -11    1    3    3    0    0 -0.26183798115E+02  0.12014170977E+02  0.90047480662E+02  0.94543536858E+02  0.00000000000E+00 0. -1.
         11    1    3    3    0    0  0.26183798115E+02 -0.12014170977E+02 -0.59906736816E+01  0.29424815363E+02  0.00000000000E+00 0.  1.
<mgrwt>
<rscale>  0 0.91118634E+02</rscale>
<asrwt>0</asrwt>
<pdfrwt beam="1">  1        1 0.16001935E-01 0.91118634E+02</pdfrwt>
<pdfrwt beam="2">  1       -1 0.30701189E-02 0.91118634E+02</pdfrwt>
<totfact> 0.10532364E+05</totfact>
</mgrwt>
</event>
<event>
 5    1  0.6004828E+000  0.8976893E+02  0.7546771E-02  0.1303412E+00
         -1   -1    0    0    0  501 -0.00000000000E+00  0.00000000000E+00  0.12608529030E+03  0.12608529030E+03  0.00000000000E+00 0.  1.
          1   -1    0    0  501    0  0.00000000000E+00 -0.00000000000E+00 -0.15978193719E+02  0.15978193719E+02  0.00000000000E+00 0. -1.
         23    2    1    2    0    0  0.00000000000E+00  0.00000000000E+00  0.11010709658E+03  0.14206348402E+03  0.89768929894E+02 0.  0.
        -11    1    3    3    0    0  0.34166962634E+02  0.21105044285E+02  0.86776040867E+02  0.95618437022E+02  0.00000000000E+00 0.  1.
         11    1    3    3    0    0 -0.34166962634E+02 -0.21105044285E+02  0.23331055714E+02  0.46445046997E+02  0.00000000000E+00 0. -1.
<mgrwt>
<rscale>  0 0.89768930E+02</rscale>
<asrwt>0</asrwt>
<pdfrwt beam="2">  1        1 0.24581837E-02 0.89768930E+02</pdfrwt>
<pdfrwt beam="1">  1       -1 0.19397736E-01 0.89768930E+02</pdfrwt>
<totfact> 0.80918610E+04</totfact>
</mgrwt>
</event>
<event>
 5    1  0.6004828E+000  0.9057339E+02  0.7546771E-02  0.1301469E+00
          2   -1    0    0  501    0  0.00000000000E+00  0.00000000000E+00  0.21967959521E+03  0.21967959521E+03  0.00000000000E+00 0. -1.
         -2   -1    0    0    0  501 -0.00000000000E+00 -0.00000000000E+00 -0.93357992733E+01  0.93357992733E+01  0.00000000000E+00 0.  1.
         23    2    1    2    0    0  0.00000000000E+00  0.00000000000E+00  0.21034379594E+03  0.22901539448E+03  0.90573386937E+02 0.  0.
        -11    1    3    3    0    0  0.39835993114E+02 -0.15442749947E+02  0.67202205160E+02  0.79633669084E+02  0.00000000000E+00 0.  1.
         11    1    3    3    0    0 -0.39835993114E+02  0.15442749947E+02  0.14314159078E+03  0.14938172540E+03  0.00000000000E+00 0. -1.
<mgrwt>
<rscale>  0 0.90573387E+02</rscale>
<asrwt>0</asrwt>
<pdfrwt beam="1">  1        2 0.33796857E-01 0.90573387E+02</pdfrwt>
<pdfrwt beam="2">  1       -2 0.14362770E-02 0.90573387E+02</pdfrwt>
<totfact> 0.16293311E+05</totfact>
</mgrwt>
</event>
<event>
 5    1  0.6004828E+000  0.9586718E+02  0.7546771E-02  0.1289235E+00
          3   -1    0    0  501    0  0.00000000000E+00  0.00000000000E+00  0.11472260673E+02  0.11472260673E+02  0.00000000000E+00 0. -1.
         -3   -1    0    0    0  501 -0.00000000000E+00 -0.00000000000E+00 -0.20027692291E+03  0.20027692291E+03  0.00000000000E+00 0.  1.
         23    2    1    2    0    0  0.00000000000E+00  0.00000000000E+00 -0.18880466224E+03  0.21174918358E+03  0.95867180335E+02 0.  0.
        -11    1    3    3    0    0 -0.42152196392E+02  0.16678903774E+02 -0.59996739615E+02  0.75197089413E+02  0.00000000000E+00 0. -1.
         11    1    3    3    0    0  0.42152196392E+02 -0.16678903774E+02 -0.12880792262E+03  0.13655209417E+03  0.00000000000E+00 0.  1.
<mgrwt>
<rscale>  0 0.95867180E+02</rscale>
<asrwt>0</asrwt>
<pdfrwt beam="1">  1        3 0.17649633E-02 0.95867180E+02</pdfrwt>
<pdfrwt beam="2">  1       -3 0.30811833E-01 0.95867180E+02</pdfrwt>
<totfact> 0.24357381E+04</totfact>
</mgrwt>
</event>
<event>
 5    1  0.6004828E+000  0.9388631E+02  0.7546771E-02  0.1293704E+00
         -1   -1    0    0    0  501 -0.00000000000E+00  0.00000000000E+00  0.16859543145E+02  0.16859543145E+02  0.00000000000E+00 0.  1.
          1   -1    0    0  501    0  0.00000000000E+00 -0.00000000000E+00 -0.13070697836E+03  0.13070697836E+03  0.00000000000E+00 0. -1.
         23    2    1    2    0    0  0.00000000000E+00  0.00000000000E+00 -0.11384743521E+03  0.14756652150E+03  0.93886312974E+02 0.  0.
        -11    1    3    3    0    0 -0.30781217341E+02 -0.68884847678E+01 -0.22788502539E+01  0.31624795997E+02  0.00000000000E+00 0.  1.
         11    1    3    3    0    0  0.30781217341E+02  0.68884847678E+01 -0.11156858496E+03  0.11594172550E+03  0.00000000000E+00 0. -1.
<mgrwt>
<rscale>  0 0.93886313E+02</rscale>
<asrwt>0</asrwt>
<pdfrwt beam="2">  1        1 0.20108766E-01 0.93886313E+02</pdfrwt>
<pdfrwt beam="1">  1       -1 0.25937758E-02 0.93886313E+02</pdfrwt>
<totfact> 0.10101834E+05</totfact>
</mgrwt>
</event>
<event>
 5    1  0.6004828E+000  0.9163340E+02  0.7546771E-02  0.1298944E+00
          1   -1    0    0  501    0  0.00000000000E+00  0.00000000000E+00  0.40231697663E+02  0.40231697663E+02  0.00000000000E+00 0. -1.
         -1   -1    0    0    0  501 -0.00000000000E+00 -0.00000000000E+00 -0.52177020267E+02  0.52177020267E+02  0.00000000000E+00 0.  1.
         23    2    1    2    0    0  0.00000000000E+00  0.00000000000E+00 -0.11945322604E+02  0.92408717930E+02  0.91633402301E+02 0.  0.
        -11    1    3    3    0    0 -0.31739808176E+02 -0.12028340228E-01 -0.39293938199E+02  0.50511673373E+02  0.00000000000E+00 0.  1.
         11    1    3    3    0    0  0.31739808176E+02  0.12028340228E-01  0.27348615595E+02  0.41897044557E+02  0.00000000000E+00 0. -1.
<mgrwt>
<rscale>  0 0.91633402E+02</rscale>
<asrwt>0</asrwt>
<pdfrwt beam="1">  1        1 0.61894920E-02 0.91633402E+02</pdfrwt>
<pdfrwt beam="2">  1       -1 0.80272339E-02 0.91633402E+02</pdfrwt>
<totfact> 0.89470524E+04</totfact>
</mgrwt>
</event>
<event>
 5    1  0.6004828E+000  0.9206874E+02  0.7546771E-02  0.1297918E+00
         -2   -1    0    0    0  501 -0.00000000000E+00  0.00000000000E+00  0.28736090072E+02  0.28736090072E+02  0.00000000000E+00 0.  1.
          2   -1    0    0  501    0  0.00000000000E+00 -0.00000000000E+00 -0.73745709620E+02  0.73745709620E+02  0.00000000000E+00 0. -1.
         23    2    1    2    0    0  0.00000000000E+00  0.00000000000E+00 -0.45009619548E+02  0.10248179969E+03  0.92068742885E+02 0.  0.
        -11    1    3    3    0    0 -0.37496910177E+02  0.20209582508E+02 -0.30743318801E+01  0.42707107307E+02  0.00000000000E+00 0.  1.
         11    1    3    3    0    0  0.37496910177E+02 -0.20209582508E+02 -0.41935287668E+02  0.59774692386E+02  0.00000000000E+00 0. -1.
<mgrwt>
<rscale>  0 0.92068743E+02</rscale>
<asrwt>0</asrwt>
<pdfrwt beam="2">  1        2 0.11345494E-01 0.92068743E+02</pdfrwt>
<pdfrwt beam="1">  1       -2 0.44209370E-02 0.92068743E+02</pdfrwt>
<totfact> 0.10922550E+05</totfact>
</mgrwt>
</event>
<event>
 5    1  0.6004828E+000  0.9157142E+02  0.7546771E-02  0.1299090E+00
         -2   -1    0    0    0  501 -0.00000000000E+00  0.00000000000E+00  0.21108993626E+03  0.21108993626E+03  0.00000000000E+00 0.  1.
          2   -1    0    0  501    0  0.00000000000E+00 -0.00000000000E+00 -0.99309860475E+01  0.99309860475E+01  0.00000000000E+00 0. -1.
         23    2    1    2    0    0  0.00000000000E+00  0.00000000000E+00  0.20115895021E+03  0.22102092230E+03  0.91571419378E+02 0.  0.
        -11    1    3    3    0    0 -0.44216543674E+02 -0.24195696248E+01  0.12866233469E+03  0.13606966385E+03  0.00000000000E+00 0.  1.
         11    1    3    3    0    0  0.44216543674E+02  0.24195696248E+01  0.72496615517E+02  0.84951258455E+02  0.00000000000E+00 0. -1.
<mgrwt>
<rscale>  0 0.91571419E+02</rscale>
<asrwt>0</asrwt>
<pdfrwt beam="2">  1        2 0.15278442E-02 0.91571419E+02</pdfrwt>
<pdfrwt beam="1">  1       -2 0.32475371E-01 0.91571419E+02</pdfrwt>
<totfact> 0.60186754E+04</totfact>
</mgrwt>
</event>
<event>
 5    1  0.6004828E+000  0.9159738E+02  0.7546771E-02  0.1299029E+00
          4   -1    0    0  501    0  0.00000000000E+00  0.00000000000E+00  0.25617624138E+02  0.25617624138E+02  0.00000000000E+00 0.  1.
         -4   -1    0    0    0  501 -0.00000000000E+00 -0.00000000000E+00 -0.81878010462E+02  0.81878010462E+02  0.00000000000E+00 0. -1.
         23    2    1    2    0    0  0.00000000000E+00  0.00000000000E+00 -0.56260386324E+02  0.10749563460E+03  0.91597381997E+02 0.  0.
        -11    1    3    3    0    0 -0.27423996665E+02  0.20999319489E+02  0.71641895657E+01  0.35275666177E+02  0.00000000000E+00 0.  1.
         11    1    3    3    0    0  0.27423996665E+02 -0.20999319489E+02 -0.63424575889E+02  0.72219968422E+02  0.00000000000E+00 0. -1.
<mgrwt>
<rscale>  0 0.91597382E+02</rscale>
<asrwt>0</asrwt>
<pdfrwt beam="1">  1        4 0.39411730E-02 0.91597382E+02</pdfrwt>
<pdfrwt beam="2">  1       -4 0.12596617E-01 0.91597382E+02</pdfrwt>
<totfact> 0.25679406E+04</totfact>
</mgrwt>
</event>
<event>
 5    1  0.6004828E+000  0.8921237E+02  0.7546771E-02  0.1304770E+00
         -1   -1    0    0    0  501 -0.00000000000E+00  0.00000000000E+00  0.54637016830E+02  0.54637016830E+02  0.00000000000E+00 0.  1.
          1   -1    0    0  501    0  0.00000000000E+00 -0.00000000000E+00 -0.36416920732E+02  0.36416920732E+02  0.00000000000E+00 0. -1.
         23    2    1    2    0    0  0.00000000000E+00  0.00000000000E+00  0.18220096098E+02  0.91053937562E+02  0.89212373826E+02 0.  0.
        -11    1    3    3    0    0  0.51973486665E+01 -0.32017035589E+02  0.40362528961E+02  0.51780659953E+02  0.00000000000E+00 0.  1.
         11    1    3    3    0    0 -0.51973486665E+01  0.32017035589E+02 -0.22142432863E+02  0.39273277609E+02  0.00000000000E+00 0. -1.
<mgrwt>
<rscale>  0 0.89212374E+02</rscale>
<asrwt>0</asrwt>
<pdfrwt beam="2">  1        1 0.56026032E-02 0.89212374E+02</pdfrwt>
<pdfrwt beam="1">  1       -1 0.84056949E-02 0.89212374E+02</pdfrwt>
<totfact> 0.95055159E+04</totfact>
</mgrwt>
</event>
<event>
 5    1  0.6004828E+000  0.9190798E+02  0.7546771E-02  0.1298296E+00
          2   -1    0    0  501    0  0.00000000000E+00  0.00000000000E+00  0.11083049417E+02  0.11083049417E+02  0.00000000000E+00 0.  1.
         -2   -1    0    0    0  501 -0.00000000000E+00 -0.00000000000E+00 -0.19054044792E+03  0.19054044792E+03  0.00000000000E+00 0. -1.
         23    2    1    2    0    0  0.00000000000E+00  0.00000000000E+00 -0.17945739851E+03  0.20162349734E+03  0.91907980071E+02 0.  0.
        -11    1    3    3    0    0 -0.33854650695E+02 -0.28611894220E+02 -0.11632576889E+03  0.12448478771E+03  0.00000000000E+00 0. -1.
         11    1    3    3    0    0  0.33854650695E+02  0.28611894220E+02 -0.63131629617E+02  0.77138709626E+02  0.00000000000E+00 0.  1.
<mgrwt>
<rscale>  0 0.91907980E+02</rscale>
<asrwt>0</asrwt>
<pdfrwt beam="1">  1        2 0.17050847E-02 0.91907980E+02</pdfrwt>
<pdfrwt beam="2">  1       -2 0.29313913E-01 0.91907980E+02</pdfrwt>
<totfact> 0.62336588E+04</totfact>
</mgrwt>
</event>
<event>
 5    1  0.6004828E+000  0.9184524E+02  0.7546771E-02  0.1298444E+00
          3   -1    0    0  501    0  0.00000000000E+00  0.00000000000E+00  0.52042347339E+02  0.52042347339E+02  0.00000000000E+00 0. -1.
         -3   -1    0    0    0  501 -0.00000000000E+00 -0.00000000000E+00 -0.40522517923E+02  0.40522517923E+02  0.00000000000E+00 0.  1.
         23    2    1    2    0    0  0.00000000000E+00  0.00000000000E+00  0.11519829416E+02  0.92564865262E+02  0.91845238369E+02 0.  0.
        -11    1    3    3    0    0  0.22792216165E+02 -0.33010812582E+02 -0.16768935415E+02  0.43478685122E+02  0.00000000000E+00 0.  1.
         11    1    3    3    0    0 -0.22792216165E+02  0.33010812582E+02  0.28288764831E+02  0.49086180139E+02  0.00000000000E+00 0. -1.
<mgrwt>
<rscale>  0 0.91845238E+02</rscale>
<asrwt>0</asrwt>
<pdfrwt beam="1">  1        3 0.80065150E-02 0.91845238E+02</pdfrwt>
<pdfrwt beam="2">  1       -3 0.62342335E-02 0.91845238E+02</pdfrwt>
<totfact> 0.34536832E+04</totfact>
</mgrwt>
</event>
<event>
 5    1  0.6004828E+000  0.9239668E+02  0.7546771E-02  0.1297149E+00
          2   -1    0    0  501    0  0.00000000000E+00  0.00000000000E+00  0.41744715831E+02  0.41744715831E+02  0.00000000000E+00 0. -1.
         -2   -1    0    0    0  501 -0.00000000000E+00 -0.00000000000E+00 -0.51127112483E+02  0.51127112483E+02  0.00000000000E+00 0.  1.
         23    2    1    2    0    0  0.00000000000E+00  0.00000000000E+00 -0.93823966525E+01  0.92871828314E+02  0.92396683530E+02 0.  0.
        -11    1    3    3    0    0 -0.26042884018E+02  0.32949366389E+02  0.14653400058E+02  0.44481621898E+02  0.00000000000E+00 0.  1.
         11    1    3    3    0    0  0.26042884018E+02 -0.32949366389E+02 -0.24035796711E+02  0.48390206416E+02  0.00000000000E+00 0. -1.
<mgrwt>
<rscale>  0 0.92396684E+02</rscale>
<asrwt>0</asrwt>
<pdfrwt beam="1">  1        2 0.64222640E-02 0.92396684E+02</pdfrwt>
<pdfrwt beam="2">  1       -2 0.78657096E-02 0.92396684E+02</pdfrwt>
<totfact> 0.92808594E+04</totfact>
</mgrwt>
</event>
<event>
 5    1  0.6004828E+000  0.8951642E+02  0.7546771E-02  0.1304027E+00
         -4   -1    0    0    0  501 -0.00000000000E+00  0.00000000000E+00  0.13746614592E+02  0.13746614592E+02  0.00000000000E+00 0.  1.
          4   -1    0    0  501    0  0.00000000000E+00 -0.00000000000E+00 -0.14573023224E+03  0.14573023224E+03  0.00000000000E+00 0. -1.
         23    2    1    2    0    0  0.00000000000E+00  0.00000000000E+00 -0.13198361765E+03  0.15947684683E+03  0.89516419433E+02 0.  0.
        -11    1    3    3    0    0  0.22563614944E+02  0.37281890461E+02 -0.47802559893E+02  0.64684934939E+02  0.00000000000E+00 0.  1.
         11    1    3    3    0    0 -0.22563614944E+02 -0.37281890461E+02 -0.84181057756E+02  0.94791911894E+02  0.00000000000E+00 0. -1.
<mgrwt>
<rscale>  0 0.89516419E+02</rscale>
<asrwt>0</asrwt>
<pdfrwt beam="2">  1        4 0.22420035E-01 0.89516419E+02</pdfrwt>
<pdfrwt beam="1">  1       -4 0.21148638E-02 0.89516419E+02</pdfrwt>
<totfact> 0.24378013E+04</totfact>
</mgrwt>
</event>
<event>
 5    1  0.6004828E+000  0.8987236E+02  0.7546771E-02  0.1303161E+00
         -2   -1    0    0    0  501 -0.00000000000E+00  0.00000000000E+00  0.10932222344E+02  0.10932222344E+02  0.00000000000E+00 0.  1.
          2   -1    0    0  501    0  0.00000000000E+00 -0.00000000000E+00 -0.18470720110E+03  0.18470720110E+03  0.00000000000E+00 0. -1.
         23    2    1    2    0    0  0.00000000000E+00  0.00000000000E+00 -0.17377497876E+03  0.19563942344E+03  0.89872358173E+02 0.  0.
        -11    1    3    3    0    0  0.24953975920E+02  0.24588080539E+02 -0.14814916507E+03  0.15223485057E+03  0.00000000000E+00 0. -1.
         11    1    3    3    0    0 -0.24953975920E+02 -0.24588080539E+02 -0.25625813687E+02  0.43404572869E+02  0.00000000000E+00 0.  1.
<mgrwt>
<rscale>  0 0.89872358E+02</rscale>
<asrwt>0</asrwt>
<pdfrwt beam="2">  1        2 0.28416493E-01 0.89872358E+02</pdfrwt>
<pdfrwt beam="1">  1       -2 0.16818803E-02 0.89872358E+02</pdfrwt>
<totfact> 0.15627159E+05</totfact>
</mgrwt>
</event>
<event>
 5    1  0.6004828E+000  0.8712953E+02  0.7546771E-02  0.1309956E+00
         -1   -1    0    0    0  501 -0.00000000000E+00  0.00000000000E+00  0.14806204240E+02  0.14806204240E+02  0.00000000000E+00 0.  1.
          1   -1    0    0  501    0  0.00000000000E+00 -0.00000000000E+00 -0.12818197986E+03  0.12818197986E+03  0.00000000000E+00 0. -1.
         23    2    1    2    0    0  0.00000000000E+00  0.00000000000E+00 -0.11337577562E+03  0.14298818410E+03  0.87129525963E+02 0.  0.
        -11    1    3    3    0    0 -0.84947610128E+01  0.28721033697E+02 -0.47702504419E+01  0.30328436006E+02  0.00000000000E+00 0.  1.
         11    1    3    3    0    0  0.84947610128E+01 -0.28721033697E+02 -0.10860552518E+03  0.11265974809E+03  0.00000000000E+00 0. -1.
<mgrwt>
<rscale>  0 0.87129526E+02</rscale>
<asrwt>0</asrwt>
<pdfrwt beam="2">  1        1 0.19720304E-01 0.87129526E+02</pdfrwt>
<pdfrwt beam="1">  1       -1 0.22778776E-02 0.87129526E+02</pdfrwt>
<totfact> 0.12319991E+05</totfact>
</mgrwt>
</event>
<event>
 5    1  0.6004828E+000  0.9211418E+02  0.7546771E-02  0.1297811E+00
          1   -1    0    0  501    0  0.00000000000E+00  0.00000000000E+00  0.18199764917E+03  0.18199764917E+03  0.00000000000E+00 0. -1.
         -1   -1    0    0    0  501 -0.00000000000E+00 -0.00000000000E+00 -0.11655400286E+02  0.11655400286E+02  0.00000000000E+00 0.  1.
         23    2    1    2    0    0  0.00000000000E+00  0.00000000000E+00  0.17034224888E+03  0.19365304945E+03  0.92114178107E+02 0.  0.
        -11    1    3    3    0    0 -0.23710496911E+02  0.38855411459E+02  0.70406225621E+02  0.83838936477E+02  0.00000000000E+00 0.  1.
         11    1    3    3    0    0  0.23710496911E+02 -0.38855411459E+02  0.99936023259E+02  0.10981411297E+03  0.00000000000E+00 0. -1.
<mgrwt>
<rscale>  0 0.92114178E+02</rscale>
<asrwt>0</asrwt>
<pdfrwt beam="1">  1        1 0.27999636E-01 0.92114178E+02</pdfrwt>
<pdfrwt beam="2">  1       -1 0.17931386E-02 0.92114178E+02</pdfrwt>
<totfact> 0.11311583E+05</totfact>
</mgrwt>
</event>
<event>
 5    1  0.6004828E+000  0.9002702E+02  0.7546771E-02  0.1302786E+00
          4   -1    0    0  501    0  0.00000000000E+00  0.00000000000E+00  0.10291843379E+02  0.10291843379E+02  0.00000000000E+00 0.  1.
         -4   -1    0    0    0  501 -0.00000000000E+00 -0.00000000000E+00 -0.19687590398E+03  0.19687590398E+03  0.00000000000E+00 0. -1.
         23    2    1    2    0    0  0.00000000000E+00  0.00000000000E+00 -0.18658406060E+03  0.20716774736E+03  0.90027017474E+02 0.  0.
        -11    1    3    3    0    0  0.60441454976E+01  0.40095376531E+02 -0.13827069648E+03  0.14409356828E+03  0.00000000000E+00 0. -1.
         11    1    3    3    0    0 -0.60441454976E+01 -0.40095376531E+02 -0.48313364121E+02  0.63074179081E+02  0.00000000000E+00 0.  1.
<mgrwt>
<rscale>  0 0.90027017E+02</rscale>
<asrwt>0</asrwt>
<pdfrwt beam="1">  1        4 0.15833604E-02 0.90027017E+02</pdfrwt>
<pdfrwt beam="2">  1       -4 0.30288602E-01 0.90027017E+02</pdfrwt>
<totfact> 0.21817107E+04</totfact>
</mgrwt>
</event>
<event>
 5    1  0.6004828E+000  0.8900710E+02  0.7546771E-02  0.1305274E+00
         -3   -1    0    0    0  501 -0.00000000000E+00  0.00000000000E+00  0.10094092614E+02  0.10094092614E+02  0.00000000000E+00 0.  1.
          3   -1    0    0  501    0  0.00000000000E+00 -0.00000000000E+00 -0.19621041056E+03  0.19621041056E+03  0.00000000000E+00 0. -1.
         23    2    1    2    0    0  0.00000000000E+00  0.00000000000E+00 -0.18611631795E+03  0.20630450317E+03  0.89007102100E+02 0.  0.
        -11    1    3    3    0    0 -0.38132564463E+02 -0.22425210906E+02 -0.81802053088E+02  0.92997626024E+02  0.00000000000E+00 0.  1.
         11    1    3    3    0    0  0.38132564463E+02  0.22425210906E+02 -0.10431426486E+03  0.11330687715E+03  0.00000000000E+00 0. -1.
<mgrwt>
<rscale>  0 0.89007102E+02</rscale>
<asrwt>0</asrwt>
<pdfrwt beam="2">  1        3 0.30186215E-01 0.89007102E+02</pdfrwt>
<pdfrwt beam="1">  1       -3 0.15529374E-02 0.89007102E+02</pdfrwt>
<totfact> 0.30061348E+04</totfact>
</mgrwt>
</event>
<event>
 5    1  0.6004828E+000  0.9333986E+02  0.7546771E-02  0.1294960E+00
          3   -1    0    0  501    0  0.00000000000E+00  0.00000000000E+00  0.19439625648E+02  0.19439625648E+02  0.00000000000E+00 0. -1.
         -3   -1    0    0    0  501 -0.00000000000E+00 -0.00000000000E+00 -0.11204343342E+03  0.11204343342E+03  0.00000000000E+00 0.  1.
         23    2    1    2    0    0  0.00000000000E+00  0.00000000000E+00 -0.92603807776E+02  0.13148305907E+03  0.93339860769E+02 0.  0.
        -11    1    3    3    0    0 -0.23015138466E+02 -0.28972339297E+01 -0.10334768018E+03  0.10591899528E+03  0.00000000000E+00 0.  1.
         11    1    3    3    0    0  0.23015138466E+02  0.28972339297E+01  0.10743872406E+02  0.25564063788E+02  0.00000000000E+00 0. -1.
<mgrwt>
<rscale>  0 0.93339861E+02</rscale>
<asrwt>0</asrwt>
<pdfrwt beam="1">  1        3 0.29907117E-02 0.93339861E+02</pdfrwt>
<pdfrwt beam="2">  1       -3 0.17237451E-01 0.93339861E+02</pdfrwt>
<totfact> 0.30472957E+04</totfact>
</mgrwt>
</event>
<event>
 5    1  0.6004828E+000  0.9189701E+02  0.7546771E-02  0.1298322E+00
         -2   -1    0    0    0  501 -0.00000000000E+00  0.00000000000E+00  0.15720341630E+02  0.15720341630E+02  0.00000000000E+00 0. -1.
          2   -1    0    0  501    0  0.00000000000E+00 -0.00000000000E+00 -0.13430148585E+03  0.13430148585E+03  0.00000000000E+00 0.  1.
         23    2    1    2    0    0  0.00000000000E+00  0.00000000000E+00 -0.11858114422E+03  0.15002182748E+03  0.91897012770E+02 0.  0.
        -11    1    3    3    0    0  0.35818027252E+02 -0.27783323276E+02 -0.71552926749E+02  0.84703396950E+02  0.00000000000E+00 0.  1.
         11    1    3    3    0    0 -0.35818027252E+02  0.27783323276E+02 -0.47028217468E+02  0.65318430528E+02  0.00000000000E+00 0. -1.
<mgrwt>
<rscale>  0 0.91897013E+02</rscale>
<asrwt>0</asrwt>
<pdfrwt beam="2">  1        2 0.20661766E-01 0.91897013E+02</pdfrwt>
<pdfrwt beam="1">  1       -2 0.24185142E-02 0.91897013E+02</pdfrwt>
<totfact> 0.13185793E+05</totfact>
</mgrwt>
</event>
<event>
 5    1  0.6004828E+000  0.8982056E+02  0.7546771E-02  0.1303287E+00
         -2   -1    0    0    0  501 -0.00000000000E+00  0.00000000000E+00  0.31401412414E+03  0.31401412414E+03  0.00000000000E+00 0.  1.
          2   -1    0    0  501    0  0.00000000000E+00 -0.00000000000E+00 -0.64230648197E+01  0.64230648197E+01  0.00000000000E+00 0. -1.
         23    2    1    2    0    0  0.00000000000E+00  0.00000000000E+00  0.30759105932E+03  0.32043718896E+03  0.89820556080E+02 0.  0.
        -11    1    3    3    0    0  0.44234485182E+02 -0.43341148373E+01  0.17676631071E+03  0.18226849106E+03  0.00000000000E+00 0.  1.
         11    1    3    3    0    0 -0.44234485182E+02  0.43341148373E+01  0.13082474861E+03  0.13816869790E+03  0.00000000000E+00 0. -1.
<mgrwt>
<rscale>  0 0.89820556E+02</rscale>
<asrwt>0</asrwt>
<pdfrwt beam="2">  1        2 0.98816406E-03 0.89820556E+02</pdfrwt>
<pdfrwt beam="1">  1       -2 0.48309853E-01 0.89820556E+02</pdfrwt>
<totfact> 0.51644140E+04</totfact>
</mgrwt>
</event>
<event>
 5    1  0.6004828E+000  0.9213974E+02  0.7546771E-02  0.1297751E+00
         -2   -1    0    0    0  501 -0.00000000000E+00  0.00000000000E+00  0.62554535897E+01  0.62554535897E+01  0.00000000000E+00 0. -1.
          2   -1    0    0  501    0  0.00000000000E+00 -0.00000000000E+00 -0.33929319968E+03  0.33929319968E+03  0.00000000000E+00 0.  1.
         23    2    1    2    0    0  0.00000000000E+00  0.00000000000E+00 -0.33303774609E+03  0.34554865327E+03  0.92139738743E+02 0.  0.
        -11    1    3    3    0    0 -0.13856738006E+02  0.43417811689E+02 -0.19176497085E+03  0.19710636622E+03  0.00000000000E+00 0.  1.
         11    1    3    3    0    0  0.13856738006E+02 -0.43417811689E+02 -0.14127277524E+03  0.14844228705E+03  0.00000000000E+00 0. -1.
<mgrwt>
<rscale>  0 0.92139739E+02</rscale>
<asrwt>0</asrwt>
<pdfrwt beam="2">  1        2 0.52198939E-01 0.92139739E+02</pdfrwt>
<pdfrwt beam="1">  1       -2 0.96237776E-03 0.92139739E+02</pdfrwt>
<totfact> 0.18284925E+05</totfact>
</mgrwt>
</event>
<event>
 5    1  0.6004828E+000  0.9277240E+02  0.7546771E-02  0.1296273E+00
          1   -1    0    0  501    0  0.00000000000E+00  0.00000000000E+00  0.10433744429E+02  0.10433744429E+02  0.00000000000E+00 0. -1.
         -1   -1    0    0    0  501 -0.00000000000E+00 -0.00000000000E+00 -0.20622315163E+03  0.20622315163E+03  0.00000000000E+00 0.  1.
         23    2    1    2    0    0  0.00000000000E+00  0.00000000000E+00 -0.19578940720E+03  0.21665689606E+03  0.92772402352E+02 0.  0.
        -11    1    3    3    0    0  0.56224281406E+01 -0.42535175856E+02 -0.13906774284E+03  0.14553587180E+03  0.00000000000E+00 0.  1.
         11    1    3    3    0    0 -0.56224281406E+01  0.42535175856E+02 -0.56721664364E+02  0.71121024258E+02  0.00000000000E+00 0. -1.
<mgrwt>
<rscale>  0 0.92772402E+02</rscale>
<asrwt>0</asrwt>
<pdfrwt beam="1">  1        1 0.16051913E-02 0.92772402E+02</pdfrwt>
<pdfrwt beam="2">  1       -1 0.31726641E-01 0.92772402E+02</pdfrwt>
<totfact> 0.65765891E+04</totfact>
</mgrwt>
</event>
<event>
 5    1  0.6004828E+000  0.1044075E+03  0.7546771E-02  0.1271291E+00
          2   -1    0    0  501    0  0.00000000000E+00  0.00000000000E+00  0.93834688778E+02  0.93834688778E+02  0.00000000000E+00 0. -1.
         -2   -1    0    0    0  501 -0.00000000000E+00 -0.00000000000E+00 -0.29042923035E+02  0.29042923035E+02  0.00000000000E+00 0.  1.
         23    2    1    2    0    0  0.00000000000E+00  0.00000000000E+00  0.64791765743E+02  0.12287761181E+03  0.10440754080E+03 0.  0.
        -11    1    3    3    0    0  0.27474943916E+02 -0.31273794701E+02  0.69469483647E+02  0.80987233168E+02  0.00000000000E+00 0. -1.
         11    1    3    3    0    0 -0.27474943916E+02  0.31273794701E+02 -0.46777179036E+01  0.41890378644E+02  0.00000000000E+00 0.  1.
<mgrwt>
<rscale>  0 0.10440754E+03</rscale>
<asrwt>0</asrwt>
<pdfrwt beam="1">  1        2 0.14436106E-01 0.10440754E+03</pdfrwt>
<pdfrwt beam="2">  1       -2 0.44681420E-02 0.10440754E+03</pdfrwt>
<totfact> 0.82450623E+04</totfact>
</mgrwt>
</event>
<event>
 5    1  0.6004828E+000  0.9209561E+02  0.7546771E-02  0.1297855E+00
         -1   -1    0    0    0  501 -0.00000000000E+00  0.00000000000E+00  0.45568611067E+02  0.45568611067E+02  0.00000000000E+00 0.  1.
          1   -1    0    0  501    0  0.00000000000E+00 -0.00000000000E+00 -0.46532033789E+02  0.46532033789E+02  0.00000000000E+00 0. -1.
         23    2    1    2    0    0  0.00000000000E+00  0.00000000000E+00 -0.96342272171E+00  0.92100644857E+02  0.92095605756E+02 0.  0.
        -11    1    3    3    0    0  0.13854357716E+02  0.13795975485E+02 -0.42174854616E+02  0.46486455331E+02  0.00000000000E+00 0. -1.
         11    1    3    3    0    0 -0.13854357716E+02 -0.13795975485E+02  0.41211431895E+02  0.45614189526E+02  0.00000000000E+00 0.  1.
<mgrwt>
<rscale>  0 0.92095606E+02</rscale>
<asrwt>0</asrwt>
<pdfrwt beam="2">  1        1 0.71587744E-02 0.92095606E+02</pdfrwt>
<pdfrwt beam="1">  1       -1 0.70105556E-02 0.92095606E+02</pdfrwt>
<totfact> 0.90181201E+04</totfact>
</mgrwt>
</event>
<event>
 5    1  0.6004828E+000  0.9083495E+02  0.7546771E-02  0.1300842E+00
          2   -1    0    0  501    0  0.00000000000E+00  0.00000000000E+00  0.89979927765E+02  0.89979927765E+02  0.00000000000E+00 0. -1.
         -2   -1    0    0    0  501 -0.00000000000E+00 -0.00000000000E+00 -0.22924522573E+02  0.22924522573E+02  0.00000000000E+00 0.  1.
         23    2    1    2    0    0  0.00000000000E+00  0.00000000000E+00  0.67055405191E+02  0.11290445034E+03  0.90834946693E+02 0.  0.
        -11    1    3    3    0    0 -0.39814619983E+02  0.16296775075E+02  0.51623721679E+02  0.67199683647E+02  0.00000000000E+00 0. -1.
         11    1    3    3    0    0  0.39814619983E+02 -0.16296775075E+02  0.15431683512E+02  0.45704766691E+02  0.00000000000E+00 0.  1.
<mgrwt>
<rscale>  0 0.90834947E+02</rscale>
<asrwt>0</asrwt>
<pdfrwt beam="1">  1        2 0.13843066E-01 0.90834947E+02</pdfrwt>
<pdfrwt beam="2">  1       -2 0.35268497E-02 0.90834947E+02</pdfrwt>
<totfact> 0.12009094E+05</totfact>
</mgrwt>
</event>
<event>
 5    1  0.6004828E+000  0.9985095E+02  0.7546771E-02  0.1280610E+00
         -1   -1    0    0    0  501 -0.00000000000E+00  0.00000000000E+00  0.25628349585E+02  0.25628349585E+02  0.00000000000E+00 0.  1.
          1   -1    0    0  501    0  0.00000000000E+00 -0.00000000000E+00 -0.97257640679E+02  0.97257640679E+02  0.00000000000E+00 0. -1.
         23    2    1    2    0    0  0.00000000000E+00  0.00000000000E+00 -0.71629291094E+02  0.12288599026E+03  0.99850945216E+02 0.  0.
        -11    1    3    3    0    0 -0.48379928738E+02 -0.11433979075E+02 -0.30148179180E+02  0.58140055814E+02  0.00000000000E+00 0.  1.
         11    1    3    3    0    0  0.48379928738E+02  0.11433979075E+02 -0.41481111914E+02  0.64745934450E+02  0.00000000000E+00 0. -1.
<mgrwt>
<rscale>  0 0.99850945E+02</rscale>
<asrwt>0</asrwt>
<pdfrwt beam="2">  1        1 0.14962714E-01 0.99850945E+02</pdfrwt>
<pdfrwt beam="1">  1       -1 0.39428231E-02 0.99850945E+02</pdfrwt>
<totfact> 0.81006142E+04</totfact>
</mgrwt>
</event>
<event>
 5    1  0.6004828E+000  0.9028728E+02  0.7546771E-02  0.1302157E+00
          1   -1    0    0  501    0  0.00000000000E+00  0.00000000000E+00  0.17584584208E+03  0.17584584208E+03  0.00000000000E+00 0. -1.
         -1   -1    0    0    0  501 -0.00000000000E+00 -0.00000000000E+00 -0.11589402926E+02  0.11589402926E+02  0.00000000000E+00 0.  1.
         23    2    1    2    0    0  0.00000000000E+00  0.00000000000E+00  0.16425643916E+03  0.18743524501E+03  0.90287281867E+02 0.  0.
        -11    1    3    3    0    0 -0.27500244250E+02 -0.23087796355E+02  0.13892984594E+03  0.14349498900E+03  0.00000000000E+00 0. -1.
         11    1    3    3    0    0  0.27500244250E+02  0.23087796355E+02  0.25326593216E+02  0.43940256011E+02  0.00000000000E+00 0.  1.
<mgrwt>
<rscale>  0 0.90287282E+02</rscale>
<asrwt>0</asrwt>
<pdfrwt beam="1">  1        1 0.27053204E-01 0.90287282E+02</pdfrwt>
<pdfrwt beam="2">  1       -1 0.17829852E-02 0.90287282E+02</pdfrwt>
<totfact> 0.11859235E+05</totfact>
</mgrwt>
</event>
<event>
 5    1  0.6004828E+000  0.9353250E+02  0.7546771E-02  0.1294516E+00
          3   -1    0    0  501    0  0.00000000000E+00  0.00000000000E+00  0.84811069200E+02  0.84811069200E+02  0.00000000000E+00 0. -1.
         -3   -1    0    0    0  501 -0.00000000000E+00 -0.00000000000E+00 -0.25787697831E+02  0.25787697831E+02  0.00000000000E+00 0.  1.
         23    2    1    2    0    0  0.00000000000E+00  0.00000000000E+00  0.59023371368E+02  0.11059876703E+03  0.93532501844E+02 0.  0.
        -11    1    3    3    0    0  0.44031081166E+02  0.14106058509E+02  0.21203650704E+02  0.50865624920E+02  0.00000000000E+00 0. -1.
         11    1    3    3    0    0 -0.44031081166E+02 -0.14106058509E+02  0.37819720665E+02  0.59733142111E+02  0.00000000000E+00 0.  1.
<mgrwt>
<rscale>  0 0.93532502E+02</rscale>
<asrwt>0</asrwt>
<pdfrwt beam="1">  1        3 0.13047857E-01 0.93532502E+02</pdfrwt>
<pdfrwt beam="2">  1       -3 0.39673382E-02 0.93532502E+02</pdfrwt>
<totfact> 0.31624542E+04</totfact>
</mgrwt>
</event>
<event>
 5    1  0.6004828E+000  0.9224640E+02  0.7546771E-02  0.1297501E+00
          1   -1    0    0  501    0  0.00000000000E+00  0.00000000000E+00  0.27682448522E+02  0.27682448522E+02  0.00000000000E+00 0. -1.
         -1   -1    0    0    0  501 -0.00000000000E+00 -0.00000000000E+00 -0.76848319034E+02  0.76848319034E+02  0.00000000000E+00 0.  1.
         23    2    1    2    0    0  0.00000000000E+00  0.00000000000E+00 -0.49165870512E+02  0.10453076756E+03  0.92246401245E+02 0.  0.
        -11    1    3    3    0    0 -0.76444397584E+01 -0.44062985163E+02 -0.11794405010E+02  0.46250320110E+02  0.00000000000E+00 0.  1.
         11    1    3    3    0    0  0.76444397584E+01  0.44062985163E+02 -0.37371465502E+02  0.58280447446E+02  0.00000000000E+00 0. -1.
<mgrwt>
<rscale>  0 0.92246401E+02</rscale>
<asrwt>0</asrwt>
<pdfrwt beam="1">  1        1 0.42588383E-02 0.92246401E+02</pdfrwt>
<pdfrwt beam="2">  1       -1 0.11822818E-01 0.92246401E+02</pdfrwt>
<totfact> 0.82717193E+04</totfact>
</mgrwt>
</event>
<event>
 5    1  0.6004828E+000  0.9050789E+02  0.7546771E-02  0.1301626E+00
          1   -1    0    0  501    0  0.00000000000E+00  0.00000000000E+00  0.11052444321E+02  0.11052444321E+02  0.00000000000E+00 0. -1.
         -1   -1    0    0    0  501 -0.00000000000E+00 -0.00000000000E+00 -0.18529110582E+03  0.18529110582E+03  0.00000000000E+00 0.  1.
         23    2    1    2    0    0  0.00000000000E+00  0.00000000000E+00 -0.17423866150E+03  0.19634355014E+03  0.90507892038E+02 0.  0.
        -11    1    3    3    0    0 -0.29729654151E+02  0.48021848479E+01 -0.16039743296E+03  0.16320003007E+03  0.00000000000E+00 0.  1.
         11    1    3    3    0    0  0.29729654151E+02 -0.48021848479E+01 -0.13841228543E+02  0.33143520073E+02  0.00000000000E+00 0. -1.
<mgrwt>
<rscale>  0 0.90507892E+02</rscale>
<asrwt>0</asrwt>
<pdfrwt beam="1">  1        1 0.17003761E-02 0.90507892E+02</pdfrwt>
<pdfrwt beam="2">  1       -1 0.28506322E-01 0.90507892E+02</pdfrwt>
<totfact> 0.72287923E+04</totfact>
</mgrwt>
</event>
<event>
 5    1  0.6004828E+000  0.9189119E+02  0.7546771E-02  0.1298335E+00
         -1   -1    0    0    0  501 -0.00000000000E+00  0.00000000000E+00  0.27504280680E+02  0.27504280680E+02  0.00000000000E+00 0.  1.
          1   -1    0    0  501    0  0.00000000000E+00 -0.00000000000E+00 -0.76751607151E+02  0.76751607151E+02  0.00000000000E+00 0. -1.
         23    2    1    2    0    0  0.00000000000E+00  0.00000000000E+00 -0.49247326470E+02  0.10425588783E+03  0.91891190998E+02 0.  0.
        -11    1    3    3    0    0 -0.13738227102E+02  0.43843357592E+02 -0.24779461098E+02  0.52201538112E+02  0.00000000000E+00 0. -1.
         11    1    3    3    0    0  0.13738227102E+02 -0.43843357592E+02 -0.24467865372E+02  0.52054349720E+02  0.00000000000E+00 0.  1.
<mgrwt>
<rscale>  0 0.91891191E+02</rscale>
<asrwt>0</asrwt>
<pdfrwt beam="2">  1        1 0.11807939E-01 0.91891191E+02</pdfrwt>
<pdfrwt beam="1">  1       -1 0.42314278E-02 0.91891191E+02</pdfrwt>
<totfact> 0.97962507E+04</totfact>
</mgrwt>
</event>
<event>
 5    1  0.6004828E+000  0.9235703E+02  0.7546771E-02  0.1297242E+00
          1   -1    0    0  501    0  0.00000000000E+00  0.00000000000E+00  0.91397172607E+01  0.91397172607E+01  0.00000000000E+00 0. -1.
         -1   -1    0    0    0  501 -0.00000000000E+00 -0.00000000000E+00 -0.23331741851E+03  0.23331741851E+03  0.00000000000E+00 0.  1.
         23    2    1    2    0    0  0.00000000000E+00  0.00000000000E+00 -0.22417770125E+03  0.24245713577E+03  0.92357029774E+02 0.  0.
        -11    1    3    3    0    0  0.37157257817E+02 -0.17234990588E+02 -0.16807114118E+03  0.17299021708E+03  0.00000000000E+00 0.  1.
         11    1    3    3    0    0 -0.37157257817E+02  0.17234990588E+02 -0.56106560070E+02  0.69466918688E+02  0.00000000000E+00 0. -1.
<mgrwt>
<rscale>  0 0.92357030E+02</rscale>
<asrwt>0</asrwt>
<pdfrwt beam="1">  1        1 0.14061103E-02 0.92357030E+02</pdfrwt>
<pdfrwt beam="2">  1       -1 0.35894988E-01 0.92357030E+02</pdfrwt>
<totfact> 0.64068005E+04</totfact>
</mgrwt>
</event>
<event>
 5    1  0.6004828E+000  0.9223658E+02  0.7546771E-02  0.1297524E+00
          1   -1    0    0  501    0  0.00000000000E+00  0.00000000000E+00  0.53746965236E+02  0.53746965236E+02  0.00000000000E+00 0. -1.
         -1   -1    0    0    0  501 -0.00000000000E+00 -0.00000000000E+00 -0.39572403975E+02  0.39572403975E+02  0.00000000000E+00 0.  1.
         23    2    1    2    0    0  0.00000000000E+00  0.00000000000E+00  0.14174561262E+02  0.93319369211E+02  0.92236578877E+02 0.  0.
        -11    1    3    3    0    0  0.51558821053E+00  0.43950777361E+02  0.21214000089E+02  0.48805434755E+02  0.00000000000E+00 0.  1.
         11    1    3    3    0    0 -0.51558821053E+00 -0.43950777361E+02 -0.70394388274E+01  0.44513934457E+02  0.00000000000E+00 0. -1.
<mgrwt>
<rscale>  0 0.92236579E+02</rscale>
<asrwt>0</asrwt>
<pdfrwt beam="1">  1        1 0.82687639E-02 0.92236579E+02</pdfrwt>
<pdfrwt beam="2">  1       -1 0.60880621E-02 0.92236579E+02</pdfrwt>
<totfact> 0.91777688E+04</totfact>
</mgrwt>
</event>
<event>
 5    1  0.6004828E+000  0.9101054E+02  0.7546771E-02  0.1300423E+00
         -1   -1    0    0    0  501 -0.00000000000E+00  0.00000000000E+00  0.71804393201E+02  0.71804393201E+02  0.00000000000E+00 0.  1.
          1   -1    0    0  501    0  0.00000000000E+00 -0.00000000000E+00 -0.28838483333E+02  0.28838483333E+02  0.00000000000E+00 0. -1.
         23    2    1    2    0    0  0.00000000000E+00  0.00000000000E+00  0.42965909869E+02  0.10064287653E+03  0.91010544369E+02 0.  0.
        -11    1    3    3    0    0  0.35844392304E+02  0.20931175197E+02  0.42106016920E+02  0.59125723806E+02  0.00000000000E+00 0.  1.
         11    1    3    3    0    0 -0.35844392304E+02 -0.20931175197E+02  0.85989294894E+00  0.41517152728E+02  0.00000000000E+00 0. -1.
<mgrwt>
<rscale>  0 0.91010544E+02</rscale>
<asrwt>0</asrwt>
<pdfrwt beam="2">  1        1 0.44366898E-02 0.91010544E+02</pdfrwt>
<pdfrwt beam="1">  1       -1 0.11046830E-01 0.91010544E+02</pdfrwt>
<totfact> 0.86585124E+04</totfact>
</mgrwt>
</event>
<event>
 5    1  0.6004828E+000  0.8967163E+02  0.7546771E-02  0.1303649E+00
          4   -1    0    0  501    0  0.00000000000E+00  0.00000000000E+00  0.22163143921E+03  0.22163143921E+03  0.00000000000E+00 0. -1.
         -4   -1    0    0    0  501 -0.00000000000E+00 -0.00000000000E+00 -0.90702393653E+01  0.90702393653E+01  0.00000000000E+00 0.  1.
         23    2    1    2    0    0  0.00000000000E+00  0.00000000000E+00  0.21256119985E+03  0.23070167858E+03  0.89671627720E+02 0.  0.
        -11    1    3    3    0    0  0.31621457410E+02 -0.16867591830E+02  0.36968419205E+02  0.51488797242E+02  0.00000000000E+00 0.  1.
         11    1    3    3    0    0 -0.31621457410E+02  0.16867591830E+02  0.17559278064E+03  0.17921288133E+03  0.00000000000E+00 0. -1.
<mgrwt>
<rscale>  0 0.89671628E+02</rscale>
<asrwt>0</asrwt>
<pdfrwt beam="1">  1        4 0.34097140E-01 0.89671628E+02</pdfrwt>
<pdfrwt beam="2">  1       -4 0.13954216E-02 0.89671628E+02</pdfrwt>
<totfact> 0.21082847E+04</totfact>
</mgrwt>
</event>
<event>
 5    1  0.6004828E+000  0.9113235E+02  0.7546771E-02  0.1300132E+00
          4   -1    0    0  501    0  0.00000000000E+00  0.00000000000E+00  0.15484629915E+02  0.15484629915E+02  0.00000000000E+00 0.  1.
         -4   -1    0    0    0  501 -0.00000000000E+00 -0.00000000000E+00 -0.13408628457E+03  0.13408628457E+03  0.00000000000E+00 0. -1.
         23    2    1    2    0    0  0.00000000000E+00  0.00000000000E+00 -0.11860165465E+03  0.14957091448E+03  0.91132354148E+02 0.  0.
        -11    1    3    3    0    0 -0.48921411089E+01 -0.43305407692E+02 -0.37466343543E+02  0.57471891203E+02  0.00000000000E+00 0. -1.
         11    1    3    3    0    0  0.48921411089E+01  0.43305407692E+02 -0.81135311108E+02  0.92099023277E+02  0.00000000000E+00 0.  1.
<mgrwt>
<rscale>  0 0.91132354E+02</rscale>
<asrwt>0</asrwt>
<pdfrwt beam="1">  1        4 0.23822508E-02 0.91132354E+02</pdfrwt>
<pdfrwt beam="2">  1       -4 0.20628659E-01 0.91132354E+02</pdfrwt>
<totfact> 0.23725878E+04</totfact>
</mgrwt>
</event>
<event>
 5    1  0.6004828E+000  0.9066328E+02  0.7546771E-02  0.1301253E+00
         -3   -1    0    0    0  501 -0.00000000000E+00  0.00000000000E+00  0.21954645815E+03  0.21954645815E+03  0.00000000000E+00 0.  1.
          3   -1    0    0  501    0  0.00000000000E+00 -0.00000000000E+00 -0.93600133484E+01  0.93600133484E+01  0.00000000000E+00 0. -1.
         23    2    1    2    0    0  0.00000000000E+00  0.00000000000E+00  0.21018644481E+03  0.22890647150E+03  0.90663284276E+02 0.  0.
        -11    1    3    3    0    0 -0.10914976095E+02 -0.42247083769E+02  0.13611897116E+03  0.14294169126E+03  0.00000000000E+00 0.  1.
         11    1    3    3    0    0  0.10914976095E+02  0.42247083769E+02  0.74067473647E+02  0.85964780245E+02  0.00000000000E+00 0. -1.
<mgrwt>
<rscale>  0 0.90663284E+02</rscale>
<asrwt>0</asrwt>
<pdfrwt beam="2">  1        3 0.14400022E-02 0.90663284E+02</pdfrwt>
<pdfrwt beam="1">  1       -3 0.33776374E-01 0.90663284E+02</pdfrwt>
<totfact> 0.27481563E+04</totfact>
</mgrwt>
</event>
<event>
 5    1  0.6004828E+000  0.9225100E+02  0.7546771E-02  0.1297490E+00
          2   -1    0    0  501    0  0.00000000000E+00  0.00000000000E+00  0.51458731337E+02  0.51458731337E+02  0.00000000000E+00 0. -1.
         -2   -1    0    0    0  501 -0.00000000000E+00 -0.00000000000E+00 -0.41345014136E+02  0.41345014136E+02  0.00000000000E+00 0.  1.
         23    2    1    2    0    0  0.00000000000E+00  0.00000000000E+00  0.10113717201E+02  0.92803745472E+02  0.92251004862E+02 0.  0.
        -11    1    3    3    0    0 -0.43933014782E+02  0.14042694981E+02  0.55647642122E+01  0.46457224098E+02  0.00000000000E+00 0.  1.
         11    1    3    3    0    0  0.43933014782E+02 -0.14042694981E+02  0.45489529890E+01  0.46346521374E+02  0.00000000000E+00 0. -1.
<mgrwt>
<rscale>  0 0.92251005E+02</rscale>
<asrwt>0</asrwt>
<pdfrwt beam="1">  1        2 0.79167279E-02 0.92251005E+02</pdfrwt>
<pdfrwt beam="2">  1       -2 0.63607714E-02 0.92251005E+02</pdfrwt>
<totfact> 0.98494380E+04</totfact>
</mgrwt>
</event>
<event>
 5    1  0.6004828E+000  0.9802524E+02  0.7546771E-02  0.1284504E+00
          1   -1    0    0  501    0  0.00000000000E+00  0.00000000000E+00  0.20940158451E+02  0.20940158451E+02  0.00000000000E+00 0. -1.
         -1   -1    0    0    0  501 -0.00000000000E+00 -0.00000000000E+00 -0.11471912949E+03  0.11471912949E+03  0.00000000000E+00 0.  1.
         23    2    1    2    0    0  0.00000000000E+00  0.00000000000E+00 -0.93778971041E+02  0.13565928794E+03  0.98025236523E+02 0.  0.
        -11    1    3    3    0    0  0.23890963502E+02 -0.21051946635E+02 -0.98453800612E+02  0.10347518277E+03  0.00000000000E+00 0.  1.
         11    1    3    3    0    0 -0.23890963502E+02  0.21051946635E+02  0.46748295719E+01  0.32184105172E+02  0.00000000000E+00 0. -1.
<mgrwt>
<rscale>  0 0.98025237E+02</rscale>
<asrwt>0</asrwt>
<pdfrwt beam="1">  1        1 0.32215629E-02 0.98025237E+02</pdfrwt>
<pdfrwt beam="2">  1       -1 0.17649097E-01 0.98025237E+02</pdfrwt>
<totfact> 0.65701832E+04</totfact>
</mgrwt>
</event>
<event>
 5    1  0.6004828E+000  0.8901827E+02  0.7546771E-02  0.1305247E+00
          1   -1    0    0  501    0  0.00000000000E+00  0.00000000000E+00  0.30026633936E+02  0.30026633936E+02  0.00000000000E+00 0. -1.
         -1   -1    0    0    0  501 -0.00000000000E+00 -0.00000000000E+00 -0.65976861133E+02  0.65976861133E+02  0.00000000000E+00 0.  1.
         23    2    1    2    0    0  0.00000000000E+00  0.00000000000E+00 -0.35950227198E+02  0.96003495069E+02  0.89018269079E+02 0.  0.
        -11    1    3    3    0    0 -0.54103251988E+01 -0.43480244183E+02 -0.26416148616E+02  0.51162644192E+02  0.00000000000E+00 0.  1.
         11    1    3    3    0    0  0.54103251988E+01  0.43480244183E+02 -0.95340785821E+01  0.44840850877E+02  0.00000000000E+00 0. -1.
<mgrwt>
<rscale>  0 0.89018269E+02</rscale>
<asrwt>0</asrwt>
<pdfrwt beam="1">  1        1 0.46194822E-02 0.89018269E+02</pdfrwt>
<pdfrwt beam="2">  1       -1 0.10150286E-01 0.89018269E+02</pdfrwt>
<totfact> 0.92850205E+04</totfact>
</mgrwt>
</event>
<event>
 5    1  0.6004828E+000  0.9318925E+02  0.7546771E-02  0.1295307E+00
         -1   -1    0    0    0  501 -0.00000000000E+00  0.00000000000E+00  0.39333128723E+02  0.39333128723E+02  0.00000000000E+00 0.  1.
          1   -1    0    0  501    0  0.00000000000E+00 -0.00000000000E+00 -0.55196705069E+02  0.55196705069E+02  0.00000000000E+00 0. -1.
         23    2    1    2    0    0  0.00000000000E+00  0.00000000000E+00 -0.15863576346E+02  0.94529833792E+02  0.93189250573E+02 0.  0.
        -11    1    3    3    0    0 -0.28877788648E+02 -0.12861473046E+02  0.26790957454E+02  0.41437900132E+02  0.00000000000E+00 0.  1.
         11    1    3    3    0    0  0.28877788648E+02  0.12861473046E+02 -0.42654533799E+02  0.53091933660E+02  0.00000000000E+00 0. -1.
<mgrwt>
<rscale>  0 0.93189251E+02</rscale>
<asrwt>0</asrwt>
<pdfrwt beam="2">  1        1 0.84918008E-02 0.93189251E+02</pdfrwt>
<pdfrwt beam="1">  1       -1 0.60512505E-02 0.93189251E+02</pdfrwt>
<totfact> 0.89541874E+04</totfact>
</mgrwt>
</event>
<event>
 5    1  0.6004828E+000  0.9032671E+02  0.7546771E-02  0.1302062E+00
          1   -1    0    0  501    0  0.00000000000E+00  0.00000000000E+00  0.41458301811E+02  0.41458301811E+02  0.00000000000E+00 0. -1.
         -1   -1    0    0    0  501 -0.00000000000E+00 -0.00000000000E+00 -0.49199524501E+02  0.49199524501E+02  0.00000000000E+00 0.  1.
         23    2    1    2    0    0  0.00000000000E+00  0.00000000000E+00 -0.77412226898E+01  0.90657826312E+02  0.90326712233E+02 0.  0.
        -11    1    3    3    0    0  0.15197506489E+02  0.18510435970E+02 -0.42301027407E+02  0.48610465570E+02  0.00000000000E+00 0.  1.
         11    1    3    3    0    0 -0.15197506489E+02 -0.18510435970E+02  0.34559804717E+02  0.42047360742E+02  0.00000000000E+00 0. -1.
<mgrwt>
<rscale>  0 0.90326712E+02</rscale>
<asrwt>0</asrwt>
<pdfrwt beam="1">  1        1 0.63782003E-02 0.90326712E+02</pdfrwt>
<pdfrwt beam="2">  1       -1 0.75691576E-02 0.90326712E+02</pdfrwt>
<totfact> 0.93593732E+04</totfact>
</mgrwt>
</event>
<event>
 5    1  0.6004828E+000  0.8712792E+02  0.7546771E-02  0.1309960E+00
          3   -1    0    0  501    0  0.00000000000E+00  0.00000000000E+00  0.27555999566E+02  0.27555999566E+02  0.00000000000E+00 0. -1.
         -3   -1    0    0    0  501 -0.00000000000E+00 -0.00000000000E+00 -0.68871340925E+02  0.68871340925E+02  0.00000000000E+00 0.  1.
         23    2    1    2    0    0  0.00000000000E+00  0.00000000000E+00 -0.41315341359E+02  0.96427340491E+02  0.87127920683E+02 0.  0.
        -11    1    3    3    0    0 -0.18747103616E+02 -0.37998119548E+02 -0.31862906313E+02  0.53014675156E+02  0.00000000000E+00 0.  1.
         11    1    3    3    0    0  0.18747103616E+02  0.37998119548E+02 -0.94524350463E+01  0.43412665335E+02  0.00000000000E+00 0. -1.
<mgrwt>
<rscale>  0 0.87127921E+02</rscale>
<asrwt>0</asrwt>
<pdfrwt beam="1">  1        3 0.42393845E-02 0.87127921E+02</pdfrwt>
<pdfrwt beam="2">  1       -3 0.10595591E-01 0.87127921E+02</pdfrwt>
<totfact> 0.39519330E+04</totfact>
</mgrwt>
</event>
<event>
 5    1  0.6004828E+000  0.9142862E+02  0.7546771E-02  0.1299429E+00
          2   -1    0    0  501    0  0.00000000000E+00  0.00000000000E+00  0.15680429584E+02  0.15680429584E+02  0.00000000000E+00 0. -1.
         -2   -1    0    0    0  501 -0.00000000000E+00 -0.00000000000E+00 -0.13327429574E+03  0.13327429574E+03  0.00000000000E+00 0.  1.
         23    2    1    2    0    0  0.00000000000E+00  0.00000000000E+00 -0.11759386615E+03  0.14895472532E+03  0.91428621550E+02 0.  0.
        -11    1    3    3    0    0  0.23904154391E+02  0.25079422032E+02 -0.10209533633E+02  0.36119531886E+02  0.00000000000E+00 0. -1.
         11    1    3    3    0    0 -0.23904154391E+02 -0.25079422032E+02 -0.10738433252E+03  0.11283519344E+03  0.00000000000E+00 0.  1.
<mgrwt>
<rscale>  0 0.91428622E+02</rscale>
<asrwt>0</asrwt>
<pdfrwt beam="1">  1        2 0.24123739E-02 0.91428622E+02</pdfrwt>
<pdfrwt beam="2">  1       -2 0.20503737E-01 0.91428622E+02</pdfrwt>
<totfact> 0.72325288E+04</totfact>
</mgrwt>
</event>
<event>
 5    1  0.6004828E+000  0.9097830E+02  0.7546771E-02  0.1300500E+00
         -1   -1    0    0    0  501 -0.00000000000E+00  0.00000000000E+00  0.49755675133E+02  0.49755675133E+02  0.00000000000E+00 0.  1.
          1   -1    0    0  501    0  0.00000000000E+00 -0.00000000000E+00 -0.41588476083E+02  0.41588476083E+02  0.00000000000E+00 0. -1.
         23    2    1    2    0    0  0.00000000000E+00  0.00000000000E+00  0.81671990497E+01  0.91344151216E+02  0.90978298627E+02 0.  0.
        -11    1    3    3    0    0  0.12959375682E+02  0.41049318219E+02 -0.10681685602E+02  0.44351892312E+02  0.00000000000E+00 0.  1.
         11    1    3    3    0    0 -0.12959375682E+02 -0.41049318219E+02  0.18848884651E+02  0.46992258904E+02  0.00000000000E+00 0. -1.
<mgrwt>
<rscale>  0 0.90978299E+02</rscale>
<asrwt>0</asrwt>
<pdfrwt beam="2">  1        1 0.63982271E-02 0.90978299E+02</pdfrwt>
<pdfrwt beam="1">  1       -1 0.76547192E-02 0.90978299E+02</pdfrwt>
<totfact> 0.91763087E+04</totfact>
</mgrwt>
</event>
<event>
 5    1  0.6004828E+000  0.9068157E+02  0.7546771E-02  0.1301210E+00
         -2   -1    0    0    0  501 -0.00000000000E+00  0.00000000000E+00  0.73475438798E+02  0.73475438798E+02  0.00000000000E+00 0.  1.
          2   -1    0    0  501    0  0.00000000000E+00 -0.00000000000E+00 -0.27979240269E+02  0.27979240269E+02  0.00000000000E+00 0. -1.
         23    2    1    2    0    0  0.00000000000E+00  0.00000000000E+00  0.45496198529E+02  0.10145467907E+03  0.90681573784E+02 0.  0.
        -11    1    3    3    0    0 -0.25118431164E+02 -0.99808825238E+01 -0.17980475409E+02  0.32463072806E+02  0.00000000000E+00 0. -1.
         11    1    3    3    0    0  0.25118431164E+02  0.99808825238E+01  0.63476673939E+02  0.68991606261E+02  0.00000000000E+00 0.  1.
<mgrwt>
<rscale>  0 0.90681574E+02</rscale>
<asrwt>0</asrwt>
<pdfrwt beam="2">  1        2 0.43044985E-02 0.90681574E+02</pdfrwt>
<pdfrwt beam="1">  1       -2 0.11303914E-01 0.90681574E+02</pdfrwt>
<totfact> 0.88245238E+04</totfact>
</mgrwt>
</event>
<event>
 5    1  0.6004828E+000  0.1127794E+03  0.7546771E-02  0.1255508E+00
          2   -1    0    0  501    0  0.00000000000E+00  0.00000000000E+00  0.33463447664E+02  0.33463447664E+02  0.00000000000E+00 0. -1.
         -2   -1    0    0    0  501 -0.00000000000E+00 -0.00000000000E+00 -0.95023065973E+02  0.95023065973E+02  0.00000000000E+00 0.  1.
         23    2    1    2    0    0  0.00000000000E+00  0.00000000000E+00 -0.61559618310E+02  0.12848651364E+03  0.11277942002E+03 0.  0.
        -11    1    3    3    0    0  0.35384771342E+02 -0.16155500703E+02 -0.77291126498E+02  0.86527455071E+02  0.00000000000E+00 0.  1.
         11    1    3    3    0    0 -0.35384771342E+02  0.16155500703E+02  0.15731508188E+02  0.41959058566E+02  0.00000000000E+00 0. -1.
<mgrwt>
<rscale>  0 0.11277942E+03</rscale>
<asrwt>0</asrwt>
<pdfrwt beam="1">  1        2 0.51482228E-02 0.11277942E+03</pdfrwt>
<pdfrwt beam="2">  1       -2 0.14618933E-01 0.11277942E+03</pdfrwt>
<totfact> 0.47898590E+04</totfact>
</mgrwt>
</event>
<event>
 5    1  0.6004828E+000  0.9343937E+02  0.7546771E-02  0.1294730E+00
         -3   -1    0    0    0  501 -0.00000000000E+00  0.00000000000E+00  0.55826948659E+02  0.55826948659E+02  0.00000000000E+00 0.  1.
          3   -1    0    0  501    0  0.00000000000E+00 -0.00000000000E+00 -0.39098127546E+02  0.39098127546E+02  0.00000000000E+00 0. -1.
         23    2    1    2    0    0  0.00000000000E+00  0.00000000000E+00  0.16728821114E+02  0.94925076205E+02  0.93439374124E+02 0.  0.
        -11    1    3    3    0    0  0.19898242589E+02 -0.22219733454E+02 -0.28166666702E+02  0.41024599035E+02  0.00000000000E+00 0. -1.
         11    1    3    3    0    0 -0.19898242589E+02  0.22219733454E+02  0.44895487816E+02  0.53900477170E+02  0.00000000000E+00 0.  1.
<mgrwt>
<rscale>  0 0.93439374E+02</rscale>
<asrwt>0</asrwt>
<pdfrwt beam="2">  1        3 0.60150965E-02 0.93439374E+02</pdfrwt>
<pdfrwt beam="1">  1       -3 0.85887614E-02 0.93439374E+02</pdfrwt>
<totfact> 0.32783205E+04</totfact>
</mgrwt>
</event>
<event>
 5    1  0.6004828E+000  0.8763919E+02  0.7546771E-02  0.1308672E+00
         -1   -1    0    0    0  501 -0.00000000000E+00  0.00000000000E+00  0.13356661012E+03  0.13356661012E+03  0.00000000000E+00 0.  1.
          1   -1    0    0  501    0  0.00000000000E+00 -0.00000000000E+00 -0.14376023886E+02  0.14376023886E+02  0.00000000000E+00 0. -1.
         23    2    1    2    0    0  0.00000000000E+00  0.00000000000E+00  0.11919058623E+03  0.14794263401E+03  0.87639187069E+02 0.  0.
        -11    1    3    3    0    0 -0.30308688287E+02  0.21217585856E+02  0.19957417864E+02  0.42036901206E+02  0.00000000000E+00 0. -1.
         11    1    3    3    0    0  0.30308688287E+02 -0.21217585856E+02  0.99233168371E+02  0.10590573280E+03  0.00000000000E+00 0.  1.
<mgrwt>
<rscale>  0 0.87639187E+02</rscale>
<asrwt>0</asrwt>
<pdfrwt beam="2">  1        1 0.22116961E-02 0.87639187E+02</pdfrwt>
<pdfrwt beam="1">  1       -1 0.20548708E-01 0.87639187E+02</pdfrwt>
<totfact> 0.85047029E+04</totfact>
</mgrwt>
</event>
<event>
 5    1  0.6004828E+000  0.8714943E+02  0.7546771E-02  0.1309905E+00
         -2   -1    0    0    0  501 -0.00000000000E+00  0.00000000000E+00  0.78387392325E+01  0.78387392325E+01  0.00000000000E+00 0.  1.
          2   -1    0    0  501    0  0.00000000000E+00 -0.00000000000E+00 -0.24222717190E+03  0.24222717190E+03  0.00000000000E+00 0. -1.
         23    2    1    2    0    0  0.00000000000E+00  0.00000000000E+00 -0.23438843267E+03  0.25006591113E+03  0.87149426517E+02 0.  0.
        -11    1    3    3    0    0 -0.25894365633E+02 -0.23231392779E+02 -0.41901233824E+02  0.54460345004E+02  0.00000000000E+00 0.  1.
         11    1    3    3    0    0  0.25894365633E+02  0.23231392779E+02 -0.19248719884E+03  0.19560556613E+03  0.00000000000E+00 0. -1.
<mgrwt>
<rscale>  0 0.87149427E+02</rscale>
<asrwt>0</asrwt>
<pdfrwt beam="2">  1        2 0.37265724E-01 0.87149427E+02</pdfrwt>
<pdfrwt beam="1">  1       -2 0.12059597E-02 0.87149427E+02</pdfrwt>
<totfact> 0.18719289E+05</totfact>
</mgrwt>
</event>
<event>
 5    1  0.6004828E+000  0.9093598E+02  0.7546771E-02  0.1300601E+00
         -2   -1    0    0    0  501 -0.00000000000E+00  0.00000000000E+00  0.20066724781E+03  0.20066724781E+03  0.00000000000E+00 0. -1.
          2   -1    0    0  501    0  0.00000000000E+00 -0.00000000000E+00 -0.10302320653E+02  0.10302320653E+02  0.00000000000E+00 0.  1.
         23    2    1    2    0    0  0.00000000000E+00  0.00000000000E+00  0.19036492715E+03  0.21096956846E+03  0.90935984767E+02 0.  0.
        -11    1    3    3    0    0  0.40322866524E+01  0.42913168123E+02  0.12876523017E+03  0.13578764242E+03  0.00000000000E+00 0.  1.
         11    1    3    3    0    0 -0.40322866524E+01 -0.42913168123E+02  0.61599696981E+02  0.75181926034E+02  0.00000000000E+00 0. -1.
<mgrwt>
<rscale>  0 0.90935985E+02</rscale>
<asrwt>0</asrwt>
<pdfrwt beam="2">  1        2 0.15849725E-02 0.90935985E+02</pdfrwt>
<pdfrwt beam="1">  1       -2 0.30871882E-01 0.90935985E+02</pdfrwt>
<totfact> 0.62651186E+04</totfact>
</mgrwt>
</event>
<event>
 5    1  0.6004828E+000  0.9181538E+02  0.7546771E-02  0.1298514E+00
         -3   -1    0    0    0  501 -0.00000000000E+00  0.00000000000E+00  0.39233727099E+02  0.39233727099E+02  0.00000000000E+00 0.  1.
          3   -1    0    0  501    0  0.00000000000E+00 -0.00000000000E+00 -0.53716944413E+02  0.53716944413E+02  0.00000000000E+00 0. -1.
         23    2    1    2    0    0  0.00000000000E+00  0.00000000000E+00 -0.14483217314E+02  0.92950671512E+02  0.91815378618E+02 0.  0.
        -11    1    3    3    0    0  0.26531699011E+02  0.10849531356E+02 -0.43544069500E+02  0.52131846041E+02  0.00000000000E+00 0. -1.
         11    1    3    3    0    0 -0.26531699011E+02 -0.10849531356E+02  0.29060852186E+02  0.40818825471E+02  0.00000000000E+00 0.  1.
<mgrwt>
<rscale>  0 0.91815379E+02</rscale>
<asrwt>0</asrwt>
<pdfrwt beam="2">  1        3 0.82641453E-02 0.91815379E+02</pdfrwt>
<pdfrwt beam="1">  1       -3 0.60359580E-02 0.91815379E+02</pdfrwt>
<totfact> 0.34538670E+04</totfact>
</mgrwt>
</event>
<event>
 5    1  0.6004828E+000  0.8734873E+02  0.7546771E-02  0.1309402E+00
          1   -1    0    0  501    0  0.00000000000E+00  0.00000000000E+00  0.21646595780E+02  0.21646595780E+02  0.00000000000E+00 0. -1.
         -1   -1    0    0    0  501 -0.00000000000E+00 -0.00000000000E+00 -0.88117791829E+02  0.88117791829E+02  0.00000000000E+00 0.  1.
         23    2    1    2    0    0  0.00000000000E+00  0.00000000000E+00 -0.66471196050E+02  0.10976438761E+03  0.87348731433E+02 0.  0.
        -11    1    3    3    0    0  0.18237406514E+02 -0.20722887410E+02 -0.75764599184E+02  0.80636936626E+02  0.00000000000E+00 0.  1.
         11    1    3    3    0    0 -0.18237406514E+02  0.20722887410E+02  0.92934031343E+01  0.29127450983E+02  0.00000000000E+00 0. -1.
<mgrwt>
<rscale>  0 0.87348731E+02</rscale>
<asrwt>0</asrwt>
<pdfrwt beam="1">  1        1 0.33302456E-02 0.87348731E+02</pdfrwt>
<pdfrwt beam="2">  1       -1 0.13556583E-01 0.87348731E+02</pdfrwt>
<totfact> 0.92926756E+04</totfact>
</mgrwt>
</event>
<event>
 5    1  0.6004828E+000  0.8951300E+02  0.7546771E-02  0.1304035E+00
         -2   -1    0    0    0  501 -0.00000000000E+00  0.00000000000E+00  0.13248615691E+03  0.13248615691E+03  0.00000000000E+00 0.  1.
          2   -1    0    0  501    0  0.00000000000E+00 -0.00000000000E+00 -0.15119650181E+02  0.15119650181E+02  0.00000000000E+00 0. -1.
         23    2    1    2    0    0  0.00000000000E+00  0.00000000000E+00  0.11736650673E+03  0.14760580709E+03  0.89513001208E+02 0.  0.
        -11    1    3    3    0    0 -0.13893998762E+02  0.15728608922E+02  0.12386962372E+03  0.12563485193E+03  0.00000000000E+00 0.  1.
         11    1    3    3    0    0  0.13893998762E+02 -0.15728608922E+02 -0.65031169844E+01  0.21970955162E+02  0.00000000000E+00 0. -1.
<mgrwt>
<rscale>  0 0.89513001E+02</rscale>
<asrwt>0</asrwt>
<pdfrwt beam="2">  1        2 0.23261001E-02 0.89513001E+02</pdfrwt>
<pdfrwt beam="1">  1       -2 0.20382485E-01 0.89513001E+02</pdfrwt>
<totfact> 0.76441444E+04</totfact>
</mgrwt>
</event>
<event>
 5    1  0.6004828E+000  0.8648663E+02  0.7546771E-02  0.1311590E+00
          1   -1    0    0  501    0  0.00000000000E+00  0.00000000000E+00  0.16201337738E+03  0.16201337738E+03  0.00000000000E+00 0. -1.
         -1   -1    0    0    0  501 -0.00000000000E+00 -0.00000000000E+00 -0.11542159565E+02  0.11542159565E+02  0.00000000000E+00 0.  1.
         23    2    1    2    0    0  0.00000000000E+00  0.00000000000E+00  0.15047121782E+03  0.17355553695E+03  0.86486629102E+02 0.  0.
        -11    1    3    3    0    0 -0.15510167489E+02 -0.37230451653E+02  0.10653757733E+03  0.11391631670E+03  0.00000000000E+00 0. -1.
         11    1    3    3    0    0  0.15510167489E+02  0.37230451653E+02  0.43933640484E+02  0.59639220250E+02  0.00000000000E+00 0.  1.
<mgrwt>
<rscale>  0 0.86486629E+02</rscale>
<asrwt>0</asrwt>
<pdfrwt beam="1">  1        1 0.24925133E-01 0.86486629E+02</pdfrwt>
<pdfrwt beam="2">  1       -1 0.17757170E-02 0.86486629E+02</pdfrwt>
<totfact> 0.13105886E+05</totfact>
</mgrwt>
</event>
<event>
 5    1  0.6004828E+000  0.9043163E+02  0.7546771E-02  0.1301810E+00
         -1   -1    0    0    0  501 -0.00000000000E+00  0.00000000000E+00  0.79603014621E+01  0.79603014621E+01  0.00000000000E+00 0.  1.
          1   -1    0    0  501    0  0.00000000000E+00 -0.00000000000E+00 -0.25683321286E+03  0.25683321286E+03  0.00000000000E+00 0. -1.
         23    2    1    2    0    0  0.00000000000E+00  0.00000000000E+00 -0.24887291140E+03  0.26479351432E+03  0.90431627208E+02 0.  0.
        -11    1    3    3    0    0 -0.10789592499E+02 -0.36030920690E+02 -0.19792129025E+03  0.20146334576E+03  0.00000000000E+00 0. -1.
         11    1    3    3    0    0  0.10789592499E+02  0.36030920690E+02 -0.50951621149E+02  0.63330168559E+02  0.00000000000E+00 0.  1.
<mgrwt>
<rscale>  0 0.90431627E+02</rscale>
<asrwt>0</asrwt>
<pdfrwt beam="2">  1        1 0.39512803E-01 0.90431627E+02</pdfrwt>
<pdfrwt beam="1">  1       -1 0.12246617E-02 0.90431627E+02</pdfrwt>
<totfact> 0.12707306E+05</totfact>
</mgrwt>
</event>
<event>
 5    1  0.6004828E+000  0.9090441E+02  0.7546771E-02  0.1300676E+00
         -1   -1    0    0    0  501 -0.00000000000E+00  0.00000000000E+00  0.14620935648E+02  0.14620935648E+02  0.00000000000E+00 0.  1.
          1   -1    0    0  501    0  0.00000000000E+00 -0.00000000000E+00 -0.14129760126E+03  0.14129760126E+03  0.00000000000E+00 0. -1.
         23    2    1    2    0    0  0.00000000000E+00  0.00000000000E+00 -0.12667666561E+03  0.15591853691E+03  0.90904414309E+02 0.  0.
        -11    1    3    3    0    0 -0.31251379275E+02  0.28479016579E+01 -0.11973514105E+03  0.12377909053E+03  0.00000000000E+00 0. -1.
         11    1    3    3    0    0  0.31251379275E+02 -0.28479016579E+01 -0.69415245679E+01  0.32139446382E+02  0.00000000000E+00 0.  1.
<mgrwt>
<rscale>  0 0.90904414E+02</rscale>
<asrwt>0</asrwt>
<pdfrwt beam="2">  1        1 0.21738092E-01 0.90904414E+02</pdfrwt>
<pdfrwt beam="1">  1       -1 0.22493747E-02 0.90904414E+02</pdfrwt>
<totfact> 0.11181544E+05</totfact>
</mgrwt>
</event>
<event>
 5    1  0.6004828E+000  0.9077753E+02  0.7546771E-02  0.1300980E+00
         -2   -1    0    0    0  501 -0.00000000000E+00  0.00000000000E+00  0.17511225360E+02  0.17511225360E+02  0.00000000000E+00 0. -1.
          2   -1    0    0  501    0  0.00000000000E+00 -0.00000000000E+00 -0.11764681268E+03  0.11764681268E+03  0.00000000000E+00 0.  1.
         23    2    1    2    0    0  0.00000000000E+00  0.00000000000E+00 -0.10013558732E+03  0.13515803804E+03  0.90777526950E+02 0.  0.
        -11    1    3    3    0    0  0.36947309734E+02  0.26312018073E+02 -0.47615022084E+02  0.65761815058E+02  0.00000000000E+00 0. -1.
         11    1    3    3    0    0 -0.36947309734E+02 -0.26312018073E+02 -0.52520565241E+02  0.69396222987E+02  0.00000000000E+00 0.  1.
<mgrwt>
<rscale>  0 0.90777527E+02</rscale>
<asrwt>0</asrwt>
<pdfrwt beam="2">  1        2 0.18099510E-01 0.90777527E+02</pdfrwt>
<pdfrwt beam="1">  1       -2 0.26940347E-02 0.90777527E+02</pdfrwt>
<totfact> 0.13060346E+05</totfact>
</mgrwt>
</event>
<event>
 5    1  0.6004828E+000  0.9415579E+02  0.7546771E-02  0.1293089E+00
          2   -1    0    0  501    0  0.00000000000E+00  0.00000000000E+00  0.11541070159E+03  0.11541070159E+03  0.00000000000E+00 0. -1.
         -2   -1    0    0    0  501 -0.00000000000E+00 -0.00000000000E+00 -0.19203835264E+02  0.19203835264E+02  0.00000000000E+00 0.  1.
         23    2    1    2    0    0  0.00000000000E+00  0.00000000000E+00  0.96206866325E+02  0.13461453685E+03  0.94155787947E+02 0.  0.
        -11    1    3    3    0    0  0.18370052410E+02  0.34753957258E+02  0.11068081948E+02  0.40838692543E+02  0.00000000000E+00 0.  1.
         11    1    3    3    0    0 -0.18370052410E+02 -0.34753957258E+02  0.85138784378E+02  0.93775844310E+02  0.00000000000E+00 0. -1.
<mgrwt>
<rscale>  0 0.94155788E+02</rscale>
<asrwt>0</asrwt>
<pdfrwt beam="1">  1        2 0.17755492E-01 0.94155788E+02</pdfrwt>
<pdfrwt beam="2">  1       -2 0.29544363E-02 0.94155788E+02</pdfrwt>
<totfact> 0.11742226E+05</totfact>
</mgrwt>
</event>
<event>
 5    1  0.6004828E+000  0.9114336E+02  0.7546771E-02  0.1300106E+00
         -3   -1    0    0    0  501 -0.00000000000E+00  0.00000000000E+00  0.80584645572E+01  0.80584645572E+01  0.00000000000E+00 0.  1.
          3   -1    0    0  501    0  0.00000000000E+00 -0.00000000000E+00 -0.25771385378E+03  0.25771385378E+03  0.00000000000E+00 0. -1.
         23    2    1    2    0    0  0.00000000000E+00  0.00000000000E+00 -0.24965538922E+03  0.26577231833E+03  0.91143358652E+02 0.  0.
        -11    1    3    3    0    0 -0.97959238998E+01 -0.39893134195E+02 -0.18236611981E+03  0.18693534694E+03  0.00000000000E+00 0. -1.
         11    1    3    3    0    0  0.97959238998E+01  0.39893134195E+02 -0.67289269412E+02  0.78836971397E+02  0.00000000000E+00 0.  1.
<mgrwt>
<rscale>  0 0.91143359E+02</rscale>
<asrwt>0</asrwt>
<pdfrwt beam="2">  1        3 0.39648286E-01 0.91143359E+02</pdfrwt>
<pdfrwt beam="1">  1       -3 0.12397638E-02 0.91143359E+02</pdfrwt>
<totfact> 0.25444030E+04</totfact>
</mgrwt>
</event>
<event>
 5    1  0.6004828E+000  0.9012948E+02  0.7546771E-02  0.1302538E+00
          3   -1    0    0  501    0  0.00000000000E+00  0.00000000000E+00  0.13695323090E+02  0.13695323090E+02  0.00000000000E+00 0. -1.
         -3   -1    0    0    0  501 -0.00000000000E+00 -0.00000000000E+00 -0.14828644384E+03  0.14828644384E+03  0.00000000000E+00 0.  1.
         23    2    1    2    0    0  0.00000000000E+00  0.00000000000E+00 -0.13459112075E+03  0.16198176693E+03  0.90129479266E+02 0.  0.
        -11    1    3    3    0    0  0.10539160801E+01 -0.35318152338E+02 -0.11756445040E+03  0.12275945024E+03  0.00000000000E+00 0.  1.
         11    1    3    3    0    0 -0.10539160801E+01  0.35318152338E+02 -0.17026670347E+02  0.39222316693E+02  0.00000000000E+00 0. -1.
<mgrwt>
<rscale>  0 0.90129479E+02</rscale>
<asrwt>0</asrwt>
<pdfrwt beam="1">  1        3 0.21069727E-02 0.90129479E+02</pdfrwt>
<pdfrwt beam="2">  1       -3 0.22813300E-01 0.90129479E+02</pdfrwt>
<totfact> 0.31559860E+04</totfact>
</mgrwt>
</event>
<event>
 5    1  0.6004828E+000  0.9214404E+02  0.7546771E-02  0.1297741E+00
          2   -1    0    0  501    0  0.00000000000E+00  0.00000000000E+00  0.22063689543E+02  0.22063689543E+02  0.00000000000E+00 0. -1.
         -2   -1    0    0    0  501 -0.00000000000E+00 -0.00000000000E+00 -0.96204707825E+02  0.96204707825E+02  0.00000000000E+00 0.  1.
         23    2    1    2    0    0  0.00000000000E+00  0.00000000000E+00 -0.74141018281E+02  0.11826839737E+03  0.92144035207E+02 0.  0.
        -11    1    3    3    0    0 -0.21370402465E+02 -0.73016707501E+01 -0.88613286478E+02  0.91445738215E+02  0.00000000000E+00 0.  1.
         11    1    3    3    0    0  0.21370402465E+02  0.73016707501E+01  0.14472268197E+02  0.26822659153E+02  0.00000000000E+00 0. -1.
<mgrwt>
<rscale>  0 0.92144035E+02</rscale>
<asrwt>0</asrwt>
<pdfrwt beam="1">  1        2 0.33944137E-02 0.92144035E+02</pdfrwt>
<pdfrwt beam="2">  1       -2 0.14800725E-01 0.92144035E+02</pdfrwt>
<totfact> 0.78636271E+04</totfact>
</mgrwt>
</event>
<event>
 5    1  0.6004828E+000  0.9254684E+02  0.7546771E-02  0.1296799E+00
          3   -1    0    0  501    0  0.00000000000E+00  0.00000000000E+00  0.42802104150E+03  0.42802104150E+03  0.00000000000E+00 0. -1.
         -3   -1    0    0    0  501 -0.00000000000E+00 -0.00000000000E+00 -0.50026264950E+01  0.50026264950E+01  0.00000000000E+00 0.  1.
         23    2    1    2    0    0  0.00000000000E+00  0.00000000000E+00  0.42301841500E+03  0.43302366799E+03  0.92546840089E+02 0.  0.
        -11    1    3    3    0    0 -0.40460254135E+02 -0.19135457300E+02  0.15653750822E+03  0.16281028644E+03  0.00000000000E+00 0.  1.
         11    1    3    3    0    0  0.40460254135E+02  0.19135457300E+02  0.26648090678E+03  0.27021338155E+03  0.00000000000E+00 0. -1.
<mgrwt>
<rscale>  0 0.92546840E+02</rscale>
<asrwt>0</asrwt>
<pdfrwt beam="1">  1        3 0.65849362E-01 0.92546840E+02</pdfrwt>
<pdfrwt beam="2">  1       -3 0.76963518E-03 0.92546840E+02</pdfrwt>
<totfact> 0.18885480E+04</totfact>
</mgrwt>
</event>
<event>
 5    1  0.6004828E+000  0.9264807E+02  0.7546771E-02  0.1296563E+00
         -2   -1    0    0    0  501 -0.00000000000E+00  0.00000000000E+00  0.11952517239E+03  0.11952517239E+03  0.00000000000E+00 0.  1.
          2   -1    0    0  501    0  0.00000000000E+00 -0.00000000000E+00 -0.17953675779E+02  0.17953675779E+02  0.00000000000E+00 0. -1.
         23    2    1    2    0    0  0.00000000000E+00  0.00000000000E+00  0.10157149661E+03  0.13747884817E+03  0.92648069436E+02 0.  0.
        -11    1    3    3    0    0  0.16512311509E+02 -0.36050662447E+02  0.86324950789E+02  0.94996335839E+02  0.00000000000E+00 0.  1.
         11    1    3    3    0    0 -0.16512311509E+02  0.36050662447E+02  0.15246545820E+02  0.42482512328E+02  0.00000000000E+00 0. -1.
<mgrwt>
<rscale>  0 0.92648069E+02</rscale>
<asrwt>0</asrwt>
<pdfrwt beam="2">  1        2 0.27621040E-02 0.92648069E+02</pdfrwt>
<pdfrwt beam="1">  1       -2 0.18388488E-01 0.92648069E+02</pdfrwt>
<totfact> 0.72537874E+04</totfact>
</mgrwt>
</event>
<event>
 5    1  0.6004828E+000  0.9044322E+02  0.7546771E-02  0.1301782E+00
          4   -1    0    0  501    0  0.00000000000E+00  0.00000000000E+00  0.25166489413E+02  0.25166489413E+02  0.00000000000E+00 0. -1.
         -4   -1    0    0    0  501 -0.00000000000E+00 -0.00000000000E+00 -0.81258620496E+02  0.81258620496E+02  0.00000000000E+00 0.  1.
         23    2    1    2    0    0  0.00000000000E+00  0.00000000000E+00 -0.56092131083E+02  0.10642510991E+03  0.90443224454E+02 0.  0.
        -11    1    3    3    0    0  0.81778557973E+01 -0.22814725116E+02  0.16878928201E+02  0.29534509049E+02  0.00000000000E+00 0. -1.
         11    1    3    3    0    0 -0.81778557973E+01  0.22814725116E+02 -0.72971059284E+02  0.76890600860E+02  0.00000000000E+00 0.  1.
<mgrwt>
<rscale>  0 0.90443224E+02</rscale>
<asrwt>0</asrwt>
<pdfrwt beam="1">  1        4 0.38717676E-02 0.90443224E+02</pdfrwt>
<pdfrwt beam="2">  1       -4 0.12501326E-01 0.90443224E+02</pdfrwt>
<totfact> 0.26641466E+04</totfact>
</mgrwt>
</event>
<event>
 5    1  0.6004828E+000  0.9149599E+02  0.7546771E-02  0.1299269E+00
          1   -1    0    0  501    0  0.00000000000E+00  0.00000000000E+00  0.29807429986E+02  0.29807429986E+02  0.00000000000E+00 0. -1.
         -1   -1    0    0    0  501 -0.00000000000E+00 -0.00000000000E+00 -0.70213339548E+02  0.70213339548E+02  0.00000000000E+00 0.  1.
         23    2    1    2    0    0  0.00000000000E+00  0.00000000000E+00 -0.40405909563E+02  0.10002076953E+03  0.91495993413E+02 0.  0.
        -11    1    3    3    0    0  0.23764399443E+02  0.59495424013E+01 -0.62438639624E+02  0.67072553655E+02  0.00000000000E+00 0.  1.
         11    1    3    3    0    0 -0.23764399443E+02 -0.59495424013E+01  0.22032730061E+02  0.32948215879E+02  0.00000000000E+00 0. -1.
<mgrwt>
<rscale>  0 0.91495993E+02</rscale>
<asrwt>0</asrwt>
<pdfrwt beam="1">  1        1 0.45857585E-02 0.91495993E+02</pdfrwt>
<pdfrwt beam="2">  1       -1 0.10802052E-01 0.91495993E+02</pdfrwt>
<totfact> 0.85728652E+04</totfact>
</mgrwt>
</event>
<event>
 5    1  0.6004828E+000  0.9175950E+02  0.7546771E-02  0.1298646E+00
         -3   -1    0    0    0  501 -0.00000000000E+00  0.00000000000E+00  0.16864739541E+03  0.16864739541E+03  0.00000000000E+00 0.  1.
          3   -1    0    0  501    0  0.00000000000E+00 -0.00000000000E+00 -0.12481376720E+02  0.12481376720E+02  0.00000000000E+00 0. -1.
         23    2    1    2    0    0  0.00000000000E+00  0.00000000000E+00  0.15616601869E+03  0.18112877213E+03  0.91759504682E+02 0.  0.
        -11    1    3    3    0    0  0.27923959050E+02 -0.14211486919E+02  0.14423946694E+03  0.14760331186E+03  0.00000000000E+00 0.  1.
         11    1    3    3    0    0 -0.27923959050E+02  0.14211486919E+02  0.11926551750E+02  0.33525460267E+02  0.00000000000E+00 0. -1.
<mgrwt>
<rscale>  0 0.91759505E+02</rscale>
<asrwt>0</asrwt>
<pdfrwt beam="2">  1        3 0.19202119E-02 0.91759505E+02</pdfrwt>
<pdfrwt beam="1">  1       -3 0.25945751E-01 0.91759505E+02</pdfrwt>
<totfact> 0.28999483E+04</totfact>
</mgrwt>
</event>
<event>
 5    1  0.6004828E+000  0.9057022E+02  0.7546771E-02  0.1301477E+00
         -2   -1    0    0    0  501 -0.00000000000E+00  0.00000000000E+00  0.20538366030E+02  0.20538366030E+02  0.00000000000E+00 0.  1.
          2   -1    0    0  501    0  0.00000000000E+00 -0.00000000000E+00 -0.99849297064E+02  0.99849297064E+02  0.00000000000E+00 0. -1.
         23    2    1    2    0    0  0.00000000000E+00  0.00000000000E+00 -0.79310931035E+02  0.12038766309E+03  0.90570224929E+02 0.  0.
        -11    1    3    3    0    0  0.15886493160E+02  0.38426285879E+02 -0.15811584907E+02  0.44485574388E+02  0.00000000000E+00 0.  1.
         11    1    3    3    0    0 -0.15886493160E+02 -0.38426285879E+02 -0.63499346128E+02  0.75902088707E+02  0.00000000000E+00 0. -1.
<mgrwt>
<rscale>  0 0.90570225E+02</rscale>
<asrwt>0</asrwt>
<pdfrwt beam="2">  1        2 0.15361430E-01 0.90570225E+02</pdfrwt>
<pdfrwt beam="1">  1       -2 0.31597486E-02 0.90570225E+02</pdfrwt>
<totfact> 0.12489199E+05</totfact>
</mgrwt>
</event>
<event>
 5    1  0.6004828E+000  0.8857395E+02  0.7546771E-02  0.1306342E+00
         -2   -1    0    0    0  501 -0.00000000000E+00  0.00000000000E+00  0.59297338136E+01  0.59297338136E+01  0.00000000000E+00 0.  1.
          2   -1    0    0  501    0  0.00000000000E+00 -0.00000000000E+00 -0.33076289864E+03  0.33076289864E+03  0.00000000000E+00 0. -1.
         23    2    1    2    0    0  0.00000000000E+00  0.00000000000E+00 -0.32483316483E+03  0.33669263245E+03  0.88573945252E+02 0.  0.
        -11    1    3    3    0    0  0.40000276483E+02  0.15332557637E+02 -0.20512395927E+03  0.20954939301E+03  0.00000000000E+00 0. -1.
         11    1    3    3    0    0 -0.40000276483E+02 -0.15332557637E+02 -0.11970920556E+03  0.12714323945E+03  0.00000000000E+00 0.  1.
<mgrwt>
<rscale>  0 0.88573945E+02</rscale>
<asrwt>0</asrwt>
<pdfrwt beam="2">  1        2 0.50886620E-01 0.88573945E+02</pdfrwt>
<pdfrwt beam="1">  1       -2 0.91226638E-03 0.88573945E+02</pdfrwt>
<totfact> 0.20119054E+05</totfact>
</mgrwt>
</event>
<event>
 5    1  0.6004828E+000  0.8915097E+02  0.7546771E-02  0.1304921E+00
          3   -1    0    0  501    0  0.00000000000E+00  0.00000000000E+00  0.33849750185E+02  0.33849750185E+02  0.00000000000E+00 0. -1.
         -3   -1    0    0    0  501 -0.00000000000E+00 -0.00000000000E+00 -0.58699804525E+02  0.58699804525E+02  0.00000000000E+00 0.  1.
         23    2    1    2    0    0  0.00000000000E+00  0.00000000000E+00 -0.24850054341E+02  0.92549554710E+02  0.89150966771E+02 0.  0.
        -11    1    3    3    0    0  0.19650509065E+02  0.34045981891E+02  0.93928815936E+01  0.40416551239E+02  0.00000000000E+00 0.  1.
         11    1    3    3    0    0 -0.19650509065E+02 -0.34045981891E+02 -0.34242935934E+02  0.52133003470E+02  0.00000000000E+00 0. -1.
<mgrwt>
<rscale>  0 0.89150967E+02</rscale>
<asrwt>0</asrwt>
<pdfrwt beam="1">  1        3 0.52076539E-02 0.89150967E+02</pdfrwt>
<pdfrwt beam="2">  1       -3 0.90307391E-02 0.89150967E+02</pdfrwt>
<totfact> 0.37451798E+04</totfact>
</mgrwt>
</event>
<event>
 5    1  0.6004828E+000  0.8701829E+02  0.7546771E-02  0.1310237E+00
         -1   -1    0    0    0  501 -0.00000000000E+00  0.00000000000E+00  0.11457817726E+03  0.11457817726E+03  0.00000000000E+00 0.  1.
          1   -1    0    0  501    0  0.00000000000E+00 -0.00000000000E+00 -0.16521868958E+02  0.16521868958E+02  0.00000000000E+00 0. -1.
         23    2    1    2    0    0  0.00000000000E+00  0.00000000000E+00  0.98056308299E+02  0.13110004621E+03  0.87018288424E+02 0.  0.
        -11    1    3    3    0    0  0.47847996729E+00  0.32270610815E+02  0.50673786681E+01  0.32669551451E+02  0.00000000000E+00 0. -1.
         11    1    3    3    0    0 -0.47847996729E+00 -0.32270610815E+02  0.92988929631E+02  0.98430494763E+02  0.00000000000E+00 0.  1.
<mgrwt>
<rscale>  0 0.87018288E+02</rscale>
<asrwt>0</asrwt>
<pdfrwt beam="2">  1        1 0.25418261E-02 0.87018288E+02</pdfrwt>
<pdfrwt beam="1">  1       -1 0.17627411E-01 0.87018288E+02</pdfrwt>
<totfact> 0.89405395E+04</totfact>
</mgrwt>
</event>
<event>
 5    1  0.6004828E+000  0.9546083E+02  0.7546771E-02  0.1290142E+00
         -2   -1    0    0    0  501 -0.00000000000E+00  0.00000000000E+00  0.26639038734E+02  0.26639038734E+02  0.00000000000E+00 0.  1.
          2   -1    0    0  501    0  0.00000000000E+00 -0.00000000000E+00 -0.85520828693E+02  0.85520828693E+02  0.00000000000E+00 0. -1.
         23    2    1    2    0    0  0.00000000000E+00  0.00000000000E+00 -0.58881789959E+02  0.11215986743E+03  0.95460833185E+02 0.  0.
        -11    1    3    3    0    0 -0.17246779768E+02  0.14904252887E+01  0.22820677966E+02  0.28643605268E+02  0.00000000000E+00 0.  1.
         11    1    3    3    0    0  0.17246779768E+02 -0.14904252887E+01 -0.81702467925E+02  0.83516262159E+02  0.00000000000E+00 0. -1.
<mgrwt>
<rscale>  0 0.95460833E+02</rscale>
<asrwt>0</asrwt>
<pdfrwt beam="2">  1        2 0.13157051E-01 0.95460833E+02</pdfrwt>
<pdfrwt beam="1">  1       -2 0.40983136E-02 0.95460833E+02</pdfrwt>
<totfact> 0.10304335E+05</totfact>
</mgrwt>
</event>
<event>
 5    1  0.6004828E+000  0.7033610E+02  0.7546771E-02  0.1358954E+00
          1   -1    0    0  501    0  0.00000000000E+00  0.00000000000E+00  0.15500440148E+02  0.15500440148E+02  0.00000000000E+00 0. -1.
         -1   -1    0    0    0  501 -0.00000000000E+00 -0.00000000000E+00 -0.79790746726E+02  0.79790746726E+02  0.00000000000E+00 0.  1.
         23    2    1    2    0    0  0.00000000000E+00  0.00000000000E+00 -0.64290306578E+02  0.95291186875E+02  0.70336098670E+02 0.  0.
        -11    1    3    3    0    0 -0.68459418448E+01 -0.13068732262E+02  0.11105223492E+02  0.18465770265E+02  0.00000000000E+00 0. -1.
         11    1    3    3    0    0  0.68459418448E+01  0.13068732262E+02 -0.75395530070E+02  0.76825416609E+02  0.00000000000E+00 0.  1.
<mgrwt>
<rscale>  0 0.70336099E+02</rscale>
<asrwt>0</asrwt>
<pdfrwt beam="1">  1        1 0.23846831E-02 0.70336099E+02</pdfrwt>
<pdfrwt beam="2">  1       -1 0.12275499E-01 0.70336099E+02</pdfrwt>
<totfact> 0.16402739E+05</totfact>
</mgrwt>
</event>
<event>
 5    1  0.6004828E+000  0.9291029E+02  0.7546771E-02  0.1295953E+00
         -3   -1    0    0    0  501 -0.00000000000E+00  0.00000000000E+00  0.16051348712E+03  0.16051348712E+03  0.00000000000E+00 0.  1.
          3   -1    0    0  501    0  0.00000000000E+00 -0.00000000000E+00 -0.13444854087E+02  0.13444854087E+02  0.00000000000E+00 0. -1.
         23    2    1    2    0    0  0.00000000000E+00  0.00000000000E+00  0.14706863304E+03  0.17395834121E+03  0.92910288200E+02 0.  0.
        -11    1    3    3    0    0  0.41730623914E+02  0.35690665175E+01  0.11116281378E+03  0.11879122179E+03  0.00000000000E+00 0.  1.
         11    1    3    3    0    0 -0.41730623914E+02 -0.35690665175E+01  0.35905819256E+02  0.55167119415E+02  0.00000000000E+00 0. -1.
<mgrwt>
<rscale>  0 0.92910288E+02</rscale>
<asrwt>0</asrwt>
<pdfrwt beam="2">  1        3 0.20684392E-02 0.92910288E+02</pdfrwt>
<pdfrwt beam="1">  1       -3 0.24694381E-01 0.92910288E+02</pdfrwt>
<totfact> 0.28414667E+04</totfact>
</mgrwt>
</event>
<event>
 5    1  0.6004828E+000  0.8950419E+02  0.7546771E-02  0.1304057E+00
         -2   -1    0    0    0  501 -0.00000000000E+00  0.00000000000E+00  0.99463381796E+01  0.99463381796E+01  0.00000000000E+00 0.  1.
          2   -1    0    0  501    0  0.00000000000E+00 -0.00000000000E+00 -0.20135551105E+03  0.20135551105E+03  0.00000000000E+00 0. -1.
         23    2    1    2    0    0  0.00000000000E+00  0.00000000000E+00 -0.19140917287E+03  0.21130184923E+03  0.89504190008E+02 0.  0.
        -11    1    3    3    0    0 -0.42991845675E+02  0.10530103358E+02 -0.80121825030E+02  0.91535177486E+02  0.00000000000E+00 0.  1.
         11    1    3    3    0    0  0.42991845675E+02 -0.10530103358E+02 -0.11128734784E+03  0.11976667175E+03  0.00000000000E+00 0. -1.
<mgrwt>
<rscale>  0 0.89504190E+02</rscale>
<asrwt>0</asrwt>
<pdfrwt beam="2">  1        2 0.30977773E-01 0.89504190E+02</pdfrwt>
<pdfrwt beam="1">  1       -2 0.15302058E-02 0.89504190E+02</pdfrwt>
<totfact> 0.16296817E+05</totfact>
</mgrwt>
</event>
<event>
 5    1  0.6004828E+000  0.9175015E+02  0.7546771E-02  0.1298668E+00
          2   -1    0    0  501    0  0.00000000000E+00  0.00000000000E+00  0.39162415109E+03  0.39162415109E+03  0.00000000000E+00 0.  1.
         -2   -1    0    0    0  501 -0.00000000000E+00 -0.00000000000E+00 -0.53738323696E+01  0.53738323696E+01  0.00000000000E+00 0. -1.
         23    2    1    2    0    0  0.00000000000E+00  0.00000000000E+00  0.38625031872E+03  0.39699798346E+03  0.91750150731E+02 0.  0.
        -11    1    3    3    0    0  0.26214200475E+01 -0.45779837176E+02  0.18722842690E+03  0.19276189762E+03  0.00000000000E+00 0.  1.
         11    1    3    3    0    0 -0.26214200475E+01  0.45779837176E+02  0.19902189182E+03  0.20423608584E+03  0.00000000000E+00 0. -1.
<mgrwt>
<rscale>  0 0.91750151E+02</rscale>
<asrwt>0</asrwt>
<pdfrwt beam="1">  1        2 0.60249847E-01 0.91750151E+02</pdfrwt>
<pdfrwt beam="2">  1       -2 0.82674375E-03 0.91750151E+02</pdfrwt>
<totfact> 0.19484239E+05</totfact>
</mgrwt>
</event>
<event>
 5    1  0.6004828E+000  0.9211428E+02  0.7546771E-02  0.1297811E+00
          1   -1    0    0  501    0  0.00000000000E+00  0.00000000000E+00  0.16427262002E+02  0.16427262002E+02  0.00000000000E+00 0. -1.
         -1   -1    0    0    0  501 -0.00000000000E+00 -0.00000000000E+00 -0.12913048128E+03  0.12913048128E+03  0.00000000000E+00 0.  1.
         23    2    1    2    0    0  0.00000000000E+00  0.00000000000E+00 -0.11270321928E+03  0.14555774329E+03  0.92114282248E+02 0.  0.
        -11    1    3    3    0    0  0.31284450510E+02 -0.65468826655E+01 -0.10875288373E+03  0.11335240728E+03  0.00000000000E+00 0.  1.
         11    1    3    3    0    0 -0.31284450510E+02  0.65468826655E+01 -0.39503355526E+01  0.32205336007E+02  0.00000000000E+00 0. -1.
<mgrwt>
<rscale>  0 0.92114282E+02</rscale>
<asrwt>0</asrwt>
<pdfrwt beam="1">  1        1 0.25272710E-02 0.92114282E+02</pdfrwt>
<pdfrwt beam="2">  1       -1 0.19866228E-01 0.92114282E+02</pdfrwt>
<totfact> 0.75312361E+04</totfact>
</mgrwt>
</event>
<event>
 5    1  0.6004828E+000  0.8903919E+02  0.7546771E-02  0.1305195E+00
          1   -1    0    0  501    0  0.00000000000E+00  0.00000000000E+00  0.15754781633E+03  0.15754781633E+03  0.00000000000E+00 0. -1.
         -1   -1    0    0    0  501 -0.00000000000E+00 -0.00000000000E+00 -0.12580272755E+02  0.12580272755E+02  0.00000000000E+00 0.  1.
         23    2    1    2    0    0  0.00000000000E+00  0.00000000000E+00  0.14496754358E+03  0.17012808909E+03  0.89039193648E+02 0.  0.
        -11    1    3    3    0    0  0.36870049616E+02 -0.13748785658E+02  0.32698545614E+02  0.51162726189E+02  0.00000000000E+00 0.  1.
         11    1    3    3    0    0 -0.36870049616E+02  0.13748785658E+02  0.11226899796E+03  0.11896536290E+03  0.00000000000E+00 0. -1.
<mgrwt>
<rscale>  0 0.89039194E+02</rscale>
<asrwt>0</asrwt>
<pdfrwt beam="1">  1        1 0.24238124E-01 0.89039194E+02</pdfrwt>
<pdfrwt beam="2">  1       -1 0.19354267E-02 0.89039194E+02</pdfrwt>
<totfact> 0.12060846E+05</totfact>
</mgrwt>
</event>
<event>
 5    1  0.6004828E+000  0.9116132E+02  0.7546771E-02  0.1300064E+00
          1   -1    0    0  501    0  0.00000000000E+00  0.00000000000E+00  0.49697303798E+02  0.49697303798E+02  0.00000000000E+00 0. -1.
         -1   -1    0    0    0  501 -0.00000000000E+00 -0.00000000000E+00 -0.41805017801E+02  0.41805017801E+02  0.00000000000E+00 0.  1.
         23    2    1    2    0    0  0.00000000000E+00  0.00000000000E+00  0.78922859966E+01  0.91502321599E+02  0.91161322280E+02 0.  0.
        -11    1    3    3    0    0  0.14861229483E+02 -0.24707883886E+01 -0.39233790481E+02  0.42026792080E+02  0.00000000000E+00 0.  1.
         11    1    3    3    0    0 -0.14861229483E+02  0.24707883886E+01  0.47126076478E+02  0.49475529519E+02  0.00000000000E+00 0. -1.
<mgrwt>
<rscale>  0 0.91161322E+02</rscale>
<asrwt>0</asrwt>
<pdfrwt beam="1">  1        1 0.76457390E-02 0.91161322E+02</pdfrwt>
<pdfrwt beam="2">  1       -1 0.64315412E-02 0.91161322E+02</pdfrwt>
<totfact> 0.93723119E+04</totfact>
</mgrwt>
</event>
<event>
 5    1  0.6004828E+000  0.9248416E+02  0.7546771E-02  0.1296945E+00
          3   -1    0    0  501    0  0.00000000000E+00  0.00000000000E+00  0.20878034664E+03  0.20878034664E+03  0.00000000000E+00 0. -1.
         -3   -1    0    0    0  501 -0.00000000000E+00 -0.00000000000E+00 -0.10242007450E+02  0.10242007450E+02  0.00000000000E+00 0.  1.
         23    2    1    2    0    0  0.00000000000E+00  0.00000000000E+00  0.19853833919E+03  0.21902235409E+03  0.92484157904E+02 0.  0.
        -11    1    3    3    0    0 -0.31887812872E+02  0.25118670548E+02  0.15172123321E+03  0.15705767357E+03  0.00000000000E+00 0. -1.
         11    1    3    3    0    0  0.31887812872E+02 -0.25118670548E+02  0.46817105979E+02  0.61964680521E+02  0.00000000000E+00 0.  1.
<mgrwt>
<rscale>  0 0.92484158E+02</rscale>
<asrwt>0</asrwt>
<pdfrwt beam="1">  1        3 0.32120050E-01 0.92484158E+02</pdfrwt>
<pdfrwt beam="2">  1       -3 0.15756936E-02 0.92484158E+02</pdfrwt>
<totfact> 0.26505118E+04</totfact>
</mgrwt>
</event>
<event>
 5    1  0.6004828E+000  0.9594902E+02  0.7546771E-02  0.1289053E+00
         -1   -1    0    0    0  501 -0.00000000000E+00  0.00000000000E+00  0.20975111878E+02  0.20975111878E+02  0.00000000000E+00 0.  1.
          1   -1    0    0  501    0  0.00000000000E+00 -0.00000000000E+00 -0.10972783056E+03  0.10972783056E+03  0.00000000000E+00 0. -1.
         23    2    1    2    0    0  0.00000000000E+00  0.00000000000E+00 -0.88752718678E+02  0.13070294244E+03  0.95949018173E+02 0.  0.
        -11    1    3    3    0    0  0.35652330494E+02  0.32578879128E+01 -0.87878757267E+02  0.94891403626E+02  0.00000000000E+00 0. -1.
         11    1    3    3    0    0 -0.35652330494E+02 -0.32578879128E+01 -0.87396141108E+00  0.35811538809E+02  0.00000000000E+00 0.  1.
<mgrwt>
<rscale>  0 0.95949018E+02</rscale>
<asrwt>0</asrwt>
<pdfrwt beam="2">  1        1 0.16881205E-01 0.95949018E+02</pdfrwt>
<pdfrwt beam="1">  1       -1 0.32269403E-02 0.95949018E+02</pdfrwt>
<totfact> 0.92301775E+04</totfact>
</mgrwt>
</event>
<event>
 5    1  0.6004828E+000  0.9427030E+02  0.7546771E-02  0.1292828E+00
          1   -1    0    0  501    0  0.00000000000E+00  0.00000000000E+00  0.42612167574E+02  0.42612167574E+02  0.00000000000E+00 0. -1.
         -1   -1    0    0    0  501 -0.00000000000E+00 -0.00000000000E+00 -0.52138220552E+02  0.52138220552E+02  0.00000000000E+00 0.  1.
         23    2    1    2    0    0  0.00000000000E+00  0.00000000000E+00 -0.95260529784E+01  0.94750388126E+02  0.94270304787E+02 0.  0.
        -11    1    3    3    0    0  0.45164674565E+02 -0.13473265189E+02 -0.53541437588E+01  0.47434624051E+02  0.00000000000E+00 0.  1.
         11    1    3    3    0    0 -0.45164674565E+02  0.13473265189E+02 -0.41719092196E+01  0.47315764075E+02  0.00000000000E+00 0. -1.
<mgrwt>
<rscale>  0 0.94270305E+02</rscale>
<asrwt>0</asrwt>
<pdfrwt beam="1">  1        1 0.65557181E-02 0.94270305E+02</pdfrwt>
<pdfrwt beam="2">  1       -1 0.80212647E-02 0.94270305E+02</pdfrwt>
<totfact> 0.83298759E+04</totfact>
</mgrwt>
</event>
<event>
 5    1  0.6004828E+000  0.8785827E+02  0.7546771E-02  0.1308123E+00
         -2   -1    0    0    0  501 -0.00000000000E+00  0.00000000000E+00  0.42880878985E+02  0.42880878985E+02  0.00000000000E+00 0.  1.
          2   -1    0    0  501    0  0.00000000000E+00 -0.00000000000E+00 -0.45003012858E+02  0.45003012858E+02  0.00000000000E+00 0. -1.
         23    2    1    2    0    0  0.00000000000E+00  0.00000000000E+00 -0.21221338730E+01  0.87883891844E+02  0.87858266506E+02 0.  0.
        -11    1    3    3    0    0  0.25518511620E+02 -0.78212411290E+01 -0.35962539048E+02  0.44784712379E+02  0.00000000000E+00 0. -1.
         11    1    3    3    0    0 -0.25518511620E+02  0.78212411290E+01  0.33840405175E+02  0.43099179464E+02  0.00000000000E+00 0.  1.
<mgrwt>
<rscale>  0 0.87858267E+02</rscale>
<asrwt>0</asrwt>
<pdfrwt beam="2">  1        2 0.69235404E-02 0.87858267E+02</pdfrwt>
<pdfrwt beam="1">  1       -2 0.65970583E-02 0.87858267E+02</pdfrwt>
<totfact> 0.10934179E+05</totfact>
</mgrwt>
</event>
<event>
 5    1  0.6004828E+000  0.9259072E+02  0.7546771E-02  0.1296696E+00
          2   -1    0    0  501    0  0.00000000000E+00  0.00000000000E+00  0.20145115779E+02  0.20145115779E+02  0.00000000000E+00 0. -1.
         -2   -1    0    0    0  501 -0.00000000000E+00 -0.00000000000E+00 -0.10639107369E+03  0.10639107369E+03  0.00000000000E+00 0.  1.
         23    2    1    2    0    0  0.00000000000E+00  0.00000000000E+00 -0.86245957912E+02  0.12653618947E+03  0.92590723020E+02 0.  0.
        -11    1    3    3    0    0 -0.37192950631E+02 -0.27222396532E+02 -0.37183917510E+02  0.59220082497E+02  0.00000000000E+00 0. -1.
         11    1    3    3    0    0  0.37192950631E+02  0.27222396532E+02 -0.49062040402E+02  0.67316106973E+02  0.00000000000E+00 0.  1.
<mgrwt>
<rscale>  0 0.92590723E+02</rscale>
<asrwt>0</asrwt>
<pdfrwt beam="1">  1        2 0.30992486E-02 0.92590723E+02</pdfrwt>
<pdfrwt beam="2">  1       -2 0.16367858E-01 0.92590723E+02</pdfrwt>
<totfact> 0.75372324E+04</totfact>
</mgrwt>
</event>
<event>
 5    1  0.6004828E+000  0.9272316E+02  0.7546771E-02  0.1296388E+00
          2   -1    0    0  501    0  0.00000000000E+00  0.00000000000E+00  0.13827453777E+03  0.13827453777E+03  0.00000000000E+00 0. -1.
         -2   -1    0    0    0  501 -0.00000000000E+00 -0.00000000000E+00 -0.15544408891E+02  0.15544408891E+02  0.00000000000E+00 0.  1.
         23    2    1    2    0    0  0.00000000000E+00  0.00000000000E+00  0.12273012888E+03  0.15381894666E+03  0.92723156855E+02 0.  0.
        -11    1    3    3    0    0  0.24598920649E+02  0.29837057636E+02  0.18939906973E+02  0.43058994201E+02  0.00000000000E+00 0.  1.
         11    1    3    3    0    0 -0.24598920649E+02 -0.29837057636E+02  0.10379022191E+03  0.11075995246E+03  0.00000000000E+00 0. -1.
<mgrwt>
<rscale>  0 0.92723157E+02</rscale>
<asrwt>0</asrwt>
<pdfrwt beam="1">  1        2 0.21273005E-01 0.92723157E+02</pdfrwt>
<pdfrwt beam="2">  1       -2 0.23914476E-02 0.92723157E+02</pdfrwt>
<totfact> 0.12993273E+05</totfact>
</mgrwt>
</event>
<event>
 5    1  0.6004828E+000  0.9129415E+02  0.7546771E-02  0.1299748E+00
         -1   -1    0    0    0  501 -0.00000000000E+00  0.00000000000E+00  0.45536402773E+01  0.45536402773E+01  0.00000000000E+00 0.  1.
          1   -1    0    0  501    0  0.00000000000E+00 -0.00000000000E+00 -0.45758017922E+03  0.45758017922E+03  0.00000000000E+00 0. -1.
         23    2    1    2    0    0  0.00000000000E+00  0.00000000000E+00 -0.45302653894E+03  0.46213381949E+03  0.91294151711E+02 0.  0.
        -11    1    3    3    0    0 -0.72948298742E+01  0.44484953102E+02 -0.26285073289E+03  0.26668827003E+03  0.00000000000E+00 0.  1.
         11    1    3    3    0    0  0.72948298742E+01 -0.44484953102E+02 -0.19017580605E+03  0.19544554946E+03  0.00000000000E+00 0. -1.
<mgrwt>
<rscale>  0 0.91294152E+02</rscale>
<asrwt>0</asrwt>
<pdfrwt beam="2">  1        1 0.70396934E-01 0.91294152E+02</pdfrwt>
<pdfrwt beam="1">  1       -1 0.70056021E-03 0.91294152E+02</pdfrwt>
<totfact> 0.13721246E+05</totfact>
</mgrwt>
</event>
<event>
 5    1  0.6004828E+000  0.6927817E+02  0.7546771E-02  0.1362565E+00
         -2   -1    0    0    0  501 -0.00000000000E+00  0.00000000000E+00  0.11918110261E+02  0.11918110261E+02  0.00000000000E+00 0.  1.
          2   -1    0    0  501    0  0.00000000000E+00 -0.00000000000E+00 -0.10067588096E+03  0.10067588096E+03  0.00000000000E+00 0. -1.
         23    2    1    2    0    0  0.00000000000E+00  0.00000000000E+00 -0.88757770697E+02  0.11259399122E+03  0.69278171163E+02 0.  0.
        -11    1    3    3    0    0 -0.14731718739E+02  0.23167811752E+02 -0.10052143772E+02  0.29237247353E+02  0.00000000000E+00 0.  1.
         11    1    3    3    0    0  0.14731718739E+02 -0.23167811752E+02 -0.78705626925E+02  0.83356743867E+02  0.00000000000E+00 0. -1.
<mgrwt>
<rscale>  0 0.69278171E+02</rscale>
<asrwt>0</asrwt>
<pdfrwt beam="2">  1        2 0.15488597E-01 0.69278171E+02</pdfrwt>
<pdfrwt beam="1">  1       -2 0.18335554E-02 0.69278171E+02</pdfrwt>
<totfact> 0.25787056E+05</totfact>
</mgrwt>
</event>
<event>
 5    1  0.6004828E+000  0.9160391E+02  0.7546771E-02  0.1299013E+00
          2   -1    0    0  501    0  0.00000000000E+00  0.00000000000E+00  0.17979332738E+02  0.17979332738E+02  0.00000000000E+00 0. -1.
         -2   -1    0    0    0  501 -0.00000000000E+00 -0.00000000000E+00 -0.11667947109E+03  0.11667947109E+03  0.00000000000E+00 0.  1.
         23    2    1    2    0    0  0.00000000000E+00  0.00000000000E+00 -0.98700138351E+02  0.13465880383E+03  0.91603908966E+02 0.  0.
        -11    1    3    3    0    0 -0.14405789140E+02  0.13225871767E+02 -0.11023354981E+03  0.11195483888E+03  0.00000000000E+00 0.  1.
         11    1    3    3    0    0  0.14405789140E+02 -0.13225871767E+02  0.11533411455E+02  0.22703964952E+02  0.00000000000E+00 0. -1.
<mgrwt>
<rscale>  0 0.91603909E+02</rscale>
<asrwt>0</asrwt>
<pdfrwt beam="1">  1        2 0.27660511E-02 0.91603909E+02</pdfrwt>
<pdfrwt beam="2">  1       -2 0.17950688E-01 0.91603909E+02</pdfrwt>
<totfact> 0.75212521E+04</totfact>
</mgrwt>
</event>
<event>
 5    1  0.6004828E+000  0.9335914E+02  0.7546771E-02  0.1294915E+00
          2   -1    0    0  501    0  0.00000000000E+00  0.00000000000E+00  0.59090753631E+02  0.59090753631E+02  0.00000000000E+00 0. -1.
         -2   -1    0    0    0  501 -0.00000000000E+00 -0.00000000000E+00 -0.36875185156E+02  0.36875185156E+02  0.00000000000E+00 0.  1.
         23    2    1    2    0    0  0.00000000000E+00  0.00000000000E+00  0.22215568474E+02  0.95965938787E+02  0.93359144836E+02 0.  0.
        -11    1    3    3    0    0  0.33087101780E+02 -0.21253548406E+02 -0.14744262365E+02  0.41998367786E+02  0.00000000000E+00 0.  1.
         11    1    3    3    0    0 -0.33087101780E+02  0.21253548406E+02  0.36959830840E+02  0.53967571001E+02  0.00000000000E+00 0. -1.
<mgrwt>
<rscale>  0 0.93359145E+02</rscale>
<asrwt>0</asrwt>
<pdfrwt beam="1">  1        2 0.90908852E-02 0.93359145E+02</pdfrwt>
<pdfrwt beam="2">  1       -2 0.56731054E-02 0.93359145E+02</pdfrwt>
<totfact> 0.98792531E+04</totfact>
</mgrwt>
</event>
<event>
 5    1  0.6004828E+000  0.9272643E+02  0.7546771E-02  0.1296380E+00
         -1   -1    0    0    0  501 -0.00000000000E+00  0.00000000000E+00  0.57295144837E+02  0.57295144837E+02  0.00000000000E+00 0.  1.
          1   -1    0    0  501    0  0.00000000000E+00 -0.00000000000E+00 -0.37517102080E+02  0.37517102080E+02  0.00000000000E+00 0. -1.
         23    2    1    2    0    0  0.00000000000E+00  0.00000000000E+00  0.19778042757E+02  0.94812246917E+02  0.92726431993E+02 0.  0.
        -11    1    3    3    0    0 -0.59918008198E+01  0.45389711365E+02  0.17362344102E+02  0.48965074978E+02  0.00000000000E+00 0.  1.
         11    1    3    3    0    0  0.59918008198E+01 -0.45389711365E+02  0.24156986548E+01  0.45847171939E+02  0.00000000000E+00 0. -1.
<mgrwt>
<rscale>  0 0.92726432E+02</rscale>
<asrwt>0</asrwt>
<pdfrwt beam="2">  1        1 0.57718619E-02 0.92726432E+02</pdfrwt>
<pdfrwt beam="1">  1       -1 0.88146376E-02 0.92726432E+02</pdfrwt>
<totfact> 0.85583717E+04</totfact>
</mgrwt>
</event>
<event>
 5    1  0.6004828E+000  0.9121239E+02  0.7546771E-02  0.1299942E+00
          3   -1    0    0  501    0  0.00000000000E+00  0.00000000000E+00  0.48418173269E+02  0.48418173269E+02  0.00000000000E+00 0. -1.
         -3   -1    0    0    0  501 -0.00000000000E+00 -0.00000000000E+00 -0.42957528414E+02  0.42957528414E+02  0.00000000000E+00 0.  1.
         23    2    1    2    0    0  0.00000000000E+00  0.00000000000E+00  0.54606448547E+01  0.91375701684E+02  0.91212390693E+02 0.  0.
        -11    1    3    3    0    0 -0.41446557380E+02  0.13970737621E+02  0.15673456003E+02  0.46461337168E+02  0.00000000000E+00 0. -1.
         11    1    3    3    0    0  0.41446557380E+02 -0.13970737621E+02 -0.10212811148E+02  0.44914364516E+02  0.00000000000E+00 0.  1.
<mgrwt>
<rscale>  0 0.91212391E+02</rscale>
<asrwt>0</asrwt>
<pdfrwt beam="1">  1        3 0.74489498E-02 0.91212391E+02</pdfrwt>
<pdfrwt beam="2">  1       -3 0.66088505E-02 0.91212391E+02</pdfrwt>
<totfact> 0.35285730E+04</totfact>
</mgrwt>
</event>
<event>
 5    1  0.6004828E+000  0.9139769E+02  0.7546771E-02  0.1299502E+00
         -2   -1    0    0    0  501 -0.00000000000E+00  0.00000000000E+00  0.10279698216E+03  0.10279698216E+03  0.00000000000E+00 0.  1.
          2   -1    0    0  501    0  0.00000000000E+00 -0.00000000000E+00 -0.20315620369E+02  0.20315620369E+02  0.00000000000E+00 0. -1.
         23    2    1    2    0    0  0.00000000000E+00  0.00000000000E+00  0.82481361794E+02  0.12311260253E+03  0.91397690666E+02 0.  0.
        -11    1    3    3    0    0 -0.37760794108E+01 -0.20129678563E+02  0.96268876739E+02  0.98423367974E+02  0.00000000000E+00 0.  1.
         11    1    3    3    0    0  0.37760794108E+01  0.20129678563E+02 -0.13787514945E+02  0.24689234559E+02  0.00000000000E+00 0. -1.
<mgrwt>
<rscale>  0 0.91397691E+02</rscale>
<asrwt>0</asrwt>
<pdfrwt beam="2">  1        2 0.31254801E-02 0.91397691E+02</pdfrwt>
<pdfrwt beam="1">  1       -2 0.15814920E-01 0.91397691E+02</pdfrwt>
<totfact> 0.78672264E+04</totfact>
</mgrwt>
</event>
<event>
 5    1  0.6004828E+000  0.9001167E+02  0.7546771E-02  0.1302823E+00
          2   -1    0    0  501    0  0.00000000000E+00  0.00000000000E+00  0.34577985274E+03  0.34577985274E+03  0.00000000000E+00 0. -1.
         -2   -1    0    0    0  501 -0.00000000000E+00 -0.00000000000E+00 -0.58578464360E+01  0.58578464360E+01  0.00000000000E+00 0.  1.
         23    2    1    2    0    0  0.00000000000E+00  0.00000000000E+00  0.33992200630E+03  0.35163769918E+03  0.90011672088E+02 0.  0.
        -11    1    3    3    0    0  0.31854908005E+02 -0.29240225627E+02  0.21872276379E+03  0.22295598974E+03  0.00000000000E+00 0.  1.
         11    1    3    3    0    0 -0.31854908005E+02  0.29240225627E+02  0.12119924251E+03  0.12868170944E+03  0.00000000000E+00 0. -1.
<mgrwt>
<rscale>  0 0.90011672E+02</rscale>
<asrwt>0</asrwt>
<pdfrwt beam="1">  1        2 0.53196885E-01 0.90011672E+02</pdfrwt>
<pdfrwt beam="2">  1       -2 0.90120741E-03 0.90011672E+02</pdfrwt>
<totfact> 0.19593864E+05</totfact>
</mgrwt>
</event>
<event>
 5    1  0.6004828E+000  0.9540584E+02  0.7546771E-02  0.1290265E+00
          1   -1    0    0  501    0  0.00000000000E+00  0.00000000000E+00  0.13621120302E+03  0.13621120302E+03  0.00000000000E+00 0. -1.
         -1   -1    0    0    0  501 -0.00000000000E+00 -0.00000000000E+00 -0.16706177718E+02  0.16706177718E+02  0.00000000000E+00 0.  1.
         23    2    1    2    0    0  0.00000000000E+00  0.00000000000E+00  0.11950502530E+03  0.15291738074E+03  0.95405839757E+02 0.  0.
        -11    1    3    3    0    0  0.31831681091E+02  0.35261371005E+02  0.66729496069E+02  0.81911207120E+02  0.00000000000E+00 0. -1.
         11    1    3    3    0    0 -0.31831681091E+02 -0.35261371005E+02  0.52775529235E+02  0.71006173621E+02  0.00000000000E+00 0.  1.
<mgrwt>
<rscale>  0 0.95405840E+02</rscale>
<asrwt>0</asrwt>
<pdfrwt beam="1">  1        1 0.20955569E-01 0.95405840E+02</pdfrwt>
<pdfrwt beam="2">  1       -1 0.25701813E-02 0.95405840E+02</pdfrwt>
<totfact> 0.97429760E+04</totfact>
</mgrwt>
</event>
<event>
 5    1  0.6004828E+000  0.7914728E+02  0.7546771E-02  0.1331489E+00
          1   -1    0    0  501    0  0.00000000000E+00  0.00000000000E+00  0.71017963055E+01  0.71017963055E+01  0.00000000000E+00 0. -1.
         -1   -1    0    0    0  501 -0.00000000000E+00 -0.00000000000E+00 -0.22051785882E+03  0.22051785882E+03  0.00000000000E+00 0.  1.
         23    2    1    2    0    0  0.00000000000E+00  0.00000000000E+00 -0.21341606252E+03  0.22761965513E+03  0.79147278288E+02 0.  0.
        -11    1    3    3    0    0  0.28000575052E+02 -0.27527223105E+02 -0.92533403281E+02  0.10051970423E+03  0.00000000000E+00 0.  1.
         11    1    3    3    0    0 -0.28000575052E+02  0.27527223105E+02 -0.12088265924E+03  0.12709995090E+03  0.00000000000E+00 0. -1.
<mgrwt>
<rscale>  0 0.79147278E+02</rscale>
<asrwt>0</asrwt>
<pdfrwt beam="1">  1        1 0.10925841E-02 0.79147278E+02</pdfrwt>
<pdfrwt beam="2">  1       -1 0.33925823E-01 0.79147278E+02</pdfrwt>
<totfact> 0.97365060E+04</totfact>
</mgrwt>
</event>
<event>
 5    1  0.6004828E+000  0.8793309E+02  0.7546771E-02  0.1307936E+00
          2   -1    0    0  501    0  0.00000000000E+00  0.00000000000E+00  0.19202464550E+03  0.19202464550E+03  0.00000000000E+00 0. -1.
         -2   -1    0    0    0  501 -0.00000000000E+00 -0.00000000000E+00 -0.10066713552E+02  0.10066713552E+02  0.00000000000E+00 0.  1.
         23    2    1    2    0    0  0.00000000000E+00  0.00000000000E+00  0.18195793195E+03  0.20209135906E+03  0.87933090502E+02 0.  0.
        -11    1    3    3    0    0 -0.30587576238E+02 -0.31339859790E+02  0.81998029958E+02  0.92959472614E+02  0.00000000000E+00 0.  1.
         11    1    3    3    0    0  0.30587576238E+02  0.31339859790E+02  0.99959901994E+02  0.10913188644E+03  0.00000000000E+00 0. -1.
<mgrwt>
<rscale>  0 0.87933091E+02</rscale>
<asrwt>0</asrwt>
<pdfrwt beam="1">  1        2 0.29542250E-01 0.87933091E+02</pdfrwt>
<pdfrwt beam="2">  1       -2 0.15487253E-02 0.87933091E+02</pdfrwt>
<totfact> 0.16801282E+05</totfact>
</mgrwt>
</event>
<event>
 5    1  0.6004828E+000  0.9198111E+02  0.7546771E-02  0.1298124E+00
         -1   -1    0    0    0  501 -0.00000000000E+00  0.00000000000E+00  0.15055178661E+02  0.15055178661E+02  0.00000000000E+00 0. -1.
          1   -1    0    0  501    0  0.00000000000E+00 -0.00000000000E+00 -0.14049193364E+03  0.14049193364E+03  0.00000000000E+00 0.  1.
         23    2    1    2    0    0  0.00000000000E+00  0.00000000000E+00 -0.12543675498E+03  0.15554711230E+03  0.91981110266E+02 0.  0.
        -11    1    3    3    0    0 -0.33645729387E+02  0.84441799445E+01 -0.11378194648E+03  0.11895238807E+03  0.00000000000E+00 0.  1.
         11    1    3    3    0    0  0.33645729387E+02 -0.84441799445E+01 -0.11654808497E+02  0.36594724237E+02  0.00000000000E+00 0. -1.
<mgrwt>
<rscale>  0 0.91981110E+02</rscale>
<asrwt>0</asrwt>
<pdfrwt beam="2">  1        1 0.21614145E-01 0.91981110E+02</pdfrwt>
<pdfrwt beam="1">  1       -1 0.23161812E-02 0.91981110E+02</pdfrwt>
<totfact> 0.10819869E+05</totfact>
</mgrwt>
</event>
<event>
 5    1  0.6004828E+000  0.9159001E+02  0.7546771E-02  0.1299046E+00
         -1   -1    0    0    0  501 -0.00000000000E+00  0.00000000000E+00  0.25249674739E+03  0.25249674739E+03  0.00000000000E+00 0.  1.
          1   -1    0    0  501    0  0.00000000000E+00 -0.00000000000E+00 -0.83057797142E+01  0.83057797142E+01  0.00000000000E+00 0. -1.
         23    2    1    2    0    0  0.00000000000E+00  0.00000000000E+00  0.24419096768E+03  0.26080252711E+03  0.91590007368E+02 0.  0.
        -11    1    3    3    0    0 -0.28656009252E+02  0.35362718218E+02  0.10771810338E+03  0.11693963614E+03  0.00000000000E+00 0.  1.
         11    1    3    3    0    0  0.28656009252E+02 -0.35362718218E+02  0.13647286430E+03  0.14386289097E+03  0.00000000000E+00 0. -1.
<mgrwt>
<rscale>  0 0.91590007E+02</rscale>
<asrwt>0</asrwt>
<pdfrwt beam="2">  1        1 0.12778125E-02 0.91590007E+02</pdfrwt>
<pdfrwt beam="1">  1       -1 0.38845647E-01 0.91590007E+02</pdfrwt>
<totfact> 0.63788123E+04</totfact>
</mgrwt>
</event>
<event>
 5    1  0.6004828E+000  0.9232066E+02  0.7546771E-02  0.1297327E+00
          1   -1    0    0  501    0  0.00000000000E+00  0.00000000000E+00  0.12757762264E+02  0.12757762264E+02  0.00000000000E+00 0. -1.
         -1   -1    0    0    0  501 -0.00000000000E+00 -0.00000000000E+00 -0.16701801605E+03  0.16701801605E+03  0.00000000000E+00 0.  1.
         23    2    1    2    0    0  0.00000000000E+00  0.00000000000E+00 -0.15426025379E+03  0.17977577832E+03  0.92320661668E+02 0.  0.
        -11    1    3    3    0    0 -0.28070205036E+02  0.23148248297E+02 -0.21811857120E+02  0.42420925509E+02  0.00000000000E+00 0. -1.
         11    1    3    3    0    0  0.28070205036E+02 -0.23148248297E+02 -0.13244839667E+03  0.13735485281E+03  0.00000000000E+00 0.  1.
<mgrwt>
<rscale>  0 0.92320662E+02</rscale>
<asrwt>0</asrwt>
<pdfrwt beam="1">  1        1 0.19627325E-02 0.92320662E+02</pdfrwt>
<pdfrwt beam="2">  1       -1 0.25695082E-01 0.92320662E+02</pdfrwt>
<totfact> 0.70537626E+04</totfact>
</mgrwt>
</event>
<event>
 5    1  0.6004828E+000  0.9424378E+02  0.7546771E-02  0.1292888E+00
         -4   -1    0    0    0  501 -0.00000000000E+00  0.00000000000E+00  0.14363332411E+02  0.14363332411E+02  0.00000000000E+00 0. -1.
          4   -1    0    0  501    0  0.00000000000E+00 -0.00000000000E+00 -0.15459314156E+03  0.15459314156E+03  0.00000000000E+00 0.  1.
         23    2    1    2    0    0  0.00000000000E+00  0.00000000000E+00 -0.14022980915E+03  0.16895647398E+03  0.94243783473E+02 0.  0.
        -11    1    3    3    0    0  0.30770228584E+02  0.35378657233E+02 -0.78526813246E+02  0.91459918835E+02  0.00000000000E+00 0. -1.
         11    1    3    3    0    0 -0.30770228584E+02 -0.35378657233E+02 -0.61702995906E+02  0.77496555140E+02  0.00000000000E+00 0.  1.
<mgrwt>
<rscale>  0 0.94243783E+02</rscale>
<asrwt>0</asrwt>
<pdfrwt beam="2">  1        4 0.23783561E-01 0.94243783E+02</pdfrwt>
<pdfrwt beam="1">  1       -4 0.22097434E-02 0.94243783E+02</pdfrwt>
<totfact> 0.20814293E+04</totfact>
</mgrwt>
</event>
<event>
 5    1  0.6004828E+000  0.9317361E+02  0.7546771E-02  0.1295343E+00
          2   -1    0    0  501    0  0.00000000000E+00  0.00000000000E+00  0.42091212636E+02  0.42091212636E+02  0.00000000000E+00 0. -1.
         -2   -1    0    0    0  501 -0.00000000000E+00 -0.00000000000E+00 -0.51562553979E+02  0.51562553979E+02  0.00000000000E+00 0.  1.
         23    2    1    2    0    0  0.00000000000E+00  0.00000000000E+00 -0.94713413426E+01  0.93653766615E+02  0.93173610504E+02 0.  0.
        -11    1    3    3    0    0  0.17706181290E+02  0.14036420156E+02 -0.45686270395E+02  0.50968276892E+02  0.00000000000E+00 0.  1.
         11    1    3    3    0    0 -0.17706181290E+02 -0.14036420156E+02  0.36214929053E+02  0.42685489724E+02  0.00000000000E+00 0. -1.
<mgrwt>
<rscale>  0 0.93173611E+02</rscale>
<asrwt>0</asrwt>
<pdfrwt beam="1">  1        2 0.64755712E-02 0.93173611E+02</pdfrwt>
<pdfrwt beam="2">  1       -2 0.79327006E-02 0.93173611E+02</pdfrwt>
<totfact> 0.90778823E+04</totfact>
</mgrwt>
</event>
<event>
 5    1  0.6004828E+000  0.9373855E+02  0.7546771E-02  0.1294043E+00
         -1   -1    0    0    0  501 -0.00000000000E+00  0.00000000000E+00  0.57923725033E+01  0.57923725033E+01  0.00000000000E+00 0.  1.
          1   -1    0    0  501    0  0.00000000000E+00 -0.00000000000E+00 -0.37924508074E+03  0.37924508074E+03  0.00000000000E+00 0. -1.
         23    2    1    2    0    0  0.00000000000E+00  0.00000000000E+00 -0.37345270824E+03  0.38503745325E+03  0.93738546558E+02 0.  0.
        -11    1    3    3    0    0 -0.36294340925E+02  0.27113546820E+02 -0.13738333587E+03  0.14466030754E+03  0.00000000000E+00 0. -1.
         11    1    3    3    0    0  0.36294340925E+02 -0.27113546820E+02 -0.23606937237E+03  0.24037714570E+03  0.00000000000E+00 0.  1.
<mgrwt>
<rscale>  0 0.93738547E+02</rscale>
<asrwt>0</asrwt>
<pdfrwt beam="2">  1        1 0.58345402E-01 0.93738547E+02</pdfrwt>
<pdfrwt beam="1">  1       -1 0.89113415E-03 0.93738547E+02</pdfrwt>
<totfact> 0.12418712E+05</totfact>
</mgrwt>
</event>
<event>
 5    1  0.6004828E+000  0.9054812E+02  0.7546771E-02  0.1301530E+00
         -2   -1    0    0    0  501 -0.00000000000E+00  0.00000000000E+00  0.11543294539E+02  0.11543294539E+02  0.00000000000E+00 0.  1.
          2   -1    0    0  501    0  0.00000000000E+00 -0.00000000000E+00 -0.17756979129E+03  0.17756979129E+03  0.00000000000E+00 0. -1.
         23    2    1    2    0    0  0.00000000000E+00  0.00000000000E+00 -0.16602649675E+03  0.18911308583E+03  0.90548117642E+02 0.  0.
        -11    1    3    3    0    0 -0.16738880724E+02 -0.35849670843E+02 -0.37048760769E+02  0.54203318182E+02  0.00000000000E+00 0.  1.
         11    1    3    3    0    0  0.16738880724E+02  0.35849670843E+02 -0.12897773599E+03  0.13490976765E+03  0.00000000000E+00 0. -1.
<mgrwt>
<rscale>  0 0.90548118E+02</rscale>
<asrwt>0</asrwt>
<pdfrwt beam="2">  1        2 0.27318431E-01 0.90548118E+02</pdfrwt>
<pdfrwt beam="1">  1       -2 0.17758914E-02 0.90548118E+02</pdfrwt>
<totfact> 0.15102393E+05</totfact>
</mgrwt>
</event>
<event>
 5    1  0.6004828E+000  0.9023224E+02  0.7546771E-02  0.1302290E+00
          1   -1    0    0  501    0  0.00000000000E+00  0.00000000000E+00  0.81371342455E+02  0.81371342455E+02  0.00000000000E+00 0. -1.
         -1   -1    0    0    0  501 -0.00000000000E+00 -0.00000000000E+00 -0.25014509834E+02  0.25014509834E+02  0.00000000000E+00 0.  1.
         23    2    1    2    0    0  0.00000000000E+00  0.00000000000E+00  0.56356832621E+02  0.10638585229E+03  0.90232239162E+02 0.  0.
        -11    1    3    3    0    0 -0.23001417909E+02 -0.18264928009E+01  0.73888364230E+02  0.77407310187E+02  0.00000000000E+00 0. -1.
         11    1    3    3    0    0  0.23001417909E+02  0.18264928009E+01 -0.17531531609E+02  0.28978542102E+02  0.00000000000E+00 0.  1.
<mgrwt>
<rscale>  0 0.90232239E+02</rscale>
<asrwt>0</asrwt>
<pdfrwt beam="1">  1        1 0.12518668E-01 0.90232239E+02</pdfrwt>
<pdfrwt beam="2">  1       -1 0.38483862E-02 0.90232239E+02</pdfrwt>
<totfact> 0.10393859E+05</totfact>
</mgrwt>
</event>
<event>
 5    1  0.6004828E+000  0.9132928E+02  0.7546771E-02  0.1299664E+00
         -2   -1    0    0    0  501 -0.00000000000E+00  0.00000000000E+00  0.22513176294E+02  0.22513176294E+02  0.00000000000E+00 0.  1.
          2   -1    0    0  501    0  0.00000000000E+00 -0.00000000000E+00 -0.92623946719E+02  0.92623946719E+02  0.00000000000E+00 0. -1.
         23    2    1    2    0    0  0.00000000000E+00  0.00000000000E+00 -0.70110770425E+02  0.11513712301E+03  0.91329277706E+02 0.  0.
        -11    1    3    3    0    0  0.21228697733E+02  0.38097775893E+02 -0.52117072554E+02  0.67957982511E+02  0.00000000000E+00 0. -1.
         11    1    3    3    0    0 -0.21228697733E+02 -0.38097775893E+02 -0.17993697872E+02  0.47179140502E+02  0.00000000000E+00 0.  1.
<mgrwt>
<rscale>  0 0.91329278E+02</rscale>
<asrwt>0</asrwt>
<pdfrwt beam="2">  1        2 0.14249838E-01 0.91329278E+02</pdfrwt>
<pdfrwt beam="1">  1       -2 0.34635656E-02 0.91329278E+02</pdfrwt>
<totfact> 0.11932443E+05</totfact>
</mgrwt>
</event>
<event>
 5    1  0.6004828E+000  0.9242989E+02  0.7546771E-02  0.1297072E+00
         -1   -1    0    0    0  501 -0.00000000000E+00  0.00000000000E+00  0.13373882270E+03  0.13373882270E+03  0.00000000000E+00 0.  1.
          1   -1    0    0  501    0  0.00000000000E+00 -0.00000000000E+00 -0.15970089847E+02  0.15970089847E+02  0.00000000000E+00 0. -1.
         23    2    1    2    0    0  0.00000000000E+00  0.00000000000E+00  0.11776873285E+03  0.14970891255E+03  0.92429887256E+02 0.  0.
        -11    1    3    3    0    0  0.20939957927E+02  0.25170093189E+02  0.11171263360E+03  0.11641188914E+03  0.00000000000E+00 0.  1.
         11    1    3    3    0    0 -0.20939957927E+02 -0.25170093189E+02  0.60560992545E+01  0.33297023401E+02  0.00000000000E+00 0. -1.
<mgrwt>
<rscale>  0 0.92429887E+02</rscale>
<asrwt>0</asrwt>
<pdfrwt beam="2">  1        1 0.24569370E-02 0.92429887E+02</pdfrwt>
<pdfrwt beam="1">  1       -1 0.20575203E-01 0.92429887E+02</pdfrwt>
<totfact> 0.74082985E+04</totfact>
</mgrwt>
</event>
<event>
 5    1  0.6004828E+000  0.9451750E+02  0.7546771E-02  0.1292267E+00
          2   -1    0    0  501    0  0.00000000000E+00  0.00000000000E+00  0.17003405755E+03  0.17003405755E+03  0.00000000000E+00 0.  1.
         -2   -1    0    0    0  501 -0.00000000000E+00 -0.00000000000E+00 -0.13134953729E+02  0.13134953729E+02  0.00000000000E+00 0. -1.
         23    2    1    2    0    0  0.00000000000E+00  0.00000000000E+00  0.15689910382E+03  0.18316901128E+03  0.94517500565E+02 0.  0.
        -11    1    3    3    0    0 -0.27027306668E+02 -0.19556923649E+02  0.13580992788E+02  0.36019327221E+02  0.00000000000E+00 0. -1.
         11    1    3    3    0    0  0.27027306668E+02  0.19556923649E+02  0.14331811103E+03  0.14714968406E+03  0.00000000000E+00 0.  1.
<mgrwt>
<rscale>  0 0.94517501E+02</rscale>
<asrwt>0</asrwt>
<pdfrwt beam="1">  1        2 0.26159084E-01 0.94517501E+02</pdfrwt>
<pdfrwt beam="2">  1       -2 0.20207622E-02 0.94517501E+02</pdfrwt>
<totfact> 0.13241453E+05</totfact>
</mgrwt>
</event>
<event>
 5    1  0.6004828E+000  0.8666033E+02  0.7546771E-02  0.1311147E+00
         -1   -1    0    0    0  501 -0.00000000000E+00  0.00000000000E+00  0.11615762192E+03  0.11615762192E+03  0.00000000000E+00 0.  1.
          1   -1    0    0  501    0  0.00000000000E+00 -0.00000000000E+00 -0.16163410938E+02  0.16163410938E+02  0.00000000000E+00 0. -1.
         23    2    1    2    0    0  0.00000000000E+00  0.00000000000E+00  0.99994210986E+02  0.13232103286E+03  0.86660334105E+02 0.  0.
        -11    1    3    3    0    0 -0.35061924928E+02 -0.16395606406E+01  0.88789696470E+02  0.95475844788E+02  0.00000000000E+00 0.  1.
         11    1    3    3    0    0  0.35061924928E+02  0.16395606406E+01  0.11204514516E+02  0.36845188075E+02  0.00000000000E+00 0. -1.
<mgrwt>
<rscale>  0 0.86660334E+02</rscale>
<asrwt>0</asrwt>
<pdfrwt beam="2">  1        1 0.24866787E-02 0.86660334E+02</pdfrwt>
<pdfrwt beam="1">  1       -1 0.17870403E-01 0.86660334E+02</pdfrwt>
<totfact> 0.90115696E+04</totfact>
</mgrwt>
</event>
<event>
 5    1  0.6004828E+000  0.8971140E+02  0.7546771E-02  0.1303552E+00
          2   -1    0    0  501    0  0.00000000000E+00  0.00000000000E+00  0.74133448450E+02  0.74133448450E+02  0.00000000000E+00 0. -1.
         -2   -1    0    0    0  501 -0.00000000000E+00 -0.00000000000E+00 -0.27140703832E+02  0.27140703832E+02  0.00000000000E+00 0.  1.
         23    2    1    2    0    0  0.00000000000E+00  0.00000000000E+00  0.46992744618E+02  0.10127415228E+03  0.89711403253E+02 0.  0.
        -11    1    3    3    0    0  0.29267841217E+02  0.25409640149E+02  0.48984700594E+02  0.62464047533E+02  0.00000000000E+00 0. -1.
         11    1    3    3    0    0 -0.29267841217E+02 -0.25409640149E+02 -0.19919559764E+01  0.38810104748E+02  0.00000000000E+00 0.  1.
<mgrwt>
<rscale>  0 0.89711403E+02</rscale>
<asrwt>0</asrwt>
<pdfrwt beam="1">  1        2 0.11405146E-01 0.89711403E+02</pdfrwt>
<pdfrwt beam="2">  1       -2 0.41754929E-02 0.89711403E+02</pdfrwt>
<totfact> 0.11758973E+05</totfact>
</mgrwt>
</event>
<event>
 5    1  0.6004828E+000  0.8945535E+02  0.7546771E-02  0.1304176E+00
         -2   -1    0    0    0  501 -0.00000000000E+00  0.00000000000E+00  0.63286623124E+02  0.63286623124E+02  0.00000000000E+00 0.  1.
          2   -1    0    0  501    0  0.00000000000E+00 -0.00000000000E+00 -0.31611183964E+02  0.31611183964E+02  0.00000000000E+00 0. -1.
         23    2    1    2    0    0  0.00000000000E+00  0.00000000000E+00  0.31675439159E+02  0.94897807088E+02  0.89455353916E+02 0.  0.
        -11    1    3    3    0    0 -0.10342605043E+02 -0.20262900202E+02  0.56690530964E+02  0.61084948266E+02  0.00000000000E+00 0.  1.
         11    1    3    3    0    0  0.10342605043E+02  0.20262900202E+02 -0.25015091805E+02  0.33812858822E+02  0.00000000000E+00 0. -1.
<mgrwt>
<rscale>  0 0.89455354E+02</rscale>
<asrwt>0</asrwt>
<pdfrwt beam="2">  1        2 0.48632591E-02 0.89455354E+02</pdfrwt>
<pdfrwt beam="1">  1       -2 0.97364035E-02 0.89455354E+02</pdfrwt>
<totfact> 0.94883688E+04</totfact>
</mgrwt>
</event>
<event>
 5    1  0.6004828E+000  0.9190145E+02  0.7546771E-02  0.1298311E+00
         -2   -1    0    0    0  501 -0.00000000000E+00  0.00000000000E+00  0.13256723003E+03  0.13256723003E+03  0.00000000000E+00 0.  1.
          2   -1    0    0  501    0  0.00000000000E+00 -0.00000000000E+00 -0.15927533862E+02  0.15927533862E+02  0.00000000000E+00 0. -1.
         23    2    1    2    0    0  0.00000000000E+00  0.00000000000E+00  0.11663969617E+03  0.14849476389E+03  0.91901448200E+02 0.  0.
        -11    1    3    3    0    0  0.30187385838E+02 -0.15867393239E+01  0.11423865823E+03  0.11817049987E+03  0.00000000000E+00 0.  1.
         11    1    3    3    0    0 -0.30187385838E+02  0.15867393239E+01  0.24010379415E+01  0.30324264025E+02  0.00000000000E+00 0. -1.
<mgrwt>
<rscale>  0 0.91901448E+02</rscale>
<asrwt>0</asrwt>
<pdfrwt beam="2">  1        2 0.24503899E-02 0.91901448E+02</pdfrwt>
<pdfrwt beam="1">  1       -2 0.20394958E-01 0.91901448E+02</pdfrwt>
<totfact> 0.71520113E+04</totfact>
</mgrwt>
</event>
<event>
 5    1  0.6004828E+000  0.8970973E+02  0.7546771E-02  0.1303556E+00
         -1   -1    0    0    0  501 -0.00000000000E+00  0.00000000000E+00  0.20367742771E+02  0.20367742771E+02  0.00000000000E+00 0.  1.
          1   -1    0    0  501    0  0.00000000000E+00 -0.00000000000E+00 -0.98781635491E+02  0.98781635491E+02  0.00000000000E+00 0. -1.
         23    2    1    2    0    0  0.00000000000E+00  0.00000000000E+00 -0.78413892721E+02  0.11914937826E+03  0.89709730624E+02 0.  0.
        -11    1    3    3    0    0  0.22657659723E+01  0.25666986835E+02  0.95573737012E+01  0.27482199706E+02  0.00000000000E+00 0.  1.
         11    1    3    3    0    0 -0.22657659723E+01 -0.25666986835E+02 -0.87971266422E+02  0.91667178556E+02  0.00000000000E+00 0. -1.
<mgrwt>
<rscale>  0 0.89709731E+02</rscale>
<asrwt>0</asrwt>
<pdfrwt beam="2">  1        1 0.15197174E-01 0.89709731E+02</pdfrwt>
<pdfrwt beam="1">  1       -1 0.31334989E-02 0.89709731E+02</pdfrwt>
<totfact> 0.10894538E+05</totfact>
</mgrwt>
</event>
<event>
 5    1  0.6004828E+000  0.9181612E+02  0.7546771E-02  0.1298512E+00
         -1   -1    0    0    0  501 -0.00000000000E+00  0.00000000000E+00  0.12224733478E+02  0.12224733478E+02  0.00000000000E+00 0.  1.
          1   -1    0    0  501    0  0.00000000000E+00 -0.00000000000E+00 -0.17240049520E+03  0.17240049520E+03  0.00000000000E+00 0. -1.
         23    2    1    2    0    0  0.00000000000E+00  0.00000000000E+00 -0.16017576172E+03  0.18462522868E+03  0.91816122883E+02 0.  0.
        -11    1    3    3    0    0  0.35710155378E+01  0.41384627311E+02 -0.40781177135E+02  0.58211201140E+02  0.00000000000E+00 0.  1.
         11    1    3    3    0    0 -0.35710155378E+01 -0.41384627311E+02 -0.11939458459E+03  0.12641402754E+03  0.00000000000E+00 0. -1.
<mgrwt>
<rscale>  0 0.91816123E+02</rscale>
<asrwt>0</asrwt>
<pdfrwt beam="2">  1        1 0.26523154E-01 0.91816123E+02</pdfrwt>
<pdfrwt beam="1">  1       -1 0.18807282E-02 0.91816123E+02</pdfrwt>
<totfact> 0.11293444E+05</totfact>
</mgrwt>
</event>
<event>
 5    1  0.6004828E+000  0.9003675E+02  0.7546771E-02  0.1302763E+00
          2   -1    0    0  501    0  0.00000000000E+00  0.00000000000E+00  0.19142608609E+03  0.19142608609E+03  0.00000000000E+00 0. -1.
         -2   -1    0    0    0  501 -0.00000000000E+00 -0.00000000000E+00 -0.10587136924E+02  0.10587136924E+02  0.00000000000E+00 0.  1.
         23    2    1    2    0    0  0.00000000000E+00  0.00000000000E+00  0.18083894917E+03  0.20201322301E+03  0.90036752147E+02 0.  0.
        -11    1    3    3    0    0  0.12151572132E+02 -0.40584514460E+02  0.12458606254E+03  0.13159198493E+03  0.00000000000E+00 0. -1.
         11    1    3    3    0    0 -0.12151572132E+02  0.40584514460E+02  0.56252886628E+02  0.70421238084E+02  0.00000000000E+00 0.  1.
<mgrwt>
<rscale>  0 0.90036752E+02</rscale>
<asrwt>0</asrwt>
<pdfrwt beam="1">  1        2 0.29450165E-01 0.90036752E+02</pdfrwt>
<pdfrwt beam="2">  1       -2 0.16287904E-02 0.90036752E+02</pdfrwt>
<totfact> 0.15750164E+05</totfact>
</mgrwt>
</event>
<event>
 5    1  0.6004828E+000  0.9062457E+02  0.7546771E-02  0.1301346E+00
          1   -1    0    0  501    0  0.00000000000E+00  0.00000000000E+00  0.31714428221E+03  0.31714428221E+03  0.00000000000E+00 0. -1.
         -1   -1    0    0    0  501 -0.00000000000E+00 -0.00000000000E+00 -0.64740351745E+01  0.64740351745E+01  0.00000000000E+00 0.  1.
         23    2    1    2    0    0  0.00000000000E+00  0.00000000000E+00  0.31067024703E+03  0.32361831738E+03  0.90624571468E+02 0.  0.
        -11    1    3    3    0    0 -0.43148164240E+02  0.49159746344E+01  0.10915030785E+03  0.11747221198E+03  0.00000000000E+00 0.  1.
         11    1    3    3    0    0  0.43148164240E+02 -0.49159746344E+01  0.20151993919E+03  0.20614610541E+03  0.00000000000E+00 0. -1.
<mgrwt>
<rscale>  0 0.90624571E+02</rscale>
<asrwt>0</asrwt>
<pdfrwt beam="1">  1        1 0.48791416E-01 0.90624571E+02</pdfrwt>
<pdfrwt beam="2">  1       -1 0.99600566E-03 0.90624571E+02</pdfrwt>
<totfact> 0.13158457E+05</totfact>
</mgrwt>
</event>
<event>
 5    1  0.6004828E+000  0.9072490E+02  0.7546771E-02  0.1301106E+00
          3   -1    0    0  501    0  0.00000000000E+00  0.00000000000E+00  0.59865733236E+02  0.59865733236E+02  0.00000000000E+00 0. -1.
         -3   -1    0    0    0  501 -0.00000000000E+00 -0.00000000000E+00 -0.34372783599E+02  0.34372783599E+02  0.00000000000E+00 0.  1.
         23    2    1    2    0    0  0.00000000000E+00  0.00000000000E+00  0.25492949637E+02  0.94238516835E+02  0.90724900519E+02 0.  0.
        -11    1    3    3    0    0  0.12436075860E+02 -0.36018415003E+02 -0.12819108833E+02  0.40203379875E+02  0.00000000000E+00 0.  1.
         11    1    3    3    0    0 -0.12436075860E+02  0.36018415003E+02  0.38312058470E+02  0.54035136960E+02  0.00000000000E+00 0. -1.
<mgrwt>
<rscale>  0 0.90724901E+02</rscale>
<asrwt>0</asrwt>
<pdfrwt beam="1">  1        3 0.92101128E-02 0.90724901E+02</pdfrwt>
<pdfrwt beam="2">  1       -3 0.52881205E-02 0.90724901E+02</pdfrwt>
<totfact> 0.35582138E+04</totfact>
</mgrwt>
</event>
<event>
 5    1  0.6004828E+000  0.8860276E+02  0.7546771E-02  0.1306271E+00
          1   -1    0    0  501    0  0.00000000000E+00  0.00000000000E+00  0.13784768940E+03  0.13784768940E+03  0.00000000000E+00 0. -1.
         -1   -1    0    0    0  501 -0.00000000000E+00 -0.00000000000E+00 -0.14237540614E+02  0.14237540614E+02  0.00000000000E+00 0.  1.
         23    2    1    2    0    0  0.00000000000E+00  0.00000000000E+00  0.12361014879E+03  0.15208523002E+03  0.88602755632E+02 0.  0.
        -11    1    3    3    0    0 -0.24610062866E+02 -0.30309957682E+02  0.97739225163E+02  0.10524877607E+03  0.00000000000E+00 0. -1.
         11    1    3    3    0    0  0.24610062866E+02  0.30309957682E+02  0.25870923626E+02  0.46836453946E+02  0.00000000000E+00 0.  1.
<mgrwt>
<rscale>  0 0.88602756E+02</rscale>
<asrwt>0</asrwt>
<pdfrwt beam="1">  1        1 0.21207336E-01 0.88602756E+02</pdfrwt>
<pdfrwt beam="2">  1       -1 0.21903910E-02 0.88602756E+02</pdfrwt>
<totfact> 0.11928472E+05</totfact>
</mgrwt>
</event>
<event>
 5    1  0.6004828E+000  0.9157981E+02  0.7546771E-02  0.1299070E+00
         -2   -1    0    0    0  501 -0.00000000000E+00  0.00000000000E+00  0.28676763682E+02  0.28676763682E+02  0.00000000000E+00 0.  1.
          2   -1    0    0  501    0  0.00000000000E+00 -0.00000000000E+00 -0.73115482195E+02  0.73115482195E+02  0.00000000000E+00 0. -1.
         23    2    1    2    0    0  0.00000000000E+00  0.00000000000E+00 -0.44438718513E+02  0.10179224588E+03  0.91579810098E+02 0.  0.
        -11    1    3    3    0    0 -0.49765125434E+00  0.43976910424E+02 -0.36388399508E+02  0.57081800304E+02  0.00000000000E+00 0.  1.
         11    1    3    3    0    0  0.49765125434E+00 -0.43976910424E+02 -0.80503190044E+01  0.44710445572E+02  0.00000000000E+00 0. -1.
<mgrwt>
<rscale>  0 0.91579810E+02</rscale>
<asrwt>0</asrwt>
<pdfrwt beam="2">  1        2 0.11248536E-01 0.91579810E+02</pdfrwt>
<pdfrwt beam="1">  1       -2 0.44118098E-02 0.91579810E+02</pdfrwt>
<totfact> 0.11059714E+05</totfact>
</mgrwt>
</event>
<event>
 5    1  0.6004828E+000  0.9002337E+02  0.7546771E-02  0.1302795E+00
         -1   -1    0    0    0  501 -0.00000000000E+00  0.00000000000E+00  0.16566227706E+02  0.16566227706E+02  0.00000000000E+00 0.  1.
          1   -1    0    0  501    0  0.00000000000E+00 -0.00000000000E+00 -0.12230013653E+03  0.12230013653E+03  0.00000000000E+00 0. -1.
         23    2    1    2    0    0  0.00000000000E+00  0.00000000000E+00 -0.10573390883E+03  0.13886636424E+03  0.90023372751E+02 0.  0.
        -11    1    3    3    0    0  0.42066263179E+02  0.13853068334E+02 -0.65262633614E+02  0.78871346802E+02  0.00000000000E+00 0.  1.
         11    1    3    3    0    0 -0.42066263179E+02 -0.13853068334E+02 -0.40471275214E+02  0.59995017439E+02  0.00000000000E+00 0. -1.
<mgrwt>
<rscale>  0 0.90023373E+02</rscale>
<asrwt>0</asrwt>
<pdfrwt beam="2">  1        1 0.18815406E-01 0.90023373E+02</pdfrwt>
<pdfrwt beam="1">  1       -1 0.25486504E-02 0.90023373E+02</pdfrwt>
<totfact> 0.11188604E+05</totfact>
</mgrwt>
</event>
<event>
 5    1  0.6004828E+000  0.9441512E+02  0.7546771E-02  0.1292499E+00
          2   -1    0    0  501    0  0.00000000000E+00  0.00000000000E+00  0.12441854564E+03  0.12441854564E+03  0.00000000000E+00 0. -1.
         -2   -1    0    0    0  501 -0.00000000000E+00 -0.00000000000E+00 -0.17911748236E+02  0.17911748236E+02  0.00000000000E+00 0.  1.
         23    2    1    2    0    0  0.00000000000E+00  0.00000000000E+00  0.10650679741E+03  0.14233029388E+03  0.94415118819E+02 0.  0.
        -11    1    3    3    0    0  0.34365505464E+02  0.19899964940E+02  0.14773666476E+02  0.42370482550E+02  0.00000000000E+00 0.  1.
         11    1    3    3    0    0 -0.34365505464E+02 -0.19899964940E+02  0.91733130933E+02  0.99959811330E+02  0.00000000000E+00 0. -1.
<mgrwt>
<rscale>  0 0.94415119E+02</rscale>
<asrwt>0</asrwt>
<pdfrwt beam="1">  1        2 0.19141314E-01 0.94415119E+02</pdfrwt>
<pdfrwt beam="2">  1       -2 0.27556537E-02 0.94415119E+02</pdfrwt>
<totfact> 0.11940733E+05</totfact>
</mgrwt>
</event>
<event>
 5    1  0.6004828E+000  0.9086318E+02  0.7546771E-02  0.1300775E+00
          1   -1    0    0  501    0  0.00000000000E+00  0.00000000000E+00  0.10460586349E+03  0.10460586349E+03  0.00000000000E+00 0. -1.
         -1   -1    0    0    0  501 -0.00000000000E+00 -0.00000000000E+00 -0.19731489616E+02  0.19731489616E+02  0.00000000000E+00 0.  1.
         23    2    1    2    0    0  0.00000000000E+00  0.00000000000E+00  0.84874373874E+02  0.12433735310E+03  0.90863183065E+02 0.  0.
        -11    1    3    3    0    0  0.29312000123E+02  0.18081909543E+02  0.82981637839E+02  0.89844871987E+02  0.00000000000E+00 0. -1.
         11    1    3    3    0    0 -0.29312000123E+02 -0.18081909543E+02  0.18927360346E+01  0.34492481118E+02  0.00000000000E+00 0.  1.
<mgrwt>
<rscale>  0 0.90863183E+02</rscale>
<asrwt>0</asrwt>
<pdfrwt beam="1">  1        1 0.16093209E-01 0.90863183E+02</pdfrwt>
<pdfrwt beam="2">  1       -1 0.30356138E-02 0.90863183E+02</pdfrwt>
<totfact> 0.10623272E+05</totfact>
</mgrwt>
</event>
<event>
 5    1  0.6004828E+000  0.9206089E+02  0.7546771E-02  0.1297936E+00
         -3   -1    0    0    0  501 -0.00000000000E+00  0.00000000000E+00  0.14706540740E+03  0.14706540740E+03  0.00000000000E+00 0.  1.
          3   -1    0    0  501    0  0.00000000000E+00 -0.00000000000E+00 -0.14407208154E+02  0.14407208154E+02  0.00000000000E+00 0. -1.
         23    2    1    2    0    0  0.00000000000E+00  0.00000000000E+00  0.13265819925E+03  0.16147261556E+03  0.92060891518E+02 0.  0.
        -11    1    3    3    0    0  0.31693028485E+01 -0.45848282328E+02  0.70866600450E+02  0.84464102034E+02  0.00000000000E+00 0. -1.
         11    1    3    3    0    0 -0.31693028485E+01  0.45848282328E+02  0.61791598797E+02  0.77008513522E+02  0.00000000000E+00 0.  1.
<mgrwt>
<rscale>  0 0.92060892E+02</rscale>
<asrwt>0</asrwt>
<pdfrwt beam="2">  1        3 0.22164937E-02 0.92060892E+02</pdfrwt>
<pdfrwt beam="1">  1       -3 0.22625446E-01 0.92060892E+02</pdfrwt>
<totfact> 0.29829521E+04</totfact>
</mgrwt>
</event>
<event>
 5    1  0.6004828E+000  0.9623897E+02  0.7546771E-02  0.1288410E+00
         -1   -1    0    0    0  501 -0.00000000000E+00  0.00000000000E+00  0.47944516212E+02  0.47944516212E+02  0.00000000000E+00 0.  1.
          1   -1    0    0  501    0  0.00000000000E+00 -0.00000000000E+00 -0.48295091724E+02  0.48295091724E+02  0.00000000000E+00 0. -1.
         23    2    1    2    0    0  0.00000000000E+00  0.00000000000E+00 -0.35057551275E+00  0.96239607936E+02  0.96238969407E+02 0.  0.
        -11    1    3    3    0    0  0.18165694744E+01  0.20729803212E+02 -0.43562902601E+02  0.48277853607E+02  0.00000000000E+00 0. -1.
         11    1    3    3    0    0 -0.18165694744E+01 -0.20729803212E+02  0.43212327089E+02  0.47961754329E+02  0.00000000000E+00 0.  1.
<mgrwt>
<rscale>  0 0.96238969E+02</rscale>
<asrwt>0</asrwt>
<pdfrwt beam="2">  1        1 0.74300141E-02 0.96238969E+02</pdfrwt>
<pdfrwt beam="1">  1       -1 0.73760795E-02 0.96238969E+02</pdfrwt>
<totfact> 0.80118988E+04</totfact>
</mgrwt>
</event>
<event>
 5    1  0.6004828E+000  0.9201419E+02  0.7546771E-02  0.1298046E+00
          2   -1    0    0  501    0  0.00000000000E+00  0.00000000000E+00  0.21156226060E+02  0.21156226060E+02  0.00000000000E+00 0. -1.
         -2   -1    0    0    0  501 -0.00000000000E+00 -0.00000000000E+00 -0.10004868735E+03  0.10004868735E+03  0.00000000000E+00 0.  1.
         23    2    1    2    0    0  0.00000000000E+00  0.00000000000E+00 -0.78892461293E+02  0.12120491341E+03  0.92014186876E+02 0.  0.
        -11    1    3    3    0    0  0.51831751610E+01 -0.34029481236E+02 -0.79655162171E+02  0.86774510995E+02  0.00000000000E+00 0.  1.
         11    1    3    3    0    0 -0.51831751610E+01  0.34029481236E+02  0.76270087881E+00  0.34430402417E+02  0.00000000000E+00 0. -1.
<mgrwt>
<rscale>  0 0.92014187E+02</rscale>
<asrwt>0</asrwt>
<pdfrwt beam="1">  1        2 0.32548039E-02 0.92014187E+02</pdfrwt>
<pdfrwt beam="2">  1       -2 0.15392106E-01 0.92014187E+02</pdfrwt>
<totfact> 0.77998254E+04</totfact>
</mgrwt>
</event>
<event>
 5    1  0.6004828E+000  0.9262984E+02  0.7546771E-02  0.1296605E+00
          4   -1    0    0  501    0  0.00000000000E+00  0.00000000000E+00  0.27520622994E+02  0.27520622994E+02  0.00000000000E+00 0. -1.
         -4   -1    0    0    0  501 -0.00000000000E+00 -0.00000000000E+00 -0.77944159685E+02  0.77944159685E+02  0.00000000000E+00 0.  1.
         23    2    1    2    0    0  0.00000000000E+00  0.00000000000E+00 -0.50423536690E+02  0.10546478268E+03  0.92629840404E+02 0.  0.
        -11    1    3    3    0    0 -0.37870192182E+02  0.26609206786E+02 -0.23282757408E+02  0.51810116138E+02  0.00000000000E+00 0. -1.
         11    1    3    3    0    0  0.37870192182E+02 -0.26609206786E+02 -0.27140779282E+02  0.53654666541E+02  0.00000000000E+00 0.  1.
<mgrwt>
<rscale>  0 0.92629840E+02</rscale>
<asrwt>0</asrwt>
<pdfrwt beam="1">  1        4 0.42339420E-02 0.92629840E+02</pdfrwt>
<pdfrwt beam="2">  1       -4 0.11991409E-01 0.92629840E+02</pdfrwt>
<totfact> 0.25026258E+04</totfact>
</mgrwt>
</event>
<event>
 5    1  0.6004828E+000  0.9002599E+02  0.7546771E-02  0.1302789E+00
         -2   -1    0    0    0  501 -0.00000000000E+00  0.00000000000E+00  0.18406776197E+02  0.18406776197E+02  0.00000000000E+00 0. -1.
          2   -1    0    0  501    0  0.00000000000E+00 -0.00000000000E+00 -0.11007737018E+03  0.11007737018E+03  0.00000000000E+00 0.  1.
         23    2    1    2    0    0  0.00000000000E+00  0.00000000000E+00 -0.91670593985E+02  0.12848414638E+03  0.90025985522E+02 0.  0.
        -11    1    3    3    0    0  0.14997781718E+02  0.15148585547E+02  0.10746180025E+02  0.23872441971E+02  0.00000000000E+00 0. -1.
         11    1    3    3    0    0 -0.14997781718E+02 -0.15148585547E+02 -0.10241677401E+03  0.10461170441E+03  0.00000000000E+00 0.  1.
<mgrwt>
<rscale>  0 0.90025986E+02</rscale>
<asrwt>0</asrwt>
<pdfrwt beam="2">  1        2 0.16934980E-01 0.90025986E+02</pdfrwt>
<pdfrwt beam="1">  1       -2 0.28318117E-02 0.90025986E+02</pdfrwt>
<totfact> 0.13083821E+05</totfact>
</mgrwt>
</event>
<event>
 5    1  0.6004828E+000  0.9024853E+02  0.7546771E-02  0.1302251E+00
          3   -1    0    0  501    0  0.00000000000E+00  0.00000000000E+00  0.18518101735E+02  0.18518101735E+02  0.00000000000E+00 0. -1.
         -3   -1    0    0    0  501 -0.00000000000E+00 -0.00000000000E+00 -0.10995724307E+03  0.10995724307E+03  0.00000000000E+00 0.  1.
         23    2    1    2    0    0  0.00000000000E+00  0.00000000000E+00 -0.91439141337E+02  0.12847534481E+03  0.90248532702E+02 0.  0.
        -11    1    3    3    0    0 -0.32348820182E+02 -0.31456824353E+02 -0.45049661871E+02  0.63760881426E+02  0.00000000000E+00 0.  1.
         11    1    3    3    0    0  0.32348820182E+02  0.31456824353E+02 -0.46389479466E+02  0.64714463381E+02  0.00000000000E+00 0. -1.
<mgrwt>
<rscale>  0 0.90248533E+02</rscale>
<asrwt>0</asrwt>
<pdfrwt beam="1">  1        3 0.28489388E-02 0.90248533E+02</pdfrwt>
<pdfrwt beam="2">  1       -3 0.16916499E-01 0.90248533E+02</pdfrwt>
<totfact> 0.33596480E+04</totfact>
</mgrwt>
</event>
<event>
 5    1  0.6004828E+000  0.9085336E+02  0.7546771E-02  0.1300798E+00
          1   -1    0    0  501    0  0.00000000000E+00  0.00000000000E+00  0.58341375263E+02  0.58341375263E+02  0.00000000000E+00 0. -1.
         -1   -1    0    0    0  501 -0.00000000000E+00 -0.00000000000E+00 -0.35370836819E+02  0.35370836819E+02  0.00000000000E+00 0.  1.
         23    2    1    2    0    0  0.00000000000E+00  0.00000000000E+00  0.22970538444E+02  0.93712212081E+02  0.90853360184E+02 0.  0.
        -11    1    3    3    0    0  0.42882521663E+01 -0.40849467136E+02  0.31499847684E+02  0.51762037016E+02  0.00000000000E+00 0.  1.
         11    1    3    3    0    0 -0.42882521663E+01  0.40849467136E+02 -0.85293092402E+01  0.41950175065E+02  0.00000000000E+00 0. -1.
<mgrwt>
<rscale>  0 0.90853360E+02</rscale>
<asrwt>0</asrwt>
<pdfrwt beam="1">  1        1 0.89755962E-02 0.90853360E+02</pdfrwt>
<pdfrwt beam="2">  1       -1 0.54416672E-02 0.90853360E+02</pdfrwt>
<totfact> 0.96915208E+04</totfact>
</mgrwt>
</event>
<event>
 5    1  0.6004828E+000  0.8589192E+02  0.7546771E-02  0.1313116E+00
          1   -1    0    0  501    0  0.00000000000E+00  0.00000000000E+00  0.31832356592E+02  0.31832356592E+02  0.00000000000E+00 0. -1.
         -1   -1    0    0    0  501 -0.00000000000E+00 -0.00000000000E+00 -0.57939639720E+02  0.57939639720E+02  0.00000000000E+00 0.  1.
         23    2    1    2    0    0  0.00000000000E+00  0.00000000000E+00 -0.26107283128E+02  0.89771996312E+02  0.85891915158E+02 0.  0.
        -11    1    3    3    0    0 -0.11915159974E+02 -0.40954022240E+02 -0.78118780011E+01  0.43361600671E+02  0.00000000000E+00 0.  1.
         11    1    3    3    0    0  0.11915159974E+02  0.40954022240E+02 -0.18295405127E+02  0.46410395641E+02  0.00000000000E+00 0. -1.
<mgrwt>
<rscale>  0 0.85891915E+02</rscale>
<asrwt>0</asrwt>
<pdfrwt beam="1">  1        1 0.48972856E-02 0.85891915E+02</pdfrwt>
<pdfrwt beam="2">  1       -1 0.89137907E-02 0.85891915E+02</pdfrwt>
<totfact> 0.10369930E+05</totfact>
</mgrwt>
</event>
<event>
 5    1  0.6004828E+000  0.9105398E+02  0.7546771E-02  0.1300319E+00
         -2   -1    0    0    0  501 -0.00000000000E+00  0.00000000000E+00  0.10974548404E+03  0.10974548404E+03  0.00000000000E+00 0. -1.
          2   -1    0    0  501    0  0.00000000000E+00 -0.00000000000E+00 -0.18886487224E+02  0.18886487224E+02  0.00000000000E+00 0.  1.
         23    2    1    2    0    0  0.00000000000E+00  0.00000000000E+00  0.90858996812E+02  0.12863197126E+03  0.91053977005E+02 0.  0.
        -11    1    3    3    0    0  0.10368061708E+01 -0.24253155331E+02  0.99839847252E+02  0.10274865259E+03  0.00000000000E+00 0. -1.
         11    1    3    3    0    0 -0.10368061708E+01  0.24253155331E+02 -0.89808504396E+01  0.25883318666E+02  0.00000000000E+00 0.  1.
<mgrwt>
<rscale>  0 0.91053977E+02</rscale>
<asrwt>0</asrwt>
<pdfrwt beam="2">  1        2 0.29056135E-02 0.91053977E+02</pdfrwt>
<pdfrwt beam="1">  1       -2 0.16883920E-01 0.91053977E+02</pdfrwt>
<totfact> 0.77842997E+04</totfact>
</mgrwt>
</event>
<event>
 5    1  0.6004828E+000  0.9063031E+02  0.7546771E-02  0.1301332E+00
          4   -1    0    0  501    0  0.00000000000E+00  0.00000000000E+00  0.43716827621E+02  0.43716827621E+02  0.00000000000E+00 0. -1.
         -4   -1    0    0    0  501 -0.00000000000E+00 -0.00000000000E+00 -0.46971914711E+02  0.46971914711E+02  0.00000000000E+00 0.  1.
         23    2    1    2    0    0  0.00000000000E+00  0.00000000000E+00 -0.32550870900E+01  0.90688742332E+02  0.90630306156E+02 0.  0.
        -11    1    3    3    0    0  0.52369612814E+01 -0.99377091495E+01 -0.45556638653E+02  0.46921116269E+02  0.00000000000E+00 0.  1.
         11    1    3    3    0    0 -0.52369612814E+01  0.99377091495E+01  0.42301551563E+02  0.43767626063E+02  0.00000000000E+00 0. -1.
<mgrwt>
<rscale>  0 0.90630306E+02</rscale>
<asrwt>0</asrwt>
<pdfrwt beam="1">  1        4 0.67256658E-02 0.90630306E+02</pdfrwt>
<pdfrwt beam="2">  1       -4 0.72264484E-02 0.90630306E+02</pdfrwt>
<totfact> 0.27492216E+04</totfact>
</mgrwt>
</event>
<event>
 5    1  0.6004828E+000  0.9304165E+02  0.7546771E-02  0.1295649E+00
          2   -1    0    0  501    0  0.00000000000E+00  0.00000000000E+00  0.37540925557E+03  0.37540925557E+03  0.00000000000E+00 0. -1.
         -2   -1    0    0    0  501 -0.00000000000E+00 -0.00000000000E+00 -0.57648743430E+01  0.57648743430E+01  0.00000000000E+00 0.  1.
         23    2    1    2    0    0  0.00000000000E+00  0.00000000000E+00  0.36964438123E+03  0.38117412992E+03  0.93041650579E+02 0.  0.
        -11    1    3    3    0    0  0.31476899625E+02 -0.31240040855E+02  0.24238958665E+03  0.24641316336E+03  0.00000000000E+00 0. -1.
         11    1    3    3    0    0 -0.31476899625E+02  0.31240040855E+02  0.12725479458E+03  0.13476096656E+03  0.00000000000E+00 0.  1.
<mgrwt>
<rscale>  0 0.93041651E+02</rscale>
<asrwt>0</asrwt>
<pdfrwt beam="1">  1        2 0.57755251E-01 0.93041651E+02</pdfrwt>
<pdfrwt beam="2">  1       -2 0.88690403E-03 0.93041651E+02</pdfrwt>
<totfact> 0.18487405E+05</totfact>
</mgrwt>
</event>
<event>
 5    1  0.6004828E+000  0.9021099E+02  0.7546771E-02  0.1302342E+00
          2   -1    0    0  501    0  0.00000000000E+00  0.00000000000E+00  0.66023715758E+02  0.66023715758E+02  0.00000000000E+00 0.  1.
         -2   -1    0    0    0  501 -0.00000000000E+00 -0.00000000000E+00 -0.30814769352E+02  0.30814769352E+02  0.00000000000E+00 0. -1.
         23    2    1    2    0    0  0.00000000000E+00  0.00000000000E+00  0.35208946406E+02  0.96838485111E+02  0.90210987643E+02 0.  0.
        -11    1    3    3    0    0  0.43564271779E+02 -0.88574120090E+01  0.94146860968E+01  0.45441565086E+02  0.00000000000E+00 0. -1.
         11    1    3    3    0    0 -0.43564271779E+02  0.88574120090E+01  0.25794260309E+02  0.51396920025E+02  0.00000000000E+00 0.  1.
<mgrwt>
<rscale>  0 0.90210988E+02</rscale>
<asrwt>0</asrwt>
<pdfrwt beam="1">  1        2 0.10157495E-01 0.90210988E+02</pdfrwt>
<pdfrwt beam="2">  1       -2 0.47407337E-02 0.90210988E+02</pdfrwt>
<totfact> 0.11214995E+05</totfact>
</mgrwt>
</event>
<event>
 5    1  0.6004828E+000  0.9099247E+02  0.7546771E-02  0.1300466E+00
         -2   -1    0    0    0  501 -0.00000000000E+00  0.00000000000E+00  0.29931684051E+02  0.29931684051E+02  0.00000000000E+00 0.  1.
          2   -1    0    0  501    0  0.00000000000E+00 -0.00000000000E+00 -0.69154391869E+02  0.69154391869E+02  0.00000000000E+00 0. -1.
         23    2    1    2    0    0  0.00000000000E+00  0.00000000000E+00 -0.39222707818E+02  0.99086075920E+02  0.90992470198E+02 0.  0.
        -11    1    3    3    0    0 -0.15224970931E+02  0.38185317211E+02 -0.40838558770E+02  0.57945716604E+02  0.00000000000E+00 0.  1.
         11    1    3    3    0    0  0.15224970931E+02 -0.38185317211E+02  0.16158509520E+01  0.41140359316E+02  0.00000000000E+00 0. -1.
<mgrwt>
<rscale>  0 0.90992470E+02</rscale>
<asrwt>0</asrwt>
<pdfrwt beam="2">  1        2 0.10639137E-01 0.90992470E+02</pdfrwt>
<pdfrwt beam="1">  1       -2 0.46048745E-02 0.90992470E+02</pdfrwt>
<totfact> 0.11087493E+05</totfact>
</mgrwt>
</event>
<event>
 5    1  0.6004828E+000  0.9110579E+02  0.7546771E-02  0.1300196E+00
          2   -1    0    0  501    0  0.00000000000E+00  0.00000000000E+00  0.54223844738E+02  0.54223844738E+02  0.00000000000E+00 0. -1.
         -2   -1    0    0    0  501 -0.00000000000E+00 -0.00000000000E+00 -0.38268522387E+02  0.38268522387E+02  0.00000000000E+00 0.  1.
         23    2    1    2    0    0  0.00000000000E+00  0.00000000000E+00  0.15955322351E+02  0.92492367125E+02  0.91105793806E+02 0.  0.
        -11    1    3    3    0    0 -0.68118991866E+01 -0.43217647047E+02  0.20855326970E+02  0.48467635075E+02  0.00000000000E+00 0. -1.
         11    1    3    3    0    0  0.68118991866E+01  0.43217647047E+02 -0.49000046187E+01  0.44024732050E+02  0.00000000000E+00 0.  1.
<mgrwt>
<rscale>  0 0.91105794E+02</rscale>
<asrwt>0</asrwt>
<pdfrwt beam="1">  1        2 0.83421300E-02 0.91105794E+02</pdfrwt>
<pdfrwt beam="2">  1       -2 0.58874650E-02 0.91105794E+02</pdfrwt>
<totfact> 0.10348123E+05</totfact>
</mgrwt>
</event>
<event>
 5    1  0.6004828E+000  0.9416252E+02  0.7546771E-02  0.1293074E+00
         -2   -1    0    0    0  501 -0.00000000000E+00  0.00000000000E+00  0.11265719143E+02  0.11265719143E+02  0.00000000000E+00 0.  1.
          2   -1    0    0  501    0  0.00000000000E+00 -0.00000000000E+00 -0.19676017511E+03  0.19676017511E+03  0.00000000000E+00 0. -1.
         23    2    1    2    0    0  0.00000000000E+00  0.00000000000E+00 -0.18549445597E+03  0.20802589425E+03  0.94162516347E+02 0.  0.
        -11    1    3    3    0    0  0.45115323870E+02 -0.11457871768E+02 -0.77130420051E+02  0.90087607197E+02  0.00000000000E+00 0. -1.
         11    1    3    3    0    0 -0.45115323870E+02  0.11457871768E+02 -0.10836403591E+03  0.11793828705E+03  0.00000000000E+00 0.  1.
<mgrwt>
<rscale>  0 0.94162516E+02</rscale>
<asrwt>0</asrwt>
<pdfrwt beam="2">  1        2 0.30270796E-01 0.94162516E+02</pdfrwt>
<pdfrwt beam="1">  1       -2 0.17331876E-02 0.94162516E+02</pdfrwt>
<totfact> 0.14095481E+05</totfact>
</mgrwt>
</event>
<event>
 5    1  0.6004828E+000  0.9111878E+02  0.7546771E-02  0.1300165E+00
          2   -1    0    0  501    0  0.00000000000E+00  0.00000000000E+00  0.14186086790E+02  0.14186086790E+02  0.00000000000E+00 0. -1.
         -2   -1    0    0    0  501 -0.00000000000E+00 -0.00000000000E+00 -0.14631646124E+03  0.14631646124E+03  0.00000000000E+00 0.  1.
         23    2    1    2    0    0  0.00000000000E+00  0.00000000000E+00 -0.13213037445E+03  0.16050254803E+03  0.91118780018E+02 0.  0.
        -11    1    3    3    0    0 -0.22098263527E+02  0.23123939991E+02 -0.12321402498E+03  0.12729786253E+03  0.00000000000E+00 0.  1.
         11    1    3    3    0    0  0.22098263527E+02 -0.23123939991E+02 -0.89163494695E+01  0.33204685505E+02  0.00000000000E+00 0. -1.
<mgrwt>
<rscale>  0 0.91118780E+02</rscale>
<asrwt>0</asrwt>
<pdfrwt beam="1">  1        2 0.21824751E-02 0.91118780E+02</pdfrwt>
<pdfrwt beam="2">  1       -2 0.22510223E-01 0.91118780E+02</pdfrwt>
<totfact> 0.70601172E+04</totfact>
</mgrwt>
</event>
<event>
 5    1  0.6004828E+000  0.9194371E+02  0.7546771E-02  0.1298212E+00
         -2   -1    0    0    0  501 -0.00000000000E+00  0.00000000000E+00  0.16510343313E+03  0.16510343313E+03  0.00000000000E+00 0.  1.
          2   -1    0    0  501    0  0.00000000000E+00 -0.00000000000E+00 -0.12800529642E+02  0.12800529642E+02  0.00000000000E+00 0. -1.
         23    2    1    2    0    0  0.00000000000E+00  0.00000000000E+00  0.15230290349E+03  0.17790396277E+03  0.91943708644E+02 0.  0.
        -11    1    3    3    0    0 -0.17813005777E+02  0.26162571809E+02  0.14066387467E+03  0.14418082042E+03  0.00000000000E+00 0.  1.
         11    1    3    3    0    0  0.17813005777E+02 -0.26162571809E+02  0.11639028815E+02  0.33723142354E+02  0.00000000000E+00 0. -1.
<mgrwt>
<rscale>  0 0.91943709E+02</rscale>
<asrwt>0</asrwt>
<pdfrwt beam="2">  1        2 0.19693124E-02 0.91943709E+02</pdfrwt>
<pdfrwt beam="1">  1       -2 0.25400527E-01 0.91943709E+02</pdfrwt>
<totfact> 0.65973791E+04</totfact>
</mgrwt>
</event>
<event>
 5    1  0.6004828E+000  0.8725820E+02  0.7546771E-02  0.1309631E+00
          1   -1    0    0  501    0  0.00000000000E+00  0.00000000000E+00  0.65878696090E+02  0.65878696090E+02  0.00000000000E+00 0. -1.
         -1   -1    0    0    0  501 -0.00000000000E+00 -0.00000000000E+00 -0.28893989817E+02  0.28893989817E+02  0.00000000000E+00 0.  1.
         23    2    1    2    0    0  0.00000000000E+00  0.00000000000E+00  0.36984706272E+02  0.94772685907E+02  0.87258200165E+02 0.  0.
        -11    1    3    3    0    0 -0.36105690626E+02  0.24411737996E+02  0.16335232800E+02  0.46544534354E+02  0.00000000000E+00 0.  1.
         11    1    3    3    0    0  0.36105690626E+02 -0.24411737996E+02  0.20649473472E+02  0.48228151553E+02  0.00000000000E+00 0. -1.
<mgrwt>
<rscale>  0 0.87258200E+02</rscale>
<asrwt>0</asrwt>
<pdfrwt beam="1">  1        1 0.10135184E-01 0.87258200E+02</pdfrwt>
<pdfrwt beam="2">  1       -1 0.44452292E-02 0.87258200E+02</pdfrwt>
<totfact> 0.11031711E+05</totfact>
</mgrwt>
</event>
<event>
 5    1  0.6004828E+000  0.9034411E+02  0.7546771E-02  0.1302021E+00
         -2   -1    0    0    0  501 -0.00000000000E+00  0.00000000000E+00  0.23450344225E+02  0.23450344225E+02  0.00000000000E+00 0.  1.
          2   -1    0    0  501    0  0.00000000000E+00 -0.00000000000E+00 -0.87014265715E+02  0.87014265715E+02  0.00000000000E+00 0. -1.
         23    2    1    2    0    0  0.00000000000E+00  0.00000000000E+00 -0.63563921490E+02  0.11046460994E+03  0.90344108464E+02 0.  0.
        -11    1    3    3    0    0 -0.28368352410E+02 -0.18692312434E+02 -0.68183989550E+02  0.76178884172E+02  0.00000000000E+00 0. -1.
         11    1    3    3    0    0  0.28368352410E+02  0.18692312434E+02  0.46200680609E+01  0.34285725769E+02  0.00000000000E+00 0.  1.
<mgrwt>
<rscale>  0 0.90344108E+02</rscale>
<asrwt>0</asrwt>
<pdfrwt beam="2">  1        2 0.13386810E-01 0.90344108E+02</pdfrwt>
<pdfrwt beam="1">  1       -2 0.36077454E-02 0.90344108E+02</pdfrwt>
<totfact> 0.12070782E+05</totfact>
</mgrwt>
</event>
<event>
 5    1  0.6004828E+000  0.9018570E+02  0.7546771E-02  0.1302403E+00
          1   -1    0    0  501    0  0.00000000000E+00  0.00000000000E+00  0.68455464253E+01  0.68455464253E+01  0.00000000000E+00 0. -1.
         -1   -1    0    0    0  501 -0.00000000000E+00 -0.00000000000E+00 -0.29703475383E+03  0.29703475383E+03  0.00000000000E+00 0.  1.
         23    2    1    2    0    0  0.00000000000E+00  0.00000000000E+00 -0.29018920740E+03  0.30388030025E+03  0.90185701688E+02 0.  0.
        -11    1    3    3    0    0  0.34684942899E+02  0.22457837576E+02 -0.20592920319E+03  0.21003389360E+03  0.00000000000E+00 0.  1.
         11    1    3    3    0    0 -0.34684942899E+02 -0.22457837576E+02 -0.84260004207E+02  0.93846406652E+02  0.00000000000E+00 0. -1.
<mgrwt>
<rscale>  0 0.90185702E+02</rscale>
<asrwt>0</asrwt>
<pdfrwt beam="1">  1        1 0.10531611E-02 0.90185702E+02</pdfrwt>
<pdfrwt beam="2">  1       -1 0.45697650E-01 0.90185702E+02</pdfrwt>
<totfact> 0.62584788E+04</totfact>
</mgrwt>
</event>
<event>
 5    1  0.6004828E+000  0.9182451E+02  0.7546771E-02  0.1298493E+00
          1   -1    0    0  501    0  0.00000000000E+00  0.00000000000E+00  0.12879930512E+02  0.12879930512E+02  0.00000000000E+00 0. -1.
         -1   -1    0    0    0  501 -0.00000000000E+00 -0.00000000000E+00 -0.16366045495E+03  0.16366045495E+03  0.00000000000E+00 0.  1.
         23    2    1    2    0    0  0.00000000000E+00  0.00000000000E+00 -0.15078052444E+03  0.17654038546E+03  0.91824512790E+02 0.  0.
        -11    1    3    3    0    0  0.18806821323E+02  0.29273480490E+02 -0.13298128344E+03  0.13745782965E+03  0.00000000000E+00 0.  1.
         11    1    3    3    0    0 -0.18806821323E+02 -0.29273480490E+02 -0.17799241001E+02  0.39082555808E+02  0.00000000000E+00 0. -1.
<mgrwt>
<rscale>  0 0.91824513E+02</rscale>
<asrwt>0</asrwt>
<pdfrwt beam="1">  1        1 0.19815277E-02 0.91824513E+02</pdfrwt>
<pdfrwt beam="2">  1       -1 0.25178533E-01 0.91824513E+02</pdfrwt>
<totfact> 0.71898086E+04</totfact>
</mgrwt>
</event>
<event>
 5    1  0.6004828E+000  0.9264695E+02  0.7546771E-02  0.1296565E+00
          3   -1    0    0  501    0  0.00000000000E+00  0.00000000000E+00  0.63367231536E+01  0.63367231536E+01  0.00000000000E+00 0. -1.
         -3   -1    0    0    0  501 -0.00000000000E+00 -0.00000000000E+00 -0.33863939894E+03  0.33863939894E+03  0.00000000000E+00 0.  1.
         23    2    1    2    0    0  0.00000000000E+00  0.00000000000E+00 -0.33230267579E+03  0.34497612209E+03  0.92646945335E+02 0.  0.
        -11    1    3    3    0    0  0.43889874746E+02 -0.11381105799E+02 -0.13082394209E+03  0.13845849378E+03  0.00000000000E+00 0. -1.
         11    1    3    3    0    0 -0.43889874746E+02  0.11381105799E+02 -0.20147873369E+03  0.20651762831E+03  0.00000000000E+00 0.  1.
<mgrwt>
<rscale>  0 0.92646945E+02</rscale>
<asrwt>0</asrwt>
<pdfrwt beam="1">  1        3 0.97488042E-03 0.92646945E+02</pdfrwt>
<pdfrwt beam="2">  1       -3 0.52098373E-01 0.92646945E+02</pdfrwt>
<totfact> 0.21437664E+04</totfact>
</mgrwt>
</event>
<event>
 5    1  0.6004828E+000  0.8413157E+02  0.7546771E-02  0.1317719E+00
         -2   -1    0    0    0  501 -0.00000000000E+00  0.00000000000E+00  0.10053103517E+02  0.10053103517E+02  0.00000000000E+00 0.  1.
          2   -1    0    0  501    0  0.00000000000E+00 -0.00000000000E+00 -0.17601830998E+03  0.17601830998E+03  0.00000000000E+00 0. -1.
         23    2    1    2    0    0  0.00000000000E+00  0.00000000000E+00 -0.16596520647E+03  0.18607141350E+03  0.84131570558E+02 0.  0.
        -11    1    3    3    0    0  0.38903702174E+02  0.14751365400E+02 -0.69272117489E+02  0.80806726733E+02  0.00000000000E+00 0.  1.
         11    1    3    3    0    0 -0.38903702174E+02 -0.14751365400E+02 -0.96693088979E+02  0.10526468677E+03  0.00000000000E+00 0. -1.
<mgrwt>
<rscale>  0 0.84131571E+02</rscale>
<asrwt>0</asrwt>
<pdfrwt beam="2">  1        2 0.27079738E-01 0.84131571E+02</pdfrwt>
<pdfrwt beam="1">  1       -2 0.15466315E-02 0.84131571E+02</pdfrwt>
<totfact> 0.18340724E+05</totfact>
</mgrwt>
</event>
<event>
 5    1  0.6004828E+000  0.9311049E+02  0.7546771E-02  0.1295489E+00
         -1   -1    0    0    0  501 -0.00000000000E+00  0.00000000000E+00  0.51764038342E+01  0.51764038342E+01  0.00000000000E+00 0.  1.
          1   -1    0    0  501    0  0.00000000000E+00 -0.00000000000E+00 -0.41870588894E+03  0.41870588894E+03  0.00000000000E+00 0. -1.
         23    2    1    2    0    0  0.00000000000E+00  0.00000000000E+00 -0.41352948511E+03  0.42388229278E+03  0.93110488537E+02 0.  0.
        -11    1    3    3    0    0  0.72017801251E+01 -0.44754927847E+02 -0.25505555945E+03  0.25905251902E+03  0.00000000000E+00 0.  1.
         11    1    3    3    0    0 -0.72017801251E+01  0.44754927847E+02 -0.15847392566E+03  0.16482977376E+03  0.00000000000E+00 0. -1.
<mgrwt>
<rscale>  0 0.93110489E+02</rscale>
<asrwt>0</asrwt>
<pdfrwt beam="2">  1        1 0.64416282E-01 0.93110489E+02</pdfrwt>
<pdfrwt beam="1">  1       -1 0.79636993E-03 0.93110489E+02</pdfrwt>
<totfact> 0.12851007E+05</totfact>
</mgrwt>
</event>
<event>
 5    1  0.6004828E+000  0.9198846E+02  0.7546771E-02  0.1298107E+00
          4   -1    0    0  501    0  0.00000000000E+00  0.00000000000E+00  0.94244479696E+01  0.94244479696E+01  0.00000000000E+00 0. -1.
         -4   -1    0    0    0  501 -0.00000000000E+00 -0.00000000000E+00 -0.22446609922E+03  0.22446609922E+03  0.00000000000E+00 0.  1.
         23    2    1    2    0    0  0.00000000000E+00  0.00000000000E+00 -0.21504165125E+03  0.23389054719E+03  0.91988457386E+02 0.  0.
        -11    1    3    3    0    0 -0.33883946927E+02 -0.12410646557E+02 -0.35008659558E+02  0.50276756572E+02  0.00000000000E+00 0. -1.
         11    1    3    3    0    0  0.33883946927E+02  0.12410646557E+02 -0.18003299169E+03  0.18361379062E+03  0.00000000000E+00 0.  1.
<mgrwt>
<rscale>  0 0.91988457E+02</rscale>
<asrwt>0</asrwt>
<pdfrwt beam="1">  1        4 0.14499151E-02 0.91988457E+02</pdfrwt>
<pdfrwt beam="2">  1       -4 0.34533245E-01 0.91988457E+02</pdfrwt>
<totfact> 0.19579221E+04</totfact>
</mgrwt>
</event>
<event>
 5    1  0.6004828E+000  0.8902295E+02  0.7546771E-02  0.1305235E+00
         -1   -1    0    0    0  501 -0.00000000000E+00  0.00000000000E+00  0.51457192841E+01  0.51457192841E+01  0.00000000000E+00 0.  1.
          1   -1    0    0  501    0  0.00000000000E+00 -0.00000000000E+00 -0.38503291714E+03  0.38503291714E+03  0.00000000000E+00 0. -1.
         23    2    1    2    0    0  0.00000000000E+00  0.00000000000E+00 -0.37988719785E+03  0.39017863642E+03  0.89022947755E+02 0.  0.
        -11    1    3    3    0    0 -0.38478486872E+02  0.22219230535E+02 -0.20152569537E+03  0.20636592270E+03  0.00000000000E+00 0. -1.
         11    1    3    3    0    0  0.38478486872E+02 -0.22219230535E+02 -0.17836150248E+03  0.18381271372E+03  0.00000000000E+00 0.  1.
<mgrwt>
<rscale>  0 0.89022948E+02</rscale>
<asrwt>0</asrwt>
<pdfrwt beam="2">  1        1 0.59235831E-01 0.89022948E+02</pdfrwt>
<pdfrwt beam="1">  1       -1 0.79164915E-03 0.89022948E+02</pdfrwt>
<totfact> 0.14281099E+05</totfact>
</mgrwt>
</event>
<event>
 4    1  0.6004828E+000  0.4126642E+02  0.7546771E-02  0.1499093E+00
          1   -1    0    0  501    0  0.00000000000E+00  0.00000000000E+00  0.67001342453E+02  0.67001342453E+02  0.00000000000E+00 0. -1.
         -1   -1    0    0    0  501 -0.00000000000E+00 -0.00000000000E+00 -0.63540425169E+01  0.63540425169E+01  0.00000000000E+00 0.  1.
        -11    1    1    2    0    0  0.98777407348E+01  0.18095136131E+02  0.28809380063E+02  0.35425754660E+02  0.00000000000E+00 0. -1.
         11    1    1    2    0    0 -0.98777407348E+01 -0.18095136131E+02  0.31837919873E+02  0.37929630310E+02  0.00000000000E+00 0.  1.
<mgrwt>
<rscale>  0 0.41266421E+02</rscale>
<asrwt>0</asrwt>
<pdfrwt beam="1">  1        1 0.10307898E-01 0.41266421E+02</pdfrwt>
<pdfrwt beam="2">  1       -1 0.97754505E-03 0.41266421E+02</pdfrwt>
<totfact> 0.77808094E+05</totfact>
</mgrwt>
</event>
<event>
 5    1  0.6004828E+000  0.9105537E+02  0.7546771E-02  0.1300316E+00
          2   -1    0    0  501    0  0.00000000000E+00  0.00000000000E+00  0.24951995300E+03  0.24951995300E+03  0.00000000000E+00 0. -1.
         -2   -1    0    0    0  501 -0.00000000000E+00 -0.00000000000E+00 -0.83070317541E+01  0.83070317541E+01  0.00000000000E+00 0.  1.
         23    2    1    2    0    0  0.00000000000E+00  0.00000000000E+00  0.24121292124E+03  0.25782698475E+03  0.91055371567E+02 0.  0.
        -11    1    3    3    0    0  0.40484672013E+02 -0.18623606606E+02  0.94207331083E+02  0.10421549127E+03  0.00000000000E+00 0.  1.
         11    1    3    3    0    0 -0.40484672013E+02  0.18623606606E+02  0.14700559016E+03  0.15361149348E+03  0.00000000000E+00 0. -1.
<mgrwt>
<rscale>  0 0.91055372E+02</rscale>
<asrwt>0</asrwt>
<pdfrwt beam="1">  1        2 0.38387679E-01 0.91055372E+02</pdfrwt>
<pdfrwt beam="2">  1       -2 0.12780051E-02 0.91055372E+02</pdfrwt>
<totfact> 0.16834141E+05</totfact>
</mgrwt>
</event>
<event>
 5    1  0.6004828E+000  0.1007091E+03  0.7546771E-02  0.1278812E+00
         -2   -1    0    0    0  501 -0.00000000000E+00  0.00000000000E+00  0.12396478685E+02  0.12396478685E+02  0.00000000000E+00 0.  1.
          2   -1    0    0  501    0  0.00000000000E+00 -0.00000000000E+00 -0.20454020889E+03  0.20454020889E+03  0.00000000000E+00 0. -1.
         23    2    1    2    0    0  0.00000000000E+00  0.00000000000E+00 -0.19214373020E+03  0.21693668757E+03  0.10070905301E+03 0.  0.
        -11    1    3    3    0    0 -0.35377437348E+02  0.32218017105E+02 -0.12985850233E+03  0.13839362097E+03  0.00000000000E+00 0. -1.
         11    1    3    3    0    0  0.35377437348E+02 -0.32218017105E+02 -0.62285227877E+02  0.78543066602E+02  0.00000000000E+00 0.  1.
<mgrwt>
<rscale>  0 0.10070905E+03</rscale>
<asrwt>0</asrwt>
<pdfrwt beam="2">  1        2 0.31467720E-01 0.10070905E+03</pdfrwt>
<pdfrwt beam="1">  1       -2 0.19071508E-02 0.10070905E+03</pdfrwt>
<totfact> 0.11912520E+05</totfact>
</mgrwt>
</event>
<event>
 5    1  0.6004828E+000  0.9087033E+02  0.7546771E-02  0.1300758E+00
          1   -1    0    0  501    0  0.00000000000E+00  0.00000000000E+00  0.88991199241E+02  0.88991199241E+02  0.00000000000E+00 0. -1.
         -1   -1    0    0    0  501 -0.00000000000E+00 -0.00000000000E+00 -0.23197284375E+02  0.23197284375E+02  0.00000000000E+00 0.  1.
         23    2    1    2    0    0  0.00000000000E+00  0.00000000000E+00  0.65793914866E+02  0.11218848362E+03  0.90870328615E+02 0.  0.
        -11    1    3    3    0    0  0.57816798161E+01  0.22718555210E+02 -0.15154095394E+02  0.27914282716E+02  0.00000000000E+00 0.  1.
         11    1    3    3    0    0 -0.57816798161E+01 -0.22718555210E+02  0.80948010260E+02  0.84274200900E+02  0.00000000000E+00 0. -1.
<mgrwt>
<rscale>  0 0.90870329E+02</rscale>
<asrwt>0</asrwt>
<pdfrwt beam="1">  1        1 0.13690954E-01 0.90870329E+02</pdfrwt>
<pdfrwt beam="2">  1       -1 0.35688130E-02 0.90870329E+02</pdfrwt>
<totfact> 0.10342116E+05</totfact>
</mgrwt>
</event>
<event>
 5    1  0.6004828E+000  0.9396463E+02  0.7546771E-02  0.1293525E+00
         -4   -1    0    0    0  501 -0.00000000000E+00  0.00000000000E+00  0.16878739830E+03  0.16878739830E+03  0.00000000000E+00 0.  1.
          4   -1    0    0  501    0  0.00000000000E+00 -0.00000000000E+00 -0.13077622304E+02  0.13077622304E+02  0.00000000000E+00 0. -1.
         23    2    1    2    0    0  0.00000000000E+00  0.00000000000E+00  0.15570977600E+03  0.18186502061E+03  0.93964628339E+02 0.  0.
        -11    1    3    3    0    0 -0.27679620776E+02  0.13186808484E+02  0.89544725029E+01  0.31941131822E+02  0.00000000000E+00 0. -1.
         11    1    3    3    0    0  0.27679620776E+02 -0.13186808484E+02  0.14675530350E+03  0.14992388878E+03  0.00000000000E+00 0.  1.
<mgrwt>
<rscale>  0 0.93964628E+02</rscale>
<asrwt>0</asrwt>
<pdfrwt beam="2">  1        4 0.20119420E-02 0.93964628E+02</pdfrwt>
<pdfrwt beam="1">  1       -4 0.25967291E-01 0.93964628E+02</pdfrwt>
<totfact> 0.20442009E+04</totfact>
</mgrwt>
</event>
<event>
 5    1  0.6004828E+000  0.9211896E+02  0.7546771E-02  0.1297800E+00
          3   -1    0    0  501    0  0.00000000000E+00  0.00000000000E+00  0.68607536296E+02  0.68607536296E+02  0.00000000000E+00 0. -1.
         -3   -1    0    0    0  501 -0.00000000000E+00 -0.00000000000E+00 -0.30921907406E+02  0.30921907406E+02  0.00000000000E+00 0.  1.
         23    2    1    2    0    0  0.00000000000E+00  0.00000000000E+00  0.37685628890E+02  0.99529443701E+02  0.92118964056E+02 0.  0.
        -11    1    3    3    0    0 -0.18699474769E+02 -0.22191519961E+02 -0.19802411879E+02  0.35132170884E+02  0.00000000000E+00 0.  1.
         11    1    3    3    0    0  0.18699474769E+02  0.22191519961E+02  0.57488040769E+02  0.64397272817E+02  0.00000000000E+00 0. -1.
<mgrwt>
<rscale>  0 0.92118964E+02</rscale>
<asrwt>0</asrwt>
<pdfrwt beam="1">  1        3 0.10555006E-01 0.92118964E+02</pdfrwt>
<pdfrwt beam="2">  1       -3 0.47572165E-02 0.92118964E+02</pdfrwt>
<totfact> 0.33746101E+04</totfact>
</mgrwt>
</event>
<event>
 5    1  0.6004828E+000  0.8874896E+02  0.7546771E-02  0.1305910E+00
         -2   -1    0    0    0  501 -0.00000000000E+00  0.00000000000E+00  0.83525952374E+02  0.83525952374E+02  0.00000000000E+00 0.  1.
          2   -1    0    0  501    0  0.00000000000E+00 -0.00000000000E+00 -0.23574645001E+02  0.23574645001E+02  0.00000000000E+00 0. -1.
         23    2    1    2    0    0  0.00000000000E+00  0.00000000000E+00  0.59951307373E+02  0.10710059738E+03  0.88748964515E+02 0.  0.
        -11    1    3    3    0    0 -0.30668683672E+02  0.51828023114E+01  0.68169189443E+02  0.74929753685E+02  0.00000000000E+00 0.  1.
         11    1    3    3    0    0  0.30668683672E+02 -0.51828023114E+01 -0.82178820707E+01  0.32170843690E+02  0.00000000000E+00 0. -1.
<mgrwt>
<rscale>  0 0.88748965E+02</rscale>
<asrwt>0</asrwt>
<pdfrwt beam="2">  1        2 0.36268685E-02 0.88748965E+02</pdfrwt>
<pdfrwt beam="1">  1       -2 0.12850146E-01 0.88748965E+02</pdfrwt>
<totfact> 0.89841501E+04</totfact>
</mgrwt>
</event>
<event>
 5    1  0.6004828E+000  0.9159305E+02  0.7546771E-02  0.1299039E+00
          2   -1    0    0  501    0  0.00000000000E+00  0.00000000000E+00  0.78615936662E+02  0.78615936662E+02  0.00000000000E+00 0. -1.
         -2   -1    0    0    0  501 -0.00000000000E+00 -0.00000000000E+00 -0.26678070276E+02  0.26678070276E+02  0.00000000000E+00 0.  1.
         23    2    1    2    0    0  0.00000000000E+00  0.00000000000E+00  0.51937866386E+02  0.10529400694E+03  0.91593045218E+02 0.  0.
        -11    1    3    3    0    0  0.15569322224E+02  0.40963015753E+02  0.41260966894E+02  0.60190031094E+02  0.00000000000E+00 0. -1.
         11    1    3    3    0    0 -0.15569322224E+02 -0.40963015753E+02  0.10676899493E+02  0.45103975844E+02  0.00000000000E+00 0.  1.
<mgrwt>
<rscale>  0 0.91593045E+02</rscale>
<asrwt>0</asrwt>
<pdfrwt beam="1">  1        2 0.12094759E-01 0.91593045E+02</pdfrwt>
<pdfrwt beam="2">  1       -2 0.41043185E-02 0.91593045E+02</pdfrwt>
<totfact> 0.11284452E+05</totfact>
</mgrwt>
</event>
<event>
 5    1  0.6004828E+000  0.9104521E+02  0.7546771E-02  0.1300340E+00
          1   -1    0    0  501    0  0.00000000000E+00  0.00000000000E+00  0.32316080395E+02  0.32316080395E+02  0.00000000000E+00 0. -1.
         -1   -1    0    0    0  501 -0.00000000000E+00 -0.00000000000E+00 -0.64126209284E+02  0.64126209284E+02  0.00000000000E+00 0.  1.
         23    2    1    2    0    0  0.00000000000E+00  0.00000000000E+00 -0.31810128888E+02  0.96442289679E+02  0.91045213706E+02 0.  0.
        -11    1    3    3    0    0 -0.16815148810E+02  0.12973675987E+02 -0.58556568207E+02  0.62289141737E+02  0.00000000000E+00 0.  1.
         11    1    3    3    0    0  0.16815148810E+02 -0.12973675987E+02  0.26746439319E+02  0.34153147942E+02  0.00000000000E+00 0. -1.
<mgrwt>
<rscale>  0 0.91045214E+02</rscale>
<asrwt>0</asrwt>
<pdfrwt beam="1">  1        1 0.49717047E-02 0.91045214E+02</pdfrwt>
<pdfrwt beam="2">  1       -1 0.98655705E-02 0.91045214E+02</pdfrwt>
<totfact> 0.88083333E+04</totfact>
</mgrwt>
</event>
<event>
 5    1  0.6004828E+000  0.9207141E+02  0.7546771E-02  0.1297912E+00
          1   -1    0    0  501    0  0.00000000000E+00  0.00000000000E+00  0.11374320196E+03  0.11374320196E+03  0.00000000000E+00 0. -1.
         -1   -1    0    0    0  501 -0.00000000000E+00 -0.00000000000E+00 -0.18632198530E+02  0.18632198530E+02  0.00000000000E+00 0.  1.
         23    2    1    2    0    0  0.00000000000E+00  0.00000000000E+00  0.95111003425E+02  0.13237540048E+03  0.92071405338E+02 0.  0.
        -11    1    3    3    0    0  0.92653849114E+01  0.32703999536E+02  0.29184428459E+01  0.34116216846E+02  0.00000000000E+00 0. -1.
         11    1    3    3    0    0 -0.92653849114E+01 -0.32703999536E+02  0.92192560580E+02  0.98259183639E+02  0.00000000000E+00 0.  1.
<mgrwt>
<rscale>  0 0.92071405E+02</rscale>
<asrwt>0</asrwt>
<pdfrwt beam="1">  1        1 0.17498954E-01 0.92071405E+02</pdfrwt>
<pdfrwt beam="2">  1       -1 0.28664921E-02 0.92071405E+02</pdfrwt>
<totfact> 0.10395014E+05</totfact>
</mgrwt>
</event>
<event>
 5    1  0.6004828E+000  0.8969008E+02  0.7546771E-02  0.1303604E+00
         -2   -1    0    0    0  501 -0.00000000000E+00  0.00000000000E+00  0.99905199190E+01  0.99905199190E+01  0.00000000000E+00 0.  1.
          2   -1    0    0  501    0  0.00000000000E+00 -0.00000000000E+00 -0.20129861524E+03  0.20129861524E+03  0.00000000000E+00 0. -1.
         23    2    1    2    0    0  0.00000000000E+00  0.00000000000E+00 -0.19130809532E+03  0.21128913516E+03  0.89690084742E+02 0.  0.
        -11    1    3    3    0    0 -0.26552078813E+02 -0.36053091942E+02 -0.89769575180E+02  0.10031657368E+03  0.00000000000E+00 0.  1.
         11    1    3    3    0    0  0.26552078813E+02  0.36053091942E+02 -0.10153852014E+03  0.11097256148E+03  0.00000000000E+00 0. -1.
<mgrwt>
<rscale>  0 0.89690085E+02</rscale>
<asrwt>0</asrwt>
<pdfrwt beam="2">  1        2 0.30969013E-01 0.89690085E+02</pdfrwt>
<pdfrwt beam="1">  1       -2 0.15370033E-02 0.89690085E+02</pdfrwt>
<totfact> 0.16204652E+05</totfact>
</mgrwt>
</event>
<event>
 5    1  0.6004828E+000  0.9302101E+02  0.7546771E-02  0.1295696E+00
         -2   -1    0    0    0  501 -0.00000000000E+00  0.00000000000E+00  0.99596880357E+01  0.99596880357E+01  0.00000000000E+00 0.  1.
          2   -1    0    0  501    0  0.00000000000E+00 -0.00000000000E+00 -0.21719829630E+03  0.21719829630E+03  0.00000000000E+00 0. -1.
         23    2    1    2    0    0  0.00000000000E+00  0.00000000000E+00 -0.20723860827E+03  0.22715798434E+03  0.93021014251E+02 0.  0.
        -11    1    3    3    0    0 -0.26653648696E+02 -0.38091395819E+02 -0.10029256890E+03  0.11054397678E+03  0.00000000000E+00 0. -1.
         11    1    3    3    0    0  0.26653648696E+02  0.38091395819E+02 -0.10694603936E+03  0.11661400756E+03  0.00000000000E+00 0.  1.
<mgrwt>
<rscale>  0 0.93021014E+02</rscale>
<asrwt>0</asrwt>
<pdfrwt beam="2">  1        2 0.33415123E-01 0.93021014E+02</pdfrwt>
<pdfrwt beam="1">  1       -2 0.15322597E-02 0.93021014E+02</pdfrwt>
<totfact> 0.15102611E+05</totfact>
</mgrwt>
</event>
<event>
 5    1  0.6004828E+000  0.9086172E+02  0.7546771E-02  0.1300778E+00
         -1   -1    0    0    0  501 -0.00000000000E+00  0.00000000000E+00  0.66242119262E+01  0.66242119262E+01  0.00000000000E+00 0.  1.
          1   -1    0    0  501    0  0.00000000000E+00 -0.00000000000E+00 -0.31157862385E+03  0.31157862385E+03  0.00000000000E+00 0. -1.
         23    2    1    2    0    0  0.00000000000E+00  0.00000000000E+00 -0.30495441192E+03  0.31820283578E+03  0.90861715503E+02 0.  0.
        -11    1    3    3    0    0  0.41895397347E+02 -0.95409232520E+01 -0.10080445242E+03  0.10958006736E+03  0.00000000000E+00 0.  1.
         11    1    3    3    0    0 -0.41895397347E+02  0.95409232520E+01 -0.20414995951E+03  0.20862276842E+03  0.00000000000E+00 0. -1.
<mgrwt>
<rscale>  0 0.90861716E+02</rscale>
<asrwt>0</asrwt>
<pdfrwt beam="2">  1        1 0.47935173E-01 0.90861716E+02</pdfrwt>
<pdfrwt beam="1">  1       -1 0.10191095E-02 0.90861716E+02</pdfrwt>
<totfact> 0.13023981E+05</totfact>
</mgrwt>
</event>
<event>
 5    1  0.6004828E+000  0.9266073E+02  0.7546771E-02  0.1296533E+00
         -4   -1    0    0    0  501 -0.00000000000E+00  0.00000000000E+00  0.28467538284E+03  0.28467538284E+03  0.00000000000E+00 0.  1.
          4   -1    0    0  501    0  0.00000000000E+00 -0.00000000000E+00 -0.75401773264E+01  0.75401773264E+01  0.00000000000E+00 0. -1.
         23    2    1    2    0    0  0.00000000000E+00  0.00000000000E+00  0.27713520551E+03  0.29221556017E+03  0.92660733152E+02 0.  0.
        -11    1    3    3    0    0  0.10357459401E+02  0.45113452189E+02  0.13225854883E+03  0.14012431720E+03  0.00000000000E+00 0. -1.
         11    1    3    3    0    0 -0.10357459401E+02 -0.45113452189E+02  0.14487665669E+03  0.15209124297E+03  0.00000000000E+00 0.  1.
<mgrwt>
<rscale>  0 0.92660733E+02</rscale>
<asrwt>0</asrwt>
<pdfrwt beam="2">  1        4 0.11600275E-02 0.92660733E+02</pdfrwt>
<pdfrwt beam="1">  1       -4 0.43796204E-01 0.92660733E+02</pdfrwt>
<totfact> 0.17299311E+04</totfact>
</mgrwt>
</event>
<event>
 5    1  0.6004828E+000  0.9144001E+02  0.7546771E-02  0.1299402E+00
          2   -1    0    0  501    0  0.00000000000E+00  0.00000000000E+00  0.13380587964E+02  0.13380587964E+02  0.00000000000E+00 0. -1.
         -2   -1    0    0    0  501 -0.00000000000E+00 -0.00000000000E+00 -0.15622024693E+03  0.15622024693E+03  0.00000000000E+00 0.  1.
         23    2    1    2    0    0  0.00000000000E+00  0.00000000000E+00 -0.14283965896E+03  0.16960083489E+03  0.91440007780E+02 0.  0.
        -11    1    3    3    0    0 -0.29168190786E+02 -0.20864596315E+02 -0.18821148675E+02  0.40501239124E+02  0.00000000000E+00 0.  1.
         11    1    3    3    0    0  0.29168190786E+02  0.20864596315E+02 -0.12401851029E+03  0.12909959577E+03  0.00000000000E+00 0. -1.
<mgrwt>
<rscale>  0 0.91440008E+02</rscale>
<asrwt>0</asrwt>
<pdfrwt beam="1">  1        2 0.20585521E-02 0.91440008E+02</pdfrwt>
<pdfrwt beam="2">  1       -2 0.24033883E-01 0.91440008E+02</pdfrwt>
<totfact> 0.68317691E+04</totfact>
</mgrwt>
</event>
<event>
 5    1  0.6004828E+000  0.9072570E+02  0.7546771E-02  0.1301104E+00
          2   -1    0    0  501    0  0.00000000000E+00  0.00000000000E+00  0.48186976497E+03  0.48186976497E+03  0.00000000000E+00 0.  1.
         -2   -1    0    0    0  501 -0.00000000000E+00 -0.00000000000E+00 -0.42704242081E+01  0.42704242081E+01  0.00000000000E+00 0. -1.
         23    2    1    2    0    0  0.00000000000E+00  0.00000000000E+00  0.47759934076E+03  0.48614018917E+03  0.90725703292E+02 0.  0.
        -11    1    3    3    0    0  0.45031795487E+02  0.33605661117E+01  0.21567026769E+03  0.22034704531E+03  0.00000000000E+00 0. -1.
         11    1    3    3    0    0 -0.45031795487E+02 -0.33605661117E+01  0.26192907307E+03  0.26579314387E+03  0.00000000000E+00 0.  1.
<mgrwt>
<rscale>  0 0.90725703E+02</rscale>
<asrwt>0</asrwt>
<pdfrwt beam="1">  1        2 0.74133767E-01 0.90725703E+02</pdfrwt>
<pdfrwt beam="2">  1       -2 0.65698872E-03 0.90725703E+02</pdfrwt>
<totfact> 0.21571256E+05</totfact>
</mgrwt>
</event>
<event>
 5    1  0.6004828E+000  0.9169924E+02  0.7546771E-02  0.1298788E+00
         -1   -1    0    0    0  501 -0.00000000000E+00  0.00000000000E+00  0.36345754161E+02  0.36345754161E+02  0.00000000000E+00 0.  1.
          1   -1    0    0  501    0  0.00000000000E+00 -0.00000000000E+00 -0.57838604080E+02  0.57838604080E+02  0.00000000000E+00 0. -1.
         23    2    1    2    0    0  0.00000000000E+00  0.00000000000E+00 -0.21492849919E+02  0.94184358241E+02  0.91699240671E+02 0.  0.
        -11    1    3    3    0    0 -0.20133140714E+02 -0.62594069337E+01  0.31071388083E+02  0.37549363344E+02  0.00000000000E+00 0.  1.
         11    1    3    3    0    0  0.20133140714E+02  0.62594069337E+01 -0.52564238002E+02  0.56634994896E+02  0.00000000000E+00 0. -1.
<mgrwt>
<rscale>  0 0.91699241E+02</rscale>
<asrwt>0</asrwt>
<pdfrwt beam="2">  1        1 0.88982466E-02 0.91699241E+02</pdfrwt>
<pdfrwt beam="1">  1       -1 0.55916546E-02 0.91699241E+02</pdfrwt>
<totfact> 0.94327404E+04</totfact>
</mgrwt>
</event>
<event>
 5    1  0.6004828E+000  0.8871163E+02  0.7546771E-02  0.1306002E+00
          3   -1    0    0  501    0  0.00000000000E+00  0.00000000000E+00  0.96533267088E+02  0.96533267088E+02  0.00000000000E+00 0. -1.
         -3   -1    0    0    0  501 -0.00000000000E+00 -0.00000000000E+00 -0.20380936600E+02  0.20380936600E+02  0.00000000000E+00 0.  1.
         23    2    1    2    0    0  0.00000000000E+00  0.00000000000E+00  0.76152330488E+02  0.11691420369E+03  0.88711631623E+02 0.  0.
        -11    1    3    3    0    0  0.30469001626E+02  0.16026331043E+02  0.12161640752E+01  0.34448256877E+02  0.00000000000E+00 0. -1.
         11    1    3    3    0    0 -0.30469001626E+02 -0.16026331043E+02  0.74936166413E+02  0.82465946811E+02  0.00000000000E+00 0.  1.
<mgrwt>
<rscale>  0 0.88711632E+02</rscale>
<asrwt>0</asrwt>
<pdfrwt beam="1">  1        3 0.14851272E-01 0.88711632E+02</pdfrwt>
<pdfrwt beam="2">  1       -3 0.31355287E-02 0.88711632E+02</pdfrwt>
<totfact> 0.36036908E+04</totfact>
</mgrwt>
</event>
<event>
 5    1  0.6004828E+000  0.7368450E+02  0.7546771E-02  0.1347994E+00
         -1   -1    0    0    0  501 -0.00000000000E+00  0.00000000000E+00  0.83960069345E+02  0.83960069345E+02  0.00000000000E+00 0.  1.
          1   -1    0    0  501    0  0.00000000000E+00 -0.00000000000E+00 -0.16166630827E+02  0.16166630827E+02  0.00000000000E+00 0. -1.
         23    2    1    2    0    0  0.00000000000E+00  0.00000000000E+00  0.67793438518E+02  0.10012670017E+03  0.73684501635E+02 0.  0.
        -11    1    3    3    0    0 -0.30546889502E+02 -0.20156329852E+02  0.39655669002E+02  0.53962599783E+02  0.00000000000E+00 0. -1.
         11    1    3    3    0    0  0.30546889502E+02  0.20156329852E+02  0.28137769516E+02  0.46164100389E+02  0.00000000000E+00 0.  1.
<mgrwt>
<rscale>  0 0.73684502E+02</rscale>
<asrwt>0</asrwt>
<pdfrwt beam="2">  1        1 0.24871740E-02 0.73684502E+02</pdfrwt>
<pdfrwt beam="1">  1       -1 0.12916933E-01 0.73684502E+02</pdfrwt>
<totfact> 0.14462561E+05</totfact>
</mgrwt>
</event>
<event>
 5    1  0.6004828E+000  0.9109335E+02  0.7546771E-02  0.1300225E+00
          2   -1    0    0  501    0  0.00000000000E+00  0.00000000000E+00  0.26144358788E+03  0.26144358788E+03  0.00000000000E+00 0.  1.
         -2   -1    0    0    0  501 -0.00000000000E+00 -0.00000000000E+00 -0.79347880769E+01  0.79347880769E+01  0.00000000000E+00 0. -1.
         23    2    1    2    0    0  0.00000000000E+00  0.00000000000E+00  0.25350879980E+03  0.26937837596E+03  0.91093346934E+02 0.  0.
        -11    1    3    3    0    0  0.22030656962E+02  0.35658868078E+02  0.74054143866E+02  0.85093601066E+02  0.00000000000E+00 0. -1.
         11    1    3    3    0    0 -0.22030656962E+02 -0.35658868078E+02  0.17945465594E+03  0.18428477489E+03  0.00000000000E+00 0.  1.
<mgrwt>
<rscale>  0 0.91093347E+02</rscale>
<asrwt>0</asrwt>
<pdfrwt beam="1">  1        2 0.40222084E-01 0.91093347E+02</pdfrwt>
<pdfrwt beam="2">  1       -2 0.12207368E-02 0.91093347E+02</pdfrwt>
<totfact> 0.17109300E+05</totfact>
</mgrwt>
</event>
<event>
 5    1  0.6004828E+000  0.8967539E+02  0.7546771E-02  0.1303640E+00
         -1   -1    0    0    0  501 -0.00000000000E+00  0.00000000000E+00  0.56230946001E+01  0.56230946001E+01  0.00000000000E+00 0.  1.
          1   -1    0    0  501    0  0.00000000000E+00 -0.00000000000E+00 -0.35752892863E+03  0.35752892863E+03  0.00000000000E+00 0. -1.
         23    2    1    2    0    0  0.00000000000E+00  0.00000000000E+00 -0.35190583403E+03  0.36315202323E+03  0.89675392121E+02 0.  0.
        -11    1    3    3    0    0  0.42435903494E+02 -0.10567669281E+02 -0.21602939767E+03  0.22041139307E+03  0.00000000000E+00 0. -1.
         11    1    3    3    0    0 -0.42435903494E+02  0.10567669281E+02 -0.13587643636E+03  0.14274063016E+03  0.00000000000E+00 0.  1.
<mgrwt>
<rscale>  0 0.89675392E+02</rscale>
<asrwt>0</asrwt>
<pdfrwt beam="2">  1        1 0.55004436E-01 0.89675392E+02</pdfrwt>
<pdfrwt beam="1">  1       -1 0.86509170E-03 0.89675392E+02</pdfrwt>
<totfact> 0.13829592E+05</totfact>
</mgrwt>
</event>
<event>
 5    1  0.6004828E+000  0.9113443E+02  0.7546771E-02  0.1300128E+00
          3   -1    0    0  501    0  0.00000000000E+00  0.00000000000E+00  0.11972486025E+03  0.11972486025E+03  0.00000000000E+00 0. -1.
         -3   -1    0    0    0  501 -0.00000000000E+00 -0.00000000000E+00 -0.17342855192E+02  0.17342855192E+02  0.00000000000E+00 0.  1.
         23    2    1    2    0    0  0.00000000000E+00  0.00000000000E+00  0.10238200506E+03  0.13706771544E+03  0.91134426300E+02 0.  0.
        -11    1    3    3    0    0 -0.27176351443E+02 -0.36520291711E+02  0.54230876935E+02  0.70804475830E+02  0.00000000000E+00 0.  1.
         11    1    3    3    0    0  0.27176351443E+02  0.36520291711E+02  0.48151128125E+02  0.66263239614E+02  0.00000000000E+00 0. -1.
<mgrwt>
<rscale>  0 0.91134426E+02</rscale>
<asrwt>0</asrwt>
<pdfrwt beam="1">  1        3 0.18419209E-01 0.91134426E+02</pdfrwt>
<pdfrwt beam="2">  1       -3 0.26681316E-02 0.91134426E+02</pdfrwt>
<totfact> 0.32157693E+04</totfact>
</mgrwt>
</event>
<event>
 5    1  0.6004828E+000  0.9152833E+02  0.7546771E-02  0.1299192E+00
         -2   -1    0    0    0  501 -0.00000000000E+00  0.00000000000E+00  0.62277047260E+02  0.62277047260E+02  0.00000000000E+00 0.  1.
          2   -1    0    0  501    0  0.00000000000E+00 -0.00000000000E+00 -0.33629708639E+02  0.33629708639E+02  0.00000000000E+00 0. -1.
         23    2    1    2    0    0  0.00000000000E+00  0.00000000000E+00  0.28647338621E+02  0.95906755900E+02  0.91528333412E+02 0.  0.
        -11    1    3    3    0    0 -0.13688786272E+02  0.22555090203E+02 -0.24858197781E+02  0.36249758076E+02  0.00000000000E+00 0. -1.
         11    1    3    3    0    0  0.13688786272E+02 -0.22555090203E+02  0.53505536402E+02  0.59656997823E+02  0.00000000000E+00 0.  1.
<mgrwt>
<rscale>  0 0.91528333E+02</rscale>
<asrwt>0</asrwt>
<pdfrwt beam="2">  1        2 0.51738014E-02 0.91528333E+02</pdfrwt>
<pdfrwt beam="1">  1       -2 0.95810842E-02 0.91528333E+02</pdfrwt>
<totfact> 0.90153049E+04</totfact>
</mgrwt>
</event>
<event>
 5    1  0.6004828E+000  0.9157971E+02  0.7546771E-02  0.1299071E+00
         -2   -1    0    0    0  501 -0.00000000000E+00  0.00000000000E+00  0.11895746591E+02  0.11895746591E+02  0.00000000000E+00 0. -1.
          2   -1    0    0  501    0  0.00000000000E+00 -0.00000000000E+00 -0.17625718649E+03  0.17625718649E+03  0.00000000000E+00 0.  1.
         23    2    1    2    0    0  0.00000000000E+00  0.00000000000E+00 -0.16436143990E+03  0.18815293308E+03  0.91579710099E+02 0.  0.
        -11    1    3    3    0    0 -0.31072260145E+02 -0.33584954561E+02 -0.78461912475E+02  0.90827893472E+02  0.00000000000E+00 0.  1.
         11    1    3    3    0    0  0.31072260145E+02  0.33584954561E+02 -0.85899527426E+02  0.97325039611E+02  0.00000000000E+00 0. -1.
<mgrwt>
<rscale>  0 0.91579710E+02</rscale>
<asrwt>0</asrwt>
<pdfrwt beam="2">  1        2 0.27116492E-01 0.91579710E+02</pdfrwt>
<pdfrwt beam="1">  1       -2 0.18301147E-02 0.91579710E+02</pdfrwt>
<totfact> 0.14608995E+05</totfact>
</mgrwt>
</event>
<event>
 5    1  0.6004828E+000  0.9182480E+02  0.7546771E-02  0.1298492E+00
          1   -1    0    0  501    0  0.00000000000E+00  0.00000000000E+00  0.11602459696E+03  0.11602459696E+03  0.00000000000E+00 0. -1.
         -1   -1    0    0    0  501 -0.00000000000E+00 -0.00000000000E+00 -0.18168115341E+02  0.18168115341E+02  0.00000000000E+00 0.  1.
         23    2    1    2    0    0  0.00000000000E+00  0.00000000000E+00  0.97856481616E+02  0.13419271230E+03  0.91824795343E+02 0.  0.
        -11    1    3    3    0    0 -0.29765374825E+01 -0.32710637849E+02  0.20470848744E+01  0.32909514739E+02  0.00000000000E+00 0.  1.
         11    1    3    3    0    0  0.29765374825E+01  0.32710637849E+02  0.95809396742E+02  0.10128319756E+03  0.00000000000E+00 0. -1.
<mgrwt>
<rscale>  0 0.91824795E+02</rscale>
<asrwt>0</asrwt>
<pdfrwt beam="1">  1        1 0.17849938E-01 0.91824795E+02</pdfrwt>
<pdfrwt beam="2">  1       -1 0.27950947E-02 0.91824795E+02</pdfrwt>
<totfact> 0.10507059E+05</totfact>
</mgrwt>
</event>
<event>
 5    1  0.6004828E+000  0.9521476E+02  0.7546771E-02  0.1290693E+00
         -3   -1    0    0    0  501 -0.00000000000E+00  0.00000000000E+00  0.23120918893E+02  0.23120918893E+02  0.00000000000E+00 0.  1.
          3   -1    0    0  501    0  0.00000000000E+00 -0.00000000000E+00 -0.98026495613E+02  0.98026495613E+02  0.00000000000E+00 0. -1.
         23    2    1    2    0    0  0.00000000000E+00  0.00000000000E+00 -0.74905576719E+02  0.12114741451E+03  0.95214760504E+02 0.  0.
        -11    1    3    3    0    0  0.29243517047E+02  0.67766916418E+01  0.95618167701E+01  0.31504526323E+02  0.00000000000E+00 0.  1.
         11    1    3    3    0    0 -0.29243517047E+02 -0.67766916418E+01 -0.84467393489E+02  0.89642888183E+02  0.00000000000E+00 0. -1.
<mgrwt>
<rscale>  0 0.95214761E+02</rscale>
<asrwt>0</asrwt>
<pdfrwt beam="2">  1        3 0.15080999E-01 0.95214761E+02</pdfrwt>
<pdfrwt beam="1">  1       -3 0.35570644E-02 0.95214761E+02</pdfrwt>
<totfact> 0.29472011E+04</totfact>
</mgrwt>
</event>
<event>
 5    1  0.6004828E+000  0.9194975E+02  0.7546771E-02  0.1298198E+00
          1   -1    0    0  501    0  0.00000000000E+00  0.00000000000E+00  0.39720156002E+02  0.39720156002E+02  0.00000000000E+00 0. -1.
         -1   -1    0    0    0  501 -0.00000000000E+00 -0.00000000000E+00 -0.53214522369E+02  0.53214522369E+02  0.00000000000E+00 0.  1.
         23    2    1    2    0    0  0.00000000000E+00  0.00000000000E+00 -0.13494366367E+02  0.92934678371E+02  0.91949749974E+02 0.  0.
        -11    1    3    3    0    0 -0.22561308475E+02  0.20614100350E+02 -0.41462373087E+02  0.51508078544E+02  0.00000000000E+00 0.  1.
         11    1    3    3    0    0  0.22561308475E+02 -0.20614100350E+02  0.27968006720E+02  0.41426599827E+02  0.00000000000E+00 0. -1.
<mgrwt>
<rscale>  0 0.91949750E+02</rscale>
<asrwt>0</asrwt>
<pdfrwt beam="1">  1        1 0.61107932E-02 0.91949750E+02</pdfrwt>
<pdfrwt beam="2">  1       -1 0.81868496E-02 0.91949750E+02</pdfrwt>
<totfact> 0.88428625E+04</totfact>
</mgrwt>
</event>
<event>
 5    1  0.6004828E+000  0.9283085E+02  0.7546771E-02  0.1296138E+00
          1   -1    0    0  501    0  0.00000000000E+00  0.00000000000E+00  0.11158451395E+03  0.11158451395E+03  0.00000000000E+00 0. -1.
         -1   -1    0    0    0  501 -0.00000000000E+00 -0.00000000000E+00 -0.19307264636E+02  0.19307264636E+02  0.00000000000E+00 0.  1.
         23    2    1    2    0    0  0.00000000000E+00  0.00000000000E+00  0.92277249313E+02  0.13089177859E+03  0.92830851340E+02 0.  0.
        -11    1    3    3    0    0 -0.38267824516E+02 -0.25452691329E+02  0.36987080497E+02  0.58994152361E+02  0.00000000000E+00 0.  1.
         11    1    3    3    0    0  0.38267824516E+02  0.25452691329E+02  0.55290168815E+02  0.71897626224E+02  0.00000000000E+00 0. -1.
<mgrwt>
<rscale>  0 0.92830851E+02</rscale>
<asrwt>0</asrwt>
<pdfrwt beam="1">  1        1 0.17166848E-01 0.92830851E+02</pdfrwt>
<pdfrwt beam="2">  1       -1 0.29703485E-02 0.92830851E+02</pdfrwt>
<totfact> 0.10131526E+05</totfact>
</mgrwt>
</event>
<event>
 5    1  0.6004828E+000  0.9054253E+02  0.7546771E-02  0.1301543E+00
         -1   -1    0    0    0  501 -0.00000000000E+00  0.00000000000E+00  0.45652934977E+02  0.45652934977E+02  0.00000000000E+00 0.  1.
          1   -1    0    0  501    0  0.00000000000E+00 -0.00000000000E+00 -0.44892787571E+02  0.44892787571E+02  0.00000000000E+00 0. -1.
         23    2    1    2    0    0  0.00000000000E+00  0.00000000000E+00  0.76014740552E+00  0.90545722548E+02  0.90542531706E+02 0.  0.
        -11    1    3    3    0    0  0.40301999344E+02  0.16572238694E+02 -0.11892166523E+02  0.45169833640E+02  0.00000000000E+00 0. -1.
         11    1    3    3    0    0 -0.40301999344E+02 -0.16572238694E+02  0.12652313929E+02  0.45375888908E+02  0.00000000000E+00 0.  1.
<mgrwt>
<rscale>  0 0.90542532E+02</rscale>
<asrwt>0</asrwt>
<pdfrwt beam="2">  1        1 0.69065827E-02 0.90542532E+02</pdfrwt>
<pdfrwt beam="1">  1       -1 0.70235285E-02 0.90542532E+02</pdfrwt>
<totfact> 0.94083588E+04</totfact>
</mgrwt>
</event>
<event>
 5    1  0.6004828E+000  0.8720897E+02  0.7546771E-02  0.1309755E+00
         -1   -1    0    0    0  501 -0.00000000000E+00  0.00000000000E+00  0.61327735557E+02  0.61327735557E+02  0.00000000000E+00 0.  1.
          1   -1    0    0  501    0  0.00000000000E+00 -0.00000000000E+00 -0.31003119217E+02  0.31003119217E+02  0.00000000000E+00 0. -1.
         23    2    1    2    0    0  0.00000000000E+00  0.00000000000E+00  0.30324616339E+02  0.92330854774E+02  0.87208969649E+02 0.  0.
        -11    1    3    3    0    0  0.97523562286E+01 -0.40180994990E+02  0.50240636760E+00  0.41350613327E+02  0.00000000000E+00 0. -1.
         11    1    3    3    0    0 -0.97523562286E+01  0.40180994990E+02  0.29822209972E+02  0.50980241447E+02  0.00000000000E+00 0.  1.
<mgrwt>
<rscale>  0 0.87208970E+02</rscale>
<asrwt>0</asrwt>
<pdfrwt beam="2">  1        1 0.47697107E-02 0.87208970E+02</pdfrwt>
<pdfrwt beam="1">  1       -1 0.94350362E-02 0.87208970E+02</pdfrwt>
<totfact> 0.98928985E+04</totfact>
</mgrwt>
</event>
<event>
 5    1  0.6004828E+000  0.9248684E+02  0.7546771E-02  0.1296939E+00
          3   -1    0    0  501    0  0.00000000000E+00  0.00000000000E+00  0.10988745030E+03  0.10988745030E+03  0.00000000000E+00 0. -1.
         -3   -1    0    0    0  501 -0.00000000000E+00 -0.00000000000E+00 -0.19460402156E+02  0.19460402156E+02  0.00000000000E+00 0.  1.
         23    2    1    2    0    0  0.00000000000E+00  0.00000000000E+00  0.90427048147E+02  0.12934785246E+03  0.92486841761E+02 0.  0.
        -11    1    3    3    0    0 -0.13256184628E+02 -0.14370940368E+02 -0.13395799187E+02  0.23700164426E+02  0.00000000000E+00 0.  1.
         11    1    3    3    0    0  0.13256184628E+02  0.14370940368E+02  0.10382284733E+03  0.10564768803E+03  0.00000000000E+00 0. -1.
<mgrwt>
<rscale>  0 0.92486842E+02</rscale>
<asrwt>0</asrwt>
<pdfrwt beam="1">  1        3 0.16905761E-01 0.92486842E+02</pdfrwt>
<pdfrwt beam="2">  1       -3 0.29939081E-02 0.92486842E+02</pdfrwt>
<totfact> 0.31377402E+04</totfact>
</mgrwt>
</event>
<event>
 5    1  0.6004828E+000  0.9719986E+02  0.7546771E-02  0.1286297E+00
          1   -1    0    0  501    0  0.00000000000E+00  0.00000000000E+00  0.16903429429E+02  0.16903429429E+02  0.00000000000E+00 0. -1.
         -1   -1    0    0    0  501 -0.00000000000E+00 -0.00000000000E+00 -0.13973219389E+03  0.13973219389E+03  0.00000000000E+00 0.  1.
         23    2    1    2    0    0  0.00000000000E+00  0.00000000000E+00 -0.12282876446E+03  0.15663562332E+03  0.97199861694E+02 0.  0.
        -11    1    3    3    0    0 -0.24883683900E+02 -0.30537509961E+02 -0.10728402003E+03  0.11428734923E+03  0.00000000000E+00 0.  1.
         11    1    3    3    0    0  0.24883683900E+02  0.30537509961E+02 -0.15544744426E+02  0.42348274089E+02  0.00000000000E+00 0. -1.
<mgrwt>
<rscale>  0 0.97199862E+02</rscale>
<asrwt>0</asrwt>
<pdfrwt beam="1">  1        1 0.26005278E-02 0.97199862E+02</pdfrwt>
<pdfrwt beam="2">  1       -1 0.21497259E-01 0.97199862E+02</pdfrwt>
<totfact> 0.64373711E+04</totfact>
</mgrwt>
</event>
<event>
 5    1  0.6004828E+000  0.9105498E+02  0.7546771E-02  0.1300317E+00
         -1   -1    0    0    0  501 -0.00000000000E+00  0.00000000000E+00  0.12582166267E+03  0.12582166267E+03  0.00000000000E+00 0.  1.
          1   -1    0    0  501    0  0.00000000000E+00 -0.00000000000E+00 -0.16473732153E+02  0.16473732153E+02  0.00000000000E+00 0. -1.
         23    2    1    2    0    0  0.00000000000E+00  0.00000000000E+00  0.10934793052E+03  0.14229539482E+03  0.91054980530E+02 0.  0.
        -11    1    3    3    0    0 -0.71048166219E+01  0.36558159260E+02  0.95597952938E+02  0.10259603323E+03  0.00000000000E+00 0.  1.
         11    1    3    3    0    0  0.71048166219E+01 -0.36558159260E+02  0.13749977578E+02  0.39699361596E+02  0.00000000000E+00 0. -1.
<mgrwt>
<rscale>  0 0.91054981E+02</rscale>
<asrwt>0</asrwt>
<pdfrwt beam="2">  1        1 0.25344204E-02 0.91054981E+02</pdfrwt>
<pdfrwt beam="1">  1       -1 0.19357178E-01 0.91054981E+02</pdfrwt>
<totfact> 0.78032404E+04</totfact>
</mgrwt>
</event>
<event>
 5    1  0.6004828E+000  0.9066021E+02  0.7546771E-02  0.1301261E+00
          1   -1    0    0  501    0  0.00000000000E+00  0.00000000000E+00  0.71461987648E+02  0.71461987648E+02  0.00000000000E+00 0. -1.
         -1   -1    0    0    0  501 -0.00000000000E+00 -0.00000000000E+00 -0.28754009070E+02  0.28754009070E+02  0.00000000000E+00 0.  1.
         23    2    1    2    0    0  0.00000000000E+00  0.00000000000E+00  0.42707978578E+02  0.10021599672E+03  0.90660214889E+02 0.  0.
        -11    1    3    3    0    0  0.56816190193E+01  0.32107046727E+02  0.56164073617E+02  0.64942639379E+02  0.00000000000E+00 0. -1.
         11    1    3    3    0    0 -0.56816190193E+01 -0.32107046727E+02 -0.13456095039E+02  0.35273357338E+02  0.00000000000E+00 0.  1.
<mgrwt>
<rscale>  0 0.90660215E+02</rscale>
<asrwt>0</asrwt>
<pdfrwt beam="1">  1        1 0.10994152E-01 0.90660215E+02</pdfrwt>
<pdfrwt beam="2">  1       -1 0.44236937E-02 0.90660215E+02</pdfrwt>
<totfact> 0.10054366E+05</totfact>
</mgrwt>
</event>
<event>
 5    1  0.6004828E+000  0.8982868E+02  0.7546771E-02  0.1303267E+00
         -1   -1    0    0    0  501 -0.00000000000E+00  0.00000000000E+00  0.12401222847E+02  0.12401222847E+02  0.00000000000E+00 0.  1.
          1   -1    0    0  501    0  0.00000000000E+00 -0.00000000000E+00 -0.16266929250E+03  0.16266929250E+03  0.00000000000E+00 0. -1.
         23    2    1    2    0    0  0.00000000000E+00  0.00000000000E+00 -0.15026806966E+03  0.17507051535E+03  0.89828684655E+02 0.  0.
        -11    1    3    3    0    0  0.41426393962E+02  0.27780588839E+01 -0.41748872164E+02  0.58879810248E+02  0.00000000000E+00 0.  1.
         11    1    3    3    0    0 -0.41426393962E+02 -0.27780588839E+01 -0.10851919749E+03  0.11619070510E+03  0.00000000000E+00 0. -1.
<mgrwt>
<rscale>  0 0.89828685E+02</rscale>
<asrwt>0</asrwt>
<pdfrwt beam="2">  1        1 0.25026044E-01 0.89828685E+02</pdfrwt>
<pdfrwt beam="1">  1       -1 0.19078805E-02 0.89828685E+02</pdfrwt>
<totfact> 0.11848224E+05</totfact>
</mgrwt>
</event>
<event>
 5    1  0.6004828E+000  0.9156095E+02  0.7546771E-02  0.1299115E+00
         -2   -1    0    0    0  501 -0.00000000000E+00  0.00000000000E+00  0.61462955169E+01  0.61462955169E+01  0.00000000000E+00 0.  1.
          2   -1    0    0  501    0  0.00000000000E+00 -0.00000000000E+00 -0.34099433657E+03  0.34099433657E+03  0.00000000000E+00 0. -1.
         23    2    1    2    0    0  0.00000000000E+00  0.00000000000E+00 -0.33484804105E+03  0.34714063209E+03  0.91560951549E+02 0.  0.
        -11    1    3    3    0    0  0.29374655385E+02  0.28536258413E+02 -0.89847959799E+02  0.98741299887E+02  0.00000000000E+00 0.  1.
         11    1    3    3    0    0 -0.29374655385E+02 -0.28536258413E+02 -0.24500008125E+03  0.24839933220E+03  0.00000000000E+00 0. -1.
<mgrwt>
<rscale>  0 0.91560952E+02</rscale>
<asrwt>0</asrwt>
<pdfrwt beam="2">  1        2 0.52460669E-01 0.91560952E+02</pdfrwt>
<pdfrwt beam="1">  1       -2 0.94558389E-03 0.91560952E+02</pdfrwt>
<totfact> 0.18628917E+05</totfact>
</mgrwt>
</event>
<event>
 5    1  0.6004828E+000  0.9266088E+02  0.7546771E-02  0.1296533E+00
         -1   -1    0    0    0  501 -0.00000000000E+00  0.00000000000E+00  0.12907163701E+02  0.12907163701E+02  0.00000000000E+00 0.  1.
          1   -1    0    0  501    0  0.00000000000E+00 -0.00000000000E+00 -0.16630374209E+03  0.16630374209E+03  0.00000000000E+00 0. -1.
         23    2    1    2    0    0  0.00000000000E+00  0.00000000000E+00 -0.15339657839E+03  0.17921090579E+03  0.92660878978E+02 0.  0.
        -11    1    3    3    0    0  0.44205988283E+02  0.11584943253E+02 -0.91443996675E+02  0.10222712379E+03  0.00000000000E+00 0. -1.
         11    1    3    3    0    0 -0.44205988283E+02 -0.11584943253E+02 -0.61952581715E+02  0.76983782003E+02  0.00000000000E+00 0.  1.
<mgrwt>
<rscale>  0 0.92660879E+02</rscale>
<asrwt>0</asrwt>
<pdfrwt beam="2">  1        1 0.25585190E-01 0.92660879E+02</pdfrwt>
<pdfrwt beam="1">  1       -1 0.19857176E-02 0.92660879E+02</pdfrwt>
<totfact> 0.10943354E+05</totfact>
</mgrwt>
</event>
<event>
 5    1  0.6004828E+000  0.9112347E+02  0.7546771E-02  0.1300154E+00
         -2   -1    0    0    0  501 -0.00000000000E+00  0.00000000000E+00  0.17397441305E+02  0.17397441305E+02  0.00000000000E+00 0.  1.
          2   -1    0    0  501    0  0.00000000000E+00 -0.00000000000E+00 -0.11932051460E+03  0.11932051460E+03  0.00000000000E+00 0. -1.
         23    2    1    2    0    0  0.00000000000E+00  0.00000000000E+00 -0.10192307330E+03  0.13671795591E+03  0.91123468969E+02 0.  0.
        -11    1    3    3    0    0 -0.73051241644E+00 -0.31239508383E+02 -0.10070996033E+03  0.10544636855E+03  0.00000000000E+00 0. -1.
         11    1    3    3    0    0  0.73051241644E+00  0.31239508383E+02 -0.12131129705E+01  0.31271587352E+02  0.00000000000E+00 0.  1.
<mgrwt>
<rscale>  0 0.91123469E+02</rscale>
<asrwt>0</asrwt>
<pdfrwt beam="2">  1        2 0.18357002E-01 0.91123469E+02</pdfrwt>
<pdfrwt beam="1">  1       -2 0.26765295E-02 0.91123469E+02</pdfrwt>
<totfact> 0.12983629E+05</totfact>
</mgrwt>
</event>
<event>
 5    1  0.6004828E+000  0.8648473E+02  0.7546771E-02  0.1311595E+00
          1   -1    0    0  501    0  0.00000000000E+00  0.00000000000E+00  0.14575471643E+02  0.14575471643E+02  0.00000000000E+00 0.  1.
         -1   -1    0    0    0  501 -0.00000000000E+00 -0.00000000000E+00 -0.12829102832E+03  0.12829102832E+03  0.00000000000E+00 0. -1.
         23    2    1    2    0    0  0.00000000000E+00  0.00000000000E+00 -0.11371555667E+03  0.14286649996E+03  0.86484732648E+02 0.  0.
        -11    1    3    3    0    0  0.30262954103E+02 -0.19441851095E+02 -0.96506454685E+02  0.10299188201E+03  0.00000000000E+00 0. -1.
         11    1    3    3    0    0 -0.30262954103E+02  0.19441851095E+02 -0.17209101989E+02  0.39874617945E+02  0.00000000000E+00 0.  1.
<mgrwt>
<rscale>  0 0.86484733E+02</rscale>
<asrwt>0</asrwt>
<pdfrwt beam="1">  1        1 0.22423803E-02 0.86484733E+02</pdfrwt>
<pdfrwt beam="2">  1       -1 0.19737081E-01 0.86484733E+02</pdfrwt>
<totfact> 0.88769016E+04</totfact>
</mgrwt>
</event>
<event>
 5    1  0.6004828E+000  0.8991468E+02  0.7546771E-02  0.1303058E+00
          2   -1    0    0  501    0  0.00000000000E+00  0.00000000000E+00  0.54372087034E+02  0.54372087034E+02  0.00000000000E+00 0. -1.
         -2   -1    0    0    0  501 -0.00000000000E+00 -0.00000000000E+00 -0.37172793203E+02  0.37172793203E+02  0.00000000000E+00 0.  1.
         23    2    1    2    0    0  0.00000000000E+00  0.00000000000E+00  0.17199293831E+02  0.91544880237E+02  0.89914678386E+02 0.  0.
        -11    1    3    3    0    0  0.34687447373E+02  0.24843552333E+02  0.23024844723E+02  0.48482621343E+02  0.00000000000E+00 0. -1.
         11    1    3    3    0    0 -0.34687447373E+02 -0.24843552333E+02 -0.58255508916E+01  0.43062258893E+02  0.00000000000E+00 0.  1.
<mgrwt>
<rscale>  0 0.89914678E+02</rscale>
<asrwt>0</asrwt>
<pdfrwt beam="1">  1        2 0.83649365E-02 0.89914678E+02</pdfrwt>
<pdfrwt beam="2">  1       -2 0.57188913E-02 0.89914678E+02</pdfrwt>
<totfact> 0.10748591E+05</totfact>
</mgrwt>
</event>
<event>
 5    1  0.6004828E+000  0.9208701E+02  0.7546771E-02  0.1297875E+00
         -2   -1    0    0    0  501 -0.00000000000E+00  0.00000000000E+00  0.10127362018E+03  0.10127362018E+03  0.00000000000E+00 0.  1.
          2   -1    0    0  501    0  0.00000000000E+00 -0.00000000000E+00 -0.20933433019E+02  0.20933433019E+02  0.00000000000E+00 0. -1.
         23    2    1    2    0    0  0.00000000000E+00  0.00000000000E+00  0.80340187156E+02  0.12220705319E+03  0.92087014167E+02 0.  0.
        -11    1    3    3    0    0  0.32125901124E+02 -0.15528174396E+02  0.15520690288E+01  0.35715635811E+02  0.00000000000E+00 0. -1.
         11    1    3    3    0    0 -0.32125901124E+02  0.15528174396E+02  0.78788118127E+02  0.86491417384E+02  0.00000000000E+00 0.  1.
<mgrwt>
<rscale>  0 0.92087014E+02</rscale>
<asrwt>0</asrwt>
<pdfrwt beam="2">  1        2 0.32205282E-02 0.92087014E+02</pdfrwt>
<pdfrwt beam="1">  1       -2 0.15580557E-01 0.92087014E+02</pdfrwt>
<totfact> 0.77560648E+04</totfact>
</mgrwt>
</event>
<event>
 5    1  0.6004828E+000  0.1009402E+03  0.7546771E-02  0.1278331E+00
         -2   -1    0    0    0  501 -0.00000000000E+00  0.00000000000E+00  0.77565913770E+02  0.77565913770E+02  0.00000000000E+00 0.  1.
          2   -1    0    0  501    0  0.00000000000E+00 -0.00000000000E+00 -0.32839570605E+02  0.32839570605E+02  0.00000000000E+00 0. -1.
         23    2    1    2    0    0  0.00000000000E+00  0.00000000000E+00  0.44726343164E+02  0.11040548437E+03  0.10094020610E+03 0.  0.
        -11    1    3    3    0    0 -0.44669283813E+02  0.73872678489E+01 -0.20285295918E+01  0.45321425120E+02  0.00000000000E+00 0. -1.
         11    1    3    3    0    0  0.44669283813E+02 -0.73872678489E+01  0.46754872756E+02  0.65084059255E+02  0.00000000000E+00 0.  1.
<mgrwt>
<rscale>  0 0.10094021E+03</rscale>
<asrwt>0</asrwt>
<pdfrwt beam="2">  1        2 0.50522417E-02 0.10094021E+03</pdfrwt>
<pdfrwt beam="1">  1       -2 0.11933217E-01 0.10094021E+03</pdfrwt>
<totfact> 0.66895233E+04</totfact>
</mgrwt>
</event>
<event>
 5    1  0.6004828E+000  0.8818524E+02  0.7546771E-02  0.1307307E+00
          2   -1    0    0  501    0  0.00000000000E+00  0.00000000000E+00  0.11914100898E+03  0.11914100898E+03  0.00000000000E+00 0.  1.
         -2   -1    0    0    0  501 -0.00000000000E+00 -0.00000000000E+00 -0.16318136690E+02  0.16318136690E+02  0.00000000000E+00 0. -1.
         23    2    1    2    0    0  0.00000000000E+00  0.00000000000E+00  0.10282287229E+03  0.13545914567E+03  0.88185242983E+02 0.  0.
        -11    1    3    3    0    0  0.26847688635E+02  0.34902117280E+02  0.47907604234E+02  0.65069921770E+02  0.00000000000E+00 0. -1.
         11    1    3    3    0    0 -0.26847688635E+02 -0.34902117280E+02  0.54915268057E+02  0.70389223902E+02  0.00000000000E+00 0.  1.
<mgrwt>
<rscale>  0 0.88185243E+02</rscale>
<asrwt>0</asrwt>
<pdfrwt beam="1">  1        2 0.18329385E-01 0.88185243E+02</pdfrwt>
<pdfrwt beam="2">  1       -2 0.25104826E-02 0.88185243E+02</pdfrwt>
<totfact> 0.14190282E+05</totfact>
</mgrwt>
</event>
<event>
 5    1  0.6004828E+000  0.9027172E+02  0.7546771E-02  0.1302195E+00
         -3   -1    0    0    0  501 -0.00000000000E+00  0.00000000000E+00  0.40642242402E+02  0.40642242402E+02  0.00000000000E+00 0.  1.
          3   -1    0    0  501    0  0.00000000000E+00 -0.00000000000E+00 -0.50126311196E+02  0.50126311196E+02  0.00000000000E+00 0. -1.
         23    2    1    2    0    0  0.00000000000E+00  0.00000000000E+00 -0.94840687941E+01  0.90768553599E+02  0.90271716288E+02 0.  0.
        -11    1    3    3    0    0  0.36889423230E+02 -0.14558202968E+02  0.16928260760E+02  0.43120028203E+02  0.00000000000E+00 0.  1.
         11    1    3    3    0    0 -0.36889423230E+02  0.14558202968E+02 -0.26412329554E+02  0.47648525396E+02  0.00000000000E+00 0. -1.
<mgrwt>
<rscale>  0 0.90271716E+02</rscale>
<asrwt>0</asrwt>
<pdfrwt beam="2">  1        3 0.77117401E-02 0.90271716E+02</pdfrwt>
<pdfrwt beam="1">  1       -3 0.62526527E-02 0.90271716E+02</pdfrwt>
<totfact> 0.36343241E+04</totfact>
</mgrwt>
</event>
<event>
 5    1  0.6004828E+000  0.8896663E+02  0.7546771E-02  0.1305374E+00
         -2   -1    0    0    0  501 -0.00000000000E+00  0.00000000000E+00  0.11684928686E+02  0.11684928686E+02  0.00000000000E+00 0. -1.
          2   -1    0    0  501    0  0.00000000000E+00 -0.00000000000E+00 -0.16934339634E+03  0.16934339634E+03  0.00000000000E+00 0.  1.
         23    2    1    2    0    0  0.00000000000E+00  0.00000000000E+00 -0.15765846765E+03  0.18102832502E+03  0.88966634412E+02 0.  0.
        -11    1    3    3    0    0  0.87263214941E+01 -0.42991153045E+02 -0.93834003045E+02  0.10358189057E+03  0.00000000000E+00 0. -1.
         11    1    3    3    0    0 -0.87263214941E+01  0.42991153045E+02 -0.63824464605E+02  0.77446434450E+02  0.00000000000E+00 0.  1.
<mgrwt>
<rscale>  0 0.88966634E+02</rscale>
<asrwt>0</asrwt>
<pdfrwt beam="2">  1        2 0.26052831E-01 0.88966634E+02</pdfrwt>
<pdfrwt beam="1">  1       -2 0.17976813E-02 0.88966634E+02</pdfrwt>
<totfact> 0.15576056E+05</totfact>
</mgrwt>
</event>
<event>
 5    1  0.6004828E+000  0.8315496E+02  0.7546771E-02  0.1320329E+00
         -2   -1    0    0    0  501 -0.00000000000E+00  0.00000000000E+00  0.72614088194E+01  0.72614088194E+01  0.00000000000E+00 0. -1.
          2   -1    0    0  501    0  0.00000000000E+00 -0.00000000000E+00 -0.23806491883E+03  0.23806491883E+03  0.00000000000E+00 0.  1.
         23    2    1    2    0    0  0.00000000000E+00  0.00000000000E+00 -0.23080351001E+03  0.24532632764E+03  0.83154956585E+02 0.  0.
        -11    1    3    3    0    0 -0.53270746341E+00  0.41467303973E+02 -0.12418612659E+03  0.13092751855E+03  0.00000000000E+00 0.  1.
         11    1    3    3    0    0  0.53270746341E+00 -0.41467303973E+02 -0.10661738341E+03  0.11439880909E+03  0.00000000000E+00 0. -1.
<mgrwt>
<rscale>  0 0.83154957E+02</rscale>
<asrwt>0</asrwt>
<pdfrwt beam="2">  1        2 0.36625371E-01 0.83154957E+02</pdfrwt>
<pdfrwt beam="1">  1       -2 0.11171399E-02 0.83154957E+02</pdfrwt>
<totfact> 0.21072130E+05</totfact>
</mgrwt>
</event>
<event>
 5    1  0.6004828E+000  0.9166052E+02  0.7546771E-02  0.1298880E+00
         -1   -1    0    0    0  501 -0.00000000000E+00  0.00000000000E+00  0.37867413223E+02  0.37867413223E+02  0.00000000000E+00 0.  1.
          1   -1    0    0  501    0  0.00000000000E+00 -0.00000000000E+00 -0.55467551375E+02  0.55467551375E+02  0.00000000000E+00 0. -1.
         23    2    1    2    0    0  0.00000000000E+00  0.00000000000E+00 -0.17600138153E+02  0.93334964598E+02  0.91660519055E+02 0.  0.
        -11    1    3    3    0    0  0.40960543599E+01  0.30750472579E+02 -0.43151234761E+02  0.53145068318E+02  0.00000000000E+00 0. -1.
         11    1    3    3    0    0 -0.40960543599E+01 -0.30750472579E+02  0.25551096608E+02  0.40189896280E+02  0.00000000000E+00 0.  1.
<mgrwt>
<rscale>  0 0.91660519E+02</rscale>
<asrwt>0</asrwt>
<pdfrwt beam="2">  1        1 0.85334694E-02 0.91660519E+02</pdfrwt>
<pdfrwt beam="1">  1       -1 0.58257559E-02 0.91660519E+02</pdfrwt>
<totfact> 0.93842568E+04</totfact>
</mgrwt>
</event>
<event>
 5    1  0.6004828E+000  0.1072085E+03  0.7546771E-02  0.1265828E+00
          4   -1    0    0  501    0  0.00000000000E+00  0.00000000000E+00  0.83309729316E+02  0.83309729316E+02  0.00000000000E+00 0. -1.
         -4   -1    0    0    0  501 -0.00000000000E+00 -0.00000000000E+00 -0.34490756271E+02  0.34490756271E+02  0.00000000000E+00 0.  1.
         23    2    1    2    0    0  0.00000000000E+00  0.00000000000E+00  0.48818973045E+02  0.11780048559E+03  0.10720849908E+03 0.  0.
        -11    1    3    3    0    0 -0.44211981742E+02 -0.14495638525E+02 -0.48398623503E+01  0.46778703845E+02  0.00000000000E+00 0.  1.
         11    1    3    3    0    0  0.44211981742E+02  0.14495638525E+02  0.53658835395E+02  0.71021781742E+02  0.00000000000E+00 0. -1.
<mgrwt>
<rscale>  0 0.10720850E+03</rscale>
<asrwt>0</asrwt>
<pdfrwt beam="1">  1        4 0.12816881E-01 0.10720850E+03</pdfrwt>
<pdfrwt beam="2">  1       -4 0.53062702E-02 0.10720850E+03</pdfrwt>
<totfact> 0.16307885E+04</totfact>
</mgrwt>
</event>
<event>
 5    1  0.6004828E+000  0.9502505E+02  0.7546771E-02  0.1291120E+00
          2   -1    0    0  501    0  0.00000000000E+00  0.00000000000E+00  0.48379233537E+02  0.48379233537E+02  0.00000000000E+00 0. -1.
         -2   -1    0    0    0  501 -0.00000000000E+00 -0.00000000000E+00 -0.46661344123E+02  0.46661344123E+02  0.00000000000E+00 0.  1.
         23    2    1    2    0    0  0.00000000000E+00  0.00000000000E+00  0.17178894141E+01  0.95040577660E+02  0.95025050686E+02 0.  0.
        -11    1    3    3    0    0 -0.47531642370E+01 -0.38493842289E+02 -0.26587689368E+02  0.47024181974E+02  0.00000000000E+00 0.  1.
         11    1    3    3    0    0  0.47531642370E+01  0.38493842289E+02  0.28305578782E+02  0.48016395685E+02  0.00000000000E+00 0. -1.
<mgrwt>
<rscale>  0 0.95025051E+02</rscale>
<asrwt>0</asrwt>
<pdfrwt beam="1">  1        2 0.74429590E-02 0.95025051E+02</pdfrwt>
<pdfrwt beam="2">  1       -2 0.71786683E-02 0.95025051E+02</pdfrwt>
<totfact> 0.88989973E+04</totfact>
</mgrwt>
</event>
<event>
 5    1  0.6004828E+000  0.9717580E+02  0.7546771E-02  0.1286349E+00
          2   -1    0    0  501    0  0.00000000000E+00  0.00000000000E+00  0.11934138957E+03  0.11934138957E+03  0.00000000000E+00 0. -1.
         -2   -1    0    0    0  501 -0.00000000000E+00 -0.00000000000E+00 -0.19781769531E+02  0.19781769531E+02  0.00000000000E+00 0.  1.
         23    2    1    2    0    0  0.00000000000E+00  0.00000000000E+00  0.99559620042E+02  0.13912315910E+03  0.97175796659E+02 0.  0.
        -11    1    3    3    0    0 -0.44821268708E+02 -0.12922454447E+02  0.30315070819E+02  0.55632180222E+02  0.00000000000E+00 0.  1.
         11    1    3    3    0    0  0.44821268708E+02  0.12922454447E+02  0.69244549224E+02  0.83490978882E+02  0.00000000000E+00 0. -1.
<mgrwt>
<rscale>  0 0.97175797E+02</rscale>
<asrwt>0</asrwt>
<pdfrwt beam="1">  1        2 0.18360213E-01 0.97175797E+02</pdfrwt>
<pdfrwt beam="2">  1       -2 0.30433492E-02 0.97175797E+02</pdfrwt>
<totfact> 0.10880636E+05</totfact>
</mgrwt>
</event>
<event>
 5    1  0.6004828E+000  0.9725853E+02  0.7546771E-02  0.1286169E+00
          2   -1    0    0  501    0  0.00000000000E+00  0.00000000000E+00  0.48065250055E+02  0.48065250055E+02  0.00000000000E+00 0. -1.
         -2   -1    0    0    0  501 -0.00000000000E+00 -0.00000000000E+00 -0.49199902979E+02  0.49199902979E+02  0.00000000000E+00 0.  1.
         23    2    1    2    0    0  0.00000000000E+00  0.00000000000E+00 -0.11346529241E+01  0.97265153033E+02  0.97258534625E+02 0.  0.
        -11    1    3    3    0    0 -0.27344990520E+02 -0.38174654173E+02  0.12072873481E+02  0.48485121448E+02  0.00000000000E+00 0. -1.
         11    1    3    3    0    0  0.27344990520E+02  0.38174654173E+02 -0.13207526405E+02  0.48780031585E+02  0.00000000000E+00 0.  1.
<mgrwt>
<rscale>  0 0.97258535E+02</rscale>
<asrwt>0</asrwt>
<pdfrwt beam="1">  1        2 0.73946538E-02 0.97258535E+02</pdfrwt>
<pdfrwt beam="2">  1       -2 0.75692159E-02 0.97258535E+02</pdfrwt>
<totfact> 0.83061234E+04</totfact>
</mgrwt>
</event>
<event>
 5    1  0.6004828E+000  0.8299201E+02  0.7546771E-02  0.1320769E+00
          2   -1    0    0  501    0  0.00000000000E+00  0.00000000000E+00  0.13729138276E+02  0.13729138276E+02  0.00000000000E+00 0. -1.
         -2   -1    0    0    0  501 -0.00000000000E+00 -0.00000000000E+00 -0.12542072660E+03  0.12542072660E+03  0.00000000000E+00 0.  1.
         23    2    1    2    0    0  0.00000000000E+00  0.00000000000E+00 -0.11169158832E+03  0.13914986488E+03  0.82992011621E+02 0.  0.
        -11    1    3    3    0    0  0.60212580653E+01 -0.23588959921E+02  0.49676013701E+00  0.24350387050E+02  0.00000000000E+00 0. -1.
         11    1    3    3    0    0 -0.60212580653E+01  0.23588959921E+02 -0.11218834846E+03  0.11479947783E+03  0.00000000000E+00 0.  1.
<mgrwt>
<rscale>  0 0.82992012E+02</rscale>
<asrwt>0</asrwt>
<pdfrwt beam="1">  1        2 0.21121751E-02 0.82992012E+02</pdfrwt>
<pdfrwt beam="2">  1       -2 0.19295497E-01 0.82992012E+02</pdfrwt>
<totfact> 0.94147026E+04</totfact>
</mgrwt>
</event>
<event>
 5    1  0.6004828E+000  0.9042143E+02  0.7546771E-02  0.1301834E+00
          2   -1    0    0  501    0  0.00000000000E+00  0.00000000000E+00  0.35376637246E+03  0.35376637246E+03  0.00000000000E+00 0. -1.
         -2   -1    0    0    0  501 -0.00000000000E+00 -0.00000000000E+00 -0.57778496114E+01  0.57778496114E+01  0.00000000000E+00 0.  1.
         23    2    1    2    0    0  0.00000000000E+00  0.00000000000E+00  0.34798852285E+03  0.35954422208E+03  0.90421433248E+02 0.  0.
        -11    1    3    3    0    0 -0.15511312971E+02  0.41882879806E+02  0.14609410505E+03  0.15276866165E+03  0.00000000000E+00 0. -1.
         11    1    3    3    0    0  0.15511312971E+02 -0.41882879806E+02  0.20189441780E+03  0.20677556042E+03  0.00000000000E+00 0.  1.
<mgrwt>
<rscale>  0 0.90421433E+02</rscale>
<asrwt>0</asrwt>
<pdfrwt beam="1">  1        2 0.54425579E-01 0.90421433E+02</pdfrwt>
<pdfrwt beam="2">  1       -2 0.88890021E-03 0.90421433E+02</pdfrwt>
<totfact> 0.19521191E+05</totfact>
</mgrwt>
</event>
<event>
 5    1  0.6004828E+000  0.9076617E+02  0.7546771E-02  0.1301007E+00
         -1   -1    0    0    0  501 -0.00000000000E+00  0.00000000000E+00  0.79318808212E+01  0.79318808212E+01  0.00000000000E+00 0.  1.
          1   -1    0    0  501    0  0.00000000000E+00 -0.00000000000E+00 -0.25966405577E+03  0.25966405577E+03  0.00000000000E+00 0. -1.
         23    2    1    2    0    0  0.00000000000E+00  0.00000000000E+00 -0.25173217494E+03  0.26759593659E+03  0.90766168673E+02 0.  0.
        -11    1    3    3    0    0  0.99513213071E+01 -0.44225409522E+02 -0.13226352501E+03  0.13981614961E+03  0.00000000000E+00 0.  1.
         11    1    3    3    0    0 -0.99513213071E+01  0.44225409522E+02 -0.11946864993E+03  0.12777978697E+03  0.00000000000E+00 0. -1.
<mgrwt>
<rscale>  0 0.90766169E+02</rscale>
<asrwt>0</asrwt>
<pdfrwt beam="2">  1        1 0.39948317E-01 0.90766169E+02</pdfrwt>
<pdfrwt beam="1">  1       -1 0.12202893E-02 0.90766169E+02</pdfrwt>
<totfact> 0.12609825E+05</totfact>
</mgrwt>
</event>
<event>
 5    1  0.6004828E+000  0.9103404E+02  0.7546771E-02  0.1300367E+00
          4   -1    0    0  501    0  0.00000000000E+00  0.00000000000E+00  0.21380437681E+03  0.21380437681E+03  0.00000000000E+00 0. -1.
         -4   -1    0    0    0  501 -0.00000000000E+00 -0.00000000000E+00 -0.96901626052E+01  0.96901626052E+01  0.00000000000E+00 0.  1.
         23    2    1    2    0    0  0.00000000000E+00  0.00000000000E+00  0.20411421420E+03  0.22349453942E+03  0.91034041479E+02 0.  0.
        -11    1    3    3    0    0 -0.40687716803E+02 -0.19095424136E+02  0.84409018107E+02  0.95629534452E+02  0.00000000000E+00 0.  1.
         11    1    3    3    0    0  0.40687716803E+02  0.19095424136E+02  0.11970519610E+03  0.12786500496E+03  0.00000000000E+00 0. -1.
<mgrwt>
<rscale>  0 0.91034041E+02</rscale>
<asrwt>0</asrwt>
<pdfrwt beam="1">  1        4 0.32892977E-01 0.91034041E+02</pdfrwt>
<pdfrwt beam="2">  1       -4 0.14907944E-02 0.91034041E+02</pdfrwt>
<totfact> 0.20529228E+04</totfact>
</mgrwt>
</event>
<event>
 5    1  0.6004828E+000  0.9070259E+02  0.7546771E-02  0.1301159E+00
          3   -1    0    0  501    0  0.00000000000E+00  0.00000000000E+00  0.97298066927E+02  0.97298066927E+02  0.00000000000E+00 0. -1.
         -3   -1    0    0    0  501 -0.00000000000E+00 -0.00000000000E+00 -0.21138547066E+02  0.21138547066E+02  0.00000000000E+00 0.  1.
         23    2    1    2    0    0  0.00000000000E+00  0.00000000000E+00  0.76159519860E+02  0.11843661399E+03  0.90702585789E+02 0.  0.
        -11    1    3    3    0    0  0.37542026499E+02 -0.21171856748E+02  0.19655527801E+02  0.47370782608E+02  0.00000000000E+00 0.  1.
         11    1    3    3    0    0 -0.37542026499E+02  0.21171856748E+02  0.56503992059E+02  0.71065831384E+02  0.00000000000E+00 0. -1.
<mgrwt>
<rscale>  0 0.90702586E+02</rscale>
<asrwt>0</asrwt>
<pdfrwt beam="1">  1        3 0.14968933E-01 0.90702586E+02</pdfrwt>
<pdfrwt beam="2">  1       -3 0.32520842E-02 0.90702586E+02</pdfrwt>
<totfact> 0.33828873E+04</totfact>
</mgrwt>
</event>
<event>
 5    1  0.6004828E+000  0.9197114E+02  0.7546771E-02  0.1298147E+00
         -2   -1    0    0    0  501 -0.00000000000E+00  0.00000000000E+00  0.16742930387E+02  0.16742930387E+02  0.00000000000E+00 0.  1.
          2   -1    0    0  501    0  0.00000000000E+00 -0.00000000000E+00 -0.12630243176E+03  0.12630243176E+03  0.00000000000E+00 0. -1.
         23    2    1    2    0    0  0.00000000000E+00  0.00000000000E+00 -0.10955950137E+03  0.14304536215E+03  0.91971143795E+02 0.  0.
        -11    1    3    3    0    0  0.34883065715E+02  0.29011310377E+02 -0.66438329190E+02  0.80452072621E+02  0.00000000000E+00 0.  1.
         11    1    3    3    0    0 -0.34883065715E+02 -0.29011310377E+02 -0.43121172185E+02  0.62593289529E+02  0.00000000000E+00 0. -1.
<mgrwt>
<rscale>  0 0.91971144E+02</rscale>
<asrwt>0</asrwt>
<pdfrwt beam="2">  1        2 0.19431144E-01 0.91971144E+02</pdfrwt>
<pdfrwt beam="1">  1       -2 0.25758354E-02 0.91971144E+02</pdfrwt>
<totfact> 0.12893628E+05</totfact>
</mgrwt>
</event>
<event>
 5    1  0.6004828E+000  0.9020000E+02  0.7546771E-02  0.1302368E+00
          1   -1    0    0  501    0  0.00000000000E+00  0.00000000000E+00  0.25546370624E+03  0.25546370624E+03  0.00000000000E+00 0. -1.
         -1   -1    0    0    0  501 -0.00000000000E+00 -0.00000000000E+00 -0.79620307649E+01  0.79620307649E+01  0.00000000000E+00 0.  1.
         23    2    1    2    0    0  0.00000000000E+00  0.00000000000E+00  0.24750167547E+03  0.26342573700E+03  0.90199997525E+02 0.  0.
        -11    1    3    3    0    0  0.12583739669E+02  0.38645197758E+02  0.66655373694E+02  0.78068820000E+02  0.00000000000E+00 0.  1.
         11    1    3    3    0    0 -0.12583739669E+02 -0.38645197758E+02  0.18084630178E+03  0.18535691700E+03  0.00000000000E+00 0. -1.
<mgrwt>
<rscale>  0 0.90199998E+02</rscale>
<asrwt>0</asrwt>
<pdfrwt beam="1">  1        1 0.39302102E-01 0.90199998E+02</pdfrwt>
<pdfrwt beam="2">  1       -1 0.12249280E-02 0.90199998E+02</pdfrwt>
<totfact> 0.12781184E+05</totfact>
</mgrwt>
</event>
<event>
 5    1  0.6004828E+000  0.9502969E+02  0.7546771E-02  0.1291109E+00
          1   -1    0    0  501    0  0.00000000000E+00  0.00000000000E+00  0.38782888424E+03  0.38782888424E+03  0.00000000000E+00 0. -1.
         -1   -1    0    0    0  501 -0.00000000000E+00 -0.00000000000E+00 -0.58212794753E+01  0.58212794753E+01  0.00000000000E+00 0.  1.
         23    2    1    2    0    0  0.00000000000E+00  0.00000000000E+00  0.38200760477E+03  0.39365016372E+03  0.95029686389E+02 0.  0.
        -11    1    3    3    0    0 -0.38519975620E+02 -0.27758598094E+02  0.18344233915E+03  0.18948725572E+03  0.00000000000E+00 0. -1.
         11    1    3    3    0    0  0.38519975620E+02  0.27758598094E+02  0.19856526562E+03  0.20416290799E+03  0.00000000000E+00 0.  1.
<mgrwt>
<rscale>  0 0.95029686E+02</rscale>
<asrwt>0</asrwt>
<pdfrwt beam="1">  1        1 0.59665962E-01 0.95029686E+02</pdfrwt>
<pdfrwt beam="2">  1       -1 0.89558176E-03 0.95029686E+02</pdfrwt>
<totfact> 0.12019672E+05</totfact>
</mgrwt>
</event>
<event>
 5    1  0.6004828E+000  0.9109832E+02  0.7546771E-02  0.1300214E+00
          1   -1    0    0  501    0  0.00000000000E+00  0.00000000000E+00  0.42644259745E+03  0.42644259745E+03  0.00000000000E+00 0. -1.
         -1   -1    0    0    0  501 -0.00000000000E+00 -0.00000000000E+00 -0.48651945548E+01  0.48651945548E+01  0.00000000000E+00 0.  1.
         23    2    1    2    0    0  0.00000000000E+00  0.00000000000E+00  0.42157740290E+03  0.43130779201E+03  0.91098324969E+02 0.  0.
        -11    1    3    3    0    0 -0.90895485655E+01  0.44378242253E+02  0.23333517189E+03  0.23769171361E+03  0.00000000000E+00 0. -1.
         11    1    3    3    0    0  0.90895485655E+01 -0.44378242253E+02  0.18824223101E+03  0.19361607840E+03  0.00000000000E+00 0.  1.
<mgrwt>
<rscale>  0 0.91098325E+02</rscale>
<asrwt>0</asrwt>
<pdfrwt beam="1">  1        1 0.65606524E-01 0.91098325E+02</pdfrwt>
<pdfrwt beam="2">  1       -1 0.74849180E-03 0.91098325E+02</pdfrwt>
<totfact> 0.13658009E+05</totfact>
</mgrwt>
</event>
<event>
 5    1  0.6004828E+000  0.7908917E+02  0.7546771E-02  0.1331656E+00
         -1   -1    0    0    0  501 -0.00000000000E+00  0.00000000000E+00  0.17246292116E+02  0.17246292116E+02  0.00000000000E+00 0.  1.
          1   -1    0    0  501    0  0.00000000000E+00 -0.00000000000E+00 -0.90673063037E+02  0.90673063037E+02  0.00000000000E+00 0. -1.
         23    2    1    2    0    0  0.00000000000E+00  0.00000000000E+00 -0.73426770921E+02  0.10791935515E+03  0.79089168215E+02 0.  0.
        -11    1    3    3    0    0 -0.13614383692E+02  0.36883874828E+02 -0.30923788387E+02  0.50020519328E+02  0.00000000000E+00 0. -1.
         11    1    3    3    0    0  0.13614383692E+02 -0.36883874828E+02 -0.42502982534E+02  0.57898835826E+02  0.00000000000E+00 0.  1.
<mgrwt>
<rscale>  0 0.79089168E+02</rscale>
<asrwt>0</asrwt>
<pdfrwt beam="2">  1        1 0.13949702E-01 0.79089168E+02</pdfrwt>
<pdfrwt beam="1">  1       -1 0.26532758E-02 0.79089168E+02</pdfrwt>
<totfact> 0.15105485E+05</totfact>
</mgrwt>
</event>
<event>
 5    1  0.6004828E+000  0.6222446E+02  0.7546771E-02  0.1388727E+00
          3   -1    0    0  501    0  0.00000000000E+00  0.00000000000E+00  0.10289864464E+03  0.10289864464E+03  0.00000000000E+00 0. -1.
         -3   -1    0    0    0  501 -0.00000000000E+00 -0.00000000000E+00 -0.94070330968E+01  0.94070330968E+01  0.00000000000E+00 0.  1.
         23    2    1    2    0    0  0.00000000000E+00  0.00000000000E+00  0.93491611539E+02  0.11230567773E+03  0.62224463218E+02 0.  0.
        -11    1    3    3    0    0  0.15035608608E+02  0.23847293819E+02  0.22992473905E+02  0.36378796091E+02  0.00000000000E+00 0.  1.
         11    1    3    3    0    0 -0.15035608608E+02 -0.23847293819E+02  0.70499137633E+02  0.75926881641E+02  0.00000000000E+00 0. -1.
<mgrwt>
<rscale>  0 0.62224463E+02</rscale>
<asrwt>0</asrwt>
<pdfrwt beam="1">  1        3 0.15830560E-01 0.62224463E+02</pdfrwt>
<pdfrwt beam="2">  1       -3 0.14472359E-02 0.62224463E+02</pdfrwt>
<totfact> 0.93030594E+04</totfact>
</mgrwt>
</event>
<event>
 5    1  0.6004828E+000  0.8944614E+02  0.7546771E-02  0.1304199E+00
         -1   -1    0    0    0  501 -0.00000000000E+00  0.00000000000E+00  0.44082686105E+01  0.44082686105E+01  0.00000000000E+00 0. -1.
          1   -1    0    0  501    0  0.00000000000E+00 -0.00000000000E+00 -0.45372759311E+03  0.45372759311E+03  0.00000000000E+00 0.  1.
         23    2    1    2    0    0  0.00000000000E+00  0.00000000000E+00 -0.44931932450E+03  0.45813586172E+03  0.89446142599E+02 0.  0.
        -11    1    3    3    0    0 -0.15501397399E+01  0.44696170188E+02 -0.22491799022E+03  0.22932128747E+03  0.00000000000E+00 0.  1.
         11    1    3    3    0    0  0.15501397399E+01 -0.44696170188E+02 -0.22440133428E+03  0.22881457425E+03  0.00000000000E+00 0. -1.
<mgrwt>
<rscale>  0 0.89446143E+02</rscale>
<asrwt>0</asrwt>
<pdfrwt beam="2">  1        1 0.69804212E-01 0.89446143E+02</pdfrwt>
<pdfrwt beam="1">  1       -1 0.67819549E-03 0.89446143E+02</pdfrwt>
<totfact> 0.14467901E+05</totfact>
</mgrwt>
</event>
<event>
 5    1  0.6004828E+000  0.9159979E+02  0.7546771E-02  0.1299023E+00
          1   -1    0    0  501    0  0.00000000000E+00  0.00000000000E+00  0.19670407402E+03  0.19670407402E+03  0.00000000000E+00 0. -1.
         -1   -1    0    0    0  501 -0.00000000000E+00 -0.00000000000E+00 -0.10663889694E+02  0.10663889694E+02  0.00000000000E+00 0.  1.
         23    2    1    2    0    0  0.00000000000E+00  0.00000000000E+00  0.18604018433E+03  0.20736796372E+03  0.91599793619E+02 0.  0.
        -11    1    3    3    0    0  0.11197502218E+02  0.28830688398E+02  0.16549015903E+02  0.35077950008E+02  0.00000000000E+00 0.  1.
         11    1    3    3    0    0 -0.11197502218E+02 -0.28830688398E+02  0.16949116843E+03  0.17229001371E+03  0.00000000000E+00 0. -1.
<mgrwt>
<rscale>  0 0.91599794E+02</rscale>
<asrwt>0</asrwt>
<pdfrwt beam="1">  1        1 0.30262162E-01 0.91599794E+02</pdfrwt>
<pdfrwt beam="2">  1       -1 0.16405986E-02 0.91599794E+02</pdfrwt>
<totfact> 0.11656755E+05</totfact>
</mgrwt>
</event>
<event>
 5    1  0.6004828E+000  0.8725686E+02  0.7546771E-02  0.1309634E+00
         -2   -1    0    0    0  501 -0.00000000000E+00  0.00000000000E+00  0.16430671912E+03  0.16430671912E+03  0.00000000000E+00 0.  1.
          2   -1    0    0  501    0  0.00000000000E+00 -0.00000000000E+00 -0.11584675857E+02  0.11584675857E+02  0.00000000000E+00 0. -1.
         23    2    1    2    0    0  0.00000000000E+00  0.00000000000E+00  0.15272204326E+03  0.17589139498E+03  0.87256864078E+02 0.  0.
        -11    1    3    3    0    0  0.18648106328E+02  0.21750815227E+02  0.10036053794E+02  0.30357407801E+02  0.00000000000E+00 0. -1.
         11    1    3    3    0    0 -0.18648106328E+02 -0.21750815227E+02  0.14268598947E+03  0.14553398718E+03  0.00000000000E+00 0.  1.
<mgrwt>
<rscale>  0 0.87256864E+02</rscale>
<asrwt>0</asrwt>
<pdfrwt beam="2">  1        2 0.17822579E-02 0.87256864E+02</pdfrwt>
<pdfrwt beam="1">  1       -2 0.25277955E-01 0.87256864E+02</pdfrwt>
<totfact> 0.75478745E+04</totfact>
</mgrwt>
</event>
<event>
 5    1  0.6004828E+000  0.9179160E+02  0.7546771E-02  0.1298570E+00
          3   -1    0    0  501    0  0.00000000000E+00  0.00000000000E+00  0.13261354691E+02  0.13261354691E+02  0.00000000000E+00 0. -1.
         -3   -1    0    0    0  501 -0.00000000000E+00 -0.00000000000E+00 -0.15883931614E+03  0.15883931614E+03  0.00000000000E+00 0.  1.
         23    2    1    2    0    0  0.00000000000E+00  0.00000000000E+00 -0.14557796144E+03  0.17210067083E+03  0.91791601144E+02 0.  0.
        -11    1    3    3    0    0 -0.14352707664E+02 -0.38917260332E+02 -0.35959061410E+02  0.54896333817E+02  0.00000000000E+00 0. -1.
         11    1    3    3    0    0  0.14352707664E+02  0.38917260332E+02 -0.10961890003E+03  0.11720433701E+03  0.00000000000E+00 0.  1.
<mgrwt>
<rscale>  0 0.91791601E+02</rscale>
<asrwt>0</asrwt>
<pdfrwt beam="1">  1        3 0.20402084E-02 0.91791601E+02</pdfrwt>
<pdfrwt beam="2">  1       -3 0.24436818E-01 0.91791601E+02</pdfrwt>
<totfact> 0.29466210E+04</totfact>
</mgrwt>
</event>
<event>
 5    1  0.6004828E+000  0.9161841E+02  0.7546771E-02  0.1298979E+00
         -1   -1    0    0    0  501 -0.00000000000E+00  0.00000000000E+00  0.32830516702E+02  0.32830516702E+02  0.00000000000E+00 0.  1.
          1   -1    0    0  501    0  0.00000000000E+00 -0.00000000000E+00 -0.63918683095E+02  0.63918683095E+02  0.00000000000E+00 0. -1.
         23    2    1    2    0    0  0.00000000000E+00  0.00000000000E+00 -0.31088166393E+02  0.96749199797E+02  0.91618412841E+02 0.  0.
        -11    1    3    3    0    0  0.41298707628E+02 -0.16376873156E+02 -0.27336278195E+02  0.52163754961E+02  0.00000000000E+00 0. -1.
         11    1    3    3    0    0 -0.41298707628E+02  0.16376873156E+02 -0.37518881981E+01  0.44585444835E+02  0.00000000000E+00 0.  1.
<mgrwt>
<rscale>  0 0.91618413E+02</rscale>
<asrwt>0</asrwt>
<pdfrwt beam="2">  1        1 0.98336435E-02 0.91618413E+02</pdfrwt>
<pdfrwt beam="1">  1       -1 0.50508487E-02 0.91618413E+02</pdfrwt>
<totfact> 0.96007685E+04</totfact>
</mgrwt>
</event>
<event>
 5    1  0.6004828E+000  0.9028335E+02  0.7546771E-02  0.1302167E+00
          1   -1    0    0  501    0  0.00000000000E+00  0.00000000000E+00  0.25346276655E+03  0.25346276655E+03  0.00000000000E+00 0. -1.
         -1   -1    0    0    0  501 -0.00000000000E+00 -0.00000000000E+00 -0.80397250698E+01  0.80397250698E+01  0.00000000000E+00 0.  1.
         23    2    1    2    0    0  0.00000000000E+00  0.00000000000E+00  0.24542304148E+03  0.26150249162E+03  0.90283353027E+02 0.  0.
        -11    1    3    3    0    0 -0.31124713492E+02 -0.15721893805E+02  0.39676142356E+02  0.52821605494E+02  0.00000000000E+00 0.  1.
         11    1    3    3    0    0  0.31124713492E+02  0.15721893805E+02  0.20574689912E+03  0.20868088612E+03  0.00000000000E+00 0. -1.
<mgrwt>
<rscale>  0 0.90283353E+02</rscale>
<asrwt>0</asrwt>
<pdfrwt beam="1">  1        1 0.38994266E-01 0.90283353E+02</pdfrwt>
<pdfrwt beam="2">  1       -1 0.12368810E-02 0.90283353E+02</pdfrwt>
<totfact> 0.12730305E+05</totfact>
</mgrwt>
</event>
<event>
 5    1  0.6004828E+000  0.9114616E+02  0.7546771E-02  0.1300100E+00
          2   -1    0    0  501    0  0.00000000000E+00  0.00000000000E+00  0.52588890776E+02  0.52588890776E+02  0.00000000000E+00 0.  1.
         -2   -1    0    0    0  501 -0.00000000000E+00 -0.00000000000E+00 -0.39493242578E+02  0.39493242578E+02  0.00000000000E+00 0. -1.
         23    2    1    2    0    0  0.00000000000E+00  0.00000000000E+00  0.13095648198E+02  0.92082133354E+02  0.91146164380E+02 0.  0.
        -11    1    3    3    0    0 -0.24449764138E+02  0.20907643068E+02 -0.26063450572E+02  0.41403187809E+02  0.00000000000E+00 0. -1.
         11    1    3    3    0    0  0.24449764138E+02 -0.20907643068E+02  0.39159098770E+02  0.50678945545E+02  0.00000000000E+00 0.  1.
<mgrwt>
<rscale>  0 0.91146164E+02</rscale>
<asrwt>0</asrwt>
<pdfrwt beam="1">  1        2 0.80905986E-02 0.91146164E+02</pdfrwt>
<pdfrwt beam="2">  1       -2 0.60758834E-02 0.91146164E+02</pdfrwt>
<totfact> 0.10252181E+05</totfact>
</mgrwt>
</event>
<event>
 5    1  0.6004828E+000  0.8657877E+02  0.7546771E-02  0.1311355E+00
         -1   -1    0    0    0  501 -0.00000000000E+00  0.00000000000E+00  0.23752605905E+02  0.23752605905E+02  0.00000000000E+00 0.  1.
          1   -1    0    0  501    0  0.00000000000E+00 -0.00000000000E+00 -0.78895372585E+02  0.78895372585E+02  0.00000000000E+00 0. -1.
         23    2    1    2    0    0  0.00000000000E+00  0.00000000000E+00 -0.55142766680E+02  0.10264797849E+03  0.86578766282E+02 0.  0.
        -11    1    3    3    0    0  0.32318030059E+02 -0.26948418386E+02 -0.15521419403E+02  0.44850716613E+02  0.00000000000E+00 0.  1.
         11    1    3    3    0    0 -0.32318030059E+02  0.26948418386E+02 -0.39621347277E+02  0.57797261877E+02  0.00000000000E+00 0. -1.
<mgrwt>
<rscale>  0 0.86578766E+02</rscale>
<asrwt>0</asrwt>
<pdfrwt beam="2">  1        1 0.12137749E-01 0.86578766E+02</pdfrwt>
<pdfrwt beam="1">  1       -1 0.36542471E-02 0.86578766E+02</pdfrwt>
<totfact> 0.11580088E+05</totfact>
</mgrwt>
</event>
<event>
 5    1  0.6004828E+000  0.9430049E+02  0.7546771E-02  0.1292759E+00
          1   -1    0    0  501    0  0.00000000000E+00  0.00000000000E+00  0.62905567568E+01  0.62905567568E+01  0.00000000000E+00 0. -1.
         -1   -1    0    0    0  501 -0.00000000000E+00 -0.00000000000E+00 -0.35340997081E+03  0.35340997081E+03  0.00000000000E+00 0.  1.
         23    2    1    2    0    0  0.00000000000E+00  0.00000000000E+00 -0.34711941406E+03  0.35970052757E+03  0.94300487376E+02 0.  0.
        -11    1    3    3    0    0 -0.23305777238E+02  0.36694383494E+02 -0.24321923971E+03  0.24707334053E+03  0.00000000000E+00 0.  1.
         11    1    3    3    0    0  0.23305777238E+02 -0.36694383494E+02 -0.10390017434E+03  0.11262718704E+03  0.00000000000E+00 0. -1.
<mgrwt>
<rscale>  0 0.94300487E+02</rscale>
<asrwt>0</asrwt>
<pdfrwt beam="1">  1        1 0.96777768E-03 0.94300487E+02</pdfrwt>
<pdfrwt beam="2">  1       -1 0.54370781E-01 0.94300487E+02</pdfrwt>
<totfact> 0.51759205E+04</totfact>
</mgrwt>
</event>
<event>
 5    1  0.6004828E+000  0.9150246E+02  0.7546771E-02  0.1299254E+00
         -2   -1    0    0    0  501 -0.00000000000E+00  0.00000000000E+00  0.42817803593E+02  0.42817803593E+02  0.00000000000E+00 0.  1.
          2   -1    0    0  501    0  0.00000000000E+00 -0.00000000000E+00 -0.48885626450E+02  0.48885626450E+02  0.00000000000E+00 0. -1.
         23    2    1    2    0    0  0.00000000000E+00  0.00000000000E+00 -0.60678228577E+01  0.91703430043E+02  0.91502462302E+02 0.  0.
        -11    1    3    3    0    0  0.18230011794E+02  0.73891887691E+01  0.38363489600E+02  0.43112536170E+02  0.00000000000E+00 0.  1.
         11    1    3    3    0    0 -0.18230011794E+02 -0.73891887691E+01 -0.44431312458E+02  0.48590893873E+02  0.00000000000E+00 0. -1.
<mgrwt>
<rscale>  0 0.91502462E+02</rscale>
<asrwt>0</asrwt>
<pdfrwt beam="2">  1        2 0.75208656E-02 0.91502462E+02</pdfrwt>
<pdfrwt beam="1">  1       -2 0.65873544E-02 0.91502462E+02</pdfrwt>
<totfact> 0.99464411E+04</totfact>
</mgrwt>
</event>
<event>
 5    1  0.6004828E+000  0.8387595E+02  0.7546771E-02  0.1318398E+00
         -2   -1    0    0    0  501 -0.00000000000E+00  0.00000000000E+00  0.11967391170E+03  0.11967391170E+03  0.00000000000E+00 0.  1.
          2   -1    0    0  501    0  0.00000000000E+00 -0.00000000000E+00 -0.14696550724E+02  0.14696550724E+02  0.00000000000E+00 0. -1.
         23    2    1    2    0    0  0.00000000000E+00  0.00000000000E+00  0.10497736098E+03  0.13437046243E+03  0.83875949203E+02 0.  0.
        -11    1    3    3    0    0 -0.74333094155E+01 -0.32511538695E+02  0.93223320947E+02  0.99009301612E+02  0.00000000000E+00 0.  1.
         11    1    3    3    0    0  0.74333094155E+01  0.32511538695E+02  0.11754040033E+02  0.35361160817E+02  0.00000000000E+00 0. -1.
<mgrwt>
<rscale>  0 0.83875949E+02</rscale>
<asrwt>0</asrwt>
<pdfrwt beam="2">  1        2 0.22610079E-02 0.83875949E+02</pdfrwt>
<pdfrwt beam="1">  1       -2 0.18411370E-01 0.83875949E+02</pdfrwt>
<totfact> 0.93055392E+04</totfact>
</mgrwt>
</event>
<event>
 5    1  0.6004828E+000  0.8989251E+02  0.7546771E-02  0.1303112E+00
          1   -1    0    0  501    0  0.00000000000E+00  0.00000000000E+00  0.14906301779E+02  0.14906301779E+02  0.00000000000E+00 0. -1.
         -1   -1    0    0    0  501 -0.00000000000E+00 -0.00000000000E+00 -0.13552429096E+03  0.13552429096E+03  0.00000000000E+00 0.  1.
         23    2    1    2    0    0  0.00000000000E+00  0.00000000000E+00 -0.12061798918E+03  0.15043059274E+03  0.89892513135E+02 0.  0.
        -11    1    3    3    0    0  0.20096966882E+02  0.24146581312E+02 -0.11409993715E+03  0.11834585386E+03  0.00000000000E+00 0.  1.
         11    1    3    3    0    0 -0.20096966882E+02 -0.24146581312E+02 -0.65180520292E+01  0.32084738883E+02  0.00000000000E+00 0. -1.
<mgrwt>
<rscale>  0 0.89892513E+02</rscale>
<asrwt>0</asrwt>
<pdfrwt beam="1">  1        1 0.22932772E-02 0.89892513E+02</pdfrwt>
<pdfrwt beam="2">  1       -1 0.20849891E-01 0.89892513E+02</pdfrwt>
<totfact> 0.79392469E+04</totfact>
</mgrwt>
</event>
<event>
 5    1  0.6004828E+000  0.9021693E+02  0.7546771E-02  0.1302327E+00
          1   -1    0    0  501    0  0.00000000000E+00  0.00000000000E+00  0.19694376593E+03  0.19694376593E+03  0.00000000000E+00 0. -1.
         -1   -1    0    0    0  501 -0.00000000000E+00 -0.00000000000E+00 -0.10331749815E+02  0.10331749815E+02  0.00000000000E+00 0.  1.
         23    2    1    2    0    0  0.00000000000E+00  0.00000000000E+00  0.18661201611E+03  0.20727551574E+03  0.90216932274E+02 0.  0.
        -11    1    3    3    0    0 -0.34357853651E+02 -0.25035566111E+02  0.58649785121E+02  0.72436447820E+02  0.00000000000E+00 0.  1.
         11    1    3    3    0    0  0.34357853651E+02  0.25035566111E+02  0.12796223099E+03  0.13483906792E+03  0.00000000000E+00 0. -1.
<mgrwt>
<rscale>  0 0.90216932E+02</rscale>
<asrwt>0</asrwt>
<pdfrwt beam="1">  1        1 0.30299038E-01 0.90216932E+02</pdfrwt>
<pdfrwt beam="2">  1       -1 0.15895001E-02 0.90216932E+02</pdfrwt>
<totfact> 0.12144909E+05</totfact>
</mgrwt>
</event>
<event>
 5    1  0.6004828E+000  0.9191585E+02  0.7546771E-02  0.1298277E+00
          2   -1    0    0  501    0  0.00000000000E+00  0.00000000000E+00  0.13943257818E+03  0.13943257818E+03  0.00000000000E+00 0. -1.
         -2   -1    0    0    0  501 -0.00000000000E+00 -0.00000000000E+00 -0.15148043995E+02  0.15148043995E+02  0.00000000000E+00 0.  1.
         23    2    1    2    0    0  0.00000000000E+00  0.00000000000E+00  0.12428453419E+03  0.15458062218E+03  0.91915849095E+02 0.  0.
        -11    1    3    3    0    0  0.29762335549E+02 -0.29725799176E+02  0.93275822335E+02  0.10232203471E+03  0.00000000000E+00 0.  1.
         11    1    3    3    0    0 -0.29762335549E+02  0.29725799176E+02  0.31008711854E+02  0.52258587475E+02  0.00000000000E+00 0. -1.
<mgrwt>
<rscale>  0 0.91915849E+02</rscale>
<asrwt>0</asrwt>
<pdfrwt beam="1">  1        2 0.21451165E-01 0.91915849E+02</pdfrwt>
<pdfrwt beam="2">  1       -2 0.23304684E-02 0.91915849E+02</pdfrwt>
<totfact> 0.13344111E+05</totfact>
</mgrwt>
</event>
<event>
 5    1  0.6004828E+000  0.8434095E+02  0.7546771E-02  0.1317165E+00
          3   -1    0    0  501    0  0.00000000000E+00  0.00000000000E+00  0.15058195680E+02  0.15058195680E+02  0.00000000000E+00 0. -1.
         -3   -1    0    0    0  501 -0.00000000000E+00 -0.00000000000E+00 -0.11809840494E+03  0.11809840494E+03  0.00000000000E+00 0.  1.
         23    2    1    2    0    0  0.00000000000E+00  0.00000000000E+00 -0.10304020926E+03  0.13315660062E+03  0.84340948327E+02 0.  0.
        -11    1    3    3    0    0  0.32749807789E+02 -0.56460310842E+01 -0.10534738837E+02  0.34862706429E+02  0.00000000000E+00 0. -1.
         11    1    3    3    0    0 -0.32749807789E+02  0.56460310842E+01 -0.92505470426E+02  0.98293894195E+02  0.00000000000E+00 0.  1.
<mgrwt>
<rscale>  0 0.84340948E+02</rscale>
<asrwt>0</asrwt>
<pdfrwt beam="1">  1        3 0.23166455E-02 0.84340948E+02</pdfrwt>
<pdfrwt beam="2">  1       -3 0.18168985E-01 0.84340948E+02</pdfrwt>
<totfact> 0.39940154E+04</totfact>
</mgrwt>
</event>
<event>
 5    1  0.6004828E+000  0.9129041E+02  0.7546771E-02  0.1299757E+00
          2   -1    0    0  501    0  0.00000000000E+00  0.00000000000E+00  0.21991723987E+02  0.21991723987E+02  0.00000000000E+00 0. -1.
         -2   -1    0    0    0  501 -0.00000000000E+00 -0.00000000000E+00 -0.94739489831E+02  0.94739489831E+02  0.00000000000E+00 0.  1.
         23    2    1    2    0    0  0.00000000000E+00  0.00000000000E+00 -0.72747765844E+02  0.11673121382E+03  0.91290409377E+02 0.  0.
        -11    1    3    3    0    0  0.14761925272E+02  0.41182380220E+02 -0.53025311891E+02  0.68742902030E+02  0.00000000000E+00 0. -1.
         11    1    3    3    0    0 -0.14761925272E+02 -0.41182380220E+02 -0.19722453953E+02  0.47988311788E+02  0.00000000000E+00 0.  1.
<mgrwt>
<rscale>  0 0.91290409E+02</rscale>
<asrwt>0</asrwt>
<pdfrwt beam="1">  1        2 0.33833421E-02 0.91290409E+02</pdfrwt>
<pdfrwt beam="2">  1       -2 0.14575306E-01 0.91290409E+02</pdfrwt>
<totfact> 0.80839673E+04</totfact>
</mgrwt>
</event>
<event>
 5    1  0.6004828E+000  0.9389888E+02  0.7546771E-02  0.1293676E+00
          2   -1    0    0  501    0  0.00000000000E+00  0.00000000000E+00  0.11872027197E+03  0.11872027197E+03  0.00000000000E+00 0. -1.
         -2   -1    0    0    0  501 -0.00000000000E+00 -0.00000000000E+00 -0.18566753849E+02  0.18566753849E+02  0.00000000000E+00 0.  1.
         23    2    1    2    0    0  0.00000000000E+00  0.00000000000E+00  0.10015351812E+03  0.13728702582E+03  0.93898883199E+02 0.  0.
        -11    1    3    3    0    0  0.22889596185E+02  0.20507291979E+02  0.10197041372E+03  0.10650092916E+03  0.00000000000E+00 0. -1.
         11    1    3    3    0    0 -0.22889596185E+02 -0.20507291979E+02 -0.18168955989E+01  0.30786096658E+02  0.00000000000E+00 0.  1.
<mgrwt>
<rscale>  0 0.93898883E+02</rscale>
<asrwt>0</asrwt>
<pdfrwt beam="1">  1        2 0.18264657E-01 0.93898883E+02</pdfrwt>
<pdfrwt beam="2">  1       -2 0.28564237E-02 0.93898883E+02</pdfrwt>
<totfact> 0.11938719E+05</totfact>
</mgrwt>
</event>
<event>
 5    1  0.6004828E+000  0.9322030E+02  0.7546771E-02  0.1295235E+00
         -2   -1    0    0    0  501 -0.00000000000E+00  0.00000000000E+00  0.67622547478E+01  0.67622547478E+01  0.00000000000E+00 0.  1.
          2   -1    0    0  501    0  0.00000000000E+00 -0.00000000000E+00 -0.32126945647E+03  0.32126945647E+03  0.00000000000E+00 0. -1.
         23    2    1    2    0    0  0.00000000000E+00  0.00000000000E+00 -0.31450720172E+03  0.32803171122E+03  0.93220296231E+02 0.  0.
        -11    1    3    3    0    0 -0.21332328049E+02 -0.38679726791E+02 -0.10490414501E+03  0.11382472985E+03  0.00000000000E+00 0.  1.
         11    1    3    3    0    0  0.21332328049E+02  0.38679726791E+02 -0.20960305671E+03  0.21420698137E+03  0.00000000000E+00 0. -1.
<mgrwt>
<rscale>  0 0.93220296E+02</rscale>
<asrwt>0</asrwt>
<pdfrwt beam="2">  1        2 0.49426083E-01 0.93220296E+02</pdfrwt>
<pdfrwt beam="1">  1       -2 0.10403466E-02 0.93220296E+02</pdfrwt>
<totfact> 0.17370192E+05</totfact>
</mgrwt>
</event>
<event>
 5    1  0.6004828E+000  0.8138885E+02  0.7546771E-02  0.1325156E+00
          3   -1    0    0  501    0  0.00000000000E+00  0.00000000000E+00  0.67538366404E+02  0.67538366404E+02  0.00000000000E+00 0. -1.
         -3   -1    0    0    0  501 -0.00000000000E+00 -0.00000000000E+00 -0.24519930617E+02  0.24519930617E+02  0.00000000000E+00 0.  1.
         23    2    1    2    0    0  0.00000000000E+00  0.00000000000E+00  0.43018435788E+02  0.92058297021E+02  0.81388845874E+02 0.  0.
        -11    1    3    3    0    0 -0.79231655882E+01  0.32350174345E+02 -0.49381709936E+01  0.33670400441E+02  0.00000000000E+00 0.  1.
         11    1    3    3    0    0  0.79231655882E+01 -0.32350174345E+02  0.47956606781E+02  0.58387896580E+02  0.00000000000E+00 0. -1.
<mgrwt>
<rscale>  0 0.81388846E+02</rscale>
<asrwt>0</asrwt>
<pdfrwt beam="1">  1        3 0.10390518E-01 0.81388846E+02</pdfrwt>
<pdfrwt beam="2">  1       -3 0.37722970E-02 0.81388846E+02</pdfrwt>
<totfact> 0.47939924E+04</totfact>
</mgrwt>
</event>
<event>
 5    1  0.6004828E+000  0.9023945E+02  0.7546771E-02  0.1302273E+00
          2   -1    0    0  501    0  0.00000000000E+00  0.00000000000E+00  0.23844696422E+02  0.23844696422E+02  0.00000000000E+00 0. -1.
         -2   -1    0    0    0  501 -0.00000000000E+00 -0.00000000000E+00 -0.85377042580E+02  0.85377042580E+02  0.00000000000E+00 0.  1.
         23    2    1    2    0    0  0.00000000000E+00  0.00000000000E+00 -0.61532346158E+02  0.10922173900E+03  0.90239451720E+02 0.  0.
        -11    1    3    3    0    0 -0.36144828290E+02  0.11639457380E+02 -0.60261700639E+02  0.71227790532E+02  0.00000000000E+00 0.  1.
         11    1    3    3    0    0  0.36144828290E+02 -0.11639457380E+02 -0.12706455196E+01  0.37993948469E+02  0.00000000000E+00 0. -1.
<mgrwt>
<rscale>  0 0.90239452E+02</rscale>
<asrwt>0</asrwt>
<pdfrwt beam="1">  1        2 0.36684148E-02 0.90239452E+02</pdfrwt>
<pdfrwt beam="2">  1       -2 0.13134930E-01 0.90239452E+02</pdfrwt>
<totfact> 0.85704573E+04</totfact>
</mgrwt>
</event>
<event>
 5    1  0.6004828E+000  0.9204630E+02  0.7546771E-02  0.1297971E+00
          2   -1    0    0  501    0  0.00000000000E+00  0.00000000000E+00  0.18647237387E+03  0.18647237387E+03  0.00000000000E+00 0. -1.
         -2   -1    0    0    0  501 -0.00000000000E+00 -0.00000000000E+00 -0.11358949531E+02  0.11358949531E+02  0.00000000000E+00 0.  1.
         23    2    1    2    0    0  0.00000000000E+00  0.00000000000E+00  0.17511342434E+03  0.19783132340E+03  0.92046298866E+02 0.  0.
        -11    1    3    3    0    0  0.31388890784E+02  0.21576909954E+01  0.15974788865E+03  0.16281678668E+03  0.00000000000E+00 0. -1.
         11    1    3    3    0    0 -0.31388890784E+02 -0.21576909954E+01  0.15365535689E+02  0.35014536726E+02  0.00000000000E+00 0.  1.
<mgrwt>
<rscale>  0 0.92046299E+02</rscale>
<asrwt>0</asrwt>
<pdfrwt beam="1">  1        2 0.28688055E-01 0.92046299E+02</pdfrwt>
<pdfrwt beam="2">  1       -2 0.17475308E-02 0.92046299E+02</pdfrwt>
<totfact> 0.14701570E+05</totfact>
</mgrwt>
</event>
<event>
 5    1  0.6004828E+000  0.9166786E+02  0.7546771E-02  0.1298862E+00
          2   -1    0    0  501    0  0.00000000000E+00  0.00000000000E+00  0.25080448951E+03  0.25080448951E+03  0.00000000000E+00 0.  1.
         -2   -1    0    0    0  501 -0.00000000000E+00 -0.00000000000E+00 -0.83760428423E+01  0.83760428423E+01  0.00000000000E+00 0. -1.
         23    2    1    2    0    0  0.00000000000E+00  0.00000000000E+00  0.24242844667E+03  0.25918053236E+03  0.91667860218E+02 0.  0.
        -11    1    3    3    0    0  0.54378354074E+00 -0.41011903794E+02  0.17905327748E+03  0.18369090377E+03  0.00000000000E+00 0.  1.
         11    1    3    3    0    0 -0.54378354074E+00  0.41011903794E+02  0.63375169193E+02  0.75489628583E+02  0.00000000000E+00 0. -1.
<mgrwt>
<rscale>  0 0.91667860E+02</rscale>
<asrwt>0</asrwt>
<pdfrwt beam="1">  1        2 0.38585300E-01 0.91667860E+02</pdfrwt>
<pdfrwt beam="2">  1       -2 0.12886222E-02 0.91667860E+02</pdfrwt>
<totfact> 0.16565784E+05</totfact>
</mgrwt>
</event>
<event>
 5    1  0.6004828E+000  0.9081233E+02  0.7546771E-02  0.1300896E+00
         -2   -1    0    0    0  501 -0.00000000000E+00  0.00000000000E+00  0.93602872257E+02  0.93602872257E+02  0.00000000000E+00 0.  1.
          2   -1    0    0  501    0  0.00000000000E+00 -0.00000000000E+00 -0.22026245374E+02  0.22026245374E+02  0.00000000000E+00 0. -1.
         23    2    1    2    0    0  0.00000000000E+00  0.00000000000E+00  0.71576626883E+02  0.11562911763E+03  0.90812330265E+02 0.  0.
        -11    1    3    3    0    0 -0.42093752643E+02  0.32465213054E+01  0.14509143290E+02  0.44642347062E+02  0.00000000000E+00 0. -1.
         11    1    3    3    0    0  0.42093752643E+02 -0.32465213054E+01  0.57067483593E+02  0.70986770569E+02  0.00000000000E+00 0.  1.
<mgrwt>
<rscale>  0 0.90812330E+02</rscale>
<asrwt>0</asrwt>
<pdfrwt beam="2">  1        2 0.33886532E-02 0.90812330E+02</pdfrwt>
<pdfrwt beam="1">  1       -2 0.14400442E-01 0.90812330E+02</pdfrwt>
<totfact> 0.82188180E+04</totfact>
</mgrwt>
</event>
<event>
 5    1  0.6004828E+000  0.9213623E+02  0.7546771E-02  0.1297759E+00
         -2   -1    0    0    0  501 -0.00000000000E+00  0.00000000000E+00  0.80250222943E+01  0.80250222943E+01  0.00000000000E+00 0.  1.
          2   -1    0    0  501    0  0.00000000000E+00 -0.00000000000E+00 -0.26445674341E+03  0.26445674341E+03  0.00000000000E+00 0. -1.
         23    2    1    2    0    0  0.00000000000E+00  0.00000000000E+00 -0.25643172112E+03  0.27248176571E+03  0.92136230914E+02 0.  0.
        -11    1    3    3    0    0  0.39743055418E+02 -0.14699170018E+02 -0.74762085084E+02  0.85935705148E+02  0.00000000000E+00 0.  1.
         11    1    3    3    0    0 -0.39743055418E+02  0.14699170018E+02 -0.18166963604E+03  0.18654606056E+03  0.00000000000E+00 0. -1.
<mgrwt>
<rscale>  0 0.92136231E+02</rscale>
<asrwt>0</asrwt>
<pdfrwt beam="2">  1        2 0.40685648E-01 0.92136231E+02</pdfrwt>
<pdfrwt beam="1">  1       -2 0.12346190E-02 0.92136231E+02</pdfrwt>
<totfact> 0.16666626E+05</totfact>
</mgrwt>
</event>
<event>
 5    1  0.6004828E+000  0.9090393E+02  0.7546771E-02  0.1300677E+00
         -1   -1    0    0    0  501 -0.00000000000E+00  0.00000000000E+00  0.43840630620E+02  0.43840630620E+02  0.00000000000E+00 0.  1.
          1   -1    0    0  501    0  0.00000000000E+00 -0.00000000000E+00 -0.47122527473E+02  0.47122527473E+02  0.00000000000E+00 0. -1.
         23    2    1    2    0    0  0.00000000000E+00  0.00000000000E+00 -0.32818968532E+01  0.90963158093E+02  0.90903934367E+02 0.  0.
        -11    1    3    3    0    0  0.32168732561E+02  0.28199018999E+02 -0.17008990937E+02  0.46036048916E+02  0.00000000000E+00 0.  1.
         11    1    3    3    0    0 -0.32168732561E+02 -0.28199018999E+02  0.13727094084E+02  0.44927109178E+02  0.00000000000E+00 0. -1.
<mgrwt>
<rscale>  0 0.90903934E+02</rscale>
<asrwt>0</asrwt>
<pdfrwt beam="2">  1        1 0.72496196E-02 0.90903934E+02</pdfrwt>
<pdfrwt beam="1">  1       -1 0.67447124E-02 0.90903934E+02</pdfrwt>
<totfact> 0.93717247E+04</totfact>
</mgrwt>
</event>
