<event>
 4    1  0.2769537E+004  0.2422793E+02  0.7546771E-02  0.1672346E+00
         21   -1    0    0  503  502  0.00000000000E+00  0.00000000000E+00  0.18432305321E+02  0.18432305321E+02  0.00000000000E+00 0. -1.
         21   -1    0    0  501  503 -0.00000000000E+00 -0.00000000000E+00 -0.42913065566E+02  0.42913065566E+02  0.00000000000E+00 0.  1.
          2    1    1    2  501    0  0.35970914341E+01 -0.23959412797E+02 -0.27817103629E+02  0.36888802945E+02  0.00000000000E+00 0.  1.
         -2    1    1    2    0  502 -0.35970914341E+01  0.23959412797E+02  0.33363433849E+01  0.24456567943E+02  0.00000000000E+00 0. -1.
<mgrwt>
<rscale>  2 0.24227929E+02</rscale>
<asrwt>0</asrwt>
<pdfrwt beam="1">  1       21 0.28357393E-02 0.24227929E+02</pdfrwt>
<pdfrwt beam="2">  1       21 0.66020100E-02 0.24227929E+02</pdfrwt>
<totfact> 0.81302696E+07</totfact>
</mgrwt>
</event>
<event>
 4    1  0.2769537E+004  0.4085657E+02  0.7546771E-02  0.1502001E+00
         21   -1    0    0  501  502  0.00000000000E+00  0.00000000000E+00  0.75519292130E+02  0.75519292130E+02  0.00000000000E+00 0. -1.
         21   -1    0    0  502  503 -0.00000000000E+00 -0.00000000000E+00 -0.30426828163E+02  0.30426828163E+02  0.00000000000E+00 0.  1.
          2    1    1    2  501    0  0.40307969095E+02 -0.66728333841E+01  0.50251915691E+02  0.64765068583E+02  0.00000000000E+00 0. -1.
         -2    1    1    2    0  503 -0.40307969095E+02  0.66728333841E+01 -0.51594517244E+01  0.41181051711E+02  0.00000000000E+00 0.  1.
<mgrwt>
<rscale>  2 0.40856567E+02</rscale>
<asrwt>0</asrwt>
<pdfrwt beam="1">  1       21 0.11618353E-01 0.40856567E+02</pdfrwt>
<pdfrwt beam="2">  1       21 0.46810505E-02 0.40856567E+02</pdfrwt>
<totfact> 0.15973505E+07</totfact>
</mgrwt>
</event>
<event>
 4    1  0.2769537E+004  0.2124007E+02  0.7546771E-02  0.1721736E+00
         21   -1    0    0  503  502  0.00000000000E+00  0.00000000000E+00  0.11770978578E+01  0.11770978578E+01  0.00000000000E+00 0.  1.
         21   -1    0    0  501  503 -0.00000000000E+00 -0.00000000000E+00 -0.80615039499E+03  0.80615039499E+03  0.00000000000E+00 0. -1.
          2    1    1    2  501    0 -0.32821822708E+01 -0.20984939649E+02 -0.69485008190E+03  0.69517463758E+03  0.00000000000E+00 0. -1.
         -2    1    1    2    0  502  0.32821822708E+01  0.20984939649E+02 -0.11012321523E+03  0.11215285527E+03  0.00000000000E+00 0.  1.
<mgrwt>
<rscale>  2 0.21240066E+02</rscale>
<asrwt>0</asrwt>
<pdfrwt beam="1">  1       21 0.18109136E-03 0.21240066E+02</pdfrwt>
<pdfrwt beam="2">  1       21 0.12402356E+00 0.21240066E+02</pdfrwt>
<totfact> 0.20689619E+07</totfact>
</mgrwt>
</event>
<event>
 4    1  0.2769537E+004  0.3215503E+02  0.7546771E-02  0.1575420E+00
         21   -1    0    0  503  502  0.00000000000E+00  0.00000000000E+00  0.41973438036E+02  0.41973438036E+02  0.00000000000E+00 0.  1.
         21   -1    0    0  501  503 -0.00000000000E+00 -0.00000000000E+00 -0.40237500091E+02  0.40237500091E+02  0.00000000000E+00 0. -1.
          2    1    1    2  501    0  0.70433852782E+01  0.31374141675E+02 -0.24729928065E+02  0.40564952657E+02  0.00000000000E+00 0. -1.
         -2    1    1    2    0  502 -0.70433852782E+01 -0.31374141675E+02  0.26465866010E+02  0.41645985469E+02  0.00000000000E+00 0.  1.
<mgrwt>
<rscale>  2 0.32155031E+02</rscale>
<asrwt>0</asrwt>
<pdfrwt beam="1">  1       21 0.64574520E-02 0.32155031E+02</pdfrwt>
<pdfrwt beam="2">  1       21 0.61903846E-02 0.32155031E+02</pdfrwt>
<totfact> 0.25950490E+07</totfact>
</mgrwt>
</event>
<event>
 4    1  0.2769537E+004  0.2061788E+02  0.7546771E-02  0.1733313E+00
         21   -1    0    0  503  502  0.00000000000E+00  0.00000000000E+00  0.48178840226E+02  0.48178840226E+02  0.00000000000E+00 0. -1.
         21   -1    0    0  501  503 -0.00000000000E+00 -0.00000000000E+00 -0.13645591460E+03  0.13645591460E+03  0.00000000000E+00 0.  1.
          2    1    1    2  501    0 -0.10307652112E+02 -0.17856356096E+02 -0.13342139468E+03  0.13500505806E+03  0.00000000000E+00 0.  1.
         -2    1    1    2    0  502  0.10307652112E+02  0.17856356096E+02  0.45144320303E+02  0.49629696763E+02  0.00000000000E+00 0. -1.
<mgrwt>
<rscale>  2 0.20617884E+02</rscale>
<asrwt>0</asrwt>
<pdfrwt beam="1">  1       21 0.74121295E-02 0.20617884E+02</pdfrwt>
<pdfrwt beam="2">  1       21 0.20993217E-01 0.20617884E+02</pdfrwt>
<totfact> 0.24726168E+06</totfact>
</mgrwt>
</event>
<event>
 4    1  0.2769537E+004  0.2100602E+02  0.7546771E-02  0.1726032E+00
         21   -1    0    0  503  502  0.00000000000E+00  0.00000000000E+00  0.37354708861E+01  0.37354708861E+01  0.00000000000E+00 0. -1.
         21   -1    0    0  501  503 -0.00000000000E+00 -0.00000000000E+00 -0.31514482159E+03  0.31514482159E+03  0.00000000000E+00 0.  1.
          2    1    1    2  501    0  0.38059160092E+01  0.20658360677E+02 -0.28177052341E+03  0.28255243889E+03  0.00000000000E+00 0.  1.
         -2    1    1    2    0  502 -0.38059160092E+01 -0.20658360677E+02 -0.29638827298E+02  0.36327853586E+02  0.00000000000E+00 0. -1.
<mgrwt>
<rscale>  2 0.21006020E+02</rscale>
<asrwt>0</asrwt>
<pdfrwt beam="1">  1       21 0.57468782E-03 0.21006020E+02</pdfrwt>
<pdfrwt beam="2">  1       21 0.48483819E-01 0.21006020E+02</pdfrwt>
<totfact> 0.27249362E+07</totfact>
</mgrwt>
</event>
<event>
 4    1  0.2769537E+004  0.2059596E+02  0.7546771E-02  0.1733730E+00
         21   -1    0    0  503  502  0.00000000000E+00  0.00000000000E+00  0.46930692736E+01  0.46930692736E+01  0.00000000000E+00 0.  1.
         21   -1    0    0  501  503 -0.00000000000E+00 -0.00000000000E+00 -0.90388668653E+02  0.90388668653E+02  0.00000000000E+00 0. -1.
          2    1    1    2  501    0 -0.11473538726E+02 -0.17104130862E+02 -0.43039538348E+02  0.47713679848E+02  0.00000000000E+00 0.  1.
         -2    1    1    2    0  502  0.11473538726E+02  0.17104130862E+02 -0.42656061032E+02  0.47368058079E+02  0.00000000000E+00 0. -1.
<mgrwt>
<rscale>  2 0.20595956E+02</rscale>
<asrwt>0</asrwt>
<pdfrwt beam="1">  1       21 0.72201069E-03 0.20595956E+02</pdfrwt>
<pdfrwt beam="2">  1       21 0.13905948E-01 0.20595956E+02</pdfrwt>
<totfact> 0.18090438E+08</totfact>
</mgrwt>
</event>
<event>
 4    1  0.2769537E+004  0.2120389E+02  0.7546771E-02  0.1722395E+00
         21   -1    0    0  503  502  0.00000000000E+00  0.00000000000E+00  0.35755311005E+01  0.35755311005E+01  0.00000000000E+00 0. -1.
         21   -1    0    0  501  503 -0.00000000000E+00 -0.00000000000E+00 -0.12653441402E+03  0.12653441402E+03  0.00000000000E+00 0.  1.
          2    1    1    2  501    0 -0.97933798948E+00 -0.21181265454E+02 -0.56340988762E+02  0.60198937896E+02  0.00000000000E+00 0.  1.
         -2    1    1    2    0  502  0.97933798948E+00  0.21181265454E+02 -0.66617894156E+02  0.69911007223E+02  0.00000000000E+00 0. -1.
<mgrwt>
<rscale>  2 0.21203894E+02</rscale>
<asrwt>0</asrwt>
<pdfrwt beam="1">  1       21 0.55008171E-03 0.21203894E+02</pdfrwt>
<pdfrwt beam="2">  1       21 0.19466833E-01 0.21203894E+02</pdfrwt>
<totfact> 0.15357329E+08</totfact>
</mgrwt>
</event>
<event>
 4    1  0.2769537E+004  0.2429594E+02  0.7546771E-02  0.1671325E+00
         21   -1    0    0  501  502  0.00000000000E+00  0.00000000000E+00  0.82995861206E+02  0.82995861206E+02  0.00000000000E+00 0. -1.
         21   -1    0    0  502  503 -0.00000000000E+00 -0.00000000000E+00 -0.17384513957E+02  0.17384513957E+02  0.00000000000E+00 0.  1.
          2    1    1    2  501    0 -0.11522946974E+02  0.21389586556E+02  0.71386297892E+02  0.75407534416E+02  0.00000000000E+00 0. -1.
         -2    1    1    2    0  503  0.11522946974E+02 -0.21389586556E+02 -0.57749506432E+01  0.24972840746E+02  0.00000000000E+00 0.  1.
<mgrwt>
<rscale>  2 0.24295940E+02</rscale>
<asrwt>0</asrwt>
<pdfrwt beam="1">  1       21 0.12768594E-01 0.24295940E+02</pdfrwt>
<pdfrwt beam="2">  1       21 0.26745407E-02 0.24295940E+02</pdfrwt>
<totfact> 0.30014014E+07</totfact>
</mgrwt>
</event>
<event>
 4    1  0.2769537E+004  0.2318740E+02  0.7546771E-02  0.1688490E+00
         21   -1    0    0  501  502  0.00000000000E+00  0.00000000000E+00  0.82349782806E+03  0.82349782806E+03  0.00000000000E+00 0.  1.
         21   -1    0    0  502  503 -0.00000000000E+00 -0.00000000000E+00 -0.18230064967E+01  0.18230064967E+01  0.00000000000E+00 0. -1.
          2    1    1    2  501    0 -0.91178612940E+01  0.21319481825E+02  0.74144495490E+03  0.74180743919E+03  0.00000000000E+00 0.  1.
         -2    1    1    2    0  503  0.91178612940E+01 -0.21319481825E+02  0.80229866662E+02  0.83513395359E+02  0.00000000000E+00 0. -1.
<mgrwt>
<rscale>  2 0.23187404E+02</rscale>
<asrwt>0</asrwt>
<pdfrwt beam="1">  1       21 0.12669168E+00 0.23187404E+02</pdfrwt>
<pdfrwt beam="2">  1       21 0.28046320E-03 0.23187404E+02</pdfrwt>
<totfact> 0.10630773E+07</totfact>
</mgrwt>
</event>
<event>
 4    1  0.2769537E+004  0.2730412E+02  0.7546771E-02  0.1629955E+00
         21   -1    0    0  501  502  0.00000000000E+00  0.00000000000E+00  0.52210651203E+02  0.52210651203E+02  0.00000000000E+00 0. -1.
         21   -1    0    0  502  503 -0.00000000000E+00 -0.00000000000E+00 -0.25773090978E+02  0.25773090978E+02  0.00000000000E+00 0.  1.
          2    1    1    2  501    0 -0.22965783240E+02  0.14767791025E+02  0.39258032618E+02  0.47819535512E+02  0.00000000000E+00 0. -1.
         -2    1    1    2    0  503  0.22965783240E+02 -0.14767791025E+02 -0.12820472394E+02  0.30164206669E+02  0.00000000000E+00 0.  1.
<mgrwt>
<rscale>  2 0.27304118E+02</rscale>
<asrwt>0</asrwt>
<pdfrwt beam="1">  1       21 0.80324078E-02 0.27304118E+02</pdfrwt>
<pdfrwt beam="2">  1       21 0.39650909E-02 0.27304118E+02</pdfrwt>
<totfact> 0.35900717E+07</totfact>
</mgrwt>
</event>
<event>
 4    1  0.2769537E+004  0.2307009E+02  0.7546771E-02  0.1690377E+00
         21   -1    0    0  501  502  0.00000000000E+00  0.00000000000E+00  0.19025355214E+02  0.19025355214E+02  0.00000000000E+00 0. -1.
         21   -1    0    0  502  503 -0.00000000000E+00 -0.00000000000E+00 -0.12314317024E+03  0.12314317024E+03  0.00000000000E+00 0.  1.
          2    1    1    2  501    0 -0.15024587115E+02 -0.17506876232E+02  0.10431708109E+02  0.25318954707E+02  0.00000000000E+00 0. -1.
         -2    1    1    2    0  503  0.15024587115E+02  0.17506876232E+02 -0.11454952313E+03  0.11684957074E+03  0.00000000000E+00 0.  1.
<mgrwt>
<rscale>  2 0.23070087E+02</rscale>
<asrwt>0</asrwt>
<pdfrwt beam="1">  1       21 0.29269778E-02 0.23070087E+02</pdfrwt>
<pdfrwt beam="2">  1       21 0.18945102E-01 0.23070087E+02</pdfrwt>
<totfact> 0.13135877E+07</totfact>
</mgrwt>
</event>
<event>
 4    1  0.2769537E+004  0.2047590E+02  0.7546771E-02  0.1736026E+00
         21   -1    0    0  501  502  0.00000000000E+00  0.00000000000E+00  0.57034641973E+02  0.57034641973E+02  0.00000000000E+00 0.  1.
         21   -1    0    0  502  503 -0.00000000000E+00 -0.00000000000E+00 -0.75138092155E+01  0.75138092155E+01  0.00000000000E+00 0. -1.
          2    1    1    2  501    0  0.20316062230E+02  0.25534656279E+01  0.29510965022E+02  0.35918792126E+02  0.00000000000E+00 0.  1.
         -2    1    1    2    0  503 -0.20316062230E+02 -0.25534656279E+01  0.20009867735E+02  0.28629659063E+02  0.00000000000E+00 0. -1.
<mgrwt>
<rscale>  2 0.20475902E+02</rscale>
<asrwt>0</asrwt>
<pdfrwt beam="1">  1       21 0.87745600E-02 0.20475902E+02</pdfrwt>
<pdfrwt beam="2">  1       21 0.11559707E-02 0.20475902E+02</pdfrwt>
<totfact> 0.19191882E+08</totfact>
</mgrwt>
</event>
<event>
 4    1  0.2769537E+004  0.2080996E+02  0.7546771E-02  0.1729685E+00
         21   -1    0    0  501  502  0.00000000000E+00  0.00000000000E+00  0.87405827102E+01  0.87405827102E+01  0.00000000000E+00 0.  1.
         21   -1    0    0  502  503 -0.00000000000E+00 -0.00000000000E+00 -0.61385322725E+02  0.61385322725E+02  0.00000000000E+00 0. -1.
          2    1    1    2  501    0  0.14693749508E+02  0.14735953346E+02 -0.10923356655E+02  0.23502644877E+02  0.00000000000E+00 0.  1.
         -2    1    1    2    0  503 -0.14693749508E+02 -0.14735953346E+02 -0.41721383360E+02  0.46623260559E+02  0.00000000000E+00 0. -1.
<mgrwt>
<rscale>  2 0.20809964E+02</rscale>
<asrwt>0</asrwt>
<pdfrwt beam="1">  1       21 0.13447050E-02 0.20809964E+02</pdfrwt>
<pdfrwt beam="2">  1       21 0.94438958E-02 0.20809964E+02</pdfrwt>
<totfact> 0.13619329E+08</totfact>
</mgrwt>
</event>
<event>
 4    1  0.2769537E+004  0.2118672E+02  0.7546771E-02  0.1722709E+00
         21   -1    0    0  501  502  0.00000000000E+00  0.00000000000E+00  0.16884782940E+03  0.16884782940E+03  0.00000000000E+00 0.  1.
         21   -1    0    0  502  503 -0.00000000000E+00 -0.00000000000E+00 -0.28396146377E+01  0.28396146377E+01  0.00000000000E+00 0. -1.
          2    1    1    2  501    0 -0.15687712204E+02  0.14239825111E+02  0.10468570413E+03  0.10680811572E+03  0.00000000000E+00 0. -1.
         -2    1    1    2    0  503  0.15687712204E+02 -0.14239825111E+02  0.61322510634E+02  0.64879328324E+02  0.00000000000E+00 0.  1.
<mgrwt>
<rscale>  2 0.21186716E+02</rscale>
<asrwt>0</asrwt>
<pdfrwt beam="1">  1       21 0.25976581E-01 0.21186716E+02</pdfrwt>
<pdfrwt beam="2">  1       21 0.43686392E-03 0.21186716E+02</pdfrwt>
<totfact> 0.12973222E+08</totfact>
</mgrwt>
</event>
<event>
 4    1  0.2769537E+004  0.2704970E+02  0.7546771E-02  0.1633195E+00
         21   -1    0    0  501  502  0.00000000000E+00  0.00000000000E+00  0.50756894619E+02  0.50756894619E+02  0.00000000000E+00 0.  1.
         21   -1    0    0  502  503 -0.00000000000E+00 -0.00000000000E+00 -0.36824032066E+02  0.36824032066E+02  0.00000000000E+00 0. -1.
          2    1    1    2  501    0  0.19756851670E+02  0.18475740089E+02  0.41126642433E+02  0.49224860361E+02  0.00000000000E+00 0.  1.
         -2    1    1    2    0  503 -0.19756851670E+02 -0.18475740089E+02 -0.27193779880E+02  0.38356066324E+02  0.00000000000E+00 0. -1.
<mgrwt>
<rscale>  2 0.27049698E+02</rscale>
<asrwt>0</asrwt>
<pdfrwt beam="1">  1       21 0.78087530E-02 0.27049698E+02</pdfrwt>
<pdfrwt beam="2">  1       21 0.56652357E-02 0.27049698E+02</pdfrwt>
<totfact> 0.21216619E+07</totfact>
</mgrwt>
</event>
<event>
 4    1  0.2769537E+004  0.2013809E+02  0.7546771E-02  0.1742596E+00
         21   -1    0    0  501  502  0.00000000000E+00  0.00000000000E+00  0.57813318908E+01  0.57813318908E+01  0.00000000000E+00 0. -1.
         21   -1    0    0  502  503 -0.00000000000E+00 -0.00000000000E+00 -0.73140367966E+02  0.73140367966E+02  0.00000000000E+00 0.  1.
          2    1    1    2  501    0 -0.18843061685E+02 -0.71050548870E+01 -0.25696413767E+02  0.32647334640E+02  0.00000000000E+00 0. -1.
         -2    1    1    2    0  503  0.18843061685E+02  0.71050548870E+01 -0.41662622308E+02  0.46274365217E+02  0.00000000000E+00 0.  1.
<mgrwt>
<rscale>  2 0.20138093E+02</rscale>
<asrwt>0</asrwt>
<pdfrwt beam="1">  1       21 0.88943566E-03 0.20138093E+02</pdfrwt>
<pdfrwt beam="2">  1       21 0.11252365E-01 0.20138093E+02</pdfrwt>
<totfact> 0.18766173E+08</totfact>
</mgrwt>
</event>
<event>
 4    1  0.2769537E+004  0.2237323E+02  0.7546771E-02  0.1701876E+00
         21   -1    0    0  503  502  0.00000000000E+00  0.00000000000E+00  0.34576000548E+01  0.34576000548E+01  0.00000000000E+00 0. -1.
         21   -1    0    0  501  503 -0.00000000000E+00 -0.00000000000E+00 -0.17804517632E+03  0.17804517632E+03  0.00000000000E+00 0.  1.
          2    1    1    2  501    0  0.15184129205E+02  0.16431789178E+02 -0.12652569827E+03  0.12848857458E+03  0.00000000000E+00 0. -1.
         -2    1    1    2    0  502 -0.15184129205E+02 -0.16431789178E+02 -0.48061877989E+02  0.53014201787E+02  0.00000000000E+00 0.  1.
<mgrwt>
<rscale>  2 0.22373231E+02</rscale>
<asrwt>0</asrwt>
<pdfrwt beam="1">  1       21 0.53193827E-03 0.22373231E+02</pdfrwt>
<pdfrwt beam="2">  1       21 0.27391576E-01 0.22373231E+02</pdfrwt>
<totfact> 0.89662664E+07</totfact>
</mgrwt>
</event>
<event>
 4    1  0.2769537E+004  0.2012558E+02  0.7546771E-02  0.1742842E+00
         21   -1    0    0  501  502  0.00000000000E+00  0.00000000000E+00  0.70959081369E+00  0.70959081369E+00  0.00000000000E+00 0.  1.
         21   -1    0    0  502  503 -0.00000000000E+00 -0.00000000000E+00 -0.59163172904E+03  0.59163172904E+03  0.00000000000E+00 0. -1.
          2    1    1    2  501    0  0.15604770944E+02  0.12709448583E+02 -0.23989463726E+03  0.24073735885E+03  0.00000000000E+00 0.  1.
         -2    1    1    2    0  503 -0.15604770944E+02 -0.12709448583E+02 -0.35102750097E+03  0.35160396101E+03  0.00000000000E+00 0. -1.
<mgrwt>
<rscale>  2 0.20125580E+02</rscale>
<asrwt>0</asrwt>
<pdfrwt beam="1">  1       21 0.10916767E-03 0.20125580E+02</pdfrwt>
<pdfrwt beam="2">  1       21 0.91020391E-01 0.20125580E+02</pdfrwt>
<totfact> 0.83214617E+07</totfact>
</mgrwt>
</event>
<event>
 4    1  0.2769537E+004  0.3012621E+02  0.7546771E-02  0.1596698E+00
         21   -1    0    0  501  502  0.00000000000E+00  0.00000000000E+00  0.33369318920E+03  0.33369318920E+03  0.00000000000E+00 0.  1.
         21   -1    0    0  502  503 -0.00000000000E+00 -0.00000000000E+00 -0.27481648974E+01  0.27481648974E+01  0.00000000000E+00 0. -1.
          2    1    1    2  501    0 -0.16905774063E+02  0.24935584817E+02  0.18255387341E+03  0.18502298582E+03  0.00000000000E+00 0. -1.
         -2    1    1    2    0  503  0.16905774063E+02 -0.24935584817E+02  0.14839115089E+03  0.15141836827E+03  0.00000000000E+00 0.  1.
<mgrwt>
<rscale>  2 0.30126211E+02</rscale>
<asrwt>0</asrwt>
<pdfrwt beam="1">  1       21 0.51337382E-01 0.30126211E+02</pdfrwt>
<pdfrwt beam="2">  1       21 0.42279486E-03 0.30126211E+02</pdfrwt>
<totfact> 0.41393393E+07</totfact>
</mgrwt>
</event>
<event>
 4    1  0.2769537E+004  0.2062108E+02  0.7546771E-02  0.1733252E+00
         21   -1    0    0  503  502  0.00000000000E+00  0.00000000000E+00  0.13037413558E+02  0.13037413558E+02  0.00000000000E+00 0.  1.
         21   -1    0    0  501  503 -0.00000000000E+00 -0.00000000000E+00 -0.32812861391E+02  0.32812861391E+02  0.00000000000E+00 0. -1.
          2    1    1    2  501    0  0.20616791683E+02 -0.42064648462E+00 -0.11663162598E+02  0.23690892861E+02  0.00000000000E+00 0.  1.
         -2    1    1    2    0  502 -0.20616791683E+02  0.42064648462E+00 -0.81122852349E+01  0.22159382088E+02  0.00000000000E+00 0. -1.
<mgrwt>
<rscale>  2 0.20621082E+02</rscale>
<asrwt>0</asrwt>
<pdfrwt beam="1">  1       21 0.20057559E-02 0.20621082E+02</pdfrwt>
<pdfrwt beam="2">  1       21 0.50481325E-02 0.20621082E+02</pdfrwt>
<totfact> 0.20309712E+08</totfact>
</mgrwt>
</event>
<event>
 4    1  0.2769537E+004  0.3214123E+02  0.7546771E-02  0.1575559E+00
         21   -1    0    0  503  502  0.00000000000E+00  0.00000000000E+00  0.12498260420E+02  0.12498260420E+02  0.00000000000E+00 0. -1.
         21   -1    0    0  501  503 -0.00000000000E+00 -0.00000000000E+00 -0.84333249883E+02  0.84333249883E+02  0.00000000000E+00 0.  1.
          2    1    1    2  501    0 -0.30032328668E+02  0.11450681633E+02 -0.29090043568E+02  0.43350772887E+02  0.00000000000E+00 0. -1.
         -2    1    1    2    0  502  0.30032328668E+02 -0.11450681633E+02 -0.42744945894E+02  0.53480737416E+02  0.00000000000E+00 0.  1.
<mgrwt>
<rscale>  2 0.32141233E+02</rscale>
<asrwt>0</asrwt>
<pdfrwt beam="1">  1       21 0.19228093E-02 0.32141233E+02</pdfrwt>
<pdfrwt beam="2">  1       21 0.12974346E-01 0.32141233E+02</pdfrwt>
<totfact> 0.51827776E+07</totfact>
</mgrwt>
</event>
<event>
 4    1  0.2769537E+004  0.2309025E+02  0.7546771E-02  0.1690051E+00
         21   -1    0    0  501  502  0.00000000000E+00  0.00000000000E+00  0.57620769296E+03  0.57620769296E+03  0.00000000000E+00 0. -1.
         21   -1    0    0  502  503 -0.00000000000E+00 -0.00000000000E+00 -0.75386348083E+01  0.75386348083E+01  0.00000000000E+00 0.  1.
          2    1    1    2  501    0 -0.23031893006E+02  0.16406607603E+01  0.55770925435E+03  0.55818704057E+03  0.00000000000E+00 0. -1.
         -2    1    1    2    0  503  0.23031893006E+02 -0.16406607603E+01  0.10959803802E+02  0.25559287207E+02  0.00000000000E+00 0.  1.
<mgrwt>
<rscale>  2 0.23090255E+02</rscale>
<asrwt>0</asrwt>
<pdfrwt beam="1">  1       21 0.88647303E-01 0.23090255E+02</pdfrwt>
<pdfrwt beam="2">  1       21 0.11597904E-02 0.23090255E+02</pdfrwt>
<totfact> 0.28616276E+06</totfact>
</mgrwt>
</event>
<event>
 4    1  0.2769537E+004  0.2137286E+02  0.7546771E-02  0.1719329E+00
         21   -1    0    0  503  502  0.00000000000E+00  0.00000000000E+00  0.31051170312E+01  0.31051170312E+01  0.00000000000E+00 0. -1.
         21   -1    0    0  501  503 -0.00000000000E+00 -0.00000000000E+00 -0.46392044130E+03  0.46392044130E+03  0.00000000000E+00 0.  1.
          2    1    1    2  501    0 -0.83126418281E+01  0.19690074428E+02 -0.42337663102E+03  0.42391575901E+03  0.00000000000E+00 0.  1.
         -2    1    1    2    0  502  0.83126418281E+01 -0.19690074428E+02 -0.37438693248E+02  0.43109799318E+02  0.00000000000E+00 0. -1.
<mgrwt>
<rscale>  2 0.21372858E+02</rscale>
<asrwt>0</asrwt>
<pdfrwt beam="1">  1       21 0.47771023E-03 0.21372858E+02</pdfrwt>
<pdfrwt beam="2">  1       21 0.71372388E-01 0.21372858E+02</pdfrwt>
<totfact> 0.16654173E+07</totfact>
</mgrwt>
</event>
<event>
 4    1  0.2769537E+004  0.2652507E+02  0.7546771E-02  0.1640016E+00
         21   -1    0    0  503  502  0.00000000000E+00  0.00000000000E+00  0.10333152995E+02  0.10333152995E+02  0.00000000000E+00 0. -1.
         21   -1    0    0  501  503 -0.00000000000E+00 -0.00000000000E+00 -0.68306920790E+02  0.68306920790E+02  0.00000000000E+00 0.  1.
          2    1    1    2  501    0  0.37265151718E+01  0.26261992496E+02 -0.31205271760E+02  0.40955441040E+02  0.00000000000E+00 0. -1.
         -2    1    1    2    0  502 -0.37265151718E+01 -0.26261992496E+02 -0.26768496035E+02  0.37684632745E+02  0.00000000000E+00 0.  1.
<mgrwt>
<rscale>  2 0.26525067E+02</rscale>
<asrwt>0</asrwt>
<pdfrwt beam="1">  1       21 0.15897158E-02 0.26525067E+02</pdfrwt>
<pdfrwt beam="2">  1       21 0.10508758E-01 0.26525067E+02</pdfrwt>
<totfact> 0.94767139E+07</totfact>
</mgrwt>
</event>
<event>
 4    1  0.2769537E+004  0.4621077E+02  0.7546771E-02  0.1466922E+00
         21   -1    0    0  501  502  0.00000000000E+00  0.00000000000E+00  0.24844794298E+02  0.24844794298E+02  0.00000000000E+00 0. -1.
         21   -1    0    0  502  503 -0.00000000000E+00 -0.00000000000E+00 -0.86017409220E+02  0.86017409220E+02  0.00000000000E+00 0.  1.
          2    1    1    2  501    0  0.17269319759E+02  0.42862639782E+02 -0.32126321226E+02  0.56280865394E+02  0.00000000000E+00 0. -1.
         -2    1    1    2    0  503 -0.17269319759E+02 -0.42862639782E+02 -0.29046293696E+02  0.54581338125E+02  0.00000000000E+00 0.  1.
<mgrwt>
<rscale>  2 0.46210770E+02</rscale>
<asrwt>0</asrwt>
<pdfrwt beam="1">  1       21 0.38222761E-02 0.46210770E+02</pdfrwt>
<pdfrwt beam="2">  1       21 0.13233448E-01 0.46210770E+02</pdfrwt>
<totfact> 0.18041938E+07</totfact>
</mgrwt>
</event>
<event>
 4    1  0.2769537E+004  0.2376710E+02  0.7546771E-02  0.1679369E+00
         21   -1    0    0  503  502  0.00000000000E+00  0.00000000000E+00  0.28482767770E+03  0.28482767770E+03  0.00000000000E+00 0. -1.
         21   -1    0    0  501  503 -0.00000000000E+00 -0.00000000000E+00 -0.22561114108E+01  0.22561114108E+01  0.00000000000E+00 0.  1.
          2    1    1    2  501    0 -0.23047212057E+02 -0.58052696634E+01  0.91363367450E+02  0.94404131537E+02  0.00000000000E+00 0.  1.
         -2    1    1    2    0  502  0.23047212057E+02  0.58052696634E+01  0.19120819884E+03  0.19267965758E+03  0.00000000000E+00 0. -1.
<mgrwt>
<rscale>  2 0.23767102E+02</rscale>
<asrwt>0</asrwt>
<pdfrwt beam="1">  1       21 0.43819614E-01 0.23767102E+02</pdfrwt>
<pdfrwt beam="2">  1       21 0.34709429E-03 0.23767102E+02</pdfrwt>
<totfact> 0.71460803E+07</totfact>
</mgrwt>
</event>
<event>
 4    1  0.2769537E+004  0.3843203E+02  0.7546771E-02  0.1520078E+00
         21   -1    0    0  503  502  0.00000000000E+00  0.00000000000E+00  0.40374635105E+03  0.40374635105E+03  0.00000000000E+00 0. -1.
         21   -1    0    0  501  503 -0.00000000000E+00 -0.00000000000E+00 -0.40836780922E+01  0.40836780922E+01  0.00000000000E+00 0.  1.
          2    1    1    2  501    0  0.29493376828E+02  0.24640648356E+02  0.13401758638E+03  0.13941927516E+03  0.00000000000E+00 0.  1.
         -2    1    1    2    0  502 -0.29493376828E+02 -0.24640648356E+02  0.26564508658E+03  0.26841075398E+03  0.00000000000E+00 0. -1.
<mgrwt>
<rscale>  2 0.38432029E+02</rscale>
<asrwt>0</asrwt>
<pdfrwt beam="1">  1       21 0.62114792E-01 0.38432029E+02</pdfrwt>
<pdfrwt beam="2">  1       21 0.62825849E-03 0.38432029E+02</pdfrwt>
<totfact> 0.16251146E+07</totfact>
</mgrwt>
</event>
<event>
 4    1  0.2769537E+004  0.3340998E+02  0.7546771E-02  0.1563191E+00
         21   -1    0    0  503  502  0.00000000000E+00  0.00000000000E+00  0.17541765497E+03  0.17541765497E+03  0.00000000000E+00 0. -1.
         21   -1    0    0  501  503 -0.00000000000E+00 -0.00000000000E+00 -0.84277904402E+01  0.84277904402E+01  0.00000000000E+00 0.  1.
          2    1    1    2  501    0 -0.27588261626E+02  0.18844490271E+02  0.37998498834E+02  0.50597558308E+02  0.00000000000E+00 0.  1.
         -2    1    1    2    0  502  0.27588261626E+02 -0.18844490271E+02  0.12899136570E+03  0.13324788710E+03  0.00000000000E+00 0. -1.
<mgrwt>
<rscale>  2 0.33409983E+02</rscale>
<asrwt>0</asrwt>
<pdfrwt beam="1">  1       21 0.26987329E-01 0.33409983E+02</pdfrwt>
<pdfrwt beam="2">  1       21 0.12965833E-02 0.33409983E+02</pdfrwt>
<totfact> 0.26385898E+07</totfact>
</mgrwt>
</event>
<event>
 4    1  0.2769537E+004  0.7270218E+02  0.7546771E-02  0.1351138E+00
         21   -1    0    0  501  502  0.00000000000E+00  0.00000000000E+00  0.40727287114E+02  0.40727287114E+02  0.00000000000E+00 0. -1.
         21   -1    0    0  502  503 -0.00000000000E+00 -0.00000000000E+00 -0.20357433432E+03  0.20357433432E+03  0.00000000000E+00 0.  1.
          2    1    1    2  501    0  0.29716550448E+02  0.66351588193E+02 -0.78799114129E+01  0.73127967496E+02  0.00000000000E+00 0. -1.
         -2    1    1    2    0  503 -0.29716550448E+02 -0.66351588193E+02 -0.15496713579E+03  0.17117365394E+03  0.00000000000E+00 0.  1.
<mgrwt>
<rscale>  2 0.72702178E+02</rscale>
<asrwt>0</asrwt>
<pdfrwt beam="1">  1       21 0.62657366E-02 0.72702178E+02</pdfrwt>
<pdfrwt beam="2">  1       21 0.31319128E-01 0.72702178E+02</pdfrwt>
<totfact> 0.17533195E+06</totfact>
</mgrwt>
</event>
<event>
 4    1  0.2769537E+004  0.2291302E+02  0.7546771E-02  0.1692924E+00
         21   -1    0    0  503  502  0.00000000000E+00  0.00000000000E+00  0.40308290530E+02  0.40308290530E+02  0.00000000000E+00 0. -1.
         21   -1    0    0  501  503 -0.00000000000E+00 -0.00000000000E+00 -0.13451686676E+02  0.13451686676E+02  0.00000000000E+00 0.  1.
          2    1    1    2  501    0  0.20633522157E+02  0.99631394929E+01  0.86396849678E+01  0.24487763097E+02  0.00000000000E+00 0. -1.
         -2    1    1    2    0  502 -0.20633522157E+02 -0.99631394929E+01  0.18216918886E+02  0.29272214109E+02  0.00000000000E+00 0.  1.
<mgrwt>
<rscale>  2 0.22913018E+02</rscale>
<asrwt>0</asrwt>
<pdfrwt beam="1">  1       21 0.62012754E-02 0.22913018E+02</pdfrwt>
<pdfrwt beam="2">  1       21 0.20694903E-02 0.22913018E+02</pdfrwt>
<totfact> 0.14404280E+08</totfact>
</mgrwt>
</event>
<event>
 4    1  0.2769537E+004  0.2187209E+02  0.7546771E-02  0.1710474E+00
         21   -1    0    0  501  502  0.00000000000E+00  0.00000000000E+00  0.16402640898E+02  0.16402640898E+02  0.00000000000E+00 0.  1.
         21   -1    0    0  502  503 -0.00000000000E+00 -0.00000000000E+00 -0.29202632723E+02  0.29202632723E+02  0.00000000000E+00 0. -1.
          2    1    1    2  501    0 -0.18334141195E+02  0.11926754117E+02 -0.55848626410E+01  0.22573854076E+02  0.00000000000E+00 0. -1.
         -2    1    1    2    0  503  0.18334141195E+02 -0.11926754117E+02 -0.72151291846E+01  0.23031419545E+02  0.00000000000E+00 0.  1.
<mgrwt>
<rscale>  2 0.21872087E+02</rscale>
<asrwt>0</asrwt>
<pdfrwt beam="1">  1       21 0.25234832E-02 0.21872087E+02</pdfrwt>
<pdfrwt beam="2">  1       21 0.44927127E-02 0.21872087E+02</pdfrwt>
<totfact> 0.17490741E+08</totfact>
</mgrwt>
</event>
<event>
 4    1  0.2769537E+004  0.2908407E+02  0.7546771E-02  0.1608439E+00
         21   -1    0    0  503  502  0.00000000000E+00  0.00000000000E+00  0.37741360185E+02  0.37741360185E+02  0.00000000000E+00 0. -1.
         21   -1    0    0  501  503 -0.00000000000E+00 -0.00000000000E+00 -0.23034691322E+02  0.23034691322E+02  0.00000000000E+00 0.  1.
          2    1    1    2  501    0 -0.28399946704E+02 -0.62710764151E+01  0.23595964274E+01  0.29179634464E+02  0.00000000000E+00 0.  1.
         -2    1    1    2    0  502  0.28399946704E+02  0.62710764151E+01  0.12347072436E+02  0.31596417042E+02  0.00000000000E+00 0. -1.
<mgrwt>
<rscale>  2 0.29084074E+02</rscale>
<asrwt>0</asrwt>
<pdfrwt beam="1">  1       21 0.58063631E-02 0.29084074E+02</pdfrwt>
<pdfrwt beam="2">  1       21 0.35437987E-02 0.29084074E+02</pdfrwt>
<totfact> 0.73895790E+07</totfact>
</mgrwt>
</event>
<event>
 4    1  0.2769537E+004  0.2361819E+02  0.7546771E-02  0.1681681E+00
         21   -1    0    0  503  502  0.00000000000E+00  0.00000000000E+00  0.48865621577E+01  0.48865621577E+01  0.00000000000E+00 0.  1.
         21   -1    0    0  501  503 -0.00000000000E+00 -0.00000000000E+00 -0.14787507300E+03  0.14787507300E+03  0.00000000000E+00 0. -1.
          2    1    1    2  501    0 -0.75679118949E+01  0.22372873409E+02 -0.10796880710E+03  0.11052186237E+03  0.00000000000E+00 0. -1.
         -2    1    1    2    0  502  0.75679118949E+01 -0.22372873409E+02 -0.35019703742E+02  0.42239772788E+02  0.00000000000E+00 0.  1.
<mgrwt>
<rscale>  2 0.23618187E+02</rscale>
<asrwt>0</asrwt>
<pdfrwt beam="1">  1       21 0.75177875E-03 0.23618187E+02</pdfrwt>
<pdfrwt beam="2">  1       21 0.22750013E-01 0.23618187E+02</pdfrwt>
<totfact> 0.75812643E+07</totfact>
</mgrwt>
</event>
<event>
 4    1  0.2769537E+004  0.3761770E+02  0.7546771E-02  0.1526512E+00
         21   -1    0    0  503  502  0.00000000000E+00  0.00000000000E+00  0.46004810047E+03  0.46004810047E+03  0.00000000000E+00 0.  1.
         21   -1    0    0  501  503 -0.00000000000E+00 -0.00000000000E+00 -0.31122646908E+01  0.31122646908E+01  0.00000000000E+00 0. -1.
          2    1    1    2  501    0 -0.70199248792E+01 -0.36956896081E+02  0.20345760988E+03  0.20690599444E+03  0.00000000000E+00 0.  1.
         -2    1    1    2    0  502  0.70199248792E+01  0.36956896081E+02  0.25347822589E+03  0.25625437072E+03  0.00000000000E+00 0. -1.
<mgrwt>
<rscale>  2 0.37617702E+02</rscale>
<asrwt>0</asrwt>
<pdfrwt beam="1">  1       21 0.70776577E-01 0.37617702E+02</pdfrwt>
<pdfrwt beam="2">  1       21 0.47881032E-03 0.37617702E+02</pdfrwt>
<totfact> 0.18585192E+07</totfact>
</mgrwt>
</event>
<event>
 4    1  0.2769537E+004  0.2764472E+02  0.7546771E-02  0.1625684E+00
         21   -1    0    0  501  502  0.00000000000E+00  0.00000000000E+00  0.19748936722E+02  0.19748936722E+02  0.00000000000E+00 0. -1.
         21   -1    0    0  502  503 -0.00000000000E+00 -0.00000000000E+00 -0.41458878664E+02  0.41458878664E+02  0.00000000000E+00 0.  1.
          2    1    1    2  501    0  0.74193027453E+01  0.26630518260E+02 -0.18753508924E+02  0.33405458431E+02  0.00000000000E+00 0.  1.
         -2    1    1    2    0  503 -0.74193027453E+01 -0.26630518260E+02 -0.29564330178E+01  0.27802356954E+02  0.00000000000E+00 0. -1.
<mgrwt>
<rscale>  2 0.27644720E+02</rscale>
<asrwt>0</asrwt>
<pdfrwt beam="1">  1       21 0.30382980E-02 0.27644720E+02</pdfrwt>
<pdfrwt beam="2">  1       21 0.63782890E-02 0.27644720E+02</pdfrwt>
<totfact> 0.79847231E+07</totfact>
</mgrwt>
</event>
<event>
 4    1  0.2769537E+004  0.2094975E+02  0.7546771E-02  0.1727075E+00
         21   -1    0    0  503  502  0.00000000000E+00  0.00000000000E+00  0.62736766255E+02  0.62736766255E+02  0.00000000000E+00 0.  1.
         21   -1    0    0  501  503 -0.00000000000E+00 -0.00000000000E+00 -0.70580825030E+01  0.70580825030E+01  0.00000000000E+00 0. -1.
          2    1    1    2  501    0 -0.20897237556E+02  0.14824001012E+01  0.24560395910E+02  0.32281652603E+02  0.00000000000E+00 0. -1.
         -2    1    1    2    0  502  0.20897237556E+02 -0.14824001012E+01  0.31118287842E+02  0.37513196155E+02  0.00000000000E+00 0.  1.
<mgrwt>
<rscale>  2 0.20949751E+02</rscale>
<asrwt>0</asrwt>
<pdfrwt beam="1">  1       21 0.96518098E-02 0.20949751E+02</pdfrwt>
<pdfrwt beam="2">  1       21 0.10858589E-02 0.20949751E+02</pdfrwt>
<totfact> 0.18165240E+08</totfact>
</mgrwt>
</event>
<event>
 4    1  0.2769537E+004  0.3030670E+02  0.7546771E-02  0.1594723E+00
         21   -1    0    0  501  502  0.00000000000E+00  0.00000000000E+00  0.31415305096E+02  0.31415305096E+02  0.00000000000E+00 0. -1.
         21   -1    0    0  502  503 -0.00000000000E+00 -0.00000000000E+00 -0.86448568801E+02  0.86448568801E+02  0.00000000000E+00 0.  1.
          2    1    1    2  501    0  0.16054602823E+02 -0.25704977227E+02  0.20425011008E+02  0.36546917801E+02  0.00000000000E+00 0. -1.
         -2    1    1    2    0  503 -0.16054602823E+02  0.25704977227E+02 -0.75458274713E+02  0.81316956096E+02  0.00000000000E+00 0.  1.
<mgrwt>
<rscale>  2 0.30306701E+02</rscale>
<asrwt>0</asrwt>
<pdfrwt beam="1">  1       21 0.48331238E-02 0.30306701E+02</pdfrwt>
<pdfrwt beam="2">  1       21 0.13299780E-01 0.30306701E+02</pdfrwt>
<totfact> 0.11490234E+07</totfact>
</mgrwt>
</event>
<event>
 4    1  0.2769537E+004  0.2369656E+02  0.7546771E-02  0.1680462E+00
         21   -1    0    0  503  502  0.00000000000E+00  0.00000000000E+00  0.51893302723E+03  0.51893302723E+03  0.00000000000E+00 0.  1.
         21   -1    0    0  501  503 -0.00000000000E+00 -0.00000000000E+00 -0.20976845390E+01  0.20976845390E+01  0.00000000000E+00 0. -1.
          2    1    1    2  501    0  0.34812615132E+01  0.23439449890E+02  0.77147819790E+02  0.80705099536E+02  0.00000000000E+00 0. -1.
         -2    1    1    2    0  502 -0.34812615132E+01 -0.23439449890E+02  0.43968752290E+03  0.44032561223E+03  0.00000000000E+00 0.  1.
<mgrwt>
<rscale>  2 0.23696561E+02</rscale>
<asrwt>0</asrwt>
<pdfrwt beam="1">  1       21 0.79835748E-01 0.23696561E+02</pdfrwt>
<pdfrwt beam="2">  1       21 0.32272111E-03 0.23696561E+02</pdfrwt>
<totfact> 0.23933693E+07</totfact>
</mgrwt>
</event>
<event>
 4    1  0.2769537E+004  0.2051777E+02  0.7546771E-02  0.1735223E+00
         21   -1    0    0  503  502  0.00000000000E+00  0.00000000000E+00  0.99559215014E+01  0.99559215014E+01  0.00000000000E+00 0. -1.
         21   -1    0    0  501  503 -0.00000000000E+00 -0.00000000000E+00 -0.85747840261E+02  0.85747840261E+02  0.00000000000E+00 0.  1.
          2    1    1    2  501    0  0.30497200173E+01  0.20289849397E+02 -0.71964235860E+02  0.74832012025E+02  0.00000000000E+00 0.  1.
         -2    1    1    2    0  502 -0.30497200173E+01 -0.20289849397E+02 -0.38276828998E+01  0.20871749738E+02  0.00000000000E+00 0. -1.
<mgrwt>
<rscale>  2 0.20517767E+02</rscale>
<asrwt>0</asrwt>
<pdfrwt beam="1">  1       21 0.15316802E-02 0.20517767E+02</pdfrwt>
<pdfrwt beam="2">  1       21 0.13191976E-01 0.20517767E+02</pdfrwt>
<totfact> 0.63988936E+07</totfact>
</mgrwt>
</event>
<event>
 4    1  0.2769537E+004  0.2082587E+02  0.7546771E-02  0.1729386E+00
         21   -1    0    0  501  502  0.00000000000E+00  0.00000000000E+00  0.11394090469E+03  0.11394090469E+03  0.00000000000E+00 0.  1.
         21   -1    0    0  502  503 -0.00000000000E+00 -0.00000000000E+00 -0.78171243574E+01  0.78171243574E+01  0.00000000000E+00 0. -1.
          2    1    1    2  501    0  0.16228966451E+01  0.20762540563E+02  0.96668236743E+02  0.98886120761E+02  0.00000000000E+00 0.  1.
         -2    1    1    2    0  503 -0.16228966451E+01 -0.20762540563E+02  0.94555435923E+01  0.22871908289E+02  0.00000000000E+00 0. -1.
<mgrwt>
<rscale>  2 0.20825871E+02</rscale>
<asrwt>0</asrwt>
<pdfrwt beam="1">  1       21 0.17529369E-01 0.20825871E+02</pdfrwt>
<pdfrwt beam="2">  1       21 0.12026346E-02 0.20825871E+02</pdfrwt>
<totfact> 0.57134555E+07</totfact>
</mgrwt>
</event>
<event>
 4    1  0.2769537E+004  0.2199404E+02  0.7546771E-02  0.1708355E+00
         21   -1    0    0  501  502  0.00000000000E+00  0.00000000000E+00  0.25212556943E+02  0.25212556943E+02  0.00000000000E+00 0. -1.
         21   -1    0    0  502  503 -0.00000000000E+00 -0.00000000000E+00 -0.99213088087E+02  0.99213088087E+02  0.00000000000E+00 0.  1.
          2    1    1    2  501    0 -0.72425574320E+01  0.20767359136E+02  0.18874135638E+02  0.28982250425E+02  0.00000000000E+00 0. -1.
         -2    1    1    2    0  503  0.72425574320E+01 -0.20767359136E+02 -0.92874666783E+02  0.95443394604E+02  0.00000000000E+00 0.  1.
<mgrwt>
<rscale>  2 0.21994041E+02</rscale>
<asrwt>0</asrwt>
<pdfrwt beam="1">  1       21 0.38788549E-02 0.21994041E+02</pdfrwt>
<pdfrwt beam="2">  1       21 0.15263552E-01 0.21994041E+02</pdfrwt>
<totfact> 0.12143395E+07</totfact>
</mgrwt>
</event>
<event>
 4    1  0.2769537E+004  0.3138733E+02  0.7546771E-02  0.1583241E+00
         21   -1    0    0  501  502  0.00000000000E+00  0.00000000000E+00  0.63461250040E+01  0.63461250040E+01  0.00000000000E+00 0.  1.
         21   -1    0    0  502  503 -0.00000000000E+00 -0.00000000000E+00 -0.17964374127E+03  0.17964374127E+03  0.00000000000E+00 0. -1.
          2    1    1    2  501    0 -0.12017140734E+02 -0.28995734705E+02 -0.52372592659E+02  0.61057782177E+02  0.00000000000E+00 0.  1.
         -2    1    1    2    0  503  0.12017140734E+02  0.28995734705E+02 -0.12092502360E+03  0.12493208409E+03  0.00000000000E+00 0. -1.
<mgrwt>
<rscale>  2 0.31387327E+02</rscale>
<asrwt>0</asrwt>
<pdfrwt beam="1">  1       21 0.97632690E-03 0.31387327E+02</pdfrwt>
<pdfrwt beam="2">  1       21 0.27637499E-01 0.31387327E+02</pdfrwt>
<totfact> 0.38478680E+07</totfact>
</mgrwt>
</event>
<event>
 4    1  0.2769537E+004  0.2352361E+02  0.7546771E-02  0.1683161E+00
         21   -1    0    0  503  502  0.00000000000E+00  0.00000000000E+00  0.18702003312E+01  0.18702003312E+01  0.00000000000E+00 0. -1.
         21   -1    0    0  501  503 -0.00000000000E+00 -0.00000000000E+00 -0.29620492278E+03  0.29620492278E+03  0.00000000000E+00 0.  1.
          2    1    1    2  501    0  0.77653964982E+01  0.22204926152E+02 -0.15208213976E+03  0.15389066691E+03  0.00000000000E+00 0. -1.
         -2    1    1    2    0  502 -0.77653964982E+01 -0.22204926152E+02 -0.14225258268E+03  0.14418445619E+03  0.00000000000E+00 0.  1.
<mgrwt>
<rscale>  2 0.23523608E+02</rscale>
<asrwt>0</asrwt>
<pdfrwt beam="1">  1       21 0.28772308E-03 0.23523608E+02</pdfrwt>
<pdfrwt beam="2">  1       21 0.45569996E-01 0.23523608E+02</pdfrwt>
<totfact> 0.86962211E+07</totfact>
</mgrwt>
</event>
<event>
 4    1  0.2769537E+004  0.2067558E+02  0.7546771E-02  0.1732218E+00
         21   -1    0    0  501  502  0.00000000000E+00  0.00000000000E+00  0.34605017106E+01  0.34605017106E+01  0.00000000000E+00 0.  1.
         21   -1    0    0  502  503 -0.00000000000E+00 -0.00000000000E+00 -0.13895298032E+03  0.13895298032E+03  0.00000000000E+00 0. -1.
          2    1    1    2  501    0 -0.19542416014E+02  0.67508137060E+01 -0.44023975034E+02  0.48637330181E+02  0.00000000000E+00 0. -1.
         -2    1    1    2    0  503  0.19542416014E+02 -0.67508137060E+01 -0.91468503574E+02  0.93776151848E+02  0.00000000000E+00 0.  1.
<mgrwt>
<rscale>  2 0.20675578E+02</rscale>
<asrwt>0</asrwt>
<pdfrwt beam="1">  1       21 0.53238505E-03 0.20675578E+02</pdfrwt>
<pdfrwt beam="2">  1       21 0.21377375E-01 0.20675578E+02</pdfrwt>
<totfact> 0.13589492E+08</totfact>
</mgrwt>
</event>
<event>
 4    1  0.2769537E+004  0.4241869E+02  0.7546771E-02  0.1491131E+00
         21   -1    0    0  501  502  0.00000000000E+00  0.00000000000E+00  0.95607227579E+01  0.95607227579E+01  0.00000000000E+00 0. -1.
         21   -1    0    0  502  503 -0.00000000000E+00 -0.00000000000E+00 -0.21602802553E+03  0.21602802553E+03  0.00000000000E+00 0.  1.
          2    1    1    2  501    0 -0.25559378128E+02  0.33853559503E+02 -0.62751882159E+02  0.75743937155E+02  0.00000000000E+00 0.  1.
         -2    1    1    2    0  503  0.25559378128E+02 -0.33853559503E+02 -0.14371542061E+03  0.14984481113E+03  0.00000000000E+00 0. -1.
<mgrwt>
<rscale>  2 0.42418690E+02</rscale>
<asrwt>0</asrwt>
<pdfrwt beam="1">  1       21 0.14708805E-02 0.42418690E+02</pdfrwt>
<pdfrwt beam="2">  1       21 0.33235079E-01 0.42418690E+02</pdfrwt>
<totfact> 0.15334454E+07</totfact>
</mgrwt>
</event>
<event>
 4    1  0.2769537E+004  0.2238470E+02  0.7546771E-02  0.1701682E+00
         21   -1    0    0  501  502  0.00000000000E+00  0.00000000000E+00  0.17912993049E+03  0.17912993049E+03  0.00000000000E+00 0.  1.
         21   -1    0    0  502  503 -0.00000000000E+00 -0.00000000000E+00 -0.18649277050E+02  0.18649277050E+02  0.00000000000E+00 0. -1.
          2    1    1    2  501    0  0.22344305750E+02  0.13442094275E+01  0.17141238422E+03  0.17286781182E+03  0.00000000000E+00 0.  1.
         -2    1    1    2    0  503 -0.22344305750E+02 -0.13442094275E+01 -0.10931730787E+02  0.24911395715E+02  0.00000000000E+00 0. -1.
<mgrwt>
<rscale>  2 0.22384702E+02</rscale>
<asrwt>0</asrwt>
<pdfrwt beam="1">  1       21 0.27558450E-01 0.22384702E+02</pdfrwt>
<pdfrwt beam="2">  1       21 0.28691197E-02 0.22384702E+02</pdfrwt>
<totfact> 0.69488247E+06</totfact>
</mgrwt>
</event>
<event>
 4    1  0.2769537E+004  0.2874483E+02  0.7546771E-02  0.1612392E+00
         21   -1    0    0  501  502  0.00000000000E+00  0.00000000000E+00  0.85294215444E+02  0.85294215444E+02  0.00000000000E+00 0.  1.
         21   -1    0    0  502  503 -0.00000000000E+00 -0.00000000000E+00 -0.23846634290E+02  0.23846634290E+02  0.00000000000E+00 0. -1.
          2    1    1    2  501    0 -0.24973669849E+02  0.14233101333E+02  0.72773805940E+02  0.78245077738E+02  0.00000000000E+00 0.  1.
         -2    1    1    2    0  503  0.24973669849E+02 -0.14233101333E+02 -0.11326224786E+02  0.30895771995E+02  0.00000000000E+00 0. -1.
<mgrwt>
<rscale>  2 0.28744832E+02</rscale>
<asrwt>0</asrwt>
<pdfrwt beam="1">  1       21 0.13122187E-01 0.28744832E+02</pdfrwt>
<pdfrwt beam="2">  1       21 0.36687130E-02 0.28744832E+02</pdfrwt>
<totfact> 0.18075163E+07</totfact>
</mgrwt>
</event>
<event>
 4    1  0.2769537E+004  0.2063788E+02  0.7546771E-02  0.1732933E+00
         21   -1    0    0  503  502  0.00000000000E+00  0.00000000000E+00  0.15820575901E+01  0.15820575901E+01  0.00000000000E+00 0. -1.
         21   -1    0    0  501  503 -0.00000000000E+00 -0.00000000000E+00 -0.27311060998E+03  0.27311060998E+03  0.00000000000E+00 0.  1.
          2    1    1    2  501    0  0.32496787980E+01 -0.20380418848E+02 -0.11937179752E+03  0.12114267591E+03  0.00000000000E+00 0.  1.
         -2    1    1    2    0  502 -0.32496787980E+01  0.20380418848E+02 -0.15215675487E+03  0.15354999165E+03  0.00000000000E+00 0. -1.
<mgrwt>
<rscale>  2 0.20637875E+02</rscale>
<asrwt>0</asrwt>
<pdfrwt beam="1">  1       21 0.24339334E-03 0.20637875E+02</pdfrwt>
<pdfrwt beam="2">  1       21 0.42017040E-01 0.20637875E+02</pdfrwt>
<totfact> 0.12493189E+08</totfact>
</mgrwt>
</event>
<event>
 4    1  0.2769537E+004  0.2569015E+02  0.7546771E-02  0.1651282E+00
         21   -1    0    0  501  502  0.00000000000E+00  0.00000000000E+00  0.54756745105E+03  0.54756745105E+03  0.00000000000E+00 0.  1.
         21   -1    0    0  502  503 -0.00000000000E+00 -0.00000000000E+00 -0.34954723134E+01  0.34954723134E+01  0.00000000000E+00 0. -1.
          2    1    1    2  501    0 -0.12945275199E+02  0.22190166074E+02  0.49506031965E+03  0.49572644040E+03  0.00000000000E+00 0.  1.
         -2    1    1    2    0  503  0.12945275199E+02 -0.22190166074E+02  0.49011659094E+02  0.55336482970E+02  0.00000000000E+00 0. -1.
<mgrwt>
<rscale>  2 0.25690146E+02</rscale>
<asrwt>0</asrwt>
<pdfrwt beam="1">  1       21 0.84241078E-01 0.25690146E+02</pdfrwt>
<pdfrwt beam="2">  1       21 0.53776541E-03 0.25690146E+02</pdfrwt>
<totfact> 0.10220773E+07</totfact>
</mgrwt>
</event>
<event>
 4    1  0.2769537E+004  0.2340563E+02  0.7546771E-02  0.1685018E+00
         21   -1    0    0  503  502  0.00000000000E+00  0.00000000000E+00  0.23419865833E+02  0.23419865833E+02  0.00000000000E+00 0.  1.
         21   -1    0    0  501  503 -0.00000000000E+00 -0.00000000000E+00 -0.23402701489E+02  0.23402701489E+02  0.00000000000E+00 0. -1.
          2    1    1    2  501    0 -0.94834117829E+01 -0.21398327875E+02  0.52296931055E+00  0.23411472226E+02  0.00000000000E+00 0. -1.
         -2    1    1    2    0  502  0.94834117829E+01  0.21398327875E+02 -0.50580496622E+00  0.23411095095E+02  0.00000000000E+00 0.  1.
<mgrwt>
<rscale>  2 0.23405630E+02</rscale>
<asrwt>0</asrwt>
<pdfrwt beam="1">  1       21 0.36030563E-02 0.23405630E+02</pdfrwt>
<pdfrwt beam="2">  1       21 0.36004156E-02 0.23405630E+02</pdfrwt>
<totfact> 0.14540013E+08</totfact>
</mgrwt>
</event>
<event>
 4    1  0.2769537E+004  0.2614498E+02  0.7546771E-02  0.1645081E+00
         21   -1    0    0  501  502  0.00000000000E+00  0.00000000000E+00  0.31967841904E+02  0.31967841904E+02  0.00000000000E+00 0. -1.
         21   -1    0    0  502  503 -0.00000000000E+00 -0.00000000000E+00 -0.70240196490E+02  0.70240196490E+02  0.00000000000E+00 0.  1.
          2    1    1    2  501    0 -0.23999825808E+02  0.10371505127E+02  0.23485218346E+02  0.35144206324E+02  0.00000000000E+00 0. -1.
         -2    1    1    2    0  503  0.23999825808E+02 -0.10371505127E+02 -0.61757572932E+02  0.67063832070E+02  0.00000000000E+00 0.  1.
<mgrwt>
<rscale>  2 0.26144976E+02</rscale>
<asrwt>0</asrwt>
<pdfrwt beam="1">  1       21 0.49181295E-02 0.26144976E+02</pdfrwt>
<pdfrwt beam="2">  1       21 0.10806184E-01 0.26144976E+02</pdfrwt>
<totfact> 0.15445571E+07</totfact>
</mgrwt>
</event>
<event>
 4    1  0.2769537E+004  0.2031535E+02  0.7546771E-02  0.1739129E+00
         21   -1    0    0  501  502  0.00000000000E+00  0.00000000000E+00  0.18103940308E+03  0.18103940308E+03  0.00000000000E+00 0. -1.
         21   -1    0    0  502  503 -0.00000000000E+00 -0.00000000000E+00 -0.22796955021E+01  0.22796955021E+01  0.00000000000E+00 0.  1.
          2    1    1    2  501    0 -0.11485445897E+02 -0.16757030732E+02  0.89533950184E+02  0.91809813102E+02  0.00000000000E+00 0.  1.
         -2    1    1    2    0  503  0.11485445897E+02  0.16757030732E+02  0.89225757392E+02  0.91509285477E+02  0.00000000000E+00 0. -1.
<mgrwt>
<rscale>  2 0.20315352E+02</rscale>
<asrwt>0</asrwt>
<pdfrwt beam="1">  1       21 0.27852204E-01 0.20315352E+02</pdfrwt>
<pdfrwt beam="2">  1       21 0.35072253E-03 0.20315352E+02</pdfrwt>
<totfact> 0.15592442E+08</totfact>
</mgrwt>
</event>
<event>
 4    1  0.2769537E+004  0.2625344E+02  0.7546771E-02  0.1643625E+00
         21   -1    0    0  501  502  0.00000000000E+00  0.00000000000E+00  0.31105388577E+02  0.31105388577E+02  0.00000000000E+00 0. -1.
         21   -1    0    0  502  503 -0.00000000000E+00 -0.00000000000E+00 -0.48789176343E+02  0.48789176343E+02  0.00000000000E+00 0.  1.
          2    1    1    2  501    0 -0.80188751845E+01 -0.24998810088E+02  0.20671431017E+02  0.33414830919E+02  0.00000000000E+00 0. -1.
         -2    1    1    2    0  503  0.80188751845E+01  0.24998810088E+02 -0.38355218782E+02  0.46479734002E+02  0.00000000000E+00 0.  1.
<mgrwt>
<rscale>  2 0.26253435E+02</rscale>
<asrwt>0</asrwt>
<pdfrwt beam="1">  1       21 0.47854444E-02 0.26253435E+02</pdfrwt>
<pdfrwt beam="2">  1       21 0.75060271E-02 0.26253435E+02</pdfrwt>
<totfact> 0.29487655E+07</totfact>
</mgrwt>
</event>
<event>
 4    1  0.2769537E+004  0.2014906E+02  0.7546771E-02  0.1742380E+00
         21   -1    0    0  501  502  0.00000000000E+00  0.00000000000E+00  0.14561309957E+03  0.14561309957E+03  0.00000000000E+00 0. -1.
         21   -1    0    0  502  503 -0.00000000000E+00 -0.00000000000E+00 -0.27913735857E+01  0.27913735857E+01  0.00000000000E+00 0.  1.
          2    1    1    2  501    0  0.76035403428E+00 -0.20134713361E+02  0.73949452050E+02  0.76645327835E+02  0.00000000000E+00 0.  1.
         -2    1    1    2    0  503 -0.76035403428E+00  0.20134713361E+02  0.68872273936E+02  0.71759145323E+02  0.00000000000E+00 0. -1.
<mgrwt>
<rscale>  2 0.20149065E+02</rscale>
<asrwt>0</asrwt>
<pdfrwt beam="1">  1       21 0.22402009E-01 0.20149065E+02</pdfrwt>
<pdfrwt beam="2">  1       21 0.42944221E-03 0.20149065E+02</pdfrwt>
<totfact> 0.17027593E+08</totfact>
</mgrwt>
</event>
<event>
 4    1  0.2769537E+004  0.2291281E+02  0.7546771E-02  0.1692927E+00
         21   -1    0    0  501  502  0.00000000000E+00  0.00000000000E+00  0.38640800765E+01  0.38640800765E+01  0.00000000000E+00 0. -1.
         21   -1    0    0  502  503 -0.00000000000E+00 -0.00000000000E+00 -0.18474350826E+03  0.18474350826E+03  0.00000000000E+00 0.  1.
          2    1    1    2  501    0  0.10732913973E+02 -0.20243557433E+02 -0.41933301985E+02  0.47784923096E+02  0.00000000000E+00 0. -1.
         -2    1    1    2    0  503 -0.10732913973E+02  0.20243557433E+02 -0.13894612620E+03  0.14082266524E+03  0.00000000000E+00 0.  1.
<mgrwt>
<rscale>  2 0.22912814E+02</rscale>
<asrwt>0</asrwt>
<pdfrwt beam="1">  1       21 0.59447376E-03 0.22912814E+02</pdfrwt>
<pdfrwt beam="2">  1       21 0.28422083E-01 0.22912814E+02</pdfrwt>
<totfact> 0.71624710E+07</totfact>
</mgrwt>
</event>
<event>
 4    1  0.2769537E+004  0.2756180E+02  0.7546771E-02  0.1626717E+00
         21   -1    0    0  501  502  0.00000000000E+00  0.00000000000E+00  0.10012896481E+02  0.10012896481E+02  0.00000000000E+00 0.  1.
         21   -1    0    0  502  503 -0.00000000000E+00 -0.00000000000E+00 -0.26264574389E+03  0.26264574389E+03  0.00000000000E+00 0. -1.
          2    1    1    2  501    0  0.25137833540E+02  0.11302309899E+02 -0.11350987397E+02  0.29807680202E+02  0.00000000000E+00 0.  1.
         -2    1    1    2    0  503 -0.25137833540E+02 -0.11302309899E+02 -0.24128186001E+03  0.24285096017E+03  0.00000000000E+00 0. -1.
<mgrwt>
<rscale>  2 0.27561801E+02</rscale>
<asrwt>0</asrwt>
<pdfrwt beam="1">  1       21 0.15404458E-02 0.27561801E+02</pdfrwt>
<pdfrwt beam="2">  1       21 0.40407032E-01 0.27561801E+02</pdfrwt>
<totfact> 0.92516509E+06</totfact>
</mgrwt>
</event>
<event>
 4    1  0.2769537E+004  0.2185972E+02  0.7546771E-02  0.1710689E+00
         21   -1    0    0  503  502  0.00000000000E+00  0.00000000000E+00  0.51966725278E+02  0.51966725278E+02  0.00000000000E+00 0. -1.
         21   -1    0    0  501  503 -0.00000000000E+00 -0.00000000000E+00 -0.17247561913E+02  0.17247561913E+02  0.00000000000E+00 0.  1.
          2    1    1    2  501    0 -0.17523048601E+02 -0.13068675971E+02 -0.62866498319E+01  0.22745757627E+02  0.00000000000E+00 0.  1.
         -2    1    1    2    0  502  0.17523048601E+02  0.13068675971E+02  0.41005813197E+02  0.46468529564E+02  0.00000000000E+00 0. -1.
<mgrwt>
<rscale>  2 0.21859724E+02</rscale>
<asrwt>0</asrwt>
<pdfrwt beam="1">  1       21 0.79948808E-02 0.21859724E+02</pdfrwt>
<pdfrwt beam="2">  1       21 0.26534711E-02 0.21859724E+02</pdfrwt>
<totfact> 0.64220425E+07</totfact>
</mgrwt>
</event>
<event>
 4    1  0.2769537E+004  0.3020171E+02  0.7546771E-02  0.1595870E+00
         21   -1    0    0  501  502  0.00000000000E+00  0.00000000000E+00  0.15298748434E+01  0.15298748434E+01  0.00000000000E+00 0.  1.
         21   -1    0    0  502  503 -0.00000000000E+00 -0.00000000000E+00 -0.96935755131E+03  0.96935755131E+03  0.00000000000E+00 0. -1.
          2    1    1    2  501    0  0.22146701121E+02  0.20534537137E+02 -0.18273063395E+03  0.18520968703E+03  0.00000000000E+00 0.  1.
         -2    1    1    2    0  503 -0.22146701121E+02 -0.20534537137E+02 -0.78509704251E+03  0.78567773912E+03  0.00000000000E+00 0. -1.
<mgrwt>
<rscale>  2 0.30201715E+02</rscale>
<asrwt>0</asrwt>
<pdfrwt beam="1">  1       21 0.23536605E-03 0.30201715E+02</pdfrwt>
<pdfrwt beam="2">  1       21 0.14913149E+00 0.30201715E+02</pdfrwt>
<totfact> 0.97089557E+06</totfact>
</mgrwt>
</event>
<event>
 4    1  0.2769537E+004  0.3628232E+02  0.7546771E-02  0.1537499E+00
         21   -1    0    0  501  502  0.00000000000E+00  0.00000000000E+00  0.21794469752E+03  0.21794469752E+03  0.00000000000E+00 0. -1.
         21   -1    0    0  502  503 -0.00000000000E+00 -0.00000000000E+00 -0.61712356772E+01  0.61712356772E+01  0.00000000000E+00 0.  1.
          2    1    1    2  501    0  0.36260559273E+02 -0.12562847138E+01  0.89551419595E+02  0.96622270526E+02  0.00000000000E+00 0.  1.
         -2    1    1    2    0  503 -0.36260559273E+02  0.12562847138E+01  0.12222204225E+03  0.12749366267E+03  0.00000000000E+00 0. -1.
<mgrwt>
<rscale>  2 0.36282315E+02</rscale>
<asrwt>0</asrwt>
<pdfrwt beam="1">  1       21 0.33529948E-01 0.36282315E+02</pdfrwt>
<pdfrwt beam="2">  1       21 0.94942104E-03 0.36282315E+02</pdfrwt>
<totfact> 0.28838035E+07</totfact>
</mgrwt>
</event>
<event>
 4    1  0.2769537E+004  0.2503283E+02  0.7546771E-02  0.1660531E+00
         21   -1    0    0  503  502  0.00000000000E+00  0.00000000000E+00  0.75105399421E+01  0.75105399421E+01  0.00000000000E+00 0. -1.
         21   -1    0    0  501  503 -0.00000000000E+00 -0.00000000000E+00 -0.22626245921E+03  0.22626245921E+03  0.00000000000E+00 0.  1.
          2    1    1    2  501    0  0.38117545051E+01  0.24740916294E+02 -0.20224348073E+03  0.20378681976E+03  0.00000000000E+00 0.  1.
         -2    1    1    2    0  502 -0.38117545051E+01 -0.24740916294E+02 -0.16508438542E+02  0.29986179393E+02  0.00000000000E+00 0. -1.
<mgrwt>
<rscale>  2 0.25032827E+02</rscale>
<asrwt>0</asrwt>
<pdfrwt beam="1">  1       21 0.11554677E-02 0.25032827E+02</pdfrwt>
<pdfrwt beam="2">  1       21 0.34809610E-01 0.25032827E+02</pdfrwt>
<totfact> 0.18646195E+07</totfact>
</mgrwt>
</event>
<event>
 4    1  0.2769537E+004  0.2185890E+02  0.7546771E-02  0.1710704E+00
         21   -1    0    0  503  502  0.00000000000E+00  0.00000000000E+00  0.45816943914E+01  0.45816943914E+01  0.00000000000E+00 0. -1.
         21   -1    0    0  501  503 -0.00000000000E+00 -0.00000000000E+00 -0.12302301677E+03  0.12302301677E+03  0.00000000000E+00 0.  1.
          2    1    1    2  501    0 -0.18408448088E+02 -0.11787299586E+02 -0.84119642511E+02  0.86913322619E+02  0.00000000000E+00 0.  1.
         -2    1    1    2    0  502  0.18408448088E+02  0.11787299586E+02 -0.34321679866E+02  0.40691388541E+02  0.00000000000E+00 0. -1.
<mgrwt>
<rscale>  2 0.21858897E+02</rscale>
<asrwt>0</asrwt>
<pdfrwt beam="1">  1       21 0.70487598E-03 0.21858897E+02</pdfrwt>
<pdfrwt beam="2">  1       21 0.18926620E-01 0.21858897E+02</pdfrwt>
<totfact> 0.11272476E+08</totfact>
</mgrwt>
</event>
<event>
 4    1  0.2769537E+004  0.3031057E+02  0.7546771E-02  0.1594681E+00
         21   -1    0    0  503  502  0.00000000000E+00  0.00000000000E+00  0.59325469381E+01  0.59325469381E+01  0.00000000000E+00 0. -1.
         21   -1    0    0  501  503 -0.00000000000E+00 -0.00000000000E+00 -0.16224026830E+03  0.16224026830E+03  0.00000000000E+00 0.  1.
          2    1    1    2  501    0 -0.26643594239E+02  0.14451626841E+02 -0.96084721004E+02  0.10075219225E+03  0.00000000000E+00 0.  1.
         -2    1    1    2    0  502  0.26643594239E+02 -0.14451626841E+02 -0.60223000358E+02  0.67420622991E+02  0.00000000000E+00 0. -1.
<mgrwt>
<rscale>  2 0.30310570E+02</rscale>
<asrwt>0</asrwt>
<pdfrwt beam="1">  1       21 0.91269946E-03 0.30310570E+02</pdfrwt>
<pdfrwt beam="2">  1       21 0.24960043E-01 0.30310570E+02</pdfrwt>
<totfact> 0.50905004E+07</totfact>
</mgrwt>
</event>
<event>
 4    1  0.2769537E+004  0.5128469E+02  0.7546771E-02  0.1438533E+00
         21   -1    0    0  503  502  0.00000000000E+00  0.00000000000E+00  0.27506995761E+01  0.27506995761E+01  0.00000000000E+00 0. -1.
         21   -1    0    0  501  503 -0.00000000000E+00 -0.00000000000E+00 -0.12315354280E+04  0.12315354280E+04  0.00000000000E+00 0.  1.
          2    1    1    2  501    0  0.25092344326E+02 -0.44726879192E+02 -0.90621700715E+03  0.90766700034E+03  0.00000000000E+00 0.  1.
         -2    1    1    2    0  502 -0.25092344326E+02  0.44726879192E+02 -0.32256772129E+03  0.32661912725E+03  0.00000000000E+00 0. -1.
<mgrwt>
<rscale>  2 0.51284690E+02</rscale>
<asrwt>0</asrwt>
<pdfrwt beam="1">  1       21 0.42318557E-03 0.51284690E+02</pdfrwt>
<pdfrwt beam="2">  1       21 0.18946653E+00 0.51284690E+02</pdfrwt>
<totfact> 0.22980576E+06</totfact>
</mgrwt>
</event>
<event>
 4    1  0.2769537E+004  0.3307896E+02  0.7546771E-02  0.1566353E+00
         21   -1    0    0  501  502  0.00000000000E+00  0.00000000000E+00  0.22536002315E+02  0.22536002315E+02  0.00000000000E+00 0.  1.
         21   -1    0    0  502  503 -0.00000000000E+00 -0.00000000000E+00 -0.22352561210E+03  0.22352561210E+03  0.00000000000E+00 0. -1.
          2    1    1    2  501    0  0.10517564647E+02  0.31362375530E+02  0.83565312464E+01  0.34118167879E+02  0.00000000000E+00 0.  1.
         -2    1    1    2    0  503 -0.10517564647E+02 -0.31362375530E+02 -0.20934614103E+03  0.21194344653E+03  0.00000000000E+00 0. -1.
<mgrwt>
<rscale>  2 0.33078963E+02</rscale>
<asrwt>0</asrwt>
<pdfrwt beam="1">  1       21 0.34670772E-02 0.33078963E+02</pdfrwt>
<pdfrwt beam="2">  1       21 0.34388556E-01 0.33078963E+02</pdfrwt>
<totfact> 0.36334868E+06</totfact>
</mgrwt>
</event>
<event>
 4    1  0.2769537E+004  0.2180481E+02  0.7546771E-02  0.1711650E+00
         21   -1    0    0  503  502  0.00000000000E+00  0.00000000000E+00  0.64929634241E+02  0.64929634241E+02  0.00000000000E+00 0. -1.
         21   -1    0    0  501  503 -0.00000000000E+00 -0.00000000000E+00 -0.10494905315E+02  0.10494905315E+02  0.00000000000E+00 0.  1.
          2    1    1    2  501    0 -0.15432555932E+02  0.15404092648E+02  0.64832736400E+01  0.22748245866E+02  0.00000000000E+00 0.  1.
         -2    1    1    2    0  502  0.15432555932E+02 -0.15404092648E+02  0.47951455286E+02  0.52676293690E+02  0.00000000000E+00 0. -1.
<mgrwt>
<rscale>  2 0.21804813E+02</rscale>
<asrwt>0</asrwt>
<pdfrwt beam="1">  1       21 0.99891743E-02 0.21804813E+02</pdfrwt>
<pdfrwt beam="2">  1       21 0.16146009E-02 0.21804813E+02</pdfrwt>
<totfact> 0.95425188E+07</totfact>
</mgrwt>
</event>
<event>
 4    1  0.2769537E+004  0.3067005E+02  0.7546771E-02  0.1590798E+00
         21   -1    0    0  501  502  0.00000000000E+00  0.00000000000E+00  0.32640674759E+02  0.32640674759E+02  0.00000000000E+00 0.  1.
         21   -1    0    0  502  503 -0.00000000000E+00 -0.00000000000E+00 -0.15351258583E+03  0.15351258583E+03  0.00000000000E+00 0. -1.
          2    1    1    2  501    0  0.28935048418E+02  0.10169308507E+02  0.23450485368E+02  0.38607993039E+02  0.00000000000E+00 0.  1.
         -2    1    1    2    0  503 -0.28935048418E+02 -0.10169308507E+02 -0.14432239644E+03  0.14754526755E+03  0.00000000000E+00 0. -1.
<mgrwt>
<rscale>  2 0.30670048E+02</rscale>
<asrwt>0</asrwt>
<pdfrwt beam="1">  1       21 0.50216422E-02 0.30670048E+02</pdfrwt>
<pdfrwt beam="2">  1       21 0.23617321E-01 0.30670048E+02</pdfrwt>
<totfact> 0.39678088E+06</totfact>
</mgrwt>
</event>
<event>
 4    1  0.2769537E+004  0.2220894E+02  0.7546771E-02  0.1704663E+00
         21   -1    0    0  501  502  0.00000000000E+00  0.00000000000E+00  0.19086064138E+01  0.19086064138E+01  0.00000000000E+00 0. -1.
         21   -1    0    0  502  503 -0.00000000000E+00 -0.00000000000E+00 -0.27837115027E+03  0.27837115027E+03  0.00000000000E+00 0.  1.
          2    1    1    2  501    0  0.14381495511E+02  0.16923638156E+02 -0.17574141912E+03  0.17713916375E+03  0.00000000000E+00 0. -1.
         -2    1    1    2    0  503 -0.14381495511E+02 -0.16923638156E+02 -0.10072112474E+03  0.10314059293E+03  0.00000000000E+00 0.  1.
<mgrwt>
<rscale>  2 0.22208938E+02</rscale>
<asrwt>0</asrwt>
<pdfrwt beam="1">  1       21 0.29363168E-03 0.22208938E+02</pdfrwt>
<pdfrwt beam="2">  1       21 0.42826343E-01 0.22208938E+02</pdfrwt>
<totfact> 0.93649756E+07</totfact>
</mgrwt>
</event>
<event>
 4    1  0.2769537E+004  0.4462094E+02  0.7546771E-02  0.1476722E+00
         21   -1    0    0  501  502  0.00000000000E+00  0.00000000000E+00  0.63766658561E+02  0.63766658561E+02  0.00000000000E+00 0. -1.
         21   -1    0    0  502  503 -0.00000000000E+00 -0.00000000000E+00 -0.40410555201E+02  0.40410555201E+02  0.00000000000E+00 0.  1.
          2    1    1    2  501    0  0.37056687667E+02 -0.24856193112E+02  0.36513941566E+02  0.57656711366E+02  0.00000000000E+00 0.  1.
         -2    1    1    2    0  503 -0.37056687667E+02  0.24856193112E+02 -0.13157838205E+02  0.46520502396E+02  0.00000000000E+00 0. -1.
<mgrwt>
<rscale>  2 0.44620942E+02</rscale>
<asrwt>0</asrwt>
<pdfrwt beam="1">  1       21 0.98102552E-02 0.44620942E+02</pdfrwt>
<pdfrwt beam="2">  1       21 0.62170085E-02 0.44620942E+02</pdfrwt>
<totfact> 0.13567259E+07</totfact>
</mgrwt>
</event>
<event>
 4    1  0.2769537E+004  0.2047474E+02  0.7546771E-02  0.1736049E+00
         21   -1    0    0  503  502  0.00000000000E+00  0.00000000000E+00  0.15973504208E+04  0.15973504208E+04  0.00000000000E+00 0.  1.
         21   -1    0    0  501  503 -0.00000000000E+00 -0.00000000000E+00 -0.31151767529E+00  0.31151767529E+00  0.00000000000E+00 0. -1.
          2    1    1    2  501    0 -0.16207723520E+02 -0.12510986206E+02  0.48146217993E+03  0.48189733946E+03  0.00000000000E+00 0. -1.
         -2    1    1    2    0  502  0.16207723520E+02  0.12510986206E+02  0.11155767232E+04  0.11157645990E+04  0.00000000000E+00 0.  1.
<mgrwt>
<rscale>  2 0.20474742E+02</rscale>
<asrwt>0</asrwt>
<pdfrwt beam="1">  1       21 0.24573966E+00 0.20474742E+02</pdfrwt>
<pdfrwt beam="2">  1       21 0.47927075E-04 0.20474742E+02</pdfrwt>
<totfact> 0.24958006E+07</totfact>
</mgrwt>
</event>
<event>
 4    1  0.2769537E+004  0.2298529E+02  0.7546771E-02  0.1691749E+00
         21   -1    0    0  501  502  0.00000000000E+00  0.00000000000E+00  0.47966101832E+02  0.47966101832E+02  0.00000000000E+00 0.  1.
         21   -1    0    0  502  503 -0.00000000000E+00 -0.00000000000E+00 -0.13888474640E+02  0.13888474640E+02  0.00000000000E+00 0. -1.
          2    1    1    2  501    0  0.26923379365E+01  0.22827064837E+02  0.31107532280E+02  0.38678186839E+02  0.00000000000E+00 0.  1.
         -2    1    1    2    0  503 -0.26923379365E+01 -0.22827064837E+02  0.29700949124E+01  0.23176389633E+02  0.00000000000E+00 0. -1.
<mgrwt>
<rscale>  2 0.22985290E+02</rscale>
<asrwt>0</asrwt>
<pdfrwt beam="1">  1       21 0.73794002E-02 0.22985290E+02</pdfrwt>
<pdfrwt beam="2">  1       21 0.21366884E-02 0.22985290E+02</pdfrwt>
<totfact> 0.10362320E+08</totfact>
</mgrwt>
</event>
<event>
 4    1  0.2769537E+004  0.2237884E+02  0.7546771E-02  0.1701781E+00
         21   -1    0    0  503  502  0.00000000000E+00  0.00000000000E+00  0.10494435163E+01  0.10494435163E+01  0.00000000000E+00 0.  1.
         21   -1    0    0  501  503 -0.00000000000E+00 -0.00000000000E+00 -0.52458881813E+03  0.52458881813E+03  0.00000000000E+00 0. -1.
          2    1    1    2  501    0 -0.72870873773E+01 -0.21159175411E+02 -0.34074788608E+03  0.34148196763E+03  0.00000000000E+00 0.  1.
         -2    1    1    2    0  502  0.72870873773E+01  0.21159175411E+02 -0.18279148853E+03  0.18415629401E+03  0.00000000000E+00 0. -1.
<mgrwt>
<rscale>  2 0.22378837E+02</rscale>
<asrwt>0</asrwt>
<pdfrwt beam="1">  1       21 0.16145249E-03 0.22378837E+02</pdfrwt>
<pdfrwt beam="2">  1       21 0.80706152E-01 0.22378837E+02</pdfrwt>
<totfact> 0.63001716E+07</totfact>
</mgrwt>
</event>
<event>
 4    1  0.2769537E+004  0.3117815E+02  0.7546771E-02  0.1585419E+00
         21   -1    0    0  503  502  0.00000000000E+00  0.00000000000E+00  0.92342499843E+01  0.92342499843E+01  0.00000000000E+00 0.  1.
         21   -1    0    0  501  503 -0.00000000000E+00 -0.00000000000E+00 -0.20247683280E+03  0.20247683280E+03  0.00000000000E+00 0. -1.
          2    1    1    2  501    0 -0.28027655090E+02  0.13657521028E+02 -0.16996743219E+03  0.17280337189E+03  0.00000000000E+00 0. -1.
         -2    1    1    2    0  502  0.28027655090E+02 -0.13657521028E+02 -0.23275150623E+02  0.38907710894E+02  0.00000000000E+00 0.  1.
<mgrwt>
<rscale>  2 0.31178155E+02</rscale>
<asrwt>0</asrwt>
<pdfrwt beam="1">  1       21 0.14206539E-02 0.31178155E+02</pdfrwt>
<pdfrwt beam="2">  1       21 0.31150281E-01 0.31178155E+02</pdfrwt>
<totfact> 0.17409566E+07</totfact>
</mgrwt>
</event>
<event>
 4    1  0.2769537E+004  0.4160917E+02  0.7546771E-02  0.1496693E+00
         21   -1    0    0  501  502  0.00000000000E+00  0.00000000000E+00  0.89890323980E+02  0.89890323980E+02  0.00000000000E+00 0.  1.
         21   -1    0    0  502  503 -0.00000000000E+00 -0.00000000000E+00 -0.40833098195E+02  0.40833098195E+02  0.00000000000E+00 0. -1.
          2    1    1    2  501    0 -0.27236106493E+02  0.31456591370E+02  0.72036923540E+02  0.83190390014E+02  0.00000000000E+00 0.  1.
         -2    1    1    2    0  503  0.27236106493E+02 -0.31456591370E+02 -0.22979697755E+02  0.47533032161E+02  0.00000000000E+00 0. -1.
<mgrwt>
<rscale>  2 0.41609165E+02</rscale>
<asrwt>0</asrwt>
<pdfrwt beam="1">  1       21 0.13829281E-01 0.41609165E+02</pdfrwt>
<pdfrwt beam="2">  1       21 0.62820151E-02 0.41609165E+02</pdfrwt>
<totfact> 0.73427778E+06</totfact>
</mgrwt>
</event>
<event>
 4    1  0.2769537E+004  0.2523411E+02  0.7546771E-02  0.1657662E+00
         21   -1    0    0  503  502  0.00000000000E+00  0.00000000000E+00  0.83230610499E+02  0.83230610499E+02  0.00000000000E+00 0.  1.
         21   -1    0    0  501  503 -0.00000000000E+00 -0.00000000000E+00 -0.12987524930E+02  0.12987524930E+02  0.00000000000E+00 0. -1.
          2    1    1    2  501    0 -0.24959634728E+02  0.37116993652E+01  0.42817634917E+01  0.25594795887E+02  0.00000000000E+00 0. -1.
         -2    1    1    2    0  502  0.24959634728E+02 -0.37116993652E+01  0.65961322077E+02  0.70623339542E+02  0.00000000000E+00 0.  1.
<mgrwt>
<rscale>  2 0.25234105E+02</rscale>
<asrwt>0</asrwt>
<pdfrwt beam="1">  1       21 0.12804709E-01 0.25234105E+02</pdfrwt>
<pdfrwt beam="2">  1       21 0.19980808E-02 0.25234105E+02</pdfrwt>
<totfact> 0.47299305E+07</totfact>
</mgrwt>
</event>
<event>
 4    1  0.2769537E+004  0.2365089E+02  0.7546771E-02  0.1681172E+00
         21   -1    0    0  503  502  0.00000000000E+00  0.00000000000E+00  0.16977059546E+02  0.16977059546E+02  0.00000000000E+00 0. -1.
         21   -1    0    0  501  503 -0.00000000000E+00 -0.00000000000E+00 -0.34638583479E+02  0.34638583479E+02  0.00000000000E+00 0.  1.
          2    1    1    2  501    0 -0.14342032216E+02  0.18806138172E+02 -0.14531814839E+02  0.27758572793E+02  0.00000000000E+00 0.  1.
         -2    1    1    2    0  502  0.14342032216E+02 -0.18806138172E+02 -0.31297090946E+01  0.23857070231E+02  0.00000000000E+00 0. -1.
<mgrwt>
<rscale>  2 0.23650893E+02</rscale>
<asrwt>0</asrwt>
<pdfrwt beam="1">  1       21 0.26118553E-02 0.23650893E+02</pdfrwt>
<pdfrwt beam="2">  1       21 0.53290128E-02 0.23650893E+02</pdfrwt>
<totfact> 0.12947430E+08</totfact>
</mgrwt>
</event>
<event>
 4    1  0.2769537E+004  0.2289609E+02  0.7546771E-02  0.1693200E+00
         21   -1    0    0  503  502  0.00000000000E+00  0.00000000000E+00  0.49043714023E+01  0.49043714023E+01  0.00000000000E+00 0.  1.
         21   -1    0    0  501  503 -0.00000000000E+00 -0.00000000000E+00 -0.27022165922E+03  0.27022165922E+03  0.00000000000E+00 0. -1.
          2    1    1    2  501    0  0.16510226948E+02 -0.15863267102E+02 -0.23960748842E+03  0.24069893922E+03  0.00000000000E+00 0. -1.
         -2    1    1    2    0  502 -0.16510226948E+02  0.15863267102E+02 -0.25709799399E+02  0.34427091398E+02  0.00000000000E+00 0.  1.
<mgrwt>
<rscale>  2 0.22896088E+02</rscale>
<asrwt>0</asrwt>
<pdfrwt beam="1">  1       21 0.75451852E-03 0.22896088E+02</pdfrwt>
<pdfrwt beam="2">  1       21 0.41572571E-01 0.22896088E+02</pdfrwt>
<totfact> 0.24879719E+07</totfact>
</mgrwt>
</event>
<event>
 4    1  0.2769537E+004  0.2012275E+02  0.7546771E-02  0.1742898E+00
         21   -1    0    0  503  502  0.00000000000E+00  0.00000000000E+00  0.20306101202E+02  0.20306101202E+02  0.00000000000E+00 0.  1.
         21   -1    0    0  501  503 -0.00000000000E+00 -0.00000000000E+00 -0.26212821605E+02  0.26212821605E+02  0.00000000000E+00 0. -1.
          2    1    1    2  501    0  0.19054896268E+02  0.64680699489E+01 -0.14330624552E+02  0.24704084697E+02  0.00000000000E+00 0. -1.
         -2    1    1    2    0  502 -0.19054896268E+02 -0.64680699489E+01  0.84239041495E+01  0.21814838110E+02  0.00000000000E+00 0.  1.
<mgrwt>
<rscale>  2 0.20122748E+02</rscale>
<asrwt>0</asrwt>
<pdfrwt beam="1">  1       21 0.31240156E-02 0.20122748E+02</pdfrwt>
<pdfrwt beam="2">  1       21 0.40327418E-02 0.20122748E+02</pdfrwt>
<totfact> 0.14514555E+08</totfact>
</mgrwt>
</event>
<event>
 4    1  0.2769537E+004  0.2665163E+02  0.7546771E-02  0.1638353E+00
         21   -1    0    0  501  502  0.00000000000E+00  0.00000000000E+00  0.89403470914E+03  0.89403470914E+03  0.00000000000E+00 0.  1.
         21   -1    0    0  502  503 -0.00000000000E+00 -0.00000000000E+00 -0.16742172708E+01  0.16742172708E+01  0.00000000000E+00 0. -1.
          2    1    1    2  501    0 -0.21980028385E+02  0.15072750083E+02  0.77082087397E+03  0.77128148506E+03  0.00000000000E+00 0.  1.
         -2    1    1    2    0  503  0.21980028385E+02 -0.15072750083E+02  0.12153961790E+03  0.12442744135E+03  0.00000000000E+00 0. -1.
<mgrwt>
<rscale>  2 0.26651631E+02</rscale>
<asrwt>0</asrwt>
<pdfrwt beam="1">  1       21 0.13754342E+00 0.26651631E+02</pdfrwt>
<pdfrwt beam="2">  1       21 0.25757260E-03 0.26651631E+02</pdfrwt>
<totfact> 0.10154049E+07</totfact>
</mgrwt>
</event>
<event>
 4    1  0.2769537E+004  0.5981799E+02  0.7546771E-02  0.1398597E+00
         21   -1    0    0  501  502  0.00000000000E+00  0.00000000000E+00  0.36738572146E+03  0.36738572146E+03  0.00000000000E+00 0. -1.
         21   -1    0    0  502  503 -0.00000000000E+00 -0.00000000000E+00 -0.81705006772E+02  0.81705006772E+02  0.00000000000E+00 0.  1.
          2    1    1    2  501    0 -0.40758788213E+02 -0.43782567630E+02  0.35357776496E+03  0.35860204673E+03  0.00000000000E+00 0. -1.
         -2    1    1    2    0  503  0.40758788213E+02  0.43782567630E+02 -0.67897050270E+02  0.90488681503E+02  0.00000000000E+00 0.  1.
<mgrwt>
<rscale>  2 0.59817991E+02</rscale>
<asrwt>0</asrwt>
<pdfrwt beam="1">  1       21 0.56520879E-01 0.59817991E+02</pdfrwt>
<pdfrwt beam="2">  1       21 0.12570001E-01 0.59817991E+02</pdfrwt>
<totfact> 0.16635972E+05</totfact>
</mgrwt>
</event>
<event>
 4    1  0.2769537E+004  0.2121989E+02  0.7546771E-02  0.1722104E+00
         21   -1    0    0  501  502  0.00000000000E+00  0.00000000000E+00  0.58538860266E+03  0.58538860266E+03  0.00000000000E+00 0. -1.
         21   -1    0    0  502  503 -0.00000000000E+00 -0.00000000000E+00 -0.11480087998E+01  0.11480087998E+01  0.00000000000E+00 0.  1.
          2    1    1    2  501    0  0.10194077798E+02  0.18610865221E+02  0.46058153659E+03  0.46107009812E+03  0.00000000000E+00 0. -1.
         -2    1    1    2    0  503 -0.10194077798E+02 -0.18610865221E+02  0.12365905727E+03  0.12546651335E+03  0.00000000000E+00 0.  1.
<mgrwt>
<rscale>  2 0.21219885E+02</rscale>
<asrwt>0</asrwt>
<pdfrwt beam="1">  1       21 0.90059547E-01 0.21219885E+02</pdfrwt>
<pdfrwt beam="2">  1       21 0.17661721E-03 0.21219885E+02</pdfrwt>
<totfact> 0.43378471E+07</totfact>
</mgrwt>
</event>
<event>
 4    1  0.2769537E+004  0.2491177E+02  0.7546771E-02  0.1662272E+00
         21   -1    0    0  503  502  0.00000000000E+00  0.00000000000E+00  0.75173039055E+03  0.75173039055E+03  0.00000000000E+00 0. -1.
         21   -1    0    0  501  503 -0.00000000000E+00 -0.00000000000E+00 -0.35279921732E+01  0.35279921732E+01  0.00000000000E+00 0.  1.
          2    1    1    2  501    0 -0.23928009278E+02 -0.69315692101E+01  0.43595163342E+02  0.50210900675E+02  0.00000000000E+00 0.  1.
         -2    1    1    2    0  502  0.23928009278E+02  0.69315692101E+01  0.70460723504E+03  0.70504748205E+03  0.00000000000E+00 0. -1.
<mgrwt>
<rscale>  2 0.24911770E+02</rscale>
<asrwt>0</asrwt>
<pdfrwt beam="1">  1       21 0.11565070E+00 0.24911770E+02</pdfrwt>
<pdfrwt beam="2">  1       21 0.54276862E-03 0.24911770E+02</pdfrwt>
<totfact> 0.50127076E+06</totfact>
</mgrwt>
</event>
<event>
 4    1  0.2769537E+004  0.2644086E+02  0.7546771E-02  0.1641129E+00
         21   -1    0    0  503  502  0.00000000000E+00  0.00000000000E+00  0.65134349751E+01  0.65134349751E+01  0.00000000000E+00 0. -1.
         21   -1    0    0  501  503 -0.00000000000E+00 -0.00000000000E+00 -0.11785329897E+03  0.11785329897E+03  0.00000000000E+00 0.  1.
          2    1    1    2  501    0 -0.67401430731E+01 -0.25567353853E+02 -0.74247013405E+02  0.78814580575E+02  0.00000000000E+00 0.  1.
         -2    1    1    2    0  502  0.67401430731E+01  0.25567353853E+02 -0.37092850588E+02  0.45552153368E+02  0.00000000000E+00 0. -1.
<mgrwt>
<rscale>  2 0.26440861E+02</rscale>
<asrwt>0</asrwt>
<pdfrwt beam="1">  1       21 0.10020669E-02 0.26440861E+02</pdfrwt>
<pdfrwt beam="2">  1       21 0.18131277E-01 0.26440861E+02</pdfrwt>
<totfact> 0.75443243E+07</totfact>
</mgrwt>
</event>
<event>
 4    1  0.2769537E+004  0.2155913E+02  0.7546771E-02  0.1715990E+00
         21   -1    0    0  501  502  0.00000000000E+00  0.00000000000E+00  0.10777614657E+04  0.10777614657E+04  0.00000000000E+00 0. -1.
         21   -1    0    0  502  503 -0.00000000000E+00 -0.00000000000E+00 -0.14510050001E+01  0.14510050001E+01  0.00000000000E+00 0.  1.
          2    1    1    2  501    0 -0.15122961482E+02 -0.15365286813E+02  0.99051938080E+03  0.99075397539E+03  0.00000000000E+00 0. -1.
         -2    1    1    2    0  503  0.15122961482E+02  0.15365286813E+02  0.85791079896E+02  0.88458495310E+02  0.00000000000E+00 0.  1.
<mgrwt>
<rscale>  2 0.21559128E+02</rscale>
<asrwt>0</asrwt>
<pdfrwt beam="1">  1       21 0.16580882E+00 0.21559128E+02</pdfrwt>
<pdfrwt beam="2">  1       21 0.22323240E-03 0.21559128E+02</pdfrwt>
<totfact> 0.77780310E+06</totfact>
</mgrwt>
</event>
<event>
 4    1  0.2769537E+004  0.3007525E+02  0.7546771E-02  0.1597258E+00
         21   -1    0    0  501  502  0.00000000000E+00  0.00000000000E+00  0.26877367137E+03  0.26877367137E+03  0.00000000000E+00 0.  1.
         21   -1    0    0  502  503 -0.00000000000E+00 -0.00000000000E+00 -0.34162695223E+01  0.34162695223E+01  0.00000000000E+00 0. -1.
          2    1    1    2  501    0  0.23855607204E+02 -0.18314764550E+02  0.14929210595E+03  0.15229134412E+03  0.00000000000E+00 0. -1.
         -2    1    1    2    0  503 -0.23855607204E+02  0.18314764550E+02  0.11606529590E+03  0.11989859677E+03  0.00000000000E+00 0.  1.
<mgrwt>
<rscale>  2 0.30075249E+02</rscale>
<asrwt>0</asrwt>
<pdfrwt beam="1">  1       21 0.41349779E-01 0.30075249E+02</pdfrwt>
<pdfrwt beam="2">  1       21 0.52558014E-03 0.30075249E+02</pdfrwt>
<totfact> 0.45599197E+07</totfact>
</mgrwt>
</event>
<event>
 4    1  0.2769537E+004  0.2037319E+02  0.7546771E-02  0.1738007E+00
         21   -1    0    0  501  502  0.00000000000E+00  0.00000000000E+00  0.58792326753E+02  0.58792326753E+02  0.00000000000E+00 0. -1.
         21   -1    0    0  502  503 -0.00000000000E+00 -0.00000000000E+00 -0.85513673476E+01  0.85513673476E+01  0.00000000000E+00 0.  1.
          2    1    1    2  501    0  0.20108948435E+02 -0.32706183673E+01  0.39182865064E+02  0.44162921850E+02  0.00000000000E+00 0. -1.
         -2    1    1    2    0  503 -0.20108948435E+02  0.32706183673E+01  0.11058094341E+02  0.23180772251E+02  0.00000000000E+00 0.  1.
<mgrwt>
<rscale>  2 0.20373187E+02</rscale>
<asrwt>0</asrwt>
<pdfrwt beam="1">  1       21 0.90449731E-02 0.20373187E+02</pdfrwt>
<pdfrwt beam="2">  1       21 0.13155950E-02 0.20373187E+02</pdfrwt>
<totfact> 0.15010114E+08</totfact>
</mgrwt>
</event>
<event>
 4    1  0.2769537E+004  0.3910222E+02  0.7546771E-02  0.1514924E+00
         21   -1    0    0  503  502  0.00000000000E+00  0.00000000000E+00  0.23559434100E+03  0.23559434100E+03  0.00000000000E+00 0. -1.
         21   -1    0    0  501  503 -0.00000000000E+00 -0.00000000000E+00 -0.79425997217E+01  0.79425997217E+01  0.00000000000E+00 0.  1.
          2    1    1    2  501    0  0.37676169487E+02 -0.10463756041E+02  0.61749429542E+02  0.73088822583E+02  0.00000000000E+00 0.  1.
         -2    1    1    2    0  502 -0.37676169487E+02  0.10463756041E+02  0.16590231173E+03  0.17044811813E+03  0.00000000000E+00 0. -1.
<mgrwt>
<rscale>  2 0.39102224E+02</rscale>
<asrwt>0</asrwt>
<pdfrwt beam="1">  1       21 0.36245278E-01 0.39102224E+02</pdfrwt>
<pdfrwt beam="2">  1       21 0.12219386E-02 0.39102224E+02</pdfrwt>
<totfact> 0.17122553E+07</totfact>
</mgrwt>
</event>
<event>
 4    1  0.2769537E+004  0.2702981E+02  0.7546771E-02  0.1633450E+00
         21   -1    0    0  503  502  0.00000000000E+00  0.00000000000E+00  0.63997690204E+02  0.63997690204E+02  0.00000000000E+00 0. -1.
         21   -1    0    0  501  503 -0.00000000000E+00 -0.00000000000E+00 -0.16103084472E+02  0.16103084472E+02  0.00000000000E+00 0.  1.
          2    1    1    2  501    0  0.75701375472E+01 -0.25948096271E+02  0.23403200195E+01  0.27130937698E+02  0.00000000000E+00 0. -1.
         -2    1    1    2    0  502 -0.75701375472E+01  0.25948096271E+02  0.45554285713E+02  0.52969836977E+02  0.00000000000E+00 0.  1.
<mgrwt>
<rscale>  2 0.27029811E+02</rscale>
<asrwt>0</asrwt>
<pdfrwt beam="1">  1       21 0.98457983E-02 0.27029811E+02</pdfrwt>
<pdfrwt beam="2">  1       21 0.24773976E-02 0.27029811E+02</pdfrwt>
<totfact> 0.53532283E+07</totfact>
</mgrwt>
</event>
<event>
 4    1  0.2769537E+004  0.2025924E+02  0.7546771E-02  0.1740221E+00
         21   -1    0    0  501  502  0.00000000000E+00  0.00000000000E+00  0.25363949111E+02  0.25363949111E+02  0.00000000000E+00 0.  1.
         21   -1    0    0  502  503 -0.00000000000E+00 -0.00000000000E+00 -0.19777653075E+02  0.19777653075E+02  0.00000000000E+00 0. -1.
          2    1    1    2  501    0  0.18332256886E+02  0.86235161232E+01  0.12417135268E+02  0.23761774369E+02  0.00000000000E+00 0.  1.
         -2    1    1    2    0  503 -0.18332256886E+02 -0.86235161232E+01 -0.68308392319E+01  0.21379827817E+02  0.00000000000E+00 0. -1.
<mgrwt>
<rscale>  2 0.20259237E+02</rscale>
<asrwt>0</asrwt>
<pdfrwt beam="1">  1       21 0.39021460E-02 0.20259237E+02</pdfrwt>
<pdfrwt beam="2">  1       21 0.30427158E-02 0.20259237E+02</pdfrwt>
<totfact> 0.15956501E+08</totfact>
</mgrwt>
</event>
<event>
 4    1  0.2769537E+004  0.2167654E+02  0.7546771E-02  0.1713907E+00
         21   -1    0    0  501  502  0.00000000000E+00  0.00000000000E+00  0.51285205346E+03  0.51285205346E+03  0.00000000000E+00 0. -1.
         21   -1    0    0  502  503 -0.00000000000E+00 -0.00000000000E+00 -0.24868483560E+01  0.24868483560E+01  0.00000000000E+00 0.  1.
          2    1    1    2  501    0  0.18925205149E+02  0.10569257318E+02  0.45995830565E+03  0.46046879973E+03  0.00000000000E+00 0. -1.
         -2    1    1    2    0  503 -0.18925205149E+02 -0.10569257318E+02  0.50406899458E+02  0.54870102088E+02  0.00000000000E+00 0.  1.
<mgrwt>
<rscale>  2 0.21676545E+02</rscale>
<asrwt>0</asrwt>
<pdfrwt beam="1">  1       21 0.78900232E-01 0.21676545E+02</pdfrwt>
<pdfrwt beam="2">  1       21 0.38259246E-03 0.21676545E+02</pdfrwt>
<totfact> 0.18793973E+07</totfact>
</mgrwt>
</event>
<event>
 4    1  0.2769537E+004  0.2787105E+02  0.7546771E-02  0.1622888E+00
         21   -1    0    0  503  502  0.00000000000E+00  0.00000000000E+00  0.31054088575E+03  0.31054088575E+03  0.00000000000E+00 0. -1.
         21   -1    0    0  501  503 -0.00000000000E+00 -0.00000000000E+00 -0.35885351455E+01  0.35885351455E+01  0.00000000000E+00 0.  1.
          2    1    1    2  501    0 -0.38103062745E+01 -0.27609362152E+02  0.67027882900E+02  0.72591544952E+02  0.00000000000E+00 0.  1.
         -2    1    1    2    0  502  0.38103062745E+01  0.27609362152E+02  0.23992446771E+03  0.24153787595E+03  0.00000000000E+00 0. -1.
<mgrwt>
<rscale>  2 0.27871048E+02</rscale>
<asrwt>0</asrwt>
<pdfrwt beam="1">  1       21 0.47775500E-01 0.27871048E+02</pdfrwt>
<pdfrwt beam="2">  1       21 0.55208257E-03 0.27871048E+02</pdfrwt>
<totfact> 0.31581548E+07</totfact>
</mgrwt>
</event>
<event>
 4    1  0.2769537E+004  0.4244855E+02  0.7546771E-02  0.1490929E+00
         21   -1    0    0  501  502  0.00000000000E+00  0.00000000000E+00  0.41913158200E+03  0.41913158200E+03  0.00000000000E+00 0. -1.
         21   -1    0    0  502  503 -0.00000000000E+00 -0.00000000000E+00 -0.72598870846E+01  0.72598870846E+01  0.00000000000E+00 0.  1.
          2    1    1    2  501    0  0.13491062456E+02  0.40247615789E+02  0.34208620441E+03  0.34470980634E+03  0.00000000000E+00 0. -1.
         -2    1    1    2    0  503 -0.13491062456E+02 -0.40247615789E+02  0.69785490508E+02  0.81681662742E+02  0.00000000000E+00 0.  1.
<mgrwt>
<rscale>  2 0.42448549E+02</rscale>
<asrwt>0</asrwt>
<pdfrwt beam="1">  1       21 0.64481763E-01 0.42448549E+02</pdfrwt>
<pdfrwt beam="2">  1       21 0.11169060E-02 0.42448549E+02</pdfrwt>
<totfact> 0.63439395E+06</totfact>
</mgrwt>
</event>
<event>
 4    1  0.2769537E+004  0.3311496E+02  0.7546771E-02  0.1566007E+00
         21   -1    0    0  503  502  0.00000000000E+00  0.00000000000E+00  0.66801954313E+02  0.66801954313E+02  0.00000000000E+00 0. -1.
         21   -1    0    0  501  503 -0.00000000000E+00 -0.00000000000E+00 -0.33178503701E+02  0.33178503701E+02  0.00000000000E+00 0.  1.
          2    1    1    2  501    0  0.13539808426E+02  0.30220430514E+02 -0.18721126085E+02  0.38040523058E+02  0.00000000000E+00 0.  1.
         -2    1    1    2    0  502 -0.13539808426E+02 -0.30220430514E+02  0.52344576697E+02  0.61939934955E+02  0.00000000000E+00 0. -1.
<mgrwt>
<rscale>  2 0.33114964E+02</rscale>
<asrwt>0</asrwt>
<pdfrwt beam="1">  1       21 0.10277224E-01 0.33114964E+02</pdfrwt>
<pdfrwt beam="2">  1       21 0.51043852E-02 0.33114964E+02</pdfrwt>
<totfact> 0.16524519E+07</totfact>
</mgrwt>
</event>
<event>
 4    1  0.2769537E+004  0.2042098E+02  0.7546771E-02  0.1737084E+00
         21   -1    0    0  501  502  0.00000000000E+00  0.00000000000E+00  0.22445682215E+02  0.22445682215E+02  0.00000000000E+00 0. -1.
         21   -1    0    0  502  503 -0.00000000000E+00 -0.00000000000E+00 -0.22372033889E+02  0.22372033889E+02  0.00000000000E+00 0.  1.
          2    1    1    2  501    0  0.63915679127E+01  0.19394954259E+02  0.92639256579E+01  0.22424020819E+02  0.00000000000E+00 0.  1.
         -2    1    1    2    0  503 -0.63915679127E+01 -0.19394954259E+02 -0.91902773310E+01  0.22393695285E+02  0.00000000000E+00 0. -1.
<mgrwt>
<rscale>  2 0.20420979E+02</rscale>
<asrwt>0</asrwt>
<pdfrwt beam="1">  1       21 0.34531819E-02 0.20420979E+02</pdfrwt>
<pdfrwt beam="2">  1       21 0.34418514E-02 0.20420979E+02</pdfrwt>
<totfact> 0.15986382E+08</totfact>
</mgrwt>
</event>
<event>
 4    1  0.2769537E+004  0.2211047E+02  0.7546771E-02  0.1706348E+00
         21   -1    0    0  501  502  0.00000000000E+00  0.00000000000E+00  0.75647656474E+00  0.75647656474E+00  0.00000000000E+00 0. -1.
         21   -1    0    0  502  503 -0.00000000000E+00 -0.00000000000E+00 -0.65078230653E+03  0.65078230653E+03  0.00000000000E+00 0.  1.
          2    1    1    2  501    0 -0.71788358849E+01 -0.20912613617E+02 -0.29782694149E+03  0.29864654723E+03  0.00000000000E+00 0. -1.
         -2    1    1    2    0  503  0.71788358849E+01  0.20912613617E+02 -0.35219888848E+03  0.35289223587E+03  0.00000000000E+00 0.  1.
<mgrwt>
<rscale>  2 0.22110475E+02</rscale>
<asrwt>0</asrwt>
<pdfrwt beam="1">  1       21 0.11638080E-03 0.22110475E+02</pdfrwt>
<pdfrwt beam="2">  1       21 0.10012053E+00 0.22110475E+02</pdfrwt>
<totfact> 0.63290221E+07</totfact>
</mgrwt>
</event>
<event>
 4    1  0.2769537E+004  0.2572829E+02  0.7546771E-02  0.1650756E+00
         21   -1    0    0  503  502  0.00000000000E+00  0.00000000000E+00  0.25905040836E+03  0.25905040836E+03  0.00000000000E+00 0. -1.
         21   -1    0    0  501  503 -0.00000000000E+00 -0.00000000000E+00 -0.87002426317E+01  0.87002426317E+01  0.00000000000E+00 0.  1.
          2    1    1    2  501    0 -0.23411609550E+02 -0.10669643122E+02  0.12664157556E+02  0.28676220684E+02  0.00000000000E+00 0.  1.
         -2    1    1    2    0  502  0.23411609550E+02  0.10669643122E+02  0.23768600817E+03  0.23907443030E+03  0.00000000000E+00 0. -1.
<mgrwt>
<rscale>  2 0.25728287E+02</rscale>
<asrwt>0</asrwt>
<pdfrwt beam="1">  1       21 0.39853903E-01 0.25728287E+02</pdfrwt>
<pdfrwt beam="2">  1       21 0.13384991E-02 0.25728287E+02</pdfrwt>
<totfact> 0.11633927E+07</totfact>
</mgrwt>
</event>
<event>
 4    1  0.2769537E+004  0.2326788E+02  0.7546771E-02  0.1687204E+00
         21   -1    0    0  501  502  0.00000000000E+00  0.00000000000E+00  0.20898591014E+01  0.20898591014E+01  0.00000000000E+00 0. -1.
         21   -1    0    0  502  503 -0.00000000000E+00 -0.00000000000E+00 -0.31179462113E+03  0.31179462113E+03  0.00000000000E+00 0.  1.
          2    1    1    2  501    0  0.66262857758E+01  0.22304411267E+02 -0.90307431216E+02  0.93256777544E+02  0.00000000000E+00 0. -1.
         -2    1    1    2    0  503 -0.66262857758E+01 -0.22304411267E+02 -0.21939733081E+03  0.22062770268E+03  0.00000000000E+00 0.  1.
<mgrwt>
<rscale>  2 0.23267884E+02</rscale>
<asrwt>0</asrwt>
<pdfrwt beam="1">  1       21 0.32151697E-03 0.23267884E+02</pdfrwt>
<pdfrwt beam="2">  1       21 0.47968376E-01 0.23267884E+02</pdfrwt>
<totfact> 0.66818054E+07</totfact>
</mgrwt>
</event>
<event>
 4    1  0.2769537E+004  0.2816969E+02  0.7546771E-02  0.1619249E+00
         21   -1    0    0  501  502  0.00000000000E+00  0.00000000000E+00  0.20133674072E+02  0.20133674072E+02  0.00000000000E+00 0.  1.
         21   -1    0    0  502  503 -0.00000000000E+00 -0.00000000000E+00 -0.47255278974E+02  0.47255278974E+02  0.00000000000E+00 0. -1.
          2    1    1    2  501    0 -0.26105814538E+02 -0.10583856501E+02  0.16540197829E+00  0.28170178007E+02  0.00000000000E+00 0.  1.
         -2    1    1    2    0  503  0.26105814538E+02  0.10583856501E+02 -0.27287006880E+02  0.39218775040E+02  0.00000000000E+00 0. -1.
<mgrwt>
<rscale>  2 0.28169692E+02</rscale>
<asrwt>0</asrwt>
<pdfrwt beam="1">  1       21 0.30974884E-02 0.28169692E+02</pdfrwt>
<pdfrwt beam="2">  1       21 0.72700428E-02 0.28169692E+02</pdfrwt>
<totfact> 0.62880670E+07</totfact>
</mgrwt>
</event>
<event>
 4    1  0.2769537E+004  0.2147733E+02  0.7546771E-02  0.1717451E+00
         21   -1    0    0  503  502  0.00000000000E+00  0.00000000000E+00  0.15911927714E+03  0.15911927714E+03  0.00000000000E+00 0. -1.
         21   -1    0    0  501  503 -0.00000000000E+00 -0.00000000000E+00 -0.29068807555E+01  0.29068807555E+01  0.00000000000E+00 0.  1.
          2    1    1    2  501    0 -0.28681995998E+01  0.21284948340E+02  0.82343159843E+02  0.85098011538E+02  0.00000000000E+00 0. -1.
         -2    1    1    2    0  502  0.28681995998E+01 -0.21284948340E+02  0.73869236544E+02  0.76928146360E+02  0.00000000000E+00 0.  1.
<mgrwt>
<rscale>  2 0.21477327E+02</rscale>
<asrwt>0</asrwt>
<pdfrwt beam="1">  1       21 0.24479882E-01 0.21477327E+02</pdfrwt>
<pdfrwt beam="2">  1       21 0.44721255E-03 0.21477327E+02</pdfrwt>
<totfact> 0.13985646E+08</totfact>
</mgrwt>
</event>
<event>
 4    1  0.2769537E+004  0.3160720E+02  0.7546771E-02  0.1580974E+00
         21   -1    0    0  501  502  0.00000000000E+00  0.00000000000E+00  0.11656761197E+01  0.11656761197E+01  0.00000000000E+00 0.  1.
         21   -1    0    0  502  503 -0.00000000000E+00 -0.00000000000E+00 -0.12591713758E+04  0.12591713758E+04  0.00000000000E+00 0. -1.
          2    1    1    2  501    0  0.19230737461E+02  0.25083740020E+02 -0.27287529400E+03  0.27469972944E+03  0.00000000000E+00 0. -1.
         -2    1    1    2    0  503 -0.19230737461E+02 -0.25083740020E+02 -0.98513040563E+03  0.98563732243E+03  0.00000000000E+00 0.  1.
<mgrwt>
<rscale>  2 0.31607203E+02</rscale>
<asrwt>0</asrwt>
<pdfrwt beam="1">  1       21 0.17933560E-03 0.31607203E+02</pdfrwt>
<pdfrwt beam="2">  1       21 0.19371779E+00 0.31607203E+02</pdfrwt>
<totfact> 0.75370385E+06</totfact>
</mgrwt>
</event>
<event>
 4    1  0.2769537E+004  0.2095100E+02  0.7546771E-02  0.1727052E+00
         21   -1    0    0  503  502  0.00000000000E+00  0.00000000000E+00  0.51250141990E+02  0.51250141990E+02  0.00000000000E+00 0. -1.
         21   -1    0    0  501  503 -0.00000000000E+00 -0.00000000000E+00 -0.71893199227E+02  0.71893199227E+02  0.00000000000E+00 0.  1.
          2    1    1    2  501    0  0.20326853654E+02 -0.50757830570E+01 -0.68109369154E+02  0.71258899231E+02  0.00000000000E+00 0.  1.
         -2    1    1    2    0  502 -0.20326853654E+02  0.50757830570E+01  0.47466311917E+02  0.51884441986E+02  0.00000000000E+00 0. -1.
<mgrwt>
<rscale>  2 0.20951004E+02</rscale>
<asrwt>0</asrwt>
<pdfrwt beam="1">  1       21 0.78846372E-02 0.20951004E+02</pdfrwt>
<pdfrwt beam="2">  1       21 0.11060492E-01 0.20951004E+02</pdfrwt>
<totfact> 0.66604753E+06</totfact>
</mgrwt>
</event>
<event>
 4    1  0.2769537E+004  0.2645857E+02  0.7546771E-02  0.1640894E+00
         21   -1    0    0  501  502  0.00000000000E+00  0.00000000000E+00  0.80058830087E+03  0.80058830087E+03  0.00000000000E+00 0. -1.
         21   -1    0    0  502  503 -0.00000000000E+00 -0.00000000000E+00 -0.82770878103E+01  0.82770878103E+01  0.00000000000E+00 0.  1.
          2    1    1    2  501    0  0.26410294006E+02  0.15976104757E+01  0.77862915229E+03  0.77907856650E+03  0.00000000000E+00 0. -1.
         -2    1    1    2    0  503 -0.26410294006E+02 -0.15976104757E+01  0.13682060776E+02  0.29786822184E+02  0.00000000000E+00 0.  1.
<mgrwt>
<rscale>  2 0.26458571E+02</rscale>
<asrwt>0</asrwt>
<pdfrwt beam="1">  1       21 0.12316737E+00 0.26458571E+02</pdfrwt>
<pdfrwt beam="2">  1       21 0.12733988E-02 0.26458571E+02</pdfrwt>
<totfact> 0.12156594E+06</totfact>
</mgrwt>
</event>
<event>
 4    1  0.2769537E+004  0.2010595E+02  0.7546771E-02  0.1743229E+00
         21   -1    0    0  503  502  0.00000000000E+00  0.00000000000E+00  0.55204682083E+02  0.55204682083E+02  0.00000000000E+00 0.  1.
         21   -1    0    0  501  503 -0.00000000000E+00 -0.00000000000E+00 -0.13990294483E+02  0.13990294483E+02  0.00000000000E+00 0. -1.
          2    1    1    2  501    0  0.19945919680E+02 -0.25316866364E+01 -0.32772238245E+01  0.20371287272E+02  0.00000000000E+00 0. -1.
         -2    1    1    2    0  502 -0.19945919680E+02  0.25316866364E+01  0.44491611425E+02  0.48823689294E+02  0.00000000000E+00 0.  1.
<mgrwt>
<rscale>  2 0.20105948E+02</rscale>
<asrwt>0</asrwt>
<pdfrwt beam="1">  1       21 0.84930279E-02 0.20105948E+02</pdfrwt>
<pdfrwt beam="2">  1       21 0.21523530E-02 0.20105948E+02</pdfrwt>
<totfact> 0.78454724E+07</totfact>
</mgrwt>
</event>
<event>
 4    1  0.2769537E+004  0.2933446E+02  0.7546771E-02  0.1605564E+00
         21   -1    0    0  501  502  0.00000000000E+00  0.00000000000E+00  0.58333529150E+03  0.58333529150E+03  0.00000000000E+00 0.  1.
         21   -1    0    0  502  503 -0.00000000000E+00 -0.00000000000E+00 -0.14870090295E+01  0.14870090295E+01  0.00000000000E+00 0. -1.
          2    1    1    2  501    0  0.19997672223E+02 -0.21461680212E+02  0.26481755830E+03  0.26643732808E+03  0.00000000000E+00 0. -1.
         -2    1    1    2    0  503 -0.19997672223E+02  0.21461680212E+02  0.31703072418E+03  0.31838497245E+03  0.00000000000E+00 0.  1.
<mgrwt>
<rscale>  2 0.29334461E+02</rscale>
<asrwt>0</asrwt>
<pdfrwt beam="1">  1       21 0.89743708E-01 0.29334461E+02</pdfrwt>
<pdfrwt beam="2">  1       21 0.22877109E-03 0.29334461E+02</pdfrwt>
<totfact> 0.32081000E+07</totfact>
</mgrwt>
</event>
<event>
 4    1  0.2769537E+004  0.2136788E+02  0.7546771E-02  0.1719419E+00
         21   -1    0    0  501  502  0.00000000000E+00  0.00000000000E+00  0.22380361789E+01  0.22380361789E+01  0.00000000000E+00 0. -1.
         21   -1    0    0  502  503 -0.00000000000E+00 -0.00000000000E+00 -0.25522256376E+03  0.25522256376E+03  0.00000000000E+00 0.  1.
          2    1    1    2  501    0  0.15441205375E+02 -0.14770088580E+02 -0.68828786163E+02  0.72069328738E+02  0.00000000000E+00 0. -1.
         -2    1    1    2    0  503 -0.15441205375E+02  0.14770088580E+02 -0.18415574142E+03  0.18539127120E+03  0.00000000000E+00 0.  1.
<mgrwt>
<rscale>  2 0.21367881E+02</rscale>
<asrwt>0</asrwt>
<pdfrwt beam="1">  1       21 0.34431360E-03 0.21367881E+02</pdfrwt>
<pdfrwt beam="2">  1       21 0.39264971E-01 0.21367881E+02</pdfrwt>
<totfact> 0.86592481E+07</totfact>
</mgrwt>
</event>
<event>
 4    1  0.2769537E+004  0.2355842E+02  0.7546771E-02  0.1682615E+00
         21   -1    0    0  503  502  0.00000000000E+00  0.00000000000E+00  0.17596553558E+02  0.17596553558E+02  0.00000000000E+00 0. -1.
         21   -1    0    0  501  503 -0.00000000000E+00 -0.00000000000E+00 -0.63774802142E+02  0.63774802142E+02  0.00000000000E+00 0.  1.
          2    1    1    2  501    0  0.14076105178E+02  0.18890806983E+02 -0.52014430100E+02  0.57100790398E+02  0.00000000000E+00 0.  1.
         -2    1    1    2    0  502 -0.14076105178E+02 -0.18890806983E+02  0.58361815156E+01  0.24270565303E+02  0.00000000000E+00 0. -1.
<mgrwt>
<rscale>  2 0.23558424E+02</rscale>
<asrwt>0</asrwt>
<pdfrwt beam="1">  1       21 0.27071620E-02 0.23558424E+02</pdfrwt>
<pdfrwt beam="2">  1       21 0.98115082E-02 0.23558424E+02</pdfrwt>
<totfact> 0.45378791E+07</totfact>
</mgrwt>
</event>
<event>
 4    1  0.2769537E+004  0.2558988E+02  0.7546771E-02  0.1652671E+00
         21   -1    0    0  503  502  0.00000000000E+00  0.00000000000E+00  0.96066332625E+01  0.96066332625E+01  0.00000000000E+00 0.  1.
         21   -1    0    0  501  503 -0.00000000000E+00 -0.00000000000E+00 -0.68269976336E+02  0.68269976336E+02  0.00000000000E+00 0. -1.
          2    1    1    2  501    0 -0.15968485139E+02 -0.19996239343E+02 -0.30854051596E+02  0.40085092059E+02  0.00000000000E+00 0.  1.
         -2    1    1    2    0  502  0.15968485139E+02  0.19996239343E+02 -0.27809291477E+02  0.37791517539E+02  0.00000000000E+00 0. -1.
<mgrwt>
<rscale>  2 0.25589883E+02</rscale>
<asrwt>0</asrwt>
<pdfrwt beam="1">  1       21 0.14779436E-02 0.25589883E+02</pdfrwt>
<pdfrwt beam="2">  1       21 0.10503073E-01 0.25589883E+02</pdfrwt>
<totfact> 0.10504254E+08</totfact>
</mgrwt>
</event>
<event>
 4    1  0.2769537E+004  0.5339006E+02  0.7546771E-02  0.1427869E+00
         21   -1    0    0  503  502  0.00000000000E+00  0.00000000000E+00  0.13720196745E+03  0.13720196745E+03  0.00000000000E+00 0.  1.
         21   -1    0    0  501  503 -0.00000000000E+00 -0.00000000000E+00 -0.21079843433E+02  0.21079843433E+02  0.00000000000E+00 0. -1.
          2    1    1    2  501    0  0.97053035651E+00 -0.53381237232E+02  0.48558459709E+02  0.72169400904E+02  0.00000000000E+00 0. -1.
         -2    1    1    2    0  502 -0.97053035651E+00  0.53381237232E+02  0.67563664303E+02  0.86112409974E+02  0.00000000000E+00 0.  1.
<mgrwt>
<rscale>  2 0.53390059E+02</rscale>
<asrwt>0</asrwt>
<pdfrwt beam="1">  1       21 0.21107994E-01 0.53390059E+02</pdfrwt>
<pdfrwt beam="2">  1       21 0.32430529E-02 0.53390059E+02</pdfrwt>
<totfact> 0.10483781E+07</totfact>
</mgrwt>
</event>
<event>
 4    1  0.2769537E+004  0.4079241E+02  0.7546771E-02  0.1502460E+00
         21   -1    0    0  503  502  0.00000000000E+00  0.00000000000E+00  0.33783971076E+02  0.33783971076E+02  0.00000000000E+00 0.  1.
         21   -1    0    0  501  503 -0.00000000000E+00 -0.00000000000E+00 -0.17093489821E+03  0.17093489821E+03  0.00000000000E+00 0. -1.
          2    1    1    2  501    0  0.35323400146E+02 -0.20402894622E+02 -0.15493740420E+03  0.16021741456E+03  0.00000000000E+00 0. -1.
         -2    1    1    2    0  502 -0.35323400146E+02  0.20402894622E+02  0.17786477065E+02  0.44501454731E+02  0.00000000000E+00 0.  1.
<mgrwt>
<rscale>  2 0.40792410E+02</rscale>
<asrwt>0</asrwt>
<pdfrwt beam="1">  1       21 0.51975342E-02 0.40792410E+02</pdfrwt>
<pdfrwt beam="2">  1       21 0.26297676E-01 0.40792410E+02</pdfrwt>
<totfact> 0.31847638E+06</totfact>
</mgrwt>
</event>
<event>
 4    1  0.2769537E+004  0.2008905E+02  0.7546771E-02  0.1743563E+00
         21   -1    0    0  503  502  0.00000000000E+00  0.00000000000E+00  0.78143877569E+01  0.78143877569E+01  0.00000000000E+00 0. -1.
         21   -1    0    0  501  503 -0.00000000000E+00 -0.00000000000E+00 -0.10354366583E+03  0.10354366583E+03  0.00000000000E+00 0.  1.
          2    1    1    2  501    0  0.17319934832E+01 -0.20014253124E+02 -0.87284044187E+02  0.89566034294E+02  0.00000000000E+00 0.  1.
         -2    1    1    2    0  502 -0.17319934832E+01  0.20014253124E+02 -0.84452338887E+01  0.21792019295E+02  0.00000000000E+00 0. -1.
<mgrwt>
<rscale>  2 0.20089055E+02</rscale>
<asrwt>0</asrwt>
<pdfrwt beam="1">  1       21 0.12022136E-02 0.20089055E+02</pdfrwt>
<pdfrwt beam="2">  1       21 0.15929794E-01 0.20089055E+02</pdfrwt>
<totfact> 0.66660832E+07</totfact>
</mgrwt>
</event>
<event>
 4    1  0.2769537E+004  0.3235573E+02  0.7546771E-02  0.1573420E+00
         21   -1    0    0  501  502  0.00000000000E+00  0.00000000000E+00  0.66225570892E+01  0.66225570892E+01  0.00000000000E+00 0. -1.
         21   -1    0    0  502  503 -0.00000000000E+00 -0.00000000000E+00 -0.42147526629E+03  0.42147526629E+03  0.00000000000E+00 0.  1.
          2    1    1    2  501    0  0.60213622733E+01 -0.31790504956E+02 -0.38214392435E+02  0.50072275743E+02  0.00000000000E+00 0. -1.
         -2    1    1    2    0  503 -0.60213622733E+01  0.31790504956E+02 -0.37663831676E+03  0.37802554763E+03  0.00000000000E+00 0.  1.
<mgrwt>
<rscale>  2 0.32355726E+02</rscale>
<asrwt>0</asrwt>
<pdfrwt beam="1">  1       21 0.10188547E-02 0.32355726E+02</pdfrwt>
<pdfrwt beam="2">  1       21 0.64842362E-01 0.32355726E+02</pdfrwt>
<totfact> 0.69932692E+06</totfact>
</mgrwt>
</event>
<event>
 4    1  0.2769537E+004  0.2521437E+02  0.7546771E-02  0.1657942E+00
         21   -1    0    0  501  502  0.00000000000E+00  0.00000000000E+00  0.38475739293E+03  0.38475739293E+03  0.00000000000E+00 0.  1.
         21   -1    0    0  502  503 -0.00000000000E+00 -0.00000000000E+00 -0.16657144119E+01  0.16657144119E+01  0.00000000000E+00 0. -1.
          2    1    1    2  501    0  0.55754611435E+01 -0.24590217764E+02  0.20883426648E+03  0.21035093400E+03  0.00000000000E+00 0. -1.
         -2    1    1    2    0  503 -0.55754611435E+01  0.24590217764E+02  0.17425741203E+03  0.17607217334E+03  0.00000000000E+00 0.  1.
<mgrwt>
<rscale>  2 0.25214372E+02</rscale>
<asrwt>0</asrwt>
<pdfrwt beam="1">  1       21 0.59193374E-01 0.25214372E+02</pdfrwt>
<pdfrwt beam="2">  1       21 0.25626406E-03 0.25214372E+02</pdfrwt>
<totfact> 0.62680717E+07</totfact>
</mgrwt>
</event>
<event>
 4    1  0.2769537E+004  0.2485175E+02  0.7546771E-02  0.1663140E+00
         21   -1    0    0  503  502  0.00000000000E+00  0.00000000000E+00  0.75706698795E+01  0.75706698795E+01  0.00000000000E+00 0.  1.
         21   -1    0    0  501  503 -0.00000000000E+00 -0.00000000000E+00 -0.19250654491E+03  0.19250654491E+03  0.00000000000E+00 0. -1.
          2    1    1    2  501    0 -0.23746293990E+02 -0.73295925837E+01 -0.16840680947E+03  0.17023061676E+03  0.00000000000E+00 0. -1.
         -2    1    1    2    0  502  0.23746293990E+02  0.73295925837E+01 -0.16529065557E+02  0.29846598029E+02  0.00000000000E+00 0.  1.
<mgrwt>
<rscale>  2 0.24851749E+02</rscale>
<asrwt>0</asrwt>
<pdfrwt beam="1">  1       21 0.11647183E-02 0.24851749E+02</pdfrwt>
<pdfrwt beam="2">  1       21 0.29616396E-01 0.24851749E+02</pdfrwt>
<totfact> 0.24764151E+07</totfact>
</mgrwt>
</event>
<event>
 4    1  0.2769537E+004  0.3485653E+02  0.7546771E-02  0.1549878E+00
         21   -1    0    0  501  502  0.00000000000E+00  0.00000000000E+00  0.87199982765E+02  0.87199982765E+02  0.00000000000E+00 0. -1.
         21   -1    0    0  502  503 -0.00000000000E+00 -0.00000000000E+00 -0.19356658726E+02  0.19356658726E+02  0.00000000000E+00 0.  1.
          2    1    1    2  501    0  0.30358760977E+02 -0.17126688712E+02  0.62123155487E+02  0.71233870329E+02  0.00000000000E+00 0. -1.
         -2    1    1    2    0  503 -0.30358760977E+02  0.17126688712E+02  0.57201685516E+01  0.35322771162E+02  0.00000000000E+00 0.  1.
<mgrwt>
<rscale>  2 0.34856532E+02</rscale>
<asrwt>0</asrwt>
<pdfrwt beam="1">  1       21 0.13415382E-01 0.34856532E+02</pdfrwt>
<pdfrwt beam="2">  1       21 0.29779476E-02 0.34856532E+02</pdfrwt>
<totfact> 0.25084045E+07</totfact>
</mgrwt>
</event>
<event>
 4    1  0.2769537E+004  0.2531414E+02  0.7546771E-02  0.1656530E+00
         21   -1    0    0  501  502  0.00000000000E+00  0.00000000000E+00  0.23519591892E+03  0.23519591892E+03  0.00000000000E+00 0. -1.
         21   -1    0    0  502  503 -0.00000000000E+00 -0.00000000000E+00 -0.45284165522E+01  0.45284165522E+01  0.00000000000E+00 0.  1.
          2    1    1    2  501    0  0.11903137782E+02  0.22341011538E+02  0.19098391883E+03  0.19265425700E+03  0.00000000000E+00 0. -1.
         -2    1    1    2    0  503 -0.11903137782E+02 -0.22341011538E+02  0.39683583532E+02  0.47070078474E+02  0.00000000000E+00 0.  1.
<mgrwt>
<rscale>  2 0.25314136E+02</rscale>
<asrwt>0</asrwt>
<pdfrwt beam="1">  1       21 0.36183978E-01 0.25314136E+02</pdfrwt>
<pdfrwt beam="2">  1       21 0.69667965E-03 0.25314136E+02</pdfrwt>
<totfact> 0.37181200E+07</totfact>
</mgrwt>
</event>
<event>
 4    1  0.2769537E+004  0.2039406E+02  0.7546771E-02  0.1737603E+00
         21   -1    0    0  503  502  0.00000000000E+00  0.00000000000E+00  0.11243144637E+04  0.11243144637E+04  0.00000000000E+00 0.  1.
         21   -1    0    0  501  503 -0.00000000000E+00 -0.00000000000E+00 -0.40730438598E+00  0.40730438598E+00  0.00000000000E+00 0. -1.
          2    1    1    2  501    0 -0.16733649120E+02 -0.11657725212E+02  0.39160323915E+03  0.39213392417E+03  0.00000000000E+00 0. -1.
         -2    1    1    2    0  502  0.16733649120E+02  0.11657725212E+02  0.73230392018E+03  0.73258784394E+03  0.00000000000E+00 0.  1.
<mgrwt>
<rscale>  2 0.20394057E+02</rscale>
<asrwt>0</asrwt>
<pdfrwt beam="1">  1       21 0.17296897E+00 0.20394057E+02</pdfrwt>
<pdfrwt beam="2">  1       21 0.62663113E-04 0.20394057E+02</pdfrwt>
<totfact> 0.42480397E+07</totfact>
</mgrwt>
</event>
<event>
 4    1  0.2769537E+004  0.2741165E+02  0.7546771E-02  0.1628598E+00
         21   -1    0    0  503  502  0.00000000000E+00  0.00000000000E+00  0.11240155709E+02  0.11240155709E+02  0.00000000000E+00 0. -1.
         21   -1    0    0  501  503 -0.00000000000E+00 -0.00000000000E+00 -0.96167820770E+02  0.96167820770E+02  0.00000000000E+00 0.  1.
          2    1    1    2  501    0  0.26885242737E+02 -0.53462215014E+01 -0.72116343796E+02  0.77150278055E+02  0.00000000000E+00 0.  1.
         -2    1    1    2    0  502 -0.26885242737E+02  0.53462215014E+01 -0.12811321266E+02  0.30257698425E+02  0.00000000000E+00 0. -1.
<mgrwt>
<rscale>  2 0.27411646E+02</rscale>
<asrwt>0</asrwt>
<pdfrwt beam="1">  1       21 0.17292548E-02 0.27411646E+02</pdfrwt>
<pdfrwt beam="2">  1       21 0.14795049E-01 0.27411646E+02</pdfrwt>
<totfact> 0.47093445E+07</totfact>
</mgrwt>
</event>
<event>
 4    1  0.2769537E+004  0.2508023E+02  0.7546771E-02  0.1659852E+00
         21   -1    0    0  501  502  0.00000000000E+00  0.00000000000E+00  0.51322890815E+02  0.51322890815E+02  0.00000000000E+00 0.  1.
         21   -1    0    0  502  503 -0.00000000000E+00 -0.00000000000E+00 -0.54764038275E+02  0.54764038275E+02  0.00000000000E+00 0. -1.
          2    1    1    2  501    0 -0.23853807815E+02  0.77468626757E+01  0.45011947881E+02  0.51527599213E+02  0.00000000000E+00 0.  1.
         -2    1    1    2    0  503  0.23853807815E+02 -0.77468626757E+01 -0.48453095341E+02  0.54559329878E+02  0.00000000000E+00 0. -1.
<mgrwt>
<rscale>  2 0.25080232E+02</rscale>
<asrwt>0</asrwt>
<pdfrwt beam="1">  1       21 0.78958294E-02 0.25080232E+02</pdfrwt>
<pdfrwt beam="2">  1       21 0.84252366E-02 0.25080232E+02</pdfrwt>
<totfact> 0.10767701E+07</totfact>
</mgrwt>
</event>
<event>
 4    1  0.2769537E+004  0.2058685E+02  0.7546771E-02  0.1733904E+00
         21   -1    0    0  501  502  0.00000000000E+00  0.00000000000E+00  0.37574373995E+03  0.37574373995E+03  0.00000000000E+00 0. -1.
         21   -1    0    0  502  503 -0.00000000000E+00 -0.00000000000E+00 -0.11985590371E+01  0.11985590371E+01  0.00000000000E+00 0.  1.
          2    1    1    2  501    0  0.17288578675E+02  0.11176913445E+02  0.14152585802E+03  0.14301533776E+03  0.00000000000E+00 0. -1.
         -2    1    1    2    0  503 -0.17288578675E+02 -0.11176913445E+02  0.23301932290E+03  0.23392696123E+03  0.00000000000E+00 0.  1.
<mgrwt>
<rscale>  2 0.20586849E+02</rscale>
<asrwt>0</asrwt>
<pdfrwt beam="1">  1       21 0.57806635E-01 0.20586849E+02</pdfrwt>
<pdfrwt beam="2">  1       21 0.18439400E-03 0.20586849E+02</pdfrwt>
<totfact> 0.10057414E+08</totfact>
</mgrwt>
</event>
<event>
 4    1  0.2769537E+004  0.2113397E+02  0.7546771E-02  0.1723675E+00
         21   -1    0    0  501  502  0.00000000000E+00  0.00000000000E+00  0.24071591309E+03  0.24071591309E+03  0.00000000000E+00 0. -1.
         21   -1    0    0  502  503 -0.00000000000E+00 -0.00000000000E+00 -0.87793660759E+01  0.87793660759E+01  0.00000000000E+00 0.  1.
          2    1    1    2  501    0 -0.20295885483E+02 -0.58925158611E+01  0.22675189673E+03  0.22773464247E+03  0.00000000000E+00 0. -1.
         -2    1    1    2    0  503  0.20295885483E+02  0.58925158611E+01  0.51846502811E+01  0.21760636692E+02  0.00000000000E+00 0.  1.
<mgrwt>
<rscale>  2 0.21133971E+02</rscale>
<asrwt>0</asrwt>
<pdfrwt beam="1">  1       21 0.37033212E-01 0.21133971E+02</pdfrwt>
<pdfrwt beam="2">  1       21 0.13506719E-02 0.21133971E+02</pdfrwt>
<totfact> 0.12690489E+07</totfact>
</mgrwt>
</event>
<event>
 4    1  0.2769537E+004  0.2271958E+02  0.7546771E-02  0.1696096E+00
         21   -1    0    0  501  502  0.00000000000E+00  0.00000000000E+00  0.49080216759E+01  0.49080216759E+01  0.00000000000E+00 0.  1.
         21   -1    0    0  502  503 -0.00000000000E+00 -0.00000000000E+00 -0.17709778297E+03  0.17709778297E+03  0.00000000000E+00 0. -1.
          2    1    1    2  501    0  0.99992315335E+01 -0.20400851217E+02 -0.28099240840E+02  0.36135117232E+02  0.00000000000E+00 0.  1.
         -2    1    1    2    0  503 -0.99992315335E+01  0.20400851217E+02 -0.14409052046E+03  0.14587068742E+03  0.00000000000E+00 0. -1.
<mgrwt>
<rscale>  2 0.22719581E+02</rscale>
<asrwt>0</asrwt>
<pdfrwt beam="1">  1       21 0.75508044E-03 0.22719581E+02</pdfrwt>
<pdfrwt beam="2">  1       21 0.27245806E-01 0.22719581E+02</pdfrwt>
<totfact> 0.54068983E+07</totfact>
</mgrwt>
</event>
<event>
 4    1  0.2769537E+004  0.5189658E+02  0.7546771E-02  0.1435372E+00
         21   -1    0    0  503  502  0.00000000000E+00  0.00000000000E+00  0.99968676525E+02  0.99968676525E+02  0.00000000000E+00 0.  1.
         21   -1    0    0  501  503 -0.00000000000E+00 -0.00000000000E+00 -0.28926667370E+02  0.28926667370E+02  0.00000000000E+00 0. -1.
          2    1    1    2  501    0 -0.13697430772E+02 -0.50056323095E+02  0.18635563821E+02  0.55141085685E+02  0.00000000000E+00 0. -1.
         -2    1    1    2    0  502  0.13697430772E+02  0.50056323095E+02  0.52406445334E+02  0.73754258210E+02  0.00000000000E+00 0.  1.
<mgrwt>
<rscale>  2 0.51896581E+02</rscale>
<asrwt>0</asrwt>
<pdfrwt beam="1">  1       21 0.15379796E-01 0.51896581E+02</pdfrwt>
<pdfrwt beam="2">  1       21 0.44502566E-02 0.51896581E+02</pdfrwt>
<totfact> 0.11016667E+07</totfact>
</mgrwt>
</event>
<event>
 4    1  0.2769537E+004  0.2503901E+02  0.7546771E-02  0.1660442E+00
         21   -1    0    0  501  502  0.00000000000E+00  0.00000000000E+00  0.29851385599E+03  0.29851385599E+03  0.00000000000E+00 0. -1.
         21   -1    0    0  502  503 -0.00000000000E+00 -0.00000000000E+00 -0.36093439154E+01  0.36093439154E+01  0.00000000000E+00 0.  1.
          2    1    1    2  501    0  0.13332599263E+02  0.21194195363E+02  0.24513072763E+03  0.24640622100E+03  0.00000000000E+00 0. -1.
         -2    1    1    2    0  503 -0.13332599263E+02 -0.21194195363E+02  0.49773784449E+02  0.55716978907E+02  0.00000000000E+00 0.  1.
<mgrwt>
<rscale>  2 0.25039012E+02</rscale>
<asrwt>0</asrwt>
<pdfrwt beam="1">  1       21 0.45925189E-01 0.25039012E+02</pdfrwt>
<pdfrwt beam="2">  1       21 0.55528391E-03 0.25039012E+02</pdfrwt>
<totfact> 0.33074487E+07</totfact>
</mgrwt>
</event>
<event>
 4    1  0.2769537E+004  0.2764672E+02  0.7546771E-02  0.1625659E+00
         21   -1    0    0  501  502  0.00000000000E+00  0.00000000000E+00  0.13217992297E+03  0.13217992297E+03  0.00000000000E+00 0. -1.
         21   -1    0    0  502  503 -0.00000000000E+00 -0.00000000000E+00 -0.58830724891E+01  0.58830724891E+01  0.00000000000E+00 0.  1.
          2    1    1    2  501    0 -0.16387475690E+02 -0.22266387068E+02  0.72170488987E+02  0.77284673986E+02  0.00000000000E+00 0. -1.
         -2    1    1    2    0  503  0.16387475690E+02  0.22266387068E+02  0.54126361498E+02  0.60778321477E+02  0.00000000000E+00 0.  1.
<mgrwt>
<rscale>  2 0.27646724E+02</rscale>
<asrwt>0</asrwt>
<pdfrwt beam="1">  1       21 0.20335371E-01 0.27646724E+02</pdfrwt>
<pdfrwt beam="2">  1       21 0.90508817E-03 0.27646724E+02</pdfrwt>
<totfact> 0.72741288E+07</totfact>
</mgrwt>
</event>
<event>
 4    1  0.2769537E+004  0.2369761E+02  0.7546771E-02  0.1680445E+00
         21   -1    0    0  501  502  0.00000000000E+00  0.00000000000E+00  0.23917152392E+01  0.23917152392E+01  0.00000000000E+00 0. -1.
         21   -1    0    0  502  503 -0.00000000000E+00 -0.00000000000E+00 -0.31643061653E+03  0.31643061653E+03  0.00000000000E+00 0.  1.
          2    1    1    2  501    0  0.23013708392E+02  0.56520793642E+01 -0.76053249675E+02  0.79659736136E+02  0.00000000000E+00 0. -1.
         -2    1    1    2    0  503 -0.23013708392E+02 -0.56520793642E+01 -0.23798565162E+03  0.23916259563E+03  0.00000000000E+00 0.  1.
<mgrwt>
<rscale>  2 0.23697611E+02</rscale>
<asrwt>0</asrwt>
<pdfrwt beam="1">  1       21 0.36795648E-03 0.23697611E+02</pdfrwt>
<pdfrwt beam="2">  1       21 0.48681594E-01 0.23697611E+02</pdfrwt>
<totfact> 0.53541936E+07</totfact>
</mgrwt>
</event>
<event>
 4    1  0.2769537E+004  0.5454280E+02  0.7546771E-02  0.1422273E+00
         21   -1    0    0  501  502  0.00000000000E+00  0.00000000000E+00  0.85559609759E+02  0.85559609759E+02  0.00000000000E+00 0. -1.
         21   -1    0    0  502  503 -0.00000000000E+00 -0.00000000000E+00 -0.35507526102E+02  0.35507526102E+02  0.00000000000E+00 0.  1.
          2    1    1    2  501    0 -0.37685950083E+01  0.54412451637E+02  0.33749563162E+02  0.64140082750E+02  0.00000000000E+00 0. -1.
         -2    1    1    2    0  503  0.37685950083E+01 -0.54412451637E+02  0.16302520494E+02  0.56927053111E+02  0.00000000000E+00 0.  1.
<mgrwt>
<rscale>  2 0.54542802E+02</rscale>
<asrwt>0</asrwt>
<pdfrwt beam="1">  1       21 0.13163017E-01 0.54542802E+02</pdfrwt>
<pdfrwt beam="2">  1       21 0.54626963E-02 0.54542802E+02</pdfrwt>
<totfact> 0.10397053E+07</totfact>
</mgrwt>
</event>
<event>
 4    1  0.2769537E+004  0.2395203E+02  0.7546771E-02  0.1676527E+00
         21   -1    0    0  501  502  0.00000000000E+00  0.00000000000E+00  0.15732894444E+02  0.15732894444E+02  0.00000000000E+00 0. -1.
         21   -1    0    0  502  503 -0.00000000000E+00 -0.00000000000E+00 -0.38460811723E+02  0.38460811723E+02  0.00000000000E+00 0.  1.
          2    1    1    2  501    0 -0.23122243071E+02  0.62499384596E+01 -0.51913265770E+01  0.24508156336E+02  0.00000000000E+00 0. -1.
         -2    1    1    2    0  503  0.23122243071E+02 -0.62499384596E+01 -0.17536590702E+02  0.29685549832E+02  0.00000000000E+00 0.  1.
<mgrwt>
<rscale>  2 0.23952032E+02</rscale>
<asrwt>0</asrwt>
<pdfrwt beam="1">  1       21 0.24204453E-02 0.23952032E+02</pdfrwt>
<pdfrwt beam="2">  1       21 0.59170479E-02 0.23952032E+02</pdfrwt>
<totfact> 0.12363134E+08</totfact>
</mgrwt>
</event>
<event>
 4    1  0.2769537E+004  0.2421932E+02  0.7546771E-02  0.1672475E+00
         21   -1    0    0  501  502  0.00000000000E+00  0.00000000000E+00  0.83806184447E+01  0.83806184447E+01  0.00000000000E+00 0.  1.
         21   -1    0    0  502  503 -0.00000000000E+00 -0.00000000000E+00 -0.13718295065E+03  0.13718295065E+03  0.00000000000E+00 0. -1.
          2    1    1    2  501    0 -0.20431155106E+02 -0.13005518186E+02 -0.13464763307E+02  0.27710565732E+02  0.00000000000E+00 0.  1.
         -2    1    1    2    0  503  0.20431155106E+02  0.13005518186E+02 -0.11533756890E+03  0.11785300336E+03  0.00000000000E+00 0. -1.
<mgrwt>
<rscale>  2 0.24219323E+02</rscale>
<asrwt>0</asrwt>
<pdfrwt beam="1">  1       21 0.12893258E-02 0.24219323E+02</pdfrwt>
<pdfrwt beam="2">  1       21 0.21105071E-01 0.24219323E+02</pdfrwt>
<totfact> 0.38701468E+07</totfact>
</mgrwt>
</event>
<event>
 4    1  0.2769537E+004  0.2957490E+02  0.7546771E-02  0.1602836E+00
         21   -1    0    0  501  502  0.00000000000E+00  0.00000000000E+00  0.75359381430E+01  0.75359381430E+01  0.00000000000E+00 0. -1.
         21   -1    0    0  502  503 -0.00000000000E+00 -0.00000000000E+00 -0.12509396029E+03  0.12509396029E+03  0.00000000000E+00 0.  1.
          2    1    1    2  501    0 -0.13192272331E+02  0.26469579325E+02 -0.40965028826E+02  0.50525323014E+02  0.00000000000E+00 0. -1.
         -2    1    1    2    0  503  0.13192272331E+02 -0.26469579325E+02 -0.76592993321E+02  0.82104575419E+02  0.00000000000E+00 0.  1.
<mgrwt>
<rscale>  2 0.29574899E+02</rscale>
<asrwt>0</asrwt>
<pdfrwt beam="1">  1       21 0.11593751E-02 0.29574899E+02</pdfrwt>
<pdfrwt beam="2">  1       21 0.19245225E-01 0.29574899E+02</pdfrwt>
<totfact> 0.55959457E+07</totfact>
</mgrwt>
</event>
<event>
 4    1  0.2769537E+004  0.2248745E+02  0.7546771E-02  0.1699956E+00
         21   -1    0    0  501  502  0.00000000000E+00  0.00000000000E+00  0.73410468917E+00  0.73410468917E+00  0.00000000000E+00 0.  1.
         21   -1    0    0  502  503 -0.00000000000E+00 -0.00000000000E+00 -0.15493372726E+04  0.15493372726E+04  0.00000000000E+00 0. -1.
          2    1    1    2  501    0  0.22416045708E+02  0.17905699695E+01 -0.19670861986E+03  0.19798981381E+03  0.00000000000E+00 0.  1.
         -2    1    1    2    0  503 -0.22416045708E+02 -0.17905699695E+01 -0.13518945480E+04  0.13520815634E+04  0.00000000000E+00 0. -1.
<mgrwt>
<rscale>  2 0.22487446E+02</rscale>
<asrwt>0</asrwt>
<pdfrwt beam="1">  1       21 0.11293899E-03 0.22487446E+02</pdfrwt>
<pdfrwt beam="2">  1       21 0.23836000E+00 0.22487446E+02</pdfrwt>
<totfact> 0.81701686E+06</totfact>
</mgrwt>
</event>
<event>
 4    1  0.2769537E+004  0.2127727E+02  0.7546771E-02  0.1721059E+00
         21   -1    0    0  501  502  0.00000000000E+00  0.00000000000E+00  0.13354327982E+01  0.13354327982E+01  0.00000000000E+00 0.  1.
         21   -1    0    0  502  503 -0.00000000000E+00 -0.00000000000E+00 -0.46873959694E+03  0.46873959694E+03  0.00000000000E+00 0. -1.
          2    1    1    2  501    0  0.66309733034E+01 -0.20217630773E+02 -0.11005204562E+03  0.11209003143E+03  0.00000000000E+00 0.  1.
         -2    1    1    2    0  503 -0.66309733034E+01  0.20217630773E+02 -0.35735211852E+03  0.35798499831E+03  0.00000000000E+00 0. -1.
<mgrwt>
<rscale>  2 0.21277274E+02</rscale>
<asrwt>0</asrwt>
<pdfrwt beam="1">  1       21 0.20545105E-03 0.21277274E+02</pdfrwt>
<pdfrwt beam="2">  1       21 0.72113838E-01 0.21277274E+02</pdfrwt>
<totfact> 0.55598860E+07</totfact>
</mgrwt>
</event>
<event>
 4    1  0.2769537E+004  0.2532963E+02  0.7546771E-02  0.1656312E+00
         21   -1    0    0  503  502  0.00000000000E+00  0.00000000000E+00  0.11718497982E+03  0.11718497982E+03  0.00000000000E+00 0.  1.
         21   -1    0    0  501  503 -0.00000000000E+00 -0.00000000000E+00 -0.19348598929E+02  0.19348598929E+02  0.00000000000E+00 0. -1.
          2    1    1    2  501    0  0.17747156997E+02 -0.18072865026E+02 -0.88886166106E+01  0.26843947865E+02  0.00000000000E+00 0. -1.
         -2    1    1    2    0  502 -0.17747156997E+02  0.18072865026E+02  0.10672499750E+03  0.10968963088E+03  0.00000000000E+00 0.  1.
<mgrwt>
<rscale>  2 0.25329628E+02</rscale>
<asrwt>0</asrwt>
<pdfrwt beam="1">  1       21 0.18028458E-01 0.25329628E+02</pdfrwt>
<pdfrwt beam="2">  1       21 0.29767076E-02 0.25329628E+02</pdfrwt>
<totfact> 0.14204644E+07</totfact>
</mgrwt>
</event>
<event>
 4    1  0.2769537E+004  0.2131919E+02  0.7546771E-02  0.1720299E+00
         21   -1    0    0  501  502  0.00000000000E+00  0.00000000000E+00  0.99385607483E+01  0.99385607483E+01  0.00000000000E+00 0. -1.
         21   -1    0    0  502  503 -0.00000000000E+00 -0.00000000000E+00 -0.45789355038E+02  0.45789355038E+02  0.00000000000E+00 0.  1.
          2    1    1    2  501    0 -0.33848425320E+01  0.21048772168E+02 -0.18913534836E+02  0.28499645063E+02  0.00000000000E+00 0.  1.
         -2    1    1    2    0  503  0.33848425320E+01 -0.21048772168E+02 -0.16937259454E+02  0.27228270723E+02  0.00000000000E+00 0. -1.
<mgrwt>
<rscale>  2 0.21319192E+02</rscale>
<asrwt>0</asrwt>
<pdfrwt beam="1">  1       21 0.15290093E-02 0.21319192E+02</pdfrwt>
<pdfrwt beam="2">  1       21 0.70445163E-02 0.21319192E+02</pdfrwt>
<totfact> 0.18205486E+08</totfact>
</mgrwt>
</event>
<event>
 4    1  0.2769537E+004  0.2379101E+02  0.7546771E-02  0.1679000E+00
         21   -1    0    0  501  502  0.00000000000E+00  0.00000000000E+00  0.28553579976E+02  0.28553579976E+02  0.00000000000E+00 0. -1.
         21   -1    0    0  502  503 -0.00000000000E+00 -0.00000000000E+00 -0.23433259094E+02  0.23433259094E+02  0.00000000000E+00 0.  1.
          2    1    1    2  501    0  0.10112319255E+02 -0.21534926329E+02  0.12763162465E+02  0.26998340112E+02  0.00000000000E+00 0. -1.
         -2    1    1    2    0  503 -0.10112319255E+02  0.21534926329E+02 -0.76428415832E+01  0.24988498958E+02  0.00000000000E+00 0.  1.
<mgrwt>
<rscale>  2 0.23791008E+02</rscale>
<asrwt>0</asrwt>
<pdfrwt beam="1">  1       21 0.43928584E-02 0.23791008E+02</pdfrwt>
<pdfrwt beam="2">  1       21 0.36051168E-02 0.23791008E+02</pdfrwt>
<totfact> 0.10666669E+08</totfact>
</mgrwt>
</event>
<event>
 4    1  0.2769537E+004  0.2179159E+02  0.7546771E-02  0.1711882E+00
         21   -1    0    0  503  502  0.00000000000E+00  0.00000000000E+00  0.28929366490E+00  0.28929366490E+00  0.00000000000E+00 0. -1.
         21   -1    0    0  501  503 -0.00000000000E+00 -0.00000000000E+00 -0.17870939192E+04  0.17870939192E+04  0.00000000000E+00 0.  1.
          2    1    1    2  501    0 -0.11086059993E+02 -0.18760931149E+02 -0.11484946425E+04  0.11487013612E+04  0.00000000000E+00 0. -1.
         -2    1    1    2    0  502  0.11086059993E+02  0.18760931149E+02 -0.63830998299E+03  0.63868185167E+03  0.00000000000E+00 0.  1.
<mgrwt>
<rscale>  2 0.21791587E+02</rscale>
<asrwt>0</asrwt>
<pdfrwt beam="1">  1       21 0.44507462E-04 0.21791587E+02</pdfrwt>
<pdfrwt beam="2">  1       21 0.27493293E+00 0.21791587E+02</pdfrwt>
<totfact> 0.20100262E+07</totfact>
</mgrwt>
</event>
<event>
 4    1  0.2769537E+004  0.2421793E+02  0.7546771E-02  0.1672496E+00
         21   -1    0    0  501  502  0.00000000000E+00  0.00000000000E+00  0.39567623887E+02  0.39567623887E+02  0.00000000000E+00 0. -1.
         21   -1    0    0  502  503 -0.00000000000E+00 -0.00000000000E+00 -0.16926394224E+02  0.16926394224E+02  0.00000000000E+00 0.  1.
          2    1    1    2  501    0  0.23788092395E+02 -0.45425383752E+01  0.21278294082E+02  0.32237769677E+02  0.00000000000E+00 0. -1.
         -2    1    1    2    0  503 -0.23788092395E+02  0.45425383752E+01  0.13629355807E+01  0.24256248434E+02  0.00000000000E+00 0.  1.
<mgrwt>
<rscale>  2 0.24217927E+02</rscale>
<asrwt>0</asrwt>
<pdfrwt beam="1">  1       21 0.60873267E-02 0.24217927E+02</pdfrwt>
<pdfrwt beam="2">  1       21 0.26040607E-02 0.24217927E+02</pdfrwt>
<totfact> 0.10580173E+08</totfact>
</mgrwt>
</event>
<event>
 4    1  0.2769537E+004  0.2529890E+02  0.7546771E-02  0.1656745E+00
         21   -1    0    0  501  502  0.00000000000E+00  0.00000000000E+00  0.28150795101E+03  0.28150795101E+03  0.00000000000E+00 0.  1.
         21   -1    0    0  502  503 -0.00000000000E+00 -0.00000000000E+00 -0.34105544732E+01  0.34105544732E+01  0.00000000000E+00 0. -1.
          2    1    1    2  501    0 -0.18018195567E+02 -0.17758916439E+02  0.22130156744E+03  0.22274294206E+03  0.00000000000E+00 0.  1.
         -2    1    1    2    0  503  0.18018195567E+02  0.17758916439E+02  0.56795829092E+02  0.62175563422E+02  0.00000000000E+00 0. -1.
<mgrwt>
<rscale>  2 0.25298903E+02</rscale>
<asrwt>0</asrwt>
<pdfrwt beam="1">  1       21 0.43308897E-01 0.25298903E+02</pdfrwt>
<pdfrwt beam="2">  1       21 0.52470091E-03 0.25298903E+02</pdfrwt>
<totfact> 0.40346994E+07</totfact>
</mgrwt>
</event>
<event>
 4    1  0.2769537E+004  0.2820355E+02  0.7546771E-02  0.1618839E+00
         21   -1    0    0  503  502  0.00000000000E+00  0.00000000000E+00  0.85262652873E+01  0.85262652873E+01  0.00000000000E+00 0. -1.
         21   -1    0    0  501  503 -0.00000000000E+00 -0.00000000000E+00 -0.93948133627E+02  0.93948133627E+02  0.00000000000E+00 0.  1.
          2    1    1    2  501    0 -0.26279413459E+02  0.10238784221E+02 -0.38432061946E+02  0.47670364583E+02  0.00000000000E+00 0.  1.
         -2    1    1    2    0  502  0.26279413459E+02 -0.10238784221E+02 -0.46989806393E+02  0.54804034331E+02  0.00000000000E+00 0. -1.
<mgrwt>
<rscale>  2 0.28203551E+02</rscale>
<asrwt>0</asrwt>
<pdfrwt beam="1">  1       21 0.13117331E-02 0.28203551E+02</pdfrwt>
<pdfrwt beam="2">  1       21 0.14453559E-01 0.28203551E+02</pdfrwt>
<totfact> 0.75325254E+07</totfact>
</mgrwt>
</event>
<event>
 4    1  0.2769537E+004  0.2693873E+02  0.7546771E-02  0.1634621E+00
         21   -1    0    0  503  502  0.00000000000E+00  0.00000000000E+00  0.58719776188E+02  0.58719776188E+02  0.00000000000E+00 0. -1.
         21   -1    0    0  501  503 -0.00000000000E+00 -0.00000000000E+00 -0.29697855616E+02  0.29697855616E+02  0.00000000000E+00 0.  1.
          2    1    1    2  501    0 -0.20161279832E+02  0.17866670455E+02 -0.19269173982E+02  0.33120932709E+02  0.00000000000E+00 0.  1.
         -2    1    1    2    0  502  0.20161279832E+02 -0.17866670455E+02  0.48291094553E+02  0.55296699095E+02  0.00000000000E+00 0. -1.
<mgrwt>
<rscale>  2 0.26938729E+02</rscale>
<asrwt>0</asrwt>
<pdfrwt beam="1">  1       21 0.90338117E-02 0.26938729E+02</pdfrwt>
<pdfrwt beam="2">  1       21 0.45689009E-02 0.26938729E+02</pdfrwt>
<totfact> 0.23541584E+07</totfact>
</mgrwt>
</event>
<event>
 4    1  0.2769537E+004  0.2347632E+02  0.7546771E-02  0.1683903E+00
         21   -1    0    0  501  502  0.00000000000E+00  0.00000000000E+00  0.66400548293E+02  0.66400548293E+02  0.00000000000E+00 0.  1.
         21   -1    0    0  502  503 -0.00000000000E+00 -0.00000000000E+00 -0.16163049537E+02  0.16163049537E+02  0.00000000000E+00 0. -1.
          2    1    1    2  501    0 -0.11472754746E+02 -0.20482029446E+02  0.53911756687E+02  0.58801489273E+02  0.00000000000E+00 0.  1.
         -2    1    1    2    0  503  0.11472754746E+02  0.20482029446E+02 -0.36742579310E+01  0.23762108556E+02  0.00000000000E+00 0. -1.
<mgrwt>
<rscale>  2 0.23476321E+02</rscale>
<asrwt>0</asrwt>
<pdfrwt beam="1">  1       21 0.10215469E-01 0.23476321E+02</pdfrwt>
<pdfrwt beam="2">  1       21 0.24866230E-02 0.23476321E+02</pdfrwt>
<totfact> 0.48377981E+07</totfact>
</mgrwt>
</event>
<event>
 4    1  0.2769537E+004  0.3148322E+02  0.7546771E-02  0.1582249E+00
         21   -1    0    0  503  502  0.00000000000E+00  0.00000000000E+00  0.41802827205E+01  0.41802827205E+01  0.00000000000E+00 0. -1.
         21   -1    0    0  501  503 -0.00000000000E+00 -0.00000000000E+00 -0.24142636839E+03  0.24142636839E+03  0.00000000000E+00 0.  1.
          2    1    1    2  501    0  0.11994800312E+02 -0.29108720893E+02 -0.10220564057E+03  0.10694477935E+03  0.00000000000E+00 0. -1.
         -2    1    1    2    0  502 -0.11994800312E+02  0.29108720893E+02 -0.13504044509E+03  0.13866187175E+03  0.00000000000E+00 0.  1.
<mgrwt>
<rscale>  2 0.31483216E+02</rscale>
<asrwt>0</asrwt>
<pdfrwt beam="1">  1       21 0.64312052E-03 0.31483216E+02</pdfrwt>
<pdfrwt beam="2">  1       21 0.37142513E-01 0.31483216E+02</pdfrwt>
<totfact> 0.41733698E+07</totfact>
</mgrwt>
</event>
<event>
 4    1  0.2769537E+004  0.3332518E+02  0.7546771E-02  0.1563997E+00
         21   -1    0    0  503  502  0.00000000000E+00  0.00000000000E+00  0.72183513616E+02  0.72183513616E+02  0.00000000000E+00 0. -1.
         21   -1    0    0  501  503 -0.00000000000E+00 -0.00000000000E+00 -0.40683226951E+02  0.40683226951E+02  0.00000000000E+00 0.  1.
          2    1    1    2  501    0 -0.33321469764E+02 -0.49708330726E+00 -0.28750928317E+02  0.44013444743E+02  0.00000000000E+00 0.  1.
         -2    1    1    2    0  502  0.33321469764E+02  0.49708330726E+00  0.60251214982E+02  0.68853295824E+02  0.00000000000E+00 0. -1.
<mgrwt>
<rscale>  2 0.33325177E+02</rscale>
<asrwt>0</asrwt>
<pdfrwt beam="1">  1       21 0.11105156E-01 0.33325177E+02</pdfrwt>
<pdfrwt beam="2">  1       21 0.62589580E-02 0.33325177E+02</pdfrwt>
<totfact> 0.10424569E+07</totfact>
</mgrwt>
</event>
<event>
 4    1  0.2769537E+004  0.4076020E+02  0.7546771E-02  0.1502691E+00
         21   -1    0    0  501  502  0.00000000000E+00  0.00000000000E+00  0.12456069578E+04  0.12456069578E+04  0.00000000000E+00 0.  1.
         21   -1    0    0  502  503 -0.00000000000E+00 -0.00000000000E+00 -0.22939147181E+01  0.22939147181E+01  0.00000000000E+00 0. -1.
          2    1    1    2  501    0 -0.15630436257E+02 -0.37644172930E+02  0.10253226827E+04  0.10261325440E+04  0.00000000000E+00 0.  1.
         -2    1    1    2    0  503  0.15630436257E+02  0.37644172930E+02  0.21799036035E+03  0.22176832844E+03  0.00000000000E+00 0. -1.
<mgrwt>
<rscale>  2 0.40760205E+02</rscale>
<asrwt>0</asrwt>
<pdfrwt beam="1">  1       21 0.19163130E+00 0.40760205E+02</pdfrwt>
<pdfrwt beam="2">  1       21 0.35291095E-03 0.40760205E+02</pdfrwt>
<totfact> 0.29073322E+06</totfact>
</mgrwt>
</event>
<event>
 4    1  0.2769537E+004  0.2603189E+02  0.7546771E-02  0.1646608E+00
         21   -1    0    0  501  502  0.00000000000E+00  0.00000000000E+00  0.15331345537E+02  0.15331345537E+02  0.00000000000E+00 0. -1.
         21   -1    0    0  502  503 -0.00000000000E+00 -0.00000000000E+00 -0.11671771908E+03  0.11671771908E+03  0.00000000000E+00 0.  1.
          2    1    1    2  501    0  0.26008289219E+02  0.11081202955E+01  0.13490981183E+01  0.26066819991E+02  0.00000000000E+00 0. -1.
         -2    1    1    2    0  503 -0.26008289219E+02 -0.11081202955E+01 -0.10273547166E+03  0.10598224463E+03  0.00000000000E+00 0.  1.
<mgrwt>
<rscale>  2 0.26031885E+02</rscale>
<asrwt>0</asrwt>
<pdfrwt beam="1">  1       21 0.23586685E-02 0.26031885E+02</pdfrwt>
<pdfrwt beam="2">  1       21 0.17956573E-01 0.26031885E+02</pdfrwt>
<totfact> 0.20655288E+07</totfact>
</mgrwt>
</event>
<event>
 4    1  0.2769537E+004  0.3193064E+02  0.7546771E-02  0.1577679E+00
         21   -1    0    0  501  502  0.00000000000E+00  0.00000000000E+00  0.30147423660E+02  0.30147423660E+02  0.00000000000E+00 0.  1.
         21   -1    0    0  502  503 -0.00000000000E+00 -0.00000000000E+00 -0.42752329929E+02  0.42752329929E+02  0.00000000000E+00 0. -1.
          2    1    1    2  501    0 -0.12681073937E+00  0.31930383739E+02  0.10359080850E+02  0.33568974407E+02  0.00000000000E+00 0.  1.
         -2    1    1    2    0  503  0.12681073937E+00 -0.31930383739E+02 -0.22963987118E+02  0.39330779182E+02  0.00000000000E+00 0. -1.
<mgrwt>
<rscale>  2 0.31930636E+02</rscale>
<asrwt>0</asrwt>
<pdfrwt beam="1">  1       21 0.46380652E-02 0.31930636E+02</pdfrwt>
<pdfrwt beam="2">  1       21 0.65772815E-02 0.31930636E+02</pdfrwt>
<totfact> 0.40114401E+07</totfact>
</mgrwt>
</event>
<event>
 4    1  0.2769537E+004  0.2574845E+02  0.7546771E-02  0.1650479E+00
         21   -1    0    0  503  502  0.00000000000E+00  0.00000000000E+00  0.46682192761E+02  0.46682192761E+02  0.00000000000E+00 0.  1.
         21   -1    0    0  501  503 -0.00000000000E+00 -0.00000000000E+00 -0.19420400514E+02  0.19420400514E+02  0.00000000000E+00 0. -1.
          2    1    1    2  501    0 -0.22416696761E+02 -0.12667841827E+02 -0.35018241635E+01  0.25985482152E+02  0.00000000000E+00 0. -1.
         -2    1    1    2    0  502  0.22416696761E+02  0.12667841827E+02  0.30763616410E+02  0.40117111123E+02  0.00000000000E+00 0.  1.
<mgrwt>
<rscale>  2 0.25748447E+02</rscale>
<asrwt>0</asrwt>
<pdfrwt beam="1">  1       21 0.71818758E-02 0.25748447E+02</pdfrwt>
<pdfrwt beam="2">  1       21 0.29877539E-02 0.25748447E+02</pdfrwt>
<totfact> 0.66394657E+07</totfact>
</mgrwt>
</event>
<event>
 4    1  0.2769537E+004  0.2130509E+02  0.7546771E-02  0.1720555E+00
         21   -1    0    0  503  502  0.00000000000E+00  0.00000000000E+00  0.75596128789E+02  0.75596128789E+02  0.00000000000E+00 0. -1.
         21   -1    0    0  501  503 -0.00000000000E+00 -0.00000000000E+00 -0.60125605630E+01  0.60125605630E+01  0.00000000000E+00 0.  1.
          2    1    1    2  501    0 -0.19953908771E+02  0.74664717677E+01  0.36298363378E+02  0.42088927996E+02  0.00000000000E+00 0. -1.
         -2    1    1    2    0  502  0.19953908771E+02 -0.74664717677E+01  0.33285204848E+02  0.39519761357E+02  0.00000000000E+00 0.  1.
<mgrwt>
<rscale>  2 0.21305086E+02</rscale>
<asrwt>0</asrwt>
<pdfrwt beam="1">  1       21 0.11630173E-01 0.21305086E+02</pdfrwt>
<pdfrwt beam="2">  1       21 0.92500937E-03 0.21305086E+02</pdfrwt>
<totfact> 0.17052890E+08</totfact>
</mgrwt>
</event>
<event>
 4    1  0.2769537E+004  0.2258001E+02  0.7546771E-02  0.1698410E+00
         21   -1    0    0  503  502  0.00000000000E+00  0.00000000000E+00  0.99265373416E+02  0.99265373416E+02  0.00000000000E+00 0.  1.
         21   -1    0    0  501  503 -0.00000000000E+00 -0.00000000000E+00 -0.16042988406E+02  0.16042988406E+02  0.00000000000E+00 0. -1.
          2    1    1    2  501    0 -0.16711632052E+02  0.15184807793E+02 -0.59261134089E+01  0.23344717897E+02  0.00000000000E+00 0. -1.
         -2    1    1    2    0  502  0.16711632052E+02 -0.15184807793E+02  0.89148498419E+02  0.91963643925E+02  0.00000000000E+00 0.  1.
<mgrwt>
<rscale>  2 0.22580014E+02</rscale>
<asrwt>0</asrwt>
<pdfrwt beam="1">  1       21 0.15271596E-01 0.22580014E+02</pdfrwt>
<pdfrwt beam="2">  1       21 0.24681521E-02 0.22580014E+02</pdfrwt>
<totfact> 0.24671557E+07</totfact>
</mgrwt>
</event>
<event>
 4    1  0.2769537E+004  0.2833513E+02  0.7546771E-02  0.1617256E+00
         21   -1    0    0  501  502  0.00000000000E+00  0.00000000000E+00  0.21747892193E+03  0.21747892193E+03  0.00000000000E+00 0.  1.
         21   -1    0    0  502  503 -0.00000000000E+00 -0.00000000000E+00 -0.23817319448E+02  0.23817319448E+02  0.00000000000E+00 0. -1.
          2    1    1    2  501    0  0.18728534256E+02  0.21263146866E+02  0.20773503609E+03  0.20965859064E+03  0.00000000000E+00 0.  1.
         -2    1    1    2    0  503 -0.18728534256E+02 -0.21263146866E+02 -0.14073433616E+02  0.31637650731E+02  0.00000000000E+00 0. -1.
<mgrwt>
<rscale>  2 0.28335127E+02</rscale>
<asrwt>0</asrwt>
<pdfrwt beam="1">  1       21 0.33458294E-01 0.28335127E+02</pdfrwt>
<pdfrwt beam="2">  1       21 0.36642031E-02 0.28335127E+02</pdfrwt>
<totfact> 0.34405285E+06</totfact>
</mgrwt>
</event>
<event>
 4    1  0.2769537E+004  0.2166986E+02  0.7546771E-02  0.1714025E+00
         21   -1    0    0  503  502  0.00000000000E+00  0.00000000000E+00  0.10953287498E+01  0.10953287498E+01  0.00000000000E+00 0. -1.
         21   -1    0    0  501  503 -0.00000000000E+00 -0.00000000000E+00 -0.43256301301E+03  0.43256301301E+03  0.00000000000E+00 0.  1.
          2    1    1    2  501    0 -0.33817243711E+01  0.21404364810E+02 -0.23618704713E+03  0.23717905499E+03  0.00000000000E+00 0.  1.
         -2    1    1    2    0  502  0.33817243711E+01 -0.21404364810E+02 -0.19528063713E+03  0.19647928677E+03  0.00000000000E+00 0. -1.
<mgrwt>
<rscale>  2 0.21669861E+02</rscale>
<asrwt>0</asrwt>
<pdfrwt beam="1">  1       21 0.16851169E-03 0.21669861E+02</pdfrwt>
<pdfrwt beam="2">  1       21 0.66548325E-01 0.21669861E+02</pdfrwt>
<totfact> 0.87499242E+07</totfact>
</mgrwt>
</event>
<event>
 4    1  0.2769537E+004  0.2659000E+02  0.7546771E-02  0.1639161E+00
         21   -1    0    0  503  502  0.00000000000E+00  0.00000000000E+00  0.40979436645E+01  0.40979436645E+01  0.00000000000E+00 0. -1.
         21   -1    0    0  501  503 -0.00000000000E+00 -0.00000000000E+00 -0.18243843633E+03  0.18243843633E+03  0.00000000000E+00 0.  1.
          2    1    1    2  501    0 -0.13969398980E+02 -0.22624854328E+02 -0.11090350643E+03  0.11404655137E+03  0.00000000000E+00 0.  1.
         -2    1    1    2    0  502  0.13969398980E+02  0.22624854328E+02 -0.67436986232E+02  0.72489828620E+02  0.00000000000E+00 0. -1.
<mgrwt>
<rscale>  2 0.26590001E+02</rscale>
<asrwt>0</asrwt>
<pdfrwt beam="1">  1       21 0.63045273E-03 0.26590001E+02</pdfrwt>
<pdfrwt beam="2">  1       21 0.28067458E-01 0.26590001E+02</pdfrwt>
<totfact> 0.69656403E+07</totfact>
</mgrwt>
</event>
<event>
 4    1  0.2769537E+004  0.2237575E+02  0.7546771E-02  0.1701833E+00
         21   -1    0    0  503  502  0.00000000000E+00  0.00000000000E+00  0.83519981880E+00  0.83519981880E+00  0.00000000000E+00 0. -1.
         21   -1    0    0  501  503 -0.00000000000E+00 -0.00000000000E+00 -0.77121460520E+03  0.77121460520E+03  0.00000000000E+00 0.  1.
          2    1    1    2  501    0 -0.46427704786E+01  0.21888782353E+02 -0.56735849599E+03  0.56779955713E+03  0.00000000000E+00 0.  1.
         -2    1    1    2    0  502  0.46427704786E+01 -0.21888782353E+02 -0.20302090940E+03  0.20425024789E+03  0.00000000000E+00 0. -1.
<mgrwt>
<rscale>  2 0.22375748E+02</rscale>
<asrwt>0</asrwt>
<pdfrwt beam="1">  1       21 0.12849248E-03 0.22375748E+02</pdfrwt>
<pdfrwt beam="2">  1       21 0.11864822E+00 0.22375748E+02</pdfrwt>
<totfact> 0.37794653E+07</totfact>
</mgrwt>
</event>
<event>
 4    1  0.2769537E+004  0.2122808E+02  0.7546771E-02  0.1721954E+00
         21   -1    0    0  501  502  0.00000000000E+00  0.00000000000E+00  0.46109454892E+02  0.46109454892E+02  0.00000000000E+00 0.  1.
         21   -1    0    0  502  503 -0.00000000000E+00 -0.00000000000E+00 -0.16110029857E+02  0.16110029857E+02  0.00000000000E+00 0. -1.
          2    1    1    2  501    0  0.15749991043E+02 -0.14232679857E+02  0.34511109964E+02  0.40517256875E+02  0.00000000000E+00 0.  1.
         -2    1    1    2    0  503 -0.15749991043E+02  0.14232679857E+02 -0.45116849281E+01  0.21702227873E+02  0.00000000000E+00 0. -1.
<mgrwt>
<rscale>  2 0.21228080E+02</rscale>
<asrwt>0</asrwt>
<pdfrwt beam="1">  1       21 0.70937622E-02 0.21228080E+02</pdfrwt>
<pdfrwt beam="2">  1       21 0.24784662E-02 0.21228080E+02</pdfrwt>
<totfact> 0.85919366E+07</totfact>
</mgrwt>
</event>
<event>
 4    1  0.2769537E+004  0.4243783E+02  0.7546771E-02  0.1491001E+00
         21   -1    0    0  501  502  0.00000000000E+00  0.00000000000E+00  0.93309792239E+02  0.93309792239E+02  0.00000000000E+00 0.  1.
         21   -1    0    0  502  503 -0.00000000000E+00 -0.00000000000E+00 -0.38183632747E+02  0.38183632747E+02  0.00000000000E+00 0. -1.
          2    1    1    2  501    0  0.42334417402E+02 -0.29607785069E+01  0.73797677820E+02  0.85129703146E+02  0.00000000000E+00 0.  1.
         -2    1    1    2    0  503 -0.42334417402E+02  0.29607785069E+01 -0.18671518328E+02  0.46363721840E+02  0.00000000000E+00 0. -1.
<mgrwt>
<rscale>  2 0.42437826E+02</rscale>
<asrwt>0</asrwt>
<pdfrwt beam="1">  1       21 0.14355353E-01 0.42437826E+02</pdfrwt>
<pdfrwt beam="2">  1       21 0.58744050E-02 0.42437826E+02</pdfrwt>
<totfact> 0.77037821E+06</totfact>
</mgrwt>
</event>
<event>
 4    1  0.2769537E+004  0.2235200E+02  0.7546771E-02  0.1702235E+00
         21   -1    0    0  503  502  0.00000000000E+00  0.00000000000E+00  0.19076941205E+02  0.19076941205E+02  0.00000000000E+00 0. -1.
         21   -1    0    0  501  503 -0.00000000000E+00 -0.00000000000E+00 -0.27290676474E+02  0.27290676474E+02  0.00000000000E+00 0.  1.
          2    1    1    2  501    0 -0.13510035747E+02  0.17807043218E+02 -0.87642759834E+01  0.24008839780E+02  0.00000000000E+00 0.  1.
         -2    1    1    2    0  502  0.13510035747E+02 -0.17807043218E+02  0.55054071521E+00  0.22358777899E+02  0.00000000000E+00 0. -1.
<mgrwt>
<rscale>  2 0.22351999E+02</rscale>
<asrwt>0</asrwt>
<pdfrwt beam="1">  1       21 0.29349140E-02 0.22351999E+02</pdfrwt>
<pdfrwt beam="2">  1       21 0.41985656E-02 0.22351999E+02</pdfrwt>
<totfact> 0.15508514E+08</totfact>
</mgrwt>
</event>
<event>
 4    1  0.2769537E+004  0.2903564E+02  0.7546771E-02  0.1609000E+00
         21   -1    0    0  503  502  0.00000000000E+00  0.00000000000E+00  0.73252910421E+02  0.73252910421E+02  0.00000000000E+00 0. -1.
         21   -1    0    0  501  503 -0.00000000000E+00 -0.00000000000E+00 -0.35861777249E+02  0.35861777249E+02  0.00000000000E+00 0.  1.
          2    1    1    2  501    0 -0.23267491839E+02  0.17369296811E+02 -0.26262896074E+02  0.39151096515E+02  0.00000000000E+00 0.  1.
         -2    1    1    2    0  502  0.23267491839E+02 -0.17369296811E+02  0.63654029245E+02  0.69963591155E+02  0.00000000000E+00 0. -1.
<mgrwt>
<rscale>  2 0.29035644E+02</rscale>
<asrwt>0</asrwt>
<pdfrwt beam="1">  1       21 0.11269678E-01 0.29035644E+02</pdfrwt>
<pdfrwt beam="2">  1       21 0.55171965E-02 0.29035644E+02</pdfrwt>
<totfact> 0.12204077E+07</totfact>
</mgrwt>
</event>
<event>
 4    1  0.2769537E+004  0.3087536E+02  0.7546771E-02  0.1588609E+00
         21   -1    0    0  501  502  0.00000000000E+00  0.00000000000E+00  0.80728995989E+01  0.80728995989E+01  0.00000000000E+00 0. -1.
         21   -1    0    0  502  503 -0.00000000000E+00 -0.00000000000E+00 -0.11808768141E+03  0.11808768141E+03  0.00000000000E+00 0.  1.
          2    1    1    2  501    0 -0.23845442735E+02 -0.19613333473E+02 -0.54704313099E+02  0.62816000038E+02  0.00000000000E+00 0. -1.
         -2    1    1    2    0  503  0.23845442735E+02  0.19613333473E+02 -0.55310468709E+02  0.63344580967E+02  0.00000000000E+00 0.  1.
<mgrwt>
<rscale>  2 0.30875362E+02</rscale>
<asrwt>0</asrwt>
<pdfrwt beam="1">  1       21 0.12419846E-02 0.30875362E+02</pdfrwt>
<pdfrwt beam="2">  1       21 0.18167334E-01 0.30875362E+02</pdfrwt>
<totfact> 0.56262179E+07</totfact>
</mgrwt>
</event>
<event>
 4    1  0.2769537E+004  0.2716443E+02  0.7546771E-02  0.1631728E+00
         21   -1    0    0  503  502  0.00000000000E+00  0.00000000000E+00  0.19249801151E+02  0.19249801151E+02  0.00000000000E+00 0. -1.
         21   -1    0    0  501  503 -0.00000000000E+00 -0.00000000000E+00 -0.42904449117E+02  0.42904449117E+02  0.00000000000E+00 0.  1.
          2    1    1    2  501    0 -0.27073228721E+02 -0.22241099343E+01 -0.21971280076E+02  0.34937709235E+02  0.00000000000E+00 0.  1.
         -2    1    1    2    0  502  0.27073228721E+02  0.22241099343E+01 -0.16833678906E+01  0.27216541033E+02  0.00000000000E+00 0. -1.
<mgrwt>
<rscale>  2 0.27164432E+02</rscale>
<asrwt>0</asrwt>
<pdfrwt beam="1">  1       21 0.29615079E-02 0.27164432E+02</pdfrwt>
<pdfrwt beam="2">  1       21 0.66006844E-02 0.27164432E+02</pdfrwt>
<totfact> 0.78268767E+07</totfact>
</mgrwt>
</event>
<event>
 4    1  0.2769537E+004  0.2413489E+02  0.7546771E-02  0.1673748E+00
         21   -1    0    0  503  502  0.00000000000E+00  0.00000000000E+00  0.37851099449E+01  0.37851099449E+01  0.00000000000E+00 0.  1.
         21   -1    0    0  501  503 -0.00000000000E+00 -0.00000000000E+00 -0.15954788764E+03  0.15954788764E+03  0.00000000000E+00 0. -1.
          2    1    1    2  501    0 -0.21465546817E+02 -0.11032815700E+02 -0.93259526178E+02  0.96331884366E+02  0.00000000000E+00 0. -1.
         -2    1    1    2    0  502  0.21465546817E+02  0.11032815700E+02 -0.62503251514E+02  0.67001113216E+02  0.00000000000E+00 0.  1.
<mgrwt>
<rscale>  2 0.24134886E+02</rscale>
<asrwt>0</asrwt>
<pdfrwt beam="1">  1       21 0.58232446E-03 0.24134886E+02</pdfrwt>
<pdfrwt beam="2">  1       21 0.24545835E-01 0.24134886E+02</pdfrwt>
<totfact> 0.97414045E+07</totfact>
</mgrwt>
</event>
<event>
 4    1  0.2769537E+004  0.2164992E+02  0.7546771E-02  0.1714378E+00
         21   -1    0    0  503  502  0.00000000000E+00  0.00000000000E+00  0.37749663594E+03  0.37749663594E+03  0.00000000000E+00 0. -1.
         21   -1    0    0  501  503 -0.00000000000E+00 -0.00000000000E+00 -0.12951488446E+01  0.12951488446E+01  0.00000000000E+00 0.  1.
          2    1    1    2  501    0  0.12670810241E+00 -0.21649546939E+02  0.14960786940E+03  0.15116624465E+03  0.00000000000E+00 0.  1.
         -2    1    1    2    0  502 -0.12670810241E+00  0.21649546939E+02  0.22659361770E+03  0.22762554013E+03  0.00000000000E+00 0. -1.
<mgrwt>
<rscale>  2 0.21649918E+02</rscale>
<asrwt>0</asrwt>
<pdfrwt beam="1">  1       21 0.58076318E-01 0.21649918E+02</pdfrwt>
<pdfrwt beam="2">  1       21 0.19925397E-03 0.21649918E+02</pdfrwt>
<totfact> 0.90328943E+07</totfact>
</mgrwt>
</event>
<event>
 4    1  0.2769537E+004  0.2416515E+02  0.7546771E-02  0.1673291E+00
         21   -1    0    0  501  502  0.00000000000E+00  0.00000000000E+00  0.23507425721E+02  0.23507425721E+02  0.00000000000E+00 0. -1.
         21   -1    0    0  502  503 -0.00000000000E+00 -0.00000000000E+00 -0.31649623671E+02  0.31649623671E+02  0.00000000000E+00 0.  1.
          2    1    1    2  501    0 -0.68287030011E+01  0.23180230106E+02  0.87200007795E+01  0.25690322420E+02  0.00000000000E+00 0. -1.
         -2    1    1    2    0  503  0.68287030011E+01 -0.23180230106E+02 -0.16862198729E+02  0.29466726972E+02  0.00000000000E+00 0.  1.
<mgrwt>
<rscale>  2 0.24165145E+02</rscale>
<asrwt>0</asrwt>
<pdfrwt beam="1">  1       21 0.36165271E-02 0.24165145E+02</pdfrwt>
<pdfrwt beam="2">  1       21 0.48691728E-02 0.24165145E+02</pdfrwt>
<totfact> 0.90526545E+07</totfact>
</mgrwt>
</event>
<event>
 4    1  0.2769537E+004  0.2899916E+02  0.7546771E-02  0.1609423E+00
         21   -1    0    0  501  502  0.00000000000E+00  0.00000000000E+00  0.14522953996E+02  0.14522953996E+02  0.00000000000E+00 0.  1.
         21   -1    0    0  502  503 -0.00000000000E+00 -0.00000000000E+00 -0.81328211658E+02  0.81328211658E+02  0.00000000000E+00 0. -1.
          2    1    1    2  501    0  0.26350159641E+02  0.12108697008E+02 -0.76826777901E+01  0.29999583236E+02  0.00000000000E+00 0.  1.
         -2    1    1    2    0  503 -0.26350159641E+02 -0.12108697008E+02 -0.59122579871E+02  0.65851582418E+02  0.00000000000E+00 0. -1.
<mgrwt>
<rscale>  2 0.28999163E+02</rscale>
<asrwt>0</asrwt>
<pdfrwt beam="1">  1       21 0.22343007E-02 0.28999163E+02</pdfrwt>
<pdfrwt beam="2">  1       21 0.12512032E-01 0.28999163E+02</pdfrwt>
<totfact> 0.42721413E+07</totfact>
</mgrwt>
</event>
<event>
 4    1  0.2769537E+004  0.2341021E+02  0.7546771E-02  0.1684946E+00
         21   -1    0    0  503  502  0.00000000000E+00  0.00000000000E+00  0.28107275039E+01  0.28107275039E+01  0.00000000000E+00 0.  1.
         21   -1    0    0  501  503 -0.00000000000E+00 -0.00000000000E+00 -0.53386558362E+03  0.53386558362E+03  0.00000000000E+00 0. -1.
          2    1    1    2  501    0  0.38186533944E+01 -0.23096664975E+02 -0.47931992940E+03  0.47989127182E+03  0.00000000000E+00 0. -1.
         -2    1    1    2    0  502 -0.38186533944E+01  0.23096664975E+02 -0.51734926719E+02  0.56785039309E+02  0.00000000000E+00 0.  1.
<mgrwt>
<rscale>  2 0.23410212E+02</rscale>
<asrwt>0</asrwt>
<pdfrwt beam="1">  1       21 0.43241993E-03 0.23410212E+02</pdfrwt>
<pdfrwt beam="2">  1       21 0.82133106E-01 0.23410212E+02</pdfrwt>
<totfact> 0.14649245E+07</totfact>
</mgrwt>
</event>
<event>
 4    1  0.2769537E+004  0.2203067E+02  0.7546771E-02  0.1707722E+00
         21   -1    0    0  501  502  0.00000000000E+00  0.00000000000E+00  0.12107324361E+04  0.12107324361E+04  0.00000000000E+00 0.  1.
         21   -1    0    0  502  503 -0.00000000000E+00 -0.00000000000E+00 -0.56938789421E+00  0.56938789421E+00  0.00000000000E+00 0. -1.
          2    1    1    2  501    0 -0.22024900483E+02 -0.50409702642E+00  0.93456752661E+03  0.93482715629E+03  0.00000000000E+00 0.  1.
         -2    1    1    2    0  503  0.22024900483E+02  0.50409702642E+00  0.27559552165E+03  0.27647466775E+03  0.00000000000E+00 0. -1.
<mgrwt>
<rscale>  2 0.22030669E+02</rscale>
<asrwt>0</asrwt>
<pdfrwt beam="1">  1       21 0.18626447E+00 0.22030669E+02</pdfrwt>
<pdfrwt beam="2">  1       21 0.87599107E-04 0.22030669E+02</pdfrwt>
<totfact> 0.22341296E+07</totfact>
</mgrwt>
</event>
<event>
 4    1  0.2769537E+004  0.3077979E+02  0.7546771E-02  0.1589626E+00
         21   -1    0    0  503  502  0.00000000000E+00  0.00000000000E+00  0.31260693809E+02  0.31260693809E+02  0.00000000000E+00 0.  1.
         21   -1    0    0  501  503 -0.00000000000E+00 -0.00000000000E+00 -0.55049826583E+02  0.55049826583E+02  0.00000000000E+00 0. -1.
          2    1    1    2  501    0 -0.19269720427E+02  0.24001522783E+02 -0.40827120194E+02  0.51129726818E+02  0.00000000000E+00 0. -1.
         -2    1    1    2    0  502  0.19269720427E+02 -0.24001522783E+02  0.17037987420E+02  0.35180793574E+02  0.00000000000E+00 0.  1.
<mgrwt>
<rscale>  2 0.30779786E+02</rscale>
<asrwt>0</asrwt>
<pdfrwt beam="1">  1       21 0.48093375E-02 0.30779786E+02</pdfrwt>
<pdfrwt beam="2">  1       21 0.84692040E-02 0.30779786E+02</pdfrwt>
<totfact> 0.24786980E+07</totfact>
</mgrwt>
</event>
<event>
 4    1  0.2769537E+004  0.2588275E+02  0.7546771E-02  0.1648637E+00
         21   -1    0    0  501  502  0.00000000000E+00  0.00000000000E+00  0.26474138086E+03  0.26474138086E+03  0.00000000000E+00 0. -1.
         21   -1    0    0  502  503 -0.00000000000E+00 -0.00000000000E+00 -0.13037595236E+02  0.13037595236E+02  0.00000000000E+00 0.  1.
          2    1    1    2  501    0  0.25392878348E+02  0.50118111502E+01  0.25053650693E+03  0.25186992244E+03  0.00000000000E+00 0. -1.
         -2    1    1    2    0  503 -0.25392878348E+02 -0.50118111502E+01  0.11672786867E+01  0.25909053655E+02  0.00000000000E+00 0.  1.
<mgrwt>
<rscale>  2 0.25882746E+02</rscale>
<asrwt>0</asrwt>
<pdfrwt beam="1">  1       21 0.40729439E-01 0.25882746E+02</pdfrwt>
<pdfrwt beam="2">  1       21 0.20057841E-02 0.25882746E+02</pdfrwt>
<totfact> 0.60166513E+06</totfact>
</mgrwt>
</event>
<event>
 4    1  0.2769537E+004  0.2919187E+02  0.7546771E-02  0.1607197E+00
         21   -1    0    0  503  502  0.00000000000E+00  0.00000000000E+00  0.17664569923E+02  0.17664569923E+02  0.00000000000E+00 0. -1.
         21   -1    0    0  501  503 -0.00000000000E+00 -0.00000000000E+00 -0.59642224419E+02  0.59642224419E+02  0.00000000000E+00 0.  1.
          2    1    1    2  501    0 -0.27497764850E+02  0.97999170012E+01 -0.37888444723E+02  0.47829903706E+02  0.00000000000E+00 0.  1.
         -2    1    1    2    0  502  0.27497764850E+02 -0.97999170012E+01 -0.40892097728E+01  0.29476890636E+02  0.00000000000E+00 0. -1.
<mgrwt>
<rscale>  2 0.29191873E+02</rscale>
<asrwt>0</asrwt>
<pdfrwt beam="1">  1       21 0.27176262E-02 0.29191873E+02</pdfrwt>
<pdfrwt beam="2">  1       21 0.91757267E-02 0.29191873E+02</pdfrwt>
<totfact> 0.53048531E+07</totfact>
</mgrwt>
</event>
<event>
 4    1  0.2769537E+004  0.2715451E+02  0.7546771E-02  0.1631854E+00
         21   -1    0    0  501  502  0.00000000000E+00  0.00000000000E+00  0.63059409094E+01  0.63059409094E+01  0.00000000000E+00 0.  1.
         21   -1    0    0  502  503 -0.00000000000E+00 -0.00000000000E+00 -0.12929300033E+03  0.12929300033E+03  0.00000000000E+00 0. -1.
          2    1    1    2  501    0  0.18407291873E+02 -0.19963448221E+02 -0.40530127344E+02  0.48785847143E+02  0.00000000000E+00 0. -1.
         -2    1    1    2    0  503 -0.18407291873E+02  0.19963448221E+02 -0.82456932078E+02  0.86813094097E+02  0.00000000000E+00 0.  1.
<mgrwt>
<rscale>  2 0.27154515E+02</rscale>
<asrwt>0</asrwt>
<pdfrwt beam="1">  1       21 0.97014478E-03 0.27154515E+02</pdfrwt>
<pdfrwt beam="2">  1       21 0.19891230E-01 0.27154515E+02</pdfrwt>
<totfact> 0.67813601E+07</totfact>
</mgrwt>
</event>
<event>
 4    1  0.2769537E+004  0.2155648E+02  0.7546771E-02  0.1716037E+00
         21   -1    0    0  503  502  0.00000000000E+00  0.00000000000E+00  0.97474709348E+01  0.97474709348E+01  0.00000000000E+00 0. -1.
         21   -1    0    0  501  503 -0.00000000000E+00 -0.00000000000E+00 -0.57541057396E+02  0.57541057396E+02  0.00000000000E+00 0.  1.
          2    1    1    2  501    0  0.20138747997E+02 -0.76884645489E+01 -0.37830268390E+02  0.43540910239E+02  0.00000000000E+00 0.  1.
         -2    1    1    2    0  502 -0.20138747997E+02  0.76884645489E+01 -0.99633180713E+01  0.23747618091E+02  0.00000000000E+00 0. -1.
<mgrwt>
<rscale>  2 0.21556476E+02</rscale>
<asrwt>0</asrwt>
<pdfrwt beam="1">  1       21 0.14996109E-02 0.21556476E+02</pdfrwt>
<pdfrwt beam="2">  1       21 0.88524704E-02 0.21556476E+02</pdfrwt>
<totfact> 0.12976861E+08</totfact>
</mgrwt>
</event>
<event>
 4    1  0.2769537E+004  0.2359537E+02  0.7546771E-02  0.1682037E+00
         21   -1    0    0  501  502  0.00000000000E+00  0.00000000000E+00  0.50216027669E+03  0.50216027669E+03  0.00000000000E+00 0. -1.
         21   -1    0    0  502  503 -0.00000000000E+00 -0.00000000000E+00 -0.12199104177E+01  0.12199104177E+01  0.00000000000E+00 0.  1.
          2    1    1    2  501    0  0.20638327983E+02 -0.11436826601E+02  0.17447456499E+03  0.17606281666E+03  0.00000000000E+00 0.  1.
         -2    1    1    2    0  503 -0.20638327983E+02  0.11436826601E+02  0.32646580128E+03  0.32731737044E+03  0.00000000000E+00 0. -1.
<mgrwt>
<rscale>  2 0.23595372E+02</rscale>
<asrwt>0</asrwt>
<pdfrwt beam="1">  1       21 0.77255262E-01 0.23595372E+02</pdfrwt>
<pdfrwt beam="2">  1       21 0.18767893E-03 0.23595372E+02</pdfrwt>
<totfact> 0.56270923E+07</totfact>
</mgrwt>
</event>
<event>
 4    1  0.2769537E+004  0.2705735E+02  0.7546771E-02  0.1633096E+00
         21   -1    0    0  503  502  0.00000000000E+00  0.00000000000E+00  0.80272206039E+02  0.80272206039E+02  0.00000000000E+00 0. -1.
         21   -1    0    0  501  503 -0.00000000000E+00 -0.00000000000E+00 -0.18918959356E+02  0.18918959356E+02  0.00000000000E+00 0.  1.
          2    1    1    2  501    0 -0.21654015490E+02 -0.16223562280E+02 -0.50160788141E+01  0.27518383066E+02  0.00000000000E+00 0.  1.
         -2    1    1    2    0  502  0.21654015490E+02  0.16223562280E+02  0.66369325497E+02  0.71672782329E+02  0.00000000000E+00 0. -1.
<mgrwt>
<rscale>  2 0.27057353E+02</rscale>
<asrwt>0</asrwt>
<pdfrwt beam="1">  1       21 0.12349570E-01 0.27057353E+02</pdfrwt>
<pdfrwt beam="2">  1       21 0.29106092E-02 0.27057353E+02</pdfrwt>
<totfact> 0.28485851E+07</totfact>
</mgrwt>
</event>
<event>
 4    1  0.2769537E+004  0.2510679E+02  0.7546771E-02  0.1659473E+00
         21   -1    0    0  501  502  0.00000000000E+00  0.00000000000E+00  0.19037239806E+03  0.19037239806E+03  0.00000000000E+00 0. -1.
         21   -1    0    0  502  503 -0.00000000000E+00 -0.00000000000E+00 -0.14627505596E+02  0.14627505596E+02  0.00000000000E+00 0.  1.
          2    1    1    2  501    0  0.34034874943E-02  0.25106789167E+02  0.17802787590E+03  0.17978953104E+03  0.00000000000E+00 0. -1.
         -2    1    1    2    0  503 -0.34034874943E-02 -0.25106789167E+02 -0.22829834406E+01  0.25210372612E+02  0.00000000000E+00 0.  1.
<mgrwt>
<rscale>  2 0.25106789E+02</rscale>
<asrwt>0</asrwt>
<pdfrwt beam="1">  1       21 0.29288059E-01 0.25106789E+02</pdfrwt>
<pdfrwt beam="2">  1       21 0.22503856E-02 0.25106789E+02</pdfrwt>
<totfact> 0.92522407E+06</totfact>
</mgrwt>
</event>
<event>
 4    1  0.2769537E+004  0.2167953E+02  0.7546771E-02  0.1713854E+00
         21   -1    0    0  501  502  0.00000000000E+00  0.00000000000E+00  0.18703359356E+02  0.18703359356E+02  0.00000000000E+00 0.  1.
         21   -1    0    0  502  503 -0.00000000000E+00 -0.00000000000E+00 -0.37186451400E+02  0.37186451400E+02  0.00000000000E+00 0. -1.
          2    1    1    2  501    0  0.14405774386E+02 -0.16201106523E+02  0.66707469775E+01  0.22682615666E+02  0.00000000000E+00 0.  1.
         -2    1    1    2    0  503 -0.14405774386E+02  0.16201106523E+02 -0.25153839021E+02  0.33207195090E+02  0.00000000000E+00 0. -1.
<mgrwt>
<rscale>  2 0.21679534E+02</rscale>
<asrwt>0</asrwt>
<pdfrwt beam="1">  1       21 0.28774399E-02 0.21679534E+02</pdfrwt>
<pdfrwt beam="2">  1       21 0.57209925E-02 0.21679534E+02</pdfrwt>
<totfact> 0.96958959E+07</totfact>
</mgrwt>
</event>
<event>
 4    1  0.2769537E+004  0.2125075E+02  0.7546771E-02  0.1721541E+00
         21   -1    0    0  501  502  0.00000000000E+00  0.00000000000E+00  0.89797153268E+01  0.89797153268E+01  0.00000000000E+00 0. -1.
         21   -1    0    0  502  503 -0.00000000000E+00 -0.00000000000E+00 -0.60665157170E+02  0.60665157170E+02  0.00000000000E+00 0.  1.
          2    1    1    2  501    0 -0.11633097608E+02 -0.17783856100E+02 -0.11442270498E+02  0.24135452179E+02  0.00000000000E+00 0. -1.
         -2    1    1    2    0  503  0.11633097608E+02  0.17783856100E+02 -0.40243171345E+02  0.45509420317E+02  0.00000000000E+00 0.  1.
<mgrwt>
<rscale>  2 0.21250753E+02</rscale>
<asrwt>0</asrwt>
<pdfrwt beam="1">  1       21 0.13814947E-02 0.21250753E+02</pdfrwt>
<pdfrwt beam="2">  1       21 0.93331007E-02 0.21250753E+02</pdfrwt>
<totfact> 0.13415672E+08</totfact>
</mgrwt>
</event>
<event>
 4    1  0.2769537E+004  0.2343331E+02  0.7546771E-02  0.1684581E+00
         21   -1    0    0  503  502  0.00000000000E+00  0.00000000000E+00  0.26149386985E+01  0.26149386985E+01  0.00000000000E+00 0. -1.
         21   -1    0    0  501  503 -0.00000000000E+00 -0.00000000000E+00 -0.38529619328E+03  0.38529619328E+03  0.00000000000E+00 0.  1.
          2    1    1    2  501    0  0.85171002650E+01  0.21830691947E+02 -0.32216817252E+03  0.32301927419E+03  0.00000000000E+00 0.  1.
         -2    1    1    2    0  502 -0.85171002650E+01 -0.21830691947E+02 -0.60513082063E+02  0.64891857798E+02  0.00000000000E+00 0. -1.
<mgrwt>
<rscale>  2 0.23433312E+02</rscale>
<asrwt>0</asrwt>
<pdfrwt beam="1">  1       21 0.40229830E-03 0.23433312E+02</pdfrwt>
<pdfrwt beam="2">  1       21 0.59276332E-01 0.23433312E+02</pdfrwt>
<totfact> 0.31808715E+07</totfact>
</mgrwt>
</event>
<event>
 4    1  0.2769537E+004  0.7002585E+02  0.7546771E-02  0.1360005E+00
         21   -1    0    0  503  502  0.00000000000E+00  0.00000000000E+00  0.10726002838E+04  0.10726002838E+04  0.00000000000E+00 0. -1.
         21   -1    0    0  501  503 -0.00000000000E+00 -0.00000000000E+00 -0.77704631401E+01  0.77704631401E+01  0.00000000000E+00 0.  1.
          2    1    1    2  501    0 -0.59252400143E+02  0.37319865144E+02  0.18583002732E+03  0.19858604763E+03  0.00000000000E+00 0.  1.
         -2    1    1    2    0  502  0.59252400143E+02 -0.37319865144E+02  0.87899979335E+03  0.88178469933E+03  0.00000000000E+00 0. -1.
<mgrwt>
<rscale>  2 0.70025847E+02</rscale>
<asrwt>0</asrwt>
<pdfrwt beam="1">  1       21 0.16501531E+00 0.70025847E+02</pdfrwt>
<pdfrwt beam="2">  1       21 0.11954567E-02 0.70025847E+02</pdfrwt>
<totfact> 0.67440103E+05</totfact>
</mgrwt>
</event>
<event>
 4    1  0.2769537E+004  0.2654749E+02  0.7546771E-02  0.1639721E+00
         21   -1    0    0  501  502  0.00000000000E+00  0.00000000000E+00  0.38605152631E+01  0.38605152631E+01  0.00000000000E+00 0.  1.
         21   -1    0    0  502  503 -0.00000000000E+00 -0.00000000000E+00 -0.27373912432E+03  0.27373912432E+03  0.00000000000E+00 0. -1.
          2    1    1    2  501    0  0.94620669588E+01  0.24804000185E+02 -0.54831984585E+02  0.60920568528E+02  0.00000000000E+00 0.  1.
         -2    1    1    2    0  503 -0.94620669588E+01 -0.24804000185E+02 -0.21504662448E+03  0.21667907106E+03  0.00000000000E+00 0. -1.
<mgrwt>
<rscale>  2 0.26547488E+02</rscale>
<asrwt>0</asrwt>
<pdfrwt beam="1">  1       21 0.59392521E-03 0.26547488E+02</pdfrwt>
<pdfrwt beam="2">  1       21 0.42113727E-01 0.26547488E+02</pdfrwt>
<totfact> 0.35771061E+07</totfact>
</mgrwt>
</event>
<event>
 4    1  0.2769537E+004  0.2066248E+02  0.7546771E-02  0.1732466E+00
         21   -1    0    0  503  502  0.00000000000E+00  0.00000000000E+00  0.49737091822E+02  0.49737091822E+02  0.00000000000E+00 0. -1.
         21   -1    0    0  501  503 -0.00000000000E+00 -0.00000000000E+00 -0.15440131832E+02  0.15440131832E+02  0.00000000000E+00 0.  1.
          2    1    1    2  501    0  0.20324271730E+02  0.37231616108E+01 -0.45676922363E+01  0.21161327135E+02  0.00000000000E+00 0. -1.
         -2    1    1    2    0  502 -0.20324271730E+02 -0.37231616108E+01  0.38864652226E+02  0.44015896519E+02  0.00000000000E+00 0.  1.
<mgrwt>
<rscale>  2 0.20662477E+02</rscale>
<asrwt>0</asrwt>
<pdfrwt beam="1">  1       21 0.76518602E-02 0.20662477E+02</pdfrwt>
<pdfrwt beam="2">  1       21 0.23754049E-02 0.20662477E+02</pdfrwt>
<totfact> 0.80524582E+07</totfact>
</mgrwt>
</event>
<event>
 4    1  0.2769537E+004  0.2160510E+02  0.7546771E-02  0.1715172E+00
         21   -1    0    0  503  502  0.00000000000E+00  0.00000000000E+00  0.21814326880E+02  0.21814326880E+02  0.00000000000E+00 0.  1.
         21   -1    0    0  501  503 -0.00000000000E+00 -0.00000000000E+00 -0.22176434510E+02  0.22176434510E+02  0.00000000000E+00 0. -1.
          2    1    1    2  501    0  0.10887269073E+02 -0.18661397538E+02 -0.43023104634E+01  0.22029304602E+02  0.00000000000E+00 0. -1.
         -2    1    1    2    0  502 -0.10887269073E+02  0.18661397538E+02  0.39402028336E+01  0.21961456789E+02  0.00000000000E+00 0.  1.
<mgrwt>
<rscale>  2 0.21605101E+02</rscale>
<asrwt>0</asrwt>
<pdfrwt beam="1">  1       21 0.33560503E-02 0.21605101E+02</pdfrwt>
<pdfrwt beam="2">  1       21 0.34117592E-02 0.21605101E+02</pdfrwt>
<totfact> 0.17247146E+08</totfact>
</mgrwt>
</event>
<event>
 4    1  0.2769537E+004  0.2957815E+02  0.7546771E-02  0.1602799E+00
         21   -1    0    0  501  502  0.00000000000E+00  0.00000000000E+00  0.90201263602E+02  0.90201263602E+02  0.00000000000E+00 0. -1.
         21   -1    0    0  502  503 -0.00000000000E+00 -0.00000000000E+00 -0.13748851686E+02  0.13748851686E+02  0.00000000000E+00 0.  1.
          2    1    1    2  501    0 -0.24145646167E+02  0.17083756298E+02  0.66434603227E+02  0.72721547453E+02  0.00000000000E+00 0. -1.
         -2    1    1    2    0  503  0.24145646167E+02 -0.17083756298E+02  0.10017808688E+02  0.31228567835E+02  0.00000000000E+00 0.  1.
<mgrwt>
<rscale>  2 0.29578150E+02</rscale>
<asrwt>0</asrwt>
<pdfrwt beam="1">  1       21 0.13877117E-01 0.29578150E+02</pdfrwt>
<pdfrwt beam="2">  1       21 0.21152080E-02 0.29578150E+02</pdfrwt>
<totfact> 0.39164370E+07</totfact>
</mgrwt>
</event>
<event>
 4    1  0.2769537E+004  0.2025376E+02  0.7546771E-02  0.1740328E+00
         21   -1    0    0  501  502  0.00000000000E+00  0.00000000000E+00  0.43506155750E+00  0.43506155750E+00  0.00000000000E+00 0.  1.
         21   -1    0    0  502  503 -0.00000000000E+00 -0.00000000000E+00 -0.10882737323E+04  0.10882737323E+04  0.00000000000E+00 0. -1.
          2    1    1    2  501    0  0.17017194547E+02  0.10983169190E+02 -0.34495670344E+03  0.34555078088E+03  0.00000000000E+00 0.  1.
         -2    1    1    2    0  503 -0.17017194547E+02 -0.10983169190E+02 -0.74288196734E+03  0.74315801302E+03  0.00000000000E+00 0. -1.
<mgrwt>
<rscale>  2 0.20253763E+02</rscale>
<asrwt>0</asrwt>
<pdfrwt beam="1">  1       21 0.66932224E-04 0.20253763E+02</pdfrwt>
<pdfrwt beam="2">  1       21 0.16742754E+00 0.20253763E+02</pdfrwt>
<totfact> 0.41837777E+07</totfact>
</mgrwt>
</event>
<event>
 4    1  0.2769537E+004  0.2322885E+02  0.7546771E-02  0.1687827E+00
         21   -1    0    0  501  502  0.00000000000E+00  0.00000000000E+00  0.23380412593E+03  0.23380412593E+03  0.00000000000E+00 0.  1.
         21   -1    0    0  502  503 -0.00000000000E+00 -0.00000000000E+00 -0.23802395197E+01  0.23802395197E+01  0.00000000000E+00 0. -1.
          2    1    1    2  501    0 -0.10362104690E+02  0.20789570587E+02  0.13630960155E+03  0.13827467929E+03  0.00000000000E+00 0. -1.
         -2    1    1    2    0  503  0.10362104690E+02 -0.20789570587E+02  0.95114284858E+02  0.97909686155E+02  0.00000000000E+00 0.  1.
<mgrwt>
<rscale>  2 0.23228850E+02</rscale>
<asrwt>0</asrwt>
<pdfrwt beam="1">  1       21 0.35969847E-01 0.23228850E+02</pdfrwt>
<pdfrwt beam="2">  1       21 0.36619088E-03 0.23228850E+02</pdfrwt>
<totfact> 0.95283337E+07</totfact>
</mgrwt>
</event>
<event>
 4    1  0.2769537E+004  0.4105409E+02  0.7546771E-02  0.1500595E+00
         21   -1    0    0  503  502  0.00000000000E+00  0.00000000000E+00  0.14352659868E+03  0.14352659868E+03  0.00000000000E+00 0. -1.
         21   -1    0    0  501  503 -0.00000000000E+00 -0.00000000000E+00 -0.19002337177E+02  0.19002337177E+02  0.00000000000E+00 0.  1.
          2    1    1    2  501    0  0.77635243392E+01 -0.40313349759E+02  0.12034291338E+02  0.42781569010E+02  0.00000000000E+00 0.  1.
         -2    1    1    2    0  502 -0.77635243392E+01  0.40313349759E+02  0.11248997016E+03  0.11974736684E+03  0.00000000000E+00 0. -1.
<mgrwt>
<rscale>  2 0.41054092E+02</rscale>
<asrwt>0</asrwt>
<pdfrwt beam="1">  1       21 0.22081014E-01 0.41054092E+02</pdfrwt>
<pdfrwt beam="2">  1       21 0.29234366E-02 0.41054092E+02</pdfrwt>
<totfact> 0.11040287E+07</totfact>
</mgrwt>
</event>
<event>
 4    1  0.2769537E+004  0.2248371E+02  0.7546771E-02  0.1700018E+00
         21   -1    0    0  501  502  0.00000000000E+00  0.00000000000E+00  0.43712864868E+03  0.43712864868E+03  0.00000000000E+00 0. -1.
         21   -1    0    0  502  503 -0.00000000000E+00 -0.00000000000E+00 -0.12127780955E+01  0.12127780955E+01  0.00000000000E+00 0.  1.
          2    1    1    2  501    0 -0.10032591153E+02  0.20121237476E+02  0.17072364358E+03  0.17219779198E+03  0.00000000000E+00 0.  1.
         -2    1    1    2    0  503  0.10032591153E+02 -0.20121237476E+02  0.26519222700E+03  0.26614363480E+03  0.00000000000E+00 0. -1.
<mgrwt>
<rscale>  2 0.22483707E+02</rscale>
<asrwt>0</asrwt>
<pdfrwt beam="1">  1       21 0.67250436E-01 0.22483707E+02</pdfrwt>
<pdfrwt beam="2">  1       21 0.18658159E-03 0.22483707E+02</pdfrwt>
<totfact> 0.74666408E+07</totfact>
</mgrwt>
</event>
<event>
 4    1  0.2769537E+004  0.2433829E+02  0.7546771E-02  0.1670692E+00
         21   -1    0    0  501  502  0.00000000000E+00  0.00000000000E+00  0.45806153680E+01  0.45806153680E+01  0.00000000000E+00 0. -1.
         21   -1    0    0  502  503 -0.00000000000E+00 -0.00000000000E+00 -0.14616512804E+03  0.14616512804E+03  0.00000000000E+00 0.  1.
          2    1    1    2  501    0  0.15294872938E+02  0.18931967275E+02 -0.45202511862E+02  0.51338285925E+02  0.00000000000E+00 0. -1.
         -2    1    1    2    0  503 -0.15294872938E+02 -0.18931967275E+02 -0.96382000815E+02  0.99407457488E+02  0.00000000000E+00 0.  1.
<mgrwt>
<rscale>  2 0.24338293E+02</rscale>
<asrwt>0</asrwt>
<pdfrwt beam="1">  1       21 0.70471023E-03 0.24338293E+02</pdfrwt>
<pdfrwt beam="2">  1       21 0.22486937E-01 0.24338293E+02</pdfrwt>
<totfact> 0.85899894E+07</totfact>
</mgrwt>
</event>
<event>
 4    1  0.2769537E+004  0.2381398E+02  0.7546771E-02  0.1678646E+00
         21   -1    0    0  501  502  0.00000000000E+00  0.00000000000E+00  0.24917972013E+02  0.24917972013E+02  0.00000000000E+00 0. -1.
         21   -1    0    0  502  503 -0.00000000000E+00 -0.00000000000E+00 -0.26486090792E+02  0.26486090792E+02  0.00000000000E+00 0.  1.
          2    1    1    2  501    0  0.56683907922E+01  0.23129521395E+02  0.88575568772E+01  0.25407906800E+02  0.00000000000E+00 0.  1.
         -2    1    1    2    0  503 -0.56683907922E+01 -0.23129521395E+02 -0.10425675656E+02  0.25996156005E+02  0.00000000000E+00 0. -1.
<mgrwt>
<rscale>  2 0.23813975E+02</rscale>
<asrwt>0</asrwt>
<pdfrwt beam="1">  1       21 0.38335341E-02 0.23813975E+02</pdfrwt>
<pdfrwt beam="2">  1       21 0.40747832E-02 0.23813975E+02</pdfrwt>
<totfact> 0.10909904E+08</totfact>
</mgrwt>
</event>
<event>
 4    1  0.2769537E+004  0.2062334E+02  0.7546771E-02  0.1733209E+00
         21   -1    0    0  503  502  0.00000000000E+00  0.00000000000E+00  0.14199692598E+03  0.14199692598E+03  0.00000000000E+00 0. -1.
         21   -1    0    0  501  503 -0.00000000000E+00 -0.00000000000E+00 -0.52672049423E+01  0.52672049423E+01  0.00000000000E+00 0.  1.
          2    1    1    2  501    0  0.20126934383E+01  0.20524889186E+02  0.20006353679E+02  0.28732841810E+02  0.00000000000E+00 0.  1.
         -2    1    1    2    0  502 -0.20126934383E+01 -0.20524889186E+02  0.11672336736E+03  0.11853128911E+03  0.00000000000E+00 0. -1.
<mgrwt>
<rscale>  2 0.20623337E+02</rscale>
<asrwt>0</asrwt>
<pdfrwt beam="1">  1       21 0.21845678E-01 0.20623337E+02</pdfrwt>
<pdfrwt beam="2">  1       21 0.81033933E-03 0.20623337E+02</pdfrwt>
<totfact> 0.70228668E+07</totfact>
</mgrwt>
</event>
<event>
 4    1  0.2769537E+004  0.2800528E+02  0.7546771E-02  0.1621246E+00
         21   -1    0    0  501  502  0.00000000000E+00  0.00000000000E+00  0.19861496509E+01  0.19861496509E+01  0.00000000000E+00 0.  1.
         21   -1    0    0  502  503 -0.00000000000E+00 -0.00000000000E+00 -0.41063728869E+03  0.41063728869E+03  0.00000000000E+00 0. -1.
          2    1    1    2  501    0 -0.28507351794E+01 -0.27859808582E+02 -0.16391436549E+03  0.16628955120E+03  0.00000000000E+00 0.  1.
         -2    1    1    2    0  503  0.28507351794E+01  0.27859808582E+02 -0.24473677355E+03  0.24633388714E+03  0.00000000000E+00 0. -1.
<mgrwt>
<rscale>  2 0.28005279E+02</rscale>
<asrwt>0</asrwt>
<pdfrwt beam="1">  1       21 0.30556167E-03 0.28005279E+02</pdfrwt>
<pdfrwt beam="2">  1       21 0.63174929E-01 0.28005279E+02</pdfrwt>
<totfact> 0.43462312E+07</totfact>
</mgrwt>
</event>
<event>
 4    1  0.2769537E+004  0.2532371E+02  0.7546771E-02  0.1656395E+00
         21   -1    0    0  503  502  0.00000000000E+00  0.00000000000E+00  0.19130848833E+02  0.19130848833E+02  0.00000000000E+00 0.  1.
         21   -1    0    0  501  503 -0.00000000000E+00 -0.00000000000E+00 -0.44180267279E+02  0.44180267279E+02  0.00000000000E+00 0. -1.
          2    1    1    2  501    0  0.19703204932E+02  0.15908296272E+02 -0.28073412143E+02  0.37807494551E+02  0.00000000000E+00 0. -1.
         -2    1    1    2    0  502 -0.19703204932E+02 -0.15908296272E+02  0.30239936974E+01  0.25503621561E+02  0.00000000000E+00 0.  1.
<mgrwt>
<rscale>  2 0.25323708E+02</rscale>
<asrwt>0</asrwt>
<pdfrwt beam="1">  1       21 0.29432075E-02 0.25323708E+02</pdfrwt>
<pdfrwt beam="2">  1       21 0.67969641E-02 0.25323708E+02</pdfrwt>
<totfact> 0.74031894E+07</totfact>
</mgrwt>
</event>
<event>
 4    1  0.2769537E+004  0.2475975E+02  0.7546771E-02  0.1664477E+00
         21   -1    0    0  501  502  0.00000000000E+00  0.00000000000E+00  0.10229707613E+02  0.10229707613E+02  0.00000000000E+00 0. -1.
         21   -1    0    0  502  503 -0.00000000000E+00 -0.00000000000E+00 -0.15644315968E+03  0.15644315968E+03  0.00000000000E+00 0.  1.
          2    1    1    2  501    0  0.55372080621E+01  0.24132649180E+02 -0.76499673686E+01  0.25914618081E+02  0.00000000000E+00 0. -1.
         -2    1    1    2    0  503 -0.55372080621E+01 -0.24132649180E+02 -0.13856348470E+03  0.14075824921E+03  0.00000000000E+00 0.  1.
<mgrwt>
<rscale>  2 0.24759754E+02</rscale>
<asrwt>0</asrwt>
<pdfrwt beam="1">  1       21 0.15738013E-02 0.24759754E+02</pdfrwt>
<pdfrwt beam="2">  1       21 0.24068177E-01 0.24759754E+02</pdfrwt>
<totfact> 0.22759603E+07</totfact>
</mgrwt>
</event>
<event>
 4    1  0.2769537E+004  0.2129759E+02  0.7546771E-02  0.1720691E+00
         21   -1    0    0  501  502  0.00000000000E+00  0.00000000000E+00  0.48095773272E+01  0.48095773272E+01  0.00000000000E+00 0. -1.
         21   -1    0    0  502  503 -0.00000000000E+00 -0.00000000000E+00 -0.12472521208E+03  0.12472521208E+03  0.00000000000E+00 0.  1.
          2    1    1    2  501    0  0.90700452393E+01  0.19269710287E+02 -0.27973996720E+02  0.35158668172E+02  0.00000000000E+00 0.  1.
         -2    1    1    2    0  503 -0.90700452393E+01 -0.19269710287E+02 -0.91941638034E+02  0.94376121236E+02  0.00000000000E+00 0. -1.
<mgrwt>
<rscale>  2 0.21297593E+02</rscale>
<asrwt>0</asrwt>
<pdfrwt beam="1">  1       21 0.73993508E-03 0.21297593E+02</pdfrwt>
<pdfrwt beam="2">  1       21 0.19188491E-01 0.21297593E+02</pdfrwt>
<totfact> 0.10166162E+08</totfact>
</mgrwt>
</event>
<event>
 4    1  0.2769537E+004  0.2117006E+02  0.7546771E-02  0.1723014E+00
         21   -1    0    0  501  502  0.00000000000E+00  0.00000000000E+00  0.30562117530E+02  0.30562117530E+02  0.00000000000E+00 0.  1.
         21   -1    0    0  502  503 -0.00000000000E+00 -0.00000000000E+00 -0.15430270975E+02  0.15430270975E+02  0.00000000000E+00 0. -1.
          2    1    1    2  501    0 -0.18695626730E+02  0.99320179048E+01  0.12689592856E+02  0.24681920617E+02  0.00000000000E+00 0. -1.
         -2    1    1    2    0  503  0.18695626730E+02 -0.99320179048E+01  0.24422536982E+01  0.21310467888E+02  0.00000000000E+00 0.  1.
<mgrwt>
<rscale>  2 0.21170060E+02</rscale>
<asrwt>0</asrwt>
<pdfrwt beam="1">  1       21 0.47018642E-02 0.21170060E+02</pdfrwt>
<pdfrwt beam="2">  1       21 0.23738878E-02 0.21170060E+02</pdfrwt>
<totfact> 0.17701295E+08</totfact>
</mgrwt>
</event>
<event>
 4    1  0.2769537E+004  0.3473735E+02  0.7546771E-02  0.1550945E+00
         21   -1    0    0  503  502  0.00000000000E+00  0.00000000000E+00  0.27293864095E+02  0.27293864095E+02  0.00000000000E+00 0. -1.
         21   -1    0    0  501  503 -0.00000000000E+00 -0.00000000000E+00 -0.15158214390E+03  0.15158214390E+03  0.00000000000E+00 0.  1.
          2    1    1    2  501    0 -0.53792615454E+00  0.34733189561E+02 -0.13741766442E+03  0.14174024946E+03  0.00000000000E+00 0. -1.
         -2    1    1    2    0  502  0.53792615454E+00 -0.34733189561E+02  0.13129384617E+02  0.37135758536E+02  0.00000000000E+00 0.  1.
<mgrwt>
<rscale>  2 0.34737355E+02</rscale>
<asrwt>0</asrwt>
<pdfrwt beam="1">  1       21 0.41990560E-02 0.34737355E+02</pdfrwt>
<pdfrwt beam="2">  1       21 0.23320330E-01 0.34737355E+02</pdfrwt>
<totfact> 0.54955490E+06</totfact>
</mgrwt>
</event>
<event>
 4    1  0.2769537E+004  0.2000711E+02  0.7546771E-02  0.1745187E+00
         21   -1    0    0  501  502  0.00000000000E+00  0.00000000000E+00  0.36462949793E+01  0.36462949793E+01  0.00000000000E+00 0. -1.
         21   -1    0    0  502  503 -0.00000000000E+00 -0.00000000000E+00 -0.12655236792E+03  0.12655236792E+03  0.00000000000E+00 0.  1.
          2    1    1    2  501    0 -0.86282676297E+01  0.18050963446E+02 -0.37752410855E+02  0.42726207519E+02  0.00000000000E+00 0. -1.
         -2    1    1    2    0  503  0.86282676297E+01 -0.18050963446E+02 -0.85153662089E+02  0.87472455383E+02  0.00000000000E+00 0.  1.
<mgrwt>
<rscale>  2 0.20007106E+02</rscale>
<asrwt>0</asrwt>
<pdfrwt beam="1">  1       21 0.56096858E-03 0.20007106E+02</pdfrwt>
<pdfrwt beam="2">  1       21 0.19469591E-01 0.20007106E+02</pdfrwt>
<totfact> 0.14656859E+08</totfact>
</mgrwt>
</event>
<event>
 4    1  0.2769537E+004  0.2030720E+02  0.7546771E-02  0.1739287E+00
         21   -1    0    0  503  502  0.00000000000E+00  0.00000000000E+00  0.35925536147E+02  0.35925536147E+02  0.00000000000E+00 0. -1.
         21   -1    0    0  501  503 -0.00000000000E+00 -0.00000000000E+00 -0.12522969408E+02  0.12522969408E+02  0.00000000000E+00 0.  1.
          2    1    1    2  501    0 -0.20360378656E+01 -0.20204876295E+02  0.47064123316E+01  0.20845450183E+02  0.00000000000E+00 0.  1.
         -2    1    1    2    0  502  0.20360378656E+01  0.20204876295E+02  0.18696154408E+02  0.27603055373E+02  0.00000000000E+00 0. -1.
<mgrwt>
<rscale>  2 0.20307203E+02</rscale>
<asrwt>0</asrwt>
<pdfrwt beam="1">  1       21 0.55270055E-02 0.20307203E+02</pdfrwt>
<pdfrwt beam="2">  1       21 0.19266107E-02 0.20307203E+02</pdfrwt>
<totfact> 0.18609358E+08</totfact>
</mgrwt>
</event>
<event>
 4    1  0.2769537E+004  0.4098623E+02  0.7546771E-02  0.1501077E+00
         21   -1    0    0  503  502  0.00000000000E+00  0.00000000000E+00  0.22406610157E+02  0.22406610157E+02  0.00000000000E+00 0. -1.
         21   -1    0    0  501  503 -0.00000000000E+00 -0.00000000000E+00 -0.12634015813E+03  0.12634015813E+03  0.00000000000E+00 0.  1.
          2    1    1    2  501    0  0.16731880293E+02 -0.37415443215E+02 -0.99390240639E+02  0.10750949327E+03  0.00000000000E+00 0.  1.
         -2    1    1    2    0  502 -0.16731880293E+02  0.37415443215E+02 -0.45433073329E+01  0.41237275015E+02  0.00000000000E+00 0. -1.
<mgrwt>
<rscale>  2 0.40986232E+02</rscale>
<asrwt>0</asrwt>
<pdfrwt beam="1">  1       21 0.34471708E-02 0.40986232E+02</pdfrwt>
<pdfrwt beam="2">  1       21 0.19436948E-01 0.40986232E+02</pdfrwt>
<totfact> 0.10667852E+07</totfact>
</mgrwt>
</event>
<event>
 4    1  0.2769537E+004  0.2360378E+02  0.7546771E-02  0.1681906E+00
         21   -1    0    0  501  502  0.00000000000E+00  0.00000000000E+00  0.30437766571E+01  0.30437766571E+01  0.00000000000E+00 0.  1.
         21   -1    0    0  502  503 -0.00000000000E+00 -0.00000000000E+00 -0.28626956976E+03  0.28626956976E+03  0.00000000000E+00 0. -1.
          2    1    1    2  501    0  0.64398386145E+01 -0.22708296338E+02 -0.54747014976E+02  0.59618570033E+02  0.00000000000E+00 0.  1.
         -2    1    1    2    0  503 -0.64398386145E+01  0.22708296338E+02 -0.22847877813E+03  0.22969477638E+03  0.00000000000E+00 0. -1.
<mgrwt>
<rscale>  2 0.23603776E+02</rscale>
<asrwt>0</asrwt>
<pdfrwt beam="1">  1       21 0.46827307E-03 0.23603776E+02</pdfrwt>
<pdfrwt beam="2">  1       21 0.44041497E-01 0.23603776E+02</pdfrwt>
<totfact> 0.45515059E+07</totfact>
</mgrwt>
</event>
<event>
 4    1  0.2769537E+004  0.3254445E+02  0.7546771E-02  0.1571554E+00
         21   -1    0    0  501  502  0.00000000000E+00  0.00000000000E+00  0.10669436115E+03  0.10669436115E+03  0.00000000000E+00 0.  1.
         21   -1    0    0  502  503 -0.00000000000E+00 -0.00000000000E+00 -0.99639223270E+01  0.99639223270E+01  0.00000000000E+00 0. -1.
          2    1    1    2  501    0  0.18683644048E+01  0.32490773125E+02  0.44808298024E+02  0.55379822098E+02  0.00000000000E+00 0. -1.
         -2    1    1    2    0  503 -0.18683644048E+01 -0.32490773125E+02  0.51922140802E+02  0.61278461382E+02  0.00000000000E+00 0.  1.
<mgrwt>
<rscale>  2 0.32544448E+02</rscale>
<asrwt>0</asrwt>
<pdfrwt beam="1">  1       21 0.16414516E-01 0.32544448E+02</pdfrwt>
<pdfrwt beam="2">  1       21 0.15329112E-02 0.32544448E+02</pdfrwt>
<totfact> 0.49180444E+07</totfact>
</mgrwt>
</event>
<event>
 4    1  0.2769537E+004  0.2111027E+02  0.7546771E-02  0.1724110E+00
         21   -1    0    0  503  502  0.00000000000E+00  0.00000000000E+00  0.69322811000E+01  0.69322811000E+01  0.00000000000E+00 0. -1.
         21   -1    0    0  501  503 -0.00000000000E+00 -0.00000000000E+00 -0.68376637804E+02  0.68376637804E+02  0.00000000000E+00 0.  1.
          2    1    1    2  501    0 -0.20312672763E+02  0.57479377076E+01 -0.39932982975E+02  0.45169531678E+02  0.00000000000E+00 0.  1.
         -2    1    1    2    0  502  0.20312672763E+02 -0.57479377076E+01 -0.21511373729E+02  0.30139387226E+02  0.00000000000E+00 0. -1.
<mgrwt>
<rscale>  2 0.21110269E+02</rscale>
<asrwt>0</asrwt>
<pdfrwt beam="1">  1       21 0.10665048E-02 0.21110269E+02</pdfrwt>
<pdfrwt beam="2">  1       21 0.10519483E-01 0.21110269E+02</pdfrwt>
<totfact> 0.16231094E+08</totfact>
</mgrwt>
</event>
<event>
 4    1  0.2769537E+004  0.2508002E+02  0.7546771E-02  0.1659855E+00
         21   -1    0    0  501  502  0.00000000000E+00  0.00000000000E+00  0.29607970852E+02  0.29607970852E+02  0.00000000000E+00 0.  1.
         21   -1    0    0  502  503 -0.00000000000E+00 -0.00000000000E+00 -0.44037552856E+02  0.44037552856E+02  0.00000000000E+00 0. -1.
          2    1    1    2  501    0 -0.77550425634E+01 -0.23850929244E+02  0.19276657529E+02  0.31632215169E+02  0.00000000000E+00 0.  1.
         -2    1    1    2    0  503  0.77550425634E+01  0.23850929244E+02 -0.33706239533E+02  0.42013308540E+02  0.00000000000E+00 0. -1.
<mgrwt>
<rscale>  2 0.25080022E+02</rscale>
<asrwt>0</asrwt>
<pdfrwt beam="1">  1       21 0.45550724E-02 0.25080022E+02</pdfrwt>
<pdfrwt beam="2">  1       21 0.67750081E-02 0.25080022E+02</pdfrwt>
<totfact> 0.37310329E+07</totfact>
</mgrwt>
</event>
<event>
 4    1  0.2769537E+004  0.2679129E+02  0.7546771E-02  0.1636530E+00
         21   -1    0    0  503  502  0.00000000000E+00  0.00000000000E+00  0.21651011784E+02  0.21651011784E+02  0.00000000000E+00 0. -1.
         21   -1    0    0  501  503 -0.00000000000E+00 -0.00000000000E+00 -0.65417387629E+02  0.65417387629E+02  0.00000000000E+00 0.  1.
          2    1    1    2  501    0 -0.26742655248E+02  0.16135626043E+01 -0.52457223542E+02  0.58902746080E+02  0.00000000000E+00 0.  1.
         -2    1    1    2    0  502  0.26742655248E+02 -0.16135626043E+01  0.86908476971E+01  0.28165653333E+02  0.00000000000E+00 0. -1.
<mgrwt>
<rscale>  2 0.26791290E+02</rscale>
<asrwt>0</asrwt>
<pdfrwt beam="1">  1       21 0.33309250E-02 0.26791290E+02</pdfrwt>
<pdfrwt beam="2">  1       21 0.10064213E-01 0.26791290E+02</pdfrwt>
<totfact> 0.32420330E+07</totfact>
</mgrwt>
</event>
<event>
 4    1  0.2769537E+004  0.2184980E+02  0.7546771E-02  0.1710863E+00
         21   -1    0    0  501  502  0.00000000000E+00  0.00000000000E+00  0.41413271963E+02  0.41413271963E+02  0.00000000000E+00 0.  1.
         21   -1    0    0  502  503 -0.00000000000E+00 -0.00000000000E+00 -0.11609559038E+02  0.11609559038E+02  0.00000000000E+00 0. -1.
          2    1    1    2  501    0  0.42983599113E+01 -0.21422835555E+02  0.17123423252E+02  0.27760140580E+02  0.00000000000E+00 0.  1.
         -2    1    1    2    0  503 -0.42983599113E+01  0.21422835555E+02  0.12680289673E+02  0.25262690422E+02  0.00000000000E+00 0. -1.
<mgrwt>
<rscale>  2 0.21849800E+02</rscale>
<asrwt>0</asrwt>
<pdfrwt beam="1">  1       21 0.63712725E-02 0.21849800E+02</pdfrwt>
<pdfrwt beam="2">  1       21 0.17860860E-02 0.21849800E+02</pdfrwt>
<totfact> 0.17028633E+08</totfact>
</mgrwt>
</event>
<event>
 4    1  0.2769537E+004  0.2443729E+02  0.7546771E-02  0.1669218E+00
         21   -1    0    0  503  502  0.00000000000E+00  0.00000000000E+00  0.13768141682E+03  0.13768141682E+03  0.00000000000E+00 0. -1.
         21   -1    0    0  501  503 -0.00000000000E+00 -0.00000000000E+00 -0.43860825306E+01  0.43860825306E+01  0.00000000000E+00 0.  1.
          2    1    1    2  501    0 -0.24337406409E+02  0.22072237311E+01  0.59165037217E+02  0.64013145651E+02  0.00000000000E+00 0. -1.
         -2    1    1    2    0  502  0.24337406409E+02 -0.22072237311E+01  0.74130297074E+02  0.78054353700E+02  0.00000000000E+00 0.  1.
<mgrwt>
<rscale>  2 0.24437291E+02</rscale>
<asrwt>0</asrwt>
<pdfrwt beam="1">  1       21 0.21181753E-01 0.24437291E+02</pdfrwt>
<pdfrwt beam="2">  1       21 0.67478203E-03 0.24437291E+02</pdfrwt>
<totfact> 0.10193956E+08</totfact>
</mgrwt>
</event>
<event>
 4    1  0.2769537E+004  0.2744757E+02  0.7546771E-02  0.1628147E+00
         21   -1    0    0  501  502  0.00000000000E+00  0.00000000000E+00  0.12956783453E+03  0.12956783453E+03  0.00000000000E+00 0. -1.
         21   -1    0    0  502  503 -0.00000000000E+00 -0.00000000000E+00 -0.87985967720E+01  0.87985967720E+01  0.00000000000E+00 0.  1.
          2    1    1    2  501    0  0.26983259286E+02 -0.50271845512E+01  0.10067509002E+03  0.10434961723E+03  0.00000000000E+00 0. -1.
         -2    1    1    2    0  503 -0.26983259286E+02  0.50271845512E+01  0.20094147744E+02  0.34016814075E+02  0.00000000000E+00 0.  1.
<mgrwt>
<rscale>  2 0.27447566E+02</rscale>
<asrwt>0</asrwt>
<pdfrwt beam="1">  1       21 0.19933512E-01 0.27447566E+02</pdfrwt>
<pdfrwt beam="2">  1       21 0.13536304E-02 0.27447566E+02</pdfrwt>
<totfact> 0.40863346E+07</totfact>
</mgrwt>
</event>
<event>
 4    1  0.2769537E+004  0.2339044E+02  0.7546771E-02  0.1685258E+00
         21   -1    0    0  501  502  0.00000000000E+00  0.00000000000E+00  0.35171762540E+02  0.35171762540E+02  0.00000000000E+00 0.  1.
         21   -1    0    0  502  503 -0.00000000000E+00 -0.00000000000E+00 -0.21329986715E+03  0.21329986715E+03  0.00000000000E+00 0. -1.
          2    1    1    2  501    0  0.13580660678E+02  0.19044111740E+02  0.30555903506E+02  0.38480849464E+02  0.00000000000E+00 0.  1.
         -2    1    1    2    0  503 -0.13580660678E+02 -0.19044111740E+02 -0.20868400811E+03  0.20999078022E+03  0.00000000000E+00 0. -1.
<mgrwt>
<rscale>  2 0.23390437E+02</rscale>
<asrwt>0</asrwt>
<pdfrwt beam="1">  1       21 0.54110404E-02 0.23390437E+02</pdfrwt>
<pdfrwt beam="2">  1       21 0.32815364E-01 0.23390437E+02</pdfrwt>
<totfact> 0.18743766E+06</totfact>
</mgrwt>
</event>
<event>
 4    1  0.2769537E+004  0.3477242E+02  0.7546771E-02  0.1550631E+00
         21   -1    0    0  503  502  0.00000000000E+00  0.00000000000E+00  0.79248905103E+00  0.79248905103E+00  0.00000000000E+00 0.  1.
         21   -1    0    0  501  503 -0.00000000000E+00 -0.00000000000E+00 -0.16267165268E+04  0.16267165268E+04  0.00000000000E+00 0. -1.
          2    1    1    2  501    0 -0.31431787274E+02  0.14871587134E+02 -0.61020437783E+03  0.61119432595E+03  0.00000000000E+00 0. -1.
         -2    1    1    2    0  502  0.31431787274E+02 -0.14871587134E+02 -0.10157196600E+04  0.10163146899E+04  0.00000000000E+00 0.  1.
<mgrwt>
<rscale>  2 0.34772422E+02</rscale>
<asrwt>0</asrwt>
<pdfrwt beam="1">  1       21 0.12192266E-03 0.34772422E+02</pdfrwt>
<pdfrwt beam="2">  1       21 0.25026147E+00 0.34772422E+02</pdfrwt>
<totfact> 0.65188239E+06</totfact>
</mgrwt>
</event>
<event>
 4    1  0.2769537E+004  0.2723147E+02  0.7546771E-02  0.1630875E+00
         21   -1    0    0  503  502  0.00000000000E+00  0.00000000000E+00  0.26634409517E+02  0.26634409517E+02  0.00000000000E+00 0.  1.
         21   -1    0    0  501  503 -0.00000000000E+00 -0.00000000000E+00 -0.34046657556E+02  0.34046657556E+02  0.00000000000E+00 0. -1.
          2    1    1    2  501    0 -0.14824873546E+02  0.22842422029E+02 -0.16658446636E+02  0.31922671632E+02  0.00000000000E+00 0. -1.
         -2    1    1    2    0  502  0.14824873546E+02 -0.22842422029E+02  0.92461985970E+01  0.28758395440E+02  0.00000000000E+00 0.  1.
<mgrwt>
<rscale>  2 0.27231473E+02</rscale>
<asrwt>0</asrwt>
<pdfrwt beam="1">  1       21 0.40976015E-02 0.27231473E+02</pdfrwt>
<pdfrwt beam="2">  1       21 0.52379473E-02 0.27231473E+02</pdfrwt>
<totfact> 0.68192186E+07</totfact>
</mgrwt>
</event>
<event>
 4    1  0.2769537E+004  0.2275374E+02  0.7546771E-02  0.1695533E+00
         21   -1    0    0  503  502  0.00000000000E+00  0.00000000000E+00  0.25677407652E+03  0.25677407652E+03  0.00000000000E+00 0.  1.
         21   -1    0    0  501  503 -0.00000000000E+00 -0.00000000000E+00 -0.21388255999E+01  0.21388255999E+01  0.00000000000E+00 0. -1.
          2    1    1    2  501    0  0.14853348792E+02 -0.17236897776E+02  0.96332302893E+02  0.98983055095E+02  0.00000000000E+00 0. -1.
         -2    1    1    2    0  502 -0.14853348792E+02  0.17236897776E+02  0.15830294803E+03  0.15992984702E+03  0.00000000000E+00 0.  1.
<mgrwt>
<rscale>  2 0.22753738E+02</rscale>
<asrwt>0</asrwt>
<pdfrwt beam="1">  1       21 0.39503680E-01 0.22753738E+02</pdfrwt>
<pdfrwt beam="2">  1       21 0.32905030E-03 0.22753738E+02</pdfrwt>
<totfact> 0.92999334E+07</totfact>
</mgrwt>
</event>
<event>
 4    1  0.2769537E+004  0.3270420E+02  0.7546771E-02  0.1569987E+00
         21   -1    0    0  503  502  0.00000000000E+00  0.00000000000E+00  0.21226172236E+02  0.21226172236E+02  0.00000000000E+00 0.  1.
         21   -1    0    0  501  503 -0.00000000000E+00 -0.00000000000E+00 -0.61279099303E+02  0.61279099303E+02  0.00000000000E+00 0. -1.
          2    1    1    2  501    0  0.17352720724E+01  0.32658126329E+02 -0.37416983633E+02  0.49695020361E+02  0.00000000000E+00 0.  1.
         -2    1    1    2    0  502 -0.17352720724E+01 -0.32658126329E+02 -0.26359434336E+01  0.32810251177E+02  0.00000000000E+00 0. -1.
<mgrwt>
<rscale>  2 0.32704195E+02</rscale>
<asrwt>0</asrwt>
<pdfrwt beam="1">  1       21 0.32655650E-02 0.32704195E+02</pdfrwt>
<pdfrwt beam="2">  1       21 0.94275537E-02 0.32704195E+02</pdfrwt>
<totfact> 0.38906269E+07</totfact>
</mgrwt>
</event>
<event>
 4    1  0.2769537E+004  0.2296916E+02  0.7546771E-02  0.1692011E+00
         21   -1    0    0  503  502  0.00000000000E+00  0.00000000000E+00  0.24946596871E+02  0.24946596871E+02  0.00000000000E+00 0. -1.
         21   -1    0    0  501  503 -0.00000000000E+00 -0.00000000000E+00 -0.25494346119E+02  0.25494346119E+02  0.00000000000E+00 0.  1.
          2    1    1    2  501    0 -0.15963399067E+02  0.16515210807E+02 -0.10686735106E+02  0.25333547028E+02  0.00000000000E+00 0.  1.
         -2    1    1    2    0  502  0.15963399067E+02 -0.16515210807E+02  0.10138985857E+02  0.25107395962E+02  0.00000000000E+00 0. -1.
<mgrwt>
<rscale>  2 0.22969160E+02</rscale>
<asrwt>0</asrwt>
<pdfrwt beam="1">  1       21 0.38379380E-02 0.22969160E+02</pdfrwt>
<pdfrwt beam="2">  1       21 0.39222071E-02 0.22969160E+02</pdfrwt>
<totfact> 0.11444113E+08</totfact>
</mgrwt>
</event>
<event>
 4    1  0.2769537E+004  0.2005221E+02  0.7546771E-02  0.1744292E+00
         21   -1    0    0  501  502  0.00000000000E+00  0.00000000000E+00  0.17193295660E+03  0.17193295660E+03  0.00000000000E+00 0. -1.
         21   -1    0    0  502  503 -0.00000000000E+00 -0.00000000000E+00 -0.51689258084E+01  0.51689258084E+01  0.00000000000E+00 0.  1.
          2    1    1    2  501    0  0.19668872551E+02  0.39021092651E+01  0.14890707341E+03  0.15025114813E+03  0.00000000000E+00 0. -1.
         -2    1    1    2    0  503 -0.19668872551E+02 -0.39021092651E+01  0.17856957381E+02  0.26850734274E+02  0.00000000000E+00 0.  1.
<mgrwt>
<rscale>  2 0.20052207E+02</rscale>
<asrwt>0</asrwt>
<pdfrwt beam="1">  1       21 0.26451220E-01 0.20052207E+02</pdfrwt>
<pdfrwt beam="2">  1       21 0.79521949E-03 0.20052207E+02</pdfrwt>
<totfact> 0.51125776E+07</totfact>
</mgrwt>
</event>
<event>
 4    1  0.2769537E+004  0.2144017E+02  0.7546771E-02  0.1718118E+00
         21   -1    0    0  503  502  0.00000000000E+00  0.00000000000E+00  0.17689152034E+03  0.17689152034E+03  0.00000000000E+00 0.  1.
         21   -1    0    0  501  503 -0.00000000000E+00 -0.00000000000E+00 -0.50108700396E+01  0.50108700396E+01  0.00000000000E+00 0. -1.
          2    1    1    2  501    0 -0.18865461034E+02 -0.10187004410E+02  0.22835942400E+02  0.31323488697E+02  0.00000000000E+00 0. -1.
         -2    1    1    2    0  502  0.18865461034E+02  0.10187004410E+02  0.14904470790E+03  0.15057890168E+03  0.00000000000E+00 0.  1.
<mgrwt>
<rscale>  2 0.21440165E+02</rscale>
<asrwt>0</asrwt>
<pdfrwt beam="1">  1       21 0.27214075E-01 0.21440165E+02</pdfrwt>
<pdfrwt beam="2">  1       21 0.77090322E-03 0.21440165E+02</pdfrwt>
<totfact> 0.51772723E+07</totfact>
</mgrwt>
</event>
<event>
 4    1  0.2769537E+004  0.2529810E+02  0.7546771E-02  0.1656757E+00
         21   -1    0    0  503  502  0.00000000000E+00  0.00000000000E+00  0.39666071188E+02  0.39666071188E+02  0.00000000000E+00 0.  1.
         21   -1    0    0  501  503 -0.00000000000E+00 -0.00000000000E+00 -0.48433986820E+02  0.48433986820E+02  0.00000000000E+00 0. -1.
          2    1    1    2  501    0  0.11035045376E+02 -0.22764481090E+02 -0.40356292797E+02  0.47630076570E+02  0.00000000000E+00 0. -1.
         -2    1    1    2    0  502 -0.11035045376E+02  0.22764481090E+02  0.31588377165E+02  0.40469981439E+02  0.00000000000E+00 0.  1.
<mgrwt>
<rscale>  2 0.25298099E+02</rscale>
<asrwt>0</asrwt>
<pdfrwt beam="1">  1       21 0.61024725E-02 0.25298099E+02</pdfrwt>
<pdfrwt beam="2">  1       21 0.74513826E-02 0.25298099E+02</pdfrwt>
<totfact> 0.20042959E+07</totfact>
</mgrwt>
</event>
<event>
 4    1  0.2769537E+004  0.2816063E+02  0.7546771E-02  0.1619358E+00
         21   -1    0    0  503  502  0.00000000000E+00  0.00000000000E+00  0.14049639724E+03  0.14049639724E+03  0.00000000000E+00 0.  1.
         21   -1    0    0  501  503 -0.00000000000E+00 -0.00000000000E+00 -0.29246209395E+02  0.29246209395E+02  0.00000000000E+00 0. -1.
          2    1    1    2  501    0  0.78303921838E+01  0.27050068665E+02 -0.20617647939E+02  0.34901413482E+02  0.00000000000E+00 0. -1.
         -2    1    1    2    0  502 -0.78303921838E+01 -0.27050068665E+02  0.13186783579E+03  0.13484119316E+03  0.00000000000E+00 0.  1.
<mgrwt>
<rscale>  2 0.28160633E+02</rscale>
<asrwt>0</asrwt>
<pdfrwt beam="1">  1       21 0.21614830E-01 0.28160633E+02</pdfrwt>
<pdfrwt beam="2">  1       21 0.44994169E-02 0.28160633E+02</pdfrwt>
<totfact> 0.54781756E+06</totfact>
</mgrwt>
</event>
<event>
 4    1  0.2769537E+004  0.2216067E+02  0.7546771E-02  0.1705488E+00
         21   -1    0    0  501  502  0.00000000000E+00  0.00000000000E+00  0.70384272708E+02  0.70384272708E+02  0.00000000000E+00 0. -1.
         21   -1    0    0  502  503 -0.00000000000E+00 -0.00000000000E+00 -0.19586696196E+02  0.19586696196E+02  0.00000000000E+00 0.  1.
          2    1    1    2  501    0  0.19278398948E+02 -0.10928805552E+02  0.61493049165E+02  0.65364291110E+02  0.00000000000E+00 0. -1.
         -2    1    1    2    0  503 -0.19278398948E+02  0.10928805552E+02 -0.10695472653E+02  0.24606677794E+02  0.00000000000E+00 0.  1.
<mgrwt>
<rscale>  2 0.22160674E+02</rscale>
<asrwt>0</asrwt>
<pdfrwt beam="1">  1       21 0.10828350E-01 0.22160674E+02</pdfrwt>
<pdfrwt beam="2">  1       21 0.30133379E-02 0.22160674E+02</pdfrwt>
<totfact> 0.32134456E+07</totfact>
</mgrwt>
</event>
<event>
 4    1  0.2769537E+004  0.2284065E+02  0.7546771E-02  0.1694106E+00
         21   -1    0    0  503  502  0.00000000000E+00  0.00000000000E+00  0.61126355959E+02  0.61126355959E+02  0.00000000000E+00 0.  1.
         21   -1    0    0  501  503 -0.00000000000E+00 -0.00000000000E+00 -0.94728098307E+01  0.94728098307E+01  0.00000000000E+00 0. -1.
          2    1    1    2  501    0 -0.12120074595E+02  0.19359724010E+02  0.14718233569E+02  0.27172072452E+02  0.00000000000E+00 0.  1.
         -2    1    1    2    0  502  0.12120074595E+02 -0.19359724010E+02  0.36935312559E+02  0.43427093338E+02  0.00000000000E+00 0. -1.
<mgrwt>
<rscale>  2 0.22840646E+02</rscale>
<asrwt>0</asrwt>
<pdfrwt beam="1">  1       21 0.94040545E-02 0.22840646E+02</pdfrwt>
<pdfrwt beam="2">  1       21 0.14573554E-02 0.22840646E+02</pdfrwt>
<totfact> 0.12483968E+08</totfact>
</mgrwt>
</event>
<event>
 4    1  0.2769537E+004  0.2129453E+02  0.7546771E-02  0.1720746E+00
         21   -1    0    0  503  502  0.00000000000E+00  0.00000000000E+00  0.36050565577E+02  0.36050565577E+02  0.00000000000E+00 0.  1.
         21   -1    0    0  501  503 -0.00000000000E+00 -0.00000000000E+00 -0.32583704313E+02  0.32583704313E+02  0.00000000000E+00 0. -1.
          2    1    1    2  501    0  0.15119857786E+02  0.14994896429E+02 -0.25156135928E+02  0.32958886408E+02  0.00000000000E+00 0. -1.
         -2    1    1    2    0  502 -0.15119857786E+02 -0.14994896429E+02  0.28622997192E+02  0.35675383483E+02  0.00000000000E+00 0.  1.
<mgrwt>
<rscale>  2 0.21294530E+02</rscale>
<asrwt>0</asrwt>
<pdfrwt beam="1">  1       21 0.55462409E-02 0.21294530E+02</pdfrwt>
<pdfrwt beam="2">  1       21 0.50128776E-02 0.21294530E+02</pdfrwt>
<totfact> 0.42445885E+07</totfact>
</mgrwt>
</event>
<event>
 4    1  0.2769537E+004  0.2384597E+02  0.7546771E-02  0.1678153E+00
         21   -1    0    0  501  502  0.00000000000E+00  0.00000000000E+00  0.20559952678E+02  0.20559952678E+02  0.00000000000E+00 0. -1.
         21   -1    0    0  502  503 -0.00000000000E+00 -0.00000000000E+00 -0.31145101695E+02  0.31145101695E+02  0.00000000000E+00 0.  1.
          2    1    1    2  501    0  0.22448671014E+02  0.80428632766E+01  0.33589169112E+01  0.24081378756E+02  0.00000000000E+00 0. -1.
         -2    1    1    2    0  503 -0.22448671014E+02 -0.80428632766E+01 -0.13944065928E+02  0.27623675617E+02  0.00000000000E+00 0.  1.
<mgrwt>
<rscale>  2 0.23845974E+02</rscale>
<asrwt>0</asrwt>
<pdfrwt beam="1">  1       21 0.31630697E-02 0.23845974E+02</pdfrwt>
<pdfrwt beam="2">  1       21 0.47915541E-02 0.23845974E+02</pdfrwt>
<totfact> 0.11413593E+08</totfact>
</mgrwt>
</event>
<event>
 4    1  0.2769537E+004  0.2163312E+02  0.7546771E-02  0.1714675E+00
         21   -1    0    0  503  502  0.00000000000E+00  0.00000000000E+00  0.98695028236E+02  0.98695028236E+02  0.00000000000E+00 0.  1.
         21   -1    0    0  501  503 -0.00000000000E+00 -0.00000000000E+00 -0.72671606658E+01  0.72671606658E+01  0.00000000000E+00 0. -1.
          2    1    1    2  501    0  0.87386684734E+00  0.21615459637E+02  0.14481879411E+02  0.26032990029E+02  0.00000000000E+00 0. -1.
         -2    1    1    2    0  502 -0.87386684734E+00 -0.21615459637E+02  0.76945988159E+02  0.79929198872E+02  0.00000000000E+00 0.  1.
<mgrwt>
<rscale>  2 0.21633117E+02</rscale>
<asrwt>0</asrwt>
<pdfrwt beam="1">  1       21 0.15183850E-01 0.21633117E+02</pdfrwt>
<pdfrwt beam="2">  1       21 0.11180248E-02 0.21633117E+02</pdfrwt>
<totfact> 0.82334339E+07</totfact>
</mgrwt>
</event>
<event>
 4    1  0.2769537E+004  0.5580120E+02  0.7546771E-02  0.1416347E+00
         21   -1    0    0  501  502  0.00000000000E+00  0.00000000000E+00  0.85060788076E+02  0.85060788076E+02  0.00000000000E+00 0.  1.
         21   -1    0    0  502  503 -0.00000000000E+00 -0.00000000000E+00 -0.37207639750E+02  0.37207639750E+02  0.00000000000E+00 0. -1.
          2    1    1    2  501    0 -0.13309796478E+02  0.54190624377E+02  0.31697449632E+02  0.64175562060E+02  0.00000000000E+00 0.  1.
         -2    1    1    2    0  503  0.13309796478E+02 -0.54190624377E+02  0.16155698695E+02  0.58092865766E+02  0.00000000000E+00 0. -1.
<mgrwt>
<rscale>  2 0.55801205E+02</rscale>
<asrwt>0</asrwt>
<pdfrwt beam="1">  1       21 0.13086275E-01 0.55801205E+02</pdfrwt>
<pdfrwt beam="2">  1       21 0.57242523E-02 0.55801205E+02</pdfrwt>
<totfact> 0.97478505E+06</totfact>
</mgrwt>
</event>
<event>
 4    1  0.2769537E+004  0.2369086E+02  0.7546771E-02  0.1680550E+00
         21   -1    0    0  503  502  0.00000000000E+00  0.00000000000E+00  0.42155606621E+01  0.42155606621E+01  0.00000000000E+00 0. -1.
         21   -1    0    0  501  503 -0.00000000000E+00 -0.00000000000E+00 -0.19565560210E+03  0.19565560210E+03  0.00000000000E+00 0.  1.
          2    1    1    2  501    0 -0.71402458992E+01  0.22589244120E+02 -0.15220987069E+03  0.15404253243E+03  0.00000000000E+00 0. -1.
         -2    1    1    2    0  502  0.71402458992E+01 -0.22589244120E+02 -0.39230170753E+02  0.45828630339E+02  0.00000000000E+00 0.  1.
<mgrwt>
<rscale>  2 0.23690865E+02</rscale>
<asrwt>0</asrwt>
<pdfrwt beam="1">  1       21 0.64854765E-03 0.23690865E+02</pdfrwt>
<pdfrwt beam="2">  1       21 0.30100868E-01 0.23690865E+02</pdfrwt>
<totfact> 0.57203334E+07</totfact>
</mgrwt>
</event>
<event>
 4    1  0.2769537E+004  0.2950653E+02  0.7546771E-02  0.1603608E+00
         21   -1    0    0  501  502  0.00000000000E+00  0.00000000000E+00  0.79672693899E+02  0.79672693899E+02  0.00000000000E+00 0. -1.
         21   -1    0    0  502  503 -0.00000000000E+00 -0.00000000000E+00 -0.10984370681E+02  0.10984370681E+02  0.00000000000E+00 0.  1.
          2    1    1    2  501    0  0.22120400630E+02  0.19527491547E+02  0.31086789016E+02  0.42860512147E+02  0.00000000000E+00 0.  1.
         -2    1    1    2    0  503 -0.22120400630E+02 -0.19527491547E+02  0.37601534202E+02  0.47796552433E+02  0.00000000000E+00 0. -1.
<mgrwt>
<rscale>  2 0.29506526E+02</rscale>
<asrwt>0</asrwt>
<pdfrwt beam="1">  1       21 0.12257337E-01 0.29506526E+02</pdfrwt>
<pdfrwt beam="2">  1       21 0.16899032E-02 0.29506526E+02</pdfrwt>
<totfact> 0.68397551E+07</totfact>
</mgrwt>
</event>
<event>
 4    1  0.2769537E+004  0.2021286E+02  0.7546771E-02  0.1741128E+00
         21   -1    0    0  503  502  0.00000000000E+00  0.00000000000E+00  0.48283261363E+01  0.48283261363E+01  0.00000000000E+00 0.  1.
         21   -1    0    0  501  503 -0.00000000000E+00 -0.00000000000E+00 -0.30460838347E+03  0.30460838347E+03  0.00000000000E+00 0. -1.
          2    1    1    2  501    0 -0.10446777202E+01 -0.20185841034E+02 -0.28137421770E+03  0.28209929089E+03  0.00000000000E+00 0. -1.
         -2    1    1    2    0  502  0.10446777202E+01  0.20185841034E+02 -0.18405839628E+02  0.27337418718E+02  0.00000000000E+00 0.  1.
<mgrwt>
<rscale>  2 0.20212856E+02</rscale>
<asrwt>0</asrwt>
<pdfrwt beam="1">  1       21 0.74281934E-03 0.20212856E+02</pdfrwt>
<pdfrwt beam="2">  1       21 0.46862832E-01 0.20212856E+02</pdfrwt>
<totfact> 0.19733875E+07</totfact>
</mgrwt>
</event>
<event>
 4    1  0.2769537E+004  0.3721383E+02  0.7546771E-02  0.1529776E+00
         21   -1    0    0  501  502  0.00000000000E+00  0.00000000000E+00  0.60510854011E+01  0.60510854011E+01  0.00000000000E+00 0. -1.
         21   -1    0    0  502  503 -0.00000000000E+00 -0.00000000000E+00 -0.40949030518E+03  0.40949030518E+03  0.00000000000E+00 0.  1.
          2    1    1    2  501    0 -0.33033663480E+02  0.17136116918E+02 -0.63727514741E+02  0.73797463107E+02  0.00000000000E+00 0. -1.
         -2    1    1    2    0  503  0.33033663480E+02 -0.17136116918E+02 -0.33971170504E+03  0.34174392748E+03  0.00000000000E+00 0.  1.
<mgrwt>
<rscale>  2 0.37213834E+02</rscale>
<asrwt>0</asrwt>
<pdfrwt beam="1">  1       21 0.93093608E-03 0.37213834E+02</pdfrwt>
<pdfrwt beam="2">  1       21 0.62998518E-01 0.37213834E+02</pdfrwt>
<totfact> 0.86637679E+06</totfact>
</mgrwt>
</event>
<event>
 4    1  0.2769537E+004  0.2224859E+02  0.7546771E-02  0.1703988E+00
         21   -1    0    0  501  502  0.00000000000E+00  0.00000000000E+00  0.49111297388E+02  0.49111297388E+02  0.00000000000E+00 0. -1.
         21   -1    0    0  502  503 -0.00000000000E+00 -0.00000000000E+00 -0.11236485311E+02  0.11236485311E+02  0.00000000000E+00 0.  1.
          2    1    1    2  501    0  0.55316200263E+00  0.22241711470E+02  0.28621238523E+02  0.36251551855E+02  0.00000000000E+00 0. -1.
         -2    1    1    2    0  503 -0.55316200263E+00 -0.22241711470E+02  0.92535735545E+01  0.24096230843E+02  0.00000000000E+00 0.  1.
<mgrwt>
<rscale>  2 0.22248589E+02</rscale>
<asrwt>0</asrwt>
<pdfrwt beam="1">  1       21 0.75555841E-02 0.22248589E+02</pdfrwt>
<pdfrwt beam="2">  1       21 0.17286901E-02 0.22248589E+02</pdfrwt>
<totfact> 0.13663665E+08</totfact>
</mgrwt>
</event>
<event>
 4    1  0.2769537E+004  0.5575321E+02  0.7546771E-02  0.1416570E+00
         21   -1    0    0  503  502  0.00000000000E+00  0.00000000000E+00  0.43802130914E+02  0.43802130914E+02  0.00000000000E+00 0.  1.
         21   -1    0    0  501  503 -0.00000000000E+00 -0.00000000000E+00 -0.75131035751E+02  0.75131035751E+02  0.00000000000E+00 0. -1.
          2    1    1    2  501    0  0.25434857765E+02  0.49613388785E+02 -0.29667490733E+02  0.63155208357E+02  0.00000000000E+00 0. -1.
         -2    1    1    2    0  502 -0.25434857765E+02 -0.49613388785E+02 -0.16614141031E+01  0.55777958308E+02  0.00000000000E+00 0.  1.
<mgrwt>
<rscale>  2 0.55753209E+02</rscale>
<asrwt>0</asrwt>
<pdfrwt beam="1">  1       21 0.67387895E-02 0.55753209E+02</pdfrwt>
<pdfrwt beam="2">  1       21 0.11558621E-01 0.55753209E+02</pdfrwt>
<totfact> 0.92178105E+06</totfact>
</mgrwt>
</event>
<event>
 4    1  0.2769537E+004  0.4154213E+02  0.7546771E-02  0.1497160E+00
         21   -1    0    0  503  502  0.00000000000E+00  0.00000000000E+00  0.41431828936E+02  0.41431828936E+02  0.00000000000E+00 0. -1.
         21   -1    0    0  501  503 -0.00000000000E+00 -0.00000000000E+00 -0.13395844577E+03  0.13395844577E+03  0.00000000000E+00 0.  1.
          2    1    1    2  501    0 -0.39795998459E+02  0.11917499322E+02 -0.11905885113E+03  0.12609820901E+03  0.00000000000E+00 0.  1.
         -2    1    1    2    0  502  0.39795998459E+02 -0.11917499322E+02  0.26532234298E+02  0.49292065693E+02  0.00000000000E+00 0. -1.
<mgrwt>
<rscale>  2 0.41542127E+02</rscale>
<asrwt>0</asrwt>
<pdfrwt beam="1">  1       21 0.63741274E-02 0.41542127E+02</pdfrwt>
<pdfrwt beam="2">  1       21 0.20608992E-01 0.41542127E+02</pdfrwt>
<totfact> 0.35522548E+06</totfact>
</mgrwt>
</event>
<event>
 4    1  0.2769537E+004  0.2051103E+02  0.7546771E-02  0.1735352E+00
         21   -1    0    0  501  502  0.00000000000E+00  0.00000000000E+00  0.36172162467E+03  0.36172162467E+03  0.00000000000E+00 0.  1.
         21   -1    0    0  502  503 -0.00000000000E+00 -0.00000000000E+00 -0.12994664338E+01  0.12994664338E+01  0.00000000000E+00 0. -1.
          2    1    1    2  501    0 -0.20237063366E+02  0.33411969128E+01  0.23902009287E+03  0.23989853506E+03  0.00000000000E+00 0.  1.
         -2    1    1    2    0  503  0.20237063366E+02 -0.33411969128E+01  0.12140206537E+03  0.12312255604E+03  0.00000000000E+00 0. -1.
<mgrwt>
<rscale>  2 0.20511029E+02</rscale>
<asrwt>0</asrwt>
<pdfrwt beam="1">  1       21 0.55649401E-01 0.20511029E+02</pdfrwt>
<pdfrwt beam="2">  1       21 0.19991820E-03 0.20511029E+02</pdfrwt>
<totfact> 0.96420103E+07</totfact>
</mgrwt>
</event>
<event>
 4    1  0.2769537E+004  0.2026519E+02  0.7546771E-02  0.1740105E+00
         21   -1    0    0  501  502  0.00000000000E+00  0.00000000000E+00  0.72360650292E+01  0.72360650292E+01  0.00000000000E+00 0. -1.
         21   -1    0    0  502  503 -0.00000000000E+00 -0.00000000000E+00 -0.57570934918E+02  0.57570934918E+02  0.00000000000E+00 0.  1.
          2    1    1    2  501    0 -0.74972491049E+01  0.18827350249E+02 -0.21308191332E+02  0.29406068751E+02  0.00000000000E+00 0. -1.
         -2    1    1    2    0  503  0.74972491049E+01 -0.18827350249E+02 -0.29026678556E+02  0.35400931196E+02  0.00000000000E+00 0.  1.
<mgrwt>
<rscale>  2 0.20265188E+02</rscale>
<asrwt>0</asrwt>
<pdfrwt beam="1">  1       21 0.11132408E-02 0.20265188E+02</pdfrwt>
<pdfrwt beam="2">  1       21 0.88570667E-02 0.20265188E+02</pdfrwt>
<totfact> 0.19934140E+08</totfact>
</mgrwt>
</event>
<event>
 4    1  0.2769537E+004  0.2392606E+02  0.7546771E-02  0.1676924E+00
         21   -1    0    0  503  502  0.00000000000E+00  0.00000000000E+00  0.12622456148E+01  0.12622456148E+01  0.00000000000E+00 0. -1.
         21   -1    0    0  501  503 -0.00000000000E+00 -0.00000000000E+00 -0.51901130060E+03  0.51901130060E+03  0.00000000000E+00 0.  1.
          2    1    1    2  501    0 -0.30241018979E+01  0.23734172741E+02 -0.35128018001E+03  0.35209405138E+03  0.00000000000E+00 0.  1.
         -2    1    1    2    0  502  0.30241018979E+01 -0.23734172741E+02 -0.16646887497E+03  0.16817949483E+03  0.00000000000E+00 0. -1.
<mgrwt>
<rscale>  2 0.23926056E+02</rscale>
<asrwt>0</asrwt>
<pdfrwt beam="1">  1       21 0.19419128E-03 0.23926056E+02</pdfrwt>
<pdfrwt beam="2">  1       21 0.79848039E-01 0.23926056E+02</pdfrwt>
<totfact> 0.50144999E+07</totfact>
</mgrwt>
</event>
<event>
 4    1  0.2769537E+004  0.3319774E+02  0.7546771E-02  0.1565213E+00
         21   -1    0    0  501  502  0.00000000000E+00  0.00000000000E+00  0.49199840243E+02  0.49199840243E+02  0.00000000000E+00 0. -1.
         21   -1    0    0  502  503 -0.00000000000E+00 -0.00000000000E+00 -0.22838753603E+02  0.22838753603E+02  0.00000000000E+00 0.  1.
          2    1    1    2  501    0  0.32750172336E+02  0.54328604824E+01  0.18171400599E+02  0.37845601604E+02  0.00000000000E+00 0. -1.
         -2    1    1    2    0  503 -0.32750172336E+02 -0.54328604824E+01  0.81896860412E+01  0.34192992243E+02  0.00000000000E+00 0.  1.
<mgrwt>
<rscale>  2 0.33197737E+02</rscale>
<asrwt>0</asrwt>
<pdfrwt beam="1">  1       21 0.75692062E-02 0.33197737E+02</pdfrwt>
<pdfrwt beam="2">  1       21 0.35136544E-02 0.33197737E+02</pdfrwt>
<totfact> 0.50030043E+07</totfact>
</mgrwt>
</event>
<event>
 4    1  0.2769537E+004  0.7276413E+02  0.7546771E-02  0.1350938E+00
         21   -1    0    0  501  502  0.00000000000E+00  0.00000000000E+00  0.25004797826E+03  0.25004797826E+03  0.00000000000E+00 0. -1.
         21   -1    0    0  502  503 -0.00000000000E+00 -0.00000000000E+00 -0.76753106833E+02  0.76753106833E+02  0.00000000000E+00 0.  1.
          2    1    1    2  501    0  0.45804709425E+02  0.56538015616E+02  0.22569381638E+03  0.23713354332E+03  0.00000000000E+00 0. -1.
         -2    1    1    2    0  503 -0.45804709425E+02 -0.56538015616E+02 -0.52398944954E+02  0.89667541773E+02  0.00000000000E+00 0.  1.
<mgrwt>
<rscale>  2 0.72764130E+02</rscale>
<asrwt>0</asrwt>
<pdfrwt beam="1">  1       21 0.38468919E-01 0.72764130E+02</pdfrwt>
<pdfrwt beam="2">  1       21 0.11808170E-01 0.72764130E+02</pdfrwt>
<totfact> 0.39987178E+05</totfact>
</mgrwt>
</event>
<event>
 4    1  0.2769537E+004  0.6579181E+02  0.7546771E-02  0.1375018E+00
         21   -1    0    0  501  502  0.00000000000E+00  0.00000000000E+00  0.21657903314E+01  0.21657903314E+01  0.00000000000E+00 0.  1.
         21   -1    0    0  502  503 -0.00000000000E+00 -0.00000000000E+00 -0.24520576712E+04  0.24520576712E+04  0.00000000000E+00 0. -1.
          2    1    1    2  501    0 -0.28007267435E+02 -0.59532808446E+02 -0.69724957480E+03  0.70034672261E+03  0.00000000000E+00 0.  1.
         -2    1    1    2    0  503  0.28007267435E+02  0.59532808446E+02 -0.17526423060E+04  0.17538767389E+04  0.00000000000E+00 0. -1.
<mgrwt>
<rscale>  2 0.65791810E+02</rscale>
<asrwt>0</asrwt>
<pdfrwt beam="1">  1       21 0.33319609E-03 0.65791810E+02</pdfrwt>
<pdfrwt beam="2">  1       21 0.37724238E+00 0.65791810E+02</pdfrwt>
<totfact> 0.29986399E+05</totfact>
</mgrwt>
</event>
<event>
 4    1  0.2769537E+004  0.2671894E+02  0.7546771E-02  0.1637473E+00
         21   -1    0    0  503  502  0.00000000000E+00  0.00000000000E+00  0.21646969699E+03  0.21646969699E+03  0.00000000000E+00 0. -1.
         21   -1    0    0  501  503 -0.00000000000E+00 -0.00000000000E+00 -0.37226547138E+01  0.37226547138E+01  0.00000000000E+00 0.  1.
          2    1    1    2  501    0  0.17916013871E+02 -0.19822166321E+02  0.69185779551E+02  0.74165854157E+02  0.00000000000E+00 0.  1.
         -2    1    1    2    0  502 -0.17916013871E+02  0.19822166321E+02  0.14356126273E+03  0.14602649755E+03  0.00000000000E+00 0. -1.
<mgrwt>
<rscale>  2 0.26718941E+02</rscale>
<asrwt>0</asrwt>
<pdfrwt beam="1">  1       21 0.33303020E-01 0.26718941E+02</pdfrwt>
<pdfrwt beam="2">  1       21 0.57271628E-03 0.26718941E+02</pdfrwt>
<totfact> 0.58788168E+07</totfact>
</mgrwt>
</event>
<event>
 4    1  0.2769537E+004  0.3037266E+02  0.7546771E-02  0.1594006E+00
         21   -1    0    0  501  502  0.00000000000E+00  0.00000000000E+00  0.29141260663E+02  0.29141260663E+02  0.00000000000E+00 0.  1.
         21   -1    0    0  502  503 -0.00000000000E+00 -0.00000000000E+00 -0.54231582744E+02  0.54231582744E+02  0.00000000000E+00 0. -1.
          2    1    1    2  501    0 -0.24195453181E+02  0.18359692931E+02  0.14350803716E+02  0.33592318266E+02  0.00000000000E+00 0.  1.
         -2    1    1    2    0  503  0.24195453181E+02 -0.18359692931E+02 -0.39441125798E+02  0.49780525141E+02  0.00000000000E+00 0. -1.
<mgrwt>
<rscale>  2 0.30372657E+02</rscale>
<asrwt>0</asrwt>
<pdfrwt beam="1">  1       21 0.44832709E-02 0.30372657E+02</pdfrwt>
<pdfrwt beam="2">  1       21 0.83433204E-02 0.30372657E+02</pdfrwt>
<totfact> 0.28364181E+07</totfact>
</mgrwt>
</event>
<event>
 4    1  0.2769537E+004  0.3285251E+02  0.7546771E-02  0.1568542E+00
         21   -1    0    0  501  502  0.00000000000E+00  0.00000000000E+00  0.21110349327E+02  0.21110349327E+02  0.00000000000E+00 0. -1.
         21   -1    0    0  502  503 -0.00000000000E+00 -0.00000000000E+00 -0.58468083959E+02  0.58468083959E+02  0.00000000000E+00 0.  1.
          2    1    1    2  501    0  0.30224207894E+02 -0.12875745919E+02 -0.45789737996E+01  0.33170085572E+02  0.00000000000E+00 0. -1.
         -2    1    1    2    0  503 -0.30224207894E+02  0.12875745919E+02 -0.32778760832E+02  0.46408347714E+02  0.00000000000E+00 0.  1.
<mgrwt>
<rscale>  2 0.32852512E+02</rscale>
<asrwt>0</asrwt>
<pdfrwt beam="1">  1       21 0.32477461E-02 0.32852512E+02</pdfrwt>
<pdfrwt beam="2">  1       21 0.89950897E-02 0.32852512E+02</pdfrwt>
<totfact> 0.42482887E+07</totfact>
</mgrwt>
</event>
<event>
 4    1  0.2769537E+004  0.2222259E+02  0.7546771E-02  0.1704431E+00
         21   -1    0    0  501  502  0.00000000000E+00  0.00000000000E+00  0.54944775461E+02  0.54944775461E+02  0.00000000000E+00 0. -1.
         21   -1    0    0  502  503 -0.00000000000E+00 -0.00000000000E+00 -0.94876748733E+01  0.94876748733E+01  0.00000000000E+00 0.  1.
          2    1    1    2  501    0  0.21925856531E+02 -0.36194433217E+01  0.30121865138E+02  0.37432209579E+02  0.00000000000E+00 0.  1.
         -2    1    1    2    0  503 -0.21925856531E+02  0.36194433217E+01  0.15335235450E+02  0.27000240755E+02  0.00000000000E+00 0. -1.
<mgrwt>
<rscale>  2 0.22222591E+02</rscale>
<asrwt>0</asrwt>
<pdfrwt beam="1">  1       21 0.84530422E-02 0.22222591E+02</pdfrwt>
<pdfrwt beam="2">  1       21 0.14596423E-02 0.22222591E+02</pdfrwt>
<totfact> 0.14714346E+08</totfact>
</mgrwt>
</event>
<event>
 4    1  0.2769537E+004  0.2406556E+02  0.7546771E-02  0.1674798E+00
         21   -1    0    0  501  502  0.00000000000E+00  0.00000000000E+00  0.61550101809E+01  0.61550101809E+01  0.00000000000E+00 0.  1.
         21   -1    0    0  502  503 -0.00000000000E+00 -0.00000000000E+00 -0.94219779800E+02  0.94219779800E+02  0.00000000000E+00 0. -1.
          2    1    1    2  501    0  0.18930226294E+02  0.14859256350E+02 -0.45864383261E+02  0.51794716128E+02  0.00000000000E+00 0.  1.
         -2    1    1    2    0  503 -0.18930226294E+02 -0.14859256350E+02 -0.42200386358E+02  0.48580073853E+02  0.00000000000E+00 0. -1.
<mgrwt>
<rscale>  2 0.24065556E+02</rscale>
<asrwt>0</asrwt>
<pdfrwt beam="1">  1       21 0.94692468E-03 0.24065556E+02</pdfrwt>
<pdfrwt beam="2">  1       21 0.14495350E-01 0.24065556E+02</pdfrwt>
<totfact> 0.11782569E+08</totfact>
</mgrwt>
</event>
<event>
 4    1  0.2769537E+004  0.2476846E+02  0.7546771E-02  0.1664350E+00
         21   -1    0    0  501  502  0.00000000000E+00  0.00000000000E+00  0.32665751824E+03  0.32665751824E+03  0.00000000000E+00 0. -1.
         21   -1    0    0  502  503 -0.00000000000E+00 -0.00000000000E+00 -0.18792183675E+01  0.18792183675E+01  0.00000000000E+00 0.  1.
          2    1    1    2  501    0  0.12174397702E+02 -0.21569903044E+02  0.16649836525E+03  0.16833057449E+03  0.00000000000E+00 0. -1.
         -2    1    1    2    0  503 -0.12174397702E+02  0.21569903044E+02  0.15827993462E+03  0.16020616212E+03  0.00000000000E+00 0.  1.
<mgrwt>
<rscale>  2 0.24768461E+02</rscale>
<asrwt>0</asrwt>
<pdfrwt beam="1">  1       21 0.50254958E-01 0.24768461E+02</pdfrwt>
<pdfrwt beam="2">  1       21 0.28911078E-03 0.24768461E+02</pdfrwt>
<totfact> 0.72363817E+07</totfact>
</mgrwt>
</event>
<event>
 4    1  0.2769537E+004  0.2399777E+02  0.7546771E-02  0.1675829E+00
         21   -1    0    0  501  502  0.00000000000E+00  0.00000000000E+00  0.19268209942E+02  0.19268209942E+02  0.00000000000E+00 0.  1.
         21   -1    0    0  502  503 -0.00000000000E+00 -0.00000000000E+00 -0.40124778086E+02  0.40124778086E+02  0.00000000000E+00 0. -1.
          2    1    1    2  501    0 -0.50302930124E+01  0.23464634628E+02  0.45711669288E+01  0.24429254862E+02  0.00000000000E+00 0.  1.
         -2    1    1    2    0  503  0.50302930124E+01 -0.23464634628E+02 -0.25427735073E+02  0.34963733166E+02  0.00000000000E+00 0. -1.
<mgrwt>
<rscale>  2 0.23997769E+02</rscale>
<asrwt>0</asrwt>
<pdfrwt beam="1">  1       21 0.29643400E-02 0.23997769E+02</pdfrwt>
<pdfrwt beam="2">  1       21 0.61730427E-02 0.23997769E+02</pdfrwt>
<totfact> 0.84344246E+07</totfact>
</mgrwt>
</event>
<event>
 4    1  0.2769537E+004  0.4405030E+02  0.7546771E-02  0.1480359E+00
         21   -1    0    0  501  502  0.00000000000E+00  0.00000000000E+00  0.33660874817E+02  0.33660874817E+02  0.00000000000E+00 0.  1.
         21   -1    0    0  502  503 -0.00000000000E+00 -0.00000000000E+00 -0.83161808580E+02  0.83161808580E+02  0.00000000000E+00 0. -1.
          2    1    1    2  501    0 -0.36373105326E+02 -0.24848066060E+02  0.76041490718E+01  0.44701814964E+02  0.00000000000E+00 0.  1.
         -2    1    1    2    0  503  0.36373105326E+02  0.24848066060E+02 -0.57105082835E+02  0.72120868433E+02  0.00000000000E+00 0. -1.
<mgrwt>
<rscale>  2 0.44050303E+02</rscale>
<asrwt>0</asrwt>
<pdfrwt beam="1">  1       21 0.51785961E-02 0.44050303E+02</pdfrwt>
<pdfrwt beam="2">  1       21 0.12794124E-01 0.44050303E+02</pdfrwt>
<totfact> 0.11611770E+07</totfact>
</mgrwt>
</event>
<event>
 4    1  0.2769537E+004  0.2665228E+02  0.7546771E-02  0.1638344E+00
         21   -1    0    0  503  502  0.00000000000E+00  0.00000000000E+00  0.10434866014E+03  0.10434866014E+03  0.00000000000E+00 0.  1.
         21   -1    0    0  501  503 -0.00000000000E+00 -0.00000000000E+00 -0.15491149399E+02  0.15491149399E+02  0.00000000000E+00 0. -1.
          2    1    1    2  501    0  0.25957492592E+02 -0.60458964109E+01 -0.43365904010E+00  0.26655812597E+02  0.00000000000E+00 0. -1.
         -2    1    1    2    0  502 -0.25957492592E+02  0.60458964109E+01  0.89291169782E+02  0.93183996942E+02  0.00000000000E+00 0.  1.
<mgrwt>
<rscale>  2 0.26652285E+02</rscale>
<asrwt>0</asrwt>
<pdfrwt beam="1">  1       21 0.16053640E-01 0.26652285E+02</pdfrwt>
<pdfrwt beam="2">  1       21 0.23832538E-02 0.26652285E+02</pdfrwt>
<totfact> 0.24789263E+07</totfact>
</mgrwt>
</event>
<event>
 4    1  0.2769537E+004  0.2375218E+02  0.7546771E-02  0.1679600E+00
         21   -1    0    0  503  502  0.00000000000E+00  0.00000000000E+00  0.33105437705E+01  0.33105437705E+01  0.00000000000E+00 0. -1.
         21   -1    0    0  501  503 -0.00000000000E+00 -0.00000000000E+00 -0.21620207956E+03  0.21620207956E+03  0.00000000000E+00 0.  1.
          2    1    1    2  501    0  0.20208253015E+02 -0.12481696251E+02 -0.15695504642E+03  0.15874209532E+03  0.00000000000E+00 0.  1.
         -2    1    1    2    0  502 -0.20208253015E+02  0.12481696251E+02 -0.55936489373E+02  0.60770528010E+02  0.00000000000E+00 0. -1.
<mgrwt>
<rscale>  2 0.23752184E+02</rscale>
<asrwt>0</asrwt>
<pdfrwt beam="1">  1       21 0.50931438E-03 0.23752184E+02</pdfrwt>
<pdfrwt beam="2">  1       21 0.33261862E-01 0.23752184E+02</pdfrwt>
<totfact> 0.68190200E+07</totfact>
</mgrwt>
</event>
<event>
 4    1  0.2769537E+004  0.4083054E+02  0.7546771E-02  0.1502187E+00
         21   -1    0    0  503  502  0.00000000000E+00  0.00000000000E+00  0.49409840595E+01  0.49409840595E+01  0.00000000000E+00 0.  1.
         21   -1    0    0  501  503 -0.00000000000E+00 -0.00000000000E+00 -0.67662726770E+03  0.67662726770E+03  0.00000000000E+00 0. -1.
          2    1    1    2  501    0  0.30203869274E+02  0.27474696070E+02 -0.57713585400E+03  0.57857836688E+03  0.00000000000E+00 0. -1.
         -2    1    1    2    0  502 -0.30203869274E+02 -0.27474696070E+02 -0.94550429636E+02  0.10298988488E+03  0.00000000000E+00 0.  1.
<mgrwt>
<rscale>  2 0.40830536E+02</rscale>
<asrwt>0</asrwt>
<pdfrwt beam="1">  1       21 0.76015123E-03 0.40830536E+02</pdfrwt>
<pdfrwt beam="2">  1       21 0.10409652E+00 0.40830536E+02</pdfrwt>
<totfact> 0.40387641E+06</totfact>
</mgrwt>
</event>
<event>
 4    1  0.2769537E+004  0.2062617E+02  0.7546771E-02  0.1733155E+00
         21   -1    0    0  501  502  0.00000000000E+00  0.00000000000E+00  0.35045845500E+01  0.35045845500E+01  0.00000000000E+00 0. -1.
         21   -1    0    0  502  503 -0.00000000000E+00 -0.00000000000E+00 -0.13212860888E+03  0.13212860888E+03  0.00000000000E+00 0.  1.
          2    1    1    2  501    0  0.19214374672E+02 -0.74997718221E+01 -0.44982895739E+02  0.49486358529E+02  0.00000000000E+00 0. -1.
         -2    1    1    2    0  503 -0.19214374672E+02  0.74997718221E+01 -0.83641128589E+02  0.86146834898E+02  0.00000000000E+00 0.  1.
<mgrwt>
<rscale>  2 0.20626167E+02</rscale>
<asrwt>0</asrwt>
<pdfrwt beam="1">  1       21 0.53916699E-03 0.20626167E+02</pdfrwt>
<pdfrwt beam="2">  1       21 0.20327473E-01 0.20626167E+02</pdfrwt>
<totfact> 0.14552366E+08</totfact>
</mgrwt>
</event>
<event>
 4    1  0.2769537E+004  0.2109607E+02  0.7546771E-02  0.1724371E+00
         21   -1    0    0  503  502  0.00000000000E+00  0.00000000000E+00  0.59948743865E+02  0.59948743865E+02  0.00000000000E+00 0.  1.
         21   -1    0    0  501  503 -0.00000000000E+00 -0.00000000000E+00 -0.99735822144E+01  0.99735822144E+01  0.00000000000E+00 0. -1.
          2    1    1    2  501    0  0.15164477323E+02 -0.14665704217E+02  0.73102609421E+01  0.22326759005E+02  0.00000000000E+00 0. -1.
         -2    1    1    2    0  502 -0.15164477323E+02  0.14665704217E+02  0.42664900709E+02  0.47595567074E+02  0.00000000000E+00 0.  1.
<mgrwt>
<rscale>  2 0.21096072E+02</rscale>
<asrwt>0</asrwt>
<pdfrwt beam="1">  1       21 0.92228835E-02 0.21096072E+02</pdfrwt>
<pdfrwt beam="2">  1       21 0.15343973E-02 0.21096072E+02</pdfrwt>
<totfact> 0.11644063E+08</totfact>
</mgrwt>
</event>
<event>
 4    1  0.2769537E+004  0.3331954E+02  0.7546771E-02  0.1564051E+00
         21   -1    0    0  501  502  0.00000000000E+00  0.00000000000E+00  0.15117647342E+03  0.15117647342E+03  0.00000000000E+00 0.  1.
         21   -1    0    0  502  503 -0.00000000000E+00 -0.00000000000E+00 -0.13548884088E+02  0.13548884088E+02  0.00000000000E+00 0. -1.
          2    1    1    2  501    0 -0.32911711706E+02 -0.51972351121E+01  0.12455247054E+03  0.12893219124E+03  0.00000000000E+00 0.  1.
         -2    1    1    2    0  503  0.32911711706E+02  0.51972351121E+01  0.13075118793E+02  0.35793166270E+02  0.00000000000E+00 0. -1.
<mgrwt>
<rscale>  2 0.33319544E+02</rscale>
<asrwt>0</asrwt>
<pdfrwt beam="1">  1       21 0.23257918E-01 0.33319544E+02</pdfrwt>
<pdfrwt beam="2">  1       21 0.20844438E-02 0.33319544E+02</pdfrwt>
<totfact> 0.16583613E+07</totfact>
</mgrwt>
</event>
<event>
 4    1  0.2769537E+004  0.3222356E+02  0.7546771E-02  0.1574735E+00
         21   -1    0    0  503  502  0.00000000000E+00  0.00000000000E+00  0.24706382567E+01  0.24706382567E+01  0.00000000000E+00 0.  1.
         21   -1    0    0  501  503 -0.00000000000E+00 -0.00000000000E+00 -0.61784546391E+03  0.61784546391E+03  0.00000000000E+00 0. -1.
          2    1    1    2  501    0  0.31479517335E+02  0.68846133755E+01 -0.48307526201E+03  0.48414880634E+03  0.00000000000E+00 0. -1.
         -2    1    1    2    0  502 -0.31479517335E+02 -0.68846133755E+01 -0.13229956365E+03  0.13616729583E+03  0.00000000000E+00 0.  1.
<mgrwt>
<rscale>  2 0.32223561E+02</rscale>
<asrwt>0</asrwt>
<pdfrwt beam="1">  1       21 0.38009828E-03 0.32223561E+02</pdfrwt>
<pdfrwt beam="2">  1       21 0.95053128E-01 0.32223561E+02</pdfrwt>
<totfact> 0.13618560E+07</totfact>
</mgrwt>
</event>
<event>
 4    1  0.2769537E+004  0.4506291E+02  0.7546771E-02  0.1473949E+00
         21   -1    0    0  503  502  0.00000000000E+00  0.00000000000E+00  0.42935342285E+01  0.42935342285E+01  0.00000000000E+00 0. -1.
         21   -1    0    0  501  503 -0.00000000000E+00 -0.00000000000E+00 -0.48260663260E+03  0.48260663260E+03  0.00000000000E+00 0.  1.
          2    1    1    2  501    0 -0.51127198900E+00 -0.45060013869E+02 -0.27357731671E+03  0.27726379941E+03  0.00000000000E+00 0. -1.
         -2    1    1    2    0  502  0.51127198900E+00  0.45060013869E+02 -0.20473578166E+03  0.20963636741E+03  0.00000000000E+00 0.  1.
<mgrwt>
<rscale>  2 0.45062914E+02</rscale>
<asrwt>0</asrwt>
<pdfrwt beam="1">  1       21 0.66054395E-03 0.45062914E+02</pdfrwt>
<pdfrwt beam="2">  1       21 0.74247150E-01 0.45062914E+02</pdfrwt>
<totfact> 0.10585912E+07</totfact>
</mgrwt>
</event>
<event>
 4    1  0.2769537E+004  0.2244425E+02  0.7546771E-02  0.1700680E+00
         21   -1    0    0  503  502  0.00000000000E+00  0.00000000000E+00  0.12822552682E+01  0.12822552682E+01  0.00000000000E+00 0. -1.
         21   -1    0    0  501  503 -0.00000000000E+00 -0.00000000000E+00 -0.10679392853E+04  0.10679392853E+04  0.00000000000E+00 0.  1.
          2    1    1    2  501    0  0.31533343189E+01 -0.22221629960E+02 -0.95838087105E+03  0.95864364513E+03  0.00000000000E+00 0.  1.
         -2    1    1    2    0  502 -0.31533343189E+01  0.22221629960E+02 -0.10827615897E+03  0.11057789542E+03  0.00000000000E+00 0. -1.
<mgrwt>
<rscale>  2 0.22444250E+02</rscale>
<asrwt>0</asrwt>
<pdfrwt beam="1">  1       21 0.19727036E-03 0.22444250E+02</pdfrwt>
<pdfrwt beam="2">  1       21 0.16429809E+00 0.22444250E+02</pdfrwt>
<totfact> 0.95589947E+06</totfact>
</mgrwt>
</event>
<event>
 4    1  0.2769537E+004  0.2173242E+02  0.7546771E-02  0.1712921E+00
         21   -1    0    0  503  502  0.00000000000E+00  0.00000000000E+00  0.26038010452E+01  0.26038010452E+01  0.00000000000E+00 0. -1.
         21   -1    0    0  501  503 -0.00000000000E+00 -0.00000000000E+00 -0.18175371974E+03  0.18175371974E+03  0.00000000000E+00 0.  1.
          2    1    1    2  501    0  0.20104573919E+02  0.82525234910E+01 -0.85439580591E+02  0.88160194918E+02  0.00000000000E+00 0.  1.
         -2    1    1    2    0  502 -0.20104573919E+02 -0.82525234910E+01 -0.93710338100E+02  0.96197325863E+02  0.00000000000E+00 0. -1.
<mgrwt>
<rscale>  2 0.21732419E+02</rscale>
<asrwt>0</asrwt>
<pdfrwt beam="1">  1       21 0.40058472E-03 0.21732419E+02</pdfrwt>
<pdfrwt beam="2">  1       21 0.27962115E-01 0.21732419E+02</pdfrwt>
<totfact> 0.13003230E+08</totfact>
</mgrwt>
</event>
<event>
 4    1  0.2769537E+004  0.2363317E+02  0.7546771E-02  0.1681448E+00
         21   -1    0    0  501  502  0.00000000000E+00  0.00000000000E+00  0.70036112344E+02  0.70036112344E+02  0.00000000000E+00 0. -1.
         21   -1    0    0  502  503 -0.00000000000E+00 -0.00000000000E+00 -0.80000719529E+01  0.80000719529E+01  0.00000000000E+00 0.  1.
          2    1    1    2  501    0  0.20837628608E+02  0.11149876275E+02  0.33209458825E+02  0.40760209303E+02  0.00000000000E+00 0. -1.
         -2    1    1    2    0  503 -0.20837628608E+02 -0.11149876275E+02  0.28826581566E+02  0.37275974994E+02  0.00000000000E+00 0.  1.
<mgrwt>
<rscale>  2 0.23633165E+02</rscale>
<asrwt>0</asrwt>
<pdfrwt beam="1">  1       21 0.10774786E-01 0.23633165E+02</pdfrwt>
<pdfrwt beam="2">  1       21 0.12307803E-02 0.23633165E+02</pdfrwt>
<totfact> 0.13003389E+08</totfact>
</mgrwt>
</event>
<event>
 4    1  0.2769537E+004  0.3410944E+02  0.7546771E-02  0.1556654E+00
         21   -1    0    0  501  502  0.00000000000E+00  0.00000000000E+00  0.88144046623E+02  0.88144046623E+02  0.00000000000E+00 0. -1.
         21   -1    0    0  502  503 -0.00000000000E+00 -0.00000000000E+00 -0.16272914009E+02  0.16272914009E+02  0.00000000000E+00 0.  1.
          2    1    1    2  501    0  0.25680927123E+02 -0.22448691974E+02  0.58624901410E+02  0.67825753623E+02  0.00000000000E+00 0.  1.
         -2    1    1    2    0  503 -0.25680927123E+02  0.22448691974E+02  0.13246231205E+02  0.36591207009E+02  0.00000000000E+00 0. -1.
<mgrwt>
<rscale>  2 0.34109438E+02</rscale>
<asrwt>0</asrwt>
<pdfrwt beam="1">  1       21 0.13560622E-01 0.34109438E+02</pdfrwt>
<pdfrwt beam="2">  1       21 0.25035253E-02 0.34109438E+02</pdfrwt>
<totfact> 0.32227398E+07</totfact>
</mgrwt>
</event>
<event>
 4    1  0.2769537E+004  0.2136478E+02  0.7546771E-02  0.1719475E+00
         21   -1    0    0  501  502  0.00000000000E+00  0.00000000000E+00  0.41631014950E+01  0.41631014950E+01  0.00000000000E+00 0.  1.
         21   -1    0    0  502  503 -0.00000000000E+00 -0.00000000000E+00 -0.12156235197E+03  0.12156235197E+03  0.00000000000E+00 0. -1.
          2    1    1    2  501    0 -0.11009290955E+02  0.18309815568E+02 -0.39015105640E+02  0.44481819899E+02  0.00000000000E+00 0.  1.
         -2    1    1    2    0  503  0.11009290955E+02 -0.18309815568E+02 -0.78384144836E+02  0.81243633567E+02  0.00000000000E+00 0. -1.
<mgrwt>
<rscale>  2 0.21364780E+02</rscale>
<asrwt>0</asrwt>
<pdfrwt beam="1">  1       21 0.64047718E-03 0.21364780E+02</pdfrwt>
<pdfrwt beam="2">  1       21 0.18701900E-01 0.21364780E+02</pdfrwt>
<totfact> 0.13177242E+08</totfact>
</mgrwt>
</event>
<event>
 4    1  0.2769537E+004  0.2159893E+02  0.7546771E-02  0.1715282E+00
         21   -1    0    0  501  502  0.00000000000E+00  0.00000000000E+00  0.46012883091E+03  0.46012883091E+03  0.00000000000E+00 0. -1.
         21   -1    0    0  502  503 -0.00000000000E+00 -0.00000000000E+00 -0.10603164018E+01  0.10603164018E+01  0.00000000000E+00 0.  1.
          2    1    1    2  501    0  0.15153068920E+02 -0.15391500712E+02  0.27779312857E+03  0.27863154178E+03  0.00000000000E+00 0. -1.
         -2    1    1    2    0  503 -0.15153068920E+02  0.15391500712E+02  0.18127538593E+03  0.18255760553E+03  0.00000000000E+00 0.  1.
<mgrwt>
<rscale>  2 0.21598930E+02</rscale>
<asrwt>0</asrwt>
<pdfrwt beam="1">  1       21 0.70788891E-01 0.21598930E+02</pdfrwt>
<pdfrwt beam="2">  1       21 0.16312597E-03 0.21598930E+02</pdfrwt>
<totfact> 0.80763810E+07</totfact>
</mgrwt>
</event>
<event>
 4    1  0.2769537E+004  0.2829749E+02  0.7546771E-02  0.1617708E+00
         21   -1    0    0  503  502  0.00000000000E+00  0.00000000000E+00  0.21713652010E+03  0.21713652010E+03  0.00000000000E+00 0.  1.
         21   -1    0    0  501  503 -0.00000000000E+00 -0.00000000000E+00 -0.44885425798E+01  0.44885425798E+01  0.00000000000E+00 0. -1.
          2    1    1    2  501    0 -0.25924691819E+02  0.11342759142E+02  0.59518914543E+02  0.65903330866E+02  0.00000000000E+00 0. -1.
         -2    1    1    2    0  502  0.25924691819E+02 -0.11342759142E+02  0.15312906298E+03  0.15572173181E+03  0.00000000000E+00 0.  1.
<mgrwt>
<rscale>  2 0.28297488E+02</rscale>
<asrwt>0</asrwt>
<pdfrwt beam="1">  1       21 0.33405610E-01 0.28297488E+02</pdfrwt>
<pdfrwt beam="2">  1       21 0.69054518E-03 0.28297488E+02</pdfrwt>
<totfact> 0.44778618E+07</totfact>
</mgrwt>
</event>
<event>
 4    1  0.2769537E+004  0.2232672E+02  0.7546771E-02  0.1702662E+00
         21   -1    0    0  503  502  0.00000000000E+00  0.00000000000E+00  0.93803028887E+03  0.93803028887E+03  0.00000000000E+00 0. -1.
         21   -1    0    0  501  503 -0.00000000000E+00 -0.00000000000E+00 -0.55347939770E+00  0.55347939770E+00  0.00000000000E+00 0.  1.
          2    1    1    2  501    0 -0.39539752179E+01 -0.21973815552E+02  0.56244012041E+03  0.56288308869E+03  0.00000000000E+00 0. -1.
         -2    1    1    2    0  502  0.39539752179E+01  0.21973815552E+02  0.37503668906E+03  0.37570067958E+03  0.00000000000E+00 0.  1.
<mgrwt>
<rscale>  2 0.22326721E+02</rscale>
<asrwt>0</asrwt>
<pdfrwt beam="1">  1       21 0.14431108E+00 0.22326721E+02</pdfrwt>
<pdfrwt beam="2">  1       21 0.85151427E-04 0.22326721E+02</pdfrwt>
<totfact> 0.43240187E+07</totfact>
</mgrwt>
</event>
<event>
 4    1  0.2769537E+004  0.2283071E+02  0.7546771E-02  0.1694269E+00
         21   -1    0    0  501  502  0.00000000000E+00  0.00000000000E+00  0.18030497808E+02  0.18030497808E+02  0.00000000000E+00 0.  1.
         21   -1    0    0  502  503 -0.00000000000E+00 -0.00000000000E+00 -0.66923407642E+03  0.66923407642E+03  0.00000000000E+00 0. -1.
          2    1    1    2  501    0  0.20251280743E+02 -0.10541684932E+02  0.10526631569E+02  0.25140633745E+02  0.00000000000E+00 0.  1.
         -2    1    1    2    0  503 -0.20251280743E+02  0.10541684932E+02 -0.66173021019E+03  0.66212394049E+03  0.00000000000E+00 0. -1.
<mgrwt>
<rscale>  2 0.22830714E+02</rscale>
<asrwt>0</asrwt>
<pdfrwt beam="1">  1       21 0.27739227E-02 0.22830714E+02</pdfrwt>
<pdfrwt beam="2">  1       21 0.10295909E+00 0.22830714E+02</pdfrwt>
<totfact> 0.54467668E+05</totfact>
</mgrwt>
</event>
<event>
 4    1  0.2769537E+004  0.3042014E+02  0.7546771E-02  0.1593490E+00
         21   -1    0    0  501  502  0.00000000000E+00  0.00000000000E+00  0.18788938943E+03  0.18788938943E+03  0.00000000000E+00 0. -1.
         21   -1    0    0  502  503 -0.00000000000E+00 -0.00000000000E+00 -0.49687160932E+01  0.49687160932E+01  0.00000000000E+00 0.  1.
          2    1    1    2  501    0 -0.24120894990E+02  0.18535574398E+02  0.10048884264E+03  0.10499234538E+03  0.00000000000E+00 0. -1.
         -2    1    1    2    0  503  0.24120894990E+02 -0.18535574398E+02  0.82431830697E+02  0.87865760143E+02  0.00000000000E+00 0.  1.
<mgrwt>
<rscale>  2 0.30420143E+02</rscale>
<asrwt>0</asrwt>
<pdfrwt beam="1">  1       21 0.28906054E-01 0.30420143E+02</pdfrwt>
<pdfrwt beam="2">  1       21 0.76441801E-03 0.30420143E+02</pdfrwt>
<totfact> 0.50976963E+07</totfact>
</mgrwt>
</event>
<event>
 4    1  0.2769537E+004  0.3312908E+02  0.7546771E-02  0.1565871E+00
         21   -1    0    0  503  502  0.00000000000E+00  0.00000000000E+00  0.51731090406E+01  0.51731090406E+01  0.00000000000E+00 0. -1.
         21   -1    0    0  501  503 -0.00000000000E+00 -0.00000000000E+00 -0.22623583796E+03  0.22623583796E+03  0.00000000000E+00 0.  1.
          2    1    1    2  501    0 -0.33129075123E+02  0.40363406755E-02 -0.81672431305E+02  0.88135813777E+02  0.00000000000E+00 0.  1.
         -2    1    1    2    0  502  0.33129075123E+02 -0.40363406755E-02 -0.13939029762E+03  0.14327313323E+03  0.00000000000E+00 0. -1.
<mgrwt>
<rscale>  2 0.33129075E+02</rscale>
<asrwt>0</asrwt>
<pdfrwt beam="1">  1       21 0.79586300E-03 0.33129075E+02</pdfrwt>
<pdfrwt beam="2">  1       21 0.34805510E-01 0.33129075E+02</pdfrwt>
<totfact> 0.34561899E+07</totfact>
</mgrwt>
</event>
<event>
 4    1  0.2769537E+004  0.2300539E+02  0.7546771E-02  0.1691423E+00
         21   -1    0    0  503  502  0.00000000000E+00  0.00000000000E+00  0.59034024954E+02  0.59034024954E+02  0.00000000000E+00 0.  1.
         21   -1    0    0  501  503 -0.00000000000E+00 -0.00000000000E+00 -0.14133137416E+02  0.14133137416E+02  0.00000000000E+00 0. -1.
          2    1    1    2  501    0  0.21740951359E+02 -0.75218910760E+01  0.32823857339E+00  0.23007728091E+02  0.00000000000E+00 0. -1.
         -2    1    1    2    0  502 -0.21740951359E+02  0.75218910760E+01  0.44572648965E+02  0.50159434278E+02  0.00000000000E+00 0.  1.
<mgrwt>
<rscale>  2 0.23005387E+02</rscale>
<asrwt>0</asrwt>
<pdfrwt beam="1">  1       21 0.90821576E-02 0.23005387E+02</pdfrwt>
<pdfrwt beam="2">  1       21 0.21743289E-02 0.23005387E+02</pdfrwt>
<totfact> 0.71873869E+07</totfact>
</mgrwt>
</event>
<event>
 4    1  0.2769537E+004  0.2130488E+02  0.7546771E-02  0.1720559E+00
         21   -1    0    0  503  502  0.00000000000E+00  0.00000000000E+00  0.18210817548E+03  0.18210817548E+03  0.00000000000E+00 0.  1.
         21   -1    0    0  501  503 -0.00000000000E+00 -0.00000000000E+00 -0.53140220560E+01  0.53140220560E+01  0.00000000000E+00 0. -1.
          2    1    1    2  501    0 -0.57392235670E+01 -0.20517291369E+02  0.20112297756E+02  0.29298505991E+02  0.00000000000E+00 0. -1.
         -2    1    1    2    0  502  0.57392235670E+01  0.20517291369E+02  0.15668185567E+03  0.15812369155E+03  0.00000000000E+00 0.  1.
<mgrwt>
<rscale>  2 0.21304880E+02</rscale>
<asrwt>0</asrwt>
<pdfrwt beam="1">  1       21 0.28016638E-01 0.21304880E+02</pdfrwt>
<pdfrwt beam="2">  1       21 0.81754200E-03 0.21304880E+02</pdfrwt>
<totfact> 0.44953149E+07</totfact>
</mgrwt>
</event>
<event>
 4    1  0.2769537E+004  0.2097859E+02  0.7546771E-02  0.1726540E+00
         21   -1    0    0  501  502  0.00000000000E+00  0.00000000000E+00  0.69949009815E+01  0.69949009815E+01  0.00000000000E+00 0.  1.
         21   -1    0    0  502  503 -0.00000000000E+00 -0.00000000000E+00 -0.11744302208E+03  0.11744302208E+03  0.00000000000E+00 0. -1.
          2    1    1    2  501    0  0.16102714010E+02 -0.13446333829E+02 -0.12829582974E+02  0.24590638284E+02  0.00000000000E+00 0.  1.
         -2    1    1    2    0  503 -0.16102714010E+02  0.13446333829E+02 -0.97618538122E+02  0.99847284775E+02  0.00000000000E+00 0. -1.
<mgrwt>
<rscale>  2 0.20978591E+02</rscale>
<asrwt>0</asrwt>
<pdfrwt beam="1">  1       21 0.10761387E-02 0.20978591E+02</pdfrwt>
<pdfrwt beam="2">  1       21 0.18068156E-01 0.20978591E+02</pdfrwt>
<totfact> 0.64216265E+07</totfact>
</mgrwt>
</event>
<event>
 4    1  0.2769537E+004  0.2020750E+02  0.7546771E-02  0.1741233E+00
         21   -1    0    0  501  502  0.00000000000E+00  0.00000000000E+00  0.82825795694E+02  0.82825795694E+02  0.00000000000E+00 0. -1.
         21   -1    0    0  502  503 -0.00000000000E+00 -0.00000000000E+00 -0.11367092673E+02  0.11367092673E+02  0.00000000000E+00 0.  1.
          2    1    1    2  501    0  0.20198490075E+02  0.60353287909E+00  0.71170140281E+02  0.73983323262E+02  0.00000000000E+00 0. -1.
         -2    1    1    2    0  503 -0.20198490075E+02 -0.60353287909E+00  0.28856273938E+00  0.20209565104E+02  0.00000000000E+00 0.  1.
<mgrwt>
<rscale>  2 0.20207505E+02</rscale>
<asrwt>0</asrwt>
<pdfrwt beam="1">  1       21 0.12742430E-01 0.20207505E+02</pdfrwt>
<pdfrwt beam="2">  1       21 0.17487835E-02 0.20207505E+02</pdfrwt>
<totfact> 0.55230715E+07</totfact>
</mgrwt>
</event>
<event>
 4    1  0.2769537E+004  0.2864651E+02  0.7546771E-02  0.1613550E+00
         21   -1    0    0  503  502  0.00000000000E+00  0.00000000000E+00  0.15952885169E+03  0.15952885169E+03  0.00000000000E+00 0.  1.
         21   -1    0    0  501  503 -0.00000000000E+00 -0.00000000000E+00 -0.58567104586E+01  0.58567104586E+01  0.00000000000E+00 0. -1.
          2    1    1    2  501    0 -0.28515290586E+02 -0.27387265468E+01  0.47990056365E+02  0.55889783774E+02  0.00000000000E+00 0. -1.
         -2    1    1    2    0  502  0.28515290586E+02  0.27387265468E+01  0.10568208487E+03  0.10949577838E+03  0.00000000000E+00 0.  1.
<mgrwt>
<rscale>  2 0.28646508E+02</rscale>
<asrwt>0</asrwt>
<pdfrwt beam="1">  1       21 0.24542897E-01 0.28646508E+02</pdfrwt>
<pdfrwt beam="2">  1       21 0.90103250E-03 0.28646508E+02</pdfrwt>
<totfact> 0.52853235E+07</totfact>
</mgrwt>
</event>
<event>
 4    1  0.2769537E+004  0.2403339E+02  0.7546771E-02  0.1675287E+00
         21   -1    0    0  501  502  0.00000000000E+00  0.00000000000E+00  0.18246541189E+02  0.18246541189E+02  0.00000000000E+00 0.  1.
         21   -1    0    0  502  503 -0.00000000000E+00 -0.00000000000E+00 -0.32285756343E+02  0.32285756343E+02  0.00000000000E+00 0. -1.
          2    1    1    2  501    0 -0.11528062060E+02  0.21088096842E+02 -0.34895666456E+01  0.24285409584E+02  0.00000000000E+00 0.  1.
         -2    1    1    2    0  503  0.11528062060E+02 -0.21088096842E+02 -0.10549648509E+02  0.26246887948E+02  0.00000000000E+00 0. -1.
<mgrwt>
<rscale>  2 0.24033394E+02</rscale>
<asrwt>0</asrwt>
<pdfrwt beam="1">  1       21 0.28071602E-02 0.24033394E+02</pdfrwt>
<pdfrwt beam="2">  1       21 0.49670394E-02 0.24033394E+02</pdfrwt>
<totfact> 0.13013001E+08</totfact>
</mgrwt>
</event>
<event>
 4    1  0.2769537E+004  0.2330139E+02  0.7546771E-02  0.1686671E+00
         21   -1    0    0  501  502  0.00000000000E+00  0.00000000000E+00  0.11250607454E+02  0.11250607454E+02  0.00000000000E+00 0.  1.
         21   -1    0    0  502  503 -0.00000000000E+00 -0.00000000000E+00 -0.79773744827E+02  0.79773744827E+02  0.00000000000E+00 0. -1.
          2    1    1    2  501    0  0.17752398612E+02  0.15093281848E+02 -0.56562155221E+01  0.23978064714E+02  0.00000000000E+00 0.  1.
         -2    1    1    2    0  503 -0.17752398612E+02 -0.15093281848E+02 -0.62866921852E+02  0.67046287567E+02  0.00000000000E+00 0. -1.
<mgrwt>
<rscale>  2 0.23301391E+02</rscale>
<asrwt>0</asrwt>
<pdfrwt beam="1">  1       21 0.17308626E-02 0.23301391E+02</pdfrwt>
<pdfrwt beam="2">  1       21 0.12272884E-01 0.23301391E+02</pdfrwt>
<totfact> 0.62058465E+07</totfact>
</mgrwt>
</event>
<event>
 4    1  0.2769537E+004  0.4075405E+02  0.7546771E-02  0.1502735E+00
         21   -1    0    0  501  502  0.00000000000E+00  0.00000000000E+00  0.63605678359E+01  0.63605678359E+01  0.00000000000E+00 0.  1.
         21   -1    0    0  502  503 -0.00000000000E+00 -0.00000000000E+00 -0.31210783813E+03  0.31210783813E+03  0.00000000000E+00 0. -1.
          2    1    1    2  501    0  0.40724902558E+02 -0.15411254756E+01 -0.88515556629E+02  0.97446890773E+02  0.00000000000E+00 0.  1.
         -2    1    1    2    0  503 -0.40724902558E+02  0.15411254756E+01 -0.21723171367E+03  0.22102151519E+03  0.00000000000E+00 0. -1.
<mgrwt>
<rscale>  2 0.40754052E+02</rscale>
<asrwt>0</asrwt>
<pdfrwt beam="1">  1       21 0.97854882E-03 0.40754052E+02</pdfrwt>
<pdfrwt beam="2">  1       21 0.48016594E-01 0.40754052E+02</pdfrwt>
<totfact> 0.14039855E+07</totfact>
</mgrwt>
</event>
<event>
 4    1  0.2769537E+004  0.4044872E+02  0.7546771E-02  0.1504935E+00
         21   -1    0    0  501  502  0.00000000000E+00  0.00000000000E+00  0.13222638082E+03  0.13222638082E+03  0.00000000000E+00 0.  1.
         21   -1    0    0  502  503 -0.00000000000E+00 -0.00000000000E+00 -0.13443919503E+02  0.13443919503E+02  0.00000000000E+00 0. -1.
          2    1    1    2  501    0  0.37673084009E+02  0.14725400535E+02  0.79943599811E+02  0.89593960903E+02  0.00000000000E+00 0.  1.
         -2    1    1    2    0  503 -0.37673084009E+02 -0.14725400535E+02  0.38838861511E+02  0.56076339424E+02  0.00000000000E+00 0. -1.
<mgrwt>
<rscale>  2 0.40448717E+02</rscale>
<asrwt>0</asrwt>
<pdfrwt beam="1">  1       21 0.20342519E-01 0.40448717E+02</pdfrwt>
<pdfrwt beam="2">  1       21 0.20682954E-02 0.40448717E+02</pdfrwt>
<totfact> 0.22021366E+07</totfact>
</mgrwt>
</event>
<event>
 4    1  0.2769537E+004  0.2375967E+02  0.7546771E-02  0.1679484E+00
         21   -1    0    0  503  502  0.00000000000E+00  0.00000000000E+00  0.47936004210E+01  0.47936004210E+01  0.00000000000E+00 0. -1.
         21   -1    0    0  501  503 -0.00000000000E+00 -0.00000000000E+00 -0.26616028344E+03  0.26616028344E+03  0.00000000000E+00 0.  1.
          2    1    1    2  501    0  0.12713521794E+02  0.20072081029E+02 -0.23184190957E+03  0.23305620161E+03  0.00000000000E+00 0.  1.
         -2    1    1    2    0  502 -0.12713521794E+02 -0.20072081029E+02 -0.29524773451E+02  0.37897682258E+02  0.00000000000E+00 0. -1.
<mgrwt>
<rscale>  2 0.23759673E+02</rscale>
<asrwt>0</asrwt>
<pdfrwt beam="1">  1       21 0.73747691E-03 0.23759673E+02</pdfrwt>
<pdfrwt beam="2">  1       21 0.40947740E-01 0.23759673E+02</pdfrwt>
<totfact> 0.26703584E+07</totfact>
</mgrwt>
</event>
<event>
 4    1  0.2769537E+004  0.2339925E+02  0.7546771E-02  0.1685119E+00
         21   -1    0    0  503  502  0.00000000000E+00  0.00000000000E+00  0.32866251848E+01  0.32866251848E+01  0.00000000000E+00 0. -1.
         21   -1    0    0  501  503 -0.00000000000E+00 -0.00000000000E+00 -0.19194202523E+03  0.19194202523E+03  0.00000000000E+00 0.  1.
          2    1    1    2  501    0  0.75534916691E+00 -0.23387050202E+02 -0.12980248612E+03  0.13189469312E+03  0.00000000000E+00 0. -1.
         -2    1    1    2    0  502 -0.75534916691E+00  0.23387050202E+02 -0.58852913925E+02  0.63333957297E+02  0.00000000000E+00 0.  1.
<mgrwt>
<rscale>  2 0.23399245E+02</rscale>
<asrwt>0</asrwt>
<pdfrwt beam="1">  1       21 0.50563439E-03 0.23399245E+02</pdfrwt>
<pdfrwt beam="2">  1       21 0.29529557E-01 0.23399245E+02</pdfrwt>
<totfact> 0.85368489E+07</totfact>
</mgrwt>
</event>
<event>
 4    1  0.2769537E+004  0.2315637E+02  0.7546771E-02  0.1688988E+00
         21   -1    0    0  503  502  0.00000000000E+00  0.00000000000E+00  0.39358455121E+03  0.39358455121E+03  0.00000000000E+00 0.  1.
         21   -1    0    0  501  503 -0.00000000000E+00 -0.00000000000E+00 -0.23142228514E+01  0.23142228514E+01  0.00000000000E+00 0. -1.
          2    1    1    2  501    0  0.20285910343E+02  0.11166894050E+02  0.68685737486E+02  0.72484123884E+02  0.00000000000E+00 0. -1.
         -2    1    1    2    0  502 -0.20285910343E+02 -0.11166894050E+02  0.32258459088E+03  0.32341465018E+03  0.00000000000E+00 0.  1.
<mgrwt>
<rscale>  2 0.23156375E+02</rscale>
<asrwt>0</asrwt>
<pdfrwt beam="1">  1       21 0.60551416E-01 0.23156375E+02</pdfrwt>
<pdfrwt beam="2">  1       21 0.35603460E-03 0.23156375E+02</pdfrwt>
<totfact> 0.36365914E+07</totfact>
</mgrwt>
</event>
<event>
 4    1  0.2769537E+004  0.2016393E+02  0.7546771E-02  0.1742088E+00
         21   -1    0    0  501  502  0.00000000000E+00  0.00000000000E+00  0.19159298346E+01  0.19159298346E+01  0.00000000000E+00 0.  1.
         21   -1    0    0  502  503 -0.00000000000E+00 -0.00000000000E+00 -0.21224590752E+03  0.21224590752E+03  0.00000000000E+00 0. -1.
          2    1    1    2  501    0 -0.19368838552E+02 -0.56064542274E+01 -0.10382130684E+03  0.10576127831E+03  0.00000000000E+00 0.  1.
         -2    1    1    2    0  503  0.19368838552E+02  0.56064542274E+01 -0.10650867084E+03  0.10840055904E+03  0.00000000000E+00 0. -1.
<mgrwt>
<rscale>  2 0.20163934E+02</rscale>
<asrwt>0</asrwt>
<pdfrwt beam="1">  1       21 0.29475862E-03 0.20163934E+02</pdfrwt>
<pdfrwt beam="2">  1       21 0.32653196E-01 0.20163934E+02</pdfrwt>
<totfact> 0.15018523E+08</totfact>
</mgrwt>
</event>
<event>
 4    1  0.2769537E+004  0.2381464E+02  0.7546771E-02  0.1678635E+00
         21   -1    0    0  503  502  0.00000000000E+00  0.00000000000E+00  0.19024662826E+03  0.19024662826E+03  0.00000000000E+00 0. -1.
         21   -1    0    0  501  503 -0.00000000000E+00 -0.00000000000E+00 -0.38928251357E+01  0.38928251357E+01  0.00000000000E+00 0.  1.
          2    1    1    2  501    0 -0.17182705195E+02  0.16489141034E+02  0.46199152528E+02  0.51975944669E+02  0.00000000000E+00 0.  1.
         -2    1    1    2    0  502  0.17182705195E+02 -0.16489141034E+02  0.14015465060E+03  0.14216350873E+03  0.00000000000E+00 0. -1.
<mgrwt>
<rscale>  2 0.23814641E+02</rscale>
<asrwt>0</asrwt>
<pdfrwt beam="1">  1       21 0.29268705E-01 0.23814641E+02</pdfrwt>
<pdfrwt beam="2">  1       21 0.59889632E-03 0.23814641E+02</pdfrwt>
<totfact> 0.67841522E+07</totfact>
</mgrwt>
</event>
<event>
 4    1  0.2769537E+004  0.3131004E+02  0.7546771E-02  0.1584043E+00
         21   -1    0    0  501  502  0.00000000000E+00  0.00000000000E+00  0.97110502955E+01  0.97110502955E+01  0.00000000000E+00 0. -1.
         21   -1    0    0  502  503 -0.00000000000E+00 -0.00000000000E+00 -0.26786835950E+03  0.26786835950E+03  0.00000000000E+00 0.  1.
          2    1    1    2  501    0 -0.26839642024E+02 -0.16123041186E+02 -0.19519124033E+02  0.36896003091E+02  0.00000000000E+00 0. -1.
         -2    1    1    2    0  503  0.26839642024E+02  0.16123041186E+02 -0.23863818518E+03  0.24068340671E+03  0.00000000000E+00 0.  1.
<mgrwt>
<rscale>  2 0.31310044E+02</rscale>
<asrwt>0</asrwt>
<pdfrwt beam="1">  1       21 0.14940078E-02 0.31310044E+02</pdfrwt>
<pdfrwt beam="2">  1       21 0.41210516E-01 0.31310044E+02</pdfrwt>
<totfact> 0.95231995E+06</totfact>
</mgrwt>
</event>
<event>
 4    1  0.2769537E+004  0.2727003E+02  0.7546771E-02  0.1630386E+00
         21   -1    0    0  503  502  0.00000000000E+00  0.00000000000E+00  0.71574391037E+02  0.71574391037E+02  0.00000000000E+00 0.  1.
         21   -1    0    0  501  503 -0.00000000000E+00 -0.00000000000E+00 -0.19403026193E+02  0.19403026193E+02  0.00000000000E+00 0. -1.
          2    1    1    2  501    0 -0.22210629182E+02  0.15822217042E+02 -0.49174308921E+01  0.27709848924E+02  0.00000000000E+00 0. -1.
         -2    1    1    2    0  502  0.22210629182E+02 -0.15822217042E+02  0.57088795736E+02  0.63267568306E+02  0.00000000000E+00 0.  1.
<mgrwt>
<rscale>  2 0.27270031E+02</rscale>
<asrwt>0</asrwt>
<pdfrwt beam="1">  1       21 0.11011445E-01 0.27270031E+02</pdfrwt>
<pdfrwt beam="2">  1       21 0.29850810E-02 0.27270031E+02</pdfrwt>
<totfact> 0.33264555E+07</totfact>
</mgrwt>
</event>
<event>
 4    1  0.2769537E+004  0.2077293E+02  0.7546771E-02  0.1730380E+00
         21   -1    0    0  503  502  0.00000000000E+00  0.00000000000E+00  0.86138708904E+00  0.86138708904E+00  0.00000000000E+00 0. -1.
         21   -1    0    0  501  503 -0.00000000000E+00 -0.00000000000E+00 -0.53158956178E+03  0.53158956178E+03  0.00000000000E+00 0.  1.
          2    1    1    2  501    0  0.18765731892E+02  0.89085362796E+01 -0.32927561722E+03  0.32993021505E+03  0.00000000000E+00 0. -1.
         -2    1    1    2    0  502 -0.18765731892E+02 -0.89085362796E+01 -0.20145255748E+03  0.20252073382E+03  0.00000000000E+00 0.  1.
<mgrwt>
<rscale>  2 0.20772932E+02</rscale>
<asrwt>0</asrwt>
<pdfrwt beam="1">  1       21 0.13252139E-03 0.20772932E+02</pdfrwt>
<pdfrwt beam="2">  1       21 0.81782828E-01 0.20772932E+02</pdfrwt>
<totfact> 0.79824617E+07</totfact>
</mgrwt>
</event>
<event>
 4    1  0.2769537E+004  0.2137074E+02  0.7546771E-02  0.1719368E+00
         21   -1    0    0  503  502  0.00000000000E+00  0.00000000000E+00  0.48204082802E+02  0.48204082802E+02  0.00000000000E+00 0.  1.
         21   -1    0    0  501  503 -0.00000000000E+00 -0.00000000000E+00 -0.11329411406E+02  0.11329411406E+02  0.00000000000E+00 0. -1.
          2    1    1    2  501    0  0.80924998592E+01  0.19779276038E+02  0.63927360515E+01  0.22306397934E+02  0.00000000000E+00 0. -1.
         -2    1    1    2    0  502 -0.80924998592E+01 -0.19779276038E+02  0.30481935345E+02  0.37227096274E+02  0.00000000000E+00 0.  1.
<mgrwt>
<rscale>  2 0.21370735E+02</rscale>
<asrwt>0</asrwt>
<pdfrwt beam="1">  1       21 0.74160126E-02 0.21370735E+02</pdfrwt>
<pdfrwt beam="2">  1       21 0.17429864E-02 0.21370735E+02</pdfrwt>
<totfact> 0.13739445E+08</totfact>
</mgrwt>
</event>
<event>
 4    1  0.2769537E+004  0.2120469E+02  0.7546771E-02  0.1722381E+00
         21   -1    0    0  501  502  0.00000000000E+00  0.00000000000E+00  0.81902876655E+02  0.81902876655E+02  0.00000000000E+00 0.  1.
         21   -1    0    0  502  503 -0.00000000000E+00 -0.00000000000E+00 -0.70907654182E+01  0.70907654182E+01  0.00000000000E+00 0. -1.
          2    1    1    2  501    0  0.96255227450E+01  0.18894133425E+02  0.58548696622E+02  0.62270288599E+02  0.00000000000E+00 0.  1.
         -2    1    1    2    0  503 -0.96255227450E+01 -0.18894133425E+02  0.16263414615E+02  0.26723353475E+02  0.00000000000E+00 0. -1.
<mgrwt>
<rscale>  2 0.21204692E+02</rscale>
<asrwt>0</asrwt>
<pdfrwt beam="1">  1       21 0.12600442E-01 0.21204692E+02</pdfrwt>
<pdfrwt beam="2">  1       21 0.10908870E-02 0.21204692E+02</pdfrwt>
<totfact> 0.11635202E+08</totfact>
</mgrwt>
</event>
<event>
 4    1  0.2769537E+004  0.2104478E+02  0.7546771E-02  0.1725315E+00
         21   -1    0    0  501  502  0.00000000000E+00  0.00000000000E+00  0.97566907939E+01  0.97566907939E+01  0.00000000000E+00 0.  1.
         21   -1    0    0  502  503 -0.00000000000E+00 -0.00000000000E+00 -0.84662887077E+02  0.84662887077E+02  0.00000000000E+00 0. -1.
          2    1    1    2  501    0 -0.13986511327E+02 -0.15724516896E+02 -0.53004473026E+01  0.21702020006E+02  0.00000000000E+00 0.  1.
         -2    1    1    2    0  503  0.13986511327E+02  0.15724516896E+02 -0.69605748980E+02  0.72717557865E+02  0.00000000000E+00 0. -1.
<mgrwt>
<rscale>  2 0.21044784E+02</rscale>
<asrwt>0</asrwt>
<pdfrwt beam="1">  1       21 0.15010293E-02 0.21044784E+02</pdfrwt>
<pdfrwt beam="2">  1       21 0.13025060E-01 0.21044784E+02</pdfrwt>
<totfact> 0.67871699E+07</totfact>
</mgrwt>
</event>
<event>
 4    1  0.2769537E+004  0.2661269E+02  0.7546771E-02  0.1638863E+00
         21   -1    0    0  501  502  0.00000000000E+00  0.00000000000E+00  0.31122137034E+03  0.31122137034E+03  0.00000000000E+00 0.  1.
         21   -1    0    0  502  503 -0.00000000000E+00 -0.00000000000E+00 -0.41430068529E+01  0.41430068529E+01  0.00000000000E+00 0. -1.
          2    1    1    2  501    0  0.11766345098E+02  0.23870237595E+02  0.25940040324E+03  0.26076196870E+03  0.00000000000E+00 0.  1.
         -2    1    1    2    0  503 -0.11766345098E+02 -0.23870237595E+02  0.47677960250E+02  0.54602408495E+02  0.00000000000E+00 0. -1.
<mgrwt>
<rscale>  2 0.26612687E+02</rscale>
<asrwt>0</asrwt>
<pdfrwt beam="1">  1       21 0.47880193E-01 0.26612687E+02</pdfrwt>
<pdfrwt beam="2">  1       21 0.63738591E-03 0.26612687E+02</pdfrwt>
<totfact> 0.25159761E+07</totfact>
</mgrwt>
</event>
<event>
 4    1  0.2769537E+004  0.5111312E+02  0.7546771E-02  0.1439429E+00
         21   -1    0    0  501  502  0.00000000000E+00  0.00000000000E+00  0.18521823926E+03  0.18521823926E+03  0.00000000000E+00 0. -1.
         21   -1    0    0  502  503 -0.00000000000E+00 -0.00000000000E+00 -0.76830062218E+02  0.76830062218E+02  0.00000000000E+00 0.  1.
          2    1    1    2  501    0  0.37130898599E+02 -0.35126168273E+02  0.17258146950E+03  0.17999143019E+03  0.00000000000E+00 0. -1.
         -2    1    1    2    0  503 -0.37130898599E+02  0.35126168273E+02 -0.64193292459E+02  0.82056871285E+02  0.00000000000E+00 0.  1.
<mgrwt>
<rscale>  2 0.51113123E+02</rscale>
<asrwt>0</asrwt>
<pdfrwt beam="1">  1       21 0.28495114E-01 0.51113123E+02</pdfrwt>
<pdfrwt beam="2">  1       21 0.11820010E-01 0.51113123E+02</pdfrwt>
<totfact> 0.70441763E+05</totfact>
</mgrwt>
</event>
<event>
 4    1  0.2769537E+004  0.2422687E+02  0.7546771E-02  0.1672361E+00
         21   -1    0    0  501  502  0.00000000000E+00  0.00000000000E+00  0.69367421810E+03  0.69367421810E+03  0.00000000000E+00 0. -1.
         21   -1    0    0  502  503 -0.00000000000E+00 -0.00000000000E+00 -0.13831900344E+01  0.13831900344E+01  0.00000000000E+00 0.  1.
          2    1    1    2  501    0  0.10339638428E+00  0.24226650614E+02  0.56269621046E+03  0.56321751266E+03  0.00000000000E+00 0. -1.
         -2    1    1    2    0  503 -0.10339638428E+00 -0.24226650614E+02  0.12959481760E+03  0.13183989548E+03  0.00000000000E+00 0.  1.
<mgrwt>
<rscale>  2 0.24226871E+02</rscale>
<asrwt>0</asrwt>
<pdfrwt beam="1">  1       21 0.10671883E+00 0.24226871E+02</pdfrwt>
<pdfrwt beam="2">  1       21 0.21279902E-03 0.24226871E+02</pdfrwt>
<totfact> 0.23543322E+07</totfact>
</mgrwt>
</event>
<event>
 4    1  0.2769537E+004  0.2808526E+02  0.7546771E-02  0.1620272E+00
         21   -1    0    0  501  502  0.00000000000E+00  0.00000000000E+00  0.10603613459E+02  0.10603613459E+02  0.00000000000E+00 0. -1.
         21   -1    0    0  502  503 -0.00000000000E+00 -0.00000000000E+00 -0.10352179514E+03  0.10352179514E+03  0.00000000000E+00 0.  1.
          2    1    1    2  501    0 -0.28079150548E+02 -0.58593033442E+00 -0.16187538378E+02  0.32416329351E+02  0.00000000000E+00 0. -1.
         -2    1    1    2    0  503  0.28079150548E+02  0.58593033442E+00 -0.76730643298E+02  0.81709079243E+02  0.00000000000E+00 0.  1.
<mgrwt>
<rscale>  2 0.28085263E+02</rscale>
<asrwt>0</asrwt>
<pdfrwt beam="1">  1       21 0.16313253E-02 0.28085263E+02</pdfrwt>
<pdfrwt beam="2">  1       21 0.15926429E-01 0.28085263E+02</pdfrwt>
<totfact> 0.45628034E+07</totfact>
</mgrwt>
</event>
<event>
 4    1  0.2769537E+004  0.2213908E+02  0.7546771E-02  0.1705858E+00
         21   -1    0    0  501  502  0.00000000000E+00  0.00000000000E+00  0.13963404654E+02  0.13963404654E+02  0.00000000000E+00 0. -1.
         21   -1    0    0  502  503 -0.00000000000E+00 -0.00000000000E+00 -0.42667450585E+02  0.42667450585E+02  0.00000000000E+00 0.  1.
          2    1    1    2  501    0  0.17605863719E+02  0.13422834151E+02 -0.24285859949E+01  0.22271886850E+02  0.00000000000E+00 0. -1.
         -2    1    1    2    0  503 -0.17605863719E+02 -0.13422834151E+02 -0.26275459936E+02  0.34358968389E+02  0.00000000000E+00 0.  1.
<mgrwt>
<rscale>  2 0.22139081E+02</rscale>
<asrwt>0</asrwt>
<pdfrwt beam="1">  1       21 0.21482161E-02 0.22139081E+02</pdfrwt>
<pdfrwt beam="2">  1       21 0.65642231E-02 0.22139081E+02</pdfrwt>
<totfact> 0.12283837E+08</totfact>
</mgrwt>
</event>
<event>
 4    1  0.2769537E+004  0.2057348E+02  0.7546771E-02  0.1734159E+00
         21   -1    0    0  503  502  0.00000000000E+00  0.00000000000E+00  0.57290900108E+02  0.57290900108E+02  0.00000000000E+00 0.  1.
         21   -1    0    0  501  503 -0.00000000000E+00 -0.00000000000E+00 -0.74003228070E+01  0.74003228070E+01  0.00000000000E+00 0. -1.
          2    1    1    2  501    0  0.10016441089E+02 -0.17970498447E+02  0.26262639699E+02  0.33361566967E+02  0.00000000000E+00 0. -1.
         -2    1    1    2    0  502 -0.10016441089E+02  0.17970498447E+02  0.23627937602E+02  0.31329655949E+02  0.00000000000E+00 0.  1.
<mgrwt>
<rscale>  2 0.20573476E+02</rscale>
<asrwt>0</asrwt>
<pdfrwt beam="1">  1       21 0.88139843E-02 0.20573476E+02</pdfrwt>
<pdfrwt beam="2">  1       21 0.11385112E-02 0.20573476E+02</pdfrwt>
<totfact> 0.19521771E+08</totfact>
</mgrwt>
</event>
<event>
 4    1  0.2769537E+004  0.2725521E+02  0.7546771E-02  0.1630574E+00
         21   -1    0    0  503  502  0.00000000000E+00  0.00000000000E+00  0.11912309860E+03  0.11912309860E+03  0.00000000000E+00 0. -1.
         21   -1    0    0  501  503 -0.00000000000E+00 -0.00000000000E+00 -0.21597585244E+02  0.21597585244E+02  0.00000000000E+00 0.  1.
          2    1    1    2  501    0 -0.22551711162E+02  0.15305783105E+02 -0.10576752565E+02  0.29235498416E+02  0.00000000000E+00 0.  1.
         -2    1    1    2    0  502  0.22551711162E+02 -0.15305783105E+02  0.10810226592E+03  0.11148518542E+03  0.00000000000E+00 0. -1.
<mgrwt>
<rscale>  2 0.27255214E+02</rscale>
<asrwt>0</asrwt>
<pdfrwt beam="1">  1       21 0.18326630E-01 0.27255214E+02</pdfrwt>
<pdfrwt beam="2">  1       21 0.33227055E-02 0.27255214E+02</pdfrwt>
<totfact> 0.11775060E+07</totfact>
</mgrwt>
</event>
<event>
 4    1  0.2769537E+004  0.2099060E+02  0.7546771E-02  0.1726317E+00
         21   -1    0    0  501  502  0.00000000000E+00  0.00000000000E+00  0.12674570152E+02  0.12674570152E+02  0.00000000000E+00 0.  1.
         21   -1    0    0  502  503 -0.00000000000E+00 -0.00000000000E+00 -0.13978386611E+03  0.13978386611E+03  0.00000000000E+00 0. -1.
          2    1    1    2  501    0  0.39555221585E+01 -0.20614537172E+02  0.25193927970E+01  0.21141254420E+02  0.00000000000E+00 0.  1.
         -2    1    1    2    0  503 -0.39555221585E+01  0.20614537172E+02 -0.12962868875E+03  0.13131718184E+03  0.00000000000E+00 0. -1.
<mgrwt>
<rscale>  2 0.20990600E+02</rscale>
<asrwt>0</asrwt>
<pdfrwt beam="1">  1       21 0.19499339E-02 0.20990600E+02</pdfrwt>
<pdfrwt beam="2">  1       21 0.21505209E-01 0.20990600E+02</pdfrwt>
<totfact> 0.19307856E+07</totfact>
</mgrwt>
</event>
<event>
 4    1  0.2769537E+004  0.2403757E+02  0.7546771E-02  0.1675223E+00
         21   -1    0    0  503  502  0.00000000000E+00  0.00000000000E+00  0.42057462952E+02  0.42057462952E+02  0.00000000000E+00 0.  1.
         21   -1    0    0  501  503 -0.00000000000E+00 -0.00000000000E+00 -0.18848873594E+02  0.18848873594E+02  0.00000000000E+00 0. -1.
          2    1    1    2  501    0  0.23341629479E+02 -0.57422146074E+01 -0.42525905956E+01  0.24410842307E+02  0.00000000000E+00 0. -1.
         -2    1    1    2    0  502 -0.23341629479E+02  0.57422146074E+01  0.27461179954E+02  0.36495494240E+02  0.00000000000E+00 0.  1.
<mgrwt>
<rscale>  2 0.24037568E+02</rscale>
<asrwt>0</asrwt>
<pdfrwt beam="1">  1       21 0.64703789E-02 0.24037568E+02</pdfrwt>
<pdfrwt beam="2">  1       21 0.28998267E-02 0.24037568E+02</pdfrwt>
<totfact> 0.80943451E+07</totfact>
</mgrwt>
</event>
<event>
 4    1  0.2769537E+004  0.2491547E+02  0.7546771E-02  0.1662219E+00
         21   -1    0    0  501  502  0.00000000000E+00  0.00000000000E+00  0.77640901847E+01  0.77640901847E+01  0.00000000000E+00 0. -1.
         21   -1    0    0  502  503 -0.00000000000E+00 -0.00000000000E+00 -0.83027964076E+02  0.83027964076E+02  0.00000000000E+00 0.  1.
          2    1    1    2  501    0 -0.13907401024E+02  0.20672799950E+02 -0.28898997403E+02  0.38156683712E+02  0.00000000000E+00 0.  1.
         -2    1    1    2    0  503  0.13907401024E+02 -0.20672799950E+02 -0.46364876489E+02  0.52635370549E+02  0.00000000000E+00 0. -1.
<mgrwt>
<rscale>  2 0.24915466E+02</rscale>
<asrwt>0</asrwt>
<pdfrwt beam="1">  1       21 0.11944754E-02 0.24915466E+02</pdfrwt>
<pdfrwt beam="2">  1       21 0.12773533E-01 0.24915466E+02</pdfrwt>
<totfact> 0.10382689E+08</totfact>
</mgrwt>
</event>
<event>
 4    1  0.2769537E+004  0.2803846E+02  0.7546771E-02  0.1620841E+00
         21   -1    0    0  503  502  0.00000000000E+00  0.00000000000E+00  0.36110169136E+01  0.36110169136E+01  0.00000000000E+00 0.  1.
         21   -1    0    0  501  503 -0.00000000000E+00 -0.00000000000E+00 -0.22181500566E+03  0.22181500566E+03  0.00000000000E+00 0. -1.
          2    1    1    2  501    0 -0.26723096234E+02  0.84871439601E+01 -0.12443477523E+03  0.12755457174E+03  0.00000000000E+00 0. -1.
         -2    1    1    2    0  502  0.26723096234E+02 -0.84871439601E+01 -0.93769213512E+02  0.97871450830E+02  0.00000000000E+00 0.  1.
<mgrwt>
<rscale>  2 0.28038464E+02</rscale>
<asrwt>0</asrwt>
<pdfrwt beam="1">  1       21 0.55554107E-03 0.28038464E+02</pdfrwt>
<pdfrwt beam="2">  1       21 0.34125385E-01 0.28038464E+02</pdfrwt>
<totfact> 0.59430883E+07</totfact>
</mgrwt>
</event>
<event>
 4    1  0.2769537E+004  0.3151271E+02  0.7546771E-02  0.1581945E+00
         21   -1    0    0  503  502  0.00000000000E+00  0.00000000000E+00  0.31343770878E+02  0.31343770878E+02  0.00000000000E+00 0. -1.
         21   -1    0    0  501  503 -0.00000000000E+00 -0.00000000000E+00 -0.32283133939E+02  0.32283133939E+02  0.00000000000E+00 0.  1.
          2    1    1    2  501    0 -0.13880704718E+02 -0.28290932030E+02 -0.48088587228E+01  0.31877514345E+02  0.00000000000E+00 0. -1.
         -2    1    1    2    0  502  0.13880704718E+02  0.28290932030E+02  0.38694956615E+01  0.31749390471E+02  0.00000000000E+00 0.  1.
<mgrwt>
<rscale>  2 0.31512709E+02</rscale>
<asrwt>0</asrwt>
<pdfrwt beam="1">  1       21 0.48221186E-02 0.31512709E+02</pdfrwt>
<pdfrwt beam="2">  1       21 0.49666360E-02 0.31512709E+02</pdfrwt>
<totfact> 0.59265154E+07</totfact>
</mgrwt>
</event>
<event>
 4    1  0.2769537E+004  0.3621140E+02  0.7546771E-02  0.1538099E+00
         21   -1    0    0  501  502  0.00000000000E+00  0.00000000000E+00  0.50054237401E+02  0.50054237401E+02  0.00000000000E+00 0. -1.
         21   -1    0    0  502  503 -0.00000000000E+00 -0.00000000000E+00 -0.26927491438E+02  0.26927491438E+02  0.00000000000E+00 0.  1.
          2    1    1    2  501    0  0.20802683439E+02  0.29639730521E+02  0.17903537067E+02  0.40395567865E+02  0.00000000000E+00 0. -1.
         -2    1    1    2    0  503 -0.20802683439E+02 -0.29639730521E+02  0.52232088965E+01  0.36586160974E+02  0.00000000000E+00 0.  1.
<mgrwt>
<rscale>  2 0.36211397E+02</rscale>
<asrwt>0</asrwt>
<pdfrwt beam="1">  1       21 0.77006519E-02 0.36211397E+02</pdfrwt>
<pdfrwt beam="2">  1       21 0.41426910E-02 0.36211397E+02</pdfrwt>
<totfact> 0.38052219E+07</totfact>
</mgrwt>
</event>
<event>
 4    1  0.2769537E+004  0.2539692E+02  0.7546771E-02  0.1655365E+00
         21   -1    0    0  501  502  0.00000000000E+00  0.00000000000E+00  0.30823695567E+03  0.30823695567E+03  0.00000000000E+00 0. -1.
         21   -1    0    0  502  503 -0.00000000000E+00 -0.00000000000E+00 -0.71726642738E+01  0.71726642738E+01  0.00000000000E+00 0.  1.
          2    1    1    2  501    0 -0.54809060648E+01  0.24798453718E+02  0.28325358908E+03  0.28438987212E+03  0.00000000000E+00 0. -1.
         -2    1    1    2    0  503  0.54809060648E+01 -0.24798453718E+02  0.17810702320E+02  0.31019747827E+02  0.00000000000E+00 0.  1.
<mgrwt>
<rscale>  2 0.25396922E+02</rscale>
<asrwt>0</asrwt>
<pdfrwt beam="1">  1       21 0.47421060E-01 0.25396922E+02</pdfrwt>
<pdfrwt beam="2">  1       21 0.11034871E-02 0.25396922E+02</pdfrwt>
<totfact> 0.11151544E+07</totfact>
</mgrwt>
</event>
<event>
 4    1  0.2769537E+004  0.3455841E+02  0.7546771E-02  0.1552557E+00
         21   -1    0    0  503  502  0.00000000000E+00  0.00000000000E+00  0.70665788212E+03  0.70665788212E+03  0.00000000000E+00 0. -1.
         21   -1    0    0  501  503 -0.00000000000E+00 -0.00000000000E+00 -0.16908171426E+01  0.16908171426E+01  0.00000000000E+00 0.  1.
          2    1    1    2  501    0 -0.15581458292E+02  0.30846421156E+02  0.36005272043E+03  0.36170740251E+03  0.00000000000E+00 0. -1.
         -2    1    1    2    0  502  0.15581458292E+02 -0.30846421156E+02  0.34491434455E+03  0.34664129675E+03  0.00000000000E+00 0.  1.
<mgrwt>
<rscale>  2 0.34558408E+02</rscale>
<asrwt>0</asrwt>
<pdfrwt beam="1">  1       21 0.10871636E+00 0.34558408E+02</pdfrwt>
<pdfrwt beam="2">  1       21 0.26012628E-03 0.34558408E+02</pdfrwt>
<totfact> 0.17832719E+07</totfact>
</mgrwt>
</event>
<event>
 4    1  0.2769537E+004  0.2642316E+02  0.7546771E-02  0.1641364E+00
         21   -1    0    0  501  502  0.00000000000E+00  0.00000000000E+00  0.50335492953E+01  0.50335492953E+01  0.00000000000E+00 0.  1.
         21   -1    0    0  502  503 -0.00000000000E+00 -0.00000000000E+00 -0.13979143615E+03  0.13979143615E+03  0.00000000000E+00 0. -1.
          2    1    1    2  501    0  0.21590449179E+02  0.15232716306E+02 -0.73759949199E+02  0.78349940955E+02  0.00000000000E+00 0.  1.
         -2    1    1    2    0  503 -0.21590449179E+02 -0.15232716306E+02 -0.60997937658E+02  0.66475044493E+02  0.00000000000E+00 0. -1.
<mgrwt>
<rscale>  2 0.26423155E+02</rscale>
<asrwt>0</asrwt>
<pdfrwt beam="1">  1       21 0.77439200E-03 0.26423155E+02</pdfrwt>
<pdfrwt beam="2">  1       21 0.21506380E-01 0.26423155E+02</pdfrwt>
<totfact> 0.82395834E+07</totfact>
</mgrwt>
</event>
<event>
 4    1  0.2769537E+004  0.2464160E+02  0.7546771E-02  0.1666204E+00
         21   -1    0    0  503  502  0.00000000000E+00  0.00000000000E+00  0.52428066372E+03  0.52428066372E+03  0.00000000000E+00 0.  1.
         21   -1    0    0  501  503 -0.00000000000E+00 -0.00000000000E+00 -0.14459085727E+01  0.14459085727E+01  0.00000000000E+00 0. -1.
          2    1    1    2  501    0  0.22978013577E+02  0.89005229865E+01  0.14415592341E+03  0.14624684158E+03  0.00000000000E+00 0. -1.
         -2    1    1    2    0  502 -0.22978013577E+02 -0.89005229865E+01  0.37867883174E+03  0.37947973071E+03  0.00000000000E+00 0.  1.
<mgrwt>
<rscale>  2 0.24641599E+02</rscale>
<asrwt>0</asrwt>
<pdfrwt beam="1">  1       21 0.80658412E-01 0.24641599E+02</pdfrwt>
<pdfrwt beam="2">  1       21 0.22244789E-03 0.24641599E+02</pdfrwt>
<totfact> 0.40582556E+07</totfact>
</mgrwt>
</event>
<event>
 4    1  0.2769537E+004  0.3112030E+02  0.7546771E-02  0.1586025E+00
         21   -1    0    0  503  502  0.00000000000E+00  0.00000000000E+00  0.14341481605E+01  0.14341481605E+01  0.00000000000E+00 0.  1.
         21   -1    0    0  501  503 -0.00000000000E+00 -0.00000000000E+00 -0.79336327365E+03  0.79336327365E+03  0.00000000000E+00 0. -1.
          2    1    1    2  501    0  0.23527066353E+01  0.31031243963E+02 -0.24265942983E+03  0.24464683161E+03  0.00000000000E+00 0. -1.
         -2    1    1    2    0  502 -0.23527066353E+01 -0.31031243963E+02 -0.54926969566E+03  0.55015059020E+03  0.00000000000E+00 0.  1.
<mgrwt>
<rscale>  2 0.31120304E+02</rscale>
<asrwt>0</asrwt>
<pdfrwt beam="1">  1       21 0.22063790E-03 0.31120304E+02</pdfrwt>
<pdfrwt beam="2">  1       21 0.12205604E+00 0.31120304E+02</pdfrwt>
<totfact> 0.17173170E+07</totfact>
</mgrwt>
</event>
<event>
 4    1  0.2769537E+004  0.2001781E+02  0.7546771E-02  0.1744974E+00
         21   -1    0    0  501  502  0.00000000000E+00  0.00000000000E+00  0.31610238220E+03  0.31610238220E+03  0.00000000000E+00 0.  1.
         21   -1    0    0  502  503 -0.00000000000E+00 -0.00000000000E+00 -0.24371693849E+01  0.24371693849E+01  0.00000000000E+00 0. -1.
          2    1    1    2  501    0 -0.18149551734E+02 -0.84443135055E+01  0.26716194350E+03  0.26791083724E+03  0.00000000000E+00 0.  1.
         -2    1    1    2    0  503  0.18149551734E+02  0.84443135055E+01  0.46503269317E+02  0.50628714342E+02  0.00000000000E+00 0. -1.
<mgrwt>
<rscale>  2 0.20017809E+02</rscale>
<asrwt>0</asrwt>
<pdfrwt beam="1">  1       21 0.48631103E-01 0.20017809E+02</pdfrwt>
<pdfrwt beam="2">  1       21 0.37494939E-03 0.20017809E+02</pdfrwt>
<totfact> 0.50094352E+07</totfact>
</mgrwt>
</event>
<event>
 4    1  0.2769537E+004  0.2645251E+02  0.7546771E-02  0.1640975E+00
         21   -1    0    0  501  502  0.00000000000E+00  0.00000000000E+00  0.25404553900E+01  0.25404553900E+01  0.00000000000E+00 0. -1.
         21   -1    0    0  502  503 -0.00000000000E+00 -0.00000000000E+00 -0.28827426165E+03  0.28827426165E+03  0.00000000000E+00 0.  1.
          2    1    1    2  501    0  0.17300129498E+02  0.20011013804E+02 -0.11218224001E+03  0.11525879631E+03  0.00000000000E+00 0. -1.
         -2    1    1    2    0  503 -0.17300129498E+02 -0.20011013804E+02 -0.17355156626E+03  0.17555592073E+03  0.00000000000E+00 0.  1.
<mgrwt>
<rscale>  2 0.26452508E+02</rscale>
<asrwt>0</asrwt>
<pdfrwt beam="1">  1       21 0.39083969E-03 0.26452508E+02</pdfrwt>
<pdfrwt beam="2">  1       21 0.44349842E-01 0.26452508E+02</pdfrwt>
<totfact> 0.60147245E+07</totfact>
</mgrwt>
</event>
<event>
 4    1  0.2769537E+004  0.2471684E+02  0.7546771E-02  0.1665103E+00
         21   -1    0    0  501  502  0.00000000000E+00  0.00000000000E+00  0.34306630328E+01  0.34306630328E+01  0.00000000000E+00 0. -1.
         21   -1    0    0  502  503 -0.00000000000E+00 -0.00000000000E+00 -0.20129813028E+03  0.20129813028E+03  0.00000000000E+00 0.  1.
          2    1    1    2  501    0 -0.18361618288E+02 -0.16546093650E+02 -0.64166464964E+02  0.68762325929E+02  0.00000000000E+00 0. -1.
         -2    1    1    2    0  503  0.18361618288E+02  0.16546093650E+02 -0.13370100228E+03  0.13596646738E+03  0.00000000000E+00 0.  1.
<mgrwt>
<rscale>  2 0.24716841E+02</rscale>
<asrwt>0</asrwt>
<pdfrwt beam="1">  1       21 0.52779425E-03 0.24716841E+02</pdfrwt>
<pdfrwt beam="2">  1       21 0.30968947E-01 0.24716841E+02</pdfrwt>
<totfact> 0.74496362E+07</totfact>
</mgrwt>
</event>
<event>
 4    1  0.2769537E+004  0.2186839E+02  0.7546771E-02  0.1710538E+00
         21   -1    0    0  503  502  0.00000000000E+00  0.00000000000E+00  0.37237585843E+01  0.37237585843E+01  0.00000000000E+00 0.  1.
         21   -1    0    0  501  503 -0.00000000000E+00 -0.00000000000E+00 -0.15598051552E+03  0.15598051552E+03  0.00000000000E+00 0. -1.
          2    1    1    2  501    0 -0.67892823098E+01  0.20787789674E+02 -0.10969051428E+03  0.11184916395E+03  0.00000000000E+00 0. -1.
         -2    1    1    2    0  502  0.67892823098E+01 -0.20787789674E+02 -0.42566242653E+02  0.47855110150E+02  0.00000000000E+00 0.  1.
<mgrwt>
<rscale>  2 0.21868392E+02</rscale>
<asrwt>0</asrwt>
<pdfrwt beam="1">  1       21 0.57288600E-03 0.21868392E+02</pdfrwt>
<pdfrwt beam="2">  1       21 0.23997000E-01 0.21868392E+02</pdfrwt>
<totfact> 0.10113146E+08</totfact>
</mgrwt>
</event>
<event>
 4    1  0.2769537E+004  0.2077615E+02  0.7546771E-02  0.1730320E+00
         21   -1    0    0  503  502  0.00000000000E+00  0.00000000000E+00  0.27419174937E+02  0.27419174937E+02  0.00000000000E+00 0. -1.
         21   -1    0    0  501  503 -0.00000000000E+00 -0.00000000000E+00 -0.24147920288E+02  0.24147920288E+02  0.00000000000E+00 0.  1.
          2    1    1    2  501    0  0.20416827046E+02  0.38472636470E+01 -0.13576176992E+02  0.24818558498E+02  0.00000000000E+00 0.  1.
         -2    1    1    2    0  502 -0.20416827046E+02 -0.38472636470E+01  0.16847431640E+02  0.26748536728E+02  0.00000000000E+00 0. -1.
<mgrwt>
<rscale>  2 0.20776147E+02</rscale>
<asrwt>0</asrwt>
<pdfrwt beam="1">  1       21 0.42183346E-02 0.20776147E+02</pdfrwt>
<pdfrwt beam="2">  1       21 0.37150647E-02 0.20776147E+02</pdfrwt>
<totfact> 0.10426567E+08</totfact>
</mgrwt>
</event>
<event>
 4    1  0.2769537E+004  0.2069335E+02  0.7546771E-02  0.1731881E+00
         21   -1    0    0  501  502  0.00000000000E+00  0.00000000000E+00  0.10817593284E+03  0.10817593284E+03  0.00000000000E+00 0. -1.
         21   -1    0    0  502  503 -0.00000000000E+00 -0.00000000000E+00 -0.39804034913E+01  0.39804034913E+01  0.00000000000E+00 0.  1.
          2    1    1    2  501    0  0.16484129135E+02 -0.12509523560E+02  0.47938056634E+02  0.52213714356E+02  0.00000000000E+00 0.  1.
         -2    1    1    2    0  503 -0.16484129135E+02  0.12509523560E+02  0.56257472716E+02  0.59942621977E+02  0.00000000000E+00 0. -1.
<mgrwt>
<rscale>  2 0.20693349E+02</rscale>
<asrwt>0</asrwt>
<pdfrwt beam="1">  1       21 0.16642449E-01 0.20693349E+02</pdfrwt>
<pdfrwt beam="2">  1       21 0.61236985E-03 0.20693349E+02</pdfrwt>
<totfact> 0.17043916E+08</totfact>
</mgrwt>
</event>
<event>
 4    1  0.2769537E+004  0.2347652E+02  0.7546771E-02  0.1683900E+00
         21   -1    0    0  503  502  0.00000000000E+00  0.00000000000E+00  0.11514479973E+02  0.11514479973E+02  0.00000000000E+00 0.  1.
         21   -1    0    0  501  503 -0.00000000000E+00 -0.00000000000E+00 -0.47868640940E+02  0.47868640940E+02  0.00000000000E+00 0. -1.
          2    1    1    2  501    0  0.89152447793E+01 -0.21717863037E+02 -0.18414839732E+02  0.29837115925E+02  0.00000000000E+00 0. -1.
         -2    1    1    2    0  502 -0.89152447793E+01  0.21717863037E+02 -0.17939321235E+02  0.29546004988E+02  0.00000000000E+00 0.  1.
<mgrwt>
<rscale>  2 0.23476524E+02</rscale>
<asrwt>0</asrwt>
<pdfrwt beam="1">  1       21 0.17714585E-02 0.23476524E+02</pdfrwt>
<pdfrwt beam="2">  1       21 0.73644063E-02 0.23476524E+02</pdfrwt>
<totfact> 0.13945356E+08</totfact>
</mgrwt>
</event>
<event>
 4    1  0.2769537E+004  0.2004723E+02  0.7546771E-02  0.1744390E+00
         21   -1    0    0  501  502  0.00000000000E+00  0.00000000000E+00  0.93288872318E+01  0.93288872318E+01  0.00000000000E+00 0. -1.
         21   -1    0    0  502  503 -0.00000000000E+00 -0.00000000000E+00 -0.13134224206E+03  0.13134224206E+03  0.00000000000E+00 0.  1.
          2    1    1    2  501    0  0.18887169745E+02 -0.67205811939E+01 -0.33486911616E+01  0.20324987701E+02  0.00000000000E+00 0. -1.
         -2    1    1    2    0  503 -0.18887169745E+02  0.67205811939E+01 -0.11866466367E+03  0.12034614159E+03  0.00000000000E+00 0.  1.
<mgrwt>
<rscale>  2 0.20047229E+02</rscale>
<asrwt>0</asrwt>
<pdfrwt beam="1">  1       21 0.14352135E-02 0.20047229E+02</pdfrwt>
<pdfrwt beam="2">  1       21 0.20206498E-01 0.20047229E+02</pdfrwt>
<totfact> 0.33909501E+07</totfact>
</mgrwt>
</event>
<event>
 4    1  0.2769537E+004  0.2782392E+02  0.7546771E-02  0.1623468E+00
         21   -1    0    0  501  502  0.00000000000E+00  0.00000000000E+00  0.11155214876E+03  0.11155214876E+03  0.00000000000E+00 0. -1.
         21   -1    0    0  502  503 -0.00000000000E+00 -0.00000000000E+00 -0.98517352162E+01  0.98517352162E+01  0.00000000000E+00 0.  1.
          2    1    1    2  501    0  0.18396363031E+02 -0.20874484554E+02  0.83850914358E+02  0.88346738009E+02  0.00000000000E+00 0. -1.
         -2    1    1    2    0  503 -0.18396363031E+02  0.20874484554E+02  0.17849499182E+02  0.33057145963E+02  0.00000000000E+00 0.  1.
<mgrwt>
<rscale>  2 0.27823916E+02</rscale>
<asrwt>0</asrwt>
<pdfrwt beam="1">  1       21 0.17161868E-01 0.27823916E+02</pdfrwt>
<pdfrwt beam="2">  1       21 0.15156517E-02 0.27823916E+02</pdfrwt>
<totfact> 0.44787133E+07</totfact>
</mgrwt>
</event>
<event>
 4    1  0.2769537E+004  0.2606735E+02  0.7546771E-02  0.1646128E+00
         21   -1    0    0  501  502  0.00000000000E+00  0.00000000000E+00  0.10964386616E+02  0.10964386616E+02  0.00000000000E+00 0.  1.
         21   -1    0    0  502  503 -0.00000000000E+00 -0.00000000000E+00 -0.67763480448E+02  0.67763480448E+02  0.00000000000E+00 0. -1.
          2    1    1    2  501    0 -0.25433374754E+02  0.57140301357E+01 -0.16893632676E+02  0.31062863950E+02  0.00000000000E+00 0.  1.
         -2    1    1    2    0  503  0.25433374754E+02 -0.57140301357E+01 -0.39905461156E+02  0.47665003114E+02  0.00000000000E+00 0. -1.
<mgrwt>
<rscale>  2 0.26067349E+02</rscale>
<asrwt>0</asrwt>
<pdfrwt beam="1">  1       21 0.16868287E-02 0.26067349E+02</pdfrwt>
<pdfrwt beam="2">  1       21 0.10425151E-01 0.26067349E+02</pdfrwt>
<totfact> 0.87309387E+07</totfact>
</mgrwt>
</event>
<event>
 4    1  0.2769537E+004  0.4533391E+02  0.7546771E-02  0.1472268E+00
         21   -1    0    0  503  502  0.00000000000E+00  0.00000000000E+00  0.29105564724E+03  0.29105564724E+03  0.00000000000E+00 0. -1.
         21   -1    0    0  501  503 -0.00000000000E+00 -0.00000000000E+00 -0.25390846142E+02  0.25390846142E+02  0.00000000000E+00 0.  1.
          2    1    1    2  501    0 -0.27351418999E+02 -0.36153328781E+02 -0.16019724549E+01  0.45362204741E+02  0.00000000000E+00 0.  1.
         -2    1    1    2    0  502  0.27351418999E+02  0.36153328781E+02  0.26726677356E+03  0.27108428864E+03  0.00000000000E+00 0. -1.
<mgrwt>
<rscale>  2 0.45333909E+02</rscale>
<asrwt>0</asrwt>
<pdfrwt beam="1">  1       21 0.44777790E-01 0.45333909E+02</pdfrwt>
<pdfrwt beam="2">  1       21 0.39062842E-02 0.45333909E+02</pdfrwt>
<totfact> 0.18598821E+06</totfact>
</mgrwt>
</event>
<event>
 4    1  0.2769537E+004  0.2145038E+02  0.7546771E-02  0.1717934E+00
         21   -1    0    0  503  502  0.00000000000E+00  0.00000000000E+00  0.70710710588E+02  0.70710710588E+02  0.00000000000E+00 0.  1.
         21   -1    0    0  501  503 -0.00000000000E+00 -0.00000000000E+00 -0.14801295857E+02  0.14801295857E+02  0.00000000000E+00 0. -1.
          2    1    1    2  501    0  0.87887026612E+01  0.19567260747E+02 -0.40515848343E+01  0.21829666220E+02  0.00000000000E+00 0. -1.
         -2    1    1    2    0  502 -0.87887026612E+01 -0.19567260747E+02  0.59960999566E+02  0.63682340225E+02  0.00000000000E+00 0.  1.
<mgrwt>
<rscale>  2 0.21450384E+02</rscale>
<asrwt>0</asrwt>
<pdfrwt beam="1">  1       21 0.10878571E-01 0.21450384E+02</pdfrwt>
<pdfrwt beam="2">  1       21 0.22771225E-02 0.21450384E+02</pdfrwt>
<totfact> 0.48771217E+07</totfact>
</mgrwt>
</event>
<event>
 4    1  0.2769537E+004  0.2257427E+02  0.7546771E-02  0.1698505E+00
         21   -1    0    0  501  502  0.00000000000E+00  0.00000000000E+00  0.35721919278E+01  0.35721919278E+01  0.00000000000E+00 0.  1.
         21   -1    0    0  502  503 -0.00000000000E+00 -0.00000000000E+00 -0.14266321603E+03  0.14266321603E+03  0.00000000000E+00 0. -1.
          2    1    1    2  501    0  0.22347704174E+02 -0.31902825071E+01 -0.69058549338E+02  0.72654532006E+02  0.00000000000E+00 0. -1.
         -2    1    1    2    0  503 -0.22347704174E+02  0.31902825071E+01 -0.70032474769E+02  0.73580875957E+02  0.00000000000E+00 0.  1.
<mgrwt>
<rscale>  2 0.22574273E+02</rscale>
<asrwt>0</asrwt>
<pdfrwt beam="1">  1       21 0.54956800E-03 0.22574273E+02</pdfrwt>
<pdfrwt beam="2">  1       21 0.21948187E-01 0.22574273E+02</pdfrwt>
<totfact> 0.12700938E+08</totfact>
</mgrwt>
</event>
<event>
 4    1  0.2769537E+004  0.2034708E+02  0.7546771E-02  0.1738513E+00
         21   -1    0    0  503  502  0.00000000000E+00  0.00000000000E+00  0.63697944711E+01  0.63697944711E+01  0.00000000000E+00 0.  1.
         21   -1    0    0  501  503 -0.00000000000E+00 -0.00000000000E+00 -0.50810526324E+03  0.50810526324E+03  0.00000000000E+00 0. -1.
          2    1    1    2  501    0 -0.64408610782E+01 -0.19300752168E+02 -0.49109011620E+03  0.49151145048E+03  0.00000000000E+00 0. -1.
         -2    1    1    2    0  502  0.64408610782E+01  0.19300752168E+02 -0.10645352569E+02  0.22963607229E+02  0.00000000000E+00 0.  1.
<mgrwt>
<rscale>  2 0.20347082E+02</rscale>
<asrwt>0</asrwt>
<pdfrwt beam="1">  1       21 0.97996854E-03 0.20347082E+02</pdfrwt>
<pdfrwt beam="2">  1       21 0.78170028E-01 0.20347082E+02</pdfrwt>
<totfact> 0.47193048E+06</totfact>
</mgrwt>
</event>
<event>
 4    1  0.2769537E+004  0.2219990E+02  0.7546771E-02  0.1704818E+00
         21   -1    0    0  503  502  0.00000000000E+00  0.00000000000E+00  0.30793176669E+01  0.30793176669E+01  0.00000000000E+00 0.  1.
         21   -1    0    0  501  503 -0.00000000000E+00 -0.00000000000E+00 -0.49339158671E+03  0.49339158671E+03  0.00000000000E+00 0. -1.
          2    1    1    2  501    0  0.20146628409E+02  0.93246359897E+01 -0.44919582549E+03  0.44974406623E+03  0.00000000000E+00 0. -1.
         -2    1    1    2    0  502 -0.20146628409E+02 -0.93246359897E+01 -0.41116443551E+02  0.46726838143E+02  0.00000000000E+00 0.  1.
<mgrwt>
<rscale>  2 0.22199898E+02</rscale>
<asrwt>0</asrwt>
<pdfrwt beam="1">  1       21 0.47374151E-03 0.22199898E+02</pdfrwt>
<pdfrwt beam="2">  1       21 0.75906345E-01 0.22199898E+02</pdfrwt>
<totfact> 0.14957769E+07</totfact>
</mgrwt>
</event>
<event>
 4    1  0.2769537E+004  0.2007732E+02  0.7546771E-02  0.1743795E+00
         21   -1    0    0  503  502  0.00000000000E+00  0.00000000000E+00  0.36194261938E+02  0.36194261938E+02  0.00000000000E+00 0.  1.
         21   -1    0    0  501  503 -0.00000000000E+00 -0.00000000000E+00 -0.11565173960E+02  0.11565173960E+02  0.00000000000E+00 0. -1.
          2    1    1    2  501    0 -0.13335201996E+02  0.15009038097E+02  0.77202751374E+01  0.21510497090E+02  0.00000000000E+00 0. -1.
         -2    1    1    2    0  502  0.13335201996E+02 -0.15009038097E+02  0.16908812841E+02  0.26248938808E+02  0.00000000000E+00 0.  1.
<mgrwt>
<rscale>  2 0.20077321E+02</rscale>
<asrwt>0</asrwt>
<pdfrwt beam="1">  1       21 0.55683479E-02 0.20077321E+02</pdfrwt>
<pdfrwt beam="2">  1       21 0.17792575E-02 0.20077321E+02</pdfrwt>
<totfact> 0.20679405E+08</totfact>
</mgrwt>
</event>
<event>
 4    1  0.2769537E+004  0.2496621E+02  0.7546771E-02  0.1661488E+00
         21   -1    0    0  501  502  0.00000000000E+00  0.00000000000E+00  0.20068914268E+03  0.20068914268E+03  0.00000000000E+00 0. -1.
         21   -1    0    0  502  503 -0.00000000000E+00 -0.00000000000E+00 -0.45411613371E+01  0.45411613371E+01  0.00000000000E+00 0.  1.
          2    1    1    2  501    0  0.36160660002E+01  0.24702953998E+02  0.15576391337E+03  0.15775204778E+03  0.00000000000E+00 0. -1.
         -2    1    1    2    0  503 -0.36160660002E+01 -0.24702953998E+02  0.40384067970E+02  0.47478256238E+02  0.00000000000E+00 0.  1.
<mgrwt>
<rscale>  2 0.24966215E+02</rscale>
<asrwt>0</asrwt>
<pdfrwt beam="1">  1       21 0.30875246E-01 0.24966215E+02</pdfrwt>
<pdfrwt beam="2">  1       21 0.69864036E-03 0.24966215E+02</pdfrwt>
<totfact> 0.49498810E+07</totfact>
</mgrwt>
</event>
<event>
 4    1  0.2769537E+004  0.2264633E+02  0.7546771E-02  0.1697308E+00
         21   -1    0    0  503  502  0.00000000000E+00  0.00000000000E+00  0.11612178398E+03  0.11612178398E+03  0.00000000000E+00 0.  1.
         21   -1    0    0  501  503 -0.00000000000E+00 -0.00000000000E+00 -0.51181711202E+01  0.51181711202E+01  0.00000000000E+00 0. -1.
          2    1    1    2  501    0  0.97619042596E+01  0.20434324786E+02  0.33057145062E+02  0.40070328722E+02  0.00000000000E+00 0. -1.
         -2    1    1    2    0  502 -0.97619042596E+01 -0.20434324786E+02  0.77946467794E+02  0.81169626375E+02  0.00000000000E+00 0.  1.
<mgrwt>
<rscale>  2 0.22646333E+02</rscale>
<asrwt>0</asrwt>
<pdfrwt beam="1">  1       21 0.17864888E-01 0.22646333E+02</pdfrwt>
<pdfrwt beam="2">  1       21 0.78741103E-03 0.22646333E+02</pdfrwt>
<totfact> 0.10669728E+08</totfact>
</mgrwt>
</event>
<event>
 4    1  0.2769537E+004  0.2997458E+02  0.7546771E-02  0.1598370E+00
         21   -1    0    0  503  502  0.00000000000E+00  0.00000000000E+00  0.59482678614E+01  0.59482678614E+01  0.00000000000E+00 0.  1.
         21   -1    0    0  501  503 -0.00000000000E+00 -0.00000000000E+00 -0.30678185866E+03  0.30678185866E+03  0.00000000000E+00 0. -1.
          2    1    1    2  501    0  0.26849724152E+02 -0.13325454218E+02 -0.26182471624E+03  0.26353492644E+03  0.00000000000E+00 0. -1.
         -2    1    1    2    0  502 -0.26849724152E+02  0.13325454218E+02 -0.39008874559E+02  0.49195200087E+02  0.00000000000E+00 0.  1.
<mgrwt>
<rscale>  2 0.29974580E+02</rscale>
<asrwt>0</asrwt>
<pdfrwt beam="1">  1       21 0.91511797E-03 0.29974580E+02</pdfrwt>
<pdfrwt beam="2">  1       21 0.47197217E-01 0.29974580E+02</pdfrwt>
<totfact> 0.15359737E+07</totfact>
</mgrwt>
</event>
<event>
 4    1  0.2769537E+004  0.2054567E+02  0.7546771E-02  0.1734690E+00
         21   -1    0    0  503  502  0.00000000000E+00  0.00000000000E+00  0.17907885915E+01  0.17907885915E+01  0.00000000000E+00 0. -1.
         21   -1    0    0  501  503 -0.00000000000E+00 -0.00000000000E+00 -0.41662889062E+03  0.41662889062E+03  0.00000000000E+00 0.  1.
          2    1    1    2  501    0 -0.11315855555E+02  0.17148638220E+02 -0.34527882952E+03  0.34588956980E+03  0.00000000000E+00 0.  1.
         -2    1    1    2    0  502  0.11315855555E+02 -0.17148638220E+02 -0.69559272509E+02  0.72530109414E+02  0.00000000000E+00 0. -1.
<mgrwt>
<rscale>  2 0.20545666E+02</rscale>
<asrwt>0</asrwt>
<pdfrwt beam="1">  1       21 0.27550593E-03 0.20545666E+02</pdfrwt>
<pdfrwt beam="2">  1       21 0.64096754E-01 0.20545666E+02</pdfrwt>
<totfact> 0.45847845E+07</totfact>
</mgrwt>
</event>
<event>
 4    1  0.2769537E+004  0.2119827E+02  0.7546771E-02  0.1722498E+00
         21   -1    0    0  501  502  0.00000000000E+00  0.00000000000E+00  0.11747676582E+03  0.11747676582E+03  0.00000000000E+00 0. -1.
         21   -1    0    0  502  503 -0.00000000000E+00 -0.00000000000E+00 -0.43786398711E+01  0.43786398711E+01  0.00000000000E+00 0.  1.
          2    1    1    2  501    0 -0.18934857432E+01  0.21113533075E+02  0.78211083988E+02  0.81032957651E+02  0.00000000000E+00 0.  1.
         -2    1    1    2    0  503  0.18934857432E+01 -0.21113533075E+02  0.34887041961E+02  0.40822448039E+02  0.00000000000E+00 0. -1.
<mgrwt>
<rscale>  2 0.21198268E+02</rscale>
<asrwt>0</asrwt>
<pdfrwt beam="1">  1       21 0.18073346E-01 0.21198268E+02</pdfrwt>
<pdfrwt beam="2">  1       21 0.67363699E-03 0.21198268E+02</pdfrwt>
<totfact> 0.12941400E+08</totfact>
</mgrwt>
</event>
<event>
 4    1  0.2769537E+004  0.2867789E+02  0.7546771E-02  0.1613180E+00
         21   -1    0    0  501  502  0.00000000000E+00  0.00000000000E+00  0.95981660206E+02  0.95981660206E+02  0.00000000000E+00 0.  1.
         21   -1    0    0  502  503 -0.00000000000E+00 -0.00000000000E+00 -0.27375207074E+02  0.27375207074E+02  0.00000000000E+00 0. -1.
          2    1    1    2  501    0 -0.19666457993E+02  0.20872272203E+02  0.85425565289E+02  0.90110756971E+02  0.00000000000E+00 0.  1.
         -2    1    1    2    0  503  0.19666457993E+02 -0.20872272203E+02 -0.16819112157E+02  0.33246110309E+02  0.00000000000E+00 0. -1.
<mgrwt>
<rscale>  2 0.28677889E+02</rscale>
<asrwt>0</asrwt>
<pdfrwt beam="1">  1       21 0.14766409E-01 0.28677889E+02</pdfrwt>
<pdfrwt beam="2">  1       21 0.42115704E-02 0.28677889E+02</pdfrwt>
<totfact> 0.11861720E+07</totfact>
</mgrwt>
</event>
<event>
 4    1  0.2769537E+004  0.3779418E+02  0.7546771E-02  0.1525101E+00
         21   -1    0    0  501  502  0.00000000000E+00  0.00000000000E+00  0.38732899938E+02  0.38732899938E+02  0.00000000000E+00 0.  1.
         21   -1    0    0  502  503 -0.00000000000E+00 -0.00000000000E+00 -0.37458793558E+02  0.37458793558E+02  0.00000000000E+00 0. -1.
          2    1    1    2  501    0  0.32373390081E+01 -0.37655271938E+02  0.53798502909E+01  0.38175157599E+02  0.00000000000E+00 0. -1.
         -2    1    1    2    0  503 -0.32373390081E+01  0.37655271938E+02 -0.41057439111E+01  0.38016535897E+02  0.00000000000E+00 0.  1.
<mgrwt>
<rscale>  2 0.37794178E+02</rscale>
<asrwt>0</asrwt>
<pdfrwt beam="1">  1       21 0.59589076E-02 0.37794178E+02</pdfrwt>
<pdfrwt beam="2">  1       21 0.57628914E-02 0.37794178E+02</pdfrwt>
<totfact> 0.34282770E+07</totfact>
</mgrwt>
</event>
<event>
 4    1  0.2769537E+004  0.2085210E+02  0.7546771E-02  0.1728895E+00
         21   -1    0    0  501  502  0.00000000000E+00  0.00000000000E+00  0.21969159838E+03  0.21969159838E+03  0.00000000000E+00 0. -1.
         21   -1    0    0  502  503 -0.00000000000E+00 -0.00000000000E+00 -0.83752302362E+01  0.83752302362E+01  0.00000000000E+00 0.  1.
          2    1    1    2  501    0 -0.19946055333E+02 -0.60798720542E+01  0.20531099827E+03  0.20636718727E+03  0.00000000000E+00 0. -1.
         -2    1    1    2    0  503  0.19946055333E+02  0.60798720542E+01  0.60053698713E+01  0.21699641352E+02  0.00000000000E+00 0.  1.
<mgrwt>
<rscale>  2 0.20852097E+02</rscale>
<asrwt>0</asrwt>
<pdfrwt beam="1">  1       21 0.33798703E-01 0.20852097E+02</pdfrwt>
<pdfrwt beam="2">  1       21 0.12884971E-02 0.20852097E+02</pdfrwt>
<totfact> 0.16087586E+07</totfact>
</mgrwt>
</event>
<event>
 4    1  0.2769537E+004  0.2751801E+02  0.7546771E-02  0.1627264E+00
         21   -1    0    0  501  502  0.00000000000E+00  0.00000000000E+00  0.60768776823E+01  0.60768776823E+01  0.00000000000E+00 0.  1.
         21   -1    0    0  502  503 -0.00000000000E+00 -0.00000000000E+00 -0.12461197918E+03  0.12461197918E+03  0.00000000000E+00 0. -1.
          2    1    1    2  501    0 -0.87375120767E+01  0.26093993586E+02 -0.59518141740E+02  0.65571715051E+02  0.00000000000E+00 0. -1.
         -2    1    1    2    0  503  0.87375120767E+01 -0.26093993586E+02 -0.59016959755E+02  0.65117141808E+02  0.00000000000E+00 0.  1.
<mgrwt>
<rscale>  2 0.27518005E+02</rscale>
<asrwt>0</asrwt>
<pdfrwt beam="1">  1       21 0.93490433E-03 0.27518005E+02</pdfrwt>
<pdfrwt beam="2">  1       21 0.19171072E-01 0.27518005E+02</pdfrwt>
<totfact> 0.76743013E+07</totfact>
</mgrwt>
</event>
<event>
 4    1  0.2769537E+004  0.2042759E+02  0.7546771E-02  0.1736956E+00
         21   -1    0    0  503  502  0.00000000000E+00  0.00000000000E+00  0.38714141285E+03  0.38714141285E+03  0.00000000000E+00 0. -1.
         21   -1    0    0  501  503 -0.00000000000E+00 -0.00000000000E+00 -0.12074144040E+01  0.12074144040E+01  0.00000000000E+00 0.  1.
          2    1    1    2  501    0  0.19014242378E+02 -0.74662626666E+01  0.12936362107E+03  0.13096653369E+03  0.00000000000E+00 0.  1.
         -2    1    1    2    0  502 -0.19014242378E+02  0.74662626666E+01  0.25657037738E+03  0.25738229356E+03  0.00000000000E+00 0. -1.
<mgrwt>
<rscale>  2 0.20427591E+02</rscale>
<asrwt>0</asrwt>
<pdfrwt beam="1">  1       21 0.59560119E-01 0.20427591E+02</pdfrwt>
<pdfrwt beam="2">  1       21 0.18575637E-03 0.20427591E+02</pdfrwt>
<totfact> 0.93599154E+07</totfact>
</mgrwt>
</event>
<event>
 4    1  0.2769537E+004  0.2247143E+02  0.7546771E-02  0.1700224E+00
         21   -1    0    0  503  502  0.00000000000E+00  0.00000000000E+00  0.82034970247E+01  0.82034970247E+01  0.00000000000E+00 0.  1.
         21   -1    0    0  501  503 -0.00000000000E+00 -0.00000000000E+00 -0.11341602691E+03  0.11341602691E+03  0.00000000000E+00 0. -1.
          2    1    1    2  501    0 -0.62095115806E+01  0.21596455965E+02 -0.93726663551E+02  0.96382842896E+02  0.00000000000E+00 0. -1.
         -2    1    1    2    0  502  0.62095115806E+01 -0.21596455965E+02 -0.11485866331E+02  0.25236681035E+02  0.00000000000E+00 0.  1.
<mgrwt>
<rscale>  2 0.22471425E+02</rscale>
<asrwt>0</asrwt>
<pdfrwt beam="1">  1       21 0.12620766E-02 0.22471425E+02</pdfrwt>
<pdfrwt beam="2">  1       21 0.17448618E-01 0.22471425E+02</pdfrwt>
<totfact> 0.54625120E+07</totfact>
</mgrwt>
</event>
<event>
 4    1  0.2769537E+004  0.3200714E+02  0.7546771E-02  0.1576906E+00
         21   -1    0    0  501  502  0.00000000000E+00  0.00000000000E+00  0.41804764429E+02  0.41804764429E+02  0.00000000000E+00 0.  1.
         21   -1    0    0  502  503 -0.00000000000E+00 -0.00000000000E+00 -0.26371271446E+02  0.26371271446E+02  0.00000000000E+00 0. -1.
          2    1    1    2  501    0 -0.31908581029E+02 -0.25098397534E+01  0.16783192544E+02  0.36140453661E+02  0.00000000000E+00 0.  1.
         -2    1    1    2    0  503  0.31908581029E+02  0.25098397534E+01 -0.13496995608E+01  0.32035582213E+02  0.00000000000E+00 0. -1.
<mgrwt>
<rscale>  2 0.32007137E+02</rscale>
<asrwt>0</asrwt>
<pdfrwt beam="1">  1       21 0.64315022E-02 0.32007137E+02</pdfrwt>
<pdfrwt beam="2">  1       21 0.40571187E-02 0.32007137E+02</pdfrwt>
<totfact> 0.51579911E+07</totfact>
</mgrwt>
</event>
<event>
 4    1  0.2769537E+004  0.2316123E+02  0.7546771E-02  0.1688910E+00
         21   -1    0    0  503  502  0.00000000000E+00  0.00000000000E+00  0.34304339602E+01  0.34304339602E+01  0.00000000000E+00 0. -1.
         21   -1    0    0  501  503 -0.00000000000E+00 -0.00000000000E+00 -0.18523462556E+03  0.18523462556E+03  0.00000000000E+00 0.  1.
          2    1    1    2  501    0  0.19963450121E+02 -0.11743218928E+02 -0.12813503063E+03  0.13021147647E+03  0.00000000000E+00 0.  1.
         -2    1    1    2    0  502 -0.19963450121E+02  0.11743218928E+02 -0.53669160974E+02  0.58453583048E+02  0.00000000000E+00 0. -1.
<mgrwt>
<rscale>  2 0.23161229E+02</rscale>
<asrwt>0</asrwt>
<pdfrwt beam="1">  1       21 0.52775927E-03 0.23161229E+02</pdfrwt>
<pdfrwt beam="2">  1       21 0.28497624E-01 0.23161229E+02</pdfrwt>
<totfact> 0.85245385E+07</totfact>
</mgrwt>
</event>
<event>
 4    1  0.2769537E+004  0.2163272E+02  0.7546771E-02  0.1714682E+00
         21   -1    0    0  501  502  0.00000000000E+00  0.00000000000E+00  0.17618409137E+02  0.17618409137E+02  0.00000000000E+00 0. -1.
         21   -1    0    0  502  503 -0.00000000000E+00 -0.00000000000E+00 -0.27321490437E+02  0.27321490437E+02  0.00000000000E+00 0.  1.
          2    1    1    2  501    0  0.11603052796E+02 -0.18257708789E+02 -0.11044086993E+01  0.21660897557E+02  0.00000000000E+00 0. -1.
         -2    1    1    2    0  503 -0.11603052796E+02  0.18257708789E+02 -0.85986726001E+01  0.23279002017E+02  0.00000000000E+00 0.  1.
<mgrwt>
<rscale>  2 0.21632724E+02</rscale>
<asrwt>0</asrwt>
<pdfrwt beam="1">  1       21 0.27105245E-02 0.21632724E+02</pdfrwt>
<pdfrwt beam="2">  1       21 0.42033062E-02 0.21632724E+02</pdfrwt>
<totfact> 0.17335984E+08</totfact>
</mgrwt>
</event>
<event>
 4    1  0.2769537E+004  0.4350492E+02  0.7546771E-02  0.1483897E+00
         21   -1    0    0  503  502  0.00000000000E+00  0.00000000000E+00  0.88130750128E+02  0.88130750128E+02  0.00000000000E+00 0. -1.
         21   -1    0    0  501  503 -0.00000000000E+00 -0.00000000000E+00 -0.10178247603E+03  0.10178247603E+03  0.00000000000E+00 0.  1.
          2    1    1    2  501    0  0.42059381090E+02 -0.11121428038E+02 -0.91171875379E+02  0.10101974341E+03  0.00000000000E+00 0.  1.
         -2    1    1    2    0  502 -0.42059381090E+02  0.11121428038E+02  0.77520149477E+02  0.88893482743E+02  0.00000000000E+00 0. -1.
<mgrwt>
<rscale>  2 0.43504916E+02</rscale>
<asrwt>0</asrwt>
<pdfrwt beam="1">  1       21 0.13558577E-01 0.43504916E+02</pdfrwt>
<pdfrwt beam="2">  1       21 0.15658842E-01 0.43504916E+02</pdfrwt>
<totfact> 0.16241316E+06</totfact>
</mgrwt>
</event>
<event>
 4    1  0.2769537E+004  0.2434463E+02  0.7546771E-02  0.1670598E+00
         21   -1    0    0  503  502  0.00000000000E+00  0.00000000000E+00  0.16045766490E+02  0.16045766490E+02  0.00000000000E+00 0. -1.
         21   -1    0    0  501  503 -0.00000000000E+00 -0.00000000000E+00 -0.72644454702E+02  0.72644454702E+02  0.00000000000E+00 0.  1.
          2    1    1    2  501    0 -0.58505665001E+01 -0.23631161318E+02 -0.59390160602E+02  0.64186073957E+02  0.00000000000E+00 0.  1.
         -2    1    1    2    0  502  0.58505665001E+01  0.23631161318E+02  0.27914723910E+01  0.24504147235E+02  0.00000000000E+00 0. -1.
<mgrwt>
<rscale>  2 0.24344628E+02</rscale>
<asrwt>0</asrwt>
<pdfrwt beam="1">  1       21 0.24685795E-02 0.24344628E+02</pdfrwt>
<pdfrwt beam="2">  1       21 0.11176070E-01 0.24344628E+02</pdfrwt>
<totfact> 0.42519820E+07</totfact>
</mgrwt>
</event>
<event>
 4    1  0.2769537E+004  0.2953155E+02  0.7546771E-02  0.1603325E+00
         21   -1    0    0  501  502  0.00000000000E+00  0.00000000000E+00  0.62218062284E+01  0.62218062284E+01  0.00000000000E+00 0. -1.
         21   -1    0    0  502  503 -0.00000000000E+00 -0.00000000000E+00 -0.11971506338E+04  0.11971506338E+04  0.00000000000E+00 0.  1.
          2    1    1    2  501    0 -0.23041870679E+02 -0.18471191475E+02 -0.30099165610E+02  0.42167196840E+02  0.00000000000E+00 0. -1.
         -2    1    1    2    0  503  0.23041870679E+02  0.18471191475E+02 -0.11608296619E+04  0.11612052431E+04  0.00000000000E+00 0.  1.
<mgrwt>
<rscale>  2 0.29531555E+02</rscale>
<asrwt>0</asrwt>
<pdfrwt beam="1">  1       21 0.95720104E-03 0.29531555E+02</pdfrwt>
<pdfrwt beam="2">  1       21 0.18417700E+00 0.29531555E+02</pdfrwt>
<totfact> 0.71463076E+05</totfact>
</mgrwt>
</event>
<event>
 4    1  0.2769537E+004  0.3324478E+02  0.7546771E-02  0.1564764E+00
         21   -1    0    0  503  502  0.00000000000E+00  0.00000000000E+00  0.96467551799E+02  0.96467551799E+02  0.00000000000E+00 0.  1.
         21   -1    0    0  501  503 -0.00000000000E+00 -0.00000000000E+00 -0.19599841213E+02  0.19599841213E+02  0.00000000000E+00 0. -1.
          2    1    1    2  501    0  0.33239959499E+02  0.56600268617E+00  0.10274766583E+01  0.33260652050E+02  0.00000000000E+00 0. -1.
         -2    1    1    2    0  502 -0.33239959499E+02 -0.56600268617E+00  0.75840233927E+02  0.82806740962E+02  0.00000000000E+00 0.  1.
<mgrwt>
<rscale>  2 0.33244778E+02</rscale>
<asrwt>0</asrwt>
<pdfrwt beam="1">  1       21 0.14841162E-01 0.33244778E+02</pdfrwt>
<pdfrwt beam="2">  1       21 0.30153602E-02 0.33244778E+02</pdfrwt>
<totfact> 0.20492030E+07</totfact>
</mgrwt>
</event>
<event>
 4    1  0.2769537E+004  0.2391662E+02  0.7546771E-02  0.1677069E+00
         21   -1    0    0  503  502  0.00000000000E+00  0.00000000000E+00  0.21810349008E+02  0.21810349008E+02  0.00000000000E+00 0. -1.
         21   -1    0    0  501  503 -0.00000000000E+00 -0.00000000000E+00 -0.48118440563E+02  0.48118440563E+02  0.00000000000E+00 0.  1.
          2    1    1    2  501    0 -0.12675674410E+02  0.20281317548E+02 -0.36737881710E+02  0.43836930957E+02  0.00000000000E+00 0.  1.
         -2    1    1    2    0  502  0.12675674410E+02 -0.20281317548E+02  0.10429790155E+02  0.26091858614E+02  0.00000000000E+00 0. -1.
<mgrwt>
<rscale>  2 0.23916617E+02</rscale>
<asrwt>0</asrwt>
<pdfrwt beam="1">  1       21 0.33554383E-02 0.23916617E+02</pdfrwt>
<pdfrwt beam="2">  1       21 0.74028370E-02 0.23916617E+02</pdfrwt>
<totfact> 0.51735266E+07</totfact>
</mgrwt>
</event>
<event>
 4    1  0.2769537E+004  0.2017406E+02  0.7546771E-02  0.1741889E+00
         21   -1    0    0  501  502  0.00000000000E+00  0.00000000000E+00  0.23298209346E+02  0.23298209346E+02  0.00000000000E+00 0.  1.
         21   -1    0    0  502  503 -0.00000000000E+00 -0.00000000000E+00 -0.27730211381E+02  0.27730211381E+02  0.00000000000E+00 0. -1.
          2    1    1    2  501    0  0.90925752652E+01  0.18008820584E+02  0.13304594429E+02  0.24166190778E+02  0.00000000000E+00 0.  1.
         -2    1    1    2    0  503 -0.90925752652E+01 -0.18008820584E+02 -0.17736596464E+02  0.26862229950E+02  0.00000000000E+00 0. -1.
<mgrwt>
<rscale>  2 0.20174056E+02</rscale>
<asrwt>0</asrwt>
<pdfrwt beam="1">  1       21 0.35843399E-02 0.20174056E+02</pdfrwt>
<pdfrwt beam="2">  1       21 0.42661863E-02 0.20174056E+02</pdfrwt>
<totfact> 0.10737817E+08</totfact>
</mgrwt>
</event>
<event>
 4    1  0.2769537E+004  0.3609055E+02  0.7546771E-02  0.1539124E+00
         21   -1    0    0  501  502  0.00000000000E+00  0.00000000000E+00  0.36838874194E+03  0.36838874194E+03  0.00000000000E+00 0. -1.
         21   -1    0    0  502  503 -0.00000000000E+00 -0.00000000000E+00 -0.64502231986E+01  0.64502231986E+01  0.00000000000E+00 0.  1.
          2    1    1    2  501    0 -0.24730766802E+02 -0.26285299285E+02  0.30695109849E+03  0.30906553455E+03  0.00000000000E+00 0. -1.
         -2    1    1    2    0  503  0.24730766802E+02  0.26285299285E+02  0.54987420259E+02  0.65773430592E+02  0.00000000000E+00 0.  1.
<mgrwt>
<rscale>  2 0.36090550E+02</rscale>
<asrwt>0</asrwt>
<pdfrwt beam="1">  1       21 0.56675174E-01 0.36090550E+02</pdfrwt>
<pdfrwt beam="2">  1       21 0.99234232E-03 0.36090550E+02</pdfrwt>
<totfact> 0.97126390E+06</totfact>
</mgrwt>
</event>
<event>
 4    1  0.2769537E+004  0.3584809E+02  0.7546771E-02  0.1541196E+00
         21   -1    0    0  501  502  0.00000000000E+00  0.00000000000E+00  0.12989995717E+01  0.12989995717E+01  0.00000000000E+00 0. -1.
         21   -1    0    0  502  503 -0.00000000000E+00 -0.00000000000E+00 -0.19276640401E+04  0.19276640401E+04  0.00000000000E+00 0.  1.
          2    1    1    2  501    0  0.28744490552E+02 -0.21420542336E+02 -0.29025766273E+03  0.29246298252E+03  0.00000000000E+00 0. -1.
         -2    1    1    2    0  503 -0.28744490552E+02  0.21420542336E+02 -0.16361073778E+04  0.16365000571E+04  0.00000000000E+00 0.  1.
<mgrwt>
<rscale>  2 0.35848087E+02</rscale>
<asrwt>0</asrwt>
<pdfrwt beam="1">  1       21 0.19984724E-03 0.35848087E+02</pdfrwt>
<pdfrwt beam="2">  1       21 0.29656198E+00 0.35848087E+02</pdfrwt>
<totfact> 0.18436466E+06</totfact>
</mgrwt>
</event>
<event>
 4    1  0.2769537E+004  0.3345011E+02  0.7546771E-02  0.1562811E+00
         21   -1    0    0  503  502  0.00000000000E+00  0.00000000000E+00  0.20289160715E+03  0.20289160715E+03  0.00000000000E+00 0. -1.
         21   -1    0    0  501  503 -0.00000000000E+00 -0.00000000000E+00 -0.70213531273E+01  0.70213531273E+01  0.00000000000E+00 0.  1.
          2    1    1    2  501    0  0.17658152624E+02  0.28409499846E+02  0.49318070674E+02  0.59591795833E+02  0.00000000000E+00 0.  1.
         -2    1    1    2    0  502 -0.17658152624E+02 -0.28409499846E+02  0.14655218334E+03  0.15032116444E+03  0.00000000000E+00 0. -1.
<mgrwt>
<rscale>  2 0.33450113E+02</rscale>
<asrwt>0</asrwt>
<pdfrwt beam="1">  1       21 0.31214089E-01 0.33450113E+02</pdfrwt>
<pdfrwt beam="2">  1       21 0.10802083E-02 0.33450113E+02</pdfrwt>
<totfact> 0.26691127E+07</totfact>
</mgrwt>
</event>
<event>
 4    1  0.2769537E+004  0.2002765E+02  0.7546771E-02  0.1744779E+00
         21   -1    0    0  501  502  0.00000000000E+00  0.00000000000E+00  0.10772779854E+01  0.10772779854E+01  0.00000000000E+00 0. -1.
         21   -1    0    0  502  503 -0.00000000000E+00 -0.00000000000E+00 -0.37491291295E+03  0.37491291295E+03  0.00000000000E+00 0.  1.
          2    1    1    2  501    0  0.20021215726E+02  0.50774238457E+00 -0.17132494134E+03  0.17249157198E+03  0.00000000000E+00 0. -1.
         -2    1    1    2    0  503 -0.20021215726E+02 -0.50774238457E+00 -0.20251069363E+03  0.20349861895E+03  0.00000000000E+00 0.  1.
<mgrwt>
<rscale>  2 0.20027653E+02</rscale>
<asrwt>0</asrwt>
<pdfrwt beam="1">  1       21 0.16573491E-03 0.20027653E+02</pdfrwt>
<pdfrwt beam="2">  1       21 0.57678967E-01 0.20027653E+02</pdfrwt>
<totfact> 0.11681981E+08</totfact>
</mgrwt>
</event>
<event>
 4    1  0.2769537E+004  0.2425418E+02  0.7546771E-02  0.1671951E+00
         21   -1    0    0  501  502  0.00000000000E+00  0.00000000000E+00  0.12083508566E+03  0.12083508566E+03  0.00000000000E+00 0.  1.
         21   -1    0    0  502  503 -0.00000000000E+00 -0.00000000000E+00 -0.98107468362E+01  0.98107468362E+01  0.00000000000E+00 0. -1.
          2    1    1    2  501    0 -0.46486020060E+01  0.23804529895E+02  0.10187652090E+03  0.10472387815E+03  0.00000000000E+00 0.  1.
         -2    1    1    2    0  503  0.46486020060E+01 -0.23804529895E+02  0.91478179177E+01  0.25921954340E+02  0.00000000000E+00 0. -1.
<mgrwt>
<rscale>  2 0.24254178E+02</rscale>
<asrwt>0</asrwt>
<pdfrwt beam="1">  1       21 0.18590012E-01 0.24254178E+02</pdfrwt>
<pdfrwt beam="2">  1       21 0.15093458E-02 0.24254178E+02</pdfrwt>
<totfact> 0.38036298E+07</totfact>
</mgrwt>
</event>
<event>
 4    1  0.2769537E+004  0.2012938E+02  0.7546771E-02  0.1742767E+00
         21   -1    0    0  503  502  0.00000000000E+00  0.00000000000E+00  0.76711096749E+03  0.76711096749E+03  0.00000000000E+00 0.  1.
         21   -1    0    0  501  503 -0.00000000000E+00 -0.00000000000E+00 -0.52858064712E+00  0.52858064712E+00  0.00000000000E+00 0. -1.
          2    1    1    2  501    0 -0.13685753390E+02 -0.14761171544E+02  0.39351997944E+03  0.39403447343E+03  0.00000000000E+00 0. -1.
         -2    1    1    2    0  502  0.13685753390E+02  0.14761171544E+02  0.37306240740E+03  0.37360507470E+03  0.00000000000E+00 0.  1.
<mgrwt>
<rscale>  2 0.20129382E+02</rscale>
<asrwt>0</asrwt>
<pdfrwt beam="1">  1       21 0.11801618E+00 0.20129382E+02</pdfrwt>
<pdfrwt beam="2">  1       21 0.81320713E-04 0.20129382E+02</pdfrwt>
<totfact> 0.71545964E+07</totfact>
</mgrwt>
</event>
<event>
 4    1  0.2769537E+004  0.2135789E+02  0.7546771E-02  0.1719600E+00
         21   -1    0    0  503  502  0.00000000000E+00  0.00000000000E+00  0.65709834059E+01  0.65709834059E+01  0.00000000000E+00 0. -1.
         21   -1    0    0  501  503 -0.00000000000E+00 -0.00000000000E+00 -0.90029939134E+02  0.90029939134E+02  0.00000000000E+00 0.  1.
          2    1    1    2  501    0  0.19758670250E+02 -0.81088976005E+01 -0.64839139432E+02  0.68266194215E+02  0.00000000000E+00 0.  1.
         -2    1    1    2    0  502 -0.19758670250E+02  0.81088976005E+01 -0.18619816296E+02  0.28334728325E+02  0.00000000000E+00 0. -1.
<mgrwt>
<rscale>  2 0.21357885E+02</rscale>
<asrwt>0</asrwt>
<pdfrwt beam="1">  1       21 0.10109205E-02 0.21357885E+02</pdfrwt>
<pdfrwt beam="2">  1       21 0.13850761E-01 0.21357885E+02</pdfrwt>
<totfact> 0.11148607E+08</totfact>
</mgrwt>
</event>
<event>
 4    1  0.2769537E+004  0.2396089E+02  0.7546771E-02  0.1676392E+00
         21   -1    0    0  501  502  0.00000000000E+00  0.00000000000E+00  0.61639176757E+01  0.61639176757E+01  0.00000000000E+00 0.  1.
         21   -1    0    0  502  503 -0.00000000000E+00 -0.00000000000E+00 -0.18116803797E+03  0.18116803797E+03  0.00000000000E+00 0. -1.
          2    1    1    2  501    0 -0.10988278984E+02 -0.21292766881E+02 -0.22212337051E+02  0.32672803885E+02  0.00000000000E+00 0.  1.
         -2    1    1    2    0  503  0.10988278984E+02  0.21292766881E+02 -0.15279178324E+03  0.15465915176E+03  0.00000000000E+00 0. -1.
<mgrwt>
<rscale>  2 0.23960889E+02</rscale>
<asrwt>0</asrwt>
<pdfrwt beam="1">  1       21 0.94829488E-03 0.23960889E+02</pdfrwt>
<pdfrwt beam="2">  1       21 0.27872010E-01 0.23960889E+02</pdfrwt>
<totfact> 0.37390005E+07</totfact>
</mgrwt>
</event>
<event>
 4    1  0.2769537E+004  0.2535769E+02  0.7546771E-02  0.1655917E+00
         21   -1    0    0  501  502  0.00000000000E+00  0.00000000000E+00  0.21863386326E+03  0.21863386326E+03  0.00000000000E+00 0.  1.
         21   -1    0    0  502  503 -0.00000000000E+00 -0.00000000000E+00 -0.30803835041E+01  0.30803835041E+01  0.00000000000E+00 0. -1.
          2    1    1    2  501    0 -0.25676380728E+00  0.25356393372E+02  0.13135396188E+03  0.13377920583E+03  0.00000000000E+00 0. -1.
         -2    1    1    2    0  503  0.25676380728E+00 -0.25356393372E+02  0.84199517878E+02  0.87935040930E+02  0.00000000000E+00 0.  1.
<mgrwt>
<rscale>  2 0.25357693E+02</rscale>
<asrwt>0</asrwt>
<pdfrwt beam="1">  1       21 0.33635967E-01 0.25357693E+02</pdfrwt>
<pdfrwt beam="2">  1       21 0.47390533E-03 0.25357693E+02</pdfrwt>
<totfact> 0.75497479E+07</totfact>
</mgrwt>
</event>
<event>
 4    1  0.2769537E+004  0.4187588E+02  0.7546771E-02  0.1494844E+00
         21   -1    0    0  501  502  0.00000000000E+00  0.00000000000E+00  0.17474221787E+03  0.17474221787E+03  0.00000000000E+00 0.  1.
         21   -1    0    0  502  503 -0.00000000000E+00 -0.00000000000E+00 -0.18088155743E+02  0.18088155743E+02  0.00000000000E+00 0. -1.
          2    1    1    2  501    0 -0.33510005115E+02 -0.25113114886E+02  0.14265850602E+03  0.14867763222E+03  0.00000000000E+00 0.  1.
         -2    1    1    2    0  503  0.33510005115E+02  0.25113114886E+02  0.13995556109E+02  0.44152741397E+02  0.00000000000E+00 0. -1.
<mgrwt>
<rscale>  2 0.41875876E+02</rscale>
<asrwt>0</asrwt>
<pdfrwt beam="1">  1       21 0.26883417E-01 0.41875876E+02</pdfrwt>
<pdfrwt beam="2">  1       21 0.27827933E-02 0.41875876E+02</pdfrwt>
<totfact> 0.83661811E+06</totfact>
</mgrwt>
</event>
<event>
 4    1  0.2769537E+004  0.3256162E+02  0.7546771E-02  0.1571385E+00
         21   -1    0    0  501  502  0.00000000000E+00  0.00000000000E+00  0.24865084874E+03  0.24865084874E+03  0.00000000000E+00 0.  1.
         21   -1    0    0  502  503 -0.00000000000E+00 -0.00000000000E+00 -0.44098315419E+01  0.44098315419E+01  0.00000000000E+00 0. -1.
          2    1    1    2  501    0 -0.32439270291E+02  0.28201062433E+01  0.14512630719E+03  0.14873434134E+03  0.00000000000E+00 0.  1.
         -2    1    1    2    0  503  0.32439270291E+02 -0.28201062433E+01  0.99114710004E+02  0.10432633893E+03  0.00000000000E+00 0. -1.
<mgrwt>
<rscale>  2 0.32561622E+02</rscale>
<asrwt>0</asrwt>
<pdfrwt beam="1">  1       21 0.38253966E-01 0.32561622E+02</pdfrwt>
<pdfrwt beam="2">  1       21 0.67843582E-03 0.32561622E+02</pdfrwt>
<totfact> 0.36657104E+07</totfact>
</mgrwt>
</event>
<event>
 4    1  0.2769537E+004  0.2690618E+02  0.7546771E-02  0.1635042E+00
         21   -1    0    0  503  502  0.00000000000E+00  0.00000000000E+00  0.15705565210E+01  0.15705565210E+01  0.00000000000E+00 0.  1.
         21   -1    0    0  501  503 -0.00000000000E+00 -0.00000000000E+00 -0.46909671905E+03  0.46909671905E+03  0.00000000000E+00 0. -1.
          2    1    1    2  501    0 -0.25705812220E+02 -0.79469309173E+01 -0.26478281776E+03  0.26614635649E+03  0.00000000000E+00 0.  1.
         -2    1    1    2    0  502  0.25705812220E+02  0.79469309173E+01 -0.20274334476E+03  0.20452091907E+03  0.00000000000E+00 0. -1.
<mgrwt>
<rscale>  2 0.26906179E+02</rscale>
<asrwt>0</asrwt>
<pdfrwt beam="1">  1       21 0.24162421E-03 0.26906179E+02</pdfrwt>
<pdfrwt beam="2">  1       21 0.72168686E-01 0.26906179E+02</pdfrwt>
<totfact> 0.46232646E+07</totfact>
</mgrwt>
</event>
<event>
 4    1  0.2769537E+004  0.2237266E+02  0.7546771E-02  0.1701886E+00
         21   -1    0    0  503  502  0.00000000000E+00  0.00000000000E+00  0.10193563733E+03  0.10193563733E+03  0.00000000000E+00 0.  1.
         21   -1    0    0  501  503 -0.00000000000E+00 -0.00000000000E+00 -0.51730075752E+01  0.51730075752E+01  0.00000000000E+00 0. -1.
          2    1    1    2  501    0  0.13740732290E+02  0.17655824518E+02  0.60449687243E+02  0.64456966660E+02  0.00000000000E+00 0.  1.
         -2    1    1    2    0  502 -0.13740732290E+02 -0.17655824518E+02  0.36312942514E+02  0.42651678247E+02  0.00000000000E+00 0. -1.
<mgrwt>
<rscale>  2 0.22372659E+02</rscale>
<asrwt>0</asrwt>
<pdfrwt beam="1">  1       21 0.15682404E-01 0.22372659E+02</pdfrwt>
<pdfrwt beam="2">  1       21 0.79584739E-03 0.22372659E+02</pdfrwt>
<totfact> 0.13087260E+08</totfact>
</mgrwt>
</event>
<event>
 4    1  0.2769537E+004  0.3183489E+02  0.7546771E-02  0.1578649E+00
         21   -1    0    0  503  502  0.00000000000E+00  0.00000000000E+00  0.42934610966E+03  0.42934610966E+03  0.00000000000E+00 0.  1.
         21   -1    0    0  501  503 -0.00000000000E+00 -0.00000000000E+00 -0.48457529071E+01  0.48457529071E+01  0.00000000000E+00 0. -1.
          2    1    1    2  501    0  0.18660938623E+02  0.25792040419E+02  0.56775849863E+02  0.65091912761E+02  0.00000000000E+00 0. -1.
         -2    1    1    2    0  502 -0.18660938623E+02 -0.25792040419E+02  0.36772450689E+03  0.36909994980E+03  0.00000000000E+00 0.  1.
<mgrwt>
<rscale>  2 0.31834886E+02</rscale>
<asrwt>0</asrwt>
<pdfrwt beam="1">  1       21 0.66053218E-01 0.31834886E+02</pdfrwt>
<pdfrwt beam="2">  1       21 0.74550079E-03 0.31834886E+02</pdfrwt>
<totfact> 0.10776047E+07</totfact>
</mgrwt>
</event>
<event>
 4    1  0.2769537E+004  0.2409632E+02  0.7546771E-02  0.1674332E+00
         21   -1    0    0  501  502  0.00000000000E+00  0.00000000000E+00  0.22792412787E+02  0.22792412787E+02  0.00000000000E+00 0.  1.
         21   -1    0    0  502  503 -0.00000000000E+00 -0.00000000000E+00 -0.67538519717E+02  0.67538519717E+02  0.00000000000E+00 0. -1.
          2    1    1    2  501    0  0.16691665211E+02  0.17378743682E+02  0.13270788309E+02  0.27509021099E+02  0.00000000000E+00 0.  1.
         -2    1    1    2    0  503 -0.16691665211E+02 -0.17378743682E+02 -0.58016895238E+02  0.62821911405E+02  0.00000000000E+00 0. -1.
<mgrwt>
<rscale>  2 0.24096315E+02</rscale>
<asrwt>0</asrwt>
<pdfrwt beam="1">  1       21 0.35065252E-02 0.24096315E+02</pdfrwt>
<pdfrwt beam="2">  1       21 0.10390541E-01 0.24096315E+02</pdfrwt>
<totfact> 0.27705404E+07</totfact>
</mgrwt>
</event>
<event>
 4    1  0.2769537E+004  0.2667444E+02  0.7546771E-02  0.1638054E+00
         21   -1    0    0  503  502  0.00000000000E+00  0.00000000000E+00  0.12479341558E+01  0.12479341558E+01  0.00000000000E+00 0. -1.
         21   -1    0    0  501  503 -0.00000000000E+00 -0.00000000000E+00 -0.75840498669E+03  0.75840498669E+03  0.00000000000E+00 0.  1.
          2    1    1    2  501    0  0.26434975969E+02 -0.35661779012E+01 -0.56780990564E+03  0.56843611296E+03  0.00000000000E+00 0. -1.
         -2    1    1    2    0  502 -0.26434975969E+02  0.35661779012E+01 -0.18934714689E+03  0.19121680788E+03  0.00000000000E+00 0.  1.
<mgrwt>
<rscale>  2 0.26674437E+02</rscale>
<asrwt>0</asrwt>
<pdfrwt beam="1">  1       21 0.19198951E-03 0.26674437E+02</pdfrwt>
<pdfrwt beam="2">  1       21 0.11667791E+00 0.26674437E+02</pdfrwt>
<totfact> 0.22757463E+07</totfact>
</mgrwt>
</event>
<event>
 4    1  0.2769537E+004  0.2600030E+02  0.7546771E-02  0.1647036E+00
         21   -1    0    0  503  502  0.00000000000E+00  0.00000000000E+00  0.38967984116E+01  0.38967984116E+01  0.00000000000E+00 0. -1.
         21   -1    0    0  501  503 -0.00000000000E+00 -0.00000000000E+00 -0.19952959635E+03  0.19952959635E+03  0.00000000000E+00 0.  1.
          2    1    1    2  501    0 -0.47646161726E+01 -0.25560010732E+02 -0.13456797860E+03  0.13705676408E+03  0.00000000000E+00 0.  1.
         -2    1    1    2    0  502  0.47646161726E+01  0.25560010732E+02 -0.61064819343E+02  0.66369630685E+02  0.00000000000E+00 0. -1.
<mgrwt>
<rscale>  2 0.26000302E+02</rscale>
<asrwt>0</asrwt>
<pdfrwt beam="1">  1       21 0.59950719E-03 0.26000302E+02</pdfrwt>
<pdfrwt beam="2">  1       21 0.30696874E-01 0.26000302E+02</pdfrwt>
<totfact> 0.63424351E+07</totfact>
</mgrwt>
</event>
<event>
 4    1  0.2769537E+004  0.2068983E+02  0.7546771E-02  0.1731948E+00
         21   -1    0    0  501  502  0.00000000000E+00  0.00000000000E+00  0.11793234623E+01  0.11793234623E+01  0.00000000000E+00 0. -1.
         21   -1    0    0  502  503 -0.00000000000E+00 -0.00000000000E+00 -0.36894936160E+03  0.36894936160E+03  0.00000000000E+00 0.  1.
          2    1    1    2  501    0 -0.20446457179E+02  0.31641041799E+01 -0.16034240796E+03  0.16167175683E+03  0.00000000000E+00 0.  1.
         -2    1    1    2    0  503  0.20446457179E+02 -0.31641041799E+01 -0.20742763018E+03  0.20845692823E+03  0.00000000000E+00 0. -1.
<mgrwt>
<rscale>  2 0.20689832E+02</rscale>
<asrwt>0</asrwt>
<pdfrwt beam="1">  1       21 0.18143440E-03 0.20689832E+02</pdfrwt>
<pdfrwt beam="2">  1       21 0.56761432E-01 0.20689832E+02</pdfrwt>
<totfact> 0.10685817E+08</totfact>
</mgrwt>
</event>
<event>
 4    1  0.2769537E+004  0.3294995E+02  0.7546771E-02  0.1567597E+00
         21   -1    0    0  503  502  0.00000000000E+00  0.00000000000E+00  0.45960133155E+02  0.45960133155E+02  0.00000000000E+00 0. -1.
         21   -1    0    0  501  503 -0.00000000000E+00 -0.00000000000E+00 -0.36234396113E+02  0.36234396113E+02  0.00000000000E+00 0.  1.
          2    1    1    2  501    0 -0.20759570617E+02  0.25587880333E+02 -0.19383142192E+02  0.38228334954E+02  0.00000000000E+00 0. -1.
         -2    1    1    2    0  502  0.20759570617E+02 -0.25587880333E+02  0.29108879234E+02  0.43966194314E+02  0.00000000000E+00 0.  1.
<mgrwt>
<rscale>  2 0.32949953E+02</rscale>
<asrwt>0</asrwt>
<pdfrwt beam="1">  1       21 0.70707897E-02 0.32949953E+02</pdfrwt>
<pdfrwt beam="2">  1       21 0.55745225E-02 0.32949953E+02</pdfrwt>
<totfact> 0.26644239E+07</totfact>
</mgrwt>
</event>
<event>
 4    1  0.2769537E+004  0.2158735E+02  0.7546771E-02  0.1715488E+00
         21   -1    0    0  501  502  0.00000000000E+00  0.00000000000E+00  0.91645967672E+02  0.91645967672E+02  0.00000000000E+00 0. -1.
         21   -1    0    0  502  503 -0.00000000000E+00 -0.00000000000E+00 -0.42948755898E+02  0.42948755898E+02  0.00000000000E+00 0.  1.
          2    1    1    2  501    0  0.14867360753E+02  0.15651678824E+02  0.87536660371E+02  0.90159194621E+02  0.00000000000E+00 0. -1.
         -2    1    1    2    0  503 -0.14867360753E+02 -0.15651678824E+02 -0.38839448596E+02  0.44435528949E+02  0.00000000000E+00 0.  1.
<mgrwt>
<rscale>  2 0.21587345E+02</rscale>
<asrwt>0</asrwt>
<pdfrwt beam="1">  1       21 0.14099380E-01 0.21587345E+02</pdfrwt>
<pdfrwt beam="2">  1       21 0.66075009E-02 0.21587345E+02</pdfrwt>
<totfact> 0.59355268E+06</totfact>
</mgrwt>
</event>
<event>
 4    1  0.2769537E+004  0.3377541E+02  0.7546771E-02  0.1559752E+00
         21   -1    0    0  503  502  0.00000000000E+00  0.00000000000E+00  0.10972530036E+03  0.10972530036E+03  0.00000000000E+00 0. -1.
         21   -1    0    0  501  503 -0.00000000000E+00 -0.00000000000E+00 -0.10396689159E+02  0.10396689159E+02  0.00000000000E+00 0.  1.
          2    1    1    2  501    0  0.32777541570E+02  0.81493044309E+01  0.49731940728E+02  0.60116922099E+02  0.00000000000E+00 0.  1.
         -2    1    1    2    0  502 -0.32777541570E+02 -0.81493044309E+01  0.49596670470E+02  0.60005067418E+02  0.00000000000E+00 0. -1.
<mgrwt>
<rscale>  2 0.33775411E+02</rscale>
<asrwt>0</asrwt>
<pdfrwt beam="1">  1       21 0.16880815E-01 0.33775411E+02</pdfrwt>
<pdfrwt beam="2">  1       21 0.15994907E-02 0.33775411E+02</pdfrwt>
<totfact> 0.44202374E+07</totfact>
</mgrwt>
</event>
<event>
 4    1  0.2769537E+004  0.2559774E+02  0.7546771E-02  0.1652562E+00
         21   -1    0    0  501  502  0.00000000000E+00  0.00000000000E+00  0.31640611971E+02  0.31640611971E+02  0.00000000000E+00 0.  1.
         21   -1    0    0  502  503 -0.00000000000E+00 -0.00000000000E+00 -0.27513724949E+03  0.27513724949E+03  0.00000000000E+00 0. -1.
          2    1    1    2  501    0  0.77461459403E+00  0.25586019606E+02  0.25755076268E+02  0.36312096891E+02  0.00000000000E+00 0.  1.
         -2    1    1    2    0  503 -0.77461459403E+00 -0.25586019606E+02 -0.26925171378E+03  0.27046576457E+03  0.00000000000E+00 0. -1.
<mgrwt>
<rscale>  2 0.25597743E+02</rscale>
<asrwt>0</asrwt>
<pdfrwt beam="1">  1       21 0.48677865E-02 0.25597743E+02</pdfrwt>
<pdfrwt beam="2">  1       21 0.42328808E-01 0.25597743E+02</pdfrwt>
<totfact> 0.13914915E+06</totfact>
</mgrwt>
</event>
<event>
 4    1  0.2769537E+004  0.2166650E+02  0.7546771E-02  0.1714084E+00
         21   -1    0    0  501  502  0.00000000000E+00  0.00000000000E+00  0.88391838676E+02  0.88391838676E+02  0.00000000000E+00 0. -1.
         21   -1    0    0  502  503 -0.00000000000E+00 -0.00000000000E+00 -0.17558253235E+02  0.17558253235E+02  0.00000000000E+00 0.  1.
          2    1    1    2  501    0  0.21587170250E+02  0.18523991701E+01  0.79660590060E+02  0.82554508725E+02  0.00000000000E+00 0. -1.
         -2    1    1    2    0  503 -0.21587170250E+02 -0.18523991701E+01 -0.88270046194E+01  0.23395583186E+02  0.00000000000E+00 0.  1.
<mgrwt>
<rscale>  2 0.21666502E+02</rscale>
<asrwt>0</asrwt>
<pdfrwt beam="1">  1       21 0.13598744E-01 0.21666502E+02</pdfrwt>
<pdfrwt beam="2">  1       21 0.27012698E-02 0.21666502E+02</pdfrwt>
<totfact> 0.25871196E+07</totfact>
</mgrwt>
</event>
<event>
 4    1  0.2769537E+004  0.3823854E+02  0.7546771E-02  0.1521589E+00
         21   -1    0    0  501  502  0.00000000000E+00  0.00000000000E+00  0.46454365533E+03  0.46454365533E+03  0.00000000000E+00 0.  1.
         21   -1    0    0  502  503 -0.00000000000E+00 -0.00000000000E+00 -0.41427138684E+01  0.41427138684E+01  0.00000000000E+00 0. -1.
          2    1    1    2  501    0 -0.36425999255E+02 -0.11633260632E+02  0.34505592374E+03  0.34716822534E+03  0.00000000000E+00 0.  1.
         -2    1    1    2    0  503  0.36425999255E+02  0.11633260632E+02  0.11534501772E+03  0.12151814386E+03  0.00000000000E+00 0. -1.
<mgrwt>
<rscale>  2 0.38238543E+02</rscale>
<asrwt>0</asrwt>
<pdfrwt beam="1">  1       21 0.71468213E-01 0.38238543E+02</pdfrwt>
<pdfrwt beam="2">  1       21 0.63734096E-03 0.38238543E+02</pdfrwt>
<totfact> 0.11876408E+07</totfact>
</mgrwt>
</event>
<event>
 4    1  0.2769537E+004  0.2108522E+02  0.7546771E-02  0.1724570E+00
         21   -1    0    0  503  502  0.00000000000E+00  0.00000000000E+00  0.92821733628E+01  0.92821733628E+01  0.00000000000E+00 0.  1.
         21   -1    0    0  501  503 -0.00000000000E+00 -0.00000000000E+00 -0.78624207216E+02  0.78624207216E+02  0.00000000000E+00 0. -1.
          2    1    1    2  501    0 -0.14171810944E+02 -0.15612371348E+02 -0.62148392470E+02  0.65627806996E+02  0.00000000000E+00 0. -1.
         -2    1    1    2    0  502  0.14171810944E+02  0.15612371348E+02 -0.71936413833E+01  0.22278573583E+02  0.00000000000E+00 0.  1.
<mgrwt>
<rscale>  2 0.21085217E+02</rscale>
<asrwt>0</asrwt>
<pdfrwt beam="1">  1       21 0.14280267E-02 0.21085217E+02</pdfrwt>
<pdfrwt beam="2">  1       21 0.12096032E-01 0.21085217E+02</pdfrwt>
<totfact> 0.82886136E+07</totfact>
</mgrwt>
</event>
<event>
 4    1  0.2769537E+004  0.2752667E+02  0.7546771E-02  0.1627156E+00
         21   -1    0    0  501  502  0.00000000000E+00  0.00000000000E+00  0.38736217106E+02  0.38736217106E+02  0.00000000000E+00 0.  1.
         21   -1    0    0  502  503 -0.00000000000E+00 -0.00000000000E+00 -0.33377751327E+03  0.33377751327E+03  0.00000000000E+00 0. -1.
          2    1    1    2  501    0 -0.11563849954E+02 -0.24979888809E+02  0.33196050581E+02  0.43124183990E+02  0.00000000000E+00 0.  1.
         -2    1    1    2    0  503  0.11563849954E+02  0.24979888809E+02 -0.32823734675E+03  0.32938954639E+03  0.00000000000E+00 0. -1.
<mgrwt>
<rscale>  2 0.27526668E+02</rscale>
<asrwt>0</asrwt>
<pdfrwt beam="1">  1       21 0.59594180E-02 0.27526668E+02</pdfrwt>
<pdfrwt beam="2">  1       21 0.51350387E-01 0.27526668E+02</pdfrwt>
<totfact> 0.69555412E+05</totfact>
</mgrwt>
</event>
<event>
 4    1  0.2769537E+004  0.2327176E+02  0.7546771E-02  0.1687142E+00
         21   -1    0    0  503  502  0.00000000000E+00  0.00000000000E+00  0.29617561584E+02  0.29617561584E+02  0.00000000000E+00 0.  1.
         21   -1    0    0  501  503 -0.00000000000E+00 -0.00000000000E+00 -0.29146736932E+02  0.29146736932E+02  0.00000000000E+00 0. -1.
          2    1    1    2  501    0  0.59819930600E+01  0.22489787722E+02 -0.17700616622E+02  0.29238444240E+02  0.00000000000E+00 0.  1.
         -2    1    1    2    0  502 -0.59819930600E+01 -0.22489787722E+02  0.18171441275E+02  0.29525854276E+02  0.00000000000E+00 0. -1.
<mgrwt>
<rscale>  2 0.23271760E+02</rscale>
<asrwt>0</asrwt>
<pdfrwt beam="1">  1       21 0.45565479E-02 0.23271760E+02</pdfrwt>
<pdfrwt beam="2">  1       21 0.44841134E-02 0.23271760E+02</pdfrwt>
<totfact> 0.70899842E+07</totfact>
</mgrwt>
</event>
<event>
 4    1  0.2769537E+004  0.3872717E+02  0.7546771E-02  0.1517793E+00
         21   -1    0    0  503  502  0.00000000000E+00  0.00000000000E+00  0.42091047638E+02  0.42091047638E+02  0.00000000000E+00 0.  1.
         21   -1    0    0  501  503 -0.00000000000E+00 -0.00000000000E+00 -0.46901974155E+02  0.46901974155E+02  0.00000000000E+00 0. -1.
          2    1    1    2  501    0 -0.38525716652E+02  0.39449404050E+01 -0.24217161524E+02  0.45675642422E+02  0.00000000000E+00 0. -1.
         -2    1    1    2    0  502  0.38525716652E+02 -0.39449404050E+01  0.19406235008E+02  0.43317379371E+02  0.00000000000E+00 0.  1.
<mgrwt>
<rscale>  2 0.38727166E+02</rscale>
<asrwt>0</asrwt>
<pdfrwt beam="1">  1       21 0.64755458E-02 0.38727166E+02</pdfrwt>
<pdfrwt beam="2">  1       21 0.72156883E-02 0.38727166E+02</pdfrwt>
<totfact> 0.20760246E+07</totfact>
</mgrwt>
</event>
<event>
 4    1  0.2769537E+004  0.2213352E+02  0.7546771E-02  0.1705953E+00
         21   -1    0    0  503  502  0.00000000000E+00  0.00000000000E+00  0.13157654202E+03  0.13157654202E+03  0.00000000000E+00 0.  1.
         21   -1    0    0  501  503 -0.00000000000E+00 -0.00000000000E+00 -0.57320492938E+01  0.57320492938E+01  0.00000000000E+00 0. -1.
          2    1    1    2  501    0 -0.17021968700E+02  0.14147270615E+02  0.22279713567E+02  0.31405068395E+02  0.00000000000E+00 0. -1.
         -2    1    1    2    0  502  0.17021968700E+02 -0.14147270615E+02  0.10356477916E+03  0.10590352292E+03  0.00000000000E+00 0.  1.
<mgrwt>
<rscale>  2 0.22133519E+02</rscale>
<asrwt>0</asrwt>
<pdfrwt beam="1">  1       21 0.20242543E-01 0.22133519E+02</pdfrwt>
<pdfrwt beam="2">  1       21 0.88185384E-03 0.22133519E+02</pdfrwt>
<totfact> 0.72083379E+07</totfact>
</mgrwt>
</event>
<event>
 4    1  0.2769537E+004  0.2002172E+02  0.7546771E-02  0.1744896E+00
         21   -1    0    0  503  502  0.00000000000E+00  0.00000000000E+00  0.67511150251E+02  0.67511150251E+02  0.00000000000E+00 0.  1.
         21   -1    0    0  501  503 -0.00000000000E+00 -0.00000000000E+00 -0.85671813463E+01  0.85671813463E+01  0.00000000000E+00 0. -1.
          2    1    1    2  501    0 -0.11356614568E+02  0.16489288412E+02  0.83984775984E+01  0.21711834394E+02  0.00000000000E+00 0.  1.
         -2    1    1    2    0  502  0.11356614568E+02 -0.16489288412E+02  0.50545491306E+02  0.54366497203E+02  0.00000000000E+00 0. -1.
<mgrwt>
<rscale>  2 0.20021721E+02</rscale>
<asrwt>0</asrwt>
<pdfrwt beam="1">  1       21 0.10386330E-01 0.20021721E+02</pdfrwt>
<pdfrwt beam="2">  1       21 0.13180279E-02 0.20021721E+02</pdfrwt>
<totfact> 0.11862773E+08</totfact>
</mgrwt>
</event>
<event>
 4    1  0.2769537E+004  0.2340845E+02  0.7546771E-02  0.1684973E+00
         21   -1    0    0  501  502  0.00000000000E+00  0.00000000000E+00  0.66151481521E+02  0.66151481521E+02  0.00000000000E+00 0. -1.
         21   -1    0    0  502  503 -0.00000000000E+00 -0.00000000000E+00 -0.98831578234E+01  0.98831578234E+01  0.00000000000E+00 0.  1.
          2    1    1    2  501    0  0.74519951846E+01 -0.22190617437E+02  0.43429807878E+02  0.49336638990E+02  0.00000000000E+00 0. -1.
         -2    1    1    2    0  503 -0.74519951846E+01  0.22190617437E+02  0.12838515820E+02  0.26698000355E+02  0.00000000000E+00 0.  1.
<mgrwt>
<rscale>  2 0.23408454E+02</rscale>
<asrwt>0</asrwt>
<pdfrwt beam="1">  1       21 0.10177151E-01 0.23408454E+02</pdfrwt>
<pdfrwt beam="2">  1       21 0.15204859E-02 0.23408454E+02</pdfrwt>
<totfact> 0.10345552E+08</totfact>
</mgrwt>
</event>
<event>
 4    1  0.2769537E+004  0.2711464E+02  0.7546771E-02  0.1632363E+00
         21   -1    0    0  503  502  0.00000000000E+00  0.00000000000E+00  0.14389413152E+04  0.14389413152E+04  0.00000000000E+00 0. -1.
         21   -1    0    0  501  503 -0.00000000000E+00 -0.00000000000E+00 -0.51314723847E+00  0.51314723847E+00  0.00000000000E+00 0.  1.
          2    1    1    2  501    0  0.24646832346E+02 -0.11302104219E+02  0.67194573700E+03  0.67249258537E+03  0.00000000000E+00 0. -1.
         -2    1    1    2    0  502 -0.24646832346E+02  0.11302104219E+02  0.76648243092E+03  0.76696187703E+03  0.00000000000E+00 0.  1.
<mgrwt>
<rscale>  2 0.27114644E+02</rscale>
<asrwt>0</asrwt>
<pdfrwt beam="1">  1       21 0.22137236E+00 0.27114644E+02</pdfrwt>
<pdfrwt beam="2">  1       21 0.78946881E-04 0.27114644E+02</pdfrwt>
<totfact> 0.16968043E+07</totfact>
</mgrwt>
</event>
<event>
 4    1  0.2769537E+004  0.2491464E+02  0.7546771E-02  0.1662231E+00
         21   -1    0    0  503  502  0.00000000000E+00  0.00000000000E+00  0.72979454418E+01  0.72979454418E+01  0.00000000000E+00 0. -1.
         21   -1    0    0  501  503 -0.00000000000E+00 -0.00000000000E+00 -0.13235161628E+03  0.13235161628E+03  0.00000000000E+00 0.  1.
          2    1    1    2  501    0  0.22477542276E+02  0.10747073029E+02 -0.10426679076E+03  0.10720216015E+03  0.00000000000E+00 0.  1.
         -2    1    1    2    0  502 -0.22477542276E+02 -0.10747073029E+02 -0.20786880083E+02  0.32447401576E+02  0.00000000000E+00 0. -1.
<mgrwt>
<rscale>  2 0.24914644E+02</rscale>
<asrwt>0</asrwt>
<pdfrwt beam="1">  1       21 0.11227610E-02 0.24914644E+02</pdfrwt>
<pdfrwt beam="2">  1       21 0.20361784E-01 0.24914644E+02</pdfrwt>
<totfact> 0.51150593E+07</totfact>
</mgrwt>
</event>
<event>
 4    1  0.2769537E+004  0.3006737E+02  0.7546771E-02  0.1597345E+00
         21   -1    0    0  503  502  0.00000000000E+00  0.00000000000E+00  0.24136630713E+02  0.24136630713E+02  0.00000000000E+00 0.  1.
         21   -1    0    0  501  503 -0.00000000000E+00 -0.00000000000E+00 -0.57859707260E+02  0.57859707260E+02  0.00000000000E+00 0. -1.
          2    1    1    2  501    0  0.29489382345E+02  0.58671033451E+01 -0.41208093987E+02  0.51011308381E+02  0.00000000000E+00 0. -1.
         -2    1    1    2    0  502 -0.29489382345E+02 -0.58671033451E+01  0.74850174402E+01  0.30985029592E+02  0.00000000000E+00 0.  1.
<mgrwt>
<rscale>  2 0.30067367E+02</rscale>
<asrwt>0</asrwt>
<pdfrwt beam="1">  1       21 0.37133278E-02 0.30067367E+02</pdfrwt>
<pdfrwt beam="2">  1       21 0.89014934E-02 0.30067367E+02</pdfrwt>
<totfact> 0.34332842E+07</totfact>
</mgrwt>
</event>
<event>
 4    1  0.2769537E+004  0.2280434E+02  0.7546771E-02  0.1694701E+00
         21   -1    0    0  503  502  0.00000000000E+00  0.00000000000E+00  0.37653167197E+03  0.37653167197E+03  0.00000000000E+00 0.  1.
         21   -1    0    0  501  503 -0.00000000000E+00 -0.00000000000E+00 -0.16252271833E+01  0.16252271833E+01  0.00000000000E+00 0. -1.
          2    1    1    2  501    0  0.14684010726E+02  0.17447575087E+02  0.11417598754E+03  0.11643107050E+03  0.00000000000E+00 0.  1.
         -2    1    1    2    0  502 -0.14684010726E+02 -0.17447575087E+02  0.26073045724E+03  0.26172582865E+03  0.00000000000E+00 0. -1.
<mgrwt>
<rscale>  2 0.22804343E+02</rscale>
<asrwt>0</asrwt>
<pdfrwt beam="1">  1       21 0.57927880E-01 0.22804343E+02</pdfrwt>
<pdfrwt beam="2">  1       21 0.25003525E-03 0.22804343E+02</pdfrwt>
<totfact> 0.66244679E+07</totfact>
</mgrwt>
</event>
<event>
 4    1  0.2769537E+004  0.2227722E+02  0.7546771E-02  0.1703501E+00
         21   -1    0    0  503  502  0.00000000000E+00  0.00000000000E+00  0.24452344977E+03  0.24452344977E+03  0.00000000000E+00 0. -1.
         21   -1    0    0  501  503 -0.00000000000E+00 -0.00000000000E+00 -0.59679212552E+01  0.59679212552E+01  0.00000000000E+00 0.  1.
          2    1    1    2  501    0  0.10275283291E+02 -0.19765952144E+02  0.17533680427E+02  0.28349678308E+02  0.00000000000E+00 0.  1.
         -2    1    1    2    0  502 -0.10275283291E+02  0.19765952144E+02  0.22102184809E+03  0.22214169272E+03  0.00000000000E+00 0. -1.
<mgrwt>
<rscale>  2 0.22277215E+02</rscale>
<asrwt>0</asrwt>
<pdfrwt beam="1">  1       21 0.37618985E-01 0.22277215E+02</pdfrwt>
<pdfrwt beam="2">  1       21 0.91814192E-03 0.22277215E+02</pdfrwt>
<totfact> 0.22262012E+07</totfact>
</mgrwt>
</event>
<event>
 4    1  0.2769537E+004  0.3007742E+02  0.7546771E-02  0.1597234E+00
         21   -1    0    0  503  502  0.00000000000E+00  0.00000000000E+00  0.13399249733E+03  0.13399249733E+03  0.00000000000E+00 0.  1.
         21   -1    0    0  501  503 -0.00000000000E+00 -0.00000000000E+00 -0.72081021261E+01  0.72081021261E+01  0.00000000000E+00 0. -1.
          2    1    1    2  501    0  0.23983510609E+02  0.18150547800E+02  0.81161162540E+02  0.86555100783E+02  0.00000000000E+00 0.  1.
         -2    1    1    2    0  502 -0.23983510609E+02 -0.18150547800E+02  0.45623232662E+02  0.54645498672E+02  0.00000000000E+00 0. -1.
<mgrwt>
<rscale>  2 0.30077420E+02</rscale>
<asrwt>0</asrwt>
<pdfrwt beam="1">  1       21 0.20614228E-01 0.30077420E+02</pdfrwt>
<pdfrwt beam="2">  1       21 0.11089389E-02 0.30077420E+02</pdfrwt>
<totfact> 0.53233877E+07</totfact>
</mgrwt>
</event>
<event>
 4    1  0.2769537E+004  0.2310346E+02  0.7546771E-02  0.1689838E+00
         21   -1    0    0  503  502  0.00000000000E+00  0.00000000000E+00  0.34262805048E+03  0.34262805048E+03  0.00000000000E+00 0. -1.
         21   -1    0    0  501  503 -0.00000000000E+00 -0.00000000000E+00 -0.16143158601E+01  0.16143158601E+01  0.00000000000E+00 0.  1.
          2    1    1    2  501    0  0.12283263235E+02  0.19567611469E+02  0.20269204893E+03  0.20400450160E+03  0.00000000000E+00 0. -1.
         -2    1    1    2    0  502 -0.12283263235E+02 -0.19567611469E+02  0.13832168569E+03  0.14023786474E+03  0.00000000000E+00 0.  1.
<mgrwt>
<rscale>  2 0.23103462E+02</rscale>
<asrwt>0</asrwt>
<pdfrwt beam="1">  1       21 0.52711950E-01 0.23103462E+02</pdfrwt>
<pdfrwt beam="2">  1       21 0.24835656E-03 0.23103462E+02</pdfrwt>
<totfact> 0.80841698E+07</totfact>
</mgrwt>
</event>
<event>
 4    1  0.2769537E+004  0.2003780E+02  0.7546771E-02  0.1744577E+00
         21   -1    0    0  503  502  0.00000000000E+00  0.00000000000E+00  0.74027097060E+02  0.74027097060E+02  0.00000000000E+00 0.  1.
         21   -1    0    0  501  503 -0.00000000000E+00 -0.00000000000E+00 -0.56987146081E+02  0.56987146081E+02  0.00000000000E+00 0. -1.
          2    1    1    2  501    0  0.14292180731E+02  0.14044465497E+02 -0.53791826213E+02  0.57402735200E+02  0.00000000000E+00 0. -1.
         -2    1    1    2    0  502 -0.14292180731E+02 -0.14044465497E+02  0.70831777193E+02  0.73611507941E+02  0.00000000000E+00 0.  1.
<mgrwt>
<rscale>  2 0.20037800E+02</rscale>
<asrwt>0</asrwt>
<pdfrwt beam="1">  1       21 0.11388784E-01 0.20037800E+02</pdfrwt>
<pdfrwt beam="2">  1       21 0.87672532E-02 0.20037800E+02</pdfrwt>
<totfact> 0.52959326E+06</totfact>
</mgrwt>
</event>
<event>
 4    1  0.2769537E+004  0.2830989E+02  0.7546771E-02  0.1617559E+00
         21   -1    0    0  503  502  0.00000000000E+00  0.00000000000E+00  0.54181874622E+03  0.54181874622E+03  0.00000000000E+00 0. -1.
         21   -1    0    0  501  503 -0.00000000000E+00 -0.00000000000E+00 -0.62430122193E+01  0.62430122193E+01  0.00000000000E+00 0.  1.
          2    1    1    2  501    0 -0.15265933631E+02 -0.23841163655E+02  0.28411957335E+02  0.40108467107E+02  0.00000000000E+00 0.  1.
         -2    1    1    2    0  502  0.15265933631E+02  0.23841163655E+02  0.50716377666E+03  0.50795329133E+03  0.00000000000E+00 0. -1.
<mgrwt>
<rscale>  2 0.28309889E+02</rscale>
<asrwt>0</asrwt>
<pdfrwt beam="1">  1       21 0.83356693E-01 0.28309889E+02</pdfrwt>
<pdfrwt beam="2">  1       21 0.96046385E-03 0.28309889E+02</pdfrwt>
<totfact> 0.44474734E+06</totfact>
</mgrwt>
</event>
<event>
 4    1  0.2769537E+004  0.2125415E+02  0.7546771E-02  0.1721480E+00
         21   -1    0    0  503  502  0.00000000000E+00  0.00000000000E+00  0.83701830055E+01  0.83701830055E+01  0.00000000000E+00 0.  1.
         21   -1    0    0  501  503 -0.00000000000E+00 -0.00000000000E+00 -0.87044816887E+02  0.87044816887E+02  0.00000000000E+00 0. -1.
          2    1    1    2  501    0 -0.14065699971E+02  0.15934088894E+02 -0.68745193560E+02  0.71955824935E+02  0.00000000000E+00 0. -1.
         -2    1    1    2    0  502  0.14065699971E+02 -0.15934088894E+02 -0.99294403217E+01  0.23459174957E+02  0.00000000000E+00 0.  1.
<mgrwt>
<rscale>  2 0.21254155E+02</rscale>
<asrwt>0</asrwt>
<pdfrwt beam="1">  1       21 0.12877204E-02 0.21254155E+02</pdfrwt>
<pdfrwt beam="2">  1       21 0.13391511E-01 0.21254155E+02</pdfrwt>
<totfact> 0.81897110E+07</totfact>
</mgrwt>
</event>
<event>
 4    1  0.2769537E+004  0.2539589E+02  0.7546771E-02  0.1655380E+00
         21   -1    0    0  503  502  0.00000000000E+00  0.00000000000E+00  0.57182755732E+03  0.57182755732E+03  0.00000000000E+00 0. -1.
         21   -1    0    0  501  503 -0.00000000000E+00 -0.00000000000E+00 -0.11351110614E+01  0.11351110614E+01  0.00000000000E+00 0.  1.
          2    1    1    2  501    0  0.81060995786E+00  0.25382953304E+02  0.26247682404E+03  0.26370254941E+03  0.00000000000E+00 0.  1.
         -2    1    1    2    0  502 -0.81060995786E+00 -0.25382953304E+02  0.30821562222E+03  0.30926011898E+03  0.00000000000E+00 0. -1.
<mgrwt>
<rscale>  2 0.25395894E+02</rscale>
<asrwt>0</asrwt>
<pdfrwt beam="1">  1       21 0.87973240E-01 0.25395894E+02</pdfrwt>
<pdfrwt beam="2">  1       21 0.17463293E-03 0.25395894E+02</pdfrwt>
<totfact> 0.48201605E+07</totfact>
</mgrwt>
</event>
<event>
 4    1  0.2769537E+004  0.2375670E+02  0.7546771E-02  0.1679530E+00
         21   -1    0    0  503  502  0.00000000000E+00  0.00000000000E+00  0.11333662748E+03  0.11333662748E+03  0.00000000000E+00 0. -1.
         21   -1    0    0  501  503 -0.00000000000E+00 -0.00000000000E+00 -0.81213042608E+01  0.81213042608E+01  0.00000000000E+00 0.  1.
          2    1    1    2  501    0 -0.12226811611E+02  0.20368749842E+02  0.14836559639E+02  0.28009005591E+02  0.00000000000E+00 0.  1.
         -2    1    1    2    0  502  0.12226811611E+02 -0.20368749842E+02  0.90378763583E+02  0.93448926153E+02  0.00000000000E+00 0. -1.
<mgrwt>
<rscale>  2 0.23756702E+02</rscale>
<asrwt>0</asrwt>
<pdfrwt beam="1">  1       21 0.17436403E-01 0.23756702E+02</pdfrwt>
<pdfrwt beam="2">  1       21 0.12494315E-02 0.23756702E+02</pdfrwt>
<totfact> 0.56330832E+07</totfact>
</mgrwt>
</event>
<event>
 4    1  0.2769537E+004  0.3377035E+02  0.7546771E-02  0.1559799E+00
         21   -1    0    0  501  502  0.00000000000E+00  0.00000000000E+00  0.33637557852E+03  0.33637557852E+03  0.00000000000E+00 0. -1.
         21   -1    0    0  502  503 -0.00000000000E+00 -0.00000000000E+00 -0.95476471343E+01  0.95476471343E+01  0.00000000000E+00 0.  1.
          2    1    1    2  501    0  0.95451563690E+01 -0.32393306179E+02  0.30231198132E+03  0.30419232460E+03  0.00000000000E+00 0. -1.
         -2    1    1    2    0  503 -0.95451563690E+01  0.32393306179E+02  0.24515950067E+02  0.41730901056E+02  0.00000000000E+00 0.  1.
<mgrwt>
<rscale>  2 0.33770346E+02</rscale>
<asrwt>0</asrwt>
<pdfrwt beam="1">  1       21 0.51750080E-01 0.33770346E+02</pdfrwt>
<pdfrwt beam="2">  1       21 0.14688690E-02 0.33770346E+02</pdfrwt>
<totfact> 0.63351041E+06</totfact>
</mgrwt>
</event>
<event>
 4    1  0.2769537E+004  0.4179600E+02  0.7546771E-02  0.1495396E+00
         21   -1    0    0  503  502  0.00000000000E+00  0.00000000000E+00  0.14302760847E+02  0.14302760847E+02  0.00000000000E+00 0.  1.
         21   -1    0    0  501  503 -0.00000000000E+00 -0.00000000000E+00 -0.14406491976E+03  0.14406491976E+03  0.00000000000E+00 0. -1.
          2    1    1    2  501    0 -0.10210328218E+02 -0.40529673918E+02 -0.33988800581E+02  0.53871549404E+02  0.00000000000E+00 0.  1.
         -2    1    1    2    0  502  0.10210328218E+02  0.40529673918E+02 -0.95773358337E+02  0.10449613121E+03  0.00000000000E+00 0. -1.
<mgrwt>
<rscale>  2 0.41795996E+02</rscale>
<asrwt>0</asrwt>
<pdfrwt beam="1">  1       21 0.22004247E-02 0.41795996E+02</pdfrwt>
<pdfrwt beam="2">  1       21 0.22163834E-01 0.41795996E+02</pdfrwt>
<totfact> 0.17219510E+07</totfact>
</mgrwt>
</event>
<event>
 4    1  0.2769537E+004  0.2169844E+02  0.7546771E-02  0.1713520E+00
         21   -1    0    0  503  502  0.00000000000E+00  0.00000000000E+00  0.28420359767E+02  0.28420359767E+02  0.00000000000E+00 0. -1.
         21   -1    0    0  501  503 -0.00000000000E+00 -0.00000000000E+00 -0.35321971117E+02  0.35321971117E+02  0.00000000000E+00 0.  1.
          2    1    1    2  501    0 -0.12088067214E+02 -0.18019464147E+02 -0.26675011219E+02  0.34385733679E+02  0.00000000000E+00 0.  1.
         -2    1    1    2    0  502  0.12088067214E+02  0.18019464147E+02  0.19773399869E+02  0.29356597206E+02  0.00000000000E+00 0. -1.
<mgrwt>
<rscale>  2 0.21698444E+02</rscale>
<asrwt>0</asrwt>
<pdfrwt beam="1">  1       21 0.43723631E-02 0.21698444E+02</pdfrwt>
<pdfrwt beam="2">  1       21 0.54341494E-02 0.21698444E+02</pdfrwt>
<totfact> 0.54713579E+07</totfact>
</mgrwt>
</event>
<event>
 4    1  0.2769537E+004  0.2483792E+02  0.7546771E-02  0.1663341E+00
         21   -1    0    0  501  502  0.00000000000E+00  0.00000000000E+00  0.41986290728E+03  0.41986290728E+03  0.00000000000E+00 0. -1.
         21   -1    0    0  502  503 -0.00000000000E+00 -0.00000000000E+00 -0.14827349079E+01  0.14827349079E+01  0.00000000000E+00 0.  1.
          2    1    1    2  501    0  0.21011515974E+02 -0.13245315143E+02  0.22921244518E+03  0.23055426087E+03  0.00000000000E+00 0. -1.
         -2    1    1    2    0  503 -0.21011515974E+02  0.13245315143E+02  0.18916772719E+03  0.19079138132E+03  0.00000000000E+00 0.  1.
<mgrwt>
<rscale>  2 0.24837918E+02</rscale>
<asrwt>0</asrwt>
<pdfrwt beam="1">  1       21 0.64594198E-01 0.24837918E+02</pdfrwt>
<pdfrwt beam="2">  1       21 0.22811340E-03 0.24837918E+02</pdfrwt>
<totfact> 0.62042819E+07</totfact>
</mgrwt>
</event>
<event>
 4    1  0.2769537E+004  0.2012833E+02  0.7546771E-02  0.1742788E+00
         21   -1    0    0  501  502  0.00000000000E+00  0.00000000000E+00  0.65417907880E+02  0.65417907880E+02  0.00000000000E+00 0. -1.
         21   -1    0    0  502  503 -0.00000000000E+00 -0.00000000000E+00 -0.14404784038E+02  0.14404784038E+02  0.00000000000E+00 0.  1.
          2    1    1    2  501    0  0.10204605706E+02 -0.17349809327E+02  0.55640437028E+02  0.59169317167E+02  0.00000000000E+00 0. -1.
         -2    1    1    2    0  503 -0.10204605706E+02  0.17349809327E+02 -0.46273131854E+01  0.20653374751E+02  0.00000000000E+00 0.  1.
<mgrwt>
<rscale>  2 0.20128335E+02</rscale>
<asrwt>0</asrwt>
<pdfrwt beam="1">  1       21 0.10064293E-01 0.20128335E+02</pdfrwt>
<pdfrwt beam="2">  1       21 0.22161207E-02 0.20128335E+02</pdfrwt>
<totfact> 0.56844218E+07</totfact>
</mgrwt>
</event>
<event>
 4    1  0.2769537E+004  0.2782663E+02  0.7546771E-02  0.1623435E+00
         21   -1    0    0  501  502  0.00000000000E+00  0.00000000000E+00  0.20936343801E+03  0.20936343801E+03  0.00000000000E+00 0.  1.
         21   -1    0    0  502  503 -0.00000000000E+00 -0.00000000000E+00 -0.55974739154E+01  0.55974739154E+01  0.00000000000E+00 0. -1.
          2    1    1    2  501    0  0.10335219196E+02 -0.25836108166E+02  0.16448640986E+03  0.16682356030E+03  0.00000000000E+00 0.  1.
         -2    1    1    2    0  503 -0.10335219196E+02  0.25836108166E+02  0.39279554228E+02  0.48137351623E+02  0.00000000000E+00 0. -1.
<mgrwt>
<rscale>  2 0.27826628E+02</rscale>
<asrwt>0</asrwt>
<pdfrwt beam="1">  1       21 0.32209753E-01 0.27826628E+02</pdfrwt>
<pdfrwt beam="2">  1       21 0.86115000E-03 0.27826628E+02</pdfrwt>
<totfact> 0.34269736E+07</totfact>
</mgrwt>
</event>
<event>
 4    1  0.2769537E+004  0.2185095E+02  0.7546771E-02  0.1710843E+00
         21   -1    0    0  501  502  0.00000000000E+00  0.00000000000E+00  0.36751008373E+02  0.36751008373E+02  0.00000000000E+00 0. -1.
         21   -1    0    0  502  503 -0.00000000000E+00 -0.00000000000E+00 -0.24248238093E+02  0.24248238093E+02  0.00000000000E+00 0.  1.
          2    1    1    2  501    0  0.95196258304E+00 -0.21830204396E+02  0.27031773689E+02  0.34758895920E+02  0.00000000000E+00 0. -1.
         -2    1    1    2    0  503 -0.95196258304E+00  0.21830204396E+02 -0.14529003410E+02  0.26240350547E+02  0.00000000000E+00 0.  1.
<mgrwt>
<rscale>  2 0.21850951E+02</rscale>
<asrwt>0</asrwt>
<pdfrwt beam="1">  1       21 0.56540013E-02 0.21850951E+02</pdfrwt>
<pdfrwt beam="2">  1       21 0.37304982E-02 0.21850951E+02</pdfrwt>
<totfact> 0.66052038E+07</totfact>
</mgrwt>
</event>
<event>
 4    1  0.2769537E+004  0.2910952E+02  0.7546771E-02  0.1608146E+00
         21   -1    0    0  501  502  0.00000000000E+00  0.00000000000E+00  0.27156774437E+01  0.27156774437E+01  0.00000000000E+00 0.  1.
         21   -1    0    0  502  503 -0.00000000000E+00 -0.00000000000E+00 -0.50534672416E+03  0.50534672416E+03  0.00000000000E+00 0. -1.
          2    1    1    2  501    0 -0.18057887292E+02 -0.22831487884E+02 -0.94195821636E+02  0.98591160588E+02  0.00000000000E+00 0.  1.
         -2    1    1    2    0  503  0.18057887292E+02  0.22831487884E+02 -0.40843522508E+03  0.40947124101E+03  0.00000000000E+00 0. -1.
<mgrwt>
<rscale>  2 0.29109520E+02</rscale>
<asrwt>0</asrwt>
<pdfrwt beam="1">  1       21 0.41779666E-03 0.29109520E+02</pdfrwt>
<pdfrwt beam="2">  1       21 0.77745625E-01 0.29109520E+02</pdfrwt>
<totfact> 0.17966104E+07</totfact>
</mgrwt>
</event>
<event>
 4    1  0.2769537E+004  0.2321029E+02  0.7546771E-02  0.1688124E+00
         21   -1    0    0  503  502  0.00000000000E+00  0.00000000000E+00  0.21507296281E+02  0.21507296281E+02  0.00000000000E+00 0. -1.
         21   -1    0    0  501  503 -0.00000000000E+00 -0.00000000000E+00 -0.29058263298E+02  0.29058263298E+02  0.00000000000E+00 0.  1.
          2    1    1    2  501    0 -0.78401384978E+01  0.21846047893E+02 -0.13167726743E+02  0.26685325701E+02  0.00000000000E+00 0.  1.
         -2    1    1    2    0  502  0.78401384978E+01 -0.21846047893E+02  0.56167597258E+01  0.23880233877E+02  0.00000000000E+00 0. -1.
<mgrwt>
<rscale>  2 0.23210290E+02</rscale>
<asrwt>0</asrwt>
<pdfrwt beam="1">  1       21 0.33088148E-02 0.23210290E+02</pdfrwt>
<pdfrwt beam="2">  1       21 0.44705020E-02 0.23210290E+02</pdfrwt>
<totfact> 0.11781951E+08</totfact>
</mgrwt>
</event>
<event>
 4    1  0.2769537E+004  0.2681436E+02  0.7546771E-02  0.1636231E+00
         21   -1    0    0  503  502  0.00000000000E+00  0.00000000000E+00  0.19177318082E+03  0.19177318082E+03  0.00000000000E+00 0. -1.
         21   -1    0    0  501  503 -0.00000000000E+00 -0.00000000000E+00 -0.57603465256E+01  0.57603465256E+01  0.00000000000E+00 0.  1.
          2    1    1    2  501    0 -0.21499092331E+02  0.16024948248E+02  0.34648399235E+02  0.43812344231E+02  0.00000000000E+00 0.  1.
         -2    1    1    2    0  502  0.21499092331E+02 -0.16024948248E+02  0.15136443506E+03  0.15372118312E+03  0.00000000000E+00 0. -1.
<mgrwt>
<rscale>  2 0.26814361E+02</rscale>
<asrwt>0</asrwt>
<pdfrwt beam="1">  1       21 0.29503561E-01 0.26814361E+02</pdfrwt>
<pdfrwt beam="2">  1       21 0.88620730E-03 0.26814361E+02</pdfrwt>
<totfact> 0.38266099E+07</totfact>
</mgrwt>
</event>
<event>
 4    1  0.2769537E+004  0.2155798E+02  0.7546771E-02  0.1716011E+00
         21   -1    0    0  501  502  0.00000000000E+00  0.00000000000E+00  0.57540157667E+02  0.57540157667E+02  0.00000000000E+00 0. -1.
         21   -1    0    0  502  503 -0.00000000000E+00 -0.00000000000E+00 -0.83112859978E+01  0.83112859978E+01  0.00000000000E+00 0.  1.
          2    1    1    2  501    0  0.15452982626E+01  0.21502521423E+02  0.19085232024E+02  0.28792229085E+02  0.00000000000E+00 0.  1.
         -2    1    1    2    0  503 -0.15452982626E+01 -0.21502521423E+02  0.30143639645E+02  0.37059214581E+02  0.00000000000E+00 0. -1.
<mgrwt>
<rscale>  2 0.21557977E+02</rscale>
<asrwt>0</asrwt>
<pdfrwt beam="1">  1       21 0.88523317E-02 0.21557977E+02</pdfrwt>
<pdfrwt beam="2">  1       21 0.12786594E-02 0.21557977E+02</pdfrwt>
<totfact> 0.16516042E+08</totfact>
</mgrwt>
</event>
<event>
 4    1  0.2769537E+004  0.2125613E+02  0.7546771E-02  0.1721444E+00
         21   -1    0    0  503  502  0.00000000000E+00  0.00000000000E+00  0.18577093784E+03  0.18577093784E+03  0.00000000000E+00 0.  1.
         21   -1    0    0  501  503 -0.00000000000E+00 -0.00000000000E+00 -0.24492232077E+01  0.24492232077E+01  0.00000000000E+00 0. -1.
          2    1    1    2  501    0  0.15670366238E+02 -0.14361851265E+02  0.99517819230E+02  0.10176256431E+03  0.00000000000E+00 0. -1.
         -2    1    1    2    0  502 -0.15670366238E+02  0.14361851265E+02  0.83803895405E+02  0.86457596744E+02  0.00000000000E+00 0.  1.
<mgrwt>
<rscale>  2 0.21256132E+02</rscale>
<asrwt>0</asrwt>
<pdfrwt beam="1">  1       21 0.28580133E-01 0.21256132E+02</pdfrwt>
<pdfrwt beam="2">  1       21 0.37680372E-03 0.21256132E+02</pdfrwt>
<totfact> 0.13585264E+08</totfact>
</mgrwt>
</event>
<event>
 4    1  0.2769537E+004  0.2825951E+02  0.7546771E-02  0.1618165E+00
         21   -1    0    0  503  502  0.00000000000E+00  0.00000000000E+00  0.65198657893E+02  0.65198657893E+02  0.00000000000E+00 0. -1.
         21   -1    0    0  501  503 -0.00000000000E+00 -0.00000000000E+00 -0.15098418440E+02  0.15098418440E+02  0.00000000000E+00 0.  1.
          2    1    1    2  501    0 -0.24972567342E+02 -0.13227647690E+02  0.76078163158E+01  0.29265656530E+02  0.00000000000E+00 0.  1.
         -2    1    1    2    0  502  0.24972567342E+02  0.13227647690E+02  0.42492423137E+02  0.51031419803E+02  0.00000000000E+00 0. -1.
<mgrwt>
<rscale>  2 0.28259508E+02</rscale>
<asrwt>0</asrwt>
<pdfrwt beam="1">  1       21 0.10030563E-01 0.28259508E+02</pdfrwt>
<pdfrwt beam="2">  1       21 0.23228336E-02 0.28259508E+02</pdfrwt>
<totfact> 0.57976586E+07</totfact>
</mgrwt>
</event>
<event>
 4    1  0.2769537E+004  0.4272285E+02  0.7546771E-02  0.1489080E+00
         21   -1    0    0  503  502  0.00000000000E+00  0.00000000000E+00  0.40313735407E+02  0.40313735407E+02  0.00000000000E+00 0.  1.
         21   -1    0    0  501  503 -0.00000000000E+00 -0.00000000000E+00 -0.47158906822E+02  0.47158906822E+02  0.00000000000E+00 0. -1.
          2    1    1    2  501    0  0.24561571319E+02  0.34956705397E+02 -0.12162000850E+02  0.44420224026E+02  0.00000000000E+00 0. -1.
         -2    1    1    2    0  502 -0.24561571319E+02 -0.34956705397E+02  0.53168294354E+01  0.43052418203E+02  0.00000000000E+00 0.  1.
<mgrwt>
<rscale>  2 0.42722851E+02</rscale>
<asrwt>0</asrwt>
<pdfrwt beam="1">  1       21 0.62021131E-02 0.42722851E+02</pdfrwt>
<pdfrwt beam="2">  1       21 0.72552165E-02 0.42722851E+02</pdfrwt>
<totfact> 0.22446446E+07</totfact>
</mgrwt>
</event>
<event>
 4    1  0.2769537E+004  0.2331119E+02  0.7546771E-02  0.1686515E+00
         21   -1    0    0  503  502  0.00000000000E+00  0.00000000000E+00  0.14790816473E+02  0.14790816473E+02  0.00000000000E+00 0.  1.
         21   -1    0    0  501  503 -0.00000000000E+00 -0.00000000000E+00 -0.86920136869E+02  0.86920136869E+02  0.00000000000E+00 0. -1.
          2    1    1    2  501    0 -0.17245304922E+02 -0.15684732315E+02 -0.74705307553E+02  0.78257870827E+02  0.00000000000E+00 0. -1.
         -2    1    1    2    0  502  0.17245304922E+02  0.15684732315E+02  0.25759871578E+01  0.23453082516E+02  0.00000000000E+00 0.  1.
<mgrwt>
<rscale>  2 0.23311186E+02</rscale>
<asrwt>0</asrwt>
<pdfrwt beam="1">  1       21 0.22755102E-02 0.23311186E+02</pdfrwt>
<pdfrwt beam="2">  1       21 0.13372329E-01 0.23311186E+02</pdfrwt>
<totfact> 0.35299800E+07</totfact>
</mgrwt>
</event>
<event>
 4    1  0.2769537E+004  0.2046467E+02  0.7546771E-02  0.1736242E+00
         21   -1    0    0  501  502  0.00000000000E+00  0.00000000000E+00  0.37679634072E+02  0.37679634072E+02  0.00000000000E+00 0.  1.
         21   -1    0    0  502  503 -0.00000000000E+00 -0.00000000000E+00 -0.14648886662E+02  0.14648886662E+02  0.00000000000E+00 0. -1.
          2    1    1    2  501    0 -0.20247260863E+02 -0.29750884576E+01  0.24366550922E+02  0.31820300558E+02  0.00000000000E+00 0.  1.
         -2    1    1    2    0  503  0.20247260863E+02  0.29750884576E+01 -0.13358035108E+01  0.20508220176E+02  0.00000000000E+00 0. -1.
<mgrwt>
<rscale>  2 0.20464670E+02</rscale>
<asrwt>0</asrwt>
<pdfrwt beam="1">  1       21 0.57968667E-02 0.20464670E+02</pdfrwt>
<pdfrwt beam="2">  1       21 0.22536749E-02 0.20464670E+02</pdfrwt>
<totfact> 0.13603029E+08</totfact>
</mgrwt>
</event>
<event>
 4    1  0.2769537E+004  0.2089929E+02  0.7546771E-02  0.1728014E+00
         21   -1    0    0  503  502  0.00000000000E+00  0.00000000000E+00  0.59579641703E+02  0.59579641703E+02  0.00000000000E+00 0. -1.
         21   -1    0    0  501  503 -0.00000000000E+00 -0.00000000000E+00 -0.32424697007E+02  0.32424697007E+02  0.00000000000E+00 0.  1.
          2    1    1    2  501    0  0.91363063177E+01  0.18796492543E+02 -0.26891521063E+02  0.34057805716E+02  0.00000000000E+00 0.  1.
         -2    1    1    2    0  502 -0.91363063177E+01 -0.18796492543E+02  0.54046465759E+02  0.57946532994E+02  0.00000000000E+00 0. -1.
<mgrwt>
<rscale>  2 0.20899288E+02</rscale>
<asrwt>0</asrwt>
<pdfrwt beam="1">  1       21 0.91660987E-02 0.20899288E+02</pdfrwt>
<pdfrwt beam="2">  1       21 0.49884149E-02 0.20899288E+02</pdfrwt>
<totfact> 0.18910508E+07</totfact>
</mgrwt>
</event>
<event>
 4    1  0.2769537E+004  0.2794572E+02  0.7546771E-02  0.1621973E+00
         21   -1    0    0  501  502  0.00000000000E+00  0.00000000000E+00  0.96429254052E+03  0.96429254052E+03  0.00000000000E+00 0.  1.
         21   -1    0    0  502  503 -0.00000000000E+00 -0.00000000000E+00 -0.14500762607E+01  0.14500762607E+01  0.00000000000E+00 0. -1.
          2    1    1    2  501    0 -0.24486802847E+02 -0.13466988956E+02  0.80226367965E+03  0.80275025692E+03  0.00000000000E+00 0.  1.
         -2    1    1    2    0  503  0.24486802847E+02  0.13466988956E+02  0.16057878461E+03  0.16299235986E+03  0.00000000000E+00 0. -1.
<mgrwt>
<rscale>  2 0.27945721E+02</rscale>
<asrwt>0</asrwt>
<pdfrwt beam="1">  1       21 0.14835219E+00 0.27945721E+02</pdfrwt>
<pdfrwt beam="2">  1       21 0.22308943E-03 0.27945721E+02</pdfrwt>
<totfact> 0.10530485E+07</totfact>
</mgrwt>
</event>
<event>
 4    1  0.2769537E+004  0.2118462E+02  0.7546771E-02  0.1722747E+00
         21   -1    0    0  503  502  0.00000000000E+00  0.00000000000E+00  0.25152740935E+03  0.25152740935E+03  0.00000000000E+00 0. -1.
         21   -1    0    0  501  503 -0.00000000000E+00 -0.00000000000E+00 -0.21007212145E+01  0.21007212145E+01  0.00000000000E+00 0.  1.
          2    1    1    2  501    0 -0.15456836330E+02 -0.14487038806E+02  0.75492450271E+02  0.78408533532E+02  0.00000000000E+00 0.  1.
         -2    1    1    2    0  502  0.15456836330E+02  0.14487038806E+02  0.17393423787E+03  0.17521959704E+03  0.00000000000E+00 0. -1.
<mgrwt>
<rscale>  2 0.21184619E+02</rscale>
<asrwt>0</asrwt>
<pdfrwt beam="1">  1       21 0.38696501E-01 0.21184619E+02</pdfrwt>
<pdfrwt beam="2">  1       21 0.32318808E-03 0.21184619E+02</pdfrwt>
<totfact> 0.97361572E+07</totfact>
</mgrwt>
</event>
<event>
 4    1  0.2769537E+004  0.2889913E+02  0.7546771E-02  0.1610586E+00
         21   -1    0    0  501  502  0.00000000000E+00  0.00000000000E+00  0.21880740250E+02  0.21880740250E+02  0.00000000000E+00 0.  1.
         21   -1    0    0  502  503 -0.00000000000E+00 -0.00000000000E+00 -0.44022409287E+02  0.44022409287E+02  0.00000000000E+00 0. -1.
          2    1    1    2  501    0 -0.76024559351E+01 -0.27881220681E+02  0.94500669303E+00  0.28914578340E+02  0.00000000000E+00 0.  1.
         -2    1    1    2    0  503  0.76024559351E+01  0.27881220681E+02 -0.23086675730E+02  0.36988571197E+02  0.00000000000E+00 0. -1.
<mgrwt>
<rscale>  2 0.28899132E+02</rscale>
<asrwt>0</asrwt>
<pdfrwt beam="1">  1       21 0.33662678E-02 0.28899132E+02</pdfrwt>
<pdfrwt beam="2">  1       21 0.67726782E-02 0.28899132E+02</pdfrwt>
<totfact> 0.62313593E+07</totfact>
</mgrwt>
</event>
<event>
 4    1  0.2769537E+004  0.2357358E+02  0.7546771E-02  0.1682378E+00
         21   -1    0    0  501  502  0.00000000000E+00  0.00000000000E+00  0.11870524722E+01  0.11870524722E+01  0.00000000000E+00 0.  1.
         21   -1    0    0  502  503 -0.00000000000E+00 -0.00000000000E+00 -0.56563049246E+03  0.56563049246E+03  0.00000000000E+00 0. -1.
          2    1    1    2  501    0  0.23439263440E+02 -0.25129216990E+01 -0.16456555506E+03  0.16624540824E+03  0.00000000000E+00 0.  1.
         -2    1    1    2    0  503 -0.23439263440E+02  0.25129216990E+01 -0.39987788493E+03  0.40057213670E+03  0.00000000000E+00 0. -1.
<mgrwt>
<rscale>  2 0.23573584E+02</rscale>
<asrwt>0</asrwt>
<pdfrwt beam="1">  1       21 0.18262387E-03 0.23573584E+02</pdfrwt>
<pdfrwt beam="2">  1       21 0.87019880E-01 0.23573584E+02</pdfrwt>
<totfact> 0.45528815E+07</totfact>
</mgrwt>
</event>
<event>
 4    1  0.2769537E+004  0.2136006E+02  0.7546771E-02  0.1719560E+00
         21   -1    0    0  501  502  0.00000000000E+00  0.00000000000E+00  0.60879528902E+00  0.60879528902E+00  0.00000000000E+00 0.  1.
         21   -1    0    0  502  503 -0.00000000000E+00 -0.00000000000E+00 -0.79827392186E+03  0.79827392186E+03  0.00000000000E+00 0. -1.
          2    1    1    2  501    0 -0.89543314882E+01  0.19392575387E+02 -0.30003107457E+03  0.30079045487E+03  0.00000000000E+00 0.  1.
         -2    1    1    2    0  503  0.89543314882E+01 -0.19392575387E+02 -0.49763405200E+03  0.49809226228E+03  0.00000000000E+00 0. -1.
<mgrwt>
<rscale>  2 0.21360057E+02</rscale>
<asrwt>0</asrwt>
<pdfrwt beam="1">  1       21 0.93660799E-04 0.21360057E+02</pdfrwt>
<pdfrwt beam="2">  1       21 0.12281139E+00 0.21360057E+02</pdfrwt>
<totfact> 0.54284978E+07</totfact>
</mgrwt>
</event>
<event>
 4    1  0.2769537E+004  0.3411022E+02  0.7546771E-02  0.1556647E+00
         21   -1    0    0  501  502  0.00000000000E+00  0.00000000000E+00  0.25363021800E+01  0.25363021800E+01  0.00000000000E+00 0.  1.
         21   -1    0    0  502  503 -0.00000000000E+00 -0.00000000000E+00 -0.10326274641E+04  0.10326274641E+04  0.00000000000E+00 0. -1.
          2    1    1    2  501    0  0.39058367075E+01 -0.33885860330E+02 -0.12919422701E+03  0.13362131335E+03  0.00000000000E+00 0.  1.
         -2    1    1    2    0  503 -0.39058367075E+01  0.33885860330E+02 -0.90089693489E+03  0.90154245290E+03  0.00000000000E+00 0. -1.
<mgrwt>
<rscale>  2 0.34110220E+02</rscale>
<asrwt>0</asrwt>
<pdfrwt beam="1">  1       21 0.39019992E-03 0.34110220E+02</pdfrwt>
<pdfrwt beam="2">  1       21 0.15886593E+00 0.34110220E+02</pdfrwt>
<totfact> 0.39999294E+06</totfact>
</mgrwt>
</event>
<event>
 4    1  0.2769537E+004  0.2133491E+02  0.7546771E-02  0.1720015E+00
         21   -1    0    0  501  502  0.00000000000E+00  0.00000000000E+00  0.33175275188E+02  0.33175275188E+02  0.00000000000E+00 0. -1.
         21   -1    0    0  502  503 -0.00000000000E+00 -0.00000000000E+00 -0.23607264469E+02  0.23607264469E+02  0.00000000000E+00 0.  1.
          2    1    1    2  501    0 -0.43063932963E+01 -0.20895773888E+02  0.23157469549E+02  0.31487247982E+02  0.00000000000E+00 0. -1.
         -2    1    1    2    0  503  0.43063932963E+01  0.20895773888E+02 -0.13589458830E+02  0.25295291674E+02  0.00000000000E+00 0.  1.
<mgrwt>
<rscale>  2 0.21334910E+02</rscale>
<asrwt>0</asrwt>
<pdfrwt beam="1">  1       21 0.51038885E-02 0.21334910E+02</pdfrwt>
<pdfrwt beam="2">  1       21 0.36318868E-02 0.21334910E+02</pdfrwt>
<totfact> 0.80545122E+07</totfact>
</mgrwt>
</event>
<event>
 4    1  0.2769537E+004  0.2353990E+02  0.7546771E-02  0.1682905E+00
         21   -1    0    0  503  502  0.00000000000E+00  0.00000000000E+00  0.33422661042E+02  0.33422661042E+02  0.00000000000E+00 0. -1.
         21   -1    0    0  501  503 -0.00000000000E+00 -0.00000000000E+00 -0.47101337374E+02  0.47101337374E+02  0.00000000000E+00 0.  1.
          2    1    1    2  501    0 -0.18940712440E+02  0.13977703219E+02 -0.39249780252E+02  0.45767587055E+02  0.00000000000E+00 0.  1.
         -2    1    1    2    0  502  0.18940712440E+02 -0.13977703219E+02  0.25571103920E+02  0.34756411361E+02  0.00000000000E+00 0. -1.
<mgrwt>
<rscale>  2 0.23539898E+02</rscale>
<asrwt>0</asrwt>
<pdfrwt beam="1">  1       21 0.51419479E-02 0.23539898E+02</pdfrwt>
<pdfrwt beam="2">  1       21 0.72463596E-02 0.23539898E+02</pdfrwt>
<totfact> 0.27173629E+07</totfact>
</mgrwt>
</event>
<event>
 4    1  0.2769537E+004  0.2217643E+02  0.7546771E-02  0.1705218E+00
         21   -1    0    0  501  502  0.00000000000E+00  0.00000000000E+00  0.16999227196E+02  0.16999227196E+02  0.00000000000E+00 0. -1.
         21   -1    0    0  502  503 -0.00000000000E+00 -0.00000000000E+00 -0.29635447378E+02  0.29635447378E+02  0.00000000000E+00 0.  1.
          2    1    1    2  501    0  0.97276698148E+01 -0.19929037021E+02 -0.27215361722E+01  0.22342802772E+02  0.00000000000E+00 0. -1.
         -2    1    1    2    0  503 -0.97276698148E+01  0.19929037021E+02 -0.99146840104E+01  0.24291871802E+02  0.00000000000E+00 0.  1.
<mgrwt>
<rscale>  2 0.22176431E+02</rscale>
<asrwt>0</asrwt>
<pdfrwt beam="1">  1       21 0.26152657E-02 0.22176431E+02</pdfrwt>
<pdfrwt beam="2">  1       21 0.45592996E-02 0.22176431E+02</pdfrwt>
<totfact> 0.16240234E+08</totfact>
</mgrwt>
</event>
<event>
 4    1  0.2769537E+004  0.3454489E+02  0.7546771E-02  0.1552680E+00
         21   -1    0    0  501  502  0.00000000000E+00  0.00000000000E+00  0.11720985878E+03  0.11720985878E+03  0.00000000000E+00 0. -1.
         21   -1    0    0  502  503 -0.00000000000E+00 -0.00000000000E+00 -0.12156935331E+02  0.12156935331E+02  0.00000000000E+00 0.  1.
          2    1    1    2  501    0  0.34486414428E+02 -0.20091906065E+01  0.78602002430E+02  0.85858164510E+02  0.00000000000E+00 0.  1.
         -2    1    1    2    0  503 -0.34486414428E+02  0.20091906065E+01  0.26450921018E+02  0.43508629601E+02  0.00000000000E+00 0. -1.
<mgrwt>
<rscale>  2 0.34544893E+02</rscale>
<asrwt>0</asrwt>
<pdfrwt beam="1">  1       21 0.18032285E-01 0.34544893E+02</pdfrwt>
<pdfrwt beam="2">  1       21 0.18702978E-02 0.34544893E+02</pdfrwt>
<totfact> 0.31047784E+07</totfact>
</mgrwt>
</event>
<event>
 4    1  0.2769537E+004  0.2181925E+02  0.7546771E-02  0.1711397E+00
         21   -1    0    0  501  502  0.00000000000E+00  0.00000000000E+00  0.88476262845E+01  0.88476262845E+01  0.00000000000E+00 0. -1.
         21   -1    0    0  502  503 -0.00000000000E+00 -0.00000000000E+00 -0.13306910577E+03  0.13306910577E+03  0.00000000000E+00 0.  1.
          2    1    1    2  501    0  0.47683505127E+01  0.21291836606E+02 -0.73470035666E+01  0.23022987080E+02  0.00000000000E+00 0. -1.
         -2    1    1    2    0  503 -0.47683505127E+01 -0.21291836606E+02 -0.11687447592E+03  0.11889374498E+03  0.00000000000E+00 0.  1.
<mgrwt>
<rscale>  2 0.21819245E+02</rscale>
<asrwt>0</asrwt>
<pdfrwt beam="1">  1       21 0.13611733E-02 0.21819245E+02</pdfrwt>
<pdfrwt beam="2">  1       21 0.20472170E-01 0.21819245E+02</pdfrwt>
<totfact> 0.36667221E+07</totfact>
</mgrwt>
</event>
<event>
 4    1  0.2769537E+004  0.2107422E+02  0.7546771E-02  0.1724773E+00
         21   -1    0    0  503  502  0.00000000000E+00  0.00000000000E+00  0.24091530660E+03  0.24091530660E+03  0.00000000000E+00 0. -1.
         21   -1    0    0  501  503 -0.00000000000E+00 -0.00000000000E+00 -0.20837349723E+01  0.20837349723E+01  0.00000000000E+00 0.  1.
          2    1    1    2  501    0 -0.21056812086E+02  0.85634054717E+00  0.78159595368E+02  0.80950880183E+02  0.00000000000E+00 0.  1.
         -2    1    1    2    0  502  0.21056812086E+02 -0.85634054717E+00  0.16067197625E+03  0.16204816138E+03  0.00000000000E+00 0. -1.
<mgrwt>
<rscale>  2 0.21074218E+02</rscale>
<asrwt>0</asrwt>
<pdfrwt beam="1">  1       21 0.37063871E-01 0.21074218E+02</pdfrwt>
<pdfrwt beam="2">  1       21 0.32057480E-03 0.21074218E+02</pdfrwt>
<totfact> 0.10660688E+08</totfact>
</mgrwt>
</event>
<event>
 4    1  0.2769537E+004  0.2089920E+02  0.7546771E-02  0.1728016E+00
         21   -1    0    0  503  502  0.00000000000E+00  0.00000000000E+00  0.23323984223E+02  0.23323984223E+02  0.00000000000E+00 0. -1.
         21   -1    0    0  501  503 -0.00000000000E+00 -0.00000000000E+00 -0.21306298661E+02  0.21306298661E+02  0.00000000000E+00 0.  1.
          2    1    1    2  501    0  0.20343060592E+02 -0.47891893501E+01 -0.67561142429E+01  0.21964096352E+02  0.00000000000E+00 0.  1.
         -2    1    1    2    0  502 -0.20343060592E+02  0.47891893501E+01  0.87737998052E+01  0.22666186532E+02  0.00000000000E+00 0. -1.
<mgrwt>
<rscale>  2 0.20899197E+02</rscale>
<asrwt>0</asrwt>
<pdfrwt beam="1">  1       21 0.35883053E-02 0.20899197E+02</pdfrwt>
<pdfrwt beam="2">  1       21 0.32778921E-02 0.20899197E+02</pdfrwt>
<totfact> 0.16364873E+08</totfact>
</mgrwt>
</event>
<event>
 4    1  0.2769537E+004  0.2017588E+02  0.7546771E-02  0.1741853E+00
         21   -1    0    0  503  502  0.00000000000E+00  0.00000000000E+00  0.14804508368E+03  0.14804508368E+03  0.00000000000E+00 0.  1.
         21   -1    0    0  501  503 -0.00000000000E+00 -0.00000000000E+00 -0.31905276234E+02  0.31905276234E+02  0.00000000000E+00 0. -1.
          2    1    1    2  501    0  0.18437887412E+02 -0.81920918847E+01 -0.27940891590E+02  0.34463886671E+02  0.00000000000E+00 0. -1.
         -2    1    1    2    0  502 -0.18437887412E+02  0.81920918847E+01  0.14408069903E+03  0.14548647324E+03  0.00000000000E+00 0.  1.
<mgrwt>
<rscale>  2 0.20175878E+02</rscale>
<asrwt>0</asrwt>
<pdfrwt beam="1">  1       21 0.22776166E-01 0.20175878E+02</pdfrwt>
<pdfrwt beam="2">  1       21 0.49085041E-02 0.20175878E+02</pdfrwt>
<totfact> 0.41304539E+06</totfact>
</mgrwt>
</event>
<event>
 4    1  0.2769537E+004  0.2958054E+02  0.7546771E-02  0.1602772E+00
         21   -1    0    0  503  502  0.00000000000E+00  0.00000000000E+00  0.68114332550E+02  0.68114332550E+02  0.00000000000E+00 0.  1.
         21   -1    0    0  501  503 -0.00000000000E+00 -0.00000000000E+00 -0.22097508212E+02  0.22097508212E+02  0.00000000000E+00 0. -1.
          2    1    1    2  501    0  0.27657847415E+02 -0.10490556726E+02 -0.61768885897E+01  0.30218574697E+02  0.00000000000E+00 0. -1.
         -2    1    1    2    0  502 -0.27657847415E+02  0.10490556726E+02  0.52193712927E+02  0.59993266065E+02  0.00000000000E+00 0.  1.
<mgrwt>
<rscale>  2 0.29580539E+02</rscale>
<asrwt>0</asrwt>
<pdfrwt beam="1">  1       21 0.10479128E-01 0.29580539E+02</pdfrwt>
<pdfrwt beam="2">  1       21 0.33996167E-02 0.29580539E+02</pdfrwt>
<totfact> 0.29977628E+07</totfact>
</mgrwt>
</event>
<event>
 4    1  0.2769537E+004  0.2001605E+02  0.7546771E-02  0.1745009E+00
         21   -1    0    0  503  502  0.00000000000E+00  0.00000000000E+00  0.48768907981E+03  0.48768907981E+03  0.00000000000E+00 0.  1.
         21   -1    0    0  501  503 -0.00000000000E+00 -0.00000000000E+00 -0.34168838847E+01  0.34168838847E+01  0.00000000000E+00 0. -1.
          2    1    1    2  501    0 -0.13754470832E+02 -0.14541559979E+02  0.28128151675E+02  0.34522968458E+02  0.00000000000E+00 0. -1.
         -2    1    1    2    0  502  0.13754470832E+02  0.14541559979E+02  0.45614404425E+03  0.45658299524E+03  0.00000000000E+00 0.  1.
<mgrwt>
<rscale>  2 0.20016054E+02</rscale>
<asrwt>0</asrwt>
<pdfrwt beam="1">  1       21 0.75029034E-01 0.20016054E+02</pdfrwt>
<pdfrwt beam="2">  1       21 0.52567483E-03 0.20016054E+02</pdfrwt>
<totfact> 0.12889947E+07</totfact>
</mgrwt>
</event>
<event>
 4    1  0.2769537E+004  0.3272464E+02  0.7546771E-02  0.1569787E+00
         21   -1    0    0  501  502  0.00000000000E+00  0.00000000000E+00  0.21297274139E+02  0.21297274139E+02  0.00000000000E+00 0.  1.
         21   -1    0    0  502  503 -0.00000000000E+00 -0.00000000000E+00 -0.52466581802E+02  0.52466581802E+02  0.00000000000E+00 0. -1.
          2    1    1    2  501    0 -0.54611115255E+01 -0.32265740564E+02 -0.80613954409E+01  0.33702935327E+02  0.00000000000E+00 0.  1.
         -2    1    1    2    0  503  0.54611115255E+01  0.32265740564E+02 -0.23107912222E+02  0.40060920615E+02  0.00000000000E+00 0. -1.
<mgrwt>
<rscale>  2 0.32724635E+02</rscale>
<asrwt>0</asrwt>
<pdfrwt beam="1">  1       21 0.32765037E-02 0.32724635E+02</pdfrwt>
<pdfrwt beam="2">  1       21 0.80717818E-02 0.32724635E+02</pdfrwt>
<totfact> 0.50106850E+07</totfact>
</mgrwt>
</event>
<event>
 4    1  0.2769537E+004  0.2112569E+02  0.7546771E-02  0.1723827E+00
         21   -1    0    0  501  502  0.00000000000E+00  0.00000000000E+00  0.18241140300E+03  0.18241140300E+03  0.00000000000E+00 0. -1.
         21   -1    0    0  502  503 -0.00000000000E+00 -0.00000000000E+00 -0.15710028862E+02  0.15710028862E+02  0.00000000000E+00 0.  1.
          2    1    1    2  501    0  0.60292937646E+01  0.20247030820E+02  0.17437140520E+03  0.17564646764E+03  0.00000000000E+00 0. -1.
         -2    1    1    2    0  503 -0.60292937646E+01 -0.20247030820E+02 -0.76700310674E+01  0.22474964225E+02  0.00000000000E+00 0.  1.
<mgrwt>
<rscale>  2 0.21125687E+02</rscale>
<asrwt>0</asrwt>
<pdfrwt beam="1">  1       21 0.28063291E-01 0.21125687E+02</pdfrwt>
<pdfrwt beam="2">  1       21 0.24169277E-02 0.21125687E+02</pdfrwt>
<totfact> 0.86760607E+06</totfact>
</mgrwt>
</event>
<event>
 4    1  0.2769537E+004  0.7187982E+02  0.7546771E-02  0.1353815E+00
         21   -1    0    0  503  502  0.00000000000E+00  0.00000000000E+00  0.57957124989E+03  0.57957124989E+03  0.00000000000E+00 0. -1.
         21   -1    0    0  501  503 -0.00000000000E+00 -0.00000000000E+00 -0.94113630678E+01  0.94113630678E+01  0.00000000000E+00 0.  1.
          2    1    1    2  501    0  0.65083575275E+02 -0.30509611267E+02  0.21742899606E+03  0.22900235038E+03  0.00000000000E+00 0.  1.
         -2    1    1    2    0  502 -0.65083575275E+02  0.30509611267E+02  0.35273089076E+03  0.35998026258E+03  0.00000000000E+00 0. -1.
<mgrwt>
<rscale>  2 0.71879817E+02</rscale>
<asrwt>0</asrwt>
<pdfrwt beam="1">  1       21 0.89164780E-01 0.71879817E+02</pdfrwt>
<pdfrwt beam="2">  1       21 0.14479025E-02 0.71879817E+02</pdfrwt>
<totfact> 0.21877609E+06</totfact>
</mgrwt>
</event>
<event>
 4    1  0.2769537E+004  0.3244965E+02  0.7546771E-02  0.1572489E+00
         21   -1    0    0  501  502  0.00000000000E+00  0.00000000000E+00  0.97839228883E+01  0.97839228883E+01  0.00000000000E+00 0.  1.
         21   -1    0    0  502  503 -0.00000000000E+00 -0.00000000000E+00 -0.56195855507E+03  0.56195855507E+03  0.00000000000E+00 0. -1.
          2    1    1    2  501    0  0.32378265502E+02 -0.21512235542E+01 -0.19043918630E+02  0.37625133574E+02  0.00000000000E+00 0.  1.
         -2    1    1    2    0  503 -0.32378265502E+02  0.21512235542E+01 -0.53313071355E+03  0.53411734439E+03  0.00000000000E+00 0. -1.
<mgrwt>
<rscale>  2 0.32449651E+02</rscale>
<asrwt>0</asrwt>
<pdfrwt beam="1">  1       21 0.15052192E-02 0.32449651E+02</pdfrwt>
<pdfrwt beam="2">  1       21 0.86455147E-01 0.32449651E+02</pdfrwt>
<totfact> 0.21023701E+06</totfact>
</mgrwt>
</event>
<event>
 4    1  0.2769537E+004  0.2131246E+02  0.7546771E-02  0.1720421E+00
         21   -1    0    0  503  502  0.00000000000E+00  0.00000000000E+00  0.63977901679E+01  0.63977901679E+01  0.00000000000E+00 0.  1.
         21   -1    0    0  501  503 -0.00000000000E+00 -0.00000000000E+00 -0.27038298164E+03  0.27038298164E+03  0.00000000000E+00 0. -1.
          2    1    1    2  501    0  0.16856654425E+02 -0.13041248965E+02 -0.25083298182E+03  0.25173677868E+03  0.00000000000E+00 0. -1.
         -2    1    1    2    0  502 -0.16856654425E+02  0.13041248965E+02 -0.13152209655E+02  0.25043993128E+02  0.00000000000E+00 0.  1.
<mgrwt>
<rscale>  2 0.21312461E+02</rscale>
<asrwt>0</asrwt>
<pdfrwt beam="1">  1       21 0.98427527E-03 0.21312461E+02</pdfrwt>
<pdfrwt beam="2">  1       21 0.41597388E-01 0.21312461E+02</pdfrwt>
<totfact> 0.16456693E+07</totfact>
</mgrwt>
</event>
<event>
 4    1  0.2769537E+004  0.3663438E+02  0.7546771E-02  0.1534548E+00
         21   -1    0    0  501  502  0.00000000000E+00  0.00000000000E+00  0.46086367171E+03  0.46086367171E+03  0.00000000000E+00 0.  1.
         21   -1    0    0  502  503 -0.00000000000E+00 -0.00000000000E+00 -0.31251920268E+01  0.31251920268E+01  0.00000000000E+00 0. -1.
          2    1    1    2  501    0  0.31712770744E+02  0.18340616413E+02  0.28944928224E+03  0.29175840181E+03  0.00000000000E+00 0.  1.
         -2    1    1    2    0  503 -0.31712770744E+02 -0.18340616413E+02  0.16828919744E+03  0.17223046192E+03  0.00000000000E+00 0. -1.
<mgrwt>
<rscale>  2 0.36634383E+02</rscale>
<asrwt>0</asrwt>
<pdfrwt beam="1">  1       21 0.70902049E-01 0.36634383E+02</pdfrwt>
<pdfrwt beam="2">  1       21 0.48079914E-03 0.36634383E+02</pdfrwt>
<totfact> 0.18332595E+07</totfact>
</mgrwt>
</event>
<event>
 4    1  0.2769537E+004  0.2755961E+02  0.7546771E-02  0.1626744E+00
         21   -1    0    0  503  502  0.00000000000E+00  0.00000000000E+00  0.19966904350E+03  0.19966904350E+03  0.00000000000E+00 0.  1.
         21   -1    0    0  501  503 -0.00000000000E+00 -0.00000000000E+00 -0.42919111765E+01  0.42919111765E+01  0.00000000000E+00 0. -1.
          2    1    1    2  501    0 -0.12513113005E+02 -0.24555125013E+02  0.63302550772E+02  0.69041618577E+02  0.00000000000E+00 0. -1.
         -2    1    1    2    0  502  0.12513113005E+02  0.24555125013E+02  0.13207458155E+03  0.13491933610E+03  0.00000000000E+00 0.  1.
<mgrwt>
<rscale>  2 0.27559611E+02</rscale>
<asrwt>0</asrwt>
<pdfrwt beam="1">  1       21 0.30718307E-01 0.27559611E+02</pdfrwt>
<pdfrwt beam="2">  1       21 0.66029418E-03 0.27559611E+02</pdfrwt>
<totfact> 0.55584200E+07</totfact>
</mgrwt>
</event>
<event>
 4    1  0.2769537E+004  0.2828129E+02  0.7546771E-02  0.1617903E+00
         21   -1    0    0  501  502  0.00000000000E+00  0.00000000000E+00  0.35198960841E+02  0.35198960841E+02  0.00000000000E+00 0.  1.
         21   -1    0    0  502  503 -0.00000000000E+00 -0.00000000000E+00 -0.22208003943E+03  0.22208003943E+03  0.00000000000E+00 0. -1.
          2    1    1    2  501    0  0.20146280395E+02  0.19848396536E+02  0.28440233524E+02  0.40108332572E+02  0.00000000000E+00 0.  1.
         -2    1    1    2    0  503 -0.20146280395E+02 -0.19848396536E+02 -0.21532131212E+03  0.21717066770E+03  0.00000000000E+00 0. -1.
<mgrwt>
<rscale>  2 0.28281292E+02</rscale>
<asrwt>0</asrwt>
<pdfrwt beam="1">  1       21 0.54152247E-02 0.28281292E+02</pdfrwt>
<pdfrwt beam="2">  1       21 0.34166160E-01 0.28281292E+02</pdfrwt>
<totfact> 0.17735167E+06</totfact>
</mgrwt>
</event>
<event>
 4    1  0.2769537E+004  0.7152917E+02  0.7546771E-02  0.1354969E+00
         21   -1    0    0  503  502  0.00000000000E+00  0.00000000000E+00  0.70499483895E+01  0.70499483895E+01  0.00000000000E+00 0.  1.
         21   -1    0    0  501  503 -0.00000000000E+00 -0.00000000000E+00 -0.96246215635E+03  0.96246215635E+03  0.00000000000E+00 0. -1.
          2    1    1    2  501    0 -0.70635844128E+02  0.11269406663E+02 -0.71811572535E+03  0.72166932663E+03  0.00000000000E+00 0.  1.
         -2    1    1    2    0  502  0.70635844128E+02 -0.11269406663E+02 -0.23729648261E+03  0.24784277811E+03  0.00000000000E+00 0. -1.
<mgrwt>
<rscale>  2 0.71529169E+02</rscale>
<asrwt>0</asrwt>
<pdfrwt beam="1">  1       21 0.10846081E-02 0.71529169E+02</pdfrwt>
<pdfrwt beam="2">  1       21 0.14807101E+00 0.71529169E+02</pdfrwt>
<totfact> 0.10350363E+06</totfact>
</mgrwt>
</event>
<event>
 4    1  0.2769537E+004  0.2962073E+02  0.7546771E-02  0.1602319E+00
         21   -1    0    0  503  502  0.00000000000E+00  0.00000000000E+00  0.12893444583E+04  0.12893444583E+04  0.00000000000E+00 0.  1.
         21   -1    0    0  501  503 -0.00000000000E+00 -0.00000000000E+00 -0.23882136012E+01  0.23882136012E+01  0.00000000000E+00 0. -1.
          2    1    1    2  501    0  0.29620325213E+02 -0.15563104568E+00  0.97324686394E+02  0.10173240619E+03  0.00000000000E+00 0. -1.
         -2    1    1    2    0  502 -0.29620325213E+02  0.15563104568E+00  0.11896315583E+04  0.11900002658E+04  0.00000000000E+00 0.  1.
<mgrwt>
<rscale>  2 0.29620734E+02</rscale>
<asrwt>0</asrwt>
<pdfrwt beam="1">  1       21 0.19836013E+00 0.29620734E+02</pdfrwt>
<pdfrwt beam="2">  1       21 0.36741851E-03 0.29620734E+02</pdfrwt>
<totfact> 0.24657218E+06</totfact>
</mgrwt>
</event>
<event>
 4    1  0.2769537E+004  0.2182602E+02  0.7546771E-02  0.1711278E+00
         21   -1    0    0  503  502  0.00000000000E+00  0.00000000000E+00  0.64180327252E+01  0.64180327252E+01  0.00000000000E+00 0.  1.
         21   -1    0    0  501  503 -0.00000000000E+00 -0.00000000000E+00 -0.17489338283E+03  0.17489338283E+03  0.00000000000E+00 0. -1.
          2    1    1    2  501    0 -0.50121911731E+01  0.21242720710E+02 -0.15301671308E+03  0.15456548685E+03  0.00000000000E+00 0. -1.
         -2    1    1    2    0  502  0.50121911731E+01 -0.21242720710E+02 -0.15458637021E+02  0.26745928701E+02  0.00000000000E+00 0.  1.
<mgrwt>
<rscale>  2 0.21826022E+02</rscale>
<asrwt>0</asrwt>
<pdfrwt beam="1">  1       21 0.98738946E-03 0.21826022E+02</pdfrwt>
<pdfrwt beam="2">  1       21 0.26906679E-01 0.21826022E+02</pdfrwt>
<totfact> 0.36675321E+07</totfact>
</mgrwt>
</event>
<event>
 4    1  0.2769537E+004  0.3329237E+02  0.7546771E-02  0.1564310E+00
         21   -1    0    0  501  502  0.00000000000E+00  0.00000000000E+00  0.86426188005E+01  0.86426188005E+01  0.00000000000E+00 0. -1.
         21   -1    0    0  502  503 -0.00000000000E+00 -0.00000000000E+00 -0.17579863406E+03  0.17579863406E+03  0.00000000000E+00 0.  1.
          2    1    1    2  501    0 -0.15411534522E+02 -0.29510443675E+02 -0.35614890277E+02  0.48752457288E+02  0.00000000000E+00 0. -1.
         -2    1    1    2    0  503  0.15411534522E+02  0.29510443675E+02 -0.13154112498E+03  0.13568879557E+03  0.00000000000E+00 0.  1.
<mgrwt>
<rscale>  2 0.33292367E+02</rscale>
<asrwt>0</asrwt>
<pdfrwt beam="1">  1       21 0.13296337E-02 0.33292367E+02</pdfrwt>
<pdfrwt beam="2">  1       21 0.27045943E-01 0.33292367E+02</pdfrwt>
<totfact> 0.25270696E+07</totfact>
</mgrwt>
</event>
<event>
 4    1  0.2769537E+004  0.3906604E+02  0.7546771E-02  0.1515199E+00
         21   -1    0    0  501  502  0.00000000000E+00  0.00000000000E+00  0.35791998074E+03  0.35791998074E+03  0.00000000000E+00 0.  1.
         21   -1    0    0  502  503 -0.00000000000E+00 -0.00000000000E+00 -0.88637031543E+01  0.88637031543E+01  0.00000000000E+00 0. -1.
          2    1    1    2  501    0  0.47849094016E+01  0.38771901748E+02  0.30663923670E+03  0.30911774004E+03  0.00000000000E+00 0.  1.
         -2    1    1    2    0  503 -0.47849094016E+01 -0.38771901748E+02  0.42417040885E+02  0.57665943854E+02  0.00000000000E+00 0. -1.
<mgrwt>
<rscale>  2 0.39066043E+02</rscale>
<asrwt>0</asrwt>
<pdfrwt beam="1">  1       21 0.55064601E-01 0.39066043E+02</pdfrwt>
<pdfrwt beam="2">  1       21 0.13636469E-02 0.39066043E+02</pdfrwt>
<totfact> 0.63835515E+06</totfact>
</mgrwt>
</event>
<event>
 4    1  0.2769537E+004  0.2505887E+02  0.7546771E-02  0.1660158E+00
         21   -1    0    0  503  502  0.00000000000E+00  0.00000000000E+00  0.41886200515E+01  0.41886200515E+01  0.00000000000E+00 0. -1.
         21   -1    0    0  501  503 -0.00000000000E+00 -0.00000000000E+00 -0.15702981421E+03  0.15702981421E+03  0.00000000000E+00 0.  1.
          2    1    1    2  501    0  0.15069201807E+02  0.20021642947E+02 -0.93576048603E+02  0.96873236250E+02  0.00000000000E+00 0.  1.
         -2    1    1    2    0  502 -0.15069201807E+02 -0.20021642947E+02 -0.59265145557E+02  0.64345198013E+02  0.00000000000E+00 0. -1.
<mgrwt>
<rscale>  2 0.25058871E+02</rscale>
<asrwt>0</asrwt>
<pdfrwt beam="1">  1       21 0.64440307E-03 0.25058871E+02</pdfrwt>
<pdfrwt beam="2">  1       21 0.24158433E-01 0.25058871E+02</pdfrwt>
<totfact> 0.87049150E+07</totfact>
</mgrwt>
</event>
<event>
 4    1  0.2769537E+004  0.3252340E+02  0.7546771E-02  0.1571761E+00
         21   -1    0    0  501  502  0.00000000000E+00  0.00000000000E+00  0.80013020248E+01  0.80013020248E+01  0.00000000000E+00 0. -1.
         21   -1    0    0  502  503 -0.00000000000E+00 -0.00000000000E+00 -0.26026782153E+03  0.26026782153E+03  0.00000000000E+00 0.  1.
          2    1    1    2  501    0  0.20057449245E+02 -0.25602150983E+02 -0.32041710282E+02  0.45655696282E+02  0.00000000000E+00 0. -1.
         -2    1    1    2    0  503 -0.20057449245E+02  0.25602150983E+02 -0.22022480922E+03  0.22261342727E+03  0.00000000000E+00 0.  1.
<mgrwt>
<rscale>  2 0.32523398E+02</rscale>
<asrwt>0</asrwt>
<pdfrwt beam="1">  1       21 0.12309696E-02 0.32523398E+02</pdfrwt>
<pdfrwt beam="2">  1       21 0.40041201E-01 0.32523398E+02</pdfrwt>
<totfact> 0.13617377E+07</totfact>
</mgrwt>
</event>
<event>
 4    1  0.2769537E+004  0.2070560E+02  0.7546771E-02  0.1731650E+00
         21   -1    0    0  503  502  0.00000000000E+00  0.00000000000E+00  0.42535552349E+03  0.42535552349E+03  0.00000000000E+00 0. -1.
         21   -1    0    0  501  503 -0.00000000000E+00 -0.00000000000E+00 -0.10282762597E+01  0.10282762597E+01  0.00000000000E+00 0.  1.
          2    1    1    2  501    0 -0.17711750103E+02 -0.10724548699E+02  0.18216353563E+03  0.18333650959E+03  0.00000000000E+00 0.  1.
         -2    1    1    2    0  502  0.17711750103E+02  0.10724548699E+02  0.24216371160E+03  0.24304729016E+03  0.00000000000E+00 0. -1.
<mgrwt>
<rscale>  2 0.20705604E+02</rscale>
<asrwt>0</asrwt>
<pdfrwt beam="1">  1       21 0.65439171E-01 0.20705604E+02</pdfrwt>
<pdfrwt beam="2">  1       21 0.15819669E-03 0.20705604E+02</pdfrwt>
<totfact> 0.97942191E+07</totfact>
</mgrwt>
</event>
<event>
 4    1  0.2769537E+004  0.2276177E+02  0.7546771E-02  0.1695401E+00
         21   -1    0    0  503  502  0.00000000000E+00  0.00000000000E+00  0.37571551898E+02  0.37571551898E+02  0.00000000000E+00 0. -1.
         21   -1    0    0  501  503 -0.00000000000E+00 -0.00000000000E+00 -0.64441594194E+02  0.64441594194E+02  0.00000000000E+00 0.  1.
          2    1    1    2  501    0 -0.34108274403E+01 -0.22504765544E+02 -0.58656119444E+02  0.62917712643E+02  0.00000000000E+00 0.  1.
         -2    1    1    2    0  502  0.34108274403E+01  0.22504765544E+02  0.31786077149E+02  0.39095433449E+02  0.00000000000E+00 0. -1.
<mgrwt>
<rscale>  2 0.22761771E+02</rscale>
<asrwt>0</asrwt>
<pdfrwt beam="1">  1       21 0.57802388E-02 0.22761771E+02</pdfrwt>
<pdfrwt beam="2">  1       21 0.99140913E-02 0.22761771E+02</pdfrwt>
<totfact> 0.13386909E+07</totfact>
</mgrwt>
</event>
<event>
 4    1  0.2769537E+004  0.3333366E+02  0.7546771E-02  0.1563916E+00
         21   -1    0    0  503  502  0.00000000000E+00  0.00000000000E+00  0.65921736145E+00  0.65921736145E+00  0.00000000000E+00 0.  1.
         21   -1    0    0  501  503 -0.00000000000E+00 -0.00000000000E+00 -0.17486167957E+04  0.17486167957E+04  0.00000000000E+00 0. -1.
          2    1    1    2  501    0 -0.13520742416E+02 -0.30468381906E+02 -0.10401053689E+04  0.10406393761E+04  0.00000000000E+00 0. -1.
         -2    1    1    2    0  502  0.13520742416E+02  0.30468381906E+02 -0.70785220944E+03  0.70863663691E+03  0.00000000000E+00 0.  1.
<mgrwt>
<rscale>  2 0.33333658E+02</rscale>
<asrwt>0</asrwt>
<pdfrwt beam="1">  1       21 0.10141905E-03 0.33333658E+02</pdfrwt>
<pdfrwt beam="2">  1       21 0.26901533E+00 0.33333658E+02</pdfrwt>
<totfact> 0.68107944E+06</totfact>
</mgrwt>
</event>
<event>
 4    1  0.2769537E+004  0.2007161E+02  0.7546771E-02  0.1743908E+00
         21   -1    0    0  501  502  0.00000000000E+00  0.00000000000E+00  0.28668256763E+03  0.28668256763E+03  0.00000000000E+00 0. -1.
         21   -1    0    0  502  503 -0.00000000000E+00 -0.00000000000E+00 -0.28697161789E+01  0.28697161789E+01  0.00000000000E+00 0.  1.
          2    1    1    2  501    0  0.19129276651E+02  0.60778422754E+01  0.24532836861E+03  0.24614808112E+03  0.00000000000E+00 0. -1.
         -2    1    1    2    0  503 -0.19129276651E+02 -0.60778422754E+01  0.38484482839E+02  0.43404202692E+02  0.00000000000E+00 0.  1.
<mgrwt>
<rscale>  2 0.20071607E+02</rscale>
<asrwt>0</asrwt>
<pdfrwt beam="1">  1       21 0.44104988E-01 0.20071607E+02</pdfrwt>
<pdfrwt beam="2">  1       21 0.44149502E-03 0.20071607E+02</pdfrwt>
<totfact> 0.47591969E+07</totfact>
</mgrwt>
</event>
<event>
 4    1  0.2769537E+004  0.2084830E+02  0.7546771E-02  0.1728966E+00
         21   -1    0    0  501  502  0.00000000000E+00  0.00000000000E+00  0.13195219788E+03  0.13195219788E+03  0.00000000000E+00 0.  1.
         21   -1    0    0  502  503 -0.00000000000E+00 -0.00000000000E+00 -0.41169418703E+01  0.41169418703E+01  0.00000000000E+00 0. -1.
          2    1    1    2  501    0  0.37303695919E+01 -0.20511844251E+02  0.94335239717E+02  0.96611535876E+02  0.00000000000E+00 0.  1.
         -2    1    1    2    0  503 -0.37303695919E+01  0.20511844251E+02  0.33500016291E+02  0.39457603873E+02  0.00000000000E+00 0. -1.
<mgrwt>
<rscale>  2 0.20848295E+02</rscale>
<asrwt>0</asrwt>
<pdfrwt beam="1">  1       21 0.20300335E-01 0.20848295E+02</pdfrwt>
<pdfrwt beam="2">  1       21 0.63337577E-03 0.20848295E+02</pdfrwt>
<totfact> 0.11537969E+08</totfact>
</mgrwt>
</event>
<event>
 4    1  0.2769537E+004  0.2549399E+02  0.7546771E-02  0.1654006E+00
         21   -1    0    0  503  502  0.00000000000E+00  0.00000000000E+00  0.52906853022E+02  0.52906853022E+02  0.00000000000E+00 0.  1.
         21   -1    0    0  501  503 -0.00000000000E+00 -0.00000000000E+00 -0.39004619481E+02  0.39004619481E+02  0.00000000000E+00 0. -1.
          2    1    1    2  501    0 -0.17324732024E+02 -0.18702867905E+02 -0.31085288314E+02  0.40202472027E+02  0.00000000000E+00 0. -1.
         -2    1    1    2    0  502  0.17324732024E+02  0.18702867905E+02  0.44987521855E+02  0.51709000476E+02  0.00000000000E+00 0.  1.
<mgrwt>
<rscale>  2 0.25493992E+02</rscale>
<asrwt>0</asrwt>
<pdfrwt beam="1">  1       21 0.81395159E-02 0.25493992E+02</pdfrwt>
<pdfrwt beam="2">  1       21 0.60007107E-02 0.25493992E+02</pdfrwt>
<totfact> 0.17851304E+07</totfact>
</mgrwt>
</event>
<event>
 4    1  0.2769537E+004  0.3672063E+02  0.7546771E-02  0.1533831E+00
         21   -1    0    0  501  502  0.00000000000E+00  0.00000000000E+00  0.99419151712E+02  0.99419151712E+02  0.00000000000E+00 0.  1.
         21   -1    0    0  502  503 -0.00000000000E+00 -0.00000000000E+00 -0.14622737369E+02  0.14622737369E+02  0.00000000000E+00 0. -1.
          2    1    1    2  501    0 -0.31290755833E+02  0.19217000585E+02  0.57749859928E+02  0.68435742370E+02  0.00000000000E+00 0.  1.
         -2    1    1    2    0  503  0.31290755833E+02 -0.19217000585E+02  0.27046554415E+02  0.45606146711E+02  0.00000000000E+00 0. -1.
<mgrwt>
<rscale>  2 0.36720628E+02</rscale>
<asrwt>0</asrwt>
<pdfrwt beam="1">  1       21 0.15295254E-01 0.36720628E+02</pdfrwt>
<pdfrwt beam="2">  1       21 0.22496520E-02 0.36720628E+02</pdfrwt>
<totfact> 0.31383775E+07</totfact>
</mgrwt>
</event>
<event>
 4    1  0.2769537E+004  0.2564140E+02  0.7546771E-02  0.1651957E+00
         21   -1    0    0  503  502  0.00000000000E+00  0.00000000000E+00  0.30817855263E+00  0.30817855263E+00  0.00000000000E+00 0. -1.
         21   -1    0    0  501  503 -0.00000000000E+00 -0.00000000000E+00 -0.21354462983E+04  0.21354462983E+04  0.00000000000E+00 0.  1.
          2    1    1    2  501    0  0.65202412396E+01 -0.24798544072E+02 -0.11002778573E+04  0.11005765964E+04  0.00000000000E+00 0.  1.
         -2    1    1    2    0  502 -0.65202412396E+01  0.24798544072E+02 -0.10348602625E+04  0.10351778805E+04  0.00000000000E+00 0. -1.
<mgrwt>
<rscale>  2 0.25641399E+02</rscale>
<asrwt>0</asrwt>
<pdfrwt beam="1">  1       21 0.47412646E-04 0.25641399E+02</pdfrwt>
<pdfrwt beam="2">  1       21 0.32852631E+00 0.25641399E+02</pdfrwt>
<totfact> 0.10161688E+07</totfact>
</mgrwt>
</event>
<event>
 4    1  0.2769537E+004  0.2355390E+02  0.7546771E-02  0.1682686E+00
         21   -1    0    0  501  502  0.00000000000E+00  0.00000000000E+00  0.48959931557E+01  0.48959931557E+01  0.00000000000E+00 0. -1.
         21   -1    0    0  502  503 -0.00000000000E+00 -0.00000000000E+00 -0.19403870857E+03  0.19403870857E+03  0.00000000000E+00 0.  1.
          2    1    1    2  501    0  0.21728692108E+02 -0.90912183981E+01 -0.30415155392E+02  0.38469052369E+02  0.00000000000E+00 0. -1.
         -2    1    1    2    0  503 -0.21728692108E+02  0.90912183981E+01 -0.15872756002E+03  0.16046564936E+03  0.00000000000E+00 0.  1.
<mgrwt>
<rscale>  2 0.23553902E+02</rscale>
<asrwt>0</asrwt>
<pdfrwt beam="1">  1       21 0.75322966E-03 0.23553902E+02</pdfrwt>
<pdfrwt beam="2">  1       21 0.29852111E-01 0.23553902E+02</pdfrwt>
<totfact> 0.46410175E+07</totfact>
</mgrwt>
</event>
<event>
 4    1  0.2769537E+004  0.2657537E+02  0.7546771E-02  0.1639354E+00
         21   -1    0    0  501  502  0.00000000000E+00  0.00000000000E+00  0.62676468763E+03  0.62676468763E+03  0.00000000000E+00 0.  1.
         21   -1    0    0  502  503 -0.00000000000E+00 -0.00000000000E+00 -0.20324733033E+01  0.20324733033E+01  0.00000000000E+00 0. -1.
          2    1    1    2  501    0  0.26552260699E+02  0.11080429262E+01  0.52223564141E+03  0.52291138395E+03  0.00000000000E+00 0.  1.
         -2    1    1    2    0  503 -0.26552260699E+02 -0.11080429262E+01  0.10249657291E+03  0.10588577698E+03  0.00000000000E+00 0. -1.
<mgrwt>
<rscale>  2 0.26575370E+02</rscale>
<asrwt>0</asrwt>
<pdfrwt beam="1">  1       21 0.96425182E-01 0.26575370E+02</pdfrwt>
<pdfrwt beam="2">  1       21 0.31268870E-03 0.26575370E+02</pdfrwt>
<totfact> 0.17082538E+07</totfact>
</mgrwt>
</event>
<event>
 4    1  0.2769537E+004  0.2445002E+02  0.7546771E-02  0.1669029E+00
         21   -1    0    0  501  502  0.00000000000E+00  0.00000000000E+00  0.15432839074E+02  0.15432839074E+02  0.00000000000E+00 0. -1.
         21   -1    0    0  502  503 -0.00000000000E+00 -0.00000000000E+00 -0.42951655099E+02  0.42951655099E+02  0.00000000000E+00 0.  1.
          2    1    1    2  501    0 -0.15373987643E+02 -0.19011679833E+02 -0.46136420404E+01  0.24881502346E+02  0.00000000000E+00 0.  1.
         -2    1    1    2    0  503  0.15373987643E+02  0.19011679833E+02 -0.22905173984E+02  0.33502991827E+02  0.00000000000E+00 0. -1.
<mgrwt>
<rscale>  2 0.24450020E+02</rscale>
<asrwt>0</asrwt>
<pdfrwt beam="1">  1       21 0.23742829E-02 0.24450020E+02</pdfrwt>
<pdfrwt beam="2">  1       21 0.66079470E-02 0.24450020E+02</pdfrwt>
<totfact> 0.10722264E+08</totfact>
</mgrwt>
</event>
<event>
 4    1  0.2769537E+004  0.2606645E+02  0.7546771E-02  0.1646140E+00
         21   -1    0    0  503  502  0.00000000000E+00  0.00000000000E+00  0.69103164888E+02  0.69103164888E+02  0.00000000000E+00 0.  1.
         21   -1    0    0  501  503 -0.00000000000E+00 -0.00000000000E+00 -0.19587038362E+02  0.19587038362E+02  0.00000000000E+00 0. -1.
          2    1    1    2  501    0  0.25405567146E+02 -0.58324289167E+01 -0.65361182400E+01  0.26873423874E+02  0.00000000000E+00 0. -1.
         -2    1    1    2    0  502 -0.25405567146E+02  0.58324289167E+01  0.56052244766E+02  0.61816779376E+02  0.00000000000E+00 0.  1.
<mgrwt>
<rscale>  2 0.26066455E+02</rscale>
<asrwt>0</asrwt>
<pdfrwt beam="1">  1       21 0.10631256E-01 0.26066455E+02</pdfrwt>
<pdfrwt beam="2">  1       21 0.30133905E-02 0.26066455E+02</pdfrwt>
<totfact> 0.34416221E+07</totfact>
</mgrwt>
</event>
<event>
 4    1  0.2769537E+004  0.2350043E+02  0.7546771E-02  0.1683524E+00
         21   -1    0    0  501  502  0.00000000000E+00  0.00000000000E+00  0.35409643585E+02  0.35409643585E+02  0.00000000000E+00 0.  1.
         21   -1    0    0  502  503 -0.00000000000E+00 -0.00000000000E+00 -0.22980938749E+02  0.22980938749E+02  0.00000000000E+00 0. -1.
          2    1    1    2  501    0 -0.20039797016E+02  0.12275051574E+02  0.22763837196E+02  0.32717925354E+02  0.00000000000E+00 0.  1.
         -2    1    1    2    0  503  0.20039797016E+02 -0.12275051574E+02 -0.10335132360E+02  0.25672656981E+02  0.00000000000E+00 0. -1.
<mgrwt>
<rscale>  2 0.23500433E+02</rscale>
<asrwt>0</asrwt>
<pdfrwt beam="1">  1       21 0.54476374E-02 0.23500433E+02</pdfrwt>
<pdfrwt beam="2">  1       21 0.35355291E-02 0.23500433E+02</pdfrwt>
<totfact> 0.77803859E+07</totfact>
</mgrwt>
</event>
<event>
 4    1  0.2769537E+004  0.2054601E+02  0.7546771E-02  0.1734683E+00
         21   -1    0    0  503  502  0.00000000000E+00  0.00000000000E+00  0.10377077746E+03  0.10377077746E+03  0.00000000000E+00 0.  1.
         21   -1    0    0  501  503 -0.00000000000E+00 -0.00000000000E+00 -0.12632703040E+02  0.12632703040E+02  0.00000000000E+00 0. -1.
          2    1    1    2  501    0  0.71938121778E+01 -0.19245458328E+02 -0.23539859331E+01  0.20680421893E+02  0.00000000000E+00 0. -1.
         -2    1    1    2    0  502 -0.71938121778E+01  0.19245458328E+02  0.93492060349E+02  0.95723058602E+02  0.00000000000E+00 0.  1.
<mgrwt>
<rscale>  2 0.20546012E+02</rscale>
<asrwt>0</asrwt>
<pdfrwt beam="1">  1       21 0.15964734E-01 0.20546012E+02</pdfrwt>
<pdfrwt beam="2">  1       21 0.19434928E-02 0.20546012E+02</pdfrwt>
<totfact> 0.32285488E+07</totfact>
</mgrwt>
</event>
<event>
 4    1  0.2769537E+004  0.2031975E+02  0.7546771E-02  0.1739043E+00
         21   -1    0    0  503  502  0.00000000000E+00  0.00000000000E+00  0.16244264284E+02  0.16244264284E+02  0.00000000000E+00 0. -1.
         21   -1    0    0  501  503 -0.00000000000E+00 -0.00000000000E+00 -0.60687955467E+02  0.60687955467E+02  0.00000000000E+00 0.  1.
          2    1    1    2  501    0 -0.18128823322E+02 -0.91781317546E+01 -0.51546380114E+02  0.55406873584E+02  0.00000000000E+00 0.  1.
         -2    1    1    2    0  502  0.18128823322E+02  0.91781317546E+01  0.71026889304E+01  0.21525346167E+02  0.00000000000E+00 0. -1.
<mgrwt>
<rscale>  2 0.20319752E+02</rscale>
<asrwt>0</asrwt>
<pdfrwt beam="1">  1       21 0.24991176E-02 0.20319752E+02</pdfrwt>
<pdfrwt beam="2">  1       21 0.93366084E-02 0.20319752E+02</pdfrwt>
<totfact> 0.53606271E+07</totfact>
</mgrwt>
</event>
<event>
 4    1  0.2769537E+004  0.2498356E+02  0.7546771E-02  0.1661238E+00
         21   -1    0    0  501  502  0.00000000000E+00  0.00000000000E+00  0.92488165877E+01  0.92488165877E+01  0.00000000000E+00 0. -1.
         21   -1    0    0  502  503 -0.00000000000E+00 -0.00000000000E+00 -0.70770703347E+02  0.70770703347E+02  0.00000000000E+00 0.  1.
          2    1    1    2  501    0  0.24575680710E+02  0.44959991319E+01 -0.39378779422E+02  0.46635462465E+02  0.00000000000E+00 0.  1.
         -2    1    1    2    0  503 -0.24575680710E+02 -0.44959991319E+01 -0.22143107337E+02  0.33384057470E+02  0.00000000000E+00 0. -1.
<mgrwt>
<rscale>  2 0.24983556E+02</rscale>
<asrwt>0</asrwt>
<pdfrwt beam="1">  1       21 0.14228948E-02 0.24983556E+02</pdfrwt>
<pdfrwt beam="2">  1       21 0.10887801E-01 0.24983556E+02</pdfrwt>
<totfact> 0.10415484E+08</totfact>
</mgrwt>
</event>
<event>
 4    1  0.2769537E+004  0.3890256E+02  0.7546771E-02  0.1516446E+00
         21   -1    0    0  501  502  0.00000000000E+00  0.00000000000E+00  0.28223761039E+04  0.28223761039E+04  0.00000000000E+00 0.  1.
         21   -1    0    0  502  503 -0.00000000000E+00 -0.00000000000E+00 -0.15686560699E+01  0.15686560699E+01  0.00000000000E+00 0. -1.
          2    1    1    2  501    0  0.49898714602E+00  0.38899355960E+02  0.25559017324E+04  0.25561977768E+04  0.00000000000E+00 0.  1.
         -2    1    1    2    0  503 -0.49898714602E+00 -0.38899355960E+02  0.26490571550E+03  0.26774698315E+03  0.00000000000E+00 0. -1.
<mgrwt>
<rscale>  2 0.38902556E+02</rscale>
<asrwt>0</asrwt>
<pdfrwt beam="1">  1       21 0.43420764E+00 0.38902556E+02</pdfrwt>
<pdfrwt beam="2">  1       21 0.24133396E-03 0.38902556E+02</pdfrwt>
<totfact> 0.24800651E+05</totfact>
</mgrwt>
</event>
<event>
 4    1  0.2769537E+004  0.6960038E+02  0.7546771E-02  0.1361457E+00
         21   -1    0    0  503  502  0.00000000000E+00  0.00000000000E+00  0.10768523238E+02  0.10768523238E+02  0.00000000000E+00 0.  1.
         21   -1    0    0  501  503 -0.00000000000E+00 -0.00000000000E+00 -0.71648936820E+03  0.71648936820E+03  0.00000000000E+00 0. -1.
          2    1    1    2  501    0  0.21038730705E+02  0.66344436746E+02 -0.57468838479E+03  0.57888768521E+03  0.00000000000E+00 0. -1.
         -2    1    1    2    0  502 -0.21038730705E+02 -0.66344436746E+02 -0.13103246017E+03  0.14837020622E+03  0.00000000000E+00 0.  1.
<mgrwt>
<rscale>  2 0.69600377E+02</rscale>
<asrwt>0</asrwt>
<pdfrwt beam="1">  1       21 0.16566954E-02 0.69600377E+02</pdfrwt>
<pdfrwt beam="2">  1       21 0.11022917E+00 0.69600377E+02</pdfrwt>
<totfact> 0.10879883E+06</totfact>
</mgrwt>
</event>
<event>
 4    1  0.2769537E+004  0.2340804E+02  0.7546771E-02  0.1684980E+00
         21   -1    0    0  503  502  0.00000000000E+00  0.00000000000E+00  0.12032675485E+01  0.12032675485E+01  0.00000000000E+00 0.  1.
         21   -1    0    0  501  503 -0.00000000000E+00 -0.00000000000E+00 -0.45538577292E+03  0.45538577292E+03  0.00000000000E+00 0. -1.
          2    1    1    2  501    0  0.99141905105E+01 -0.21204835506E+02 -0.22590878982E+03  0.22711828975E+03  0.00000000000E+00 0.  1.
         -2    1    1    2    0  502 -0.99141905105E+01  0.21204835506E+02 -0.22827371555E+03  0.22947075071E+03  0.00000000000E+00 0. -1.
<mgrwt>
<rscale>  2 0.23408038E+02</rscale>
<asrwt>0</asrwt>
<pdfrwt beam="1">  1       21 0.18511805E-03 0.23408038E+02</pdfrwt>
<pdfrwt beam="2">  1       21 0.70059361E-01 0.23408038E+02</pdfrwt>
<totfact> 0.70140126E+07</totfact>
</mgrwt>
</event>
<event>
 4    1  0.2769537E+004  0.2023644E+02  0.7546771E-02  0.1740667E+00
         21   -1    0    0  503  502  0.00000000000E+00  0.00000000000E+00  0.43376710237E+02  0.43376710237E+02  0.00000000000E+00 0. -1.
         21   -1    0    0  501  503 -0.00000000000E+00 -0.00000000000E+00 -0.97523948457E+01  0.97523948457E+01  0.00000000000E+00 0.  1.
          2    1    1    2  501    0 -0.17893163573E+02  0.94524155164E+01  0.21560040284E+02  0.29569389558E+02  0.00000000000E+00 0.  1.
         -2    1    1    2    0  502  0.17893163573E+02 -0.94524155164E+01  0.12064275107E+02  0.23559715525E+02  0.00000000000E+00 0. -1.
<mgrwt>
<rscale>  2 0.20236439E+02</rscale>
<asrwt>0</asrwt>
<pdfrwt beam="1">  1       21 0.66733399E-02 0.20236439E+02</pdfrwt>
<pdfrwt beam="2">  1       21 0.15003685E-02 0.20236439E+02</pdfrwt>
<totfact> 0.20105057E+08</totfact>
</mgrwt>
</event>
<event>
 4    1  0.2769537E+004  0.3055863E+02  0.7546771E-02  0.1591995E+00
         21   -1    0    0  501  502  0.00000000000E+00  0.00000000000E+00  0.42971527668E+02  0.42971527668E+02  0.00000000000E+00 0. -1.
         21   -1    0    0  502  503 -0.00000000000E+00 -0.00000000000E+00 -0.22165156306E+02  0.22165156306E+02  0.00000000000E+00 0.  1.
          2    1    1    2  501    0  0.13358317668E+02  0.27484276736E+02  0.14959343256E+02  0.34023698642E+02  0.00000000000E+00 0. -1.
         -2    1    1    2    0  503 -0.13358317668E+02 -0.27484276736E+02  0.58470281064E+01  0.31112985332E+02  0.00000000000E+00 0.  1.
<mgrwt>
<rscale>  2 0.30558634E+02</rscale>
<asrwt>0</asrwt>
<pdfrwt beam="1">  1       21 0.66110042E-02 0.30558634E+02</pdfrwt>
<pdfrwt beam="2">  1       21 0.34100241E-02 0.30558634E+02</pdfrwt>
<totfact> 0.64333758E+07</totfact>
</mgrwt>
</event>
<event>
 4    1  0.2769537E+004  0.2171908E+02  0.7546771E-02  0.1713156E+00
         21   -1    0    0  503  502  0.00000000000E+00  0.00000000000E+00  0.17182306316E+03  0.17182306316E+03  0.00000000000E+00 0.  1.
         21   -1    0    0  501  503 -0.00000000000E+00 -0.00000000000E+00 -0.38463641662E+01  0.38463641662E+01  0.00000000000E+00 0. -1.
          2    1    1    2  501    0 -0.21336258248E+02  0.40598722261E+01  0.36995388006E+02  0.42899617856E+02  0.00000000000E+00 0. -1.
         -2    1    1    2    0  502  0.21336258248E+02 -0.40598722261E+01  0.13098131099E+03  0.13276980947E+03  0.00000000000E+00 0.  1.
<mgrwt>
<rscale>  2 0.21719081E+02</rscale>
<asrwt>0</asrwt>
<pdfrwt beam="1">  1       21 0.26434311E-01 0.21719081E+02</pdfrwt>
<pdfrwt beam="2">  1       21 0.59174847E-03 0.21719081E+02</pdfrwt>
<totfact> 0.81003240E+07</totfact>
</mgrwt>
</event>
<event>
 4    1  0.2769537E+004  0.3439077E+02  0.7546771E-02  0.1554078E+00
         21   -1    0    0  503  502  0.00000000000E+00  0.00000000000E+00  0.25592311205E+01  0.25592311205E+01  0.00000000000E+00 0. -1.
         21   -1    0    0  501  503 -0.00000000000E+00 -0.00000000000E+00 -0.50128921557E+03  0.50128921557E+03  0.00000000000E+00 0.  1.
          2    1    1    2  501    0  0.43269726174E+01  0.34117477044E+02 -0.31976670817E+03  0.32161074700E+03  0.00000000000E+00 0.  1.
         -2    1    1    2    0  502 -0.43269726174E+01 -0.34117477044E+02 -0.17896327628E+03  0.18223769969E+03  0.00000000000E+00 0. -1.
<mgrwt>
<rscale>  2 0.34390768E+02</rscale>
<asrwt>0</asrwt>
<pdfrwt beam="1">  1       21 0.39372768E-03 0.34390768E+02</pdfrwt>
<pdfrwt beam="2">  1       21 0.77121454E-01 0.34390768E+02</pdfrwt>
<totfact> 0.20487288E+07</totfact>
</mgrwt>
</event>
<event>
 4    1  0.2769537E+004  0.2195293E+02  0.7546771E-02  0.1709067E+00
         21   -1    0    0  503  502  0.00000000000E+00  0.00000000000E+00  0.16104287195E+04  0.16104287195E+04  0.00000000000E+00 0.  1.
         21   -1    0    0  501  503 -0.00000000000E+00 -0.00000000000E+00 -0.23476203997E+01  0.23476203997E+01  0.00000000000E+00 0. -1.
          2    1    1    2  501    0 -0.92596305298E+01 -0.19904537023E+02  0.50799879104E+02  0.55340392740E+02  0.00000000000E+00 0. -1.
         -2    1    1    2    0  502  0.92596305298E+01  0.19904537023E+02  0.15572812200E+04  0.15574359471E+04  0.00000000000E+00 0.  1.
<mgrwt>
<rscale>  2 0.21952935E+02</rscale>
<asrwt>0</asrwt>
<pdfrwt beam="1">  1       21 0.24775738E+00 0.21952935E+02</pdfrwt>
<pdfrwt beam="2">  1       21 0.36117366E-03 0.21952935E+02</pdfrwt>
<totfact> 0.13685123E+06</totfact>
</mgrwt>
</event>
<event>
 4    1  0.2769537E+004  0.3003119E+02  0.7546771E-02  0.1597744E+00
         21   -1    0    0  501  502  0.00000000000E+00  0.00000000000E+00  0.28826597656E+02  0.28826597656E+02  0.00000000000E+00 0.  1.
         21   -1    0    0  502  503 -0.00000000000E+00 -0.00000000000E+00 -0.79278016728E+02  0.79278016728E+02  0.00000000000E+00 0. -1.
          2    1    1    2  501    0 -0.22511637697E+02 -0.19877090559E+02  0.16829691499E+02  0.34425442290E+02  0.00000000000E+00 0.  1.
         -2    1    1    2    0  503  0.22511637697E+02  0.19877090559E+02 -0.67281110571E+02  0.73679172095E+02  0.00000000000E+00 0. -1.
<mgrwt>
<rscale>  2 0.30031193E+02</rscale>
<asrwt>0</asrwt>
<pdfrwt beam="1">  1       21 0.44348612E-02 0.30031193E+02</pdfrwt>
<pdfrwt beam="2">  1       21 0.12196618E-01 0.30031193E+02</pdfrwt>
<totfact> 0.15256668E+07</totfact>
</mgrwt>
</event>
<event>
 4    1  0.2769537E+004  0.2434693E+02  0.7546771E-02  0.1670563E+00
         21   -1    0    0  503  502  0.00000000000E+00  0.00000000000E+00  0.46552657423E+02  0.46552657423E+02  0.00000000000E+00 0. -1.
         21   -1    0    0  501  503 -0.00000000000E+00 -0.00000000000E+00 -0.41847436799E+02  0.41847436799E+02  0.00000000000E+00 0.  1.
          2    1    1    2  501    0  0.19647235318E+02  0.14379127124E+02 -0.34514541515E+02  0.42237740570E+02  0.00000000000E+00 0.  1.
         -2    1    1    2    0  502 -0.19647235318E+02 -0.14379127124E+02  0.39219762139E+02  0.46162353652E+02  0.00000000000E+00 0. -1.
<mgrwt>
<rscale>  2 0.24346933E+02</rscale>
<asrwt>0</asrwt>
<pdfrwt beam="1">  1       21 0.71619473E-02 0.24346933E+02</pdfrwt>
<pdfrwt beam="2">  1       21 0.64380672E-02 0.24346933E+02</pdfrwt>
<totfact> 0.19454481E+07</totfact>
</mgrwt>
</event>
<event>
 4    1  0.2769537E+004  0.3324890E+02  0.7546771E-02  0.1564724E+00
         21   -1    0    0  503  502  0.00000000000E+00  0.00000000000E+00  0.13084163878E+02  0.13084163878E+02  0.00000000000E+00 0.  1.
         21   -1    0    0  501  503 -0.00000000000E+00 -0.00000000000E+00 -0.48499320277E+03  0.48499320277E+03  0.00000000000E+00 0. -1.
          2    1    1    2  501    0  0.21973969184E+02  0.24952636526E+02 -0.46226342003E+03  0.46345761283E+03  0.00000000000E+00 0. -1.
         -2    1    1    2    0  502 -0.21973969184E+02 -0.24952636526E+02 -0.96456188635E+01  0.34619753820E+02  0.00000000000E+00 0.  1.
<mgrwt>
<rscale>  2 0.33248901E+02</rscale>
<asrwt>0</asrwt>
<pdfrwt beam="1">  1       21 0.20129485E-02 0.33248901E+02</pdfrwt>
<pdfrwt beam="2">  1       21 0.74614332E-01 0.33248901E+02</pdfrwt>
<totfact> 0.18396097E+06</totfact>
</mgrwt>
</event>
<event>
 4    1  0.2769537E+004  0.8137083E+02  0.7546771E-02  0.1325206E+00
         21   -1    0    0  503  502  0.00000000000E+00  0.00000000000E+00  0.33838587437E+03  0.33838587437E+03  0.00000000000E+00 0. -1.
         21   -1    0    0  501  503 -0.00000000000E+00 -0.00000000000E+00 -0.66485079793E+02  0.66485079793E+02  0.00000000000E+00 0.  1.
          2    1    1    2  501    0  0.30985835499E+02  0.75240211023E+02 -0.34106573440E+02  0.88229641891E+02  0.00000000000E+00 0.  1.
         -2    1    1    2    0  502 -0.30985835499E+02 -0.75240211023E+02  0.30600736802E+03  0.31664131227E+03  0.00000000000E+00 0. -1.
<mgrwt>
<rscale>  2 0.81370826E+02</rscale>
<asrwt>0</asrwt>
<pdfrwt beam="1">  1       21 0.52059364E-01 0.81370826E+02</pdfrwt>
<pdfrwt beam="2">  1       21 0.10228474E-01 0.81370826E+02</pdfrwt>
<totfact> 0.27984165E+05</totfact>
</mgrwt>
</event>
<event>
 4    1  0.2769537E+004  0.3097639E+02  0.7546771E-02  0.1587540E+00
         21   -1    0    0  503  502  0.00000000000E+00  0.00000000000E+00  0.38973444806E+02  0.38973444806E+02  0.00000000000E+00 0. -1.
         21   -1    0    0  501  503 -0.00000000000E+00 -0.00000000000E+00 -0.25716210852E+02  0.25716210852E+02  0.00000000000E+00 0.  1.
          2    1    1    2  501    0 -0.25861671097E+02  0.17050233811E+02 -0.48609039513E-01  0.30976424387E+02  0.00000000000E+00 0.  1.
         -2    1    1    2    0  502  0.25861671097E+02 -0.17050233811E+02  0.13305842994E+02  0.33713231271E+02  0.00000000000E+00 0. -1.
<mgrwt>
<rscale>  2 0.30976386E+02</rscale>
<asrwt>0</asrwt>
<pdfrwt beam="1">  1       21 0.59959146E-02 0.30976386E+02</pdfrwt>
<pdfrwt beam="2">  1       21 0.39563401E-02 0.30976386E+02</pdfrwt>
<totfact> 0.59758267E+07</totfact>
</mgrwt>
</event>
<event>
 4    1  0.2769537E+004  0.2452784E+02  0.7546771E-02  0.1667878E+00
         21   -1    0    0  503  502  0.00000000000E+00  0.00000000000E+00  0.71593190772E+01  0.71593190772E+01  0.00000000000E+00 0. -1.
         21   -1    0    0  501  503 -0.00000000000E+00 -0.00000000000E+00 -0.11606283846E+03  0.11606283846E+03  0.00000000000E+00 0.  1.
          2    1    1    2  501    0 -0.21937270820E+02  0.10971367446E+02 -0.86818105535E+02  0.90216396532E+02  0.00000000000E+00 0.  1.
         -2    1    1    2    0  502  0.21937270820E+02 -0.10971367446E+02 -0.22085413848E+02  0.33005761005E+02  0.00000000000E+00 0. -1.
<mgrwt>
<rscale>  2 0.24527836E+02</rscale>
<asrwt>0</asrwt>
<pdfrwt beam="1">  1       21 0.11014337E-02 0.24527836E+02</pdfrwt>
<pdfrwt beam="2">  1       21 0.17855822E-01 0.24527836E+02</pdfrwt>
<totfact> 0.65948483E+07</totfact>
</mgrwt>
</event>
<event>
 4    1  0.2769537E+004  0.2383012E+02  0.7546771E-02  0.1678397E+00
         21   -1    0    0  501  502  0.00000000000E+00  0.00000000000E+00  0.27291662709E+02  0.27291662709E+02  0.00000000000E+00 0.  1.
         21   -1    0    0  502  503 -0.00000000000E+00 -0.00000000000E+00 -0.25714044500E+02  0.25714044500E+02  0.00000000000E+00 0. -1.
          2    1    1    2  501    0  0.23129914848E+02  0.57342437041E+01  0.12365649853E+02  0.26847417157E+02  0.00000000000E+00 0.  1.
         -2    1    1    2    0  503 -0.23129914848E+02 -0.57342437041E+01 -0.10788031643E+02  0.26158290052E+02  0.00000000000E+00 0. -1.
<mgrwt>
<rscale>  2 0.23830118E+02</rscale>
<asrwt>0</asrwt>
<pdfrwt beam="1">  1       21 0.41987174E-02 0.23830118E+02</pdfrwt>
<pdfrwt beam="2">  1       21 0.39560068E-02 0.23830118E+02</pdfrwt>
<totfact> 0.99041886E+07</totfact>
</mgrwt>
</event>
<event>
 4    1  0.2769537E+004  0.3232805E+02  0.7546771E-02  0.1573694E+00
         21   -1    0    0  503  502  0.00000000000E+00  0.00000000000E+00  0.16816057220E+01  0.16816057220E+01  0.00000000000E+00 0. -1.
         21   -1    0    0  501  503 -0.00000000000E+00 -0.00000000000E+00 -0.10467210407E+04  0.10467210407E+04  0.00000000000E+00 0.  1.
          2    1    1    2  501    0  0.19560910021E+01 -0.32268820363E+02 -0.85663360882E+03  0.85724339765E+03  0.00000000000E+00 0.  1.
         -2    1    1    2    0  502 -0.19560910021E+01  0.32268820363E+02 -0.18840582616E+03  0.19115924877E+03  0.00000000000E+00 0. -1.
<mgrwt>
<rscale>  2 0.32328054E+02</rscale>
<asrwt>0</asrwt>
<pdfrwt beam="1">  1       21 0.25870943E-03 0.32328054E+02</pdfrwt>
<pdfrwt beam="2">  1       21 0.16103347E+00 0.32328054E+02</pdfrwt>
<totfact> 0.70626288E+06</totfact>
</mgrwt>
</event>
<event>
 4    1  0.2769537E+004  0.2980299E+02  0.7546771E-02  0.1600277E+00
         21   -1    0    0  501  502  0.00000000000E+00  0.00000000000E+00  0.88948149244E+02  0.88948149244E+02  0.00000000000E+00 0.  1.
         21   -1    0    0  502  503 -0.00000000000E+00 -0.00000000000E+00 -0.10183905923E+02  0.10183905923E+02  0.00000000000E+00 0. -1.
          2    1    1    2  501    0 -0.71178417557E+00  0.29794493041E+02  0.46295261863E+02  0.55058784251E+02  0.00000000000E+00 0.  1.
         -2    1    1    2    0  503  0.71178417557E+00 -0.29794493041E+02  0.32468981458E+02  0.44073270915E+02  0.00000000000E+00 0. -1.
<mgrwt>
<rscale>  2 0.29802994E+02</rscale>
<asrwt>0</asrwt>
<pdfrwt beam="1">  1       21 0.13684330E-01 0.29802994E+02</pdfrwt>
<pdfrwt beam="2">  1       21 0.15667548E-02 0.29802994E+02</pdfrwt>
<totfact> 0.63852178E+07</totfact>
</mgrwt>
</event>
<event>
 4    1  0.2769537E+004  0.2901207E+02  0.7546771E-02  0.1609273E+00
         21   -1    0    0  503  502  0.00000000000E+00  0.00000000000E+00  0.51811560183E+03  0.51811560183E+03  0.00000000000E+00 0. -1.
         21   -1    0    0  501  503 -0.00000000000E+00 -0.00000000000E+00 -0.16313029417E+01  0.16313029417E+01  0.00000000000E+00 0.  1.
          2    1    1    2  501    0  0.26645247446E+02 -0.11477416900E+02  0.24151147525E+03  0.24324780161E+03  0.00000000000E+00 0.  1.
         -2    1    1    2    0  502 -0.26645247446E+02  0.11477416900E+02  0.27497282364E+03  0.27649910316E+03  0.00000000000E+00 0. -1.
<mgrwt>
<rscale>  2 0.29012072E+02</rscale>
<asrwt>0</asrwt>
<pdfrwt beam="1">  1       21 0.79709961E-01 0.29012072E+02</pdfrwt>
<pdfrwt beam="2">  1       21 0.25097010E-03 0.29012072E+02</pdfrwt>
<totfact> 0.36043926E+07</totfact>
</mgrwt>
</event>
<event>
 4    1  0.2769537E+004  0.2432650E+02  0.7546771E-02  0.1670868E+00
         21   -1    0    0  503  502  0.00000000000E+00  0.00000000000E+00  0.12793368303E+02  0.12793368303E+02  0.00000000000E+00 0. -1.
         21   -1    0    0  501  503 -0.00000000000E+00 -0.00000000000E+00 -0.67794251373E+02  0.67794251373E+02  0.00000000000E+00 0.  1.
          2    1    1    2  501    0  0.20947164160E+02  0.12369119154E+02 -0.50211648880E+02  0.55794161686E+02  0.00000000000E+00 0. -1.
         -2    1    1    2    0  502 -0.20947164160E+02 -0.12369119154E+02 -0.47892341907E+01  0.24793457990E+02  0.00000000000E+00 0.  1.
<mgrwt>
<rscale>  2 0.24326504E+02</rscale>
<asrwt>0</asrwt>
<pdfrwt beam="1">  1       21 0.19682105E-02 0.24326504E+02</pdfrwt>
<pdfrwt beam="2">  1       21 0.10429885E-01 0.24326504E+02</pdfrwt>
<totfact> 0.67654042E+07</totfact>
</mgrwt>
</event>
<event>
 4    1  0.2769537E+004  0.2367382E+02  0.7546771E-02  0.1680815E+00
         21   -1    0    0  503  502  0.00000000000E+00  0.00000000000E+00  0.20137802297E+01  0.20137802297E+01  0.00000000000E+00 0.  1.
         21   -1    0    0  501  503 -0.00000000000E+00 -0.00000000000E+00 -0.46726810041E+03  0.46726810041E+03  0.00000000000E+00 0. -1.
          2    1    1    2  501    0 -0.20938897107E+02 -0.11045918648E+02 -0.38184013460E+03  0.38257331078E+03  0.00000000000E+00 0. -1.
         -2    1    1    2    0  502  0.20938897107E+02  0.11045918648E+02 -0.83414185580E+02  0.86708569858E+02  0.00000000000E+00 0.  1.
<mgrwt>
<rscale>  2 0.23673820E+02</rscale>
<asrwt>0</asrwt>
<pdfrwt beam="1">  1       21 0.30981211E-03 0.23673820E+02</pdfrwt>
<pdfrwt beam="2">  1       21 0.71887454E-01 0.23673820E+02</pdfrwt>
<totfact> 0.31592289E+07</totfact>
</mgrwt>
</event>
<event>
 4    1  0.2769537E+004  0.2339203E+02  0.7546771E-02  0.1685233E+00
         21   -1    0    0  503  502  0.00000000000E+00  0.00000000000E+00  0.24579001042E+01  0.24579001042E+01  0.00000000000E+00 0.  1.
         21   -1    0    0  501  503 -0.00000000000E+00 -0.00000000000E+00 -0.31512193284E+03  0.31512193284E+03  0.00000000000E+00 0. -1.
          2    1    1    2  501    0 -0.88773863298E+01  0.21642070442E+02 -0.24236202253E+03  0.24348826905E+03  0.00000000000E+00 0. -1.
         -2    1    1    2    0  502  0.88773863298E+01 -0.21642070442E+02 -0.70302010212E+02  0.74091563899E+02  0.00000000000E+00 0.  1.
<mgrwt>
<rscale>  2 0.23392033E+02</rscale>
<asrwt>0</asrwt>
<pdfrwt beam="1">  1       21 0.37813851E-03 0.23392033E+02</pdfrwt>
<pdfrwt beam="2">  1       21 0.48480294E-01 0.23392033E+02</pdfrwt>
<totfact> 0.51698022E+07</totfact>
</mgrwt>
</event>
<event>
 4    1  0.2769537E+004  0.2554853E+02  0.7546771E-02  0.1653246E+00
         21   -1    0    0  503  502  0.00000000000E+00  0.00000000000E+00  0.65760941839E+02  0.65760941839E+02  0.00000000000E+00 0.  1.
         21   -1    0    0  501  503 -0.00000000000E+00 -0.00000000000E+00 -0.11736454950E+02  0.11736454950E+02  0.00000000000E+00 0. -1.
          2    1    1    2  501    0 -0.86574545067E+01 -0.24036967217E+02  0.11792360145E+02  0.28138711223E+02  0.00000000000E+00 0. -1.
         -2    1    1    2    0  502  0.86574545067E+01  0.24036967217E+02  0.42232126743E+02  0.49358685566E+02  0.00000000000E+00 0.  1.
<mgrwt>
<rscale>  2 0.25548529E+02</rscale>
<asrwt>0</asrwt>
<pdfrwt beam="1">  1       21 0.10117068E-01 0.25548529E+02</pdfrwt>
<pdfrwt beam="2">  1       21 0.18056085E-02 0.25548529E+02</pdfrwt>
<totfact> 0.82260969E+07</totfact>
</mgrwt>
</event>
<event>
 4    1  0.2769537E+004  0.2300662E+02  0.7546771E-02  0.1691403E+00
         21   -1    0    0  501  502  0.00000000000E+00  0.00000000000E+00  0.51973761929E+01  0.51973761929E+01  0.00000000000E+00 0.  1.
         21   -1    0    0  502  503 -0.00000000000E+00 -0.00000000000E+00 -0.12707204320E+03  0.12707204320E+03  0.00000000000E+00 0. -1.
          2    1    1    2  501    0 -0.56533375531E+01  0.22301220922E+02 -0.31467735222E+02  0.38981060017E+02  0.00000000000E+00 0.  1.
         -2    1    1    2    0  503  0.56533375531E+01 -0.22301220922E+02 -0.90406931785E+02  0.93288359375E+02  0.00000000000E+00 0. -1.
<mgrwt>
<rscale>  2 0.23006623E+02</rscale>
<asrwt>0</asrwt>
<pdfrwt beam="1">  1       21 0.79959636E-03 0.23006623E+02</pdfrwt>
<pdfrwt beam="2">  1       21 0.19549545E-01 0.23006623E+02</pdfrwt>
<totfact> 0.89589765E+07</totfact>
</mgrwt>
</event>
<event>
 4    1  0.2769537E+004  0.2194357E+02  0.7546771E-02  0.1709230E+00
         21   -1    0    0  503  502  0.00000000000E+00  0.00000000000E+00  0.12589891701E+03  0.12589891701E+03  0.00000000000E+00 0.  1.
         21   -1    0    0  501  503 -0.00000000000E+00 -0.00000000000E+00 -0.95315284014E+01  0.95315284014E+01  0.00000000000E+00 0. -1.
          2    1    1    2  501    0 -0.21942192925E+02 -0.24556135501E+00  0.57869751515E+01  0.22693814403E+02  0.00000000000E+00 0. -1.
         -2    1    1    2    0  502  0.21942192925E+02  0.24556135501E+00  0.11058041346E+03  0.11273663101E+03  0.00000000000E+00 0.  1.
<mgrwt>
<rscale>  2 0.21943567E+02</rscale>
<asrwt>0</asrwt>
<pdfrwt beam="1">  1       21 0.19369063E-01 0.21943567E+02</pdfrwt>
<pdfrwt beam="2">  1       21 0.14663891E-02 0.21943567E+02</pdfrwt>
<totfact> 0.36122151E+07</totfact>
</mgrwt>
</event>
<event>
 4    1  0.2769537E+004  0.2126390E+02  0.7546771E-02  0.1721302E+00
         21   -1    0    0  501  502  0.00000000000E+00  0.00000000000E+00  0.73296091919E+03  0.73296091919E+03  0.00000000000E+00 0. -1.
         21   -1    0    0  502  503 -0.00000000000E+00 -0.00000000000E+00 -0.13607605700E+01  0.13607605700E+01  0.00000000000E+00 0.  1.
          2    1    1    2  501    0 -0.19635010835E+02 -0.81621035409E+01  0.63726595877E+03  0.63762062058E+03  0.00000000000E+00 0. -1.
         -2    1    1    2    0  503  0.19635010835E+02  0.81621035409E+01  0.94334199843E+02  0.96701059171E+02  0.00000000000E+00 0.  1.
<mgrwt>
<rscale>  2 0.21263903E+02</rscale>
<asrwt>0</asrwt>
<pdfrwt beam="1">  1       21 0.11276290E+00 0.21263903E+02</pdfrwt>
<pdfrwt beam="2">  1       21 0.20934837E-03 0.21263903E+02</pdfrwt>
<totfact> 0.20804938E+07</totfact>
</mgrwt>
</event>
<event>
 4    1  0.2769537E+004  0.2531628E+02  0.7546771E-02  0.1656500E+00
         21   -1    0    0  501  502  0.00000000000E+00  0.00000000000E+00  0.14424406674E+03  0.14424406674E+03  0.00000000000E+00 0.  1.
         21   -1    0    0  502  503 -0.00000000000E+00 -0.00000000000E+00 -0.53262614717E+01  0.53262614717E+01  0.00000000000E+00 0. -1.
          2    1    1    2  501    0  0.21378564199E+02  0.13559906292E+02  0.99908715424E+02  0.10306631595E+03  0.00000000000E+00 0.  1.
         -2    1    1    2    0  503 -0.21378564199E+02 -0.13559906292E+02  0.39009089839E+02  0.46504012257E+02  0.00000000000E+00 0. -1.
<mgrwt>
<rscale>  2 0.25316281E+02</rscale>
<asrwt>0</asrwt>
<pdfrwt beam="1">  1       21 0.22191392E-01 0.25316281E+02</pdfrwt>
<pdfrwt beam="2">  1       21 0.81942495E-03 0.25316281E+02</pdfrwt>
<totfact> 0.70876916E+07</totfact>
</mgrwt>
</event>
<event>
 4    1  0.2769537E+004  0.2307158E+02  0.7546771E-02  0.1690352E+00
         21   -1    0    0  503  502  0.00000000000E+00  0.00000000000E+00  0.17308975856E+03  0.17308975856E+03  0.00000000000E+00 0. -1.
         21   -1    0    0  501  503 -0.00000000000E+00 -0.00000000000E+00 -0.81497062698E+01  0.81497062698E+01  0.00000000000E+00 0.  1.
          2    1    1    2  501    0  0.21807891487E+02 -0.75308406537E+01  0.10963494934E+02  0.25543999555E+02  0.00000000000E+00 0.  1.
         -2    1    1    2    0  502 -0.21807891487E+02  0.75308406537E+01  0.15397655736E+03  0.15569546527E+03  0.00000000000E+00 0. -1.
<mgrwt>
<rscale>  2 0.23071578E+02</rscale>
<asrwt>0</asrwt>
<pdfrwt beam="1">  1       21 0.26629191E-01 0.23071578E+02</pdfrwt>
<pdfrwt beam="2">  1       21 0.12538011E-02 0.23071578E+02</pdfrwt>
<totfact> 0.26418138E+07</totfact>
</mgrwt>
</event>
<event>
 4    1  0.2769537E+004  0.2032944E+02  0.7546771E-02  0.1738855E+00
         21   -1    0    0  501  502  0.00000000000E+00  0.00000000000E+00  0.56626838093E+03  0.56626838093E+03  0.00000000000E+00 0. -1.
         21   -1    0    0  502  503 -0.00000000000E+00 -0.00000000000E+00 -0.73471054285E+00  0.73471054285E+00  0.00000000000E+00 0.  1.
          2    1    1    2  501    0  0.16578203226E+02 -0.11766448058E+02  0.30584612467E+03  0.30652102390E+03  0.00000000000E+00 0.  1.
         -2    1    1    2    0  503 -0.16578203226E+02  0.11766448058E+02  0.25968754572E+03  0.26048206756E+03  0.00000000000E+00 0. -1.
<mgrwt>
<rscale>  2 0.20329440E+02</rscale>
<asrwt>0</asrwt>
<pdfrwt beam="1">  1       21 0.87117864E-01 0.20329440E+02</pdfrwt>
<pdfrwt beam="2">  1       21 0.11303284E-03 0.20329440E+02</pdfrwt>
<totfact> 0.87157171E+07</totfact>
</mgrwt>
</event>
<event>
 4    1  0.2769537E+004  0.2431535E+02  0.7546771E-02  0.1671035E+00
         21   -1    0    0  501  502  0.00000000000E+00  0.00000000000E+00  0.11688292909E+02  0.11688292909E+02  0.00000000000E+00 0. -1.
         21   -1    0    0  502  503 -0.00000000000E+00 -0.00000000000E+00 -0.87566170179E+02  0.87566170179E+02  0.00000000000E+00 0.  1.
          2    1    1    2  501    0  0.24295840597E+02 -0.97382501398E+00 -0.56874118343E+01  0.24971641093E+02  0.00000000000E+00 0. -1.
         -2    1    1    2    0  503 -0.24295840597E+02  0.97382501398E+00 -0.70190465436E+02  0.74282821996E+02  0.00000000000E+00 0.  1.
<mgrwt>
<rscale>  2 0.24315349E+02</rscale>
<asrwt>0</asrwt>
<pdfrwt beam="1">  1       21 0.17981989E-02 0.24315349E+02</pdfrwt>
<pdfrwt beam="2">  1       21 0.13471718E-01 0.24315349E+02</pdfrwt>
<totfact> 0.50586373E+07</totfact>
</mgrwt>
</event>
<event>
 4    1  0.2769537E+004  0.5218262E+02  0.7546771E-02  0.1433912E+00
         21   -1    0    0  503  502  0.00000000000E+00  0.00000000000E+00  0.91700678680E+01  0.91700678680E+01  0.00000000000E+00 0.  1.
         21   -1    0    0  501  503 -0.00000000000E+00 -0.00000000000E+00 -0.64179193297E+03  0.64179193297E+03  0.00000000000E+00 0. -1.
          2    1    1    2  501    0 -0.41921925551E+02  0.31073744536E+02 -0.55489440246E+03  0.55734264445E+03  0.00000000000E+00 0. -1.
         -2    1    1    2    0  502  0.41921925551E+02 -0.31073744536E+02 -0.77727462634E+02  0.93619356380E+02  0.00000000000E+00 0.  1.
<mgrwt>
<rscale>  2 0.52182616E+02</rscale>
<asrwt>0</asrwt>
<pdfrwt beam="1">  1       21 0.14107795E-02 0.52182616E+02</pdfrwt>
<pdfrwt beam="2">  1       21 0.98737231E-01 0.52182616E+02</pdfrwt>
<totfact> 0.17874677E+06</totfact>
</mgrwt>
</event>
<event>
 4    1  0.2769537E+004  0.2819994E+02  0.7546771E-02  0.1618883E+00
         21   -1    0    0  501  502  0.00000000000E+00  0.00000000000E+00  0.98893272637E+01  0.98893272637E+01  0.00000000000E+00 0.  1.
         21   -1    0    0  502  503 -0.00000000000E+00 -0.00000000000E+00 -0.16120416550E+03  0.16120416550E+03  0.00000000000E+00 0. -1.
          2    1    1    2  501    0  0.52988143994E+01  0.27697642439E+02 -0.15096065234E+02  0.31986372353E+02  0.00000000000E+00 0.  1.
         -2    1    1    2    0  503 -0.52988143994E+01 -0.27697642439E+02 -0.13621877300E+03  0.13910712041E+03  0.00000000000E+00 0. -1.
<mgrwt>
<rscale>  2 0.28199944E+02</rscale>
<asrwt>0</asrwt>
<pdfrwt beam="1">  1       21 0.15214350E-02 0.28199944E+02</pdfrwt>
<pdfrwt beam="2">  1       21 0.24800640E-01 0.28199944E+02</pdfrwt>
<totfact> 0.23316791E+07</totfact>
</mgrwt>
</event>
<event>
 4    1  0.2769537E+004  0.6063355E+02  0.7546771E-02  0.1395192E+00
         21   -1    0    0  501  502  0.00000000000E+00  0.00000000000E+00  0.30514592165E+02  0.30514592165E+02  0.00000000000E+00 0.  1.
         21   -1    0    0  502  503 -0.00000000000E+00 -0.00000000000E+00 -0.22860054794E+03  0.22860054794E+03  0.00000000000E+00 0. -1.
          2    1    1    2  501    0 -0.26748105656E+02 -0.54414763834E+02 -0.99432597500E+01  0.61443438167E+02  0.00000000000E+00 0.  1.
         -2    1    1    2    0  503  0.26748105656E+02  0.54414763834E+02 -0.18814269602E+03  0.19767170194E+03  0.00000000000E+00 0. -1.
<mgrwt>
<rscale>  2 0.60633552E+02</rscale>
<asrwt>0</asrwt>
<pdfrwt beam="1">  1       21 0.46945524E-02 0.60633552E+02</pdfrwt>
<pdfrwt beam="2">  1       21 0.35169317E-01 0.60633552E+02</pdfrwt>
<totfact> 0.22453706E+06</totfact>
</mgrwt>
</event>
<event>
 4    1  0.2769537E+004  0.4353002E+02  0.7546771E-02  0.1483733E+00
         21   -1    0    0  503  502  0.00000000000E+00  0.00000000000E+00  0.39478222285E+03  0.39478222285E+03  0.00000000000E+00 0. -1.
         21   -1    0    0  501  503 -0.00000000000E+00 -0.00000000000E+00 -0.48451540582E+01  0.48451540582E+01  0.00000000000E+00 0.  1.
          2    1    1    2  501    0 -0.35824762232E+02 -0.24727494599E+02  0.17562932310E+03  0.18094342130E+03  0.00000000000E+00 0. -1.
         -2    1    1    2    0  502  0.35824762232E+02  0.24727494599E+02  0.21430774568E+03  0.21868395560E+03  0.00000000000E+00 0.  1.
<mgrwt>
<rscale>  2 0.43530019E+02</rscale>
<asrwt>0</asrwt>
<pdfrwt beam="1">  1       21 0.60735701E-01 0.43530019E+02</pdfrwt>
<pdfrwt beam="2">  1       21 0.74540863E-03 0.43530019E+02</pdfrwt>
<totfact> 0.13356047E+07</totfact>
</mgrwt>
</event>
<event>
 4    1  0.2769537E+004  0.3645433E+02  0.7546771E-02  0.1536052E+00
         21   -1    0    0  503  502  0.00000000000E+00  0.00000000000E+00  0.33970500484E+02  0.33970500484E+02  0.00000000000E+00 0.  1.
         21   -1    0    0  501  503 -0.00000000000E+00 -0.00000000000E+00 -0.39700424668E+02  0.39700424668E+02  0.00000000000E+00 0. -1.
          2    1    1    2  501    0  0.29968577497E+02  0.20755790281E+02 -0.73197208616E+01  0.37181941596E+02  0.00000000000E+00 0. -1.
         -2    1    1    2    0  502 -0.29968577497E+02 -0.20755790281E+02  0.15897966776E+01  0.36488983555E+02  0.00000000000E+00 0.  1.
<mgrwt>
<rscale>  2 0.36454334E+02</rscale>
<asrwt>0</asrwt>
<pdfrwt beam="1">  1       21 0.52262309E-02 0.36454334E+02</pdfrwt>
<pdfrwt beam="2">  1       21 0.61077576E-02 0.36454334E+02</pdfrwt>
<totfact> 0.38349652E+07</totfact>
</mgrwt>
</event>
<event>
 4    1  0.2769537E+004  0.2201675E+02  0.7546771E-02  0.1707963E+00
         21   -1    0    0  503  502  0.00000000000E+00  0.00000000000E+00  0.42225330153E+03  0.42225330153E+03  0.00000000000E+00 0.  1.
         21   -1    0    0  501  503 -0.00000000000E+00 -0.00000000000E+00 -0.16197166617E+02  0.16197166617E+02  0.00000000000E+00 0. -1.
          2    1    1    2  501    0  0.20937945097E+02 -0.68073229026E+01 -0.82855919375E+01  0.23524205061E+02  0.00000000000E+00 0. -1.
         -2    1    1    2    0  502 -0.20937945097E+02  0.68073229026E+01  0.41434172685E+03  0.41492626309E+03  0.00000000000E+00 0.  1.
<mgrwt>
<rscale>  2 0.22016748E+02</rscale>
<asrwt>0</asrwt>
<pdfrwt beam="1">  1       21 0.64962038E-01 0.22016748E+02</pdfrwt>
<pdfrwt beam="2">  1       21 0.24918721E-02 0.22016748E+02</pdfrwt>
<totfact> 0.16901553E+06</totfact>
</mgrwt>
</event>
<event>
 4    1  0.2769537E+004  0.2479157E+02  0.7546771E-02  0.1664014E+00
         21   -1    0    0  503  502  0.00000000000E+00  0.00000000000E+00  0.66896337667E+02  0.66896337667E+02  0.00000000000E+00 0. -1.
         21   -1    0    0  501  503 -0.00000000000E+00 -0.00000000000E+00 -0.28608492775E+02  0.28608492775E+02  0.00000000000E+00 0.  1.
          2    1    1    2  501    0 -0.24643749224E+02 -0.27032534825E+01 -0.20200356053E+02  0.31979311122E+02  0.00000000000E+00 0.  1.
         -2    1    1    2    0  502  0.24643749224E+02  0.27032534825E+01  0.58488200945E+02  0.63525519321E+02  0.00000000000E+00 0. -1.
<mgrwt>
<rscale>  2 0.24791570E+02</rscale>
<asrwt>0</asrwt>
<pdfrwt beam="1">  1       21 0.10291744E-01 0.24791570E+02</pdfrwt>
<pdfrwt beam="2">  1       21 0.44013066E-02 0.24791570E+02</pdfrwt>
<totfact> 0.19786349E+07</totfact>
</mgrwt>
</event>
<event>
 4    1  0.2769537E+004  0.3398915E+02  0.7546771E-02  0.1557765E+00
         21   -1    0    0  503  502  0.00000000000E+00  0.00000000000E+00  0.22243698000E+03  0.22243698000E+03  0.00000000000E+00 0.  1.
         21   -1    0    0  501  503 -0.00000000000E+00 -0.00000000000E+00 -0.64011597702E+01  0.64011597702E+01  0.00000000000E+00 0. -1.
          2    1    1    2  501    0  0.31632592481E+02 -0.12435491765E+02  0.58322949397E+02  0.67504287189E+02  0.00000000000E+00 0. -1.
         -2    1    1    2    0  502 -0.31632592481E+02  0.12435491765E+02  0.15771287083E+03  0.16133385258E+03  0.00000000000E+00 0.  1.
<mgrwt>
<rscale>  2 0.33989151E+02</rscale>
<asrwt>0</asrwt>
<pdfrwt beam="1">  1       21 0.34221068E-01 0.33989151E+02</pdfrwt>
<pdfrwt beam="2">  1       21 0.98479398E-03 0.33989151E+02</pdfrwt>
<totfact> 0.25955034E+07</totfact>
</mgrwt>
</event>
<event>
 4    1  0.2769537E+004  0.4075316E+02  0.7546771E-02  0.1502741E+00
         21   -1    0    0  501  502  0.00000000000E+00  0.00000000000E+00  0.86726661853E+02  0.86726661853E+02  0.00000000000E+00 0.  1.
         21   -1    0    0  502  503 -0.00000000000E+00 -0.00000000000E+00 -0.22827592397E+02  0.22827592397E+02  0.00000000000E+00 0. -1.
          2    1    1    2  501    0 -0.94434689644E+01 -0.39643925256E+02  0.53935626545E+02  0.67600826375E+02  0.00000000000E+00 0.  1.
         -2    1    1    2    0  503  0.94434689644E+01  0.39643925256E+02  0.99634429113E+01  0.41953427875E+02  0.00000000000E+00 0. -1.
<mgrwt>
<rscale>  2 0.40753158E+02</rscale>
<asrwt>0</asrwt>
<pdfrwt beam="1">  1       21 0.13342563E-01 0.40753158E+02</pdfrwt>
<pdfrwt beam="2">  1       21 0.35119373E-02 0.40753158E+02</pdfrwt>
<totfact> 0.19996808E+07</totfact>
</mgrwt>
</event>
<event>
 4    1  0.2769537E+004  0.5864195E+02  0.7546771E-02  0.1403621E+00
         21   -1    0    0  503  502  0.00000000000E+00  0.00000000000E+00  0.18191356488E+02  0.18191356488E+02  0.00000000000E+00 0. -1.
         21   -1    0    0  501  503 -0.00000000000E+00 -0.00000000000E+00 -0.21665281686E+03  0.21665281686E+03  0.00000000000E+00 0.  1.
          2    1    1    2  501    0  0.43802997799E+02 -0.38989430018E+02 -0.14115155252E+03  0.15284841853E+03  0.00000000000E+00 0.  1.
         -2    1    1    2    0  502 -0.43802997799E+02  0.38989430018E+02 -0.57309907849E+02  0.81995754811E+02  0.00000000000E+00 0. -1.
<mgrwt>
<rscale>  2 0.58641950E+02</rscale>
<asrwt>0</asrwt>
<pdfrwt beam="1">  1       21 0.27986702E-02 0.58641950E+02</pdfrwt>
<pdfrwt beam="2">  1       21 0.33331203E-01 0.58641950E+02</pdfrwt>
<totfact> 0.57400215E+06</totfact>
</mgrwt>
</event>
<event>
 4    1  0.2769537E+004  0.2119497E+02  0.7546771E-02  0.1722558E+00
         21   -1    0    0  501  502  0.00000000000E+00  0.00000000000E+00  0.15637029664E+02  0.15637029664E+02  0.00000000000E+00 0.  1.
         21   -1    0    0  502  503 -0.00000000000E+00 -0.00000000000E+00 -0.11710879486E+03  0.11710879486E+03  0.00000000000E+00 0. -1.
          2    1    1    2  501    0  0.21001386162E+02 -0.28580816178E+01  0.69240440148E+01  0.22297292140E+02  0.00000000000E+00 0.  1.
         -2    1    1    2    0  503 -0.21001386162E+02  0.28580816178E+01 -0.10839580921E+03  0.11044853238E+03  0.00000000000E+00 0. -1.
<mgrwt>
<rscale>  2 0.21194972E+02</rscale>
<asrwt>0</asrwt>
<pdfrwt beam="1">  1       21 0.24056970E-02 0.21194972E+02</pdfrwt>
<pdfrwt beam="2">  1       21 0.18016737E-01 0.21194972E+02</pdfrwt>
<totfact> 0.19063309E+07</totfact>
</mgrwt>
</event>
<event>
 4    1  0.2769537E+004  0.3389672E+02  0.7546771E-02  0.1558622E+00
         21   -1    0    0  503  502  0.00000000000E+00  0.00000000000E+00  0.55556388817E+01  0.55556388817E+01  0.00000000000E+00 0.  1.
         21   -1    0    0  501  503 -0.00000000000E+00 -0.00000000000E+00 -0.28772017916E+03  0.28772017916E+03  0.00000000000E+00 0. -1.
          2    1    1    2  501    0 -0.32263745788E+02 -0.10394148901E+02 -0.21884117671E+03  0.22145078064E+03  0.00000000000E+00 0. -1.
         -2    1    1    2    0  502  0.32263745788E+02  0.10394148901E+02 -0.63323363565E+02  0.71825037395E+02  0.00000000000E+00 0.  1.
<mgrwt>
<rscale>  2 0.33896720E+02</rscale>
<asrwt>0</asrwt>
<pdfrwt beam="1">  1       21 0.85471376E-03 0.33896720E+02</pdfrwt>
<pdfrwt beam="2">  1       21 0.44264638E-01 0.33896720E+02</pdfrwt>
<totfact> 0.19685732E+07</totfact>
</mgrwt>
</event>
<event>
 4    1  0.2769537E+004  0.2038563E+02  0.7546771E-02  0.1737766E+00
         21   -1    0    0  503  502  0.00000000000E+00  0.00000000000E+00  0.45205991869E+02  0.45205991869E+02  0.00000000000E+00 0. -1.
         21   -1    0    0  501  503 -0.00000000000E+00 -0.00000000000E+00 -0.12755087180E+02  0.12755087180E+02  0.00000000000E+00 0.  1.
          2    1    1    2  501    0 -0.69205790338E+01  0.19174974869E+02  0.91023245562E+00  0.20405945175E+02  0.00000000000E+00 0.  1.
         -2    1    1    2    0  502  0.69205790338E+01 -0.19174974869E+02  0.31540672233E+02  0.37555133874E+02  0.00000000000E+00 0. -1.
<mgrwt>
<rscale>  2 0.20385634E+02</rscale>
<asrwt>0</asrwt>
<pdfrwt beam="1">  1       21 0.69547679E-02 0.20385634E+02</pdfrwt>
<pdfrwt beam="2">  1       21 0.19623211E-02 0.20385634E+02</pdfrwt>
<totfact> 0.12540515E+08</totfact>
</mgrwt>
</event>
<event>
 4    1  0.2769537E+004  0.2339151E+02  0.7546771E-02  0.1685241E+00
         21   -1    0    0  503  502  0.00000000000E+00  0.00000000000E+00  0.50199472738E+02  0.50199472738E+02  0.00000000000E+00 0.  1.
         21   -1    0    0  501  503 -0.00000000000E+00 -0.00000000000E+00 -0.10977336458E+02  0.10977336458E+02  0.00000000000E+00 0. -1.
          2    1    1    2  501    0 -0.36230204405E+01  0.23109232043E+02  0.17039870167E+02  0.28939938805E+02  0.00000000000E+00 0.  1.
         -2    1    1    2    0  502  0.36230204405E+01 -0.23109232043E+02  0.22182266113E+02  0.32236870391E+02  0.00000000000E+00 0. -1.
<mgrwt>
<rscale>  2 0.23391513E+02</rscale>
<asrwt>0</asrwt>
<pdfrwt beam="1">  1       21 0.77229957E-02 0.23391513E+02</pdfrwt>
<pdfrwt beam="2">  1       21 0.16888210E-02 0.23391513E+02</pdfrwt>
<totfact> 0.13869417E+08</totfact>
</mgrwt>
</event>
<event>
 4    1  0.2769537E+004  0.2155652E+02  0.7546771E-02  0.1716037E+00
         21   -1    0    0  501  502  0.00000000000E+00  0.00000000000E+00  0.45998291162E+02  0.45998291162E+02  0.00000000000E+00 0.  1.
         21   -1    0    0  502  503 -0.00000000000E+00 -0.00000000000E+00 -0.10702837097E+02  0.10702837097E+02  0.00000000000E+00 0. -1.
          2    1    1    2  501    0  0.68489572263E+01 -0.20439554102E+02  0.24363887660E+02  0.32531255876E+02  0.00000000000E+00 0.  1.
         -2    1    1    2    0  503 -0.68489572263E+01  0.20439554102E+02  0.10931566404E+02  0.24169872383E+02  0.00000000000E+00 0. -1.
<mgrwt>
<rscale>  2 0.21556521E+02</rscale>
<asrwt>0</asrwt>
<pdfrwt beam="1">  1       21 0.70766601E-02 0.21556521E+02</pdfrwt>
<pdfrwt beam="2">  1       21 0.16465903E-02 0.21556521E+02</pdfrwt>
<totfact> 0.16204652E+08</totfact>
</mgrwt>
</event>
<event>
 4    1  0.2769537E+004  0.3838386E+02  0.7546771E-02  0.1520453E+00
         21   -1    0    0  501  502  0.00000000000E+00  0.00000000000E+00  0.10785643065E+03  0.10785643065E+03  0.00000000000E+00 0. -1.
         21   -1    0    0  502  503 -0.00000000000E+00 -0.00000000000E+00 -0.16365991430E+02  0.16365991430E+02  0.00000000000E+00 0.  1.
          2    1    1    2  501    0  0.77022896143E+01 -0.37603126149E+02  0.71001007168E+02  0.80712225718E+02  0.00000000000E+00 0. -1.
         -2    1    1    2    0  503 -0.77022896143E+01  0.37603126149E+02  0.20489432051E+02  0.43510196360E+02  0.00000000000E+00 0.  1.
<mgrwt>
<rscale>  2 0.38383855E+02</rscale>
<asrwt>0</asrwt>
<pdfrwt beam="1">  1       21 0.16593297E-01 0.38383855E+02</pdfrwt>
<pdfrwt beam="2">  1       21 0.25178449E-02 0.38383855E+02</pdfrwt>
<totfact> 0.22986634E+07</totfact>
</mgrwt>
</event>
<event>
 4    1  0.2769537E+004  0.2354585E+02  0.7546771E-02  0.1682812E+00
         21   -1    0    0  501  502  0.00000000000E+00  0.00000000000E+00  0.21469970067E+03  0.21469970067E+03  0.00000000000E+00 0. -1.
         21   -1    0    0  502  503 -0.00000000000E+00 -0.00000000000E+00 -0.34694889561E+01  0.34694889561E+01  0.00000000000E+00 0.  1.
          2    1    1    2  501    0  0.18327494398E+02 -0.14782087149E+02  0.16077866524E+03  0.16249365017E+03  0.00000000000E+00 0. -1.
         -2    1    1    2    0  503 -0.18327494398E+02  0.14782087149E+02  0.50451546480E+02  0.55675539456E+02  0.00000000000E+00 0.  1.
<mgrwt>
<rscale>  2 0.23545852E+02</rscale>
<asrwt>0</asrwt>
<pdfrwt beam="1">  1       21 0.33030713E-01 0.23545852E+02</pdfrwt>
<pdfrwt beam="2">  1       21 0.53376770E-03 0.23545852E+02</pdfrwt>
<totfact> 0.64305910E+07</totfact>
</mgrwt>
</event>
<event>
 4    1  0.2769537E+004  0.2173164E+02  0.7546771E-02  0.1712935E+00
         21   -1    0    0  503  502  0.00000000000E+00  0.00000000000E+00  0.76194295609E+00  0.76194295609E+00  0.00000000000E+00 0. -1.
         21   -1    0    0  501  503 -0.00000000000E+00 -0.00000000000E+00 -0.63579995735E+03  0.63579995735E+03  0.00000000000E+00 0.  1.
          2    1    1    2  501    0 -0.17535925195E+02 -0.12835710051E+02 -0.36798491467E+03  0.36862604568E+03  0.00000000000E+00 0.  1.
         -2    1    1    2    0  502  0.17535925195E+02  0.12835710051E+02 -0.26705309972E+03  0.26793585463E+03  0.00000000000E+00 0. -1.
<mgrwt>
<rscale>  2 0.21731639E+02</rscale>
<asrwt>0</asrwt>
<pdfrwt beam="1">  1       21 0.11722168E-03 0.21731639E+02</pdfrwt>
<pdfrwt beam="2">  1       21 0.97815635E-01 0.21731639E+02</pdfrwt>
<totfact> 0.65635677E+07</totfact>
</mgrwt>
</event>
<event>
 4    1  0.2769537E+004  0.2019382E+02  0.7546771E-02  0.1741501E+00
         21   -1    0    0  501  502  0.00000000000E+00  0.00000000000E+00  0.39333560485E+02  0.39333560485E+02  0.00000000000E+00 0. -1.
         21   -1    0    0  502  503 -0.00000000000E+00 -0.00000000000E+00 -0.65466757360E+02  0.65466757360E+02  0.00000000000E+00 0.  1.
          2    1    1    2  501    0  0.19918419692E+02 -0.33236859624E+01  0.35005723272E+02  0.40412757803E+02  0.00000000000E+00 0. -1.
         -2    1    1    2    0  503 -0.19918419692E+02  0.33236859624E+01 -0.61138920148E+02  0.64387560043E+02  0.00000000000E+00 0.  1.
<mgrwt>
<rscale>  2 0.20193819E+02</rscale>
<asrwt>0</asrwt>
<pdfrwt beam="1">  1       21 0.60513171E-02 0.20193819E+02</pdfrwt>
<pdfrwt beam="2">  1       21 0.10071809E-01 0.20193819E+02</pdfrwt>
<totfact> 0.11823070E+07</totfact>
</mgrwt>
</event>
<event>
 4    1  0.2769537E+004  0.2309327E+02  0.7546771E-02  0.1690003E+00
         21   -1    0    0  501  502  0.00000000000E+00  0.00000000000E+00  0.61073159718E+03  0.61073159718E+03  0.00000000000E+00 0. -1.
         21   -1    0    0  502  503 -0.00000000000E+00 -0.00000000000E+00 -0.27695171573E+01  0.27695171573E+01  0.00000000000E+00 0.  1.
          2    1    1    2  501    0 -0.22272343737E+02  0.61026133253E+01  0.55780770934E+03  0.55828553607E+03  0.00000000000E+00 0. -1.
         -2    1    1    2    0  503  0.22272343737E+02 -0.61026133253E+01  0.50154370685E+02  0.55215578271E+02  0.00000000000E+00 0.  1.
<mgrwt>
<rscale>  2 0.23093271E+02</rscale>
<asrwt>0</asrwt>
<pdfrwt beam="1">  1       21 0.93958600E-01 0.23093271E+02</pdfrwt>
<pdfrwt beam="2">  1       21 0.42608005E-03 0.23093271E+02</pdfrwt>
<totfact> 0.11208822E+07</totfact>
</mgrwt>
</event>
<event>
 4    1  0.2769537E+004  0.2395150E+02  0.7546771E-02  0.1676535E+00
         21   -1    0    0  503  502  0.00000000000E+00  0.00000000000E+00  0.54057368324E+01  0.54057368324E+01  0.00000000000E+00 0. -1.
         21   -1    0    0  501  503 -0.00000000000E+00 -0.00000000000E+00 -0.11404971762E+03  0.11404971762E+03  0.00000000000E+00 0.  1.
          2    1    1    2  501    0  0.16451050990E+02 -0.17407970597E+02 -0.70067906303E+02  0.74048538221E+02  0.00000000000E+00 0.  1.
         -2    1    1    2    0  502 -0.16451050990E+02  0.17407970597E+02 -0.38576074484E+02  0.45406916230E+02  0.00000000000E+00 0. -1.
<mgrwt>
<rscale>  2 0.23951503E+02</rscale>
<asrwt>0</asrwt>
<pdfrwt beam="1">  1       21 0.83165191E-03 0.23951503E+02</pdfrwt>
<pdfrwt beam="2">  1       21 0.17546108E-01 0.23951503E+02</pdfrwt>
<totfact> 0.10303411E+08</totfact>
</mgrwt>
</event>
<event>
 4    1  0.2769537E+004  0.2301018E+02  0.7546771E-02  0.1691345E+00
         21   -1    0    0  501  502  0.00000000000E+00  0.00000000000E+00  0.38176839609E+02  0.38176839609E+02  0.00000000000E+00 0. -1.
         21   -1    0    0  502  503 -0.00000000000E+00 -0.00000000000E+00 -0.53216814178E+02  0.53216814178E+02  0.00000000000E+00 0.  1.
          2    1    1    2  501    0 -0.22963513774E+02 -0.14647698232E+01  0.31773700698E+02  0.39230556605E+02  0.00000000000E+00 0. -1.
         -2    1    1    2    0  503  0.22963513774E+02  0.14647698232E+01 -0.46813675268E+02  0.52163097182E+02  0.00000000000E+00 0.  1.
<mgrwt>
<rscale>  2 0.23010183E+02</rscale>
<asrwt>0</asrwt>
<pdfrwt beam="1">  1       21 0.58733600E-02 0.23010183E+02</pdfrwt>
<pdfrwt beam="2">  1       21 0.81872022E-02 0.23010183E+02</pdfrwt>
<totfact> 0.17911257E+07</totfact>
</mgrwt>
</event>
<event>
 4    1  0.2769537E+004  0.2301964E+02  0.7546771E-02  0.1691192E+00
         21   -1    0    0  501  502  0.00000000000E+00  0.00000000000E+00  0.23709098585E+02  0.23709098585E+02  0.00000000000E+00 0. -1.
         21   -1    0    0  502  503 -0.00000000000E+00 -0.00000000000E+00 -0.74521841650E+02  0.74521841650E+02  0.00000000000E+00 0.  1.
          2    1    1    2  501    0 -0.20198048087E+02 -0.11042761492E+02  0.15689070486E+02  0.27857685845E+02  0.00000000000E+00 0. -1.
         -2    1    1    2    0  503  0.20198048087E+02  0.11042761492E+02 -0.66501813551E+02  0.70373254390E+02  0.00000000000E+00 0.  1.
<mgrwt>
<rscale>  2 0.23019638E+02</rscale>
<asrwt>0</asrwt>
<pdfrwt beam="1">  1       21 0.36475536E-02 0.23019638E+02</pdfrwt>
<pdfrwt beam="2">  1       21 0.11464899E-01 0.23019638E+02</pdfrwt>
<totfact> 0.21874819E+07</totfact>
</mgrwt>
</event>
<event>
 4    1  0.2769537E+004  0.2716063E+02  0.7546771E-02  0.1631776E+00
         21   -1    0    0  501  502  0.00000000000E+00  0.00000000000E+00  0.33844718447E+01  0.33844718447E+01  0.00000000000E+00 0. -1.
         21   -1    0    0  502  503 -0.00000000000E+00 -0.00000000000E+00 -0.73501245561E+03  0.73501245561E+03  0.00000000000E+00 0.  1.
          2    1    1    2  501    0  0.10082470840E+02  0.25219909318E+02 -0.56159569405E+02  0.62382668106E+02  0.00000000000E+00 0. -1.
         -2    1    1    2    0  503 -0.10082470840E+02 -0.25219909318E+02 -0.67546841436E+03  0.67601425935E+03  0.00000000000E+00 0.  1.
<mgrwt>
<rscale>  2 0.27160634E+02</rscale>
<asrwt>0</asrwt>
<pdfrwt beam="1">  1       21 0.52068783E-03 0.27160634E+02</pdfrwt>
<pdfrwt beam="2">  1       21 0.11307887E+00 0.27160634E+02</pdfrwt>
<totfact> 0.56691769E+06</totfact>
</mgrwt>
</event>
<event>
 4    1  0.2769537E+004  0.2438771E+02  0.7546771E-02  0.1669955E+00
         21   -1    0    0  501  502  0.00000000000E+00  0.00000000000E+00  0.37036184764E+02  0.37036184764E+02  0.00000000000E+00 0.  1.
         21   -1    0    0  502  503 -0.00000000000E+00 -0.00000000000E+00 -0.20077689162E+02  0.20077689162E+02  0.00000000000E+00 0. -1.
          2    1    1    2  501    0 -0.24376658155E+02  0.73420923027E+00  0.21255461545E+02  0.32350504965E+02  0.00000000000E+00 0.  1.
         -2    1    1    2    0  503  0.24376658155E+02 -0.73420923027E+00 -0.42969659425E+01  0.24763368961E+02  0.00000000000E+00 0. -1.
<mgrwt>
<rscale>  2 0.24387713E+02</rscale>
<asrwt>0</asrwt>
<pdfrwt beam="1">  1       21 0.56978745E-02 0.24387713E+02</pdfrwt>
<pdfrwt beam="2">  1       21 0.30888753E-02 0.24387713E+02</pdfrwt>
<totfact> 0.90380735E+07</totfact>
</mgrwt>
</event>
<event>
 4    1  0.2769537E+004  0.2305493E+02  0.7546771E-02  0.1690621E+00
         21   -1    0    0  501  502  0.00000000000E+00  0.00000000000E+00  0.19890227668E+03  0.19890227668E+03  0.00000000000E+00 0. -1.
         21   -1    0    0  502  503 -0.00000000000E+00 -0.00000000000E+00 -0.33829970646E+01  0.33829970646E+01  0.00000000000E+00 0.  1.
          2    1    1    2  501    0 -0.13202288243E+02  0.18900513065E+02  0.14411721614E+03  0.14594965501E+03  0.00000000000E+00 0. -1.
         -2    1    1    2    0  503  0.13202288243E+02 -0.18900513065E+02  0.51402063477E+02  0.56335618739E+02  0.00000000000E+00 0.  1.
<mgrwt>
<rscale>  2 0.23054930E+02</rscale>
<asrwt>0</asrwt>
<pdfrwt beam="1">  1       21 0.30600341E-01 0.23054930E+02</pdfrwt>
<pdfrwt beam="2">  1       21 0.52046124E-03 0.23054930E+02</pdfrwt>
<totfact> 0.76370680E+07</totfact>
</mgrwt>
</event>
<event>
 4    1  0.2769537E+004  0.2105302E+02  0.7546771E-02  0.1725163E+00
         21   -1    0    0  501  502  0.00000000000E+00  0.00000000000E+00  0.10226224851E+02  0.10226224851E+02  0.00000000000E+00 0.  1.
         21   -1    0    0  502  503 -0.00000000000E+00 -0.00000000000E+00 -0.55101557037E+02  0.55101557037E+02  0.00000000000E+00 0. -1.
          2    1    1    2  501    0 -0.63042833131E+01 -0.20086955641E+02 -0.73482335462E+01  0.22298571956E+02  0.00000000000E+00 0.  1.
         -2    1    1    2    0  503  0.63042833131E+01  0.20086955641E+02 -0.37527098640E+02  0.43029209932E+02  0.00000000000E+00 0. -1.
<mgrwt>
<rscale>  2 0.21053023E+02</rscale>
<asrwt>0</asrwt>
<pdfrwt beam="1">  1       21 0.15732654E-02 0.21053023E+02</pdfrwt>
<pdfrwt beam="2">  1       21 0.84771626E-02 0.21053023E+02</pdfrwt>
<totfact> 0.12860049E+08</totfact>
</mgrwt>
</event>
<event>
 4    1  0.2769537E+004  0.2554122E+02  0.7546771E-02  0.1653348E+00
         21   -1    0    0  501  502  0.00000000000E+00  0.00000000000E+00  0.28252007650E+01  0.28252007650E+01  0.00000000000E+00 0.  1.
         21   -1    0    0  502  503 -0.00000000000E+00 -0.00000000000E+00 -0.24771594543E+03  0.24771594543E+03  0.00000000000E+00 0. -1.
          2    1    1    2  501    0  0.15059636095E+02  0.20629141478E+02 -0.89811924306E+02  0.93373100329E+02  0.00000000000E+00 0.  1.
         -2    1    1    2    0  503 -0.15059636095E+02 -0.20629141478E+02 -0.15507882035E+03  0.15716804586E+03  0.00000000000E+00 0. -1.
<mgrwt>
<rscale>  2 0.25541224E+02</rscale>
<asrwt>0</asrwt>
<pdfrwt beam="1">  1       21 0.43464621E-03 0.25541224E+02</pdfrwt>
<pdfrwt beam="2">  1       21 0.38110151E-01 0.25541224E+02</pdfrwt>
<totfact> 0.68067118E+07</totfact>
</mgrwt>
</event>
<event>
 4    1  0.2769537E+004  0.7562328E+02  0.7546771E-02  0.1341952E+00
         21   -1    0    0  503  502  0.00000000000E+00  0.00000000000E+00  0.38411573222E+03  0.38411573222E+03  0.00000000000E+00 0. -1.
         21   -1    0    0  501  503 -0.00000000000E+00 -0.00000000000E+00 -0.18074604295E+02  0.18074604295E+02  0.00000000000E+00 0.  1.
          2    1    1    2  501    0  0.59548356280E+02  0.46614087888E+02  0.98589541479E+02  0.12425287769E+03  0.00000000000E+00 0.  1.
         -2    1    1    2    0  502 -0.59548356280E+02 -0.46614087888E+02  0.26745158644E+03  0.27793745882E+03  0.00000000000E+00 0. -1.
<mgrwt>
<rscale>  2 0.75623276E+02</rscale>
<asrwt>0</asrwt>
<pdfrwt beam="1">  1       21 0.59094722E-01 0.75623276E+02</pdfrwt>
<pdfrwt beam="2">  1       21 0.27807086E-02 0.75623276E+02</pdfrwt>
<totfact> 0.18848837E+06</totfact>
</mgrwt>
</event>
<event>
 4    1  0.2769537E+004  0.2386585E+02  0.7546771E-02  0.1677848E+00
         21   -1    0    0  501  502  0.00000000000E+00  0.00000000000E+00  0.16446812099E+02  0.16446812099E+02  0.00000000000E+00 0.  1.
         21   -1    0    0  502  503 -0.00000000000E+00 -0.00000000000E+00 -0.51461810036E+02  0.51461810036E+02  0.00000000000E+00 0. -1.
          2    1    1    2  501    0  0.55348774653E+01  0.23215166338E+02  0.19101941878E+01  0.23942173220E+02  0.00000000000E+00 0.  1.
         -2    1    1    2    0  503 -0.55348774653E+01 -0.23215166338E+02 -0.36925192125E+02  0.43966448914E+02  0.00000000000E+00 0. -1.
<mgrwt>
<rscale>  2 0.23865850E+02</rscale>
<asrwt>0</asrwt>
<pdfrwt beam="1">  1       21 0.25302788E-02 0.23865850E+02</pdfrwt>
<pdfrwt beam="2">  1       21 0.79172015E-02 0.23865850E+02</pdfrwt>
<totfact> 0.71935272E+07</totfact>
</mgrwt>
</event>
<event>
 4    1  0.2769537E+004  0.2553011E+02  0.7546771E-02  0.1653502E+00
         21   -1    0    0  503  502  0.00000000000E+00  0.00000000000E+00  0.79318939084E+02  0.79318939084E+02  0.00000000000E+00 0. -1.
         21   -1    0    0  501  503 -0.00000000000E+00 -0.00000000000E+00 -0.33875240869E+02  0.33875240869E+02  0.00000000000E+00 0.  1.
          2    1    1    2  501    0  0.21386063540E+02 -0.13943564043E+02 -0.26534690011E+02  0.36822227878E+02  0.00000000000E+00 0.  1.
         -2    1    1    2    0  502 -0.21386063540E+02  0.13943564043E+02  0.71978388226E+02  0.76371952074E+02  0.00000000000E+00 0. -1.
<mgrwt>
<rscale>  2 0.25530113E+02</rscale>
<asrwt>0</asrwt>
<pdfrwt beam="1">  1       21 0.12202914E-01 0.25530113E+02</pdfrwt>
<pdfrwt beam="2">  1       21 0.52115755E-02 0.25530113E+02</pdfrwt>
<totfact> 0.11430231E+07</totfact>
</mgrwt>
</event>
<event>
 4    1  0.2769537E+004  0.4075653E+02  0.7546771E-02  0.1502717E+00
         21   -1    0    0  503  502  0.00000000000E+00  0.00000000000E+00  0.65537630390E+02  0.65537630390E+02  0.00000000000E+00 0.  1.
         21   -1    0    0  501  503 -0.00000000000E+00 -0.00000000000E+00 -0.26553788607E+02  0.26553788607E+02  0.00000000000E+00 0. -1.
          2    1    1    2  501    0 -0.28030824458E+02  0.29586616773E+02  0.96703468555E+01  0.41888072528E+02  0.00000000000E+00 0.  1.
         -2    1    1    2    0  502  0.28030824458E+02 -0.29586616773E+02  0.29313494927E+02  0.50203346469E+02  0.00000000000E+00 0. -1.
<mgrwt>
<rscale>  2 0.40756533E+02</rscale>
<asrwt>0</asrwt>
<pdfrwt beam="1">  1       21 0.10082712E-01 0.40756533E+02</pdfrwt>
<pdfrwt beam="2">  1       21 0.40851983E-02 0.40756533E+02</pdfrwt>
<totfact> 0.25314403E+07</totfact>
</mgrwt>
</event>
<event>
 4    1  0.2769537E+004  0.2315722E+02  0.7546771E-02  0.1688974E+00
         21   -1    0    0  501  502  0.00000000000E+00  0.00000000000E+00  0.15283398373E+03  0.15283398373E+03  0.00000000000E+00 0. -1.
         21   -1    0    0  502  503 -0.00000000000E+00 -0.00000000000E+00 -0.43954414528E+01  0.43954414528E+01  0.00000000000E+00 0.  1.
          2    1    1    2  501    0  0.19861180255E+02  0.11907575030E+02  0.10952847349E+03  0.11194973573E+03  0.00000000000E+00 0. -1.
         -2    1    1    2    0  503 -0.19861180255E+02 -0.11907575030E+02  0.38910068786E+02  0.45279689455E+02  0.00000000000E+00 0.  1.
<mgrwt>
<rscale>  2 0.23157220E+02</rscale>
<asrwt>0</asrwt>
<pdfrwt beam="1">  1       21 0.23512917E-01 0.23157220E+02</pdfrwt>
<pdfrwt beam="2">  1       21 0.67622188E-03 0.23157220E+02</pdfrwt>
<totfact> 0.83294104E+07</totfact>
</mgrwt>
</event>
<event>
 4    1  0.2769537E+004  0.3088389E+02  0.7546771E-02  0.1588519E+00
         21   -1    0    0  501  502  0.00000000000E+00  0.00000000000E+00  0.48341930656E+02  0.48341930656E+02  0.00000000000E+00 0. -1.
         21   -1    0    0  502  503 -0.00000000000E+00 -0.00000000000E+00 -0.99596350253E+02  0.99596350253E+02  0.00000000000E+00 0.  1.
          2    1    1    2  501    0 -0.29846759220E+02 -0.79363296459E+01  0.40611093667E+02  0.51020341953E+02  0.00000000000E+00 0. -1.
         -2    1    1    2    0  503  0.29846759220E+02  0.79363296459E+01 -0.91865513265E+02  0.96917938956E+02  0.00000000000E+00 0.  1.
<mgrwt>
<rscale>  2 0.30883885E+02</rscale>
<asrwt>0</asrwt>
<pdfrwt beam="1">  1       21 0.74372201E-02 0.30883885E+02</pdfrwt>
<pdfrwt beam="2">  1       21 0.15322515E-01 0.30883885E+02</pdfrwt>
<totfact> 0.44870353E+06</totfact>
</mgrwt>
</event>
<event>
 4    1  0.2769537E+004  0.2051870E+02  0.7546771E-02  0.1735206E+00
         21   -1    0    0  503  502  0.00000000000E+00  0.00000000000E+00  0.75307471607E+02  0.75307471607E+02  0.00000000000E+00 0.  1.
         21   -1    0    0  501  503 -0.00000000000E+00 -0.00000000000E+00 -0.59554462608E+01  0.59554462608E+01  0.00000000000E+00 0. -1.
          2    1    1    2  501    0 -0.10073395599E+02 -0.17875787450E+02  0.24619775405E+02  0.32049187460E+02  0.00000000000E+00 0.  1.
         -2    1    1    2    0  502  0.10073395599E+02  0.17875787450E+02  0.44732249942E+02  0.49213730409E+02  0.00000000000E+00 0. -1.
<mgrwt>
<rscale>  2 0.20518701E+02</rscale>
<asrwt>0</asrwt>
<pdfrwt beam="1">  1       21 0.11585764E-01 0.20518701E+02</pdfrwt>
<pdfrwt beam="2">  1       21 0.91622255E-03 0.20518701E+02</pdfrwt>
<totfact> 0.17206790E+08</totfact>
</mgrwt>
</event>
<event>
 4    1  0.2769537E+004  0.3116206E+02  0.7546771E-02  0.1585588E+00
         21   -1    0    0  503  502  0.00000000000E+00  0.00000000000E+00  0.29250270647E+03  0.29250270647E+03  0.00000000000E+00 0. -1.
         21   -1    0    0  501  503 -0.00000000000E+00 -0.00000000000E+00 -0.35090394968E+01  0.35090394968E+01  0.00000000000E+00 0.  1.
          2    1    1    2  501    0 -0.18107028297E+02 -0.25361574916E+02  0.11013323644E+03  0.11445699509E+03  0.00000000000E+00 0.  1.
         -2    1    1    2    0  502  0.18107028297E+02  0.25361574916E+02  0.17886043053E+03  0.18155475087E+03  0.00000000000E+00 0. -1.
<mgrwt>
<rscale>  2 0.31162060E+02</rscale>
<asrwt>0</asrwt>
<pdfrwt beam="1">  1       21 0.45000397E-01 0.31162060E+02</pdfrwt>
<pdfrwt beam="2">  1       21 0.53985246E-03 0.31162060E+02</pdfrwt>
<totfact> 0.37479981E+07</totfact>
</mgrwt>
</event>
<event>
 4    1  0.2769537E+004  0.2620826E+02  0.7546771E-02  0.1644230E+00
         21   -1    0    0  501  502  0.00000000000E+00  0.00000000000E+00  0.43135772864E+03  0.43135772864E+03  0.00000000000E+00 0.  1.
         21   -1    0    0  502  503 -0.00000000000E+00 -0.00000000000E+00 -0.16261154643E+01  0.16261154643E+01  0.00000000000E+00 0. -1.
          2    1    1    2  501    0 -0.20162129535E+02  0.16743992546E+02  0.24606176090E+03  0.24745355712E+03  0.00000000000E+00 0.  1.
         -2    1    1    2    0  503  0.20162129535E+02 -0.16743992546E+02  0.18366985227E+03  0.18553028698E+03  0.00000000000E+00 0. -1.
<mgrwt>
<rscale>  2 0.26208257E+02</rscale>
<asrwt>0</asrwt>
<pdfrwt beam="1">  1       21 0.66362637E-01 0.26208257E+02</pdfrwt>
<pdfrwt beam="2">  1       21 0.25017195E-03 0.26208257E+02</pdfrwt>
<totfact> 0.51948275E+07</totfact>
</mgrwt>
</event>
<event>
 4    1  0.2769537E+004  0.2477319E+02  0.7546771E-02  0.1664281E+00
         21   -1    0    0  501  502  0.00000000000E+00  0.00000000000E+00  0.19552938517E+03  0.19552938517E+03  0.00000000000E+00 0.  1.
         21   -1    0    0  502  503 -0.00000000000E+00 -0.00000000000E+00 -0.14899289022E+02  0.14899289022E+02  0.00000000000E+00 0. -1.
          2    1    1    2  501    0 -0.11029280873E+01 -0.24748625729E+02  0.18379240388E+03  0.18545446517E+03  0.00000000000E+00 0.  1.
         -2    1    1    2    0  503  0.11029280873E+01  0.24748625729E+02 -0.31623077404E+01  0.24974209018E+02  0.00000000000E+00 0. -1.
<mgrwt>
<rscale>  2 0.24773190E+02</rscale>
<asrwt>0</asrwt>
<pdfrwt beam="1">  1       21 0.30081442E-01 0.24773190E+02</pdfrwt>
<pdfrwt beam="2">  1       21 0.22921984E-02 0.24773190E+02</pdfrwt>
<totfact> 0.85458631E+06</totfact>
</mgrwt>
</event>
<event>
 4    1  0.2769537E+004  0.2941060E+02  0.7546771E-02  0.1604697E+00
         21   -1    0    0  501  502  0.00000000000E+00  0.00000000000E+00  0.38279602556E+03  0.38279602556E+03  0.00000000000E+00 0. -1.
         21   -1    0    0  502  503 -0.00000000000E+00 -0.00000000000E+00 -0.22685700846E+01  0.22685700846E+01  0.00000000000E+00 0.  1.
          2    1    1    2  501    0  0.23376382202E+02  0.17847362715E+02  0.20233918078E+03  0.20446546819E+03  0.00000000000E+00 0. -1.
         -2    1    1    2    0  503 -0.23376382202E+02 -0.17847362715E+02  0.17818827469E+03  0.18059912746E+03  0.00000000000E+00 0.  1.
<mgrwt>
<rscale>  2 0.29410604E+02</rscale>
<asrwt>0</asrwt>
<pdfrwt beam="1">  1       21 0.58891645E-01 0.29410604E+02</pdfrwt>
<pdfrwt beam="2">  1       21 0.34901109E-03 0.29410604E+02</pdfrwt>
<totfact> 0.41607373E+07</totfact>
</mgrwt>
</event>
<event>
 4    1  0.2769537E+004  0.2837293E+02  0.7546771E-02  0.1616803E+00
         21   -1    0    0  501  502  0.00000000000E+00  0.00000000000E+00  0.15437378244E+03  0.15437378244E+03  0.00000000000E+00 0.  1.
         21   -1    0    0  502  503 -0.00000000000E+00 -0.00000000000E+00 -0.68470390408E+01  0.68470390408E+01  0.00000000000E+00 0. -1.
          2    1    1    2  501    0 -0.28372635744E+02 -0.12911880318E+00  0.11312165561E+03  0.11662560653E+03  0.00000000000E+00 0.  1.
         -2    1    1    2    0  503  0.28372635744E+02  0.12911880318E+00  0.34405087792E+02  0.44595214953E+02  0.00000000000E+00 0. -1.
<mgrwt>
<rscale>  2 0.28372930E+02</rscale>
<asrwt>0</asrwt>
<pdfrwt beam="1">  1       21 0.23749810E-01 0.28372930E+02</pdfrwt>
<pdfrwt beam="2">  1       21 0.10533907E-02 0.28372930E+02</pdfrwt>
<totfact> 0.44171070E+07</totfact>
</mgrwt>
</event>
<event>
 4    1  0.2769537E+004  0.2025175E+02  0.7546771E-02  0.1740368E+00
         21   -1    0    0  501  502  0.00000000000E+00  0.00000000000E+00  0.13087328205E+03  0.13087328205E+03  0.00000000000E+00 0. -1.
         21   -1    0    0  502  503 -0.00000000000E+00 -0.00000000000E+00 -0.42334068846E+01  0.42334068846E+01  0.00000000000E+00 0.  1.
          2    1    1    2  501    0 -0.12136812667E+02  0.16212070388E+02  0.97748303866E+02  0.99824167198E+02  0.00000000000E+00 0. -1.
         -2    1    1    2    0  503  0.12136812667E+02 -0.16212070388E+02  0.28891571300E+02  0.35282521738E+02  0.00000000000E+00 0.  1.
<mgrwt>
<rscale>  2 0.20251752E+02</rscale>
<asrwt>0</asrwt>
<pdfrwt beam="1">  1       21 0.20134348E-01 0.20251752E+02</pdfrwt>
<pdfrwt beam="2">  1       21 0.65129347E-03 0.20251752E+02</pdfrwt>
<totfact> 0.11137179E+08</totfact>
</mgrwt>
</event>
<event>
 4    1  0.2769537E+004  0.2507255E+02  0.7546771E-02  0.1659962E+00
         21   -1    0    0  501  502  0.00000000000E+00  0.00000000000E+00  0.41968266897E+02  0.41968266897E+02  0.00000000000E+00 0. -1.
         21   -1    0    0  502  503 -0.00000000000E+00 -0.00000000000E+00 -0.24560467960E+02  0.24560467960E+02  0.00000000000E+00 0.  1.
          2    1    1    2  501    0  0.12999857181E+02  0.21439128791E+02  0.29480880906E+02  0.38700838092E+02  0.00000000000E+00 0. -1.
         -2    1    1    2    0  503 -0.12999857181E+02 -0.21439128791E+02 -0.12073081969E+02  0.27827896764E+02  0.00000000000E+00 0.  1.
<mgrwt>
<rscale>  2 0.25072545E+02</rscale>
<asrwt>0</asrwt>
<pdfrwt beam="1">  1       21 0.64566564E-02 0.25072545E+02</pdfrwt>
<pdfrwt beam="2">  1       21 0.37785335E-02 0.25072545E+02</pdfrwt>
<totfact> 0.54227133E+07</totfact>
</mgrwt>
</event>
<event>
 4    1  0.2769537E+004  0.3745882E+02  0.7546771E-02  0.1527790E+00
         21   -1    0    0  501  502  0.00000000000E+00  0.00000000000E+00  0.93844981131E+03  0.93844981131E+03  0.00000000000E+00 0. -1.
         21   -1    0    0  502  503 -0.00000000000E+00 -0.00000000000E+00 -0.15063217142E+01  0.15063217142E+01  0.00000000000E+00 0.  1.
          2    1    1    2  501    0  0.20227432190E+02  0.31527989672E+02  0.50886886680E+03  0.51024571213E+03  0.00000000000E+00 0. -1.
         -2    1    1    2    0  503 -0.20227432190E+02 -0.31527989672E+02  0.42807462280E+03  0.42971042090E+03  0.00000000000E+00 0.  1.
<mgrwt>
<rscale>  2 0.37458819E+02</rscale>
<asrwt>0</asrwt>
<pdfrwt beam="1">  1       21 0.14437643E+00 0.37458819E+02</pdfrwt>
<pdfrwt beam="2">  1       21 0.23174255E-03 0.37458819E+02</pdfrwt>
<totfact> 0.10998929E+07</totfact>
</mgrwt>
</event>
<event>
 4    1  0.2769537E+004  0.2094565E+02  0.7546771E-02  0.1727151E+00
         21   -1    0    0  503  502  0.00000000000E+00  0.00000000000E+00  0.11430377271E+02  0.11430377271E+02  0.00000000000E+00 0. -1.
         21   -1    0    0  501  503 -0.00000000000E+00 -0.00000000000E+00 -0.40383599177E+02  0.40383599177E+02  0.00000000000E+00 0.  1.
          2    1    1    2  501    0  0.20847830688E+02  0.20219687591E+01 -0.20244357724E+02  0.29129957461E+02  0.00000000000E+00 0.  1.
         -2    1    1    2    0  502 -0.20847830688E+02 -0.20219687591E+01 -0.87088641822E+01  0.22684018987E+02  0.00000000000E+00 0. -1.
<mgrwt>
<rscale>  2 0.20945654E+02</rscale>
<asrwt>0</asrwt>
<pdfrwt beam="1">  1       21 0.17585196E-02 0.20945654E+02</pdfrwt>
<pdfrwt beam="2">  1       21 0.62128614E-02 0.20945654E+02</pdfrwt>
<totfact> 0.17917545E+08</totfact>
</mgrwt>
</event>
<event>
 4    1  0.2769537E+004  0.3591521E+02  0.7546771E-02  0.1540620E+00
         21   -1    0    0  503  502  0.00000000000E+00  0.00000000000E+00  0.11858762356E+02  0.11858762356E+02  0.00000000000E+00 0.  1.
         21   -1    0    0  501  503 -0.00000000000E+00 -0.00000000000E+00 -0.11363640081E+03  0.11363640081E+03  0.00000000000E+00 0. -1.
          2    1    1    2  501    0  0.13254134414E+02 -0.33380085923E+02 -0.63871054747E+02  0.73276284362E+02  0.00000000000E+00 0. -1.
         -2    1    1    2    0  502 -0.13254134414E+02  0.33380085923E+02 -0.37906583709E+02  0.52218878807E+02  0.00000000000E+00 0.  1.
<mgrwt>
<rscale>  2 0.35915209E+02</rscale>
<asrwt>0</asrwt>
<pdfrwt beam="1">  1       21 0.18244249E-02 0.35915209E+02</pdfrwt>
<pdfrwt beam="2">  1       21 0.17482524E-01 0.35915209E+02</pdfrwt>
<totfact> 0.34321069E+07</totfact>
</mgrwt>
</event>
<event>
 4    1  0.2769537E+004  0.3186339E+02  0.7546771E-02  0.1578360E+00
         21   -1    0    0  501  502  0.00000000000E+00  0.00000000000E+00  0.42638518382E+01  0.42638518382E+01  0.00000000000E+00 0. -1.
         21   -1    0    0  502  503 -0.00000000000E+00 -0.00000000000E+00 -0.23847356970E+03  0.23847356970E+03  0.00000000000E+00 0.  1.
          2    1    1    2  501    0  0.79821100353E+01  0.30847396286E+02 -0.11238150822E+03  0.11681129795E+03  0.00000000000E+00 0.  1.
         -2    1    1    2    0  503 -0.79821100353E+01 -0.30847396286E+02 -0.12182820965E+03  0.12592612360E+03  0.00000000000E+00 0. -1.
<mgrwt>
<rscale>  2 0.31863395E+02</rscale>
<asrwt>0</asrwt>
<pdfrwt beam="1">  1       21 0.65597729E-03 0.31863395E+02</pdfrwt>
<pdfrwt beam="2">  1       21 0.36688237E-01 0.31863395E+02</pdfrwt>
<totfact> 0.41562191E+07</totfact>
</mgrwt>
</event>
<event>
 4    1  0.2769537E+004  0.2122055E+02  0.7546771E-02  0.1722092E+00
         21   -1    0    0  503  502  0.00000000000E+00  0.00000000000E+00  0.37369874048E+01  0.37369874048E+01  0.00000000000E+00 0. -1.
         21   -1    0    0  501  503 -0.00000000000E+00 -0.00000000000E+00 -0.23175565646E+03  0.23175565646E+03  0.00000000000E+00 0.  1.
          2    1    1    2  501    0 -0.21216245443E+02 -0.42731669758E+00 -0.19559066435E+03  0.19673845494E+03  0.00000000000E+00 0.  1.
         -2    1    1    2    0  502  0.21216245443E+02  0.42731669758E+00 -0.32428004705E+02  0.38754188928E+02  0.00000000000E+00 0. -1.
<mgrwt>
<rscale>  2 0.21220548E+02</rscale>
<asrwt>0</asrwt>
<pdfrwt beam="1">  1       21 0.57492133E-03 0.21220548E+02</pdfrwt>
<pdfrwt beam="2">  1       21 0.35654705E-01 0.21220548E+02</pdfrwt>
<totfact> 0.48760939E+07</totfact>
</mgrwt>
</event>
<event>
 4    1  0.2769537E+004  0.2036230E+02  0.7546771E-02  0.1738218E+00
         21   -1    0    0  503  502  0.00000000000E+00  0.00000000000E+00  0.94883133238E+01  0.94883133238E+01  0.00000000000E+00 0. -1.
         21   -1    0    0  501  503 -0.00000000000E+00 -0.00000000000E+00 -0.98240433030E+02  0.98240433030E+02  0.00000000000E+00 0.  1.
          2    1    1    2  501    0 -0.20352340658E+02  0.63664669019E+00 -0.84510995038E+02  0.86929462046E+02  0.00000000000E+00 0.  1.
         -2    1    1    2    0  502  0.20352340658E+02 -0.63664669019E+00 -0.42411246689E+01  0.20799284308E+02  0.00000000000E+00 0. -1.
<mgrwt>
<rscale>  2 0.20362296E+02</rscale>
<asrwt>0</asrwt>
<pdfrwt beam="1">  1       21 0.14597405E-02 0.20362296E+02</pdfrwt>
<pdfrwt beam="2">  1       21 0.15113913E-01 0.20362296E+02</pdfrwt>
<totfact> 0.54605305E+07</totfact>
</mgrwt>
</event>
<event>
 4    1  0.2769537E+004  0.2817252E+02  0.7546771E-02  0.1619214E+00
         21   -1    0    0  501  502  0.00000000000E+00  0.00000000000E+00  0.11280454012E+01  0.11280454012E+01  0.00000000000E+00 0.  1.
         21   -1    0    0  502  503 -0.00000000000E+00 -0.00000000000E+00 -0.89225413285E+03  0.89225413285E+03  0.00000000000E+00 0. -1.
          2    1    1    2  501    0  0.19585166226E+02  0.20251224325E+02 -0.24016413711E+03  0.24181088391E+03  0.00000000000E+00 0.  1.
         -2    1    1    2    0  503 -0.19585166226E+02 -0.20251224325E+02 -0.65096195034E+03  0.65157129434E+03  0.00000000000E+00 0. -1.
<mgrwt>
<rscale>  2 0.28172519E+02</rscale>
<asrwt>0</asrwt>
<pdfrwt beam="1">  1       21 0.17354457E-03 0.28172519E+02</pdfrwt>
<pdfrwt beam="2">  1       21 0.13727056E+00 0.28172519E+02</pdfrwt>
<totfact> 0.18256556E+07</totfact>
</mgrwt>
</event>
<event>
 4    1  0.2769537E+004  0.2563407E+02  0.7546771E-02  0.1652058E+00
         21   -1    0    0  503  502  0.00000000000E+00  0.00000000000E+00  0.52852694726E+02  0.52852694726E+02  0.00000000000E+00 0.  1.
         21   -1    0    0  501  503 -0.00000000000E+00 -0.00000000000E+00 -0.46984672988E+02  0.46984672988E+02  0.00000000000E+00 0. -1.
          2    1    1    2  501    0  0.23930812804E+02 -0.91881363266E+01 -0.39873598782E+02  0.47402632104E+02  0.00000000000E+00 0. -1.
         -2    1    1    2    0  502 -0.23930812804E+02  0.91881363266E+01  0.45741620520E+02  0.52434735609E+02  0.00000000000E+00 0.  1.
<mgrwt>
<rscale>  2 0.25634072E+02</rscale>
<asrwt>0</asrwt>
<pdfrwt beam="1">  1       21 0.81311838E-02 0.25634072E+02</pdfrwt>
<pdfrwt beam="2">  1       21 0.72284112E-02 0.25634072E+02</pdfrwt>
<totfact> 0.13237537E+07</totfact>
</mgrwt>
</event>
<event>
 4    1  0.2769537E+004  0.2241399E+02  0.7546771E-02  0.1701189E+00
         21   -1    0    0  503  502  0.00000000000E+00  0.00000000000E+00  0.17552319793E+01  0.17552319793E+01  0.00000000000E+00 0.  1.
         21   -1    0    0  501  503 -0.00000000000E+00 -0.00000000000E+00 -0.28799377574E+03  0.28799377574E+03  0.00000000000E+00 0. -1.
          2    1    1    2  501    0 -0.12089350970E+02  0.18874181117E+02 -0.13175799573E+03  0.13365087563E+03  0.00000000000E+00 0. -1.
         -2    1    1    2    0  502  0.12089350970E+02 -0.18874181117E+02 -0.15448054803E+03  0.15609813208E+03  0.00000000000E+00 0.  1.
<mgrwt>
<rscale>  2 0.22413994E+02</rscale>
<asrwt>0</asrwt>
<pdfrwt beam="1">  1       21 0.27003588E-03 0.22413994E+02</pdfrwt>
<pdfrwt beam="2">  1       21 0.44306704E-01 0.22413994E+02</pdfrwt>
<totfact> 0.99390238E+07</totfact>
</mgrwt>
</event>
<event>
 4    1  0.2769537E+004  0.3195319E+02  0.7546771E-02  0.1577451E+00
         21   -1    0    0  503  502  0.00000000000E+00  0.00000000000E+00  0.34908772851E+02  0.34908772851E+02  0.00000000000E+00 0. -1.
         21   -1    0    0  501  503 -0.00000000000E+00 -0.00000000000E+00 -0.39256451861E+02  0.39256451861E+02  0.00000000000E+00 0.  1.
          2    1    1    2  501    0 -0.23720407744E+02 -0.21409071517E+02 -0.20897975862E+02  0.38180249893E+02  0.00000000000E+00 0.  1.
         -2    1    1    2    0  502  0.23720407744E+02  0.21409071517E+02  0.16550296852E+02  0.35984974819E+02  0.00000000000E+00 0. -1.
<mgrwt>
<rscale>  2 0.31953186E+02</rscale>
<asrwt>0</asrwt>
<pdfrwt beam="1">  1       21 0.53705804E-02 0.31953186E+02</pdfrwt>
<pdfrwt beam="2">  1       21 0.60394541E-02 0.31953186E+02</pdfrwt>
<totfact> 0.36403766E+07</totfact>
</mgrwt>
</event>
<event>
 4    1  0.2769537E+004  0.4605595E+02  0.7546771E-02  0.1467855E+00
         21   -1    0    0  501  502  0.00000000000E+00  0.00000000000E+00  0.34078830569E+01  0.34078830569E+01  0.00000000000E+00 0.  1.
         21   -1    0    0  502  503 -0.00000000000E+00 -0.00000000000E+00 -0.13848144496E+04  0.13848144496E+04  0.00000000000E+00 0. -1.
          2    1    1    2  501    0  0.37495243501E+02  0.26744292994E+02 -0.17568603968E+03  0.18162250696E+03  0.00000000000E+00 0.  1.
         -2    1    1    2    0  503 -0.37495243501E+02 -0.26744292994E+02 -0.12057205268E+04  0.12065998257E+04  0.00000000000E+00 0. -1.
<mgrwt>
<rscale>  2 0.46055950E+02</rscale>
<asrwt>0</asrwt>
<pdfrwt beam="1">  1       21 0.52428933E-03 0.46055950E+02</pdfrwt>
<pdfrwt beam="2">  1       21 0.21304853E+00 0.46055950E+02</pdfrwt>
<totfact> 0.12069137E+06</totfact>
</mgrwt>
</event>
<event>
 4    1  0.2769537E+004  0.4340689E+02  0.7546771E-02  0.1484539E+00
         21   -1    0    0  503  502  0.00000000000E+00  0.00000000000E+00  0.33146911150E+02  0.33146911150E+02  0.00000000000E+00 0. -1.
         21   -1    0    0  501  503 -0.00000000000E+00 -0.00000000000E+00 -0.14397638199E+03  0.14397638199E+03  0.00000000000E+00 0.  1.
          2    1    1    2  501    0  0.22391620867E+02 -0.37185656917E+02 -0.12431061518E+03  0.13167113128E+03  0.00000000000E+00 0.  1.
         -2    1    1    2    0  502 -0.22391620867E+02  0.37185656917E+02  0.13481144338E+02  0.45452161864E+02  0.00000000000E+00 0. -1.
<mgrwt>
<rscale>  2 0.43406886E+02</rscale>
<asrwt>0</asrwt>
<pdfrwt beam="1">  1       21 0.50995249E-02 0.43406886E+02</pdfrwt>
<pdfrwt beam="2">  1       21 0.22150212E-01 0.43406886E+02</pdfrwt>
<totfact> 0.45170780E+06</totfact>
</mgrwt>
</event>
<event>
 4    1  0.2769537E+004  0.2787627E+02  0.7546771E-02  0.1622824E+00
         21   -1    0    0  501  502  0.00000000000E+00  0.00000000000E+00  0.19031532582E+03  0.19031532582E+03  0.00000000000E+00 0.  1.
         21   -1    0    0  502  503 -0.00000000000E+00 -0.00000000000E+00 -0.41576499235E+01  0.41576499235E+01  0.00000000000E+00 0. -1.
          2    1    1    2  501    0  0.58542065805E+01  0.27254623470E+02  0.10609491054E+03  0.10969601761E+03  0.00000000000E+00 0. -1.
         -2    1    1    2    0  503 -0.58542065805E+01 -0.27254623470E+02  0.80062765350E+02  0.84776958136E+02  0.00000000000E+00 0.  1.
<mgrwt>
<rscale>  2 0.27876267E+02</rscale>
<asrwt>0</asrwt>
<pdfrwt beam="1">  1       21 0.29279274E-01 0.27876267E+02</pdfrwt>
<pdfrwt beam="2">  1       21 0.63963860E-03 0.27876267E+02</pdfrwt>
<totfact> 0.63811466E+07</totfact>
</mgrwt>
</event>
<event>
 4    1  0.2769537E+004  0.2254496E+02  0.7546771E-02  0.1698994E+00
         21   -1    0    0  501  502  0.00000000000E+00  0.00000000000E+00  0.44166030205E+02  0.44166030205E+02  0.00000000000E+00 0.  1.
         21   -1    0    0  502  503 -0.00000000000E+00 -0.00000000000E+00 -0.71243795116E+02  0.71243795116E+02  0.00000000000E+00 0. -1.
          2    1    1    2  501    0  0.61565399393E+01 -0.21688063162E+02  0.39300236734E+02  0.45307655811E+02  0.00000000000E+00 0.  1.
         -2    1    1    2    0  503 -0.61565399393E+01  0.21688063162E+02 -0.66378001645E+02  0.70102169511E+02  0.00000000000E+00 0. -1.
<mgrwt>
<rscale>  2 0.22544957E+02</rscale>
<asrwt>0</asrwt>
<pdfrwt beam="1">  1       21 0.67947740E-02 0.22544957E+02</pdfrwt>
<pdfrwt beam="2">  1       21 0.10960584E-01 0.22544957E+02</pdfrwt>
<totfact> 0.87219527E+06</totfact>
</mgrwt>
</event>
<event>
 4    1  0.2769537E+004  0.3849243E+02  0.7546771E-02  0.1519608E+00
         21   -1    0    0  501  502  0.00000000000E+00  0.00000000000E+00  0.99555591139E+01  0.99555591139E+01  0.00000000000E+00 0.  1.
         21   -1    0    0  502  503 -0.00000000000E+00 -0.00000000000E+00 -0.21535717479E+03  0.21535717479E+03  0.00000000000E+00 0. -1.
          2    1    1    2  501    0 -0.16261071235E+02  0.34889031428E+02 -0.40085314095E+02  0.55574268846E+02  0.00000000000E+00 0.  1.
         -2    1    1    2    0  503  0.16261071235E+02 -0.34889031428E+02 -0.16531630158E+03  0.16973846505E+03  0.00000000000E+00 0. -1.
<mgrwt>
<rscale>  2 0.38492427E+02</rscale>
<asrwt>0</asrwt>
<pdfrwt beam="1">  1       21 0.15316245E-02 0.38492427E+02</pdfrwt>
<pdfrwt beam="2">  1       21 0.33131874E-01 0.38492427E+02</pdfrwt>
<totfact> 0.14287049E+07</totfact>
</mgrwt>
</event>
<event>
 4    1  0.2769537E+004  0.2672633E+02  0.7546771E-02  0.1637376E+00
         21   -1    0    0  501  502  0.00000000000E+00  0.00000000000E+00  0.97549635698E+02  0.97549635698E+02  0.00000000000E+00 0. -1.
         21   -1    0    0  502  503 -0.00000000000E+00 -0.00000000000E+00 -0.88748929479E+01  0.88748929479E+01  0.00000000000E+00 0.  1.
          2    1    1    2  501    0 -0.26699943078E+02  0.11874233742E+01  0.66593300960E+02  0.71756286605E+02  0.00000000000E+00 0.  1.
         -2    1    1    2    0  503  0.26699943078E+02 -0.11874233742E+01  0.22081441790E+02  0.34668242040E+02  0.00000000000E+00 0. -1.
<mgrwt>
<rscale>  2 0.26726334E+02</rscale>
<asrwt>0</asrwt>
<pdfrwt beam="1">  1       21 0.15007635E-01 0.26726334E+02</pdfrwt>
<pdfrwt beam="2">  1       21 0.13653682E-02 0.26726334E+02</pdfrwt>
<totfact> 0.65578600E+07</totfact>
</mgrwt>
</event>
<event>
 4    1  0.2769537E+004  0.3780519E+02  0.7546771E-02  0.1525013E+00
         21   -1    0    0  503  502  0.00000000000E+00  0.00000000000E+00  0.11006351874E+04  0.11006351874E+04  0.00000000000E+00 0. -1.
         21   -1    0    0  501  503 -0.00000000000E+00 -0.00000000000E+00 -0.14256137866E+01  0.14256137866E+01  0.00000000000E+00 0.  1.
          2    1    1    2  501    0 -0.12346039471E+02 -0.35732450713E+02  0.38509906533E+03  0.38695028471E+03  0.00000000000E+00 0.  1.
         -2    1    1    2    0  502  0.12346039471E+02  0.35732450713E+02  0.71411050833E+03  0.71511051651E+03  0.00000000000E+00 0. -1.
<mgrwt>
<rscale>  2 0.37805194E+02</rscale>
<asrwt>0</asrwt>
<pdfrwt beam="1">  1       21 0.16932781E+00 0.37805194E+02</pdfrwt>
<pdfrwt beam="2">  1       21 0.21932608E-03 0.37805194E+02</pdfrwt>
<totfact> 0.80525178E+06</totfact>
</mgrwt>
</event>
<event>
 4    1  0.2769537E+004  0.2035706E+02  0.7546771E-02  0.1738319E+00
         21   -1    0    0  503  502  0.00000000000E+00  0.00000000000E+00  0.29909457057E+01  0.29909457057E+01  0.00000000000E+00 0. -1.
         21   -1    0    0  501  503 -0.00000000000E+00 -0.00000000000E+00 -0.14167870926E+03  0.14167870926E+03  0.00000000000E+00 0.  1.
          2    1    1    2  501    0  0.18384752615E+02  0.87413313766E+01 -0.80084804602E+02  0.82631627910E+02  0.00000000000E+00 0.  1.
         -2    1    1    2    0  502 -0.18384752615E+02 -0.87413313766E+01 -0.58602958950E+02  0.62038027053E+02  0.00000000000E+00 0. -1.
<mgrwt>
<rscale>  2 0.20357063E+02</rscale>
<asrwt>0</asrwt>
<pdfrwt beam="1">  1       21 0.46014555E-03 0.20357063E+02</pdfrwt>
<pdfrwt beam="2">  1       21 0.21796722E-01 0.20357063E+02</pdfrwt>
<totfact> 0.16197781E+08</totfact>
</mgrwt>
</event>
<event>
 4    1  0.2769537E+004  0.2578003E+02  0.7546771E-02  0.1650044E+00
         21   -1    0    0  501  502  0.00000000000E+00  0.00000000000E+00  0.57367013017E+02  0.57367013017E+02  0.00000000000E+00 0. -1.
         21   -1    0    0  502  503 -0.00000000000E+00 -0.00000000000E+00 -0.17986153776E+02  0.17986153776E+02  0.00000000000E+00 0.  1.
          2    1    1    2  501    0 -0.15630058070E+02  0.20501490461E+02  0.42166677660E+02  0.49423056677E+02  0.00000000000E+00 0. -1.
         -2    1    1    2    0  503  0.15630058070E+02 -0.20501490461E+02 -0.27858184193E+01  0.25930110117E+02  0.00000000000E+00 0.  1.
<mgrwt>
<rscale>  2 0.25780028E+02</rscale>
<asrwt>0</asrwt>
<pdfrwt beam="1">  1       21 0.88256943E-02 0.25780028E+02</pdfrwt>
<pdfrwt beam="2">  1       21 0.27671006E-02 0.25780028E+02</pdfrwt>
<totfact> 0.53407254E+07</totfact>
</mgrwt>
</event>
<event>
 4    1  0.2769537E+004  0.2272229E+02  0.7546771E-02  0.1696052E+00
         21   -1    0    0  503  502  0.00000000000E+00  0.00000000000E+00  0.43412000584E+01  0.43412000584E+01  0.00000000000E+00 0. -1.
         21   -1    0    0  501  503 -0.00000000000E+00 -0.00000000000E+00 -0.14909756733E+03  0.14909756733E+03  0.00000000000E+00 0.  1.
          2    1    1    2  501    0  0.15723546536E+02 -0.16403434561E+02 -0.10688730536E+03  0.10927579159E+03  0.00000000000E+00 0.  1.
         -2    1    1    2    0  502 -0.15723546536E+02  0.16403434561E+02 -0.37869061910E+02  0.44162975795E+02  0.00000000000E+00 0. -1.
<mgrwt>
<rscale>  2 0.22722293E+02</rscale>
<asrwt>0</asrwt>
<pdfrwt beam="1">  1       21 0.66787701E-03 0.22722293E+02</pdfrwt>
<pdfrwt beam="2">  1       21 0.22938085E-01 0.22722293E+02</pdfrwt>
<totfact> 0.88193074E+07</totfact>
</mgrwt>
</event>
<event>
 4    1  0.2769537E+004  0.2121767E+02  0.7546771E-02  0.1722144E+00
         21   -1    0    0  501  502  0.00000000000E+00  0.00000000000E+00  0.28845625005E+01  0.28845625005E+01  0.00000000000E+00 0. -1.
         21   -1    0    0  502  503 -0.00000000000E+00 -0.00000000000E+00 -0.18634325583E+03  0.18634325583E+03  0.00000000000E+00 0.  1.
          2    1    1    2  501    0 -0.12823596426E+02  0.16903996004E+02 -0.53593133415E+02  0.57640382159E+02  0.00000000000E+00 0.  1.
         -2    1    1    2    0  503  0.12823596426E+02 -0.16903996004E+02 -0.12986555992E+03  0.13158743618E+03  0.00000000000E+00 0. -1.
<mgrwt>
<rscale>  2 0.21217674E+02</rscale>
<asrwt>0</asrwt>
<pdfrwt beam="1">  1       21 0.44377889E-03 0.21217674E+02</pdfrwt>
<pdfrwt beam="2">  1       21 0.28668190E-01 0.21217674E+02</pdfrwt>
<totfact> 0.10627709E+08</totfact>
</mgrwt>
</event>
<event>
 4    1  0.2769537E+004  0.9738228E+02  0.7546771E-02  0.1285899E+00
         21   -1    0    0  501  502  0.00000000000E+00  0.00000000000E+00  0.74764218290E+03  0.74764218290E+03  0.00000000000E+00 0.  1.
         21   -1    0    0  502  503 -0.00000000000E+00 -0.00000000000E+00 -0.26276042844E+02  0.26276042844E+02  0.00000000000E+00 0. -1.
          2    1    1    2  501    0  0.95945036325E+02  0.16669091230E+02  0.63898926137E+03  0.64636722128E+03  0.00000000000E+00 0. -1.
         -2    1    1    2    0  503 -0.95945036325E+02 -0.16669091230E+02  0.82376878687E+02  0.12755100447E+03  0.00000000000E+00 0.  1.
<mgrwt>
<rscale>  2 0.97382281E+02</rscale>
<asrwt>0</asrwt>
<pdfrwt beam="1">  1       21 0.11502186E+00 0.97382281E+02</pdfrwt>
<pdfrwt beam="2">  1       21 0.40424687E-02 0.97382281E+02</pdfrwt>
<totfact> 0.23272218E+05</totfact>
</mgrwt>
</event>
<event>
 4    1  0.2769537E+004  0.2662932E+02  0.7546771E-02  0.1638645E+00
         21   -1    0    0  503  502  0.00000000000E+00  0.00000000000E+00  0.38798603805E+01  0.38798603805E+01  0.00000000000E+00 0.  1.
         21   -1    0    0  501  503 -0.00000000000E+00 -0.00000000000E+00 -0.18406712171E+03  0.18406712171E+03  0.00000000000E+00 0. -1.
          2    1    1    2  501    0 -0.45026988925E+01 -0.26245883875E+02 -0.97983439185E+02  0.10153755498E+03  0.00000000000E+00 0.  1.
         -2    1    1    2    0  502  0.45026988925E+01  0.26245883875E+02 -0.82203822148E+02  0.86409427109E+02  0.00000000000E+00 0. -1.
<mgrwt>
<rscale>  2 0.26629321E+02</rscale>
<asrwt>0</asrwt>
<pdfrwt beam="1">  1       21 0.59690165E-03 0.26629321E+02</pdfrwt>
<pdfrwt beam="2">  1       21 0.28318016E-01 0.26629321E+02</pdfrwt>
<totfact> 0.74383533E+07</totfact>
</mgrwt>
</event>
<event>
 4    1  0.2769537E+004  0.3050032E+02  0.7546771E-02  0.1592623E+00
         21   -1    0    0  503  502  0.00000000000E+00  0.00000000000E+00  0.86222790789E+02  0.86222790789E+02  0.00000000000E+00 0.  1.
         21   -1    0    0  501  503 -0.00000000000E+00 -0.00000000000E+00 -0.15057963087E+02  0.15057963087E+02  0.00000000000E+00 0. -1.
          2    1    1    2  501    0 -0.12681770879E+02 -0.27738824228E+02  0.86194306919E+01  0.31694861849E+02  0.00000000000E+00 0. -1.
         -2    1    1    2    0  502  0.12681770879E+02  0.27738824228E+02  0.62545397010E+02  0.69585892028E+02  0.00000000000E+00 0.  1.
<mgrwt>
<rscale>  2 0.30500323E+02</rscale>
<asrwt>0</asrwt>
<pdfrwt beam="1">  1       21 0.13265044E-01 0.30500323E+02</pdfrwt>
<pdfrwt beam="2">  1       21 0.23166098E-02 0.30500323E+02</pdfrwt>
<totfact> 0.36953835E+07</totfact>
</mgrwt>
</event>
<event>
 4    1  0.2769537E+004  0.2198161E+02  0.7546771E-02  0.1708570E+00
         21   -1    0    0  503  502  0.00000000000E+00  0.00000000000E+00  0.18608862169E+03  0.18608862169E+03  0.00000000000E+00 0.  1.
         21   -1    0    0  501  503 -0.00000000000E+00 -0.00000000000E+00 -0.28903827919E+01  0.28903827919E+01  0.00000000000E+00 0. -1.
          2    1    1    2  501    0 -0.21533573211E+02  0.44154711238E+01  0.61472868468E+02  0.65284796991E+02  0.00000000000E+00 0. -1.
         -2    1    1    2    0  502  0.21533573211E+02 -0.44154711238E+01  0.12172537043E+03  0.12369420749E+03  0.00000000000E+00 0.  1.
<mgrwt>
<rscale>  2 0.21981610E+02</rscale>
<asrwt>0</asrwt>
<pdfrwt beam="1">  1       21 0.28629009E-01 0.21981610E+02</pdfrwt>
<pdfrwt beam="2">  1       21 0.44467442E-03 0.21981610E+02</pdfrwt>
<totfact> 0.10727316E+08</totfact>
</mgrwt>
</event>
<event>
 4    1  0.2769537E+004  0.2904036E+02  0.7546771E-02  0.1608945E+00
         21   -1    0    0  503  502  0.00000000000E+00  0.00000000000E+00  0.26159083051E+03  0.26159083051E+03  0.00000000000E+00 0. -1.
         21   -1    0    0  501  503 -0.00000000000E+00 -0.00000000000E+00 -0.63718396975E+01  0.63718396975E+01  0.00000000000E+00 0.  1.
          2    1    1    2  501    0 -0.28661337208E+02  0.46765457584E+01  0.33436762396E+02  0.44287237556E+02  0.00000000000E+00 0.  1.
         -2    1    1    2    0  502  0.28661337208E+02 -0.46765457584E+01  0.22178222841E+03  0.22367543265E+03  0.00000000000E+00 0. -1.
<mgrwt>
<rscale>  2 0.29040357E+02</rscale>
<asrwt>0</asrwt>
<pdfrwt beam="1">  1       21 0.40244735E-01 0.29040357E+02</pdfrwt>
<pdfrwt beam="2">  1       21 0.98028323E-03 0.29040357E+02</pdfrwt>
<totfact> 0.18714664E+07</totfact>
</mgrwt>
</event>
<event>
 4    1  0.2769537E+004  0.2958983E+02  0.7546771E-02  0.1602667E+00
         21   -1    0    0  503  502  0.00000000000E+00  0.00000000000E+00  0.61778050768E+01  0.61778050768E+01  0.00000000000E+00 0. -1.
         21   -1    0    0  501  503 -0.00000000000E+00 -0.00000000000E+00 -0.27381994296E+03  0.27381994296E+03  0.00000000000E+00 0.  1.
          2    1    1    2  501    0  0.12612290773E+02 -0.26767298569E+02 -0.23105834373E+03  0.23294530766E+03  0.00000000000E+00 0.  1.
         -2    1    1    2    0  502 -0.12612290773E+02  0.26767298569E+02 -0.36583794153E+02  0.47052440382E+02  0.00000000000E+00 0. -1.
<mgrwt>
<rscale>  2 0.29589832E+02</rscale>
<asrwt>0</asrwt>
<pdfrwt beam="1">  1       21 0.95043151E-03 0.29589832E+02</pdfrwt>
<pdfrwt beam="2">  1       21 0.42126147E-01 0.29589832E+02</pdfrwt>
<totfact> 0.18031436E+07</totfact>
</mgrwt>
</event>
<event>
 4    1  0.2769537E+004  0.6214441E+02  0.7546771E-02  0.1389047E+00
         21   -1    0    0  501  502  0.00000000000E+00  0.00000000000E+00  0.80788522918E+02  0.80788522918E+02  0.00000000000E+00 0. -1.
         21   -1    0    0  502  503 -0.00000000000E+00 -0.00000000000E+00 -0.55356612758E+02  0.55356612758E+02  0.00000000000E+00 0.  1.
          2    1    1    2  501    0  0.60729216402E+02  0.13186715009E+02  0.37861849071E+02  0.72769820617E+02  0.00000000000E+00 0. -1.
         -2    1    1    2    0  503 -0.60729216402E+02 -0.13186715009E+02 -0.12429938911E+02  0.63375315059E+02  0.00000000000E+00 0.  1.
<mgrwt>
<rscale>  2 0.62144406E+02</rscale>
<asrwt>0</asrwt>
<pdfrwt beam="1">  1       21 0.12429004E-01 0.62144406E+02</pdfrwt>
<pdfrwt beam="2">  1       21 0.85164020E-02 0.62144406E+02</pdfrwt>
<totfact> 0.55428787E+06</totfact>
</mgrwt>
</event>
<event>
 4    1  0.2769537E+004  0.2524848E+02  0.7546771E-02  0.1657458E+00
         21   -1    0    0  503  502  0.00000000000E+00  0.00000000000E+00  0.17751530343E+02  0.17751530343E+02  0.00000000000E+00 0.  1.
         21   -1    0    0  501  503 -0.00000000000E+00 -0.00000000000E+00 -0.60915224565E+02  0.60915224565E+02  0.00000000000E+00 0. -1.
          2    1    1    2  501    0 -0.24817684367E+02 -0.46441924785E+01 -0.46781800581E+02  0.53160350326E+02  0.00000000000E+00 0. -1.
         -2    1    1    2    0  502  0.24817684367E+02  0.46441924785E+01  0.36181063585E+01  0.25506404582E+02  0.00000000000E+00 0.  1.
<mgrwt>
<rscale>  2 0.25248485E+02</rscale>
<asrwt>0</asrwt>
<pdfrwt beam="1">  1       21 0.27310047E-02 0.25248485E+02</pdfrwt>
<pdfrwt beam="2">  1       21 0.93715730E-02 0.25248485E+02</pdfrwt>
<totfact> 0.49123302E+07</totfact>
</mgrwt>
</event>
<event>
 4    1  0.2769537E+004  0.2098213E+02  0.7546771E-02  0.1726474E+00
         21   -1    0    0  501  502  0.00000000000E+00  0.00000000000E+00  0.18461465734E+02  0.18461465734E+02  0.00000000000E+00 0. -1.
         21   -1    0    0  502  503 -0.00000000000E+00 -0.00000000000E+00 -0.24144328616E+02  0.24144328616E+02  0.00000000000E+00 0.  1.
          2    1    1    2  501    0  0.16967132925E+02 -0.12343675305E+02 -0.47727988133E+00  0.20987560979E+02  0.00000000000E+00 0. -1.
         -2    1    1    2    0  503 -0.16967132925E+02  0.12343675305E+02 -0.52055830003E+01  0.21618233372E+02  0.00000000000E+00 0.  1.
<mgrwt>
<rscale>  2 0.20982133E+02</rscale>
<asrwt>0</asrwt>
<pdfrwt beam="1">  1       21 0.28402255E-02 0.20982133E+02</pdfrwt>
<pdfrwt beam="2">  1       21 0.37145121E-02 0.20982133E+02</pdfrwt>
<totfact> 0.19391898E+08</totfact>
</mgrwt>
</event>
<event>
 4    1  0.2769537E+004  0.6183980E+02  0.7546771E-02  0.1390269E+00
         21   -1    0    0  503  502  0.00000000000E+00  0.00000000000E+00  0.66750048708E+02  0.66750048708E+02  0.00000000000E+00 0.  1.
         21   -1    0    0  501  503 -0.00000000000E+00 -0.00000000000E+00 -0.57489185870E+02  0.57489185870E+02  0.00000000000E+00 0. -1.
          2    1    1    2  501    0 -0.37901865125E+02 -0.48863174621E+02  0.98094571500E+00  0.61847582560E+02  0.00000000000E+00 0. -1.
         -2    1    1    2    0  502  0.37901865125E+02  0.48863174621E+02  0.82799171235E+01  0.62391652018E+02  0.00000000000E+00 0.  1.
<mgrwt>
<rscale>  2 0.61839803E+02</rscale>
<asrwt>0</asrwt>
<pdfrwt beam="1">  1       21 0.10269238E-01 0.61839803E+02</pdfrwt>
<pdfrwt beam="2">  1       21 0.88444901E-02 0.61839803E+02</pdfrwt>
<totfact> 0.72261974E+06</totfact>
</mgrwt>
</event>
<event>
 4    1  0.2769537E+004  0.4937097E+02  0.7546771E-02  0.1448764E+00
         21   -1    0    0  503  502  0.00000000000E+00  0.00000000000E+00  0.26612690035E+03  0.26612690035E+03  0.00000000000E+00 0. -1.
         21   -1    0    0  501  503 -0.00000000000E+00 -0.00000000000E+00 -0.22323076106E+02  0.22323076106E+02  0.00000000000E+00 0.  1.
          2    1    1    2  501    0 -0.83977032819E+01  0.48651529468E+02  0.11148676071E+02  0.50614086163E+02  0.00000000000E+00 0. -1.
         -2    1    1    2    0  502  0.83977032819E+01 -0.48651529468E+02  0.23265514817E+03  0.23783589029E+03  0.00000000000E+00 0.  1.
<mgrwt>
<rscale>  2 0.49370971E+02</rscale>
<asrwt>0</asrwt>
<pdfrwt beam="1">  1       21 0.40942598E-01 0.49370971E+02</pdfrwt>
<pdfrwt beam="2">  1       21 0.34343196E-02 0.49370971E+02</pdfrwt>
<totfact> 0.27426661E+06</totfact>
</mgrwt>
</event>
<event>
 4    1  0.2769537E+004  0.3201190E+02  0.7546771E-02  0.1576858E+00
         21   -1    0    0  501  502  0.00000000000E+00  0.00000000000E+00  0.28167726599E+02  0.28167726599E+02  0.00000000000E+00 0. -1.
         21   -1    0    0  502  503 -0.00000000000E+00 -0.00000000000E+00 -0.18164993824E+03  0.18164993824E+03  0.00000000000E+00 0.  1.
          2    1    1    2  501    0 -0.18786029459E+02 -0.25920009822E+02  0.17075830218E+02  0.36281479981E+02  0.00000000000E+00 0. -1.
         -2    1    1    2    0  503  0.18786029459E+02  0.25920009822E+02 -0.17055804186E+03  0.17353618485E+03  0.00000000000E+00 0.  1.
<mgrwt>
<rscale>  2 0.32011901E+02</rscale>
<asrwt>0</asrwt>
<pdfrwt beam="1">  1       21 0.43334962E-02 0.32011901E+02</pdfrwt>
<pdfrwt beam="2">  1       21 0.27946146E-01 0.32011901E+02</pdfrwt>
<totfact> 0.37251338E+06</totfact>
</mgrwt>
</event>
<event>
 4    1  0.2769537E+004  0.2103697E+02  0.7546771E-02  0.1725460E+00
         21   -1    0    0  503  502  0.00000000000E+00  0.00000000000E+00  0.77931571463E+02  0.77931571463E+02  0.00000000000E+00 0. -1.
         21   -1    0    0  501  503 -0.00000000000E+00 -0.00000000000E+00 -0.67688541190E+02  0.67688541190E+02  0.00000000000E+00 0.  1.
          2    1    1    2  501    0  0.82734977297E+00 -0.21020692907E+02 -0.64567434469E+02  0.67908082228E+02  0.00000000000E+00 0.  1.
         -2    1    1    2    0  502 -0.82734977297E+00  0.21020692907E+02  0.74810464742E+02  0.77712030425E+02  0.00000000000E+00 0. -1.
<mgrwt>
<rscale>  2 0.21036968E+02</rscale>
<asrwt>0</asrwt>
<pdfrwt beam="1">  1       21 0.11989473E-01 0.21036968E+02</pdfrwt>
<pdfrwt beam="2">  1       21 0.10413622E-01 0.21036968E+02</pdfrwt>
<totfact> 0.36955274E+06</totfact>
</mgrwt>
</event>
<event>
 4    1  0.2769537E+004  0.3280762E+02  0.7546771E-02  0.1568978E+00
         21   -1    0    0  501  502  0.00000000000E+00  0.00000000000E+00  0.17675898859E+02  0.17675898859E+02  0.00000000000E+00 0.  1.
         21   -1    0    0  502  503 -0.00000000000E+00 -0.00000000000E+00 -0.62218065738E+02  0.62218065738E+02  0.00000000000E+00 0. -1.
          2    1    1    2  501    0  0.29233086912E+02 -0.14891837306E+02 -0.28100550665E+02  0.43197003790E+02  0.00000000000E+00 0. -1.
         -2    1    1    2    0  503 -0.29233086912E+02  0.14891837306E+02 -0.16441616215E+02  0.36696960807E+02  0.00000000000E+00 0.  1.
<mgrwt>
<rscale>  2 0.32807624E+02</rscale>
<asrwt>0</asrwt>
<pdfrwt beam="1">  1       21 0.27193691E-02 0.32807624E+02</pdfrwt>
<pdfrwt beam="2">  1       21 0.95720100E-02 0.32807624E+02</pdfrwt>
<totfact> 0.50654417E+07</totfact>
</mgrwt>
</event>
<event>
 4    1  0.2769537E+004  0.3651866E+02  0.7546771E-02  0.1535514E+00
         21   -1    0    0  501  502  0.00000000000E+00  0.00000000000E+00  0.18725400650E+02  0.18725400650E+02  0.00000000000E+00 0. -1.
         21   -1    0    0  502  503 -0.00000000000E+00 -0.00000000000E+00 -0.88613803303E+02  0.88613803303E+02  0.00000000000E+00 0.  1.
          2    1    1    2  501    0 -0.22497903304E+02 -0.28765555437E+02 -0.11165848625E+02  0.38187550435E+02  0.00000000000E+00 0. -1.
         -2    1    1    2    0  503  0.22497903304E+02  0.28765555437E+02 -0.58722554028E+02  0.69151653518E+02  0.00000000000E+00 0.  1.
<mgrwt>
<rscale>  2 0.36518664E+02</rscale>
<asrwt>0</asrwt>
<pdfrwt beam="1">  1       21 0.28808308E-02 0.36518664E+02</pdfrwt>
<pdfrwt beam="2">  1       21 0.13632893E-01 0.36518664E+02</pdfrwt>
<totfact> 0.25925831E+07</totfact>
</mgrwt>
</event>
<event>
 4    1  0.2769537E+004  0.2288922E+02  0.7546771E-02  0.1693312E+00
         21   -1    0    0  503  502  0.00000000000E+00  0.00000000000E+00  0.93931597803E+02  0.93931597803E+02  0.00000000000E+00 0.  1.
         21   -1    0    0  501  503 -0.00000000000E+00 -0.00000000000E+00 -0.70249456373E+01  0.70249456373E+01  0.00000000000E+00 0. -1.
          2    1    1    2  501    0 -0.10007944263E+02  0.20585371745E+02  0.20541306393E+02  0.30754865413E+02  0.00000000000E+00 0. -1.
         -2    1    1    2    0  502  0.10007944263E+02 -0.20585371745E+02  0.66365345773E+02  0.70201678027E+02  0.00000000000E+00 0.  1.
<mgrwt>
<rscale>  2 0.22889222E+02</rscale>
<asrwt>0</asrwt>
<pdfrwt beam="1">  1       21 0.14451014E-01 0.22889222E+02</pdfrwt>
<pdfrwt beam="2">  1       21 0.10807609E-02 0.22889222E+02</pdfrwt>
<totfact> 0.95728908E+07</totfact>
</mgrwt>
</event>
<event>
 4    1  0.2769537E+004  0.2180871E+02  0.7546771E-02  0.1711581E+00
         21   -1    0    0  501  502  0.00000000000E+00  0.00000000000E+00  0.12133536931E+04  0.12133536931E+04  0.00000000000E+00 0. -1.
         21   -1    0    0  502  503 -0.00000000000E+00 -0.00000000000E+00 -0.77490725824E+00  0.77490725824E+00  0.00000000000E+00 0.  1.
          2    1    1    2  501    0  0.21771882432E+02  0.12668669849E+01  0.10330295971E+04  0.10332597777E+04  0.00000000000E+00 0.  1.
         -2    1    1    2    0  503 -0.21771882432E+02 -0.12668669849E+01  0.17954918879E+03  0.18086882267E+03  0.00000000000E+00 0. -1.
<mgrwt>
<rscale>  2 0.21808710E+02</rscale>
<asrwt>0</asrwt>
<pdfrwt beam="1">  1       21 0.18666828E+00 0.21808710E+02</pdfrwt>
<pdfrwt beam="2">  1       21 0.11921747E-03 0.21808710E+02</pdfrwt>
<totfact> 0.14313571E+07</totfact>
</mgrwt>
</event>
<event>
 4    1  0.2769537E+004  0.2652889E+02  0.7546771E-02  0.1639966E+00
         21   -1    0    0  501  502  0.00000000000E+00  0.00000000000E+00  0.89767519453E+02  0.89767519453E+02  0.00000000000E+00 0.  1.
         21   -1    0    0  502  503 -0.00000000000E+00 -0.00000000000E+00 -0.12773160525E+02  0.12773160525E+02  0.00000000000E+00 0. -1.
          2    1    1    2  501    0  0.84350604436E+01  0.25152175401E+02  0.70359490498E+02  0.75194681163E+02  0.00000000000E+00 0.  1.
         -2    1    1    2    0  503 -0.84350604436E+01 -0.25152175401E+02  0.66348684296E+01  0.27345998815E+02  0.00000000000E+00 0. -1.
<mgrwt>
<rscale>  2 0.26528893E+02</rscale>
<asrwt>0</asrwt>
<pdfrwt beam="1">  1       21 0.13810387E-01 0.26528893E+02</pdfrwt>
<pdfrwt beam="2">  1       21 0.19651017E-02 0.26528893E+02</pdfrwt>
<totfact> 0.43185290E+07</totfact>
</mgrwt>
</event>
<event>
 4    1  0.2769537E+004  0.2598897E+02  0.7546771E-02  0.1647190E+00
         21   -1    0    0  503  502  0.00000000000E+00  0.00000000000E+00  0.19123767516E+02  0.19123767516E+02  0.00000000000E+00 0.  1.
         21   -1    0    0  501  503 -0.00000000000E+00 -0.00000000000E+00 -0.42797821376E+02  0.42797821376E+02  0.00000000000E+00 0. -1.
          2    1    1    2  501    0 -0.25964597011E+02 -0.11252647578E+01 -0.24779780759E+02  0.35909108221E+02  0.00000000000E+00 0. -1.
         -2    1    1    2    0  502  0.25964597011E+02  0.11252647578E+01  0.11057268995E+01  0.26012480672E+02  0.00000000000E+00 0.  1.
<mgrwt>
<rscale>  2 0.25988969E+02</rscale>
<asrwt>0</asrwt>
<pdfrwt beam="1">  1       21 0.29421181E-02 0.25988969E+02</pdfrwt>
<pdfrwt beam="2">  1       21 0.65842801E-02 0.25988969E+02</pdfrwt>
<totfact> 0.78511786E+07</totfact>
</mgrwt>
</event>
<event>
 4    1  0.2769537E+004  0.2925392E+02  0.7546771E-02  0.1606485E+00
         21   -1    0    0  501  502  0.00000000000E+00  0.00000000000E+00  0.18158024091E+03  0.18158024091E+03  0.00000000000E+00 0.  1.
         21   -1    0    0  502  503 -0.00000000000E+00 -0.00000000000E+00 -0.15278188293E+02  0.15278188293E+02  0.00000000000E+00 0. -1.
          2    1    1    2  501    0 -0.26786518837E+02  0.11759004131E+02  0.16500245193E+03  0.16757565728E+03  0.00000000000E+00 0.  1.
         -2    1    1    2    0  503  0.26786518837E+02 -0.11759004131E+02  0.12996006861E+01  0.29282771923E+02  0.00000000000E+00 0. -1.
<mgrwt>
<rscale>  2 0.29253919E+02</rscale>
<asrwt>0</asrwt>
<pdfrwt beam="1">  1       21 0.27935420E-01 0.29253919E+02</pdfrwt>
<pdfrwt beam="2">  1       21 0.23504906E-02 0.29253919E+02</pdfrwt>
<totfact> 0.96691643E+06</totfact>
</mgrwt>
</event>
<event>
 4    1  0.2769537E+004  0.3847279E+02  0.7546771E-02  0.1519761E+00
         21   -1    0    0  503  502  0.00000000000E+00  0.00000000000E+00  0.66319282273E+02  0.66319282273E+02  0.00000000000E+00 0. -1.
         21   -1    0    0  501  503 -0.00000000000E+00 -0.00000000000E+00 -0.30705853442E+02  0.30705853442E+02  0.00000000000E+00 0.  1.
          2    1    1    2  501    0 -0.29175017133E+02  0.25079354746E+02  0.43161078954E+02  0.57818979546E+02  0.00000000000E+00 0. -1.
         -2    1    1    2    0  502  0.29175017133E+02 -0.25079354746E+02 -0.75476501236E+01  0.39206156170E+02  0.00000000000E+00 0.  1.
<mgrwt>
<rscale>  2 0.38472791E+02</rscale>
<asrwt>0</asrwt>
<pdfrwt beam="1">  1       21 0.10202966E-01 0.38472791E+02</pdfrwt>
<pdfrwt beam="2">  1       21 0.47239775E-02 0.38472791E+02</pdfrwt>
<totfact> 0.19439808E+07</totfact>
</mgrwt>
</event>
<event>
 4    1  0.2769537E+004  0.2023061E+02  0.7546771E-02  0.1740781E+00
         21   -1    0    0  503  502  0.00000000000E+00  0.00000000000E+00  0.71978336855E+01  0.71978336855E+01  0.00000000000E+00 0. -1.
         21   -1    0    0  501  503 -0.00000000000E+00 -0.00000000000E+00 -0.10065851509E+03  0.10065851509E+03  0.00000000000E+00 0.  1.
          2    1    1    2  501    0 -0.31285407977E+01 -0.19987238264E+02 -0.82302825505E+02  0.84752773094E+02  0.00000000000E+00 0.  1.
         -2    1    1    2    0  502  0.31285407977E+01  0.19987238264E+02 -0.11157855897E+02  0.23103575680E+02  0.00000000000E+00 0. -1.
<mgrwt>
<rscale>  2 0.20230607E+02</rscale>
<asrwt>0</asrwt>
<pdfrwt beam="1">  1       21 0.11073591E-02 0.20230607E+02</pdfrwt>
<pdfrwt beam="2">  1       21 0.15485924E-01 0.20230607E+02</pdfrwt>
<totfact> 0.79284643E+07</totfact>
</mgrwt>
</event>
<event>
 4    1  0.2769537E+004  0.2005705E+02  0.7546771E-02  0.1744196E+00
         21   -1    0    0  501  502  0.00000000000E+00  0.00000000000E+00  0.17140329601E+02  0.17140329601E+02  0.00000000000E+00 0.  1.
         21   -1    0    0  502  503 -0.00000000000E+00 -0.00000000000E+00 -0.28906680330E+02  0.28906680330E+02  0.00000000000E+00 0. -1.
          2    1    1    2  501    0 -0.19954775074E+02 -0.20229216827E+01  0.41015289647E+01  0.20472122514E+02  0.00000000000E+00 0.  1.
         -2    1    1    2    0  503  0.19954775074E+02  0.20229216827E+01 -0.15867879694E+02  0.25574887416E+02  0.00000000000E+00 0. -1.
<mgrwt>
<rscale>  2 0.20057050E+02</rscale>
<asrwt>0</asrwt>
<pdfrwt beam="1">  1       21 0.26369738E-02 0.20057050E+02</pdfrwt>
<pdfrwt beam="2">  1       21 0.44471816E-02 0.20057050E+02</pdfrwt>
<totfact> 0.16158409E+08</totfact>
</mgrwt>
</event>
<event>
 4    1  0.2769537E+004  0.4234209E+02  0.7546771E-02  0.1491651E+00
         21   -1    0    0  503  502  0.00000000000E+00  0.00000000000E+00  0.19986758320E+03  0.19986758320E+03  0.00000000000E+00 0. -1.
         21   -1    0    0  501  503 -0.00000000000E+00 -0.00000000000E+00 -0.30745163561E+02  0.30745163561E+02  0.00000000000E+00 0.  1.
          2    1    1    2  501    0 -0.42314630653E+02  0.15246917053E+01 -0.12477185159E+02  0.44142188455E+02  0.00000000000E+00 0.  1.
         -2    1    1    2    0  502  0.42314630653E+02 -0.15246917053E+01  0.18159960480E+03  0.18647055831E+03  0.00000000000E+00 0. -1.
<mgrwt>
<rscale>  2 0.42342091E+02</rscale>
<asrwt>0</asrwt>
<pdfrwt beam="1">  1       21 0.30748858E-01 0.42342091E+02</pdfrwt>
<pdfrwt beam="2">  1       21 0.47300253E-02 0.42342091E+02</pdfrwt>
<totfact> 0.27889124E+06</totfact>
</mgrwt>
</event>
<event>
 4    1  0.2769537E+004  0.2746171E+02  0.7546771E-02  0.1627969E+00
         21   -1    0    0  503  502  0.00000000000E+00  0.00000000000E+00  0.37043999086E+02  0.37043999086E+02  0.00000000000E+00 0. -1.
         21   -1    0    0  501  503 -0.00000000000E+00 -0.00000000000E+00 -0.23903055690E+02  0.23903055690E+02  0.00000000000E+00 0.  1.
          2    1    1    2  501    0 -0.11371961911E+01 -0.27438153328E+02 -0.51650219610E+01  0.27943208926E+02  0.00000000000E+00 0.  1.
         -2    1    1    2    0  502  0.11371961911E+01  0.27438153328E+02  0.18305965356E+02  0.33003845850E+02  0.00000000000E+00 0. -1.
<mgrwt>
<rscale>  2 0.27461709E+02</rscale>
<asrwt>0</asrwt>
<pdfrwt beam="1">  1       21 0.56990767E-02 0.27461709E+02</pdfrwt>
<pdfrwt beam="2">  1       21 0.36773932E-02 0.27461709E+02</pdfrwt>
<totfact> 0.70811054E+07</totfact>
</mgrwt>
</event>
<event>
 4    1  0.2769537E+004  0.2254668E+02  0.7546771E-02  0.1698965E+00
         21   -1    0    0  503  502  0.00000000000E+00  0.00000000000E+00  0.83646125422E+02  0.83646125422E+02  0.00000000000E+00 0. -1.
         21   -1    0    0  501  503 -0.00000000000E+00 -0.00000000000E+00 -0.16861959850E+02  0.16861959850E+02  0.00000000000E+00 0.  1.
          2    1    1    2  501    0 -0.19179672460E+02 -0.11852966478E+02 -0.67978967211E+01  0.23549183634E+02  0.00000000000E+00 0.  1.
         -2    1    1    2    0  502  0.19179672460E+02  0.11852966478E+02  0.73582062293E+02  0.76958901638E+02  0.00000000000E+00 0. -1.
<mgrwt>
<rscale>  2 0.22546677E+02</rscale>
<asrwt>0</asrwt>
<pdfrwt beam="1">  1       21 0.12868634E-01 0.22546677E+02</pdfrwt>
<pdfrwt beam="2">  1       21 0.25941477E-02 0.22546677E+02</pdfrwt>
<totfact> 0.30511070E+07</totfact>
</mgrwt>
</event>
<event>
 4    1  0.2769537E+004  0.3133958E+02  0.7546771E-02  0.1583736E+00
         21   -1    0    0  501  502  0.00000000000E+00  0.00000000000E+00  0.32687388315E+02  0.32687388315E+02  0.00000000000E+00 0. -1.
         21   -1    0    0  502  503 -0.00000000000E+00 -0.00000000000E+00 -0.81722488585E+02  0.81722488585E+02  0.00000000000E+00 0.  1.
          2    1    1    2  501    0 -0.30701270282E+02 -0.62929725013E+01  0.20971151688E+02  0.37708867696E+02  0.00000000000E+00 0. -1.
         -2    1    1    2    0  503  0.30701270282E+02  0.62929725013E+01 -0.70006251957E+02  0.76701009204E+02  0.00000000000E+00 0.  1.
<mgrwt>
<rscale>  2 0.31339584E+02</rscale>
<asrwt>0</asrwt>
<pdfrwt beam="1">  1       21 0.50288291E-02 0.31339584E+02</pdfrwt>
<pdfrwt beam="2">  1       21 0.12572690E-01 0.31339584E+02</pdfrwt>
<totfact> 0.11927291E+07</totfact>
</mgrwt>
</event>
<event>
 4    1  0.2769537E+004  0.2255003E+02  0.7546771E-02  0.1698909E+00
         21   -1    0    0  503  502  0.00000000000E+00  0.00000000000E+00  0.33701951924E+03  0.33701951924E+03  0.00000000000E+00 0.  1.
         21   -1    0    0  501  503 -0.00000000000E+00 -0.00000000000E+00 -0.35376151354E+01  0.35376151354E+01  0.00000000000E+00 0. -1.
          2    1    1    2  501    0 -0.14942172015E+02 -0.16888916642E+02  0.37790434892E+02  0.44007056016E+02  0.00000000000E+00 0. -1.
         -2    1    1    2    0  502  0.14942172015E+02  0.16888916642E+02  0.29569146922E+03  0.29655007836E+03  0.00000000000E+00 0.  1.
<mgrwt>
<rscale>  2 0.22550033E+02</rscale>
<asrwt>0</asrwt>
<pdfrwt beam="1">  1       21 0.51849132E-01 0.22550033E+02</pdfrwt>
<pdfrwt beam="2">  1       21 0.54424875E-03 0.22550033E+02</pdfrwt>
<totfact> 0.26330696E+07</totfact>
</mgrwt>
</event>
<event>
 4    1  0.2769537E+004  0.2679288E+02  0.7546771E-02  0.1636510E+00
         21   -1    0    0  503  502  0.00000000000E+00  0.00000000000E+00  0.43481877762E+01  0.43481877762E+01  0.00000000000E+00 0.  1.
         21   -1    0    0  501  503 -0.00000000000E+00 -0.00000000000E+00 -0.36185703363E+03  0.36185703363E+03  0.00000000000E+00 0. -1.
          2    1    1    2  501    0  0.81852520773E+01  0.25511955423E+02 -0.31377444067E+03  0.31491627115E+03  0.00000000000E+00 0. -1.
         -2    1    1    2    0  502 -0.81852520773E+01 -0.25511955423E+02 -0.43734405188E+02  0.51288950254E+02  0.00000000000E+00 0.  1.
<mgrwt>
<rscale>  2 0.26792876E+02</rscale>
<asrwt>0</asrwt>
<pdfrwt beam="1">  1       21 0.66895189E-03 0.26792876E+02</pdfrwt>
<pdfrwt beam="2">  1       21 0.55670319E-01 0.26792876E+02</pdfrwt>
<totfact> 0.17428278E+07</totfact>
</mgrwt>
</event>
<event>
 4    1  0.2769537E+004  0.5687966E+02  0.7546771E-02  0.1411413E+00
         21   -1    0    0  501  502  0.00000000000E+00  0.00000000000E+00  0.21856409892E+02  0.21856409892E+02  0.00000000000E+00 0.  1.
         21   -1    0    0  502  503 -0.00000000000E+00 -0.00000000000E+00 -0.15265507833E+03  0.15265507833E+03  0.00000000000E+00 0. -1.
          2    1    1    2  501    0 -0.41658485767E+02  0.38728113930E+02 -0.50203307257E+02  0.75866120927E+02  0.00000000000E+00 0.  1.
         -2    1    1    2    0  503  0.41658485767E+02 -0.38728113930E+02 -0.80595361183E+02  0.98645367297E+02  0.00000000000E+00 0. -1.
<mgrwt>
<rscale>  2 0.56879665E+02</rscale>
<asrwt>0</asrwt>
<pdfrwt beam="1">  1       21 0.33625245E-02 0.56879665E+02</pdfrwt>
<pdfrwt beam="2">  1       21 0.23485397E-01 0.56879665E+02</pdfrwt>
<totfact> 0.81979659E+06</totfact>
</mgrwt>
</event>
<event>
 4    1  0.2769537E+004  0.2690559E+02  0.7546771E-02  0.1635049E+00
         21   -1    0    0  501  502  0.00000000000E+00  0.00000000000E+00  0.13811788945E+02  0.13811788945E+02  0.00000000000E+00 0. -1.
         21   -1    0    0  502  503 -0.00000000000E+00 -0.00000000000E+00 -0.52684570432E+02  0.52684570432E+02  0.00000000000E+00 0.  1.
          2    1    1    2  501    0 -0.32687724446E+01 -0.26706294382E+02 -0.17047316991E+02  0.31851562748E+02  0.00000000000E+00 0.  1.
         -2    1    1    2    0  503  0.32687724446E+01  0.26706294382E+02 -0.21825464497E+02  0.34644796628E+02  0.00000000000E+00 0. -1.
<mgrwt>
<rscale>  2 0.26905595E+02</rscale>
<asrwt>0</asrwt>
<pdfrwt beam="1">  1       21 0.21248907E-02 0.26905595E+02</pdfrwt>
<pdfrwt beam="2">  1       21 0.81053183E-02 0.26905595E+02</pdfrwt>
<totfact> 0.93573228E+07</totfact>
</mgrwt>
</event>
<event>
 4    1  0.2769537E+004  0.2105653E+02  0.7546771E-02  0.1725099E+00
         21   -1    0    0  501  502  0.00000000000E+00  0.00000000000E+00  0.89501371061E+02  0.89501371061E+02  0.00000000000E+00 0. -1.
         21   -1    0    0  502  503 -0.00000000000E+00 -0.00000000000E+00 -0.11820507246E+02  0.11820507246E+02  0.00000000000E+00 0.  1.
          2    1    1    2  501    0  0.18471842941E+02 -0.10107846935E+02  0.77452889665E+02  0.80264111960E+02  0.00000000000E+00 0. -1.
         -2    1    1    2    0  503 -0.18471842941E+02  0.10107846935E+02  0.22797414922E+00  0.21057766346E+02  0.00000000000E+00 0.  1.
<mgrwt>
<rscale>  2 0.21056532E+02</rscale>
<asrwt>0</asrwt>
<pdfrwt beam="1">  1       21 0.13769441E-01 0.21056532E+02</pdfrwt>
<pdfrwt beam="2">  1       21 0.18185396E-02 0.21056532E+02</pdfrwt>
<totfact> 0.46187229E+07</totfact>
</mgrwt>
</event>
<event>
 4    1  0.2769537E+004  0.2371611E+02  0.7546771E-02  0.1680158E+00
         21   -1    0    0  501  502  0.00000000000E+00  0.00000000000E+00  0.17661890842E+02  0.17661890842E+02  0.00000000000E+00 0. -1.
         21   -1    0    0  502  503 -0.00000000000E+00 -0.00000000000E+00 -0.41234894985E+03  0.41234894985E+03  0.00000000000E+00 0.  1.
          2    1    1    2  501    0  0.12056716703E+02  0.20422764765E+02  0.91926775968E+01  0.25435389907E+02  0.00000000000E+00 0. -1.
         -2    1    1    2    0  503 -0.12056716703E+02 -0.20422764765E+02 -0.40387973660E+03  0.40457545078E+03  0.00000000000E+00 0.  1.
<mgrwt>
<rscale>  2 0.23716107E+02</rscale>
<asrwt>0</asrwt>
<pdfrwt beam="1">  1       21 0.27172141E-02 0.23716107E+02</pdfrwt>
<pdfrwt beam="2">  1       21 0.63438298E-01 0.23716107E+02</pdfrwt>
<totfact> 0.15635501E+06</totfact>
</mgrwt>
</event>
<event>
 4    1  0.2769537E+004  0.2004089E+02  0.7546771E-02  0.1744516E+00
         21   -1    0    0  503  502  0.00000000000E+00  0.00000000000E+00  0.76036824263E+02  0.76036824263E+02  0.00000000000E+00 0.  1.
         21   -1    0    0  501  503 -0.00000000000E+00 -0.00000000000E+00 -0.54566888545E+01  0.54566888545E+01  0.00000000000E+00 0. -1.
          2    1    1    2  501    0 -0.45549428716E+01  0.19516392984E+02  0.28002412971E+02  0.34435043660E+02  0.00000000000E+00 0. -1.
         -2    1    1    2    0  502  0.45549428716E+01 -0.19516392984E+02  0.42577722437E+02  0.47058469457E+02  0.00000000000E+00 0.  1.
<mgrwt>
<rscale>  2 0.20040886E+02</rscale>
<asrwt>0</asrwt>
<pdfrwt beam="1">  1       21 0.11697972E-01 0.20040886E+02</pdfrwt>
<pdfrwt beam="2">  1       21 0.83949065E-03 0.20040886E+02</pdfrwt>
<totfact> 0.19144457E+08</totfact>
</mgrwt>
</event>
<event>
 4    1  0.2769537E+004  0.3413572E+02  0.7546771E-02  0.1556412E+00
         21   -1    0    0  501  502  0.00000000000E+00  0.00000000000E+00  0.50245594831E+03  0.50245594831E+03  0.00000000000E+00 0.  1.
         21   -1    0    0  502  503 -0.00000000000E+00 -0.00000000000E+00 -0.47501738622E+01  0.47501738622E+01  0.00000000000E+00 0. -1.
          2    1    1    2  501    0 -0.16828373913E+02  0.29699386057E+02  0.43027843385E+03  0.43163037236E+03  0.00000000000E+00 0.  1.
         -2    1    1    2    0  503  0.16828373913E+02 -0.29699386057E+02  0.67427340597E+02  0.75575749819E+02  0.00000000000E+00 0. -1.
<mgrwt>
<rscale>  2 0.34135725E+02</rscale>
<asrwt>0</asrwt>
<pdfrwt beam="1">  1       21 0.77300873E-01 0.34135725E+02</pdfrwt>
<pdfrwt beam="2">  1       21 0.73079638E-03 0.34135725E+02</pdfrwt>
<totfact> 0.80707485E+06</totfact>
</mgrwt>
</event>
<event>
 4    1  0.2769537E+004  0.2953930E+02  0.7546771E-02  0.1603238E+00
         21   -1    0    0  503  502  0.00000000000E+00  0.00000000000E+00  0.19160098876E+03  0.19160098876E+03  0.00000000000E+00 0.  1.
         21   -1    0    0  501  503 -0.00000000000E+00 -0.00000000000E+00 -0.48442748884E+01  0.48442748884E+01  0.00000000000E+00 0. -1.
          2    1    1    2  501    0 -0.26784834607E+02  0.12455648252E+02  0.69338867848E+02  0.75368754353E+02  0.00000000000E+00 0. -1.
         -2    1    1    2    0  502  0.26784834607E+02 -0.12455648252E+02  0.11741784603E+03  0.12107650930E+03  0.00000000000E+00 0.  1.
<mgrwt>
<rscale>  2 0.29539305E+02</rscale>
<asrwt>0</asrwt>
<pdfrwt beam="1">  1       21 0.29477069E-01 0.29539305E+02</pdfrwt>
<pdfrwt beam="2">  1       21 0.74527321E-03 0.29539305E+02</pdfrwt>
<totfact> 0.50784098E+07</totfact>
</mgrwt>
</event>
<event>
 4    1  0.2769537E+004  0.2112414E+02  0.7546771E-02  0.1723855E+00
         21   -1    0    0  503  502  0.00000000000E+00  0.00000000000E+00  0.67339652289E+03  0.67339652289E+03  0.00000000000E+00 0. -1.
         21   -1    0    0  501  503 -0.00000000000E+00 -0.00000000000E+00 -0.72272273230E+01  0.72272273230E+01  0.00000000000E+00 0.  1.
          2    1    1    2  501    0 -0.16586830090E+02  0.13080757707E+02  0.87491486270E+01  0.22864311849E+02  0.00000000000E+00 0.  1.
         -2    1    1    2    0  502  0.16586830090E+02 -0.13080757707E+02  0.65742014694E+03  0.65775943837E+03  0.00000000000E+00 0. -1.
<mgrwt>
<rscale>  2 0.21124137E+02</rscale>
<asrwt>0</asrwt>
<pdfrwt beam="1">  1       21 0.10359942E+00 0.21124137E+02</pdfrwt>
<pdfrwt beam="2">  1       21 0.11118817E-02 0.21124137E+02</pdfrwt>
<totfact> 0.21526426E+06</totfact>
</mgrwt>
</event>
<event>
 4    1  0.2769537E+004  0.2701960E+02  0.7546771E-02  0.1633581E+00
         21   -1    0    0  503  502  0.00000000000E+00  0.00000000000E+00  0.10361902421E+02  0.10361902421E+02  0.00000000000E+00 0. -1.
         21   -1    0    0  501  503 -0.00000000000E+00 -0.00000000000E+00 -0.29510165465E+03  0.29510165465E+03  0.00000000000E+00 0.  1.
          2    1    1    2  501    0  0.14845762555E+02  0.22575697135E+02 -0.27562764719E+03  0.27694883763E+03  0.00000000000E+00 0.  1.
         -2    1    1    2    0  502 -0.14845762555E+02 -0.22575697135E+02 -0.91121050446E+01  0.28514719450E+02  0.00000000000E+00 0. -1.
<mgrwt>
<rscale>  2 0.27019600E+02</rscale>
<asrwt>0</asrwt>
<pdfrwt beam="1">  1       21 0.15941389E-02 0.27019600E+02</pdfrwt>
<pdfrwt beam="2">  1       21 0.45400252E-01 0.27019600E+02</pdfrwt>
<totfact> 0.70007943E+06</totfact>
</mgrwt>
</event>
<event>
 4    1  0.2769537E+004  0.2758848E+02  0.7546771E-02  0.1626384E+00
         21   -1    0    0  503  502  0.00000000000E+00  0.00000000000E+00  0.30726892878E+02  0.30726892878E+02  0.00000000000E+00 0.  1.
         21   -1    0    0  501  503 -0.00000000000E+00 -0.00000000000E+00 -0.65924040634E+02  0.65924040634E+02  0.00000000000E+00 0. -1.
          2    1    1    2  501    0 -0.25727140297E+02  0.99618557221E+01 -0.55780435159E+02  0.62230067201E+02  0.00000000000E+00 0. -1.
         -2    1    1    2    0  502  0.25727140297E+02 -0.99618557221E+01  0.20583287403E+02  0.34420866311E+02  0.00000000000E+00 0.  1.
<mgrwt>
<rscale>  2 0.27588482E+02</rscale>
<asrwt>0</asrwt>
<pdfrwt beam="1">  1       21 0.47272143E-02 0.27588482E+02</pdfrwt>
<pdfrwt beam="2">  1       21 0.10142160E-01 0.27588482E+02</pdfrwt>
<totfact> 0.18485136E+07</totfact>
</mgrwt>
</event>
<event>
 4    1  0.2769537E+004  0.2409036E+02  0.7546771E-02  0.1674422E+00
         21   -1    0    0  501  502  0.00000000000E+00  0.00000000000E+00  0.28435336746E+03  0.28435336746E+03  0.00000000000E+00 0. -1.
         21   -1    0    0  502  503 -0.00000000000E+00 -0.00000000000E+00 -0.23508436375E+02  0.23508436375E+02  0.00000000000E+00 0.  1.
          2    1    1    2  501    0  0.50844477396E+01 -0.23547687989E+02  0.27751978070E+03  0.27856341091E+03  0.00000000000E+00 0. -1.
         -2    1    1    2    0  503 -0.50844477396E+01  0.23547687989E+02 -0.16674849613E+02  0.29298392926E+02  0.00000000000E+00 0.  1.
<mgrwt>
<rscale>  2 0.24090355E+02</rscale>
<asrwt>0</asrwt>
<pdfrwt beam="1">  1       21 0.43746670E-01 0.24090355E+02</pdfrwt>
<pdfrwt beam="2">  1       21 0.36166827E-02 0.24090355E+02</pdfrwt>
<totfact> 0.20785692E+06</totfact>
</mgrwt>
</event>
<event>
 4    1  0.2769537E+004  0.2068116E+02  0.7546771E-02  0.1732112E+00
         21   -1    0    0  501  502  0.00000000000E+00  0.00000000000E+00  0.16133138873E+02  0.16133138873E+02  0.00000000000E+00 0. -1.
         21   -1    0    0  502  503 -0.00000000000E+00 -0.00000000000E+00 -0.33779587440E+02  0.33779587440E+02  0.00000000000E+00 0.  1.
          2    1    1    2  501    0 -0.19736535022E+02  0.61789659557E+01  0.27530888336E+01  0.20863603071E+02  0.00000000000E+00 0. -1.
         -2    1    1    2    0  503  0.19736535022E+02 -0.61789659557E+01 -0.20399537400E+02  0.29049123242E+02  0.00000000000E+00 0.  1.
<mgrwt>
<rscale>  2 0.20681161E+02</rscale>
<asrwt>0</asrwt>
<pdfrwt beam="1">  1       21 0.24820214E-02 0.20681161E+02</pdfrwt>
<pdfrwt beam="2">  1       21 0.51968596E-02 0.20681161E+02</pdfrwt>
<totfact> 0.14001072E+08</totfact>
</mgrwt>
</event>
<event>
 4    1  0.2769537E+004  0.2485751E+02  0.7546771E-02  0.1663057E+00
         21   -1    0    0  501  502  0.00000000000E+00  0.00000000000E+00  0.32525146963E+01  0.32525146963E+01  0.00000000000E+00 0. -1.
         21   -1    0    0  502  503 -0.00000000000E+00 -0.00000000000E+00 -0.19830329909E+03  0.19830329909E+03  0.00000000000E+00 0.  1.
          2    1    1    2  501    0 -0.22229110778E+02 -0.11124852825E+02 -0.76872321197E+02  0.80791394855E+02  0.00000000000E+00 0. -1.
         -2    1    1    2    0  503  0.22229110778E+02  0.11124852825E+02 -0.11817846319E+03  0.12076441893E+03  0.00000000000E+00 0.  1.
<mgrwt>
<rscale>  2 0.24857508E+02</rscale>
<asrwt>0</asrwt>
<pdfrwt beam="1">  1       21 0.50038686E-03 0.24857508E+02</pdfrwt>
<pdfrwt beam="2">  1       21 0.30508201E-01 0.24857508E+02</pdfrwt>
<totfact> 0.82968395E+07</totfact>
</mgrwt>
</event>
<event>
 4    1  0.2769537E+004  0.2458365E+02  0.7546771E-02  0.1667055E+00
         21   -1    0    0  503  502  0.00000000000E+00  0.00000000000E+00  0.11741053396E+01  0.11741053396E+01  0.00000000000E+00 0.  1.
         21   -1    0    0  501  503 -0.00000000000E+00 -0.00000000000E+00 -0.52661948201E+03  0.52661948201E+03  0.00000000000E+00 0. -1.
          2    1    1    2  501    0  0.17768657527E+02 -0.16989134348E+02 -0.30236260750E+03  0.30336035056E+03  0.00000000000E+00 0.  1.
         -2    1    1    2    0  502 -0.17768657527E+02  0.16989134348E+02 -0.22308276917E+03  0.22443323679E+03  0.00000000000E+00 0. -1.
<mgrwt>
<rscale>  2 0.24583651E+02</rscale>
<asrwt>0</asrwt>
<pdfrwt beam="1">  1       21 0.18063122E-03 0.24583651E+02</pdfrwt>
<pdfrwt beam="2">  1       21 0.81018547E-01 0.24583651E+02</pdfrwt>
<totfact> 0.54314066E+07</totfact>
</mgrwt>
</event>
<event>
 4    1  0.2769537E+004  0.3064090E+02  0.7546771E-02  0.1591110E+00
         21   -1    0    0  503  502  0.00000000000E+00  0.00000000000E+00  0.49578997776E+03  0.49578997776E+03  0.00000000000E+00 0. -1.
         21   -1    0    0  501  503 -0.00000000000E+00 -0.00000000000E+00 -0.39366000073E+01  0.39366000073E+01  0.00000000000E+00 0.  1.
          2    1    1    2  501    0  0.29312176534E+02 -0.89253121597E+01  0.65928530380E+02  0.72701004177E+02  0.00000000000E+00 0.  1.
         -2    1    1    2    0  502 -0.29312176534E+02  0.89253121597E+01  0.42592484737E+03  0.42702557359E+03  0.00000000000E+00 0. -1.
<mgrwt>
<rscale>  2 0.30640902E+02</rscale>
<asrwt>0</asrwt>
<pdfrwt beam="1">  1       21 0.76275332E-01 0.30640902E+02</pdfrwt>
<pdfrwt beam="2">  1       21 0.60563116E-03 0.30640902E+02</pdfrwt>
<totfact> 0.10850314E+07</totfact>
</mgrwt>
</event>
<event>
 4    1  0.2769537E+004  0.2103224E+02  0.7546771E-02  0.1725547E+00
         21   -1    0    0  503  502  0.00000000000E+00  0.00000000000E+00  0.45571883853E+01  0.45571883853E+01  0.00000000000E+00 0. -1.
         21   -1    0    0  501  503 -0.00000000000E+00 -0.00000000000E+00 -0.12223234450E+03  0.12223234450E+03  0.00000000000E+00 0.  1.
          2    1    1    2  501    0  0.11420033860E+02  0.17661759146E+02 -0.87602116638E+02  0.90091540940E+02  0.00000000000E+00 0.  1.
         -2    1    1    2    0  502 -0.11420033860E+02 -0.17661759146E+02 -0.30073039481E+02  0.36697991950E+02  0.00000000000E+00 0. -1.
<mgrwt>
<rscale>  2 0.21032235E+02</rscale>
<asrwt>0</asrwt>
<pdfrwt beam="1">  1       21 0.70110582E-03 0.21032235E+02</pdfrwt>
<pdfrwt beam="2">  1       21 0.18804978E-01 0.21032235E+02</pdfrwt>
<totfact> 0.11363797E+08</totfact>
</mgrwt>
</event>
<event>
 4    1  0.2769537E+004  0.3141590E+02  0.7546771E-02  0.1582945E+00
         21   -1    0    0  503  502  0.00000000000E+00  0.00000000000E+00  0.33670241906E+02  0.33670241906E+02  0.00000000000E+00 0.  1.
         21   -1    0    0  501  503 -0.00000000000E+00 -0.00000000000E+00 -0.29381936355E+02  0.29381936355E+02  0.00000000000E+00 0. -1.
          2    1    1    2  501    0  0.31238820142E+02  0.33308917852E+01  0.61149278484E+00  0.31421849840E+02  0.00000000000E+00 0. -1.
         -2    1    1    2    0  502 -0.31238820142E+02 -0.33308917852E+01  0.36768127659E+01  0.31630328421E+02  0.00000000000E+00 0.  1.
<mgrwt>
<rscale>  2 0.31415899E+02</rscale>
<asrwt>0</asrwt>
<pdfrwt beam="1">  1       21 0.51800372E-02 0.31415899E+02</pdfrwt>
<pdfrwt beam="2">  1       21 0.45202979E-02 0.31415899E+02</pdfrwt>
<totfact> 0.61393924E+07</totfact>
</mgrwt>
</event>
<event>
 4    1  0.2769537E+004  0.2902460E+02  0.7546771E-02  0.1609128E+00
         21   -1    0    0  501  502  0.00000000000E+00  0.00000000000E+00  0.11079292108E+03  0.11079292108E+03  0.00000000000E+00 0. -1.
         21   -1    0    0  502  503 -0.00000000000E+00 -0.00000000000E+00 -0.76400672154E+01  0.76400672154E+01  0.00000000000E+00 0.  1.
          2    1    1    2  501    0 -0.28414307283E+02  0.59206732365E+01  0.55666475484E+02  0.62778847733E+02  0.00000000000E+00 0.  1.
         -2    1    1    2    0  503  0.28414307283E+02 -0.59206732365E+01  0.47486378377E+02  0.55654140558E+02  0.00000000000E+00 0. -1.
<mgrwt>
<rscale>  2 0.29024597E+02</rscale>
<asrwt>0</asrwt>
<pdfrwt beam="1">  1       21 0.17045064E-01 0.29024597E+02</pdfrwt>
<pdfrwt beam="2">  1       21 0.11753950E-02 0.29024597E+02</pdfrwt>
<totfact> 0.67455966E+07</totfact>
</mgrwt>
</event>
<event>
 4    1  0.2769537E+004  0.2069696E+02  0.7546771E-02  0.1731813E+00
         21   -1    0    0  503  502  0.00000000000E+00  0.00000000000E+00  0.82190662401E+01  0.82190662401E+01  0.00000000000E+00 0.  1.
         21   -1    0    0  501  503 -0.00000000000E+00 -0.00000000000E+00 -0.61938351176E+02  0.61938351176E+02  0.00000000000E+00 0. -1.
          2    1    1    2  501    0  0.11152171717E+02 -0.17435399064E+02 -0.40827178725E+02  0.45773601532E+02  0.00000000000E+00 0. -1.
         -2    1    1    2    0  502 -0.11152171717E+02  0.17435399064E+02 -0.12892106210E+02  0.24383815884E+02  0.00000000000E+00 0.  1.
<mgrwt>
<rscale>  2 0.20696958E+02</rscale>
<asrwt>0</asrwt>
<pdfrwt beam="1">  1       21 0.12644717E-02 0.20696958E+02</pdfrwt>
<pdfrwt beam="2">  1       21 0.95289771E-02 0.20696958E+02</pdfrwt>
<totfact> 0.14700279E+08</totfact>
</mgrwt>
</event>
<event>
 4    1  0.2769537E+004  0.2452896E+02  0.7546771E-02  0.1667861E+00
         21   -1    0    0  503  502  0.00000000000E+00  0.00000000000E+00  0.28563853018E+02  0.28563853018E+02  0.00000000000E+00 0. -1.
         21   -1    0    0  501  503 -0.00000000000E+00 -0.00000000000E+00 -0.21772747453E+02  0.21772747453E+02  0.00000000000E+00 0.  1.
          2    1    1    2  501    0  0.13903645504E+02  0.20207885473E+02 -0.11452471331E+01  0.24555683346E+02  0.00000000000E+00 0. -1.
         -2    1    1    2    0  502 -0.13903645504E+02 -0.20207885473E+02  0.79363526982E+01  0.25780917124E+02  0.00000000000E+00 0.  1.
<mgrwt>
<rscale>  2 0.24528962E+02</rscale>
<asrwt>0</asrwt>
<pdfrwt beam="1">  1       21 0.43944389E-02 0.24528962E+02</pdfrwt>
<pdfrwt beam="2">  1       21 0.33496534E-02 0.24528962E+02</pdfrwt>
<totfact> 0.12069908E+08</totfact>
</mgrwt>
</event>
<event>
 4    1  0.2769537E+004  0.2518133E+02  0.7546771E-02  0.1658411E+00
         21   -1    0    0  503  502  0.00000000000E+00  0.00000000000E+00  0.70298967175E+01  0.70298967175E+01  0.00000000000E+00 0. -1.
         21   -1    0    0  501  503 -0.00000000000E+00 -0.00000000000E+00 -0.21605064227E+03  0.21605064227E+03  0.00000000000E+00 0.  1.
          2    1    1    2  501    0 -0.21303928826E+02  0.13425414507E+02 -0.18964005738E+03  0.19130460136E+03  0.00000000000E+00 0.  1.
         -2    1    1    2    0  502  0.21303928826E+02 -0.13425414507E+02 -0.19380688172E+02  0.31775937628E+02  0.00000000000E+00 0. -1.
<mgrwt>
<rscale>  2 0.25181325E+02</rscale>
<asrwt>0</asrwt>
<pdfrwt beam="1">  1       21 0.10815224E-02 0.25181325E+02</pdfrwt>
<pdfrwt beam="2">  1       21 0.33238564E-01 0.25181325E+02</pdfrwt>
<totfact> 0.22473034E+07</totfact>
</mgrwt>
</event>
<event>
 4    1  0.2769537E+004  0.2321388E+02  0.7546771E-02  0.1688067E+00
         21   -1    0    0  503  502  0.00000000000E+00  0.00000000000E+00  0.30089155600E+03  0.30089155600E+03  0.00000000000E+00 0. -1.
         21   -1    0    0  501  503 -0.00000000000E+00 -0.00000000000E+00 -0.22635802913E+01  0.22635802913E+01  0.00000000000E+00 0.  1.
          2    1    1    2  501    0 -0.20918778433E+02 -0.10064232081E+02  0.80052118748E+02  0.83350019643E+02  0.00000000000E+00 0.  1.
         -2    1    1    2    0  502  0.20918778433E+02  0.10064232081E+02  0.21857585696E+03  0.21980511665E+03  0.00000000000E+00 0. -1.
<mgrwt>
<rscale>  2 0.23213876E+02</rscale>
<asrwt>0</asrwt>
<pdfrwt beam="1">  1       21 0.46290977E-01 0.23213876E+02</pdfrwt>
<pdfrwt beam="2">  1       21 0.34824336E-03 0.23213876E+02</pdfrwt>
<totfact> 0.63646493E+07</totfact>
</mgrwt>
</event>
<event>
 4    1  0.2769537E+004  0.2913949E+02  0.7546771E-02  0.1607800E+00
         21   -1    0    0  503  502  0.00000000000E+00  0.00000000000E+00  0.10883641869E+02  0.10883641869E+02  0.00000000000E+00 0.  1.
         21   -1    0    0  501  503 -0.00000000000E+00 -0.00000000000E+00 -0.10804687705E+03  0.10804687705E+03  0.00000000000E+00 0. -1.
          2    1    1    2  501    0 -0.89967983438E+01 -0.27715837763E+02 -0.79931314825E+02  0.85077171632E+02  0.00000000000E+00 0. -1.
         -2    1    1    2    0  502  0.89967983438E+01  0.27715837763E+02 -0.17231920357E+02  0.33853347287E+02  0.00000000000E+00 0.  1.
<mgrwt>
<rscale>  2 0.29139493E+02</rscale>
<asrwt>0</asrwt>
<pdfrwt beam="1">  1       21 0.16744064E-02 0.29139493E+02</pdfrwt>
<pdfrwt beam="2">  1       21 0.16622597E-01 0.29139493E+02</pdfrwt>
<totfact> 0.41047172E+07</totfact>
</mgrwt>
</event>
<event>
 4    1  0.2769537E+004  0.3228629E+02  0.7546771E-02  0.1574110E+00
         21   -1    0    0  503  502  0.00000000000E+00  0.00000000000E+00  0.12890513822E+03  0.12890513822E+03  0.00000000000E+00 0. -1.
         21   -1    0    0  501  503 -0.00000000000E+00 -0.00000000000E+00 -0.52553075013E+02  0.52553075013E+02  0.00000000000E+00 0.  1.
          2    1    1    2  501    0 -0.26869186572E+02  0.17901160159E+02 -0.45281186331E+02  0.55612863239E+02  0.00000000000E+00 0.  1.
         -2    1    1    2    0  502  0.26869186572E+02 -0.17901160159E+02  0.12163324954E+03  0.12584535000E+03  0.00000000000E+00 0. -1.
<mgrwt>
<rscale>  2 0.32286293E+02</rscale>
<asrwt>0</asrwt>
<pdfrwt beam="1">  1       21 0.19831560E-01 0.32286293E+02</pdfrwt>
<pdfrwt beam="2">  1       21 0.80850885E-02 0.32286293E+02</pdfrwt>
<totfact> 0.25046152E+06</totfact>
</mgrwt>
</event>
<event>
 4    1  0.2769537E+004  0.7989986E+02  0.7546771E-02  0.1329336E+00
         21   -1    0    0  501  502  0.00000000000E+00  0.00000000000E+00  0.30111670207E+02  0.30111670207E+02  0.00000000000E+00 0. -1.
         21   -1    0    0  502  503 -0.00000000000E+00 -0.00000000000E+00 -0.21835364421E+03  0.21835364421E+03  0.00000000000E+00 0.  1.
          2    1    1    2  501    0  0.33481222868E+02 -0.72546504593E+02 -0.11529537416E+03  0.14027476935E+03  0.00000000000E+00 0.  1.
         -2    1    1    2    0  503 -0.33481222868E+02  0.72546504593E+02 -0.72946599847E+02  0.10819054507E+03  0.00000000000E+00 0. -1.
<mgrwt>
<rscale>  2 0.79899860E+02</rscale>
<asrwt>0</asrwt>
<pdfrwt beam="1">  1       21 0.46325647E-02 0.79899860E+02</pdfrwt>
<pdfrwt beam="2">  1       21 0.33592868E-01 0.79899860E+02</pdfrwt>
<totfact> 0.25436730E+06</totfact>
</mgrwt>
</event>
<event>
 4    1  0.2769537E+004  0.2238549E+02  0.7546771E-02  0.1701669E+00
         21   -1    0    0  501  502  0.00000000000E+00  0.00000000000E+00  0.61073020213E+02  0.61073020213E+02  0.00000000000E+00 0. -1.
         21   -1    0    0  502  503 -0.00000000000E+00 -0.00000000000E+00 -0.12939595978E+02  0.12939595978E+02  0.00000000000E+00 0.  1.
          2    1    1    2  501    0  0.16425086604E+02 -0.15209424472E+02  0.46451470436E+02  0.51564029792E+02  0.00000000000E+00 0. -1.
         -2    1    1    2    0  503 -0.16425086604E+02  0.15209424472E+02  0.16819537992E+01  0.22448586399E+02  0.00000000000E+00 0.  1.
<mgrwt>
<rscale>  2 0.22385488E+02</rscale>
<asrwt>0</asrwt>
<pdfrwt beam="1">  1       21 0.93958491E-02 0.22385488E+02</pdfrwt>
<pdfrwt beam="2">  1       21 0.19907071E-02 0.22385488E+02</pdfrwt>
<totfact> 0.77248477E+07</totfact>
</mgrwt>
</event>
<event>
 4    1  0.2769537E+004  0.2043985E+02  0.7546771E-02  0.1736720E+00
         21   -1    0    0  503  502  0.00000000000E+00  0.00000000000E+00  0.65701573059E+02  0.65701573059E+02  0.00000000000E+00 0.  1.
         21   -1    0    0  501  503 -0.00000000000E+00 -0.00000000000E+00 -0.67674314250E+01  0.67674314250E+01  0.00000000000E+00 0. -1.
          2    1    1    2  501    0 -0.15555809828E+02  0.13259116036E+02  0.20563952247E+02  0.28994197859E+02  0.00000000000E+00 0. -1.
         -2    1    1    2    0  502  0.15555809828E+02 -0.13259116036E+02  0.38370189387E+02  0.43474806625E+02  0.00000000000E+00 0.  1.
<mgrwt>
<rscale>  2 0.20439848E+02</rscale>
<asrwt>0</asrwt>
<pdfrwt beam="1">  1       21 0.10107934E-01 0.20439848E+02</pdfrwt>
<pdfrwt beam="2">  1       21 0.10411433E-02 0.20439848E+02</pdfrwt>
<totfact> 0.17793478E+08</totfact>
</mgrwt>
</event>
<event>
 4    1  0.2769537E+004  0.2922720E+02  0.7546771E-02  0.1606791E+00
         21   -1    0    0  503  502  0.00000000000E+00  0.00000000000E+00  0.12665341284E+04  0.12665341284E+04  0.00000000000E+00 0. -1.
         21   -1    0    0  501  503 -0.00000000000E+00 -0.00000000000E+00 -0.68119874778E+00  0.68119874778E+00  0.00000000000E+00 0.  1.
          2    1    1    2  501    0  0.19242905936E+01 -0.29163782857E+02  0.56991652521E+03  0.57066546666E+03  0.00000000000E+00 0.  1.
         -2    1    1    2    0  502 -0.19242905936E+01  0.29163782857E+02  0.69593640440E+03  0.69654986045E+03  0.00000000000E+00 0. -1.
<mgrwt>
<rscale>  2 0.29227198E+02</rscale>
<asrwt>0</asrwt>
<pdfrwt beam="1">  1       21 0.19484952E+00 0.29227198E+02</pdfrwt>
<pdfrwt beam="2">  1       21 0.10480082E-03 0.29227198E+02</pdfrwt>
<totfact> 0.16010442E+07</totfact>
</mgrwt>
</event>
<event>
 4    1  0.2769537E+004  0.3680136E+02  0.7546771E-02  0.1533162E+00
         21   -1    0    0  501  502  0.00000000000E+00  0.00000000000E+00  0.35600079118E+02  0.35600079118E+02  0.00000000000E+00 0.  1.
         21   -1    0    0  502  503 -0.00000000000E+00 -0.00000000000E+00 -0.63334990402E+02  0.63334990402E+02  0.00000000000E+00 0. -1.
          2    1    1    2  501    0 -0.99682440930E+01  0.35425617681E+02  0.17392499988E+02  0.40704291349E+02  0.00000000000E+00 0.  1.
         -2    1    1    2    0  503  0.99682440930E+01 -0.35425617681E+02 -0.45127411273E+02  0.58230778172E+02  0.00000000000E+00 0. -1.
<mgrwt>
<rscale>  2 0.36801362E+02</rscale>
<asrwt>0</asrwt>
<pdfrwt beam="1">  1       21 0.54769352E-02 0.36801362E+02</pdfrwt>
<pdfrwt beam="2">  1       21 0.97438447E-02 0.36801362E+02</pdfrwt>
<totfact> 0.16410337E+07</totfact>
</mgrwt>
</event>
<event>
 4    1  0.2769537E+004  0.3730186E+02  0.7546771E-02  0.1529061E+00
         21   -1    0    0  501  502  0.00000000000E+00  0.00000000000E+00  0.28968588358E+02  0.28968588358E+02  0.00000000000E+00 0. -1.
         21   -1    0    0  502  503 -0.00000000000E+00 -0.00000000000E+00 -0.55838076392E+02  0.55838076392E+02  0.00000000000E+00 0.  1.
          2    1    1    2  501    0 -0.12915164648E+02 -0.34994670524E+02  0.24193825530E+01  0.37380233478E+02  0.00000000000E+00 0.  1.
         -2    1    1    2    0  503  0.12915164648E+02  0.34994670524E+02 -0.29288870587E+02  0.47426431272E+02  0.00000000000E+00 0. -1.
<mgrwt>
<rscale>  2 0.37301856E+02</rscale>
<asrwt>0</asrwt>
<pdfrwt beam="1">  1       21 0.44567060E-02 0.37301856E+02</pdfrwt>
<pdfrwt beam="2">  1       21 0.85904731E-02 0.37301856E+02</pdfrwt>
<totfact> 0.28361015E+07</totfact>
</mgrwt>
</event>
<event>
 4    1  0.2769537E+004  0.2659075E+02  0.7546771E-02  0.1639151E+00
         21   -1    0    0  503  502  0.00000000000E+00  0.00000000000E+00  0.63736711899E+01  0.63736711899E+01  0.00000000000E+00 0. -1.
         21   -1    0    0  501  503 -0.00000000000E+00 -0.00000000000E+00 -0.11410456507E+03  0.11410456507E+03  0.00000000000E+00 0.  1.
          2    1    1    2  501    0 -0.95651063637E+01 -0.24810823238E+02 -0.43826845251E+02  0.51262662574E+02  0.00000000000E+00 0.  1.
         -2    1    1    2    0  502  0.95651063637E+01  0.24810823238E+02 -0.63904048627E+02  0.69215573684E+02  0.00000000000E+00 0. -1.
<mgrwt>
<rscale>  2 0.26590754E+02</rscale>
<asrwt>0</asrwt>
<pdfrwt beam="1">  1       21 0.98056489E-03 0.26590754E+02</pdfrwt>
<pdfrwt beam="2">  1       21 0.17554547E-01 0.26590754E+02</pdfrwt>
<totfact> 0.82571050E+07</totfact>
</mgrwt>
</event>
<event>
 4    1  0.2769537E+004  0.2315756E+02  0.7546771E-02  0.1688969E+00
         21   -1    0    0  501  502  0.00000000000E+00  0.00000000000E+00  0.91618565645E+02  0.91618565645E+02  0.00000000000E+00 0. -1.
         21   -1    0    0  502  503 -0.00000000000E+00 -0.00000000000E+00 -0.31108779918E+02  0.31108779918E+02  0.00000000000E+00 0.  1.
          2    1    1    2  501    0 -0.14679711998E+02 -0.17910296059E+02  0.85545009939E+02  0.88624045128E+02  0.00000000000E+00 0. -1.
         -2    1    1    2    0  503  0.14679711998E+02  0.17910296059E+02 -0.25035224212E+02  0.34103300436E+02  0.00000000000E+00 0.  1.
<mgrwt>
<rscale>  2 0.23157561E+02</rscale>
<asrwt>0</asrwt>
<pdfrwt beam="1">  1       21 0.14095164E-01 0.23157561E+02</pdfrwt>
<pdfrwt beam="2">  1       21 0.47859662E-02 0.23157561E+02</pdfrwt>
<totfact> 0.10077217E+07</totfact>
</mgrwt>
</event>
<event>
 4    1  0.2769537E+004  0.2467669E+02  0.7546771E-02  0.1665690E+00
         21   -1    0    0  503  502  0.00000000000E+00  0.00000000000E+00  0.22598967086E+01  0.22598967086E+01  0.00000000000E+00 0.  1.
         21   -1    0    0  501  503 -0.00000000000E+00 -0.00000000000E+00 -0.42910758542E+03  0.42910758542E+03  0.00000000000E+00 0. -1.
          2    1    1    2  501    0  0.17512236566E+02 -0.17385644402E+02 -0.34498362376E+03  0.34586506000E+03  0.00000000000E+00 0. -1.
         -2    1    1    2    0  502 -0.17512236566E+02  0.17385644402E+02 -0.81864064947E+02  0.85502422132E+02  0.00000000000E+00 0.  1.
<mgrwt>
<rscale>  2 0.24676691E+02</rscale>
<asrwt>0</asrwt>
<pdfrwt beam="1">  1       21 0.34767642E-03 0.24676691E+02</pdfrwt>
<pdfrwt beam="2">  1       21 0.66016552E-01 0.24676691E+02</pdfrwt>
<totfact> 0.32056041E+07</totfact>
</mgrwt>
</event>
<event>
 4    1  0.2769537E+004  0.2141215E+02  0.7546771E-02  0.1718621E+00
         21   -1    0    0  501  502  0.00000000000E+00  0.00000000000E+00  0.22874877634E+02  0.22874877634E+02  0.00000000000E+00 0.  1.
         21   -1    0    0  502  503 -0.00000000000E+00 -0.00000000000E+00 -0.24846384821E+02  0.24846384821E+02  0.00000000000E+00 0. -1.
          2    1    1    2  501    0  0.37453874149E+01  0.21082036325E+02  0.95054658678E+01  0.23427207770E+02  0.00000000000E+00 0. -1.
         -2    1    1    2    0  503 -0.37453874149E+01 -0.21082036325E+02 -0.11476973055E+02  0.24294054685E+02  0.00000000000E+00 0.  1.
<mgrwt>
<rscale>  2 0.21412150E+02</rscale>
<asrwt>0</asrwt>
<pdfrwt beam="1">  1       21 0.35192119E-02 0.21412150E+02</pdfrwt>
<pdfrwt beam="2">  1       21 0.38225207E-02 0.21412150E+02</pdfrwt>
<totfact> 0.13367757E+08</totfact>
</mgrwt>
</event>
<event>
 4    1  0.2769537E+004  0.2486194E+02  0.7546771E-02  0.1662993E+00
         21   -1    0    0  503  502  0.00000000000E+00  0.00000000000E+00  0.98961446572E+02  0.98961446572E+02  0.00000000000E+00 0.  1.
         21   -1    0    0  501  503 -0.00000000000E+00 -0.00000000000E+00 -0.14457884195E+02  0.14457884195E+02  0.00000000000E+00 0. -1.
          2    1    1    2  501    0  0.20836621860E+02 -0.13562865962E+02 -0.48731503046E+00  0.24866717105E+02  0.00000000000E+00 0. -1.
         -2    1    1    2    0  502 -0.20836621860E+02  0.13562865962E+02  0.84990877408E+02  0.88552613661E+02  0.00000000000E+00 0.  1.
<mgrwt>
<rscale>  2 0.24861942E+02</rscale>
<asrwt>0</asrwt>
<pdfrwt beam="1">  1       21 0.15224837E-01 0.24861942E+02</pdfrwt>
<pdfrwt beam="2">  1       21 0.22242899E-02 0.24861942E+02</pdfrwt>
<totfact> 0.29771803E+07</totfact>
</mgrwt>
</event>
<event>
 4    1  0.2769537E+004  0.3136267E+02  0.7546771E-02  0.1583497E+00
         21   -1    0    0  503  502  0.00000000000E+00  0.00000000000E+00  0.11012660209E+02  0.11012660209E+02  0.00000000000E+00 0.  1.
         21   -1    0    0  501  503 -0.00000000000E+00 -0.00000000000E+00 -0.80648172098E+03  0.80648172098E+03  0.00000000000E+00 0. -1.
          2    1    1    2  501    0 -0.14091923590E+02  0.28018466731E+02 -0.78318360042E+03  0.78381130941E+03  0.00000000000E+00 0. -1.
         -2    1    1    2    0  502  0.14091923590E+02 -0.28018466731E+02 -0.12285460348E+02  0.33683071778E+02  0.00000000000E+00 0.  1.
<mgrwt>
<rscale>  2 0.31362666E+02</rscale>
<asrwt>0</asrwt>
<pdfrwt beam="1">  1       21 0.16942552E-02 0.31362666E+02</pdfrwt>
<pdfrwt beam="2">  1       21 0.12407413E+00 0.31362666E+02</pdfrwt>
<totfact> 0.77956904E+05</totfact>
</mgrwt>
</event>
<event>
 4    1  0.2769537E+004  0.2193143E+02  0.7546771E-02  0.1709441E+00
         21   -1    0    0  501  502  0.00000000000E+00  0.00000000000E+00  0.45882094522E+01  0.45882094522E+01  0.00000000000E+00 0.  1.
         21   -1    0    0  502  503 -0.00000000000E+00 -0.00000000000E+00 -0.14587725408E+03  0.14587725408E+03  0.00000000000E+00 0. -1.
          2    1    1    2  501    0 -0.68300777683E+01 -0.20840771905E+02 -0.30737577593E+02  0.37759587024E+02  0.00000000000E+00 0.  1.
         -2    1    1    2    0  503  0.68300777683E+01  0.20840771905E+02 -0.11055146703E+03  0.11270587651E+03  0.00000000000E+00 0. -1.
<mgrwt>
<rscale>  2 0.21931433E+02</rscale>
<asrwt>0</asrwt>
<pdfrwt beam="1">  1       21 0.70587841E-03 0.21931433E+02</pdfrwt>
<pdfrwt beam="2">  1       21 0.22442653E-01 0.21931433E+02</pdfrwt>
<totfact> 0.83615730E+07</totfact>
</mgrwt>
</event>
<event>
 4    1  0.2769537E+004  0.3329737E+02  0.7546771E-02  0.1564262E+00
         21   -1    0    0  503  502  0.00000000000E+00  0.00000000000E+00  0.73882905782E+03  0.73882905782E+03  0.00000000000E+00 0.  1.
         21   -1    0    0  501  503 -0.00000000000E+00 -0.00000000000E+00 -0.18603535206E+01  0.18603535206E+01  0.00000000000E+00 0. -1.
          2    1    1    2  501    0  0.41000604585E+01 -0.33043974262E+02  0.20563419739E+03  0.20831259652E+03  0.00000000000E+00 0. -1.
         -2    1    1    2    0  502 -0.41000604585E+01  0.33043974262E+02  0.53133450690E+03  0.53237681482E+03  0.00000000000E+00 0.  1.
<mgrwt>
<rscale>  2 0.33297368E+02</rscale>
<asrwt>0</asrwt>
<pdfrwt beam="1">  1       21 0.11366578E+00 0.33297368E+02</pdfrwt>
<pdfrwt beam="2">  1       21 0.28620882E-03 0.33297368E+02</pdfrwt>
<totfact> 0.13933045E+07</totfact>
</mgrwt>
</event>
<event>
 4    1  0.2769537E+004  0.2023853E+02  0.7546771E-02  0.1740626E+00
         21   -1    0    0  501  502  0.00000000000E+00  0.00000000000E+00  0.40217427903E+02  0.40217427903E+02  0.00000000000E+00 0.  1.
         21   -1    0    0  502  503 -0.00000000000E+00 -0.00000000000E+00 -0.56769818527E+02  0.56769818527E+02  0.00000000000E+00 0. -1.
          2    1    1    2  501    0 -0.11976098126E+02 -0.16314750545E+02  0.35652671080E+02  0.40996475054E+02  0.00000000000E+00 0.  1.
         -2    1    1    2    0  503  0.11976098126E+02  0.16314750545E+02 -0.52205061704E+02  0.55990771375E+02  0.00000000000E+00 0. -1.
<mgrwt>
<rscale>  2 0.20238528E+02</rscale>
<asrwt>0</asrwt>
<pdfrwt beam="1">  1       21 0.61872966E-02 0.20238528E+02</pdfrwt>
<pdfrwt beam="2">  1       21 0.87338182E-02 0.20238528E+02</pdfrwt>
<totfact> 0.14419414E+07</totfact>
</mgrwt>
</event>
<event>
 4    1  0.2769537E+004  0.2485324E+02  0.7546771E-02  0.1663119E+00
         21   -1    0    0  503  502  0.00000000000E+00  0.00000000000E+00  0.41302582648E+03  0.41302582648E+03  0.00000000000E+00 0.  1.
         21   -1    0    0  501  503 -0.00000000000E+00 -0.00000000000E+00 -0.17660779032E+01  0.17660779032E+01  0.00000000000E+00 0. -1.
          2    1    1    2  501    0  0.18730223912E+02  0.16335916066E+02  0.12445248804E+03  0.12690983107E+03  0.00000000000E+00 0. -1.
         -2    1    1    2    0  502 -0.18730223912E+02 -0.16335916066E+02  0.28680726053E+03  0.28788207331E+03  0.00000000000E+00 0.  1.
<mgrwt>
<rscale>  2 0.24853238E+02</rscale>
<asrwt>0</asrwt>
<pdfrwt beam="1">  1       21 0.63542358E-01 0.24853238E+02</pdfrwt>
<pdfrwt beam="2">  1       21 0.27170462E-03 0.24853238E+02</pdfrwt>
<totfact> 0.49743200E+07</totfact>
</mgrwt>
</event>
<event>
 4    1  0.2769537E+004  0.2967976E+02  0.7546771E-02  0.1601656E+00
         21   -1    0    0  503  502  0.00000000000E+00  0.00000000000E+00  0.20877378116E+02  0.20877378116E+02  0.00000000000E+00 0.  1.
         21   -1    0    0  501  503 -0.00000000000E+00 -0.00000000000E+00 -0.43231735953E+02  0.43231735953E+02  0.00000000000E+00 0. -1.
          2    1    1    2  501    0 -0.13231432972E+02 -0.26567222269E+02 -0.62095189509E+01  0.30322371992E+02  0.00000000000E+00 0. -1.
         -2    1    1    2    0  502  0.13231432972E+02  0.26567222269E+02 -0.16144838886E+02  0.33786742078E+02  0.00000000000E+00 0.  1.
<mgrwt>
<rscale>  2 0.29679759E+02</rscale>
<asrwt>0</asrwt>
<pdfrwt beam="1">  1       21 0.32119044E-02 0.29679759E+02</pdfrwt>
<pdfrwt beam="2">  1       21 0.66510362E-02 0.29679759E+02</pdfrwt>
<totfact> 0.69556686E+07</totfact>
</mgrwt>
</event>
<event>
 4    1  0.2769537E+004  0.2405791E+02  0.7546771E-02  0.1674914E+00
         21   -1    0    0  501  502  0.00000000000E+00  0.00000000000E+00  0.24684418541E+03  0.24684418541E+03  0.00000000000E+00 0.  1.
         21   -1    0    0  502  503 -0.00000000000E+00 -0.00000000000E+00 -0.24291987283E+01  0.24291987283E+01  0.00000000000E+00 0. -1.
          2    1    1    2  501    0 -0.43213181824E+01 -0.23666630465E+02  0.98966212328E+02  0.10184838914E+03  0.00000000000E+00 0.  1.
         -2    1    1    2    0  503  0.43213181824E+01  0.23666630465E+02  0.14544877435E+03  0.14742499499E+03  0.00000000000E+00 0. -1.
<mgrwt>
<rscale>  2 0.24057913E+02</rscale>
<asrwt>0</asrwt>
<pdfrwt beam="1">  1       21 0.37976009E-01 0.24057913E+02</pdfrwt>
<pdfrwt beam="2">  1       21 0.37372308E-03 0.24057913E+02</pdfrwt>
<totfact> 0.84334090E+07</totfact>
</mgrwt>
</event>
<event>
 4    1  0.2769537E+004  0.2302033E+02  0.7546771E-02  0.1691181E+00
         21   -1    0    0  503  502  0.00000000000E+00  0.00000000000E+00  0.51202663463E+03  0.51202663463E+03  0.00000000000E+00 0. -1.
         21   -1    0    0  501  503 -0.00000000000E+00 -0.00000000000E+00 -0.34858571726E+01  0.34858571726E+01  0.00000000000E+00 0.  1.
          2    1    1    2  501    0  0.19229524024E+02  0.12655476195E+02  0.38140184816E+02  0.44548954754E+02  0.00000000000E+00 0.  1.
         -2    1    1    2    0  502 -0.19229524024E+02 -0.12655476195E+02  0.47040059264E+03  0.47096353705E+03  0.00000000000E+00 0. -1.
<mgrwt>
<rscale>  2 0.23020332E+02</rscale>
<asrwt>0</asrwt>
<pdfrwt beam="1">  1       21 0.78773269E-01 0.23020332E+02</pdfrwt>
<pdfrwt beam="2">  1       21 0.53628612E-03 0.23020332E+02</pdfrwt>
<totfact> 0.11609187E+07</totfact>
</mgrwt>
</event>
<event>
 4    1  0.2769537E+004  0.2027345E+02  0.7546771E-02  0.1739944E+00
         21   -1    0    0  501  502  0.00000000000E+00  0.00000000000E+00  0.71327754238E+02  0.71327754238E+02  0.00000000000E+00 0.  1.
         21   -1    0    0  502  503 -0.00000000000E+00 -0.00000000000E+00 -0.58796926250E+01  0.58796926250E+01  0.00000000000E+00 0. -1.
          2    1    1    2  501    0 -0.16074184252E+02  0.12354495062E+02  0.38178413367E+02  0.43227354705E+02  0.00000000000E+00 0.  1.
         -2    1    1    2    0  503  0.16074184252E+02 -0.12354495062E+02  0.27269648246E+02  0.33980092158E+02  0.00000000000E+00 0. -1.
<mgrwt>
<rscale>  2 0.20273454E+02</rscale>
<asrwt>0</asrwt>
<pdfrwt beam="1">  1       21 0.10973500E-01 0.20273454E+02</pdfrwt>
<pdfrwt beam="2">  1       21 0.90456815E-03 0.20273454E+02</pdfrwt>
<totfact> 0.19119057E+08</totfact>
</mgrwt>
</event>
<event>
 4    1  0.2769537E+004  0.2072660E+02  0.7546771E-02  0.1731253E+00
         21   -1    0    0  503  502  0.00000000000E+00  0.00000000000E+00  0.41766465843E+02  0.41766465843E+02  0.00000000000E+00 0.  1.
         21   -1    0    0  501  503 -0.00000000000E+00 -0.00000000000E+00 -0.20654556448E+02  0.20654556448E+02  0.00000000000E+00 0. -1.
          2    1    1    2  501    0  0.16916296648E+02 -0.11976268296E+02 -0.11557724486E+02  0.23731268189E+02  0.00000000000E+00 0. -1.
         -2    1    1    2    0  502 -0.16916296648E+02  0.11976268296E+02  0.32669633881E+02  0.38689754102E+02  0.00000000000E+00 0.  1.
<mgrwt>
<rscale>  2 0.20726604E+02</rscale>
<asrwt>0</asrwt>
<pdfrwt beam="1">  1       21 0.64256101E-02 0.20726604E+02</pdfrwt>
<pdfrwt beam="2">  1       21 0.31776241E-02 0.20726604E+02</pdfrwt>
<totfact> 0.68126221E+07</totfact>
</mgrwt>
</event>
<event>
 4    1  0.2769537E+004  0.2443453E+02  0.7546771E-02  0.1669259E+00
         21   -1    0    0  501  502  0.00000000000E+00  0.00000000000E+00  0.96107077420E+00  0.96107077420E+00  0.00000000000E+00 0.  1.
         21   -1    0    0  502  503 -0.00000000000E+00 -0.00000000000E+00 -0.68622774099E+03  0.68622774099E+03  0.00000000000E+00 0. -1.
          2    1    1    2  501    0 -0.33907068163E+01  0.24198129679E+02 -0.23688835137E+03  0.23814520232E+03  0.00000000000E+00 0.  1.
         -2    1    1    2    0  503  0.33907068163E+01 -0.24198129679E+02 -0.44837831885E+03  0.44904360945E+03  0.00000000000E+00 0. -1.
<mgrwt>
<rscale>  2 0.24434532E+02</rscale>
<asrwt>0</asrwt>
<pdfrwt beam="1">  1       21 0.14785695E-03 0.24434532E+02</pdfrwt>
<pdfrwt beam="2">  1       21 0.10557356E+00 0.24434532E+02</pdfrwt>
<totfact> 0.40844528E+07</totfact>
</mgrwt>
</event>
<event>
 4    1  0.2769537E+004  0.3115355E+02  0.7546771E-02  0.1585677E+00
         21   -1    0    0  503  502  0.00000000000E+00  0.00000000000E+00  0.63512769855E+03  0.63512769855E+03  0.00000000000E+00 0.  1.
         21   -1    0    0  501  503 -0.00000000000E+00 -0.00000000000E+00 -0.15326939335E+01  0.15326939335E+01  0.00000000000E+00 0. -1.
          2    1    1    2  501    0  0.79923263876E+01  0.30110900304E+02  0.33421047282E+03  0.33565932691E+03  0.00000000000E+00 0.  1.
         -2    1    1    2    0  502 -0.79923263876E+01 -0.30110900304E+02  0.29938453179E+03  0.30100106557E+03  0.00000000000E+00 0. -1.
<mgrwt>
<rscale>  2 0.31153549E+02</rscale>
<asrwt>0</asrwt>
<pdfrwt beam="1">  1       21 0.97711743E-01 0.31153549E+02</pdfrwt>
<pdfrwt beam="2">  1       21 0.23579957E-03 0.31153549E+02</pdfrwt>
<totfact> 0.25748913E+07</totfact>
</mgrwt>
</event>
<event>
 4    1  0.2769537E+004  0.4447240E+02  0.7546771E-02  0.1477662E+00
         21   -1    0    0  501  502  0.00000000000E+00  0.00000000000E+00  0.18840589613E+02  0.18840589613E+02  0.00000000000E+00 0.  1.
         21   -1    0    0  502  503 -0.00000000000E+00 -0.00000000000E+00 -0.22625774597E+03  0.22625774597E+03  0.00000000000E+00 0. -1.
          2    1    1    2  501    0 -0.96402391914E+01 -0.43414972278E+02 -0.13984738438E+02  0.46619383723E+02  0.00000000000E+00 0.  1.
         -2    1    1    2    0  503  0.96402391914E+01  0.43414972278E+02 -0.19343241792E+03  0.19847895186E+03  0.00000000000E+00 0. -1.
<mgrwt>
<rscale>  2 0.44472396E+02</rscale>
<asrwt>0</asrwt>
<pdfrwt beam="1">  1       21 0.28985521E-02 0.44472396E+02</pdfrwt>
<pdfrwt beam="2">  1       21 0.34808885E-01 0.44472396E+02</pdfrwt>
<totfact> 0.48706172E+06</totfact>
</mgrwt>
</event>
<event>
 4    1  0.2769537E+004  0.2165639E+02  0.7546771E-02  0.1714263E+00
         21   -1    0    0  503  502  0.00000000000E+00  0.00000000000E+00  0.62539791566E+01  0.62539791566E+01  0.00000000000E+00 0.  1.
         21   -1    0    0  501  503 -0.00000000000E+00 -0.00000000000E+00 -0.15141427898E+03  0.15141427898E+03  0.00000000000E+00 0. -1.
          2    1    1    2  501    0  0.21372635711E+02 -0.34942131128E+01 -0.12858692187E+03  0.13039783571E+03  0.00000000000E+00 0. -1.
         -2    1    1    2    0  502 -0.21372635711E+02  0.34942131128E+01 -0.16573377960E+02  0.27270422430E+02  0.00000000000E+00 0.  1.
<mgrwt>
<rscale>  2 0.21656387E+02</rscale>
<asrwt>0</asrwt>
<pdfrwt beam="1">  1       21 0.96215062E-03 0.21656387E+02</pdfrwt>
<pdfrwt beam="2">  1       21 0.23294505E-01 0.21656387E+02</pdfrwt>
<totfact> 0.49175485E+07</totfact>
</mgrwt>
</event>
<event>
 4    1  0.2769537E+004  0.2495417E+02  0.7546771E-02  0.1661661E+00
         21   -1    0    0  503  502  0.00000000000E+00  0.00000000000E+00  0.15230046709E+03  0.15230046709E+03  0.00000000000E+00 0. -1.
         21   -1    0    0  501  503 -0.00000000000E+00 -0.00000000000E+00 -0.45295866595E+01  0.45295866595E+01  0.00000000000E+00 0.  1.
          2    1    1    2  501    0 -0.21034962816E+02  0.13425390596E+02  0.49421074421E+02  0.55363827273E+02  0.00000000000E+00 0.  1.
         -2    1    1    2    0  502  0.21034962816E+02 -0.13425390596E+02  0.98349806004E+02  0.10146622647E+03  0.00000000000E+00 0. -1.
<mgrwt>
<rscale>  2 0.24954173E+02</rscale>
<asrwt>0</asrwt>
<pdfrwt beam="1">  1       21 0.23430837E-01 0.24954173E+02</pdfrwt>
<pdfrwt beam="2">  1       21 0.69685960E-03 0.24954173E+02</pdfrwt>
<totfact> 0.81717242E+07</totfact>
</mgrwt>
</event>
<event>
 4    1  0.2769537E+004  0.2400055E+02  0.7546771E-02  0.1675787E+00
         21   -1    0    0  501  502  0.00000000000E+00  0.00000000000E+00  0.16767684445E+02  0.16767684445E+02  0.00000000000E+00 0.  1.
         21   -1    0    0  502  503 -0.00000000000E+00 -0.00000000000E+00 -0.45090968670E+02  0.45090968670E+02  0.00000000000E+00 0. -1.
          2    1    1    2  501    0  0.19566281505E+02 -0.13899176253E+02  0.93148603936E+00  0.24018620666E+02  0.00000000000E+00 0.  1.
         -2    1    1    2    0  503 -0.19566281505E+02  0.13899176253E+02 -0.29254770265E+02  0.37840032449E+02  0.00000000000E+00 0. -1.
<mgrwt>
<rscale>  2 0.24000552E+02</rscale>
<asrwt>0</asrwt>
<pdfrwt beam="1">  1       21 0.25796438E-02 0.24000552E+02</pdfrwt>
<pdfrwt beam="2">  1       21 0.69370721E-02 0.24000552E+02</pdfrwt>
<totfact> 0.86697936E+07</totfact>
</mgrwt>
</event>
<event>
 4    1  0.2769537E+004  0.6260886E+02  0.7546771E-02  0.1387199E+00
         21   -1    0    0  503  502  0.00000000000E+00  0.00000000000E+00  0.37461336646E+02  0.37461336646E+02  0.00000000000E+00 0. -1.
         21   -1    0    0  501  503 -0.00000000000E+00 -0.00000000000E+00 -0.12437381989E+03  0.12437381989E+03  0.00000000000E+00 0.  1.
          2    1    1    2  501    0 -0.38151481062E+02 -0.49642053423E+02 -0.75689857180E+02  0.98228424884E+02  0.00000000000E+00 0. -1.
         -2    1    1    2    0  502  0.38151481062E+02  0.49642053423E+02 -0.11222626061E+02  0.63606731648E+02  0.00000000000E+00 0.  1.
<mgrwt>
<rscale>  2 0.62608857E+02</rscale>
<asrwt>0</asrwt>
<pdfrwt beam="1">  1       21 0.57632827E-02 0.62608857E+02</pdfrwt>
<pdfrwt beam="2">  1       21 0.19134433E-01 0.62608857E+02</pdfrwt>
<totfact> 0.49745081E+06</totfact>
</mgrwt>
</event>
<event>
 4    1  0.2769537E+004  0.2093177E+02  0.7546771E-02  0.1727409E+00
         21   -1    0    0  503  502  0.00000000000E+00  0.00000000000E+00  0.81380125389E+01  0.81380125389E+01  0.00000000000E+00 0.  1.
         21   -1    0    0  501  503 -0.00000000000E+00 -0.00000000000E+00 -0.98016340482E+02  0.98016340482E+02  0.00000000000E+00 0. -1.
          2    1    1    2  501    0  0.43542036991E+01  0.20473887872E+02 -0.80572816159E+02  0.83247329556E+02  0.00000000000E+00 0. -1.
         -2    1    1    2    0  502 -0.43542036991E+01 -0.20473887872E+02 -0.93055117839E+01  0.22907023464E+02  0.00000000000E+00 0.  1.
<mgrwt>
<rscale>  2 0.20931774E+02</rscale>
<asrwt>0</asrwt>
<pdfrwt beam="1">  1       21 0.12520019E-02 0.20931774E+02</pdfrwt>
<pdfrwt beam="2">  1       21 0.15079437E-01 0.20931774E+02</pdfrwt>
<totfact> 0.69623987E+07</totfact>
</mgrwt>
</event>
<event>
 4    1  0.2769537E+004  0.2279720E+02  0.7546771E-02  0.1694819E+00
         21   -1    0    0  501  502  0.00000000000E+00  0.00000000000E+00  0.71145888350E+02  0.71145888350E+02  0.00000000000E+00 0.  1.
         21   -1    0    0  502  503 -0.00000000000E+00 -0.00000000000E+00 -0.64030462883E+02  0.64030462883E+02  0.00000000000E+00 0. -1.
          2    1    1    2  501    0  0.20108515821E+02  0.10740573215E+02  0.67173788987E+02  0.70936804611E+02  0.00000000000E+00 0.  1.
         -2    1    1    2    0  503 -0.20108515821E+02 -0.10740573215E+02 -0.60058363520E+02  0.64239546623E+02  0.00000000000E+00 0. -1.
<mgrwt>
<rscale>  2 0.22797200E+02</rscale>
<asrwt>0</asrwt>
<pdfrwt beam="1">  1       21 0.10945521E-01 0.22797200E+02</pdfrwt>
<pdfrwt beam="2">  1       21 0.98508405E-02 0.22797200E+02</pdfrwt>
<totfact> 0.47757622E+06</totfact>
</mgrwt>
</event>
<event>
 4    1  0.2769537E+004  0.2812023E+02  0.7546771E-02  0.1619847E+00
         21   -1    0    0  503  502  0.00000000000E+00  0.00000000000E+00  0.36202146638E+01  0.36202146638E+01  0.00000000000E+00 0. -1.
         21   -1    0    0  501  503 -0.00000000000E+00 -0.00000000000E+00 -0.29923659414E+03  0.29923659414E+03  0.00000000000E+00 0.  1.
          2    1    1    2  501    0  0.28044518859E+02  0.20621590942E+01 -0.22650103275E+03  0.22823992940E+03  0.00000000000E+00 0.  1.
         -2    1    1    2    0  502 -0.28044518859E+02 -0.20621590942E+01 -0.69115346734E+02  0.74616879407E+02  0.00000000000E+00 0. -1.
<mgrwt>
<rscale>  2 0.28120234E+02</rscale>
<asrwt>0</asrwt>
<pdfrwt beam="1">  1       21 0.55695601E-03 0.28120234E+02</pdfrwt>
<pdfrwt beam="2">  1       21 0.46036407E-01 0.28120234E+02</pdfrwt>
<totfact> 0.33557983E+07</totfact>
</mgrwt>
</event>
<event>
 4    1  0.2769537E+004  0.2528473E+02  0.7546771E-02  0.1656946E+00
         21   -1    0    0  501  502  0.00000000000E+00  0.00000000000E+00  0.23483341825E+03  0.23483341825E+03  0.00000000000E+00 0.  1.
         21   -1    0    0  502  503 -0.00000000000E+00 -0.00000000000E+00 -0.30233090155E+01  0.30233090155E+01  0.00000000000E+00 0. -1.
          2    1    1    2  501    0 -0.16735443441E+02  0.18953693342E+02  0.15342308886E+03  0.15549264212E+03  0.00000000000E+00 0.  1.
         -2    1    1    2    0  503  0.16735443441E+02 -0.18953693342E+02  0.78387020372E+02  0.82364085142E+02  0.00000000000E+00 0. -1.
<mgrwt>
<rscale>  2 0.25284730E+02</rscale>
<asrwt>0</asrwt>
<pdfrwt beam="1">  1       21 0.36128204E-01 0.25284730E+02</pdfrwt>
<pdfrwt beam="2">  1       21 0.46512465E-03 0.25284730E+02</pdfrwt>
<totfact> 0.67909261E+07</totfact>
</mgrwt>
</event>
<event>
 4    1  0.2769537E+004  0.2221629E+02  0.7546771E-02  0.1704538E+00
         21   -1    0    0  501  502  0.00000000000E+00  0.00000000000E+00  0.13495556004E+04  0.13495556004E+04  0.00000000000E+00 0.  1.
         21   -1    0    0  502  503 -0.00000000000E+00 -0.00000000000E+00 -0.56014169802E+00  0.56014169802E+00  0.00000000000E+00 0. -1.
          2    1    1    2  501    0  0.16797939071E+02  0.14539355797E+02  0.10722026689E+04  0.10724328076E+04  0.00000000000E+00 0.  1.
         -2    1    1    2    0  503 -0.16797939071E+02 -0.14539355797E+02  0.27679278972E+03  0.27768293441E+03  0.00000000000E+00 0. -1.
<mgrwt>
<rscale>  2 0.22216292E+02</rscale>
<asrwt>0</asrwt>
<pdfrwt beam="1">  1       21 0.20762134E+00 0.22216292E+02</pdfrwt>
<pdfrwt beam="2">  1       21 0.86176726E-04 0.22216292E+02</pdfrwt>
<totfact> 0.17352383E+07</totfact>
</mgrwt>
</event>
<event>
 4    1  0.2769537E+004  0.2514562E+02  0.7546771E-02  0.1658919E+00
         21   -1    0    0  501  502  0.00000000000E+00  0.00000000000E+00  0.93581485122E+02  0.93581485122E+02  0.00000000000E+00 0.  1.
         21   -1    0    0  502  503 -0.00000000000E+00 -0.00000000000E+00 -0.78885268982E+01  0.78885268982E+01  0.00000000000E+00 0. -1.
          2    1    1    2  501    0  0.23426434722E+02 -0.91380807503E+01  0.62064075275E+02  0.66964556322E+02  0.00000000000E+00 0.  1.
         -2    1    1    2    0  503 -0.23426434722E+02  0.91380807503E+01  0.23628882948E+02  0.34505455698E+02  0.00000000000E+00 0. -1.
<mgrwt>
<rscale>  2 0.25145623E+02</rscale>
<asrwt>0</asrwt>
<pdfrwt beam="1">  1       21 0.14397151E-01 0.25145623E+02</pdfrwt>
<pdfrwt beam="2">  1       21 0.12136196E-02 0.25145623E+02</pdfrwt>
<totfact> 0.82940679E+07</totfact>
</mgrwt>
</event>
<event>
 4    1  0.2769537E+004  0.2786549E+02  0.7546771E-02  0.1622957E+00
         21   -1    0    0  503  502  0.00000000000E+00  0.00000000000E+00  0.27988029540E+02  0.27988029540E+02  0.00000000000E+00 0.  1.
         21   -1    0    0  501  503 -0.00000000000E+00 -0.00000000000E+00 -0.27787422179E+02  0.27787422179E+02  0.00000000000E+00 0. -1.
          2    1    1    2  501    0 -0.11583955870E+02  0.25343586535E+02 -0.10086582885E+01  0.27883737260E+02  0.00000000000E+00 0.  1.
         -2    1    1    2    0  502  0.11583955870E+02 -0.25343586535E+02  0.12092656501E+01  0.27891714459E+02  0.00000000000E+00 0. -1.
<mgrwt>
<rscale>  2 0.27865488E+02</rscale>
<asrwt>0</asrwt>
<pdfrwt beam="1">  1       21 0.43058507E-02 0.27865488E+02</pdfrwt>
<pdfrwt beam="2">  1       21 0.42749880E-02 0.27865488E+02</pdfrwt>
<totfact> 0.87719713E+07</totfact>
</mgrwt>
</event>
<event>
 4    1  0.2769537E+004  0.3213175E+02  0.7546771E-02  0.1575654E+00
         21   -1    0    0  503  502  0.00000000000E+00  0.00000000000E+00  0.12758399732E+02  0.12758399732E+02  0.00000000000E+00 0.  1.
         21   -1    0    0  501  503 -0.00000000000E+00 -0.00000000000E+00 -0.87057048379E+02  0.87057048379E+02  0.00000000000E+00 0. -1.
          2    1    1    2  501    0 -0.30157693927E+02  0.11088848880E+02 -0.50396898724E+02  0.59768691416E+02  0.00000000000E+00 0. -1.
         -2    1    1    2    0  502  0.30157693927E+02 -0.11088848880E+02 -0.23901749922E+02  0.40046756696E+02  0.00000000000E+00 0.  1.
<mgrwt>
<rscale>  2 0.32131746E+02</rscale>
<asrwt>0</asrwt>
<pdfrwt beam="1">  1       21 0.19628307E-02 0.32131746E+02</pdfrwt>
<pdfrwt beam="2">  1       21 0.13393392E-01 0.32131746E+02</pdfrwt>
<totfact> 0.47541131E+07</totfact>
</mgrwt>
</event>
<event>
 4    1  0.2769537E+004  0.3755454E+02  0.7546771E-02  0.1527019E+00
         21   -1    0    0  503  502  0.00000000000E+00  0.00000000000E+00  0.53443933344E+02  0.53443933344E+02  0.00000000000E+00 0. -1.
         21   -1    0    0  501  503 -0.00000000000E+00 -0.00000000000E+00 -0.46259535763E+03  0.46259535763E+03  0.00000000000E+00 0.  1.
          2    1    1    2  501    0 -0.14808963770E+02  0.34511418769E+02 -0.45512780098E+03  0.45667456537E+03  0.00000000000E+00 0.  1.
         -2    1    1    2    0  502  0.14808963770E+02 -0.34511418769E+02  0.45976376687E+02  0.59364725609E+02  0.00000000000E+00 0. -1.
<mgrwt>
<rscale>  2 0.37554539E+02</rscale>
<asrwt>0</asrwt>
<pdfrwt beam="1">  1       21 0.82221437E-02 0.37554539E+02</pdfrwt>
<pdfrwt beam="2">  1       21 0.71168515E-01 0.37554539E+02</pdfrwt>
<totfact> 0.21349383E+05</totfact>
</mgrwt>
</event>
<event>
 4    1  0.2769537E+004  0.4723323E+02  0.7546771E-02  0.1460863E+00
         21   -1    0    0  503  502  0.00000000000E+00  0.00000000000E+00  0.46186429067E+02  0.46186429067E+02  0.00000000000E+00 0.  1.
         21   -1    0    0  501  503 -0.00000000000E+00 -0.00000000000E+00 -0.21731260391E+03  0.21731260391E+03  0.00000000000E+00 0. -1.
          2    1    1    2  501    0  0.32216852247E+02  0.34540597579E+02 -0.20175108857E+03  0.20720637101E+03  0.00000000000E+00 0. -1.
         -2    1    1    2    0  502 -0.32216852247E+02 -0.34540597579E+02  0.30624913728E+02  0.56292661961E+02  0.00000000000E+00 0.  1.
<mgrwt>
<rscale>  2 0.47233235E+02</rscale>
<asrwt>0</asrwt>
<pdfrwt beam="1">  1       21 0.71056047E-02 0.47233235E+02</pdfrwt>
<pdfrwt beam="2">  1       21 0.33432707E-01 0.47233235E+02</pdfrwt>
<totfact> 0.12300096E+06</totfact>
</mgrwt>
</event>
<event>
 4    1  0.2769537E+004  0.2473745E+02  0.7546771E-02  0.1664802E+00
         21   -1    0    0  501  502  0.00000000000E+00  0.00000000000E+00  0.19330481413E+03  0.19330481413E+03  0.00000000000E+00 0. -1.
         21   -1    0    0  502  503 -0.00000000000E+00 -0.00000000000E+00 -0.47914241826E+01  0.47914241826E+01  0.00000000000E+00 0.  1.
          2    1    1    2  501    0  0.20534730259E+02  0.13793699147E+02  0.15195193158E+03  0.15395236534E+03  0.00000000000E+00 0. -1.
         -2    1    1    2    0  503 -0.20534730259E+02 -0.13793699147E+02  0.36561458363E+02  0.44143872968E+02  0.00000000000E+00 0.  1.
<mgrwt>
<rscale>  2 0.24737447E+02</rscale>
<asrwt>0</asrwt>
<pdfrwt beam="1">  1       21 0.29739196E-01 0.24737447E+02</pdfrwt>
<pdfrwt beam="2">  1       21 0.73714233E-03 0.24737447E+02</pdfrwt>
<totfact> 0.48827551E+07</totfact>
</mgrwt>
</event>
<event>
 4    1  0.2769537E+004  0.4032878E+02  0.7546771E-02  0.1505806E+00
         21   -1    0    0  501  502  0.00000000000E+00  0.00000000000E+00  0.15321620665E+02  0.15321620665E+02  0.00000000000E+00 0.  1.
         21   -1    0    0  502  503 -0.00000000000E+00 -0.00000000000E+00 -0.16492335162E+03  0.16492335162E+03  0.00000000000E+00 0. -1.
          2    1    1    2  501    0  0.26394001147E+02  0.30492086676E+02 -0.21001476170E+02  0.45469469402E+02  0.00000000000E+00 0.  1.
         -2    1    1    2    0  503 -0.26394001147E+02 -0.30492086676E+02 -0.12860025478E+03  0.13477550288E+03  0.00000000000E+00 0. -1.
<mgrwt>
<rscale>  2 0.40328782E+02</rscale>
<asrwt>0</asrwt>
<pdfrwt beam="1">  1       21 0.23571725E-02 0.40328782E+02</pdfrwt>
<pdfrwt beam="2">  1       21 0.25372823E-01 0.40328782E+02</pdfrwt>
<totfact> 0.12028774E+07</totfact>
</mgrwt>
</event>
<event>
 4    1  0.2769537E+004  0.2589957E+02  0.7546771E-02  0.1648407E+00
         21   -1    0    0  503  502  0.00000000000E+00  0.00000000000E+00  0.54817558818E+02  0.54817558818E+02  0.00000000000E+00 0.  1.
         21   -1    0    0  501  503 -0.00000000000E+00 -0.00000000000E+00 -0.58531143300E+02  0.58531143300E+02  0.00000000000E+00 0. -1.
          2    1    1    2  501    0 -0.16155977050E+02  0.20242823647E+02 -0.52259905049E+02  0.58325681988E+02  0.00000000000E+00 0. -1.
         -2    1    1    2    0  502  0.16155977050E+02 -0.20242823647E+02  0.48546320567E+02  0.55023020131E+02  0.00000000000E+00 0.  1.
<mgrwt>
<rscale>  2 0.25899566E+02</rscale>
<asrwt>0</asrwt>
<pdfrwt beam="1">  1       21 0.84334706E-02 0.25899566E+02</pdfrwt>
<pdfrwt beam="2">  1       21 0.90047913E-02 0.25899566E+02</pdfrwt>
<totfact> 0.87108704E+06</totfact>
</mgrwt>
</event>
<event>
 4    1  0.2769537E+004  0.2217484E+02  0.7546771E-02  0.1705246E+00
         21   -1    0    0  503  502  0.00000000000E+00  0.00000000000E+00  0.35830945251E+03  0.35830945251E+03  0.00000000000E+00 0.  1.
         21   -1    0    0  501  503 -0.00000000000E+00 -0.00000000000E+00 -0.15788015381E+01  0.15788015381E+01  0.00000000000E+00 0. -1.
          2    1    1    2  501    0 -0.19450062060E+02  0.10649820248E+02  0.11329394979E+03  0.11544367737E+03  0.00000000000E+00 0. -1.
         -2    1    1    2    0  502  0.19450062060E+02 -0.10649820248E+02  0.24343670118E+03  0.24444457668E+03  0.00000000000E+00 0.  1.
<mgrwt>
<rscale>  2 0.22174841E+02</rscale>
<asrwt>0</asrwt>
<pdfrwt beam="1">  1       21 0.55124467E-01 0.22174841E+02</pdfrwt>
<pdfrwt beam="2">  1       21 0.24289283E-03 0.22174841E+02</pdfrwt>
<totfact> 0.75683469E+07</totfact>
</mgrwt>
</event>
<event>
 4    1  0.2769537E+004  0.2687228E+02  0.7546771E-02  0.1635480E+00
         21   -1    0    0  503  502  0.00000000000E+00  0.00000000000E+00  0.14406163527E+03  0.14406163527E+03  0.00000000000E+00 0.  1.
         21   -1    0    0  501  503 -0.00000000000E+00 -0.00000000000E+00 -0.50222533942E+01  0.50222533942E+01  0.00000000000E+00 0. -1.
          2    1    1    2  501    0  0.17894872254E+02 -0.20047274616E+02  0.66247298758E+02  0.71490029132E+02  0.00000000000E+00 0.  1.
         -2    1    1    2    0  502 -0.17894872254E+02  0.20047274616E+02  0.72792083120E+02  0.77593859534E+02  0.00000000000E+00 0. -1.
<mgrwt>
<rscale>  2 0.26872284E+02</rscale>
<asrwt>0</asrwt>
<pdfrwt beam="1">  1       21 0.22163325E-01 0.26872284E+02</pdfrwt>
<pdfrwt beam="2">  1       21 0.77265448E-03 0.26872284E+02</pdfrwt>
<totfact> 0.78708621E+07</totfact>
</mgrwt>
</event>
<event>
 4    1  0.2769537E+004  0.2042078E+02  0.7546771E-02  0.1737088E+00
         21   -1    0    0  503  502  0.00000000000E+00  0.00000000000E+00  0.54266157175E+02  0.54266157175E+02  0.00000000000E+00 0. -1.
         21   -1    0    0  501  503 -0.00000000000E+00 -0.00000000000E+00 -0.20720544452E+02  0.20720544452E+02  0.00000000000E+00 0.  1.
          2    1    1    2  501    0 -0.14793959525E+02  0.14076468378E+02 -0.12966211130E+02  0.24189477702E+02  0.00000000000E+00 0.  1.
         -2    1    1    2    0  502  0.14793959525E+02 -0.14076468378E+02  0.46511823853E+02  0.50797223925E+02  0.00000000000E+00 0. -1.
<mgrwt>
<rscale>  2 0.20420779E+02</rscale>
<asrwt>0</asrwt>
<pdfrwt beam="1">  1       21 0.83486395E-02 0.20420779E+02</pdfrwt>
<pdfrwt beam="2">  1       21 0.31877761E-02 0.20420779E+02</pdfrwt>
<totfact> 0.44224401E+07</totfact>
</mgrwt>
</event>
<event>
 4    1  0.2769537E+004  0.2171697E+02  0.7546771E-02  0.1713193E+00
         21   -1    0    0  501  502  0.00000000000E+00  0.00000000000E+00  0.44797926815E+02  0.44797926815E+02  0.00000000000E+00 0. -1.
         21   -1    0    0  502  503 -0.00000000000E+00 -0.00000000000E+00 -0.14700152363E+02  0.14700152363E+02  0.00000000000E+00 0.  1.
          2    1    1    2  501    0 -0.20493266872E+02 -0.71869736776E+01  0.30897785484E+02  0.37766383538E+02  0.00000000000E+00 0. -1.
         -2    1    1    2    0  503  0.20493266872E+02  0.71869736776E+01 -0.80001103152E+00  0.21731695640E+02  0.00000000000E+00 0.  1.
<mgrwt>
<rscale>  2 0.21716965E+02</rscale>
<asrwt>0</asrwt>
<pdfrwt beam="1">  1       21 0.68919887E-02 0.21716965E+02</pdfrwt>
<pdfrwt beam="2">  1       21 0.22615619E-02 0.21716965E+02</pdfrwt>
<totfact> 0.10433209E+08</totfact>
</mgrwt>
</event>
<event>
 4    1  0.2769537E+004  0.2586203E+02  0.7546771E-02  0.1648920E+00
         21   -1    0    0  503  502  0.00000000000E+00  0.00000000000E+00  0.79616988810E+01  0.79616988810E+01  0.00000000000E+00 0.  1.
         21   -1    0    0  501  503 -0.00000000000E+00 -0.00000000000E+00 -0.30248159969E+03  0.30248159969E+03  0.00000000000E+00 0. -1.
          2    1    1    2  501    0  0.23308180821E+02 -0.11205956544E+02 -0.27917747722E+03  0.28037280279E+03  0.00000000000E+00 0. -1.
         -2    1    1    2    0  502 -0.23308180821E+02  0.11205956544E+02 -0.15342423592E+02  0.30070495788E+02  0.00000000000E+00 0.  1.
<mgrwt>
<rscale>  2 0.25862033E+02</rscale>
<asrwt>0</asrwt>
<pdfrwt beam="1">  1       21 0.12248768E-02 0.25862033E+02</pdfrwt>
<pdfrwt beam="2">  1       21 0.46535629E-01 0.25862033E+02</pdfrwt>
<totfact> 0.99051220E+06</totfact>
</mgrwt>
</event>
<event>
 4    1  0.2769537E+004  0.2124608E+02  0.7546771E-02  0.1721627E+00
         21   -1    0    0  503  502  0.00000000000E+00  0.00000000000E+00  0.64805276550E+02  0.64805276550E+02  0.00000000000E+00 0. -1.
         21   -1    0    0  501  503 -0.00000000000E+00 -0.00000000000E+00 -0.18585648866E+02  0.18585648866E+02  0.00000000000E+00 0.  1.
          2    1    1    2  501    0 -0.20243769733E+02  0.64486839552E+01 -0.98593051089E+01  0.23422246583E+02  0.00000000000E+00 0.  1.
         -2    1    1    2    0  502  0.20243769733E+02 -0.64486839552E+01  0.56078932793E+02  0.59968678833E+02  0.00000000000E+00 0. -1.
<mgrwt>
<rscale>  2 0.21246076E+02</rscale>
<asrwt>0</asrwt>
<pdfrwt beam="1">  1       21 0.99700424E-02 0.21246076E+02</pdfrwt>
<pdfrwt beam="2">  1       21 0.28593306E-02 0.21246076E+02</pdfrwt>
<totfact> 0.39547518E+07</totfact>
</mgrwt>
</event>
<event>
 4    1  0.2769537E+004  0.2289828E+02  0.7546771E-02  0.1693164E+00
         21   -1    0    0  503  502  0.00000000000E+00  0.00000000000E+00  0.28223435109E+02  0.28223435109E+02  0.00000000000E+00 0. -1.
         21   -1    0    0  501  503 -0.00000000000E+00 -0.00000000000E+00 -0.50717074680E+02  0.50717074680E+02  0.00000000000E+00 0.  1.
          2    1    1    2  501    0  0.62216024678E+01  0.22036857652E+02 -0.42667122592E+02  0.48423287608E+02  0.00000000000E+00 0.  1.
         -2    1    1    2    0  502 -0.62216024678E+01 -0.22036857652E+02  0.20173483022E+02  0.30517222181E+02  0.00000000000E+00 0. -1.
<mgrwt>
<rscale>  2 0.22898284E+02</rscale>
<asrwt>0</asrwt>
<pdfrwt beam="1">  1       21 0.43420670E-02 0.22898284E+02</pdfrwt>
<pdfrwt beam="2">  1       21 0.78026268E-02 0.22898284E+02</pdfrwt>
<totfact> 0.31309059E+07</totfact>
</mgrwt>
</event>
<event>
 4    1  0.2769537E+004  0.2203462E+02  0.7546771E-02  0.1707654E+00
         21   -1    0    0  501  502  0.00000000000E+00  0.00000000000E+00  0.81537510717E+00  0.81537510717E+00  0.00000000000E+00 0.  1.
         21   -1    0    0  502  503 -0.00000000000E+00 -0.00000000000E+00 -0.69378355754E+03  0.69378355754E+03  0.00000000000E+00 0. -1.
          2    1    1    2  501    0 -0.29595807750E+01  0.21834955526E+02 -0.21574128000E+03  0.21686360759E+03  0.00000000000E+00 0.  1.
         -2    1    1    2    0  503  0.29595807750E+01 -0.21834955526E+02 -0.47722690243E+03  0.47773532506E+03  0.00000000000E+00 0. -1.
<mgrwt>
<rscale>  2 0.22034618E+02</rscale>
<asrwt>0</asrwt>
<pdfrwt beam="1">  1       21 0.12544249E-03 0.22034618E+02</pdfrwt>
<pdfrwt beam="2">  1       21 0.10673579E+00 0.22034618E+02</pdfrwt>
<totfact> 0.49360095E+07</totfact>
</mgrwt>
</event>
<event>
 4    1  0.2769537E+004  0.2270596E+02  0.7546771E-02  0.1696321E+00
         21   -1    0    0  503  502  0.00000000000E+00  0.00000000000E+00  0.15695708672E+02  0.15695708672E+02  0.00000000000E+00 0.  1.
         21   -1    0    0  501  503 -0.00000000000E+00 -0.00000000000E+00 -0.74470746076E+02  0.74470746076E+02  0.00000000000E+00 0. -1.
          2    1    1    2  501    0 -0.90945008367E+01 -0.20805065437E+02 -0.63092297488E+02  0.67053700089E+02  0.00000000000E+00 0. -1.
         -2    1    1    2    0  502  0.90945008367E+01  0.20805065437E+02  0.43172600844E+01  0.23112754659E+02  0.00000000000E+00 0.  1.
<mgrwt>
<rscale>  2 0.22705962E+02</rscale>
<asrwt>0</asrwt>
<pdfrwt beam="1">  1       21 0.24147244E-02 0.22705962E+02</pdfrwt>
<pdfrwt beam="2">  1       21 0.11457038E-01 0.22705962E+02</pdfrwt>
<totfact> 0.41478130E+07</totfact>
</mgrwt>
</event>
<event>
 4    1  0.2769537E+004  0.2940667E+02  0.7546771E-02  0.1604741E+00
         21   -1    0    0  503  502  0.00000000000E+00  0.00000000000E+00  0.31405856441E+02  0.31405856441E+02  0.00000000000E+00 0.  1.
         21   -1    0    0  501  503 -0.00000000000E+00 -0.00000000000E+00 -0.11291398645E+03  0.11291398645E+03  0.00000000000E+00 0. -1.
          2    1    1    2  501    0  0.24810026354E+02 -0.15786544134E+02 -0.10350183798E+03  0.10759824742E+03  0.00000000000E+00 0. -1.
         -2    1    1    2    0  502 -0.24810026354E+02  0.15786544134E+02  0.21993707971E+02  0.36721595467E+02  0.00000000000E+00 0.  1.
<mgrwt>
<rscale>  2 0.29406672E+02</rscale>
<asrwt>0</asrwt>
<pdfrwt beam="1">  1       21 0.48316704E-02 0.29406672E+02</pdfrwt>
<pdfrwt beam="2">  1       21 0.17371382E-01 0.29406672E+02</pdfrwt>
<totfact> 0.72225569E+06</totfact>
</mgrwt>
</event>
<event>
 4    1  0.2769537E+004  0.2338816E+02  0.7546771E-02  0.1685294E+00
         21   -1    0    0  503  502  0.00000000000E+00  0.00000000000E+00  0.16131701949E+02  0.16131701949E+02  0.00000000000E+00 0.  1.
         21   -1    0    0  501  503 -0.00000000000E+00 -0.00000000000E+00 -0.62595898503E+02  0.62595898503E+02  0.00000000000E+00 0. -1.
          2    1    1    2  501    0  0.22783340291E+02  0.52844379808E+01 -0.49880290746E+02  0.55091281384E+02  0.00000000000E+00 0. -1.
         -2    1    1    2    0  502 -0.22783340291E+02 -0.52844379808E+01  0.34160941919E+01  0.23636319069E+02  0.00000000000E+00 0.  1.
<mgrwt>
<rscale>  2 0.23388157E+02</rscale>
<asrwt>0</asrwt>
<pdfrwt beam="1">  1       21 0.24818003E-02 0.23388157E+02</pdfrwt>
<pdfrwt beam="2">  1       21 0.96301381E-02 0.23388157E+02</pdfrwt>
<totfact> 0.53447874E+07</totfact>
</mgrwt>
</event>
<event>
 4    1  0.2769537E+004  0.2116553E+02  0.7546771E-02  0.1723096E+00
         21   -1    0    0  503  502  0.00000000000E+00  0.00000000000E+00  0.12328089326E+02  0.12328089326E+02  0.00000000000E+00 0. -1.
         21   -1    0    0  501  503 -0.00000000000E+00 -0.00000000000E+00 -0.17095322251E+03  0.17095322251E+03  0.00000000000E+00 0.  1.
          2    1    1    2  501    0  0.18106375938E+02  0.10960792506E+02 -0.16063238605E+03  0.16202081123E+03  0.00000000000E+00 0.  1.
         -2    1    1    2    0  502 -0.18106375938E+02 -0.10960792506E+02  0.20072528704E+01  0.21260500607E+02  0.00000000000E+00 0. -1.
<mgrwt>
<rscale>  2 0.21165534E+02</rscale>
<asrwt>0</asrwt>
<pdfrwt beam="1">  1       21 0.18966292E-02 0.21165534E+02</pdfrwt>
<pdfrwt beam="2">  1       21 0.26300495E-01 0.21165534E+02</pdfrwt>
<totfact> 0.14137997E+07</totfact>
</mgrwt>
</event>
<event>
 4    1  0.2769537E+004  0.2088557E+02  0.7546771E-02  0.1728270E+00
         21   -1    0    0  501  502  0.00000000000E+00  0.00000000000E+00  0.41713161036E+02  0.41713161036E+02  0.00000000000E+00 0.  1.
         21   -1    0    0  502  503 -0.00000000000E+00 -0.00000000000E+00 -0.10961113520E+02  0.10961113520E+02  0.00000000000E+00 0. -1.
          2    1    1    2  501    0 -0.63915046733E+00  0.20875790473E+02  0.21022468488E+02  0.29633618114E+02  0.00000000000E+00 0. -1.
         -2    1    1    2    0  503  0.63915046733E+00 -0.20875790473E+02  0.97295790280E+01  0.23040656442E+02  0.00000000000E+00 0.  1.
<mgrwt>
<rscale>  2 0.20885573E+02</rscale>
<asrwt>0</asrwt>
<pdfrwt beam="1">  1       21 0.64174093E-02 0.20885573E+02</pdfrwt>
<pdfrwt beam="2">  1       21 0.16863252E-02 0.20885573E+02</pdfrwt>
<totfact> 0.18113798E+08</totfact>
</mgrwt>
</event>
<event>
 4    1  0.2769537E+004  0.2078270E+02  0.7546771E-02  0.1730197E+00
         21   -1    0    0  501  502  0.00000000000E+00  0.00000000000E+00  0.13258133765E+04  0.13258133765E+04  0.00000000000E+00 0.  1.
         21   -1    0    0  502  503 -0.00000000000E+00 -0.00000000000E+00 -0.17305355989E+01  0.17305355989E+01  0.00000000000E+00 0. -1.
          2    1    1    2  501    0  0.20003594670E+02  0.56371069669E+01  0.12600801807E+04  0.12602515552E+04  0.00000000000E+00 0.  1.
         -2    1    1    2    0  503 -0.20003594670E+02 -0.56371069669E+01  0.64002660249E+02  0.67292356874E+02  0.00000000000E+00 0. -1.
<mgrwt>
<rscale>  2 0.20782704E+02</rscale>
<asrwt>0</asrwt>
<pdfrwt beam="1">  1       21 0.20397048E+00 0.20782704E+02</pdfrwt>
<pdfrwt beam="2">  1       21 0.26623731E-03 0.20782704E+02</pdfrwt>
<totfact> 0.35827229E+06</totfact>
</mgrwt>
</event>
<event>
 4    1  0.2769537E+004  0.2715941E+02  0.7546771E-02  0.1631792E+00
         21   -1    0    0  501  502  0.00000000000E+00  0.00000000000E+00  0.11625810804E+03  0.11625810804E+03  0.00000000000E+00 0. -1.
         21   -1    0    0  502  503 -0.00000000000E+00 -0.00000000000E+00 -0.75529057354E+01  0.75529057354E+01  0.00000000000E+00 0.  1.
          2    1    1    2  501    0 -0.14796975224E+02  0.22774609986E+02  0.79111221360E+02  0.83643401897E+02  0.00000000000E+00 0. -1.
         -2    1    1    2    0  503  0.14796975224E+02 -0.22774609986E+02  0.29593980942E+02  0.40167611876E+02  0.00000000000E+00 0.  1.
<mgrwt>
<rscale>  2 0.27159406E+02</rscale>
<asrwt>0</asrwt>
<pdfrwt beam="1">  1       21 0.17885861E-01 0.27159406E+02</pdfrwt>
<pdfrwt beam="2">  1       21 0.11619856E-02 0.27159406E+02</pdfrwt>
<totfact> 0.62145774E+07</totfact>
</mgrwt>
</event>
<event>
 4    1  0.2769537E+004  0.2081308E+02  0.7546771E-02  0.1729626E+00
         21   -1    0    0  503  502  0.00000000000E+00  0.00000000000E+00  0.79479453969E+00  0.79479453969E+00  0.00000000000E+00 0. -1.
         21   -1    0    0  501  503 -0.00000000000E+00 -0.00000000000E+00 -0.61945913396E+03  0.61945913396E+03  0.00000000000E+00 0.  1.
          2    1    1    2  501    0 -0.19308578846E+01  0.20723321674E+02 -0.41683359052E+03  0.41735288002E+03  0.00000000000E+00 0.  1.
         -2    1    1    2    0  502  0.19308578846E+01 -0.20723321674E+02 -0.20183074889E+03  0.20290104848E+03  0.00000000000E+00 0. -1.
<mgrwt>
<rscale>  2 0.20813079E+02</rscale>
<asrwt>0</asrwt>
<pdfrwt beam="1">  1       21 0.12227643E-03 0.20813079E+02</pdfrwt>
<pdfrwt beam="2">  1       21 0.95301135E-01 0.20813079E+02</pdfrwt>
<totfact> 0.64715059E+07</totfact>
</mgrwt>
</event>
<event>
 4    1  0.2769537E+004  0.2413510E+02  0.7546771E-02  0.1673745E+00
         21   -1    0    0  503  502  0.00000000000E+00  0.00000000000E+00  0.77625128299E+01  0.77625128299E+01  0.00000000000E+00 0.  1.
         21   -1    0    0  501  503 -0.00000000000E+00 -0.00000000000E+00 -0.10158200635E+03  0.10158200635E+03  0.00000000000E+00 0. -1.
          2    1    1    2  501    0 -0.14735019084E+02  0.19114974704E+02 -0.74855846312E+02  0.78650497598E+02  0.00000000000E+00 0. -1.
         -2    1    1    2    0  502  0.14735019084E+02 -0.19114974704E+02 -0.18963647204E+02  0.30694021578E+02  0.00000000000E+00 0.  1.
<mgrwt>
<rscale>  2 0.24135100E+02</rscale>
<asrwt>0</asrwt>
<pdfrwt beam="1">  1       21 0.11942328E-02 0.24135100E+02</pdfrwt>
<pdfrwt beam="2">  1       21 0.15628000E-01 0.24135100E+02</pdfrwt>
<totfact> 0.73105995E+07</totfact>
</mgrwt>
</event>
<event>
 4    1  0.2769537E+004  0.2469543E+02  0.7546771E-02  0.1665415E+00
         21   -1    0    0  501  502  0.00000000000E+00  0.00000000000E+00  0.82635863939E+02  0.82635863939E+02  0.00000000000E+00 0.  1.
         21   -1    0    0  502  503 -0.00000000000E+00 -0.00000000000E+00 -0.91422160089E+01  0.91422160089E+01  0.00000000000E+00 0. -1.
          2    1    1    2  501    0  0.18199198905E+02 -0.16692917046E+02  0.56893130587E+02  0.62021710943E+02  0.00000000000E+00 0.  1.
         -2    1    1    2    0  503 -0.18199198905E+02  0.16692917046E+02  0.16600517343E+02  0.29756369005E+02  0.00000000000E+00 0. -1.
<mgrwt>
<rscale>  2 0.24695431E+02</rscale>
<asrwt>0</asrwt>
<pdfrwt beam="1">  1       21 0.12713209E-01 0.24695431E+02</pdfrwt>
<pdfrwt beam="2">  1       21 0.14064948E-02 0.24695431E+02</pdfrwt>
<totfact> 0.81491536E+07</totfact>
</mgrwt>
</event>
<event>
 4    1  0.2769537E+004  0.2174202E+02  0.7546771E-02  0.1712752E+00
         21   -1    0    0  503  502  0.00000000000E+00  0.00000000000E+00  0.49984917533E+02  0.49984917533E+02  0.00000000000E+00 0. -1.
         21   -1    0    0  501  503 -0.00000000000E+00 -0.00000000000E+00 -0.17725562796E+02  0.17725562796E+02  0.00000000000E+00 0.  1.
          2    1    1    2  501    0 -0.21508884119E+02 -0.31754455151E+01 -0.69929189091E+01  0.22838924343E+02  0.00000000000E+00 0.  1.
         -2    1    1    2    0  502  0.21508884119E+02  0.31754455151E+01  0.39252273645E+02  0.44871555986E+02  0.00000000000E+00 0. -1.
<mgrwt>
<rscale>  2 0.21742023E+02</rscale>
<asrwt>0</asrwt>
<pdfrwt beam="1">  1       21 0.76899872E-02 0.21742023E+02</pdfrwt>
<pdfrwt beam="2">  1       21 0.27270097E-02 0.21742023E+02</pdfrwt>
<totfact> 0.65481769E+07</totfact>
</mgrwt>
</event>
<event>
 4    1  0.2769537E+004  0.2226416E+02  0.7546771E-02  0.1703723E+00
         21   -1    0    0  501  502  0.00000000000E+00  0.00000000000E+00  0.19477428580E+03  0.19477428580E+03  0.00000000000E+00 0. -1.
         21   -1    0    0  502  503 -0.00000000000E+00 -0.00000000000E+00 -0.16955771586E+02  0.16955771586E+02  0.00000000000E+00 0.  1.
          2    1    1    2  501    0  0.14209323265E+02  0.17140248150E+02  0.18650658892E+03  0.18783077672E+03  0.00000000000E+00 0. -1.
         -2    1    1    2    0  503 -0.14209323265E+02 -0.17140248150E+02 -0.86880747019E+01  0.23899280665E+02  0.00000000000E+00 0.  1.
<mgrwt>
<rscale>  2 0.22264163E+02</rscale>
<asrwt>0</asrwt>
<pdfrwt beam="1">  1       21 0.29965273E-01 0.22264163E+02</pdfrwt>
<pdfrwt beam="2">  1       21 0.26085804E-02 0.22264163E+02</pdfrwt>
<totfact> 0.69156590E+06</totfact>
</mgrwt>
</event>
<event>
 4    1  0.2769537E+004  0.3780764E+02  0.7546771E-02  0.1524994E+00
         21   -1    0    0  501  502  0.00000000000E+00  0.00000000000E+00  0.25705667674E+03  0.25705667674E+03  0.00000000000E+00 0. -1.
         21   -1    0    0  502  503 -0.00000000000E+00 -0.00000000000E+00 -0.55733497043E+01  0.55733497043E+01  0.00000000000E+00 0.  1.
          2    1    1    2  501    0 -0.31794986780E+02 -0.20457187965E+02  0.13199509822E+03  0.13730303594E+03  0.00000000000E+00 0.  1.
         -2    1    1    2    0  503  0.31794986780E+02  0.20457187965E+02  0.11948822882E+03  0.12532699051E+03  0.00000000000E+00 0. -1.
<mgrwt>
<rscale>  2 0.37807641E+02</rscale>
<asrwt>0</asrwt>
<pdfrwt beam="1">  1       21 0.39547172E-01 0.37807641E+02</pdfrwt>
<pdfrwt beam="2">  1       21 0.85743862E-03 0.37807641E+02</pdfrwt>
<totfact> 0.24784380E+07</totfact>
</mgrwt>
</event>
<event>
 4    1  0.2769537E+004  0.2029583E+02  0.7546771E-02  0.1739508E+00
         21   -1    0    0  503  502  0.00000000000E+00  0.00000000000E+00  0.13216569484E+03  0.13216569484E+03  0.00000000000E+00 0. -1.
         21   -1    0    0  501  503 -0.00000000000E+00 -0.00000000000E+00 -0.28991766543E+02  0.28991766543E+02  0.00000000000E+00 0.  1.
          2    1    1    2  501    0 -0.19216326890E+02  0.65309764904E+01 -0.24537424328E+02  0.31843461899E+02  0.00000000000E+00 0.  1.
         -2    1    1    2    0  502  0.19216326890E+02 -0.65309764904E+01  0.12771135263E+03  0.12931399949E+03  0.00000000000E+00 0. -1.
<mgrwt>
<rscale>  2 0.20295834E+02</rscale>
<asrwt>0</asrwt>
<pdfrwt beam="1">  1       21 0.20333183E-01 0.20295834E+02</pdfrwt>
<pdfrwt beam="2">  1       21 0.44602718E-02 0.20295834E+02</pdfrwt>
<totfact> 0.58640560E+06</totfact>
</mgrwt>
</event>
<event>
 4    1  0.2769537E+004  0.2051822E+02  0.7546771E-02  0.1735215E+00
         21   -1    0    0  501  502  0.00000000000E+00  0.00000000000E+00  0.87053864735E+02  0.87053864735E+02  0.00000000000E+00 0.  1.
         21   -1    0    0  502  503 -0.00000000000E+00 -0.00000000000E+00 -0.75317438538E+02  0.75317438538E+02  0.00000000000E+00 0. -1.
          2    1    1    2  501    0  0.20092774209E+02  0.41566562197E+01  0.84404202108E+02  0.86862343394E+02  0.00000000000E+00 0.  1.
         -2    1    1    2    0  503 -0.20092774209E+02 -0.41566562197E+01 -0.72667775911E+02  0.75508959880E+02  0.00000000000E+00 0. -1.
<mgrwt>
<rscale>  2 0.20518220E+02</rscale>
<asrwt>0</asrwt>
<pdfrwt beam="1">  1       21 0.13392902E-01 0.20518220E+02</pdfrwt>
<pdfrwt beam="2">  1       21 0.11587298E-01 0.20518220E+02</pdfrwt>
<totfact> 0.25629863E+06</totfact>
</mgrwt>
</event>
<event>
 4    1  0.2769537E+004  0.3022941E+02  0.7546771E-02  0.1595567E+00
         21   -1    0    0  501  502  0.00000000000E+00  0.00000000000E+00  0.50264015283E+03  0.50264015283E+03  0.00000000000E+00 0. -1.
         21   -1    0    0  502  503 -0.00000000000E+00 -0.00000000000E+00 -0.18711654097E+01  0.18711654097E+01  0.00000000000E+00 0.  1.
          2    1    1    2  501    0  0.30188012680E+02  0.15814957845E+01  0.29289121863E+03  0.29444708046E+03  0.00000000000E+00 0. -1.
         -2    1    1    2    0  503 -0.30188012680E+02 -0.15814957845E+01  0.20787776879E+03  0.21006423778E+03  0.00000000000E+00 0.  1.
<mgrwt>
<rscale>  2 0.30229410E+02</rscale>
<asrwt>0</asrwt>
<pdfrwt beam="1">  1       21 0.77329147E-01 0.30229410E+02</pdfrwt>
<pdfrwt beam="2">  1       21 0.28787200E-03 0.30229410E+02</pdfrwt>
<totfact> 0.31667627E+07</totfact>
</mgrwt>
</event>
<event>
 4    1  0.2769537E+004  0.2205381E+02  0.7546771E-02  0.1707323E+00
         21   -1    0    0  503  502  0.00000000000E+00  0.00000000000E+00  0.11203415788E+02  0.11203415788E+02  0.00000000000E+00 0.  1.
         21   -1    0    0  501  503 -0.00000000000E+00 -0.00000000000E+00 -0.43590382320E+02  0.43590382320E+02  0.00000000000E+00 0. -1.
          2    1    1    2  501    0  0.21935951942E+02  0.22769841282E+01 -0.17942586927E+02  0.28430741636E+02  0.00000000000E+00 0. -1.
         -2    1    1    2    0  502 -0.21935951942E+02 -0.22769841282E+01 -0.14444379606E+02  0.26363056472E+02  0.00000000000E+00 0.  1.
<mgrwt>
<rscale>  2 0.22053812E+02</rscale>
<asrwt>0</asrwt>
<pdfrwt beam="1">  1       21 0.17236024E-02 0.22053812E+02</pdfrwt>
<pdfrwt beam="2">  1       21 0.67062128E-02 0.22053812E+02</pdfrwt>
<totfact> 0.16602726E+08</totfact>
</mgrwt>
</event>
<event>
 4    1  0.2769537E+004  0.3569720E+02  0.7546771E-02  0.1542495E+00
         21   -1    0    0  503  502  0.00000000000E+00  0.00000000000E+00  0.10875795407E+01  0.10875795407E+01  0.00000000000E+00 0.  1.
         21   -1    0    0  501  503 -0.00000000000E+00 -0.00000000000E+00 -0.19652449049E+04  0.19652449049E+04  0.00000000000E+00 0. -1.
          2    1    1    2  501    0  0.27598851641E+02  0.22640522668E+02 -0.16068357382E+04  0.16072322108E+04  0.00000000000E+00 0. -1.
         -2    1    1    2    0  502 -0.27598851641E+02 -0.22640522668E+02 -0.35732158723E+03  0.35910027371E+03  0.00000000000E+00 0.  1.
<mgrwt>
<rscale>  2 0.35697197E+02</rscale>
<asrwt>0</asrwt>
<pdfrwt beam="1">  1       21 0.16732108E-03 0.35697197E+02</pdfrwt>
<pdfrwt beam="2">  1       21 0.30234328E+00 0.35697197E+02</pdfrwt>
<totfact> 0.22343958E+06</totfact>
</mgrwt>
</event>
<event>
 4    1  0.2769537E+004  0.2019016E+02  0.7546771E-02  0.1741573E+00
         21   -1    0    0  503  502  0.00000000000E+00  0.00000000000E+00  0.21127957936E+02  0.21127957936E+02  0.00000000000E+00 0. -1.
         21   -1    0    0  501  503 -0.00000000000E+00 -0.00000000000E+00 -0.21414586565E+02  0.21414586565E+02  0.00000000000E+00 0.  1.
          2    1    1    2  501    0 -0.14474205587E+02 -0.14076218248E+02 -0.68370405217E+01  0.21316370953E+02  0.00000000000E+00 0.  1.
         -2    1    1    2    0  502  0.14474205587E+02  0.14076218248E+02  0.65504118928E+01  0.21226173548E+02  0.00000000000E+00 0. -1.
<mgrwt>
<rscale>  2 0.20190160E+02</rscale>
<asrwt>0</asrwt>
<pdfrwt beam="1">  1       21 0.32504551E-02 0.20190160E+02</pdfrwt>
<pdfrwt beam="2">  1       21 0.32945518E-02 0.20190160E+02</pdfrwt>
<totfact> 0.18733900E+08</totfact>
</mgrwt>
</event>
<event>
 4    1  0.2769537E+004  0.3040961E+02  0.7546771E-02  0.1593605E+00
         21   -1    0    0  503  502  0.00000000000E+00  0.00000000000E+00  0.45116443961E+03  0.45116443961E+03  0.00000000000E+00 0.  1.
         21   -1    0    0  501  503 -0.00000000000E+00 -0.00000000000E+00 -0.21768724898E+01  0.21768724898E+01  0.00000000000E+00 0. -1.
          2    1    1    2  501    0  0.47953848870E+01 -0.30029126289E+02  0.16970341872E+03  0.17240648035E+03  0.00000000000E+00 0.  1.
         -2    1    1    2    0  502 -0.47953848870E+01  0.30029126289E+02  0.27928414840E+03  0.28093483175E+03  0.00000000000E+00 0. -1.
<mgrwt>
<rscale>  2 0.30409606E+02</rscale>
<asrwt>0</asrwt>
<pdfrwt beam="1">  1       21 0.69409839E-01 0.30409606E+02</pdfrwt>
<pdfrwt beam="2">  1       21 0.33490382E-03 0.30409606E+02</pdfrwt>
<totfact> 0.31804577E+07</totfact>
</mgrwt>
</event>
<event>
 4    1  0.2769537E+004  0.2185836E+02  0.7546771E-02  0.1710713E+00
         21   -1    0    0  503  502  0.00000000000E+00  0.00000000000E+00  0.39612483857E+02  0.39612483857E+02  0.00000000000E+00 0. -1.
         21   -1    0    0  501  503 -0.00000000000E+00 -0.00000000000E+00 -0.33384391697E+02  0.33384391697E+02  0.00000000000E+00 0.  1.
          2    1    1    2  501    0  0.17978868637E+02 -0.12431746563E+02 -0.26055190422E+02  0.34009719023E+02  0.00000000000E+00 0.  1.
         -2    1    1    2    0  502 -0.17978868637E+02  0.12431746563E+02  0.32283282582E+02  0.38987156531E+02  0.00000000000E+00 0. -1.
<mgrwt>
<rscale>  2 0.21858363E+02</rscale>
<asrwt>0</asrwt>
<pdfrwt beam="1">  1       21 0.60942283E-02 0.21858363E+02</pdfrwt>
<pdfrwt beam="2">  1       21 0.51360602E-02 0.21858363E+02</pdfrwt>
<totfact> 0.35360262E+07</totfact>
</mgrwt>
</event>
<event>
 4    1  0.2769537E+004  0.2019162E+02  0.7546771E-02  0.1741544E+00
         21   -1    0    0  503  502  0.00000000000E+00  0.00000000000E+00  0.50782468565E+01  0.50782468565E+01  0.00000000000E+00 0. -1.
         21   -1    0    0  501  503 -0.00000000000E+00 -0.00000000000E+00 -0.10345941484E+03  0.10345941484E+03  0.00000000000E+00 0.  1.
          2    1    1    2  501    0 -0.62680606320E+01  0.19194084226E+02 -0.74875619431E+02  0.77550369687E+02  0.00000000000E+00 0.  1.
         -2    1    1    2    0  502  0.62680606320E+01 -0.19194084226E+02 -0.23505548554E+02  0.30987292012E+02  0.00000000000E+00 0. -1.
<mgrwt>
<rscale>  2 0.20191618E+02</rscale>
<asrwt>0</asrwt>
<pdfrwt beam="1">  1       21 0.78126872E-03 0.20191618E+02</pdfrwt>
<pdfrwt beam="2">  1       21 0.15916834E-01 0.20191618E+02</pdfrwt>
<totfact> 0.12726001E+08</totfact>
</mgrwt>
</event>
<event>
 4    1  0.2769537E+004  0.2496001E+02  0.7546771E-02  0.1661577E+00
         21   -1    0    0  503  502  0.00000000000E+00  0.00000000000E+00  0.55425945816E+02  0.55425945816E+02  0.00000000000E+00 0.  1.
         21   -1    0    0  501  503 -0.00000000000E+00 -0.00000000000E+00 -0.23924575729E+02  0.23924575729E+02  0.00000000000E+00 0. -1.
          2    1    1    2  501    0 -0.21595817148E+02 -0.12514906445E+02 -0.13138223893E+02  0.28206650433E+02  0.00000000000E+00 0. -1.
         -2    1    1    2    0  502  0.21595817148E+02  0.12514906445E+02  0.44639593980E+02  0.51143871111E+02  0.00000000000E+00 0.  1.
<mgrwt>
<rscale>  2 0.24960012E+02</rscale>
<asrwt>0</asrwt>
<pdfrwt beam="1">  1       21 0.85270686E-02 0.24960012E+02</pdfrwt>
<pdfrwt beam="2">  1       21 0.36807040E-02 0.24960012E+02</pdfrwt>
<totfact> 0.35873811E+07</totfact>
</mgrwt>
</event>
<event>
 4    1  0.2769537E+004  0.2815758E+02  0.7546771E-02  0.1619395E+00
         21   -1    0    0  503  502  0.00000000000E+00  0.00000000000E+00  0.50409555160E+01  0.50409555160E+01  0.00000000000E+00 0. -1.
         21   -1    0    0  501  503 -0.00000000000E+00 -0.00000000000E+00 -0.31614270695E+03  0.31614270695E+03  0.00000000000E+00 0.  1.
          2    1    1    2  501    0  0.18972141356E+02  0.20806420298E+02 -0.26938978699E+03  0.27085735472E+03  0.00000000000E+00 0.  1.
         -2    1    1    2    0  502 -0.18972141356E+02 -0.20806420298E+02 -0.41711964446E+02  0.50326307745E+02  0.00000000000E+00 0. -1.
<mgrwt>
<rscale>  2 0.28157579E+02</rscale>
<asrwt>0</asrwt>
<pdfrwt beam="1">  1       21 0.77553139E-03 0.28157579E+02</pdfrwt>
<pdfrwt beam="2">  1       21 0.48637354E-01 0.28157579E+02</pdfrwt>
<totfact> 0.18387177E+07</totfact>
</mgrwt>
</event>
<event>
 4    1  0.2769537E+004  0.2472122E+02  0.7546771E-02  0.1665039E+00
         21   -1    0    0  501  502  0.00000000000E+00  0.00000000000E+00  0.23789935980E+02  0.23789935980E+02  0.00000000000E+00 0.  1.
         21   -1    0    0  502  503 -0.00000000000E+00 -0.00000000000E+00 -0.27215504318E+02  0.27215504318E+02  0.00000000000E+00 0. -1.
          2    1    1    2  501    0 -0.22423441849E+02  0.10408083686E+02 -0.77527100063E+01  0.25908366656E+02  0.00000000000E+00 0. -1.
         -2    1    1    2    0  503  0.22423441849E+02 -0.10408083686E+02  0.43271416689E+01  0.25097073642E+02  0.00000000000E+00 0.  1.
<mgrwt>
<rscale>  2 0.24721225E+02</rscale>
<asrwt>0</asrwt>
<pdfrwt beam="1">  1       21 0.36599902E-02 0.24721225E+02</pdfrwt>
<pdfrwt beam="2">  1       21 0.41870006E-02 0.24721225E+02</pdfrwt>
<totfact> 0.11362124E+08</totfact>
</mgrwt>
</event>
<event>
 4    1  0.2769537E+004  0.2225457E+02  0.7546771E-02  0.1703886E+00
         21   -1    0    0  501  502  0.00000000000E+00  0.00000000000E+00  0.59101510133E+02  0.59101510133E+02  0.00000000000E+00 0.  1.
         21   -1    0    0  502  503 -0.00000000000E+00 -0.00000000000E+00 -0.20256896471E+02  0.20256896471E+02  0.00000000000E+00 0. -1.
          2    1    1    2  501    0  0.15427245295E+02  0.16039517419E+02  0.49805219805E+02  0.54551131393E+02  0.00000000000E+00 0.  1.
         -2    1    1    2    0  503 -0.15427245295E+02 -0.16039517419E+02 -0.10960606143E+02  0.24807275212E+02  0.00000000000E+00 0. -1.
<mgrwt>
<rscale>  2 0.22254573E+02</rscale>
<asrwt>0</asrwt>
<pdfrwt beam="1">  1       21 0.90925399E-02 0.22254573E+02</pdfrwt>
<pdfrwt beam="2">  1       21 0.31164456E-02 0.22254573E+02</pdfrwt>
<totfact> 0.40734054E+07</totfact>
</mgrwt>
</event>
<event>
 4    1  0.2769537E+004  0.2250172E+02  0.7546771E-02  0.1699717E+00
         21   -1    0    0  501  502  0.00000000000E+00  0.00000000000E+00  0.86405565233E+01  0.86405565233E+01  0.00000000000E+00 0. -1.
         21   -1    0    0  502  503 -0.00000000000E+00 -0.00000000000E+00 -0.77996235676E+02  0.77996235676E+02  0.00000000000E+00 0.  1.
          2    1    1    2  501    0  0.16335916412E+02 -0.15474657182E+02 -0.13075216218E+02  0.26024766263E+02  0.00000000000E+00 0. -1.
         -2    1    1    2    0  503 -0.16335916412E+02  0.15474657182E+02 -0.56280462935E+02  0.60612025936E+02  0.00000000000E+00 0.  1.
<mgrwt>
<rscale>  2 0.22501715E+02</rscale>
<asrwt>0</asrwt>
<pdfrwt beam="1">  1       21 0.13293163E-02 0.22501715E+02</pdfrwt>
<pdfrwt beam="2">  1       21 0.11999421E-01 0.22501715E+02</pdfrwt>
<totfact> 0.95352903E+07</totfact>
</mgrwt>
</event>
<event>
 4    1  0.2769537E+004  0.2036505E+02  0.7546771E-02  0.1738164E+00
         21   -1    0    0  503  502  0.00000000000E+00  0.00000000000E+00  0.23020332503E+02  0.23020332503E+02  0.00000000000E+00 0.  1.
         21   -1    0    0  501  503 -0.00000000000E+00 -0.00000000000E+00 -0.20348628415E+02  0.20348628415E+02  0.00000000000E+00 0. -1.
          2    1    1    2  501    0 -0.20129289334E+02  0.30898443154E+01 -0.60059000573E+01  0.21232198719E+02  0.00000000000E+00 0. -1.
         -2    1    1    2    0  502  0.20129289334E+02 -0.30898443154E+01  0.86776041450E+01  0.22136762199E+02  0.00000000000E+00 0.  1.
<mgrwt>
<rscale>  2 0.20365054E+02</rscale>
<asrwt>0</asrwt>
<pdfrwt beam="1">  1       21 0.35415896E-02 0.20365054E+02</pdfrwt>
<pdfrwt beam="2">  1       21 0.31305582E-02 0.20365054E+02</pdfrwt>
<totfact> 0.17794744E+08</totfact>
</mgrwt>
</event>
<event>
 4    1  0.2769537E+004  0.2232116E+02  0.7546771E-02  0.1702756E+00
         21   -1    0    0  501  502  0.00000000000E+00  0.00000000000E+00  0.10580256795E+03  0.10580256795E+03  0.00000000000E+00 0. -1.
         21   -1    0    0  502  503 -0.00000000000E+00 -0.00000000000E+00 -0.46850034873E+02  0.46850034873E+02  0.00000000000E+00 0.  1.
          2    1    1    2  501    0 -0.13605758163E+02  0.17695131855E+02  0.10186506488E+03  0.10428195333E+03  0.00000000000E+00 0. -1.
         -2    1    1    2    0  503  0.13605758163E+02 -0.17695131855E+02 -0.42912531806E+02  0.48370649495E+02  0.00000000000E+00 0.  1.
<mgrwt>
<rscale>  2 0.22321164E+02</rscale>
<asrwt>0</asrwt>
<pdfrwt beam="1">  1       21 0.16277318E-01 0.22321164E+02</pdfrwt>
<pdfrwt beam="2">  1       21 0.72076977E-02 0.22321164E+02</pdfrwt>
<totfact> 0.40625867E+06</totfact>
</mgrwt>
</event>
<event>
 4    1  0.2769537E+004  0.2558827E+02  0.7546771E-02  0.1652693E+00
         21   -1    0    0  501  502  0.00000000000E+00  0.00000000000E+00  0.14126734568E+03  0.14126734568E+03  0.00000000000E+00 0. -1.
         21   -1    0    0  502  503 -0.00000000000E+00 -0.00000000000E+00 -0.72020983819E+01  0.72020983819E+01  0.00000000000E+00 0.  1.
          2    1    1    2  501    0  0.25321993176E+02  0.36818436805E+01  0.11135343495E+03  0.11425562037E+03  0.00000000000E+00 0. -1.
         -2    1    1    2    0  503 -0.25321993176E+02 -0.36818436805E+01  0.22711812343E+02  0.34213823685E+02  0.00000000000E+00 0.  1.
<mgrwt>
<rscale>  2 0.25588265E+02</rscale>
<asrwt>0</asrwt>
<pdfrwt beam="1">  1       21 0.21733436E-01 0.25588265E+02</pdfrwt>
<pdfrwt beam="2">  1       21 0.11080152E-02 0.25588265E+02</pdfrwt>
<totfact> 0.46813088E+07</totfact>
</mgrwt>
</event>
<event>
 4    1  0.2769537E+004  0.2614532E+02  0.7546771E-02  0.1645076E+00
         21   -1    0    0  503  502  0.00000000000E+00  0.00000000000E+00  0.12751211498E+01  0.12751211498E+01  0.00000000000E+00 0. -1.
         21   -1    0    0  501  503 -0.00000000000E+00 -0.00000000000E+00 -0.80165167742E+03  0.80165167742E+03  0.00000000000E+00 0.  1.
          2    1    1    2  501    0 -0.57235650289E+01  0.25511148225E+02 -0.63125477033E+03  0.63179598206E+03  0.00000000000E+00 0.  1.
         -2    1    1    2    0  502  0.57235650289E+01 -0.25511148225E+02 -0.16912178594E+03  0.17113081651E+03  0.00000000000E+00 0. -1.
<mgrwt>
<rscale>  2 0.26145322E+02</rscale>
<asrwt>0</asrwt>
<pdfrwt beam="1">  1       21 0.19617233E-03 0.26145322E+02</pdfrwt>
<pdfrwt beam="2">  1       21 0.12333112E+00 0.26145322E+02</pdfrwt>
<totfact> 0.19370784E+07</totfact>
</mgrwt>
</event>
<event>
 4    1  0.2769537E+004  0.2152264E+02  0.7546771E-02  0.1716641E+00
         21   -1    0    0  503  502  0.00000000000E+00  0.00000000000E+00  0.66254027782E+02  0.66254027782E+02  0.00000000000E+00 0. -1.
         21   -1    0    0  501  503 -0.00000000000E+00 -0.00000000000E+00 -0.71376821666E+01  0.71376821666E+01  0.00000000000E+00 0.  1.
          2    1    1    2  501    0  0.64408340566E+01 -0.20536300666E+02  0.24309073651E+02  0.32467754006E+02  0.00000000000E+00 0.  1.
         -2    1    1    2    0  502 -0.64408340566E+01  0.20536300666E+02  0.34807271965E+02  0.40923955943E+02  0.00000000000E+00 0. -1.
<mgrwt>
<rscale>  2 0.21522639E+02</rscale>
<asrwt>0</asrwt>
<pdfrwt beam="1">  1       21 0.10192927E-01 0.21522639E+02</pdfrwt>
<pdfrwt beam="2">  1       21 0.10981050E-02 0.21522639E+02</pdfrwt>
<totfact> 0.16463668E+08</totfact>
</mgrwt>
</event>
<event>
 4    1  0.2769537E+004  0.2142750E+02  0.7546771E-02  0.1718345E+00
         21   -1    0    0  503  502  0.00000000000E+00  0.00000000000E+00  0.21327985012E+02  0.21327985012E+02  0.00000000000E+00 0.  1.
         21   -1    0    0  501  503 -0.00000000000E+00 -0.00000000000E+00 -0.23542995301E+02  0.23542995301E+02  0.00000000000E+00 0. -1.
          2    1    1    2  501    0  0.64436038445E+01  0.20435698959E+02 -0.76719422711E+01  0.22759536916E+02  0.00000000000E+00 0. -1.
         -2    1    1    2    0  502 -0.64436038445E+01 -0.20435698959E+02  0.54569319815E+01  0.22111443397E+02  0.00000000000E+00 0.  1.
<mgrwt>
<rscale>  2 0.21427502E+02</rscale>
<asrwt>0</asrwt>
<pdfrwt beam="1">  1       21 0.32812285E-02 0.21427502E+02</pdfrwt>
<pdfrwt beam="2">  1       21 0.36219992E-02 0.21427502E+02</pdfrwt>
<totfact> 0.16228242E+08</totfact>
</mgrwt>
</event>
<event>
 4    1  0.2769537E+004  0.2709744E+02  0.7546771E-02  0.1632583E+00
         21   -1    0    0  503  502  0.00000000000E+00  0.00000000000E+00  0.16662951116E+02  0.16662951116E+02  0.00000000000E+00 0.  1.
         21   -1    0    0  501  503 -0.00000000000E+00 -0.00000000000E+00 -0.46826062652E+02  0.46826062652E+02  0.00000000000E+00 0. -1.
          2    1    1    2  501    0  0.26323394174E+02  0.64304180948E+01 -0.22788388858E+02  0.35405960296E+02  0.00000000000E+00 0.  1.
         -2    1    1    2    0  502 -0.26323394174E+02 -0.64304180948E+01 -0.73747226776E+01  0.28083053472E+02  0.00000000000E+00 0. -1.
<mgrwt>
<rscale>  2 0.27097442E+02</rscale>
<asrwt>0</asrwt>
<pdfrwt beam="1">  1       21 0.25635310E-02 0.27097442E+02</pdfrwt>
<pdfrwt beam="2">  1       21 0.72040096E-02 0.27097442E+02</pdfrwt>
<totfact> 0.84980088E+07</totfact>
</mgrwt>
</event>
<event>
 4    1  0.2769537E+004  0.2276315E+02  0.7546771E-02  0.1695378E+00
         21   -1    0    0  503  502  0.00000000000E+00  0.00000000000E+00  0.13987822939E+02  0.13987822939E+02  0.00000000000E+00 0. -1.
         21   -1    0    0  501  503 -0.00000000000E+00 -0.00000000000E+00 -0.71526220988E+02  0.71526220988E+02  0.00000000000E+00 0.  1.
          2    1    1    2  501    0  0.22143338772E+02 -0.52757451751E+01 -0.58456739100E+02  0.62732378285E+02  0.00000000000E+00 0.  1.
         -2    1    1    2    0  502 -0.22143338772E+02  0.52757451751E+01  0.91834105155E+00  0.22781665641E+02  0.00000000000E+00 0. -1.
<mgrwt>
<rscale>  2 0.22763149E+02</rscale>
<asrwt>0</asrwt>
<pdfrwt beam="1">  1       21 0.21519728E-02 0.22763149E+02</pdfrwt>
<pdfrwt beam="2">  1       21 0.11004034E-01 0.22763149E+02</pdfrwt>
<totfact> 0.53011811E+07</totfact>
</mgrwt>
</event>
<event>
 4    1  0.2769537E+004  0.3333655E+02  0.7546771E-02  0.1563889E+00
         21   -1    0    0  503  502  0.00000000000E+00  0.00000000000E+00  0.15208694697E+02  0.15208694697E+02  0.00000000000E+00 0. -1.
         21   -1    0    0  501  503 -0.00000000000E+00 -0.00000000000E+00 -0.84050592773E+02  0.84050592773E+02  0.00000000000E+00 0.  1.
          2    1    1    2  501    0  0.34931012960E+01  0.33153040862E+02 -0.52357921042E+02  0.62069942572E+02  0.00000000000E+00 0.  1.
         -2    1    1    2    0  502 -0.34931012960E+01 -0.33153040862E+02 -0.16483977035E+02  0.37189344898E+02  0.00000000000E+00 0. -1.
<mgrwt>
<rscale>  2 0.33336555E+02</rscale>
<asrwt>0</asrwt>
<pdfrwt beam="1">  1       21 0.23397992E-02 0.33336555E+02</pdfrwt>
<pdfrwt beam="2">  1       21 0.12930860E-01 0.33336555E+02</pdfrwt>
<totfact> 0.38691896E+07</totfact>
</mgrwt>
</event>
<event>
 4    1  0.2769537E+004  0.2784808E+02  0.7546771E-02  0.1623171E+00
         21   -1    0    0  501  502  0.00000000000E+00  0.00000000000E+00  0.26104308621E+01  0.26104308621E+01  0.00000000000E+00 0.  1.
         21   -1    0    0  502  503 -0.00000000000E+00 -0.00000000000E+00 -0.30880918146E+03  0.30880918146E+03  0.00000000000E+00 0. -1.
          2    1    1    2  501    0 -0.18211537044E+02 -0.21067880909E+02 -0.12275755177E+03  0.12587665472E+03  0.00000000000E+00 0.  1.
         -2    1    1    2    0  503  0.18211537044E+02  0.21067880909E+02 -0.18344119883E+03  0.18554295760E+03  0.00000000000E+00 0. -1.
<mgrwt>
<rscale>  2 0.27848082E+02</rscale>
<asrwt>0</asrwt>
<pdfrwt beam="1">  1       21 0.40160482E-03 0.27848082E+02</pdfrwt>
<pdfrwt beam="2">  1       21 0.47509096E-01 0.27848082E+02</pdfrwt>
<totfact> 0.51158002E+07</totfact>
</mgrwt>
</event>
<event>
 4    1  0.2769537E+004  0.2494455E+02  0.7546771E-02  0.1661800E+00
         21   -1    0    0  503  502  0.00000000000E+00  0.00000000000E+00  0.62082037907E+03  0.62082037907E+03  0.00000000000E+00 0. -1.
         21   -1    0    0  501  503 -0.00000000000E+00 -0.00000000000E+00 -0.70443157436E+01  0.70443157436E+01  0.00000000000E+00 0.  1.
          2    1    1    2  501    0  0.21914215963E+02  0.11916282088E+02  0.16145473624E+02  0.29713750329E+02  0.00000000000E+00 0.  1.
         -2    1    1    2    0  502 -0.21914215963E+02 -0.11916282088E+02  0.59763058970E+03  0.59815094449E+03  0.00000000000E+00 0. -1.
<mgrwt>
<rscale>  2 0.24944551E+02</rscale>
<asrwt>0</asrwt>
<pdfrwt beam="1">  1       21 0.95510785E-01 0.24944551E+02</pdfrwt>
<pdfrwt beam="2">  1       21 0.10837414E-02 0.24944551E+02</pdfrwt>
<totfact> 0.27243776E+06</totfact>
</mgrwt>
</event>
<event>
 4    1  0.2769537E+004  0.2969067E+02  0.7546771E-02  0.1601533E+00
         21   -1    0    0  501  502  0.00000000000E+00  0.00000000000E+00  0.45043301411E+02  0.45043301411E+02  0.00000000000E+00 0. -1.
         21   -1    0    0  502  503 -0.00000000000E+00 -0.00000000000E+00 -0.52135365838E+02  0.52135365838E+02  0.00000000000E+00 0.  1.
          2    1    1    2  501    0  0.14597123539E+02 -0.25854587187E+02  0.34855366508E+02  0.45786813262E+02  0.00000000000E+00 0. -1.
         -2    1    1    2    0  503 -0.14597123539E+02  0.25854587187E+02 -0.41947430935E+02  0.51391853988E+02  0.00000000000E+00 0.  1.
<mgrwt>
<rscale>  2 0.29690667E+02</rscale>
<asrwt>0</asrwt>
<pdfrwt beam="1">  1       21 0.69297386E-02 0.29690667E+02</pdfrwt>
<pdfrwt beam="2">  1       21 0.80208255E-02 0.29690667E+02</pdfrwt>
<totfact> 0.14906806E+07</totfact>
</mgrwt>
</event>
<event>
 4    1  0.2769537E+004  0.2353176E+02  0.7546771E-02  0.1683033E+00
         21   -1    0    0  501  502  0.00000000000E+00  0.00000000000E+00  0.73884541877E+01  0.73884541877E+01  0.00000000000E+00 0. -1.
         21   -1    0    0  502  503 -0.00000000000E+00 -0.00000000000E+00 -0.91785113506E+02  0.91785113506E+02  0.00000000000E+00 0.  1.
          2    1    1    2  501    0  0.11988174645E+02  0.20249128318E+02 -0.20959787881E+02  0.31512794814E+02  0.00000000000E+00 0. -1.
         -2    1    1    2    0  503 -0.11988174645E+02 -0.20249128318E+02 -0.63436871437E+02  0.67660772880E+02  0.00000000000E+00 0.  1.
<mgrwt>
<rscale>  2 0.23531756E+02</rscale>
<asrwt>0</asrwt>
<pdfrwt beam="1">  1       21 0.11366853E-02 0.23531756E+02</pdfrwt>
<pdfrwt beam="2">  1       21 0.14120786E-01 0.23531756E+02</pdfrwt>
<totfact> 0.92984829E+07</totfact>
</mgrwt>
</event>
<event>
 4    1  0.2769537E+004  0.2203253E+02  0.7546771E-02  0.1707690E+00
         21   -1    0    0  503  502  0.00000000000E+00  0.00000000000E+00  0.11514123056E+02  0.11514123056E+02  0.00000000000E+00 0. -1.
         21   -1    0    0  501  503 -0.00000000000E+00 -0.00000000000E+00 -0.65614591086E+02  0.65614591086E+02  0.00000000000E+00 0.  1.
          2    1    1    2  501    0  0.92046120789E+01 -0.20017674277E+02 -0.50107214768E+02  0.54737237223E+02  0.00000000000E+00 0.  1.
         -2    1    1    2    0  502 -0.92046120789E+01  0.20017674277E+02 -0.39932532617E+01  0.22391476919E+02  0.00000000000E+00 0. -1.
<mgrwt>
<rscale>  2 0.22032525E+02</rscale>
<asrwt>0</asrwt>
<pdfrwt beam="1">  1       21 0.17714036E-02 0.22032525E+02</pdfrwt>
<pdfrwt beam="2">  1       21 0.10094552E-01 0.22032525E+02</pdfrwt>
<totfact> 0.81678012E+07</totfact>
</mgrwt>
</event>
<event>
 4    1  0.2769537E+004  0.4809764E+02  0.7546771E-02  0.1455881E+00
         21   -1    0    0  501  502  0.00000000000E+00  0.00000000000E+00  0.49615018928E+01  0.49615018928E+01  0.00000000000E+00 0. -1.
         21   -1    0    0  502  503 -0.00000000000E+00 -0.00000000000E+00 -0.68677584717E+03  0.68677584717E+03  0.00000000000E+00 0.  1.
          2    1    1    2  501    0  0.79992924035E+01  0.47427777849E+02 -0.14492476349E+03  0.15269764197E+03  0.00000000000E+00 0. -1.
         -2    1    1    2    0  503 -0.79992924035E+01 -0.47427777849E+02 -0.53688958179E+03  0.53903970709E+03  0.00000000000E+00 0.  1.
<mgrwt>
<rscale>  2 0.48097638E+02</rscale>
<asrwt>0</asrwt>
<pdfrwt beam="1">  1       21 0.76330796E-03 0.48097638E+02</pdfrwt>
<pdfrwt beam="2">  1       21 0.10565783E+00 0.48097638E+02</pdfrwt>
<totfact> 0.39288069E+06</totfact>
</mgrwt>
</event>
<event>
 4    1  0.2769537E+004  0.2110266E+02  0.7546771E-02  0.1724250E+00
         21   -1    0    0  503  502  0.00000000000E+00  0.00000000000E+00  0.62194365590E+01  0.62194365590E+01  0.00000000000E+00 0.  1.
         21   -1    0    0  501  503 -0.00000000000E+00 -0.00000000000E+00 -0.81181940773E+02  0.81181940773E+02  0.00000000000E+00 0. -1.
          2    1    1    2  501    0  0.28259254698E+01  0.20912590468E+02 -0.52493528244E+02  0.56576433277E+02  0.00000000000E+00 0.  1.
         -2    1    1    2    0  502 -0.28259254698E+01 -0.20912590468E+02 -0.22468975970E+02  0.30824944055E+02  0.00000000000E+00 0. -1.
<mgrwt>
<rscale>  2 0.21102661E+02</rscale>
<asrwt>0</asrwt>
<pdfrwt beam="1">  1       21 0.95683643E-03 0.21102661E+02</pdfrwt>
<pdfrwt beam="2">  1       21 0.12489529E-01 0.21102661E+02</pdfrwt>
<totfact> 0.14351507E+08</totfact>
</mgrwt>
</event>
<event>
 4    1  0.2769537E+004  0.2177258E+02  0.7546771E-02  0.1712215E+00
         21   -1    0    0  503  502  0.00000000000E+00  0.00000000000E+00  0.74821363734E+03  0.74821363734E+03  0.00000000000E+00 0.  1.
         21   -1    0    0  501  503 -0.00000000000E+00 -0.00000000000E+00 -0.32857538728E+01  0.32857538728E+01  0.00000000000E+00 0. -1.
          2    1    1    2  501    0 -0.17174809251E+02  0.13381749774E+02  0.34879064362E+02  0.41116838771E+02  0.00000000000E+00 0. -1.
         -2    1    1    2    0  502  0.17174809251E+02 -0.13381749774E+02  0.71004881911E+03  0.71038255244E+03  0.00000000000E+00 0.  1.
<mgrwt>
<rscale>  2 0.21772581E+02</rscale>
<asrwt>0</asrwt>
<pdfrwt beam="1">  1       21 0.11510965E+00 0.21772581E+02</pdfrwt>
<pdfrwt beam="2">  1       21 0.50550119E-03 0.21772581E+02</pdfrwt>
<totfact> 0.55241010E+06</totfact>
</mgrwt>
</event>
<event>
 4    1  0.2769537E+004  0.2059800E+02  0.7546771E-02  0.1733691E+00
         21   -1    0    0  503  502  0.00000000000E+00  0.00000000000E+00  0.14745189844E+02  0.14745189844E+02  0.00000000000E+00 0. -1.
         21   -1    0    0  501  503 -0.00000000000E+00 -0.00000000000E+00 -0.13601410011E+03  0.13601410011E+03  0.00000000000E+00 0.  1.
          2    1    1    2  501    0  0.60170890065E+01 -0.19699547445E+02 -0.12756753422E+03  0.12921978686E+03  0.00000000000E+00 0.  1.
         -2    1    1    2    0  502 -0.60170890065E+01  0.19699547445E+02  0.62986239550E+01  0.21539503090E+02  0.00000000000E+00 0. -1.
<mgrwt>
<rscale>  2 0.20597998E+02</rscale>
<asrwt>0</asrwt>
<pdfrwt beam="1">  1       21 0.22684908E-02 0.20597998E+02</pdfrwt>
<pdfrwt beam="2">  1       21 0.20925246E-01 0.20597998E+02</pdfrwt>
<totfact> 0.15997951E+07</totfact>
</mgrwt>
</event>
<event>
 4    1  0.2769537E+004  0.2110732E+02  0.7546771E-02  0.1724164E+00
         21   -1    0    0  503  502  0.00000000000E+00  0.00000000000E+00  0.22145949783E+02  0.22145949783E+02  0.00000000000E+00 0. -1.
         21   -1    0    0  501  503 -0.00000000000E+00 -0.00000000000E+00 -0.31329542810E+02  0.31329542810E+02  0.00000000000E+00 0.  1.
          2    1    1    2  501    0  0.19075938557E+02  0.90348027744E+01 -0.20587079849E+02  0.29484690090E+02  0.00000000000E+00 0.  1.
         -2    1    1    2    0  502 -0.19075938557E+02 -0.90348027744E+01  0.11403486822E+02  0.23990802502E+02  0.00000000000E+00 0. -1.
<mgrwt>
<rscale>  2 0.21107323E+02</rscale>
<asrwt>0</asrwt>
<pdfrwt beam="1">  1       21 0.34070692E-02 0.21107323E+02</pdfrwt>
<pdfrwt beam="2">  1       21 0.48199297E-02 0.21107323E+02</pdfrwt>
<totfact> 0.97159655E+07</totfact>
</mgrwt>
</event>
<event>
 4    1  0.2769537E+004  0.3564572E+02  0.7546771E-02  0.1542940E+00
         21   -1    0    0  503  502  0.00000000000E+00  0.00000000000E+00  0.13286123052E+02  0.13286123052E+02  0.00000000000E+00 0.  1.
         21   -1    0    0  501  503 -0.00000000000E+00 -0.00000000000E+00 -0.14042733443E+03  0.14042733443E+03  0.00000000000E+00 0. -1.
          2    1    1    2  501    0  0.35577129276E+02  0.22102952368E+01 -0.10697745129E+03  0.11275988922E+03  0.00000000000E+00 0. -1.
         -2    1    1    2    0  502 -0.35577129276E+02 -0.22102952368E+01 -0.20163760090E+02  0.40953568263E+02  0.00000000000E+00 0.  1.
<mgrwt>
<rscale>  2 0.35645722E+02</rscale>
<asrwt>0</asrwt>
<pdfrwt beam="1">  1       21 0.20440188E-02 0.35645722E+02</pdfrwt>
<pdfrwt beam="2">  1       21 0.21604206E-01 0.35645722E+02</pdfrwt>
<totfact> 0.19739478E+07</totfact>
</mgrwt>
</event>
<event>
 4    1  0.2769537E+004  0.2949032E+02  0.7546771E-02  0.1603792E+00
         21   -1    0    0  501  502  0.00000000000E+00  0.00000000000E+00  0.79313768116E+02  0.79313768116E+02  0.00000000000E+00 0. -1.
         21   -1    0    0  502  503 -0.00000000000E+00 -0.00000000000E+00 -0.11070201602E+02  0.11070201602E+02  0.00000000000E+00 0.  1.
          2    1    1    2  501    0  0.25738662308E+02  0.14394448482E+02  0.38526377235E+02  0.48517632128E+02  0.00000000000E+00 0. -1.
         -2    1    1    2    0  503 -0.25738662308E+02 -0.14394448482E+02  0.29717189279E+02  0.41866337589E+02  0.00000000000E+00 0.  1.
<mgrwt>
<rscale>  2 0.29490318E+02</rscale>
<asrwt>0</asrwt>
<pdfrwt beam="1">  1       21 0.12202118E-01 0.29490318E+02</pdfrwt>
<pdfrwt beam="2">  1       21 0.17031080E-02 0.29490318E+02</pdfrwt>
<totfact> 0.68093213E+07</totfact>
</mgrwt>
</event>
<event>
 4    1  0.2769537E+004  0.3831172E+02  0.7546771E-02  0.1521016E+00
         21   -1    0    0  503  502  0.00000000000E+00  0.00000000000E+00  0.24136761697E+02  0.24136761697E+02  0.00000000000E+00 0.  1.
         21   -1    0    0  501  503 -0.00000000000E+00 -0.00000000000E+00 -0.88781618960E+02  0.88781618960E+02  0.00000000000E+00 0. -1.
          2    1    1    2  501    0  0.18544200805E+02 -0.33524626712E+02 -0.64012395521E+02  0.74601439396E+02  0.00000000000E+00 0. -1.
         -2    1    1    2    0  502 -0.18544200805E+02  0.33524626712E+02 -0.63246174172E+00  0.38316941261E+02  0.00000000000E+00 0.  1.
<mgrwt>
<rscale>  2 0.38311721E+02</rscale>
<asrwt>0</asrwt>
<pdfrwt beam="1">  1       21 0.37133480E-02 0.38311721E+02</pdfrwt>
<pdfrwt beam="2">  1       21 0.13658710E-01 0.38311721E+02</pdfrwt>
<totfact> 0.17394937E+07</totfact>
</mgrwt>
</event>
<event>
 4    1  0.2769537E+004  0.4136288E+02  0.7546771E-02  0.1498415E+00
         21   -1    0    0  501  502  0.00000000000E+00  0.00000000000E+00  0.21366649564E+02  0.21366649564E+02  0.00000000000E+00 0.  1.
         21   -1    0    0  502  503 -0.00000000000E+00 -0.00000000000E+00 -0.23862266989E+03  0.23862266989E+03  0.00000000000E+00 0. -1.
          2    1    1    2  501    0 -0.23976679004E+02 -0.33704696918E+02 -0.26654143859E+01  0.41448669029E+02  0.00000000000E+00 0.  1.
         -2    1    1    2    0  503  0.23976679004E+02  0.33704696918E+02 -0.21459060594E+03  0.21854065042E+03  0.00000000000E+00 0. -1.
<mgrwt>
<rscale>  2 0.41362879E+02</rscale>
<asrwt>0</asrwt>
<pdfrwt beam="1">  1       21 0.32871770E-02 0.41362879E+02</pdfrwt>
<pdfrwt beam="2">  1       21 0.36711178E-01 0.41362879E+02</pdfrwt>
<totfact> 0.35767298E+06</totfact>
</mgrwt>
</event>
<event>
 4    1  0.2769537E+004  0.2476041E+02  0.7546771E-02  0.1664467E+00
         21   -1    0    0  503  502  0.00000000000E+00  0.00000000000E+00  0.17589783838E+03  0.17589783838E+03  0.00000000000E+00 0. -1.
         21   -1    0    0  501  503 -0.00000000000E+00 -0.00000000000E+00 -0.34858546880E+01  0.34858546880E+01  0.00000000000E+00 0.  1.
          2    1    1    2  501    0 -0.23776502613E+02  0.69105670143E+01  0.85205516734E+02  0.88730254676E+02  0.00000000000E+00 0. -1.
         -2    1    1    2    0  502  0.23776502613E+02 -0.69105670143E+01  0.87206466957E+02  0.90653438391E+02  0.00000000000E+00 0.  1.
<mgrwt>
<rscale>  2 0.24760412E+02</rscale>
<asrwt>0</asrwt>
<pdfrwt beam="1">  1       21 0.27061199E-01 0.24760412E+02</pdfrwt>
<pdfrwt beam="2">  1       21 0.53628547E-03 0.24760412E+02</pdfrwt>
<totfact> 0.93010259E+07</totfact>
</mgrwt>
</event>
<event>
 4    1  0.2769537E+004  0.2683977E+02  0.7546771E-02  0.1635901E+00
         21   -1    0    0  501  502  0.00000000000E+00  0.00000000000E+00  0.30765454958E+02  0.30765454958E+02  0.00000000000E+00 0. -1.
         21   -1    0    0  502  503 -0.00000000000E+00 -0.00000000000E+00 -0.40059111238E+02  0.40059111238E+02  0.00000000000E+00 0.  1.
          2    1    1    2  501    0 -0.24499259362E+02 -0.10961741220E+02  0.18179361873E+02  0.32417012169E+02  0.00000000000E+00 0. -1.
         -2    1    1    2    0  503  0.24499259362E+02  0.10961741220E+02 -0.27473018153E+02  0.38407554026E+02  0.00000000000E+00 0.  1.
<mgrwt>
<rscale>  2 0.26839774E+02</rscale>
<asrwt>0</asrwt>
<pdfrwt beam="1">  1       21 0.47331469E-02 0.26839774E+02</pdfrwt>
<pdfrwt beam="2">  1       21 0.61629402E-02 0.26839774E+02</pdfrwt>
<totfact> 0.41558239E+07</totfact>
</mgrwt>
</event>
<event>
 4    1  0.2769537E+004  0.2344600E+02  0.7546771E-02  0.1684381E+00
         21   -1    0    0  501  502  0.00000000000E+00  0.00000000000E+00  0.83938389297E+02  0.83938389297E+02  0.00000000000E+00 0. -1.
         21   -1    0    0  502  503 -0.00000000000E+00 -0.00000000000E+00 -0.26419852900E+02  0.26419852900E+02  0.00000000000E+00 0.  1.
          2    1    1    2  501    0  0.17294607167E+02 -0.15830714023E+02  0.76613188135E+02  0.80120506362E+02  0.00000000000E+00 0. -1.
         -2    1    1    2    0  503 -0.17294607167E+02  0.15830714023E+02 -0.19094651737E+02  0.30237735836E+02  0.00000000000E+00 0.  1.
<mgrwt>
<rscale>  2 0.23446001E+02</rscale>
<asrwt>0</asrwt>
<pdfrwt beam="1">  1       21 0.12913598E-01 0.23446001E+02</pdfrwt>
<pdfrwt beam="2">  1       21 0.40645928E-02 0.23446001E+02</pdfrwt>
<totfact> 0.15172153E+07</totfact>
</mgrwt>
</event>
<event>
 4    1  0.2769537E+004  0.2736671E+02  0.7546771E-02  0.1629164E+00
         21   -1    0    0  501  502  0.00000000000E+00  0.00000000000E+00  0.27862492106E+01  0.27862492106E+01  0.00000000000E+00 0. -1.
         21   -1    0    0  502  503 -0.00000000000E+00 -0.00000000000E+00 -0.36555188502E+03  0.36555188502E+03  0.00000000000E+00 0.  1.
          2    1    1    2  501    0 -0.12941421321E+02  0.24113403912E+02 -0.86633159187E+02  0.90852853035E+02  0.00000000000E+00 0. -1.
         -2    1    1    2    0  503  0.12941421321E+02 -0.24113403912E+02 -0.27613247662E+03  0.27748528120E+03  0.00000000000E+00 0.  1.
<mgrwt>
<rscale>  2 0.27366707E+02</rscale>
<asrwt>0</asrwt>
<pdfrwt beam="1">  1       21 0.42865384E-03 0.27366707E+02</pdfrwt>
<pdfrwt beam="2">  1       21 0.56238737E-01 0.27366707E+02</pdfrwt>
<totfact> 0.33214938E+07</totfact>
</mgrwt>
</event>
<event>
 4    1  0.2769537E+004  0.2599666E+02  0.7546771E-02  0.1647086E+00
         21   -1    0    0  503  502  0.00000000000E+00  0.00000000000E+00  0.24426147576E+02  0.24426147576E+02  0.00000000000E+00 0.  1.
         21   -1    0    0  501  503 -0.00000000000E+00 -0.00000000000E+00 -0.56279446454E+02  0.56279446454E+02  0.00000000000E+00 0. -1.
          2    1    1    2  501    0  0.24356057164E+02  0.90889411671E+01 -0.44698479408E+02  0.51708610825E+02  0.00000000000E+00 0. -1.
         -2    1    1    2    0  502 -0.24356057164E+02 -0.90889411671E+01  0.12845180530E+02  0.28996983205E+02  0.00000000000E+00 0.  1.
<mgrwt>
<rscale>  2 0.25996661E+02</rscale>
<asrwt>0</asrwt>
<pdfrwt beam="1">  1       21 0.37578689E-02 0.25996661E+02</pdfrwt>
<pdfrwt beam="2">  1       21 0.86583764E-02 0.25996661E+02</pdfrwt>
<totfact> 0.34167632E+07</totfact>
</mgrwt>
</event>
<event>
 4    1  0.2769537E+004  0.2279283E+02  0.7546771E-02  0.1694890E+00
         21   -1    0    0  501  502  0.00000000000E+00  0.00000000000E+00  0.11399851180E+03  0.11399851180E+03  0.00000000000E+00 0.  1.
         21   -1    0    0  502  503 -0.00000000000E+00 -0.00000000000E+00 -0.45962161037E+01  0.45962161037E+01  0.00000000000E+00 0. -1.
          2    1    1    2  501    0  0.20305535154E+02  0.10353673592E+02  0.60164905728E+02  0.64337618824E+02  0.00000000000E+00 0. -1.
         -2    1    1    2    0  503 -0.20305535154E+02 -0.10353673592E+02  0.49237389968E+02  0.54257109079E+02  0.00000000000E+00 0.  1.
<mgrwt>
<rscale>  2 0.22792835E+02</rscale>
<asrwt>0</asrwt>
<pdfrwt beam="1">  1       21 0.17538230E-01 0.22792835E+02</pdfrwt>
<pdfrwt beam="2">  1       21 0.70711026E-03 0.22792835E+02</pdfrwt>
<totfact> 0.12952397E+08</totfact>
</mgrwt>
</event>
<event>
 4    1  0.2769537E+004  0.2385807E+02  0.7546771E-02  0.1677967E+00
         21   -1    0    0  503  502  0.00000000000E+00  0.00000000000E+00  0.23405892128E+03  0.23405892128E+03  0.00000000000E+00 0. -1.
         21   -1    0    0  501  503 -0.00000000000E+00 -0.00000000000E+00 -0.13008569109E+02  0.13008569109E+02  0.00000000000E+00 0.  1.
          2    1    1    2  501    0 -0.55332433175E+01  0.23207561698E+02 -0.86459703226E+00  0.23873735141E+02  0.00000000000E+00 0.  1.
         -2    1    1    2    0  502  0.55332433175E+01 -0.23207561698E+02  0.22191494921E+03  0.22319375525E+03  0.00000000000E+00 0. -1.
<mgrwt>
<rscale>  2 0.23858074E+02</rscale>
<asrwt>0</asrwt>
<pdfrwt beam="1">  1       21 0.36009062E-01 0.23858074E+02</pdfrwt>
<pdfrwt beam="2">  1       21 0.20013185E-02 0.23858074E+02</pdfrwt>
<totfact> 0.75129736E+06</totfact>
</mgrwt>
</event>
<event>
 4    1  0.2769537E+004  0.2013129E+02  0.7546771E-02  0.1742730E+00
         21   -1    0    0  501  502  0.00000000000E+00  0.00000000000E+00  0.67888743682E+02  0.67888743682E+02  0.00000000000E+00 0. -1.
         21   -1    0    0  502  503 -0.00000000000E+00 -0.00000000000E+00 -0.61055042915E+01  0.61055042915E+01  0.00000000000E+00 0.  1.
          2    1    1    2  501    0 -0.19393273478E+02 -0.54009030913E+01  0.36411375576E+02  0.41605974111E+02  0.00000000000E+00 0. -1.
         -2    1    1    2    0  503  0.19393273478E+02  0.54009030913E+01  0.25371863815E+02  0.32388273863E+02  0.00000000000E+00 0.  1.
<mgrwt>
<rscale>  2 0.20131289E+02</rscale>
<asrwt>0</asrwt>
<pdfrwt beam="1">  1       21 0.10444422E-01 0.20131289E+02</pdfrwt>
<pdfrwt beam="2">  1       21 0.93930840E-03 0.20131289E+02</pdfrwt>
<totfact> 0.19566189E+08</totfact>
</mgrwt>
</event>
<event>
 4    1  0.2769537E+004  0.3861590E+02  0.7546771E-02  0.1518651E+00
         21   -1    0    0  503  502  0.00000000000E+00  0.00000000000E+00  0.27533778404E+03  0.27533778404E+03  0.00000000000E+00 0. -1.
         21   -1    0    0  501  503 -0.00000000000E+00 -0.00000000000E+00 -0.56596909359E+01  0.56596909359E+01  0.00000000000E+00 0.  1.
          2    1    1    2  501    0  0.36507911913E+02  0.12584108031E+02  0.10567607765E+03  0.11251053637E+03  0.00000000000E+00 0.  1.
         -2    1    1    2    0  502 -0.36507911913E+02 -0.12584108031E+02  0.16400201545E+03  0.16848693860E+03  0.00000000000E+00 0. -1.
<mgrwt>
<rscale>  2 0.38615896E+02</rscale>
<asrwt>0</asrwt>
<pdfrwt beam="1">  1       21 0.42359649E-01 0.38615896E+02</pdfrwt>
<pdfrwt beam="2">  1       21 0.87072190E-03 0.38615896E+02</pdfrwt>
<totfact> 0.21276095E+07</totfact>
</mgrwt>
</event>
<event>
 4    1  0.2769537E+004  0.2095465E+02  0.7546771E-02  0.1726984E+00
         21   -1    0    0  503  502  0.00000000000E+00  0.00000000000E+00  0.76840606901E+01  0.76840606901E+01  0.00000000000E+00 0. -1.
         21   -1    0    0  501  503 -0.00000000000E+00 -0.00000000000E+00 -0.13851377595E+03  0.13851377595E+03  0.00000000000E+00 0.  1.
          2    1    1    2  501    0  0.12424642174E+02 -0.16873818398E+02 -0.12144170615E+03  0.12323629934E+03  0.00000000000E+00 0.  1.
         -2    1    1    2    0  502 -0.12424642174E+02  0.16873818398E+02 -0.93880091105E+01  0.22961537308E+02  0.00000000000E+00 0. -1.
<mgrwt>
<rscale>  2 0.20954653E+02</rscale>
<asrwt>0</asrwt>
<pdfrwt beam="1">  1       21 0.11821632E-02 0.20954653E+02</pdfrwt>
<pdfrwt beam="2">  1       21 0.21309811E-01 0.20954653E+02</pdfrwt>
<totfact> 0.41868510E+07</totfact>
</mgrwt>
</event>
<event>
 4    1  0.2769537E+004  0.3540223E+02  0.7546771E-02  0.1545057E+00
         21   -1    0    0  501  502  0.00000000000E+00  0.00000000000E+00  0.42794692245E+00  0.42794692245E+00  0.00000000000E+00 0.  1.
         21   -1    0    0  502  503 -0.00000000000E+00 -0.00000000000E+00 -0.31288025648E+04  0.31288025648E+04  0.00000000000E+00 0. -1.
          2    1    1    2  501    0 -0.31031434924E+02  0.17040180270E+02 -0.11684825094E+04  0.11690186878E+04  0.00000000000E+00 0. -1.
         -2    1    1    2    0  503  0.31031434924E+02 -0.17040180270E+02 -0.19598921085E+04  0.19602118239E+04  0.00000000000E+00 0.  1.
<mgrwt>
<rscale>  2 0.35402227E+02</rscale>
<asrwt>0</asrwt>
<pdfrwt beam="1">  1       21 0.65836476E-04 0.35402227E+02</pdfrwt>
<pdfrwt beam="2">  1       21 0.48136530E+00 0.35402227E+02</pdfrwt>
<totfact> 0.84189194E+05</totfact>
</mgrwt>
</event>
<event>
 4    1  0.2769537E+004  0.2092638E+02  0.7546771E-02  0.1727510E+00
         21   -1    0    0  501  502  0.00000000000E+00  0.00000000000E+00  0.16383281192E+01  0.16383281192E+01  0.00000000000E+00 0. -1.
         21   -1    0    0  502  503 -0.00000000000E+00 -0.00000000000E+00 -0.37799735533E+03  0.37799735533E+03  0.00000000000E+00 0.  1.
          2    1    1    2  501    0  0.20223672034E+01 -0.20828430038E+02 -0.85454736222E+02  0.87979687484E+02  0.00000000000E+00 0. -1.
         -2    1    1    2    0  503 -0.20223672034E+01  0.20828430038E+02 -0.29090429099E+03  0.29165599597E+03  0.00000000000E+00 0.  1.
<mgrwt>
<rscale>  2 0.20926382E+02</rscale>
<asrwt>0</asrwt>
<pdfrwt beam="1">  1       21 0.25205012E-03 0.20926382E+02</pdfrwt>
<pdfrwt beam="2">  1       21 0.58153522E-01 0.20926382E+02</pdfrwt>
<totfact> 0.63613486E+07</totfact>
</mgrwt>
</event>
<event>
 4    1  0.2769537E+004  0.3119329E+02  0.7546771E-02  0.1585261E+00
         21   -1    0    0  501  502  0.00000000000E+00  0.00000000000E+00  0.97086704262E+01  0.97086704262E+01  0.00000000000E+00 0.  1.
         21   -1    0    0  502  503 -0.00000000000E+00 -0.00000000000E+00 -0.10065018156E+03  0.10065018156E+03  0.00000000000E+00 0. -1.
          2    1    1    2  501    0  0.19146617717E+02  0.24625771126E+02 -0.41871395086E+02  0.52213363232E+02  0.00000000000E+00 0.  1.
         -2    1    1    2    0  503 -0.19146617717E+02 -0.24625771126E+02 -0.49070116051E+02  0.58145488758E+02  0.00000000000E+00 0. -1.
<mgrwt>
<rscale>  2 0.31193294E+02</rscale>
<asrwt>0</asrwt>
<pdfrwt beam="1">  1       21 0.14936418E-02 0.31193294E+02</pdfrwt>
<pdfrwt beam="2">  1       21 0.15484642E-01 0.31193294E+02</pdfrwt>
<totfact> 0.56122891E+07</totfact>
</mgrwt>
</event>
<event>
 4    1  0.2769537E+004  0.3078272E+02  0.7546771E-02  0.1589594E+00
         21   -1    0    0  501  502  0.00000000000E+00  0.00000000000E+00  0.47245457518E+03  0.47245457518E+03  0.00000000000E+00 0. -1.
         21   -1    0    0  502  503 -0.00000000000E+00 -0.00000000000E+00 -0.36201234163E+01  0.36201234163E+01  0.00000000000E+00 0.  1.
          2    1    1    2  501    0  0.20116570818E+02 -0.23300204971E+02  0.39338152187E+03  0.39458408194E+03  0.00000000000E+00 0. -1.
         -2    1    1    2    0  503 -0.20116570818E+02  0.23300204971E+02  0.75452929895E+02  0.81490616656E+02  0.00000000000E+00 0.  1.
<mgrwt>
<rscale>  2 0.30782722E+02</rscale>
<asrwt>0</asrwt>
<pdfrwt beam="1">  1       21 0.72685271E-01 0.30782722E+02</pdfrwt>
<pdfrwt beam="2">  1       21 0.55694244E-03 0.30782722E+02</pdfrwt>
<totfact> 0.13615965E+07</totfact>
</mgrwt>
</event>
<event>
 4    1  0.2769537E+004  0.2082997E+02  0.7546771E-02  0.1729310E+00
         21   -1    0    0  503  502  0.00000000000E+00  0.00000000000E+00  0.43903757101E+01  0.43903757101E+01  0.00000000000E+00 0. -1.
         21   -1    0    0  501  503 -0.00000000000E+00 -0.00000000000E+00 -0.12756082522E+03  0.12756082522E+03  0.00000000000E+00 0.  1.
          2    1    1    2  501    0 -0.20598357434E+02 -0.30976382403E+01 -0.92897985558E+02  0.95204639658E+02  0.00000000000E+00 0.  1.
         -2    1    1    2    0  502  0.20598357434E+02  0.30976382403E+01 -0.30272463955E+02  0.36746561276E+02  0.00000000000E+00 0. -1.
<mgrwt>
<rscale>  2 0.20829971E+02</rscale>
<asrwt>0</asrwt>
<pdfrwt beam="1">  1       21 0.67544244E-03 0.20829971E+02</pdfrwt>
<pdfrwt beam="2">  1       21 0.19624742E-01 0.20829971E+02</pdfrwt>
<totfact> 0.11123194E+08</totfact>
</mgrwt>
</event>
<event>
 4    1  0.2769537E+004  0.2506758E+02  0.7546771E-02  0.1660033E+00
         21   -1    0    0  501  502  0.00000000000E+00  0.00000000000E+00  0.13463115191E+01  0.13463115191E+01  0.00000000000E+00 0.  1.
         21   -1    0    0  502  503 -0.00000000000E+00 -0.00000000000E+00 -0.81669627278E+03  0.81669627278E+03  0.00000000000E+00 0. -1.
          2    1    1    2  501    0  0.17435346265E+02  0.18010896285E+02 -0.13993104550E+03  0.14215864792E+03  0.00000000000E+00 0.  1.
         -2    1    1    2    0  503 -0.17435346265E+02 -0.18010896285E+02 -0.67541891576E+03  0.67588393638E+03  0.00000000000E+00 0. -1.
<mgrwt>
<rscale>  2 0.25067582E+02</rscale>
<asrwt>0</asrwt>
<pdfrwt beam="1">  1       21 0.20712514E-03 0.25067582E+02</pdfrwt>
<pdfrwt beam="2">  1       21 0.12564541E+00 0.25067582E+02</pdfrwt>
<totfact> 0.17038164E+07</totfact>
</mgrwt>
</event>
<event>
 4    1  0.2769537E+004  0.2319281E+02  0.7546771E-02  0.1688404E+00
         21   -1    0    0  501  502  0.00000000000E+00  0.00000000000E+00  0.51457483496E+01  0.51457483496E+01  0.00000000000E+00 0. -1.
         21   -1    0    0  502  503 -0.00000000000E+00 -0.00000000000E+00 -0.12394041094E+03  0.12394041094E+03  0.00000000000E+00 0.  1.
          2    1    1    2  501    0  0.15256047948E+02 -0.17468819868E+02 -0.33857758035E+02  0.41039669172E+02  0.00000000000E+00 0. -1.
         -2    1    1    2    0  503 -0.15256047948E+02  0.17468819868E+02 -0.84936904551E+02  0.88046490114E+02  0.00000000000E+00 0.  1.
<mgrwt>
<rscale>  2 0.23192815E+02</rscale>
<asrwt>0</asrwt>
<pdfrwt beam="1">  1       21 0.79165357E-03 0.23192815E+02</pdfrwt>
<pdfrwt beam="2">  1       21 0.19067756E-01 0.23192815E+02</pdfrwt>
<totfact> 0.95179403E+07</totfact>
</mgrwt>
</event>
<event>
 4    1  0.2769537E+004  0.2286354E+02  0.7546771E-02  0.1693732E+00
         21   -1    0    0  503  502  0.00000000000E+00  0.00000000000E+00  0.68101552349E+01  0.68101552349E+01  0.00000000000E+00 0.  1.
         21   -1    0    0  501  503 -0.00000000000E+00 -0.00000000000E+00 -0.76770122573E+02  0.76770122573E+02  0.00000000000E+00 0. -1.
          2    1    1    2  501    0 -0.13237866865E+02 -0.18641357424E+02 -0.35480934904E+02  0.42209454716E+02  0.00000000000E+00 0.  1.
         -2    1    1    2    0  502  0.13237866865E+02  0.18641357424E+02 -0.34479032434E+02  0.41370823092E+02  0.00000000000E+00 0. -1.
<mgrwt>
<rscale>  2 0.22863537E+02</rscale>
<asrwt>0</asrwt>
<pdfrwt beam="1">  1       21 0.10477162E-02 0.22863537E+02</pdfrwt>
<pdfrwt beam="2">  1       21 0.11810788E-01 0.22863537E+02</pdfrwt>
<totfact> 0.14085959E+08</totfact>
</mgrwt>
</event>
<event>
 4    1  0.2769537E+004  0.9228059E+02  0.7546771E-02  0.1297421E+00
         21   -1    0    0  501  502  0.00000000000E+00  0.00000000000E+00  0.83048764652E+03  0.83048764652E+03  0.00000000000E+00 0.  1.
         21   -1    0    0  502  503 -0.00000000000E+00 -0.00000000000E+00 -0.14404682527E+02  0.14404682527E+02  0.00000000000E+00 0. -1.
          2    1    1    2  501    0 -0.60887117862E+02 -0.69343108565E+02  0.63481188457E+03  0.64148408914E+03  0.00000000000E+00 0. -1.
         -2    1    1    2    0  503  0.60887117862E+02  0.69343108565E+02  0.18127107942E+03  0.20340823991E+03  0.00000000000E+00 0.  1.
<mgrwt>
<rscale>  2 0.92280593E+02</rscale>
<asrwt>0</asrwt>
<pdfrwt beam="1">  1       21 0.12776729E+00 0.92280593E+02</pdfrwt>
<pdfrwt beam="2">  1       21 0.22161057E-02 0.92280593E+02</pdfrwt>
<totfact> 0.48091435E+05</totfact>
</mgrwt>
</event>
<event>
 4    1  0.2769537E+004  0.3114979E+02  0.7546771E-02  0.1585716E+00
         21   -1    0    0  501  502  0.00000000000E+00  0.00000000000E+00  0.16802243532E+03  0.16802243532E+03  0.00000000000E+00 0.  1.
         21   -1    0    0  502  503 -0.00000000000E+00 -0.00000000000E+00 -0.90988860082E+01  0.90988860082E+01  0.00000000000E+00 0. -1.
          2    1    1    2  501    0 -0.31145717712E+02  0.50344246305E+00  0.13298936823E+03  0.13658873031E+03  0.00000000000E+00 0.  1.
         -2    1    1    2    0  503  0.31145717712E+02 -0.50344246305E+00  0.25934181082E+02  0.40532591016E+02  0.00000000000E+00 0. -1.
<mgrwt>
<rscale>  2 0.31149786E+02</rscale>
<asrwt>0</asrwt>
<pdfrwt beam="1">  1       21 0.25849603E-01 0.31149786E+02</pdfrwt>
<pdfrwt beam="2">  1       21 0.13998287E-02 0.31149786E+02</pdfrwt>
<totfact> 0.25051977E+07</totfact>
</mgrwt>
</event>
<event>
 4    1  0.2769537E+004  0.2050670E+02  0.7546771E-02  0.1735435E+00
         21   -1    0    0  503  502  0.00000000000E+00  0.00000000000E+00  0.10445013834E+02  0.10445013834E+02  0.00000000000E+00 0. -1.
         21   -1    0    0  501  503 -0.00000000000E+00 -0.00000000000E+00 -0.46468173047E+02  0.46468173047E+02  0.00000000000E+00 0.  1.
          2    1    1    2  501    0  0.17109219377E+02 -0.11304846170E+02 -0.28412169115E+02  0.35039638817E+02  0.00000000000E+00 0.  1.
         -2    1    1    2    0  502 -0.17109219377E+02  0.11304846170E+02 -0.76109900983E+01  0.21873548064E+02  0.00000000000E+00 0. -1.
<mgrwt>
<rscale>  2 0.20506705E+02</rscale>
<asrwt>0</asrwt>
<pdfrwt beam="1">  1       21 0.16069252E-02 0.20506705E+02</pdfrwt>
<pdfrwt beam="2">  1       21 0.71489499E-02 0.20506705E+02</pdfrwt>
<totfact> 0.16287373E+08</totfact>
</mgrwt>
</event>
<event>
 4    1  0.2769537E+004  0.2081907E+02  0.7546771E-02  0.1729514E+00
         21   -1    0    0  501  502  0.00000000000E+00  0.00000000000E+00  0.11008701576E+02  0.11008701576E+02  0.00000000000E+00 0. -1.
         21   -1    0    0  502  503 -0.00000000000E+00 -0.00000000000E+00 -0.13666521601E+03  0.13666521601E+03  0.00000000000E+00 0.  1.
          2    1    1    2  501    0 -0.63946668678E+01  0.19812671146E+02 -0.52851268276E+00  0.20825777967E+02  0.00000000000E+00 0. -1.
         -2    1    1    2    0  503  0.63946668678E+01 -0.19812671146E+02 -0.12512800175E+03  0.12684813962E+03  0.00000000000E+00 0.  1.
<mgrwt>
<rscale>  2 0.20819071E+02</rscale>
<asrwt>0</asrwt>
<pdfrwt beam="1">  1       21 0.16936464E-02 0.20819071E+02</pdfrwt>
<pdfrwt beam="2">  1       21 0.21025418E-01 0.20819071E+02</pdfrwt>
<totfact> 0.24849182E+07</totfact>
</mgrwt>
</event>
<event>
 4    1  0.2769537E+004  0.2367570E+02  0.7546771E-02  0.1680786E+00
         21   -1    0    0  501  502  0.00000000000E+00  0.00000000000E+00  0.43973811157E+01  0.43973811157E+01  0.00000000000E+00 0.  1.
         21   -1    0    0  502  503 -0.00000000000E+00 -0.00000000000E+00 -0.15880507842E+03  0.15880507842E+03  0.00000000000E+00 0. -1.
          2    1    1    2  501    0  0.19927109645E+02 -0.12784713687E+02 -0.40956777618E+02  0.47307464904E+02  0.00000000000E+00 0.  1.
         -2    1    1    2    0  503 -0.19927109645E+02  0.12784713687E+02 -0.11345091968E+03  0.11589499463E+03  0.00000000000E+00 0. -1.
<mgrwt>
<rscale>  2 0.23675696E+02</rscale>
<asrwt>0</asrwt>
<pdfrwt beam="1">  1       21 0.67652032E-03 0.23675696E+02</pdfrwt>
<pdfrwt beam="2">  1       21 0.24431545E-01 0.23675696E+02</pdfrwt>
<totfact> 0.78217653E+07</totfact>
</mgrwt>
</event>
<event>
 4    1  0.2769537E+004  0.2249861E+02  0.7546771E-02  0.1699769E+00
         21   -1    0    0  503  502  0.00000000000E+00  0.00000000000E+00  0.22370735582E+02  0.22370735582E+02  0.00000000000E+00 0.  1.
         21   -1    0    0  501  503 -0.00000000000E+00 -0.00000000000E+00 -0.24920142153E+02  0.24920142153E+02  0.00000000000E+00 0. -1.
          2    1    1    2  501    0  0.86516336430E+00 -0.22481970879E+02 -0.84471431816E+01  0.24032098330E+02  0.00000000000E+00 0. -1.
         -2    1    1    2    0  502 -0.86516336430E+00  0.22481970879E+02  0.58977366107E+01  0.23258779404E+02  0.00000000000E+00 0.  1.
<mgrwt>
<rscale>  2 0.22498612E+02</rscale>
<asrwt>0</asrwt>
<pdfrwt beam="1">  1       21 0.34416516E-02 0.22498612E+02</pdfrwt>
<pdfrwt beam="2">  1       21 0.38338680E-02 0.22498612E+02</pdfrwt>
<totfact> 0.13986327E+08</totfact>
</mgrwt>
</event>
<event>
 4    1  0.2769537E+004  0.2500254E+02  0.7546771E-02  0.1660965E+00
         21   -1    0    0  501  502  0.00000000000E+00  0.00000000000E+00  0.93019576584E+00  0.93019576584E+00  0.00000000000E+00 0.  1.
         21   -1    0    0  502  503 -0.00000000000E+00 -0.00000000000E+00 -0.69468900175E+03  0.69468900175E+03  0.00000000000E+00 0. -1.
          2    1    1    2  501    0  0.24253709018E+02 -0.60732568905E+01 -0.28407492776E+03  0.28517309030E+03  0.00000000000E+00 0.  1.
         -2    1    1    2    0  503 -0.24253709018E+02  0.60732568905E+01 -0.40968387822E+03  0.41044610721E+03  0.00000000000E+00 0. -1.
<mgrwt>
<rscale>  2 0.25002537E+02</rscale>
<asrwt>0</asrwt>
<pdfrwt beam="1">  1       21 0.14310649E-03 0.25002537E+02</pdfrwt>
<pdfrwt beam="2">  1       21 0.10687564E+00 0.25002537E+02</pdfrwt>
<totfact> 0.41848159E+07</totfact>
</mgrwt>
</event>
<event>
 4    1  0.2769537E+004  0.2426227E+02  0.7546771E-02  0.1671830E+00
         21   -1    0    0  503  502  0.00000000000E+00  0.00000000000E+00  0.71794300255E+02  0.71794300255E+02  0.00000000000E+00 0. -1.
         21   -1    0    0  501  503 -0.00000000000E+00 -0.00000000000E+00 -0.10992629372E+02  0.10992629372E+02  0.00000000000E+00 0.  1.
          2    1    1    2  501    0 -0.19029059784E+02 -0.15051658700E+02  0.95344140475E+01  0.26068421454E+02  0.00000000000E+00 0.  1.
         -2    1    1    2    0  502  0.19029059784E+02  0.15051658700E+02  0.51267256835E+02  0.56718508172E+02  0.00000000000E+00 0. -1.
<mgrwt>
<rscale>  2 0.24262266E+02</rscale>
<asrwt>0</asrwt>
<pdfrwt beam="1">  1       21 0.11045277E-01 0.24262266E+02</pdfrwt>
<pdfrwt beam="2">  1       21 0.16911738E-02 0.24262266E+02</pdfrwt>
<totfact> 0.77533929E+07</totfact>
</mgrwt>
</event>
<event>
 4    1  0.2769537E+004  0.2368704E+02  0.7546771E-02  0.1680610E+00
         21   -1    0    0  501  502  0.00000000000E+00  0.00000000000E+00  0.98531558112E+00  0.98531558112E+00  0.00000000000E+00 0. -1.
         21   -1    0    0  502  503 -0.00000000000E+00 -0.00000000000E+00 -0.59174221339E+03  0.59174221339E+03  0.00000000000E+00 0.  1.
          2    1    1    2  501    0  0.23656503043E+02  0.12023026954E+01 -0.35291673027E+03  0.35371074930E+03  0.00000000000E+00 0.  1.
         -2    1    1    2    0  503 -0.23656503043E+02 -0.12023026954E+01 -0.23784016755E+03  0.23901677967E+03  0.00000000000E+00 0. -1.
<mgrwt>
<rscale>  2 0.23687036E+02</rscale>
<asrwt>0</asrwt>
<pdfrwt beam="1">  1       21 0.15158684E-03 0.23687036E+02</pdfrwt>
<pdfrwt beam="2">  1       21 0.91037368E-01 0.23687036E+02</pdfrwt>
<totfact> 0.54105405E+07</totfact>
</mgrwt>
</event>
<event>
 4    1  0.2769537E+004  0.2202991E+02  0.7546771E-02  0.1707735E+00
         21   -1    0    0  501  502  0.00000000000E+00  0.00000000000E+00  0.32039236320E+01  0.32039236320E+01  0.00000000000E+00 0. -1.
         21   -1    0    0  502  503 -0.00000000000E+00 -0.00000000000E+00 -0.23219065884E+03  0.23219065884E+03  0.00000000000E+00 0.  1.
          2    1    1    2  501    0  0.21504349332E+02 -0.47832996502E+01 -0.45099553662E+02  0.50192496812E+02  0.00000000000E+00 0. -1.
         -2    1    1    2    0  503 -0.21504349332E+02  0.47832996502E+01 -0.18388718154E+03  0.18520208566E+03  0.00000000000E+00 0.  1.
<mgrwt>
<rscale>  2 0.22029911E+02</rscale>
<asrwt>0</asrwt>
<pdfrwt beam="1">  1       21 0.49291127E-03 0.22029911E+02</pdfrwt>
<pdfrwt beam="2">  1       21 0.35721644E-01 0.22029911E+02</pdfrwt>
<totfact> 0.61540411E+07</totfact>
</mgrwt>
</event>
<event>
 4    1  0.2769537E+004  0.2182959E+02  0.7546771E-02  0.1711216E+00
         21   -1    0    0  501  502  0.00000000000E+00  0.00000000000E+00  0.66922558021E+01  0.66922558021E+01  0.00000000000E+00 0.  1.
         21   -1    0    0  502  503 -0.00000000000E+00 -0.00000000000E+00 -0.12212269417E+03  0.12212269417E+03  0.00000000000E+00 0. -1.
          2    1    1    2  501    0 -0.21818441537E+02  0.69753984145E+00 -0.16127338313E+02  0.27140781013E+02  0.00000000000E+00 0.  1.
         -2    1    1    2    0  503  0.21818441537E+02 -0.69753984145E+00 -0.99303100050E+02  0.10167416895E+03  0.00000000000E+00 0. -1.
<mgrwt>
<rscale>  2 0.21829589E+02</rscale>
<asrwt>0</asrwt>
<pdfrwt beam="1">  1       21 0.10295778E-02 0.21829589E+02</pdfrwt>
<pdfrwt beam="2">  1       21 0.18788107E-01 0.21829589E+02</pdfrwt>
<totfact> 0.64829995E+07</totfact>
</mgrwt>
</event>
<event>
 4    1  0.2769537E+004  0.3163091E+02  0.7546771E-02  0.1580731E+00
         21   -1    0    0  501  502  0.00000000000E+00  0.00000000000E+00  0.22268581357E+02  0.22268581357E+02  0.00000000000E+00 0. -1.
         21   -1    0    0  502  503 -0.00000000000E+00 -0.00000000000E+00 -0.59321485518E+02  0.59321485518E+02  0.00000000000E+00 0.  1.
          2    1    1    2  501    0 -0.31283097760E+02 -0.46778420485E+01  0.15673847111E+01  0.31669719078E+02  0.00000000000E+00 0. -1.
         -2    1    1    2    0  503  0.31283097760E+02  0.46778420485E+01 -0.38620288872E+02  0.49920347797E+02  0.00000000000E+00 0.  1.
<mgrwt>
<rscale>  2 0.31630909E+02</rscale>
<asrwt>0</asrwt>
<pdfrwt beam="1">  1       21 0.34259356E-02 0.31630909E+02</pdfrwt>
<pdfrwt beam="2">  1       21 0.91263824E-02 0.31630909E+02</pdfrwt>
<totfact> 0.37811274E+07</totfact>
</mgrwt>
</event>
<event>
 4    1  0.2769537E+004  0.2030767E+02  0.7546771E-02  0.1739278E+00
         21   -1    0    0  501  502  0.00000000000E+00  0.00000000000E+00  0.14935302162E+03  0.14935302162E+03  0.00000000000E+00 0. -1.
         21   -1    0    0  502  503 -0.00000000000E+00 -0.00000000000E+00 -0.94992861974E+01  0.94992861974E+01  0.00000000000E+00 0.  1.
          2    1    1    2  501    0  0.11502987454E+02  0.16735674695E+02  0.13682047395E+03  0.13831935374E+03  0.00000000000E+00 0. -1.
         -2    1    1    2    0  503 -0.11502987454E+02 -0.16735674695E+02  0.30332614724E+01  0.20532954075E+02  0.00000000000E+00 0.  1.
<mgrwt>
<rscale>  2 0.20307672E+02</rscale>
<asrwt>0</asrwt>
<pdfrwt beam="1">  1       21 0.22977386E-01 0.20307672E+02</pdfrwt>
<pdfrwt beam="2">  1       21 0.14614288E-02 0.20307672E+02</pdfrwt>
<totfact> 0.26445628E+07</totfact>
</mgrwt>
</event>
<event>
 4    1  0.2769537E+004  0.2010985E+02  0.7546771E-02  0.1743152E+00
         21   -1    0    0  501  502  0.00000000000E+00  0.00000000000E+00  0.22361789511E+01  0.22361789511E+01  0.00000000000E+00 0. -1.
         21   -1    0    0  502  503 -0.00000000000E+00 -0.00000000000E+00 -0.68975748375E+03  0.68975748375E+03  0.00000000000E+00 0.  1.
          2    1    1    2  501    0 -0.76209475392E+01  0.18609867371E+02 -0.46563490773E+02  0.50720456208E+02  0.00000000000E+00 0. -1.
         -2    1    1    2    0  503  0.76209475392E+01 -0.18609867371E+02 -0.64095781403E+03  0.64127320649E+03  0.00000000000E+00 0.  1.
<mgrwt>
<rscale>  2 0.20109848E+02</rscale>
<asrwt>0</asrwt>
<pdfrwt beam="1">  1       21 0.34402766E-03 0.20109848E+02</pdfrwt>
<pdfrwt beam="2">  1       21 0.10611650E+00 0.20109848E+02</pdfrwt>
<totfact> 0.11470509E+07</totfact>
</mgrwt>
</event>
<event>
 4    1  0.2769537E+004  0.2356111E+02  0.7546771E-02  0.1682573E+00
         21   -1    0    0  503  502  0.00000000000E+00  0.00000000000E+00  0.84237628625E+01  0.84237628625E+01  0.00000000000E+00 0.  1.
         21   -1    0    0  501  503 -0.00000000000E+00 -0.00000000000E+00 -0.17637140714E+03  0.17637140714E+03  0.00000000000E+00 0. -1.
          2    1    1    2  501    0 -0.69448120735E+01 -0.22514340659E+02 -0.15709976495E+03  0.15885673451E+03  0.00000000000E+00 0. -1.
         -2    1    1    2    0  502  0.69448120735E+01  0.22514340659E+02 -0.10847879322E+02  0.25938435493E+02  0.00000000000E+00 0.  1.
<mgrwt>
<rscale>  2 0.23561111E+02</rscale>
<asrwt>0</asrwt>
<pdfrwt beam="1">  1       21 0.12959635E-02 0.23561111E+02</pdfrwt>
<pdfrwt beam="2">  1       21 0.27134063E-01 0.23561111E+02</pdfrwt>
<totfact> 0.24408377E+07</totfact>
</mgrwt>
</event>
<event>
 4    1  0.2769537E+004  0.2591916E+02  0.7546771E-02  0.1648140E+00
         21   -1    0    0  503  502  0.00000000000E+00  0.00000000000E+00  0.49201965432E+02  0.49201965432E+02  0.00000000000E+00 0. -1.
         21   -1    0    0  501  503 -0.00000000000E+00 -0.00000000000E+00 -0.14198439385E+02  0.14198439385E+02  0.00000000000E+00 0.  1.
          2    1    1    2  501    0 -0.17244738205E+02 -0.19349981331E+02  0.23709359675E+02  0.35127432435E+02  0.00000000000E+00 0. -1.
         -2    1    1    2    0  502  0.17244738205E+02  0.19349981331E+02  0.11294166373E+02  0.28272972382E+02  0.00000000000E+00 0.  1.
<mgrwt>
<rscale>  2 0.25919158E+02</rscale>
<asrwt>0</asrwt>
<pdfrwt beam="1">  1       21 0.75695331E-02 0.25919158E+02</pdfrwt>
<pdfrwt beam="2">  1       21 0.21843753E-02 0.25919158E+02</pdfrwt>
<totfact> 0.99324192E+07</totfact>
</mgrwt>
</event>
<event>
 4    1  0.2769537E+004  0.9106788E+02  0.7546771E-02  0.1300286E+00
         21   -1    0    0  503  502  0.00000000000E+00  0.00000000000E+00  0.12784452896E+02  0.12784452896E+02  0.00000000000E+00 0. -1.
         21   -1    0    0  501  503 -0.00000000000E+00 -0.00000000000E+00 -0.11113082685E+04  0.11113082685E+04  0.00000000000E+00 0.  1.
          2    1    1    2  501    0 -0.31227802962E+02 -0.85546383682E+02 -0.91188749706E+03  0.91642357387E+03  0.00000000000E+00 0.  1.
         -2    1    1    2    0  502  0.31227802962E+02  0.85546383682E+02 -0.18663631858E+03  0.20766914757E+03  0.00000000000E+00 0. -1.
<mgrwt>
<rscale>  2 0.91067884E+02</rscale>
<asrwt>0</asrwt>
<pdfrwt beam="1">  1       21 0.19668384E-02 0.91067884E+02</pdfrwt>
<pdfrwt beam="2">  1       21 0.17097055E+00 0.91067884E+02</pdfrwt>
<totfact> 0.27747497E+05</totfact>
</mgrwt>
</event>
<event>
 4    1  0.2769537E+004  0.3353359E+02  0.7546771E-02  0.1562022E+00
         21   -1    0    0  501  502  0.00000000000E+00  0.00000000000E+00  0.40737792181E+02  0.40737792181E+02  0.00000000000E+00 0.  1.
         21   -1    0    0  502  503 -0.00000000000E+00 -0.00000000000E+00 -0.77488572882E+02  0.77488572882E+02  0.00000000000E+00 0. -1.
          2    1    1    2  501    0  0.32956028561E+02  0.61969245712E+01  0.29054403633E+02  0.44369584888E+02  0.00000000000E+00 0.  1.
         -2    1    1    2    0  503 -0.32956028561E+02 -0.61969245712E+01 -0.65805184334E+02  0.73856780175E+02  0.00000000000E+00 0. -1.
<mgrwt>
<rscale>  2 0.33533591E+02</rscale>
<asrwt>0</asrwt>
<pdfrwt beam="1">  1       21 0.62673527E-02 0.33533591E+02</pdfrwt>
<pdfrwt beam="2">  1       21 0.11921319E-01 0.33533591E+02</pdfrwt>
<totfact> 0.92329223E+06</totfact>
</mgrwt>
</event>
<event>
 4    1  0.2769537E+004  0.3055567E+02  0.7546771E-02  0.1592026E+00
         21   -1    0    0  501  502  0.00000000000E+00  0.00000000000E+00  0.63246187976E+03  0.63246187976E+03  0.00000000000E+00 0. -1.
         21   -1    0    0  502  503 -0.00000000000E+00 -0.00000000000E+00 -0.10422936926E+02  0.10422936926E+02  0.00000000000E+00 0.  1.
          2    1    1    2  501    0 -0.23487490832E+02  0.19544481164E+02  0.60883004745E+03  0.60959632187E+03  0.00000000000E+00 0. -1.
         -2    1    1    2    0  503  0.23487490832E+02 -0.19544481164E+02  0.13208895390E+02  0.33288494814E+02  0.00000000000E+00 0.  1.
<mgrwt>
<rscale>  2 0.30555670E+02</rscale>
<asrwt>0</asrwt>
<pdfrwt beam="1">  1       21 0.97301798E-01 0.30555670E+02</pdfrwt>
<pdfrwt beam="2">  1       21 0.16035292E-02 0.30555670E+02</pdfrwt>
<totfact> 0.14672667E+06</totfact>
</mgrwt>
</event>
<event>
 4    1  0.2769537E+004  0.5144711E+02  0.7546771E-02  0.1437689E+00
         21   -1    0    0  503  502  0.00000000000E+00  0.00000000000E+00  0.78498296259E+02  0.78498296259E+02  0.00000000000E+00 0.  1.
         21   -1    0    0  501  503 -0.00000000000E+00 -0.00000000000E+00 -0.34137559288E+02  0.34137559288E+02  0.00000000000E+00 0. -1.
          2    1    1    2  501    0  0.45613871564E+02 -0.23794532498E+02  0.28423901067E+02  0.58776893484E+02  0.00000000000E+00 0. -1.
         -2    1    1    2    0  502 -0.45613871564E+02  0.23794532498E+02  0.15936835904E+02  0.53858962063E+02  0.00000000000E+00 0.  1.
<mgrwt>
<rscale>  2 0.51447109E+02</rscale>
<asrwt>0</asrwt>
<pdfrwt beam="1">  1       21 0.12076661E-01 0.51447109E+02</pdfrwt>
<pdfrwt beam="2">  1       21 0.52519322E-02 0.51447109E+02</pdfrwt>
<totfact> 0.12790202E+07</totfact>
</mgrwt>
</event>
<event>
 4    1  0.2769537E+004  0.2183791E+02  0.7546771E-02  0.1711070E+00
         21   -1    0    0  503  502  0.00000000000E+00  0.00000000000E+00  0.30950052086E+01  0.30950052086E+01  0.00000000000E+00 0. -1.
         21   -1    0    0  501  503 -0.00000000000E+00 -0.00000000000E+00 -0.17775115564E+03  0.17775115564E+03  0.00000000000E+00 0.  1.
          2    1    1    2  501    0  0.78206965247E+01 -0.20389482233E+02 -0.12032213424E+03  0.12228781733E+03  0.00000000000E+00 0.  1.
         -2    1    1    2    0  502 -0.78206965247E+01  0.20389482233E+02 -0.54334016189E+02  0.58558343514E+02  0.00000000000E+00 0. -1.
<mgrwt>
<rscale>  2 0.21837909E+02</rscale>
<asrwt>0</asrwt>
<pdfrwt beam="1">  1       21 0.47615453E-03 0.21837909E+02</pdfrwt>
<pdfrwt beam="2">  1       21 0.27346338E-01 0.21837909E+02</pdfrwt>
<totfact> 0.10517361E+08</totfact>
</mgrwt>
</event>
<event>
 4    1  0.2769537E+004  0.2199173E+02  0.7546771E-02  0.1708395E+00
         21   -1    0    0  501  502  0.00000000000E+00  0.00000000000E+00  0.20918414898E+01  0.20918414898E+01  0.00000000000E+00 0. -1.
         21   -1    0    0  502  503 -0.00000000000E+00 -0.00000000000E+00 -0.46590213076E+03  0.46590213076E+03  0.00000000000E+00 0.  1.
          2    1    1    2  501    0  0.16322290850E+02  0.14738350512E+02 -0.65823984742E+02  0.69400526811E+02  0.00000000000E+00 0. -1.
         -2    1    1    2    0  503 -0.16322290850E+02 -0.14738350512E+02 -0.39798630453E+03  0.39859344544E+03  0.00000000000E+00 0.  1.
<mgrwt>
<rscale>  2 0.21991729E+02</rscale>
<asrwt>0</asrwt>
<pdfrwt beam="1">  1       21 0.32182160E-03 0.21991729E+02</pdfrwt>
<pdfrwt beam="2">  1       21 0.71677287E-01 0.21991729E+02</pdfrwt>
<totfact> 0.29601401E+07</totfact>
</mgrwt>
</event>
<event>
 4    1  0.2769537E+004  0.3886854E+02  0.7546771E-02  0.1516707E+00
         21   -1    0    0  503  502  0.00000000000E+00  0.00000000000E+00  0.44443976600E+03  0.44443976600E+03  0.00000000000E+00 0.  1.
         21   -1    0    0  501  503 -0.00000000000E+00 -0.00000000000E+00 -0.35215595484E+01  0.35215595484E+01  0.00000000000E+00 0. -1.
          2    1    1    2  501    0  0.37676327151E+02 -0.95529036900E+01  0.17871777062E+03  0.18289561266E+03  0.00000000000E+00 0. -1.
         -2    1    1    2    0  502 -0.37676327151E+02  0.95529036900E+01  0.26220043584E+03  0.26506571289E+03  0.00000000000E+00 0.  1.
<mgrwt>
<rscale>  2 0.38868543E+02</rscale>
<asrwt>0</asrwt>
<pdfrwt beam="1">  1       21 0.68375304E-01 0.38868543E+02</pdfrwt>
<pdfrwt beam="2">  1       21 0.54177874E-03 0.38868543E+02</pdfrwt>
<totfact> 0.16674361E+07</totfact>
</mgrwt>
</event>
<event>
 4    1  0.2769537E+004  0.2418681E+02  0.7546771E-02  0.1672964E+00
         21   -1    0    0  501  502  0.00000000000E+00  0.00000000000E+00  0.41836288489E+02  0.41836288489E+02  0.00000000000E+00 0.  1.
         21   -1    0    0  502  503 -0.00000000000E+00 -0.00000000000E+00 -0.21710228814E+02  0.21710228814E+02  0.00000000000E+00 0. -1.
          2    1    1    2  501    0 -0.11767816871E+02  0.21131026829E+02  0.29018654223E+02  0.37776766691E+02  0.00000000000E+00 0.  1.
         -2    1    1    2    0  503  0.11767816871E+02 -0.21131026829E+02 -0.88925945482E+01  0.25769750611E+02  0.00000000000E+00 0. -1.
<mgrwt>
<rscale>  2 0.24186811E+02</rscale>
<asrwt>0</asrwt>
<pdfrwt beam="1">  1       21 0.64363521E-02 0.24186811E+02</pdfrwt>
<pdfrwt beam="2">  1       21 0.33400352E-02 0.24186811E+02</pdfrwt>
<totfact> 0.65571769E+07</totfact>
</mgrwt>
</event>
<event>
 4    1  0.2769537E+004  0.2479948E+02  0.7546771E-02  0.1663899E+00
         21   -1    0    0  501  502  0.00000000000E+00  0.00000000000E+00  0.22876695692E+02  0.22876695692E+02  0.00000000000E+00 0. -1.
         21   -1    0    0  502  503 -0.00000000000E+00 -0.00000000000E+00 -0.29372171766E+02  0.29372171766E+02  0.00000000000E+00 0.  1.
          2    1    1    2  501    0 -0.23873426507E+02  0.67136803800E+01  0.43560643321E+01  0.25179144027E+02  0.00000000000E+00 0.  1.
         -2    1    1    2    0  503  0.23873426507E+02 -0.67136803800E+01 -0.10851540407E+02  0.27069723431E+02  0.00000000000E+00 0. -1.
<mgrwt>
<rscale>  2 0.24799476E+02</rscale>
<asrwt>0</asrwt>
<pdfrwt beam="1">  1       21 0.35194917E-02 0.24799476E+02</pdfrwt>
<pdfrwt beam="2">  1       21 0.45187956E-02 0.24799476E+02</pdfrwt>
<totfact> 0.10715975E+08</totfact>
</mgrwt>
</event>
<event>
 4    1  0.2769537E+004  0.3736044E+02  0.7546771E-02  0.1528586E+00
         21   -1    0    0  501  502  0.00000000000E+00  0.00000000000E+00  0.68769923435E+02  0.68769923435E+02  0.00000000000E+00 0.  1.
         21   -1    0    0  502  503 -0.00000000000E+00 -0.00000000000E+00 -0.49149185384E+02  0.49149185384E+02  0.00000000000E+00 0. -1.
          2    1    1    2  501    0 -0.35954725759E+02 -0.10151869743E+02  0.54984272251E+02  0.66476108179E+02  0.00000000000E+00 0.  1.
         -2    1    1    2    0  503  0.35954725759E+02  0.10151869743E+02 -0.35363534200E+02  0.51443000639E+02  0.00000000000E+00 0. -1.
<mgrwt>
<rscale>  2 0.37360444E+02</rscale>
<asrwt>0</asrwt>
<pdfrwt beam="1">  1       21 0.10579988E-01 0.37360444E+02</pdfrwt>
<pdfrwt beam="2">  1       21 0.75614131E-02 0.37360444E+02</pdfrwt>
<totfact> 0.84303555E+06</totfact>
</mgrwt>
</event>
<event>
 4    1  0.2769537E+004  0.2084027E+02  0.7546771E-02  0.1729117E+00
         21   -1    0    0  501  502  0.00000000000E+00  0.00000000000E+00  0.65431609982E+03  0.65431609982E+03  0.00000000000E+00 0. -1.
         21   -1    0    0  502  503 -0.00000000000E+00 -0.00000000000E+00 -0.72952108543E+00  0.72952108543E+00  0.00000000000E+00 0.  1.
          2    1    1    2  501    0 -0.15801071774E+02  0.13588334821E+02  0.42511908157E+03  0.42562959276E+03  0.00000000000E+00 0.  1.
         -2    1    1    2    0  503  0.15801071774E+02 -0.13588334821E+02  0.22846749716E+03  0.22941602815E+03  0.00000000000E+00 0. -1.
<mgrwt>
<rscale>  2 0.20840267E+02</rscale>
<asrwt>0</asrwt>
<pdfrwt beam="1">  1       21 0.10066355E+00 0.20840267E+02</pdfrwt>
<pdfrwt beam="2">  1       21 0.11223454E-03 0.20840267E+02</pdfrwt>
<totfact> 0.64951979E+07</totfact>
</mgrwt>
</event>
<event>
 4    1  0.2769537E+004  0.3915511E+02  0.7546771E-02  0.1514523E+00
         21   -1    0    0  501  502  0.00000000000E+00  0.00000000000E+00  0.46006922090E+03  0.46006922090E+03  0.00000000000E+00 0. -1.
         21   -1    0    0  502  503 -0.00000000000E+00 -0.00000000000E+00 -0.40615382771E+01  0.40615382771E+01  0.00000000000E+00 0.  1.
          2    1    1    2  501    0  0.38542130981E+02  0.69011944985E+01  0.32633202290E+03  0.32867265100E+03  0.00000000000E+00 0. -1.
         -2    1    1    2    0  503 -0.38542130981E+02 -0.69011944985E+01  0.12967565972E+03  0.13545810818E+03  0.00000000000E+00 0.  1.
<mgrwt>
<rscale>  2 0.39155106E+02</rscale>
<asrwt>0</asrwt>
<pdfrwt beam="1">  1       21 0.70779839E-01 0.39155106E+02</pdfrwt>
<pdfrwt beam="2">  1       21 0.62485241E-03 0.39155106E+02</pdfrwt>
<totfact> 0.12525398E+07</totfact>
</mgrwt>
</event>
<event>
 4    1  0.2769537E+004  0.2369749E+02  0.7546771E-02  0.1680447E+00
         21   -1    0    0  501  502  0.00000000000E+00  0.00000000000E+00  0.74542396320E+01  0.74542396320E+01  0.00000000000E+00 0.  1.
         21   -1    0    0  502  503 -0.00000000000E+00 -0.00000000000E+00 -0.19259437470E+03  0.19259437470E+03  0.00000000000E+00 0. -1.
          2    1    1    2  501    0  0.15805652362E+02 -0.17656510413E+02 -0.14523091102E+02  0.27793725582E+02  0.00000000000E+00 0.  1.
         -2    1    1    2    0  503 -0.15805652362E+02  0.17656510413E+02 -0.17061704397E+03  0.17225488875E+03  0.00000000000E+00 0. -1.
<mgrwt>
<rscale>  2 0.23697489E+02</rscale>
<asrwt>0</asrwt>
<pdfrwt beam="1">  1       21 0.11468061E-02 0.23697489E+02</pdfrwt>
<pdfrwt beam="2">  1       21 0.29629903E-01 0.23697489E+02</pdfrwt>
<totfact> 0.25073743E+07</totfact>
</mgrwt>
</event>
<event>
 4    1  0.2769537E+004  0.2058381E+02  0.7546771E-02  0.1733961E+00
         21   -1    0    0  503  502  0.00000000000E+00  0.00000000000E+00  0.35902793694E+02  0.35902793694E+02  0.00000000000E+00 0.  1.
         21   -1    0    0  501  503 -0.00000000000E+00 -0.00000000000E+00 -0.12297738587E+02  0.12297738587E+02  0.00000000000E+00 0. -1.
          2    1    1    2  501    0 -0.16446892761E+02 -0.12377111275E+02  0.69594565345E+01  0.21728488218E+02  0.00000000000E+00 0. -1.
         -2    1    1    2    0  502  0.16446892761E+02  0.12377111275E+02  0.16645598572E+02  0.26472044062E+02  0.00000000000E+00 0.  1.
<mgrwt>
<rscale>  2 0.20583808E+02</rscale>
<asrwt>0</asrwt>
<pdfrwt beam="1">  1       21 0.55235067E-02 0.20583808E+02</pdfrwt>
<pdfrwt beam="2">  1       21 0.18919598E-02 0.20583808E+02</pdfrwt>
<totfact> 0.19234034E+08</totfact>
</mgrwt>
</event>
<event>
 4    1  0.2769537E+004  0.2539883E+02  0.7546771E-02  0.1655339E+00
         21   -1    0    0  501  502  0.00000000000E+00  0.00000000000E+00  0.12378524199E+01  0.12378524199E+01  0.00000000000E+00 0. -1.
         21   -1    0    0  502  503 -0.00000000000E+00 -0.00000000000E+00 -0.59176878499E+03  0.59176878499E+03  0.00000000000E+00 0.  1.
          2    1    1    2  501    0 -0.25184063818E+02  0.32960023041E+01 -0.19283508886E+03  0.19450057120E+03  0.00000000000E+00 0. -1.
         -2    1    1    2    0  503  0.25184063818E+02 -0.32960023041E+01 -0.39769584371E+03  0.39850606621E+03  0.00000000000E+00 0.  1.
<mgrwt>
<rscale>  2 0.25398833E+02</rscale>
<asrwt>0</asrwt>
<pdfrwt beam="1">  1       21 0.19043903E-03 0.25398833E+02</pdfrwt>
<pdfrwt beam="2">  1       21 0.91041259E-01 0.25398833E+02</pdfrwt>
<totfact> 0.39507234E+07</totfact>
</mgrwt>
</event>
<event>
 4    1  0.2769537E+004  0.2315118E+02  0.7546771E-02  0.1689071E+00
         21   -1    0    0  503  502  0.00000000000E+00  0.00000000000E+00  0.28179443579E+02  0.28179443579E+02  0.00000000000E+00 0.  1.
         21   -1    0    0  501  503 -0.00000000000E+00 -0.00000000000E+00 -0.19140683793E+02  0.19140683793E+02  0.00000000000E+00 0. -1.
          2    1    1    2  501    0  0.19934999611E+02 -0.11771709362E+02  0.63969006875E+01  0.24018694577E+02  0.00000000000E+00 0.  1.
         -2    1    1    2    0  502 -0.19934999611E+02  0.11771709362E+02  0.26418590982E+01  0.23301432795E+02  0.00000000000E+00 0. -1.
<mgrwt>
<rscale>  2 0.23151185E+02</rscale>
<asrwt>0</asrwt>
<pdfrwt beam="1">  1       21 0.43352990E-02 0.23151185E+02</pdfrwt>
<pdfrwt beam="2">  1       21 0.29447206E-02 0.23151185E+02</pdfrwt>
<totfact> 0.14824986E+08</totfact>
</mgrwt>
</event>
<event>
 4    1  0.2769537E+004  0.2647499E+02  0.7546771E-02  0.1640677E+00
         21   -1    0    0  503  502  0.00000000000E+00  0.00000000000E+00  0.11749460081E+02  0.11749460081E+02  0.00000000000E+00 0. -1.
         21   -1    0    0  501  503 -0.00000000000E+00 -0.00000000000E+00 -0.65084881954E+02  0.65084881954E+02  0.00000000000E+00 0.  1.
          2    1    1    2  501    0  0.16830113520E+02 -0.20437035709E+02 -0.15572317639E+02  0.30715179087E+02  0.00000000000E+00 0.  1.
         -2    1    1    2    0  502 -0.16830113520E+02  0.20437035709E+02 -0.37763104234E+02  0.46119162948E+02  0.00000000000E+00 0. -1.
<mgrwt>
<rscale>  2 0.26474991E+02</rscale>
<asrwt>0</asrwt>
<pdfrwt beam="1">  1       21 0.18076092E-02 0.26474991E+02</pdfrwt>
<pdfrwt beam="2">  1       21 0.10013059E-01 0.26474991E+02</pdfrwt>
<totfact> 0.84305795E+07</totfact>
</mgrwt>
</event>
<event>
 4    1  0.2769537E+004  0.2038981E+02  0.7546771E-02  0.1737686E+00
         21   -1    0    0  503  502  0.00000000000E+00  0.00000000000E+00  0.32604053450E+03  0.32604053450E+03  0.00000000000E+00 0.  1.
         21   -1    0    0  501  503 -0.00000000000E+00 -0.00000000000E+00 -0.47223231389E+01  0.47223231389E+01  0.00000000000E+00 0. -1.
          2    1    1    2  501    0  0.18049477101E+02  0.94847592547E+01  0.19359270357E+02  0.28116287637E+02  0.00000000000E+00 0. -1.
         -2    1    1    2    0  502 -0.18049477101E+02 -0.94847592547E+01  0.30195894100E+03  0.30264657000E+03  0.00000000000E+00 0.  1.
<mgrwt>
<rscale>  2 0.20389808E+02</rscale>
<asrwt>0</asrwt>
<pdfrwt beam="1">  1       21 0.50160065E-01 0.20389808E+02</pdfrwt>
<pdfrwt beam="2">  1       21 0.72651151E-03 0.20389808E+02</pdfrwt>
<totfact> 0.17926233E+07</totfact>
</mgrwt>
</event>
<event>
 4    1  0.2769537E+004  0.2358902E+02  0.7546771E-02  0.1682136E+00
         21   -1    0    0  501  502  0.00000000000E+00  0.00000000000E+00  0.33219230568E+02  0.33219230568E+02  0.00000000000E+00 0. -1.
         21   -1    0    0  502  503 -0.00000000000E+00 -0.00000000000E+00 -0.30203228147E+02  0.30203228147E+02  0.00000000000E+00 0.  1.
          2    1    1    2  501    0  0.23266988484E+02 -0.38844841791E+01  0.22671623478E+02  0.32717647861E+02  0.00000000000E+00 0. -1.
         -2    1    1    2    0  503 -0.23266988484E+02  0.38844841791E+01 -0.19655621057E+02  0.30704810854E+02  0.00000000000E+00 0.  1.
<mgrwt>
<rscale>  2 0.23589022E+02</rscale>
<asrwt>0</asrwt>
<pdfrwt beam="1">  1       21 0.51106509E-02 0.23589022E+02</pdfrwt>
<pdfrwt beam="2">  1       21 0.46466505E-02 0.23589022E+02</pdfrwt>
<totfact> 0.56031007E+07</totfact>
</mgrwt>
</event>
<event>
 4    1  0.2769537E+004  0.2154643E+02  0.7546771E-02  0.1716216E+00
         21   -1    0    0  503  502  0.00000000000E+00  0.00000000000E+00  0.10478694304E+02  0.10478694304E+02  0.00000000000E+00 0. -1.
         21   -1    0    0  501  503 -0.00000000000E+00 -0.00000000000E+00 -0.11065533757E+03  0.11065533757E+03  0.00000000000E+00 0.  1.
          2    1    1    2  501    0  0.63017809115E+01  0.20604276778E+02 -0.96988516765E+02  0.99353012277E+02  0.00000000000E+00 0.  1.
         -2    1    1    2    0  502 -0.63017809115E+01 -0.20604276778E+02 -0.31881265034E+01  0.21781019599E+02  0.00000000000E+00 0. -1.
<mgrwt>
<rscale>  2 0.21546430E+02</rscale>
<asrwt>0</asrwt>
<pdfrwt beam="1">  1       21 0.16121067E-02 0.21546430E+02</pdfrwt>
<pdfrwt beam="2">  1       21 0.17023900E-01 0.21546430E+02</pdfrwt>
<totfact> 0.38910962E+07</totfact>
</mgrwt>
</event>
<event>
 4    1  0.2769537E+004  0.2014032E+02  0.7546771E-02  0.1742552E+00
         21   -1    0    0  501  502  0.00000000000E+00  0.00000000000E+00  0.25526063582E+00  0.25526063582E+00  0.00000000000E+00 0. -1.
         21   -1    0    0  502  503 -0.00000000000E+00 -0.00000000000E+00 -0.20061745238E+04  0.20061745238E+04  0.00000000000E+00 0.  1.
          2    1    1    2  501    0 -0.17347174682E+02  0.10232693141E+02 -0.54553354401E+03  0.54590519335E+03  0.00000000000E+00 0. -1.
         -2    1    1    2    0  503  0.17347174682E+02 -0.10232693141E+02 -0.14603857192E+04  0.14605245911E+04  0.00000000000E+00 0.  1.
<mgrwt>
<rscale>  2 0.20140320E+02</rscale>
<asrwt>0</asrwt>
<pdfrwt beam="1">  1       21 0.39269746E-04 0.20140320E+02</pdfrwt>
<pdfrwt beam="2">  1       21 0.30865104E+00 0.20140320E+02</pdfrwt>
<totfact> 0.16436068E+07</totfact>
</mgrwt>
</event>
<event>
 4    1  0.2769537E+004  0.2597272E+02  0.7546771E-02  0.1647411E+00
         21   -1    0    0  501  502  0.00000000000E+00  0.00000000000E+00  0.28900458068E+02  0.28900458068E+02  0.00000000000E+00 0. -1.
         21   -1    0    0  502  503 -0.00000000000E+00 -0.00000000000E+00 -0.48333666706E+02  0.48333666706E+02  0.00000000000E+00 0.  1.
          2    1    1    2  501    0 -0.17548993783E+01 -0.25913367596E+02  0.18052101550E+02  0.31630059474E+02  0.00000000000E+00 0. -1.
         -2    1    1    2    0  503  0.17548993783E+01  0.25913367596E+02 -0.37485310188E+02  0.45604065300E+02  0.00000000000E+00 0.  1.
<mgrwt>
<rscale>  2 0.25972722E+02</rscale>
<asrwt>0</asrwt>
<pdfrwt beam="1">  1       21 0.44462243E-02 0.25972722E+02</pdfrwt>
<pdfrwt beam="2">  1       21 0.74359487E-02 0.25972722E+02</pdfrwt>
<totfact> 0.33586318E+07</totfact>
</mgrwt>
</event>
<event>
 4    1  0.2769537E+004  0.2399619E+02  0.7546771E-02  0.1675853E+00
         21   -1    0    0  503  502  0.00000000000E+00  0.00000000000E+00  0.20819219664E+03  0.20819219664E+03  0.00000000000E+00 0. -1.
         21   -1    0    0  501  503 -0.00000000000E+00 -0.00000000000E+00 -0.27737679195E+01  0.27737679195E+01  0.00000000000E+00 0.  1.
          2    1    1    2  501    0 -0.50785353187E+01  0.23452625233E+02  0.97054275278E+02  0.99976744801E+02  0.00000000000E+00 0. -1.
         -2    1    1    2    0  502  0.50785353187E+01 -0.23452625233E+02  0.10836415344E+03  0.11098921976E+03  0.00000000000E+00 0.  1.
<mgrwt>
<rscale>  2 0.23996190E+02</rscale>
<asrwt>0</asrwt>
<pdfrwt beam="1">  1       21 0.32029557E-01 0.23996190E+02</pdfrwt>
<pdfrwt beam="2">  1       21 0.42673369E-03 0.23996190E+02</pdfrwt>
<totfact> 0.95124355E+07</totfact>
</mgrwt>
</event>
<event>
 4    1  0.2769537E+004  0.2372034E+02  0.7546771E-02  0.1680093E+00
         21   -1    0    0  503  502  0.00000000000E+00  0.00000000000E+00  0.62804341644E+01  0.62804341644E+01  0.00000000000E+00 0.  1.
         21   -1    0    0  501  503 -0.00000000000E+00 -0.00000000000E+00 -0.40541303518E+03  0.40541303518E+03  0.00000000000E+00 0. -1.
          2    1    1    2  501    0 -0.75269047608E+01  0.22494449866E+02 -0.38125088183E+03  0.38198807503E+03  0.00000000000E+00 0. -1.
         -2    1    1    2    0  502  0.75269047608E+01 -0.22494449866E+02 -0.17881719178E+02  0.29705394305E+02  0.00000000000E+00 0.  1.
<mgrwt>
<rscale>  2 0.23720341E+02</rscale>
<asrwt>0</asrwt>
<pdfrwt beam="1">  1       21 0.96622062E-03 0.23720341E+02</pdfrwt>
<pdfrwt beam="2">  1       21 0.62371237E-01 0.23720341E+02</pdfrwt>
<totfact> 0.78398705E+06</totfact>
</mgrwt>
</event>
<event>
 4    1  0.2769537E+004  0.2770533E+02  0.7546771E-02  0.1624932E+00
         21   -1    0    0  501  502  0.00000000000E+00  0.00000000000E+00  0.16884226238E+02  0.16884226238E+02  0.00000000000E+00 0.  1.
         21   -1    0    0  502  503 -0.00000000000E+00 -0.00000000000E+00 -0.45758677880E+02  0.45758677880E+02  0.00000000000E+00 0. -1.
          2    1    1    2  501    0 -0.16130244459E+02  0.22525555487E+02 -0.11913887377E+02  0.30158351227E+02  0.00000000000E+00 0.  1.
         -2    1    1    2    0  503  0.16130244459E+02 -0.22525555487E+02 -0.16960564265E+02  0.32484552890E+02  0.00000000000E+00 0. -1.
<mgrwt>
<rscale>  2 0.27705332E+02</rscale>
<asrwt>0</asrwt>
<pdfrwt beam="1">  1       21 0.25975733E-02 0.27705332E+02</pdfrwt>
<pdfrwt beam="2">  1       21 0.70397966E-02 0.27705332E+02</pdfrwt>
<totfact> 0.86935238E+07</totfact>
</mgrwt>
</event>
<event>
 4    1  0.2769537E+004  0.2579431E+02  0.7546771E-02  0.1649848E+00
         21   -1    0    0  503  502  0.00000000000E+00  0.00000000000E+00  0.23402508826E+03  0.23402508826E+03  0.00000000000E+00 0.  1.
         21   -1    0    0  501  503 -0.00000000000E+00 -0.00000000000E+00 -0.45049537177E+01  0.45049537177E+01  0.00000000000E+00 0. -1.
          2    1    1    2  501    0 -0.76694885484E+01 -0.24627736392E+02  0.42321466143E+02  0.49562616465E+02  0.00000000000E+00 0. -1.
         -2    1    1    2    0  502  0.76694885484E+01  0.24627736392E+02  0.18719866840E+03  0.18896742552E+03  0.00000000000E+00 0.  1.
<mgrwt>
<rscale>  2 0.25794311E+02</rscale>
<asrwt>0</asrwt>
<pdfrwt beam="1">  1       21 0.36003850E-01 0.25794311E+02</pdfrwt>
<pdfrwt beam="2">  1       21 0.69306999E-03 0.25794311E+02</pdfrwt>
<totfact> 0.37973826E+07</totfact>
</mgrwt>
</event>
<event>
 4    1  0.2769537E+004  0.2400057E+02  0.7546771E-02  0.1675786E+00
         21   -1    0    0  503  502  0.00000000000E+00  0.00000000000E+00  0.63044504332E+01  0.63044504332E+01  0.00000000000E+00 0. -1.
         21   -1    0    0  501  503 -0.00000000000E+00 -0.00000000000E+00 -0.15548362792E+03  0.15548362792E+03  0.00000000000E+00 0.  1.
          2    1    1    2  501    0  0.50897545011E+01  0.23454676112E+02 -0.12653591586E+03  0.12879194632E+03  0.00000000000E+00 0.  1.
         -2    1    1    2    0  502 -0.50897545011E+01 -0.23454676112E+02 -0.22643261618E+02  0.32996132032E+02  0.00000000000E+00 0. -1.
<mgrwt>
<rscale>  2 0.24000572E+02</rscale>
<asrwt>0</asrwt>
<pdfrwt beam="1">  1       21 0.96991539E-03 0.24000572E+02</pdfrwt>
<pdfrwt beam="2">  1       21 0.23920560E-01 0.24000572E+02</pdfrwt>
<totfact> 0.47557893E+07</totfact>
</mgrwt>
</event>
<event>
 4    1  0.2769537E+004  0.2316186E+02  0.7546771E-02  0.1688900E+00
         21   -1    0    0  503  502  0.00000000000E+00  0.00000000000E+00  0.23966431615E+02  0.23966431615E+02  0.00000000000E+00 0. -1.
         21   -1    0    0  501  503 -0.00000000000E+00 -0.00000000000E+00 -0.19106635742E+03  0.19106635742E+03  0.00000000000E+00 0.  1.
          2    1    1    2  501    0  0.22854926480E+02  0.37581917900E+01 -0.18457221165E+03  0.18601981879E+03  0.00000000000E+00 0.  1.
         -2    1    1    2    0  502 -0.22854926480E+02 -0.37581917900E+01  0.17472285843E+02  0.29012970246E+02  0.00000000000E+00 0. -1.
<mgrwt>
<rscale>  2 0.23161858E+02</rscale>
<asrwt>0</asrwt>
<pdfrwt beam="1">  1       21 0.36871434E-02 0.23161858E+02</pdfrwt>
<pdfrwt beam="2">  1       21 0.29394823E-01 0.23161858E+02</pdfrwt>
<totfact> 0.42032749E+06</totfact>
</mgrwt>
</event>
<event>
 4    1  0.2769537E+004  0.3739232E+02  0.7546771E-02  0.1528328E+00
         21   -1    0    0  501  502  0.00000000000E+00  0.00000000000E+00  0.56287835178E+03  0.56287835178E+03  0.00000000000E+00 0.  1.
         21   -1    0    0  502  503 -0.00000000000E+00 -0.00000000000E+00 -0.27449526120E+01  0.27449526120E+01  0.00000000000E+00 0. -1.
          2    1    1    2  501    0 -0.44292536357E+01  0.37129058905E+02  0.36726688007E+03  0.36916547306E+03  0.00000000000E+00 0.  1.
         -2    1    1    2    0  503  0.44292536357E+01 -0.37129058905E+02  0.19286651910E+03  0.19645783133E+03  0.00000000000E+00 0. -1.
<mgrwt>
<rscale>  2 0.37392316E+02</rscale>
<asrwt>0</asrwt>
<pdfrwt beam="1">  1       21 0.86596578E-01 0.37392316E+02</pdfrwt>
<pdfrwt beam="2">  1       21 0.42230085E-03 0.37392316E+02</pdfrwt>
<totfact> 0.14567238E+07</totfact>
</mgrwt>
</event>
<event>
 4    1  0.2769537E+004  0.3423344E+02  0.7546771E-02  0.1555515E+00
         21   -1    0    0  503  502  0.00000000000E+00  0.00000000000E+00  0.21292242520E+02  0.21292242520E+02  0.00000000000E+00 0. -1.
         21   -1    0    0  501  503 -0.00000000000E+00 -0.00000000000E+00 -0.13577306672E+03  0.13577306672E+03  0.00000000000E+00 0.  1.
          2    1    1    2  501    0 -0.75137861317E+01 -0.33398677190E+02 -0.11779802332E+03  0.12267152448E+03  0.00000000000E+00 0.  1.
         -2    1    1    2    0  502  0.75137861317E+01  0.33398677190E+02  0.33171991216E+01  0.34393784759E+02  0.00000000000E+00 0. -1.
<mgrwt>
<rscale>  2 0.34233443E+02</rscale>
<asrwt>0</asrwt>
<pdfrwt beam="1">  1       21 0.32757296E-02 0.34233443E+02</pdfrwt>
<pdfrwt beam="2">  1       21 0.20888164E-01 0.34233443E+02</pdfrwt>
<totfact> 0.99237211E+06</totfact>
</mgrwt>
</event>
<event>
 4    1  0.2769537E+004  0.2608188E+02  0.7546771E-02  0.1645932E+00
         21   -1    0    0  503  502  0.00000000000E+00  0.00000000000E+00  0.17146357269E+03  0.17146357269E+03  0.00000000000E+00 0.  1.
         21   -1    0    0  501  503 -0.00000000000E+00 -0.00000000000E+00 -0.51647339604E+01  0.51647339604E+01  0.00000000000E+00 0. -1.
          2    1    1    2  501    0  0.86261934428E+00  0.26067606296E+02  0.40627351955E+02  0.48278835291E+02  0.00000000000E+00 0. -1.
         -2    1    1    2    0  502 -0.86261934428E+00 -0.26067606296E+02  0.12567148678E+03  0.12834947136E+03  0.00000000000E+00 0.  1.
<mgrwt>
<rscale>  2 0.26081875E+02</rscale>
<asrwt>0</asrwt>
<pdfrwt beam="1">  1       21 0.26379007E-01 0.26081875E+02</pdfrwt>
<pdfrwt beam="2">  1       21 0.79457459E-03 0.26081875E+02</pdfrwt>
<totfact> 0.54898861E+07</totfact>
</mgrwt>
</event>
<event>
 4    1  0.2769537E+004  0.2041211E+02  0.7546771E-02  0.1737255E+00
         21   -1    0    0  503  502  0.00000000000E+00  0.00000000000E+00  0.66681359949E+02  0.66681359949E+02  0.00000000000E+00 0.  1.
         21   -1    0    0  501  503 -0.00000000000E+00 -0.00000000000E+00 -0.64092306258E+01  0.64092306258E+01  0.00000000000E+00 0. -1.
          2    1    1    2  501    0 -0.51309377487E+01 -0.19756715426E+02  0.24347619418E+02  0.31772014382E+02  0.00000000000E+00 0. -1.
         -2    1    1    2    0  502  0.51309377487E+01  0.19756715426E+02  0.35924509906E+02  0.41318576192E+02  0.00000000000E+00 0.  1.
<mgrwt>
<rscale>  2 0.20412112E+02</rscale>
<asrwt>0</asrwt>
<pdfrwt beam="1">  1       21 0.10258670E-01 0.20412112E+02</pdfrwt>
<pdfrwt beam="2">  1       21 0.98603553E-03 0.20412112E+02</pdfrwt>
<totfact> 0.18828526E+08</totfact>
</mgrwt>
</event>
<event>
 4    1  0.2769537E+004  0.2786871E+02  0.7546771E-02  0.1622917E+00
         21   -1    0    0  503  502  0.00000000000E+00  0.00000000000E+00  0.13511549126E+03  0.13511549126E+03  0.00000000000E+00 0.  1.
         21   -1    0    0  501  503 -0.00000000000E+00 -0.00000000000E+00 -0.10080443654E+02  0.10080443654E+02  0.00000000000E+00 0. -1.
          2    1    1    2  501    0 -0.52713755959E+01 -0.27365626368E+02  0.14924501295E+02  0.31613377644E+02  0.00000000000E+00 0. -1.
         -2    1    1    2    0  502  0.52713755959E+01  0.27365626368E+02  0.11011054631E+03  0.11358255727E+03  0.00000000000E+00 0.  1.
<mgrwt>
<rscale>  2 0.27868708E+02</rscale>
<asrwt>0</asrwt>
<pdfrwt beam="1">  1       21 0.20786997E-01 0.27868708E+02</pdfrwt>
<pdfrwt beam="2">  1       21 0.15508376E-02 0.27868708E+02</pdfrwt>
<totfact> 0.30932395E+07</totfact>
</mgrwt>
</event>
<event>
 4    1  0.2769537E+004  0.2237677E+02  0.7546771E-02  0.1701816E+00
         21   -1    0    0  503  502  0.00000000000E+00  0.00000000000E+00  0.46767014109E+00  0.46767014109E+00  0.00000000000E+00 0. -1.
         21   -1    0    0  501  503 -0.00000000000E+00 -0.00000000000E+00 -0.10788146096E+04  0.10788146096E+04  0.00000000000E+00 0.  1.
          2    1    1    2  501    0 -0.28130284658E+01 -0.22199248489E+02 -0.49228106140E+03  0.49278936999E+03  0.00000000000E+00 0. -1.
         -2    1    1    2    0  502  0.28130284658E+01  0.22199248489E+02 -0.58606587806E+03  0.58649290975E+03  0.00000000000E+00 0.  1.
<mgrwt>
<rscale>  2 0.22376768E+02</rscale>
<asrwt>0</asrwt>
<pdfrwt beam="1">  1       21 0.71949733E-04 0.22376768E+02</pdfrwt>
<pdfrwt beam="2">  1       21 0.16597037E+00 0.22376768E+02</pdfrwt>
<totfact> 0.39344574E+07</totfact>
</mgrwt>
</event>
<event>
 4    1  0.2769537E+004  0.2873538E+02  0.7546771E-02  0.1612503E+00
         21   -1    0    0  501  502  0.00000000000E+00  0.00000000000E+00  0.11491944969E+03  0.11491944969E+03  0.00000000000E+00 0. -1.
         21   -1    0    0  502  503 -0.00000000000E+00 -0.00000000000E+00 -0.72262972429E+01  0.72262972429E+01  0.00000000000E+00 0.  1.
          2    1    1    2  501    0 -0.14490696313E+02 -0.24814140085E+02  0.58451021442E+02  0.65132509052E+02  0.00000000000E+00 0. -1.
         -2    1    1    2    0  503  0.14490696313E+02  0.24814140085E+02  0.49242131008E+02  0.57013237884E+02  0.00000000000E+00 0.  1.
<mgrwt>
<rscale>  2 0.28735376E+02</rscale>
<asrwt>0</asrwt>
<pdfrwt beam="1">  1       21 0.17679914E-01 0.28735376E+02</pdfrwt>
<pdfrwt beam="2">  1       21 0.11117381E-02 0.28735376E+02</pdfrwt>
<totfact> 0.68724749E+07</totfact>
</mgrwt>
</event>
<event>
 4    1  0.2769537E+004  0.2048057E+02  0.7546771E-02  0.1735937E+00
         21   -1    0    0  501  502  0.00000000000E+00  0.00000000000E+00  0.61940517837E+00  0.61940517837E+00  0.00000000000E+00 0.  1.
         21   -1    0    0  502  503 -0.00000000000E+00 -0.00000000000E+00 -0.67820560492E+03  0.67820560492E+03  0.00000000000E+00 0. -1.
          2    1    1    2  501    0  0.60559677751E+00  0.20471618526E+02 -0.32564744887E+03  0.32629084398E+03  0.00000000000E+00 0.  1.
         -2    1    1    2    0  503 -0.60559677751E+00 -0.20471618526E+02 -0.35193875087E+03  0.35253416612E+03  0.00000000000E+00 0. -1.
<mgrwt>
<rscale>  2 0.20480574E+02</rscale>
<asrwt>0</asrwt>
<pdfrwt beam="1">  1       21 0.95293122E-04 0.20480574E+02</pdfrwt>
<pdfrwt beam="2">  1       21 0.10433930E+00 0.20480574E+02</pdfrwt>
<totfact> 0.75424303E+07</totfact>
</mgrwt>
</event>
<event>
 4    1  0.2769537E+004  0.2850568E+02  0.7546771E-02  0.1615219E+00
         21   -1    0    0  503  502  0.00000000000E+00  0.00000000000E+00  0.12406461645E+03  0.12406461645E+03  0.00000000000E+00 0.  1.
         21   -1    0    0  501  503 -0.00000000000E+00 -0.00000000000E+00 -0.89408913934E+01  0.89408913934E+01  0.00000000000E+00 0. -1.
          2    1    1    2  501    0 -0.65317415024E+01  0.27747257092E+02  0.23169243983E+02  0.36734014073E+02  0.00000000000E+00 0. -1.
         -2    1    1    2    0  502  0.65317415024E+01 -0.27747257092E+02  0.91954481073E+02  0.96271493770E+02  0.00000000000E+00 0.  1.
<mgrwt>
<rscale>  2 0.28505682E+02</rscale>
<asrwt>0</asrwt>
<pdfrwt beam="1">  1       21 0.19086863E-01 0.28505682E+02</pdfrwt>
<pdfrwt beam="2">  1       21 0.13755218E-02 0.28505682E+02</pdfrwt>
<totfact> 0.43393411E+07</totfact>
</mgrwt>
</event>
<event>
 4    1  0.2769537E+004  0.2040293E+02  0.7546771E-02  0.1737432E+00
         21   -1    0    0  503  502  0.00000000000E+00  0.00000000000E+00  0.45988891955E+00  0.45988891955E+00  0.00000000000E+00 0. -1.
         21   -1    0    0  501  503 -0.00000000000E+00 -0.00000000000E+00 -0.15271875765E+04  0.15271875765E+04  0.00000000000E+00 0.  1.
          2    1    1    2  501    0 -0.91674586924E+01  0.18227381274E+02 -0.12508325169E+04  0.12509989069E+04  0.00000000000E+00 0.  1.
         -2    1    1    2    0  502  0.91674586924E+01 -0.18227381274E+02 -0.27589517070E+03  0.27664855854E+03  0.00000000000E+00 0. -1.
<mgrwt>
<rscale>  2 0.20402934E+02</rscale>
<asrwt>0</asrwt>
<pdfrwt beam="1">  1       21 0.70751252E-04 0.20402934E+02</pdfrwt>
<pdfrwt beam="2">  1       21 0.23495489E+00 0.20402934E+02</pdfrwt>
<totfact> 0.16326059E+07</totfact>
</mgrwt>
</event>
<event>
 4    1  0.2769537E+004  0.2766502E+02  0.7546771E-02  0.1625432E+00
         21   -1    0    0  501  502  0.00000000000E+00  0.00000000000E+00  0.82205877737E+02  0.82205877737E+02  0.00000000000E+00 0. -1.
         21   -1    0    0  502  503 -0.00000000000E+00 -0.00000000000E+00 -0.61307331351E+03  0.61307331351E+03  0.00000000000E+00 0.  1.
          2    1    1    2  501    0 -0.19418243033E+02 -0.19704947698E+02  0.79556132631E+02  0.84229041105E+02  0.00000000000E+00 0. -1.
         -2    1    1    2    0  503  0.19418243033E+02  0.19704947698E+02 -0.61042356841E+03  0.61105015015E+03  0.00000000000E+00 0.  1.
<mgrwt>
<rscale>  2 0.27665016E+02</rscale>
<asrwt>0</asrwt>
<pdfrwt beam="1">  1       21 0.12647058E-01 0.27665016E+02</pdfrwt>
<pdfrwt beam="2">  1       21 0.94318971E-01 0.27665016E+02</pdfrwt>
<totfact> 0.57076175E+04</totfact>
</mgrwt>
</event>
<event>
 4    1  0.2769537E+004  0.2190740E+02  0.7546771E-02  0.1709858E+00
         21   -1    0    0  501  502  0.00000000000E+00  0.00000000000E+00  0.44203440911E+03  0.44203440911E+03  0.00000000000E+00 0.  1.
         21   -1    0    0  502  503 -0.00000000000E+00 -0.00000000000E+00 -0.16584208237E+01  0.16584208237E+01  0.00000000000E+00 0. -1.
          2    1    1    2  501    0  0.17781498111E+02  0.12796576924E+02  0.35055319949E+03  0.35123707055E+03  0.00000000000E+00 0. -1.
         -2    1    1    2    0  503 -0.17781498111E+02 -0.12796576924E+02  0.89822788799E+02  0.92455759386E+02  0.00000000000E+00 0.  1.
<mgrwt>
<rscale>  2 0.21907397E+02</rscale>
<asrwt>0</asrwt>
<pdfrwt beam="1">  1       21 0.68005200E-01 0.21907397E+02</pdfrwt>
<pdfrwt beam="2">  1       21 0.25514202E-03 0.21907397E+02</pdfrwt>
<totfact> 0.46151624E+07</totfact>
</mgrwt>
</event>
<event>
 4    1  0.2769537E+004  0.2306703E+02  0.7546771E-02  0.1690426E+00
         21   -1    0    0  501  502  0.00000000000E+00  0.00000000000E+00  0.61461729603E+03  0.61461729603E+03  0.00000000000E+00 0. -1.
         21   -1    0    0  502  503 -0.00000000000E+00 -0.00000000000E+00 -0.25116640901E+01  0.25116640901E+01  0.00000000000E+00 0.  1.
          2    1    1    2  501    0 -0.15977481859E+02 -0.16637549529E+02  0.55584127666E+03  0.55631970379E+03  0.00000000000E+00 0. -1.
         -2    1    1    2    0  503  0.15977481859E+02  0.16637549529E+02  0.56264355273E+02  0.60809256328E+02  0.00000000000E+00 0.  1.
<mgrwt>
<rscale>  2 0.23067032E+02</rscale>
<asrwt>0</asrwt>
<pdfrwt beam="1">  1       21 0.94556387E-01 0.23067032E+02</pdfrwt>
<pdfrwt beam="2">  1       21 0.38641035E-03 0.23067032E+02</pdfrwt>
<totfact> 0.12758838E+07</totfact>
</mgrwt>
</event>
<event>
 4    1  0.2769537E+004  0.2214211E+02  0.7546771E-02  0.1705806E+00
         21   -1    0    0  503  502  0.00000000000E+00  0.00000000000E+00  0.18073318502E+01  0.18073318502E+01  0.00000000000E+00 0.  1.
         21   -1    0    0  501  503 -0.00000000000E+00 -0.00000000000E+00 -0.29461079871E+03  0.29461079871E+03  0.00000000000E+00 0. -1.
          2    1    1    2  501    0 -0.21063828064E+02 -0.68255593594E+01 -0.18811916363E+03  0.18941777329E+03  0.00000000000E+00 0. -1.
         -2    1    1    2    0  502  0.21063828064E+02  0.68255593594E+01 -0.10468430323E+03  0.10700035727E+03  0.00000000000E+00 0.  1.
<mgrwt>
<rscale>  2 0.22142112E+02</rscale>
<asrwt>0</asrwt>
<pdfrwt beam="1">  1       21 0.27805057E-03 0.22142112E+02</pdfrwt>
<pdfrwt beam="2">  1       21 0.45324816E-01 0.22142112E+02</pdfrwt>
<totfact> 0.90917215E+07</totfact>
</mgrwt>
</event>
<event>
 4    1  0.2769537E+004  0.2140347E+02  0.7546771E-02  0.1718778E+00
         21   -1    0    0  503  502  0.00000000000E+00  0.00000000000E+00  0.98768367944E+01  0.98768367944E+01  0.00000000000E+00 0. -1.
         21   -1    0    0  501  503 -0.00000000000E+00 -0.00000000000E+00 -0.58982721325E+02  0.58982721325E+02  0.00000000000E+00 0.  1.
          2    1    1    2  501    0 -0.11015955089E+02  0.18350943390E+02 -0.40466522066E+02  0.45778245903E+02  0.00000000000E+00 0.  1.
         -2    1    1    2    0  502  0.11015955089E+02 -0.18350943390E+02 -0.86393624647E+01  0.23081312216E+02  0.00000000000E+00 0. -1.
<mgrwt>
<rscale>  2 0.21403467E+02</rscale>
<asrwt>0</asrwt>
<pdfrwt beam="1">  1       21 0.15195133E-02 0.21403467E+02</pdfrwt>
<pdfrwt beam="2">  1       21 0.90742649E-02 0.21403467E+02</pdfrwt>
<totfact> 0.12188694E+08</totfact>
</mgrwt>
</event>
<event>
 4    1  0.2769537E+004  0.2281357E+02  0.7546771E-02  0.1694550E+00
         21   -1    0    0  503  502  0.00000000000E+00  0.00000000000E+00  0.24812325528E+02  0.24812325528E+02  0.00000000000E+00 0. -1.
         21   -1    0    0  501  503 -0.00000000000E+00 -0.00000000000E+00 -0.57901383195E+02  0.57901383195E+02  0.00000000000E+00 0.  1.
          2    1    1    2  501    0 -0.14017934108E+02  0.17998797198E+02 -0.49571330723E+02  0.54569002253E+02  0.00000000000E+00 0.  1.
         -2    1    1    2    0  502  0.14017934108E+02 -0.17998797198E+02  0.16482273055E+02  0.28144706470E+02  0.00000000000E+00 0. -1.
<mgrwt>
<rscale>  2 0.22813574E+02</rscale>
<asrwt>0</asrwt>
<pdfrwt beam="1">  1       21 0.38172809E-02 0.22813574E+02</pdfrwt>
<pdfrwt beam="2">  1       21 0.89079050E-02 0.22813574E+02</pdfrwt>
<totfact> 0.30860542E+07</totfact>
</mgrwt>
</event>
<event>
 4    1  0.2769537E+004  0.4015011E+02  0.7546771E-02  0.1507110E+00
         21   -1    0    0  503  502  0.00000000000E+00  0.00000000000E+00  0.50590777701E+02  0.50590777701E+02  0.00000000000E+00 0.  1.
         21   -1    0    0  501  503 -0.00000000000E+00 -0.00000000000E+00 -0.36694590019E+02  0.36694590019E+02  0.00000000000E+00 0. -1.
          2    1    1    2  501    0  0.39390684997E+02  0.77720889338E+01 -0.88864077390E+01  0.41121766419E+02  0.00000000000E+00 0.  1.
         -2    1    1    2    0  502 -0.39390684997E+02 -0.77720889338E+01  0.22782595421E+02  0.46163601300E+02  0.00000000000E+00 0. -1.
<mgrwt>
<rscale>  2 0.40150111E+02</rscale>
<asrwt>0</asrwt>
<pdfrwt beam="1">  1       21 0.77831966E-02 0.40150111E+02</pdfrwt>
<pdfrwt beam="2">  1       21 0.56453216E-02 0.40150111E+02</pdfrwt>
<totfact> 0.23065764E+07</totfact>
</mgrwt>
</event>
<event>
 4    1  0.2769537E+004  0.4552641E+02  0.7546771E-02  0.1471082E+00
         21   -1    0    0  501  502  0.00000000000E+00  0.00000000000E+00  0.39040814637E+02  0.39040814637E+02  0.00000000000E+00 0. -1.
         21   -1    0    0  502  503 -0.00000000000E+00 -0.00000000000E+00 -0.53102861135E+02  0.53102861135E+02  0.00000000000E+00 0.  1.
          2    1    1    2  501    0  0.29023193000E+02  0.35075750275E+02 -0.62978882305E+01  0.45959954150E+02  0.00000000000E+00 0.  1.
         -2    1    1    2    0  503 -0.29023193000E+02 -0.35075750275E+02 -0.77641582683E+01  0.46183721622E+02  0.00000000000E+00 0. -1.
<mgrwt>
<rscale>  2 0.45526410E+02</rscale>
<asrwt>0</asrwt>
<pdfrwt beam="1">  1       21 0.60062791E-02 0.45526410E+02</pdfrwt>
<pdfrwt beam="2">  1       21 0.81696710E-02 0.45526410E+02</pdfrwt>
<totfact> 0.19599872E+07</totfact>
</mgrwt>
</event>
<event>
 4    1  0.2769537E+004  0.2639849E+02  0.7546771E-02  0.1641691E+00
         21   -1    0    0  501  502  0.00000000000E+00  0.00000000000E+00  0.61272006539E+01  0.61272006539E+01  0.00000000000E+00 0. -1.
         21   -1    0    0  502  503 -0.00000000000E+00 -0.00000000000E+00 -0.21145522525E+03  0.21145522525E+03  0.00000000000E+00 0.  1.
          2    1    1    2  501    0  0.83159785386E+01 -0.25054432364E+02 -0.28707609161E+02  0.39000088511E+02  0.00000000000E+00 0. -1.
         -2    1    1    2    0  503 -0.83159785386E+01  0.25054432364E+02 -0.17662041544E+03  0.17858233739E+03  0.00000000000E+00 0.  1.
<mgrwt>
<rscale>  2 0.26398486E+02</rscale>
<asrwt>0</asrwt>
<pdfrwt beam="1">  1       21 0.94264633E-03 0.26398486E+02</pdfrwt>
<pdfrwt beam="2">  1       21 0.32531570E-01 0.26398486E+02</pdfrwt>
<totfact> 0.29045078E+07</totfact>
</mgrwt>
</event>
<event>
 4    1  0.2769537E+004  0.2427318E+02  0.7546771E-02  0.1671666E+00
         21   -1    0    0  503  502  0.00000000000E+00  0.00000000000E+00  0.13221414301E+02  0.13221414301E+02  0.00000000000E+00 0. -1.
         21   -1    0    0  501  503 -0.00000000000E+00 -0.00000000000E+00 -0.46680885381E+02  0.46680885381E+02  0.00000000000E+00 0.  1.
          2    1    1    2  501    0  0.14907698957E+02  0.19155883622E+02 -0.23109192414E+02  0.33514506405E+02  0.00000000000E+00 0.  1.
         -2    1    1    2    0  502 -0.14907698957E+02 -0.19155883622E+02 -0.10350278666E+02  0.26387793276E+02  0.00000000000E+00 0. -1.
<mgrwt>
<rscale>  2 0.24273182E+02</rscale>
<asrwt>0</asrwt>
<pdfrwt beam="1">  1       21 0.20340637E-02 0.24273182E+02</pdfrwt>
<pdfrwt beam="2">  1       21 0.71816747E-02 0.24273182E+02</pdfrwt>
<totfact> 0.11867534E+08</totfact>
</mgrwt>
</event>
<event>
 4    1  0.2769537E+004  0.3918684E+02  0.7546771E-02  0.1514282E+00
         21   -1    0    0  503  502  0.00000000000E+00  0.00000000000E+00  0.11712180857E+02  0.11712180857E+02  0.00000000000E+00 0.  1.
         21   -1    0    0  501  503 -0.00000000000E+00 -0.00000000000E+00 -0.13501225162E+03  0.13501225162E+03  0.00000000000E+00 0. -1.
          2    1    1    2  501    0  0.34593056681E+02  0.18410029366E+02 -0.74118874146E+02  0.83840421375E+02  0.00000000000E+00 0. -1.
         -2    1    1    2    0  502 -0.34593056681E+02 -0.18410029366E+02 -0.49181196621E+02  0.62884011107E+02  0.00000000000E+00 0.  1.
<mgrwt>
<rscale>  2 0.39186844E+02</rscale>
<asrwt>0</asrwt>
<pdfrwt beam="1">  1       21 0.18018740E-02 0.39186844E+02</pdfrwt>
<pdfrwt beam="2">  1       21 0.20771116E-01 0.39186844E+02</pdfrwt>
<totfact> 0.26176675E+07</totfact>
</mgrwt>
</event>
<event>
 4    1  0.2769537E+004  0.5815590E+02  0.7546771E-02  0.1405738E+00
         21   -1    0    0  501  502  0.00000000000E+00  0.00000000000E+00  0.46557699215E+03  0.46557699215E+03  0.00000000000E+00 0. -1.
         21   -1    0    0  502  503 -0.00000000000E+00 -0.00000000000E+00 -0.15867336605E+02  0.15867336605E+02  0.00000000000E+00 0.  1.
          2    1    1    2  501    0 -0.57697026293E+02  0.72912001947E+01  0.40210595217E+03  0.40628968141E+03  0.00000000000E+00 0. -1.
         -2    1    1    2    0  503  0.57697026293E+02 -0.72912001947E+01  0.47603703367E+02  0.75154647345E+02  0.00000000000E+00 0.  1.
<mgrwt>
<rscale>  2 0.58155898E+02</rscale>
<asrwt>0</asrwt>
<pdfrwt beam="1">  1       21 0.71627219E-01 0.58155898E+02</pdfrwt>
<pdfrwt beam="2">  1       21 0.24411291E-02 0.58155898E+02</pdfrwt>
<totfact> 0.15314889E+06</totfact>
</mgrwt>
</event>
<event>
 4    1  0.2769537E+004  0.2629787E+02  0.7546771E-02  0.1643031E+00
         21   -1    0    0  503  502  0.00000000000E+00  0.00000000000E+00  0.37228152399E+02  0.37228152399E+02  0.00000000000E+00 0.  1.
         21   -1    0    0  501  503 -0.00000000000E+00 -0.00000000000E+00 -0.29747384945E+02  0.29747384945E+02  0.00000000000E+00 0. -1.
          2    1    1    2  501    0 -0.17831981181E+02  0.19328697690E+02 -0.16780720670E+02  0.31195683890E+02  0.00000000000E+00 0. -1.
         -2    1    1    2    0  502  0.17831981181E+02 -0.19328697690E+02  0.24261488124E+02  0.35779853454E+02  0.00000000000E+00 0.  1.
<mgrwt>
<rscale>  2 0.26297873E+02</rscale>
<asrwt>0</asrwt>
<pdfrwt beam="1">  1       21 0.57274081E-02 0.26297873E+02</pdfrwt>
<pdfrwt beam="2">  1       21 0.45765207E-02 0.26297873E+02</pdfrwt>
<totfact> 0.49124493E+07</totfact>
</mgrwt>
</event>
<event>
 4    1  0.2769537E+004  0.3732532E+02  0.7546771E-02  0.1528870E+00
         21   -1    0    0  501  502  0.00000000000E+00  0.00000000000E+00  0.25781980840E+02  0.25781980840E+02  0.00000000000E+00 0.  1.
         21   -1    0    0  502  503 -0.00000000000E+00 -0.00000000000E+00 -0.17228288712E+03  0.17228288712E+03  0.00000000000E+00 0. -1.
          2    1    1    2  501    0  0.29046297173E+02  0.23441247648E+02  0.87940531960E+01  0.38347292503E+02  0.00000000000E+00 0.  1.
         -2    1    1    2    0  503 -0.29046297173E+02 -0.23441247648E+02 -0.15529495947E+03  0.15971757545E+03  0.00000000000E+00 0. -1.
<mgrwt>
<rscale>  2 0.37325319E+02</rscale>
<asrwt>0</asrwt>
<pdfrwt beam="1">  1       21 0.39664585E-02 0.37325319E+02</pdfrwt>
<pdfrwt beam="2">  1       21 0.26505060E-01 0.37325319E+02</pdfrwt>
<totfact> 0.48140004E+06</totfact>
</mgrwt>
</event>
<event>
 4    1  0.2769537E+004  0.3048932E+02  0.7546771E-02  0.1592742E+00
         21   -1    0    0  501  502  0.00000000000E+00  0.00000000000E+00  0.45639756708E+01  0.45639756708E+01  0.00000000000E+00 0.  1.
         21   -1    0    0  502  503 -0.00000000000E+00 -0.00000000000E+00 -0.21391119128E+03  0.21391119128E+03  0.00000000000E+00 0. -1.
          2    1    1    2  501    0 -0.28468866574E+02  0.10914308241E+02 -0.80785509270E+02  0.86347536134E+02  0.00000000000E+00 0.  1.
         -2    1    1    2    0  503  0.28468866574E+02 -0.10914308241E+02 -0.12856170633E+03  0.13212763081E+03  0.00000000000E+00 0. -1.
<mgrwt>
<rscale>  2 0.30489318E+02</rscale>
<asrwt>0</asrwt>
<pdfrwt beam="1">  1       21 0.70214994E-03 0.30489318E+02</pdfrwt>
<pdfrwt beam="2">  1       21 0.32909421E-01 0.30489318E+02</pdfrwt>
<totfact> 0.45608268E+07</totfact>
</mgrwt>
</event>
<event>
 4    1  0.2769537E+004  0.2356875E+02  0.7546771E-02  0.1682453E+00
         21   -1    0    0  501  502  0.00000000000E+00  0.00000000000E+00  0.58135013506E+01  0.58135013506E+01  0.00000000000E+00 0.  1.
         21   -1    0    0  502  503 -0.00000000000E+00 -0.00000000000E+00 -0.96367120346E+02  0.96367120346E+02  0.00000000000E+00 0. -1.
          2    1    1    2  501    0 -0.57163262380E+01  0.22865034750E+02 -0.49978304746E+02  0.55256828945E+02  0.00000000000E+00 0.  1.
         -2    1    1    2    0  503  0.57163262380E+01 -0.22865034750E+02 -0.40575314249E+02  0.46923792752E+02  0.00000000000E+00 0. -1.
<mgrwt>
<rscale>  2 0.23568755E+02</rscale>
<asrwt>0</asrwt>
<pdfrwt beam="1">  1       21 0.89438485E-03 0.23568755E+02</pdfrwt>
<pdfrwt beam="2">  1       21 0.14825710E-01 0.23568755E+02</pdfrwt>
<totfact> 0.12279791E+08</totfact>
</mgrwt>
</event>
<event>
 4    1  0.2769537E+004  0.2295000E+02  0.7546771E-02  0.1692322E+00
         21   -1    0    0  501  502  0.00000000000E+00  0.00000000000E+00  0.12634622584E+03  0.12634622584E+03  0.00000000000E+00 0. -1.
         21   -1    0    0  502  503 -0.00000000000E+00 -0.00000000000E+00 -0.15466700111E+02  0.15466700111E+02  0.00000000000E+00 0.  1.
          2    1    1    2  501    0  0.10522037922E+02  0.20395811813E+02  0.11604181549E+03  0.11828949811E+03  0.00000000000E+00 0. -1.
         -2    1    1    2    0  503 -0.10522037922E+02 -0.20395811813E+02 -0.51622897639E+01  0.23523427836E+02  0.00000000000E+00 0.  1.
<mgrwt>
<rscale>  2 0.22949998E+02</rscale>
<asrwt>0</asrwt>
<pdfrwt beam="1">  1       21 0.19437880E-01 0.22949998E+02</pdfrwt>
<pdfrwt beam="2">  1       21 0.23794924E-02 0.22949998E+02</pdfrwt>
<totfact> 0.17296731E+07</totfact>
</mgrwt>
</event>
<event>
 4    1  0.2769537E+004  0.2128034E+02  0.7546771E-02  0.1721004E+00
         21   -1    0    0  501  502  0.00000000000E+00  0.00000000000E+00  0.10986451990E+02  0.10986451990E+02  0.00000000000E+00 0.  1.
         21   -1    0    0  502  503 -0.00000000000E+00 -0.00000000000E+00 -0.41245040091E+02  0.41245040091E+02  0.00000000000E+00 0. -1.
          2    1    1    2  501    0  0.67563664539E+01  0.20179307895E+02 -0.14475838607E+02  0.25737188233E+02  0.00000000000E+00 0. -1.
         -2    1    1    2    0  503 -0.67563664539E+01 -0.20179307895E+02 -0.15782749494E+02  0.26494303848E+02  0.00000000000E+00 0.  1.
<mgrwt>
<rscale>  2 0.21280342E+02</rscale>
<asrwt>0</asrwt>
<pdfrwt beam="1">  1       21 0.16902234E-02 0.21280342E+02</pdfrwt>
<pdfrwt beam="2">  1       21 0.63453908E-02 0.21280342E+02</pdfrwt>
<totfact> 0.18489526E+08</totfact>
</mgrwt>
</event>
<event>
 4    1  0.2769537E+004  0.2170895E+02  0.7546771E-02  0.1713335E+00
         21   -1    0    0  503  502  0.00000000000E+00  0.00000000000E+00  0.78772067090E+01  0.78772067090E+01  0.00000000000E+00 0.  1.
         21   -1    0    0  501  503 -0.00000000000E+00 -0.00000000000E+00 -0.15237628627E+03  0.15237628627E+03  0.00000000000E+00 0. -1.
          2    1    1    2  501    0 -0.18842956406E+02  0.10780617021E+02 -0.13469525636E+03  0.13643346656E+03  0.00000000000E+00 0. -1.
         -2    1    1    2    0  502  0.18842956406E+02 -0.10780617021E+02 -0.98038231957E+01  0.23820026422E+02  0.00000000000E+00 0.  1.
<mgrwt>
<rscale>  2 0.21708955E+02</rscale>
<asrwt>0</asrwt>
<pdfrwt beam="1">  1       21 0.12118779E-02 0.21708955E+02</pdfrwt>
<pdfrwt beam="2">  1       21 0.23442506E-01 0.21708955E+02</pdfrwt>
<totfact> 0.34404802E+07</totfact>
</mgrwt>
</event>
<event>
 4    1  0.2769537E+004  0.2738852E+02  0.7546771E-02  0.1628889E+00
         21   -1    0    0  501  502  0.00000000000E+00  0.00000000000E+00  0.37055798182E+02  0.37055798182E+02  0.00000000000E+00 0. -1.
         21   -1    0    0  502  503 -0.00000000000E+00 -0.00000000000E+00 -0.31371367948E+02  0.31371367948E+02  0.00000000000E+00 0.  1.
          2    1    1    2  501    0 -0.17309421661E+02  0.21225334281E+02  0.23219302484E+02  0.35906362966E+02  0.00000000000E+00 0. -1.
         -2    1    1    2    0  503  0.17309421661E+02 -0.21225334281E+02 -0.17534872251E+02  0.32520803164E+02  0.00000000000E+00 0.  1.
<mgrwt>
<rscale>  2 0.27388518E+02</rscale>
<asrwt>0</asrwt>
<pdfrwt beam="1">  1       21 0.57008920E-02 0.27388518E+02</pdfrwt>
<pdfrwt beam="2">  1       21 0.48263643E-02 0.27388518E+02</pdfrwt>
<totfact> 0.45901618E+07</totfact>
</mgrwt>
</event>
<event>
 4    1  0.2769537E+004  0.2206433E+02  0.7546771E-02  0.1707142E+00
         21   -1    0    0  503  502  0.00000000000E+00  0.00000000000E+00  0.16912243661E+04  0.16912243661E+04  0.00000000000E+00 0.  1.
         21   -1    0    0  501  503 -0.00000000000E+00 -0.00000000000E+00 -0.17355353136E+01  0.17355353136E+01  0.00000000000E+00 0. -1.
          2    1    1    2  501    0 -0.10384794094E+02 -0.19467679314E+02  0.71644450403E+02  0.74965070265E+02  0.00000000000E+00 0. -1.
         -2    1    1    2    0  502  0.10384794094E+02  0.19467679314E+02  0.16178443804E+04  0.16179948311E+04  0.00000000000E+00 0.  1.
<mgrwt>
<rscale>  2 0.22064326E+02</rscale>
<asrwt>0</asrwt>
<pdfrwt beam="1">  1       21 0.26018705E+00 0.22064326E+02</pdfrwt>
<pdfrwt beam="2">  1       21 0.26700679E-03 0.22064326E+02</pdfrwt>
<totfact> 0.18456708E+06</totfact>
</mgrwt>
</event>
<event>
 4    1  0.2769537E+004  0.2843740E+02  0.7546771E-02  0.1616032E+00
         21   -1    0    0  501  502  0.00000000000E+00  0.00000000000E+00  0.75068766067E+01  0.75068766067E+01  0.00000000000E+00 0.  1.
         21   -1    0    0  502  503 -0.00000000000E+00 -0.00000000000E+00 -0.33885145632E+03  0.33885145632E+03  0.00000000000E+00 0. -1.
          2    1    1    2  501    0  0.53182906341E+01  0.27935662519E+02 -0.22646320686E+02  0.36353009452E+02  0.00000000000E+00 0.  1.
         -2    1    1    2    0  503 -0.53182906341E+01 -0.27935662519E+02 -0.30869825903E+03  0.31000532348E+03  0.00000000000E+00 0. -1.
<mgrwt>
<rscale>  2 0.28437395E+02</rscale>
<asrwt>0</asrwt>
<pdfrwt beam="1">  1       21 0.11549039E-02 0.28437395E+02</pdfrwt>
<pdfrwt beam="2">  1       21 0.52131002E-01 0.28437395E+02</pdfrwt>
<totfact> 0.88083484E+06</totfact>
</mgrwt>
</event>
<event>
 4    1  0.2769537E+004  0.3108206E+02  0.7546771E-02  0.1586427E+00
         21   -1    0    0  503  502  0.00000000000E+00  0.00000000000E+00  0.55950245821E+03  0.55950245821E+03  0.00000000000E+00 0.  1.
         21   -1    0    0  501  503 -0.00000000000E+00 -0.00000000000E+00 -0.46228725218E+01  0.46228725218E+01  0.00000000000E+00 0. -1.
          2    1    1    2  501    0  0.29801282880E+02  0.88305200102E+01  0.54184563701E+02  0.62466482921E+02  0.00000000000E+00 0. -1.
         -2    1    1    2    0  502 -0.29801282880E+02 -0.88305200102E+01  0.50069502198E+03  0.50165884781E+03  0.00000000000E+00 0.  1.
<mgrwt>
<rscale>  2 0.31082061E+02</rscale>
<asrwt>0</asrwt>
<pdfrwt beam="1">  1       21 0.86077248E-01 0.31082061E+02</pdfrwt>
<pdfrwt beam="2">  1       21 0.71121160E-03 0.31082061E+02</pdfrwt>
<totfact> 0.66041990E+06</totfact>
</mgrwt>
</event>
<event>
 4    1  0.2769537E+004  0.2065043E+02  0.7546771E-02  0.1732695E+00
         21   -1    0    0  501  502  0.00000000000E+00  0.00000000000E+00  0.16532247904E+03  0.16532247904E+03  0.00000000000E+00 0.  1.
         21   -1    0    0  502  503 -0.00000000000E+00 -0.00000000000E+00 -0.26115296925E+01  0.26115296925E+01  0.00000000000E+00 0. -1.
          2    1    1    2  501    0  0.97807409738E+01  0.18187281212E+02  0.90662614945E+02  0.92984675300E+02  0.00000000000E+00 0. -1.
         -2    1    1    2    0  503 -0.97807409738E+01 -0.18187281212E+02  0.72048334404E+02  0.74949333434E+02  0.00000000000E+00 0.  1.
<mgrwt>
<rscale>  2 0.20650426E+02</rscale>
<asrwt>0</asrwt>
<pdfrwt beam="1">  1       21 0.25434219E-01 0.20650426E+02</pdfrwt>
<pdfrwt beam="2">  1       21 0.40177393E-03 0.20650426E+02</pdfrwt>
<totfact> 0.15112804E+08</totfact>
</mgrwt>
</event>
<event>
 4    1  0.2769537E+004  0.2988625E+02  0.7546771E-02  0.1599349E+00
         21   -1    0    0  501  502  0.00000000000E+00  0.00000000000E+00  0.21612154455E+02  0.21612154455E+02  0.00000000000E+00 0. -1.
         21   -1    0    0  502  503 -0.00000000000E+00 -0.00000000000E+00 -0.74331743805E+02  0.74331743805E+02  0.00000000000E+00 0.  1.
          2    1    1    2  501    0 -0.26258225435E+02  0.14272125005E+02  0.56057090735E+01  0.30407432140E+02  0.00000000000E+00 0. -1.
         -2    1    1    2    0  503  0.26258225435E+02 -0.14272125005E+02 -0.58325298424E+02  0.65536466119E+02  0.00000000000E+00 0.  1.
<mgrwt>
<rscale>  2 0.29886250E+02</rscale>
<asrwt>0</asrwt>
<pdfrwt beam="1">  1       21 0.33249468E-02 0.29886250E+02</pdfrwt>
<pdfrwt beam="2">  1       21 0.11435653E-01 0.29886250E+02</pdfrwt>
<totfact> 0.26860976E+07</totfact>
</mgrwt>
</event>
<event>
 4    1  0.2769537E+004  0.3348703E+02  0.7546771E-02  0.1562462E+00
         21   -1    0    0  501  502  0.00000000000E+00  0.00000000000E+00  0.43403925724E+02  0.43403925724E+02  0.00000000000E+00 0. -1.
         21   -1    0    0  502  503 -0.00000000000E+00 -0.00000000000E+00 -0.54861602558E+02  0.54861602558E+02  0.00000000000E+00 0.  1.
          2    1    1    2  501    0 -0.14573903266E+02  0.30149340224E+02  0.30008976695E+02  0.44965765363E+02  0.00000000000E+00 0. -1.
         -2    1    1    2    0  503  0.14573903266E+02 -0.30149340224E+02 -0.41466653529E+02  0.53299762919E+02  0.00000000000E+00 0.  1.
<mgrwt>
<rscale>  2 0.33487033E+02</rscale>
<asrwt>0</asrwt>
<pdfrwt beam="1">  1       21 0.66775271E-02 0.33487033E+02</pdfrwt>
<pdfrwt beam="2">  1       21 0.84402465E-02 0.33487033E+02</pdfrwt>
<totfact> 0.14860771E+07</totfact>
</mgrwt>
</event>
<event>
 4    1  0.2769537E+004  0.2981125E+02  0.7546771E-02  0.1600184E+00
         21   -1    0    0  503  502  0.00000000000E+00  0.00000000000E+00  0.32552075928E+03  0.32552075928E+03  0.00000000000E+00 0. -1.
         21   -1    0    0  501  503 -0.00000000000E+00 -0.00000000000E+00 -0.28473883510E+01  0.28473883510E+01  0.00000000000E+00 0.  1.
          2    1    1    2  501    0 -0.10960539606E+02 -0.27723225937E+02  0.12801719343E+03  0.13144243036E+03  0.00000000000E+00 0.  1.
         -2    1    1    2    0  502  0.10960539606E+02  0.27723225937E+02  0.19465617749E+03  0.19692571727E+03  0.00000000000E+00 0. -1.
<mgrwt>
<rscale>  2 0.29811251E+02</rscale>
<asrwt>0</asrwt>
<pdfrwt beam="1">  1       21 0.50080087E-01 0.29811251E+02</pdfrwt>
<pdfrwt beam="2">  1       21 0.43806000E-03 0.29811251E+02</pdfrwt>
<totfact> 0.41155856E+07</totfact>
</mgrwt>
</event>
<event>
 4    1  0.2769537E+004  0.2458568E+02  0.7546771E-02  0.1667025E+00
         21   -1    0    0  501  502  0.00000000000E+00  0.00000000000E+00  0.22215040490E+02  0.22215040490E+02  0.00000000000E+00 0.  1.
         21   -1    0    0  502  503 -0.00000000000E+00 -0.00000000000E+00 -0.27462138211E+02  0.27462138211E+02  0.00000000000E+00 0. -1.
          2    1    1    2  501    0  0.21577688852E+02 -0.11783844885E+02 -0.24022623091E+00  0.24586853502E+02  0.00000000000E+00 0. -1.
         -2    1    1    2    0  503 -0.21577688852E+02  0.11783844885E+02 -0.50068714904E+01  0.25090325199E+02  0.00000000000E+00 0.  1.
<mgrwt>
<rscale>  2 0.24585680E+02</rscale>
<asrwt>0</asrwt>
<pdfrwt beam="1">  1       21 0.34176985E-02 0.24585680E+02</pdfrwt>
<pdfrwt beam="2">  1       21 0.42249444E-02 0.24585680E+02</pdfrwt>
<totfact> 0.12455407E+08</totfact>
</mgrwt>
</event>
<event>
 4    1  0.2769537E+004  0.2830139E+02  0.7546771E-02  0.1617661E+00
         21   -1    0    0  501  502  0.00000000000E+00  0.00000000000E+00  0.87906547784E+03  0.87906547784E+03  0.00000000000E+00 0. -1.
         21   -1    0    0  502  503 -0.00000000000E+00 -0.00000000000E+00 -0.12461698318E+01  0.12461698318E+01  0.00000000000E+00 0.  1.
          2    1    1    2  501    0 -0.70309460694E+01  0.27414129349E+02  0.66712616534E+03  0.66772620824E+03  0.00000000000E+00 0. -1.
         -2    1    1    2    0  503  0.70309460694E+01 -0.27414129349E+02  0.21069314267E+03  0.21258543943E+03  0.00000000000E+00 0.  1.
<mgrwt>
<rscale>  2 0.28301390E+02</rscale>
<asrwt>0</asrwt>
<pdfrwt beam="1">  1       21 0.13524035E+00 0.28301390E+02</pdfrwt>
<pdfrwt beam="2">  1       21 0.19171914E-03 0.28301390E+02</pdfrwt>
<totfact> 0.16373965E+07</totfact>
</mgrwt>
</event>
<event>
 4    1  0.2769537E+004  0.2349512E+02  0.7546771E-02  0.1683608E+00
         21   -1    0    0  501  502  0.00000000000E+00  0.00000000000E+00  0.45099854698E+03  0.45099854698E+03  0.00000000000E+00 0.  1.
         21   -1    0    0  502  503 -0.00000000000E+00 -0.00000000000E+00 -0.30084981450E+01  0.30084981450E+01  0.00000000000E+00 0. -1.
          2    1    1    2  501    0  0.12388043508E+02 -0.19963888501E+02  0.39882514073E+03  0.39951659959E+03  0.00000000000E+00 0.  1.
         -2    1    1    2    0  503 -0.12388043508E+02  0.19963888501E+02  0.49164908097E+02  0.54490445531E+02  0.00000000000E+00 0. -1.
<mgrwt>
<rscale>  2 0.23495116E+02</rscale>
<asrwt>0</asrwt>
<pdfrwt beam="1">  1       21 0.69384338E-01 0.23495116E+02</pdfrwt>
<pdfrwt beam="2">  1       21 0.46284623E-03 0.23495116E+02</pdfrwt>
<totfact> 0.18833254E+07</totfact>
</mgrwt>
</event>
<event>
 4    1  0.2769537E+004  0.2630379E+02  0.7546771E-02  0.1642952E+00
         21   -1    0    0  501  502  0.00000000000E+00  0.00000000000E+00  0.12193847113E+02  0.12193847113E+02  0.00000000000E+00 0. -1.
         21   -1    0    0  502  503 -0.00000000000E+00 -0.00000000000E+00 -0.69079148169E+02  0.69079148169E+02  0.00000000000E+00 0.  1.
          2    1    1    2  501    0  0.17692427001E+02 -0.19464520102E+02 -0.11268707017E+02  0.28615961871E+02  0.00000000000E+00 0. -1.
         -2    1    1    2    0  503 -0.17692427001E+02  0.19464520102E+02 -0.45616594038E+02  0.52657033410E+02  0.00000000000E+00 0.  1.
<mgrwt>
<rscale>  2 0.26303793E+02</rscale>
<asrwt>0</asrwt>
<pdfrwt beam="1">  1       21 0.18759765E-02 0.26303793E+02</pdfrwt>
<pdfrwt beam="2">  1       21 0.10627561E-01 0.26303793E+02</pdfrwt>
<totfact> 0.71984997E+07</totfact>
</mgrwt>
</event>
<event>
 4    1  0.2769537E+004  0.2001138E+02  0.7546771E-02  0.1745102E+00
         21   -1    0    0  503  502  0.00000000000E+00  0.00000000000E+00  0.27434611125E+02  0.27434611125E+02  0.00000000000E+00 0.  1.
         21   -1    0    0  501  503 -0.00000000000E+00 -0.00000000000E+00 -0.15435678026E+02  0.15435678026E+02  0.00000000000E+00 0. -1.
          2    1    1    2  501    0 -0.11097481536E+02 -0.16652362346E+02  0.10021791498E+01  0.20036457551E+02  0.00000000000E+00 0. -1.
         -2    1    1    2    0  502  0.11097481536E+02  0.16652362346E+02  0.10996753950E+02  0.22833831601E+02  0.00000000000E+00 0.  1.
<mgrwt>
<rscale>  2 0.20011378E+02</rscale>
<asrwt>0</asrwt>
<pdfrwt beam="1">  1       21 0.42207094E-02 0.20011378E+02</pdfrwt>
<pdfrwt beam="2">  1       21 0.23747197E-02 0.20011378E+02</pdfrwt>
<totfact> 0.20594062E+08</totfact>
</mgrwt>
</event>
<event>
 4    1  0.2769537E+004  0.2493576E+02  0.7546771E-02  0.1661926E+00
         21   -1    0    0  501  502  0.00000000000E+00  0.00000000000E+00  0.43099559359E+03  0.43099559359E+03  0.00000000000E+00 0. -1.
         21   -1    0    0  502  503 -0.00000000000E+00 -0.00000000000E+00 -0.14956158537E+01  0.14956158537E+01  0.00000000000E+00 0.  1.
          2    1    1    2  501    0 -0.21627746306E+02 -0.12410999447E+02  0.25542971355E+03  0.25664397691E+03  0.00000000000E+00 0. -1.
         -2    1    1    2    0  503  0.21627746306E+02  0.12410999447E+02  0.17407026418E+03  0.17584723254E+03  0.00000000000E+00 0.  1.
<mgrwt>
<rscale>  2 0.24935764E+02</rscale>
<asrwt>0</asrwt>
<pdfrwt beam="1">  1       21 0.66306915E-01 0.24935764E+02</pdfrwt>
<pdfrwt beam="2">  1       21 0.23009509E-03 0.24935764E+02</pdfrwt>
<totfact> 0.58142403E+07</totfact>
</mgrwt>
</event>
<event>
 4    1  0.2769537E+004  0.2096553E+02  0.7546771E-02  0.1726782E+00
         21   -1    0    0  501  502  0.00000000000E+00  0.00000000000E+00  0.22326573475E+03  0.22326573475E+03  0.00000000000E+00 0.  1.
         21   -1    0    0  502  503 -0.00000000000E+00 -0.00000000000E+00 -0.20136549121E+01  0.20136549121E+01  0.00000000000E+00 0. -1.
          2    1    1    2  501    0  0.84869547153E+01  0.19170948030E+02  0.12744745279E+03  0.12916039204E+03  0.00000000000E+00 0.  1.
         -2    1    1    2    0  503 -0.84869547153E+01 -0.19170948030E+02  0.93804627046E+02  0.96118997623E+02  0.00000000000E+00 0. -1.
<mgrwt>
<rscale>  2 0.20965535E+02</rscale>
<asrwt>0</asrwt>
<pdfrwt beam="1">  1       21 0.34348555E-01 0.20965535E+02</pdfrwt>
<pdfrwt beam="2">  1       21 0.30979324E-03 0.20965535E+02</pdfrwt>
<totfact> 0.12878582E+08</totfact>
</mgrwt>
</event>
<event>
 4    1  0.2769537E+004  0.2073262E+02  0.7546771E-02  0.1731140E+00
         21   -1    0    0  503  502  0.00000000000E+00  0.00000000000E+00  0.53614018538E+01  0.53614018538E+01  0.00000000000E+00 0. -1.
         21   -1    0    0  501  503 -0.00000000000E+00 -0.00000000000E+00 -0.86949670064E+02  0.86949670064E+02  0.00000000000E+00 0.  1.
          2    1    1    2  501    0  0.12117245017E+02  0.16823016021E+02 -0.53679213482E+02  0.57543891552E+02  0.00000000000E+00 0.  1.
         -2    1    1    2    0  502 -0.12117245017E+02 -0.16823016021E+02 -0.27909054728E+02  0.34767180367E+02  0.00000000000E+00 0. -1.
<mgrwt>
<rscale>  2 0.20732619E+02</rscale>
<asrwt>0</asrwt>
<pdfrwt beam="1">  1       21 0.82483115E-03 0.20732619E+02</pdfrwt>
<pdfrwt beam="2">  1       21 0.13376871E-01 0.20732619E+02</pdfrwt>
<totfact> 0.15877219E+08</totfact>
</mgrwt>
</event>
<event>
 4    1  0.2769537E+004  0.2011277E+02  0.7546771E-02  0.1743095E+00
         21   -1    0    0  501  502  0.00000000000E+00  0.00000000000E+00  0.21563193716E+02  0.21563193716E+02  0.00000000000E+00 0. -1.
         21   -1    0    0  502  503 -0.00000000000E+00 -0.00000000000E+00 -0.20271905171E+02  0.20271905171E+02  0.00000000000E+00 0.  1.
          2    1    1    2  501    0  0.18120142090E+02  0.87283508115E+01  0.63583014813E+01  0.21093877192E+02  0.00000000000E+00 0. -1.
         -2    1    1    2    0  503 -0.18120142090E+02 -0.87283508115E+01 -0.50670129364E+01  0.20741221694E+02  0.00000000000E+00 0.  1.
<mgrwt>
<rscale>  2 0.20112773E+02</rscale>
<asrwt>0</asrwt>
<pdfrwt beam="1">  1       21 0.33174144E-02 0.20112773E+02</pdfrwt>
<pdfrwt beam="2">  1       21 0.31187546E-02 0.20112773E+02</pdfrwt>
<totfact> 0.19736875E+08</totfact>
</mgrwt>
</event>
<event>
 4    1  0.2769537E+004  0.2589453E+02  0.7546771E-02  0.1648476E+00
         21   -1    0    0  503  502  0.00000000000E+00  0.00000000000E+00  0.10257594749E+03  0.10257594749E+03  0.00000000000E+00 0.  1.
         21   -1    0    0  501  503 -0.00000000000E+00 -0.00000000000E+00 -0.92638668559E+01  0.92638668559E+01  0.00000000000E+00 0. -1.
          2    1    1    2  501    0  0.18199332597E+02 -0.18420397604E+02  0.16316308478E+02  0.30606350276E+02  0.00000000000E+00 0. -1.
         -2    1    1    2    0  502 -0.18199332597E+02  0.18420397604E+02  0.76995772153E+02  0.81233464067E+02  0.00000000000E+00 0.  1.
<mgrwt>
<rscale>  2 0.25894531E+02</rscale>
<asrwt>0</asrwt>
<pdfrwt beam="1">  1       21 0.15780914E-01 0.25894531E+02</pdfrwt>
<pdfrwt beam="2">  1       21 0.14252104E-02 0.25894531E+02</pdfrwt>
<totfact> 0.55931089E+07</totfact>
</mgrwt>
</event>
<event>
 4    1  0.2769537E+004  0.3422701E+02  0.7546771E-02  0.1555574E+00
         21   -1    0    0  503  502  0.00000000000E+00  0.00000000000E+00  0.57547257595E+02  0.57547257595E+02  0.00000000000E+00 0. -1.
         21   -1    0    0  501  503 -0.00000000000E+00 -0.00000000000E+00 -0.32818269700E+02  0.32818269700E+02  0.00000000000E+00 0.  1.
          2    1    1    2  501    0 -0.32000682386E+02  0.12142662296E+02 -0.15477259580E+02  0.37563725652E+02  0.00000000000E+00 0.  1.
         -2    1    1    2    0  502  0.32000682386E+02 -0.12142662296E+02  0.40206247474E+02  0.52801801643E+02  0.00000000000E+00 0. -1.
<mgrwt>
<rscale>  2 0.34227006E+02</rscale>
<asrwt>0</asrwt>
<pdfrwt beam="1">  1       21 0.88534242E-02 0.34227006E+02</pdfrwt>
<pdfrwt beam="2">  1       21 0.50489646E-02 0.34227006E+02</pdfrwt>
<totfact> 0.21714958E+07</totfact>
</mgrwt>
</event>
<event>
 4    1  0.2769537E+004  0.2415018E+02  0.7546771E-02  0.1673517E+00
         21   -1    0    0  501  502  0.00000000000E+00  0.00000000000E+00  0.18676845249E+01  0.18676845249E+01  0.00000000000E+00 0. -1.
         21   -1    0    0  502  503 -0.00000000000E+00 -0.00000000000E+00 -0.38783065145E+03  0.38783065145E+03  0.00000000000E+00 0.  1.
          2    1    1    2  501    0  0.10676724293E+02 -0.21661923172E+02 -0.10697905727E+03  0.10967109944E+03  0.00000000000E+00 0. -1.
         -2    1    1    2    0  503 -0.10676724293E+02  0.21661923172E+02 -0.27898390966E+03  0.28002723654E+03  0.00000000000E+00 0.  1.
<mgrwt>
<rscale>  2 0.24150183E+02</rscale>
<asrwt>0</asrwt>
<pdfrwt beam="1">  1       21 0.28733626E-03 0.24150183E+02</pdfrwt>
<pdfrwt beam="2">  1       21 0.59666217E-01 0.24150183E+02</pdfrwt>
<totfact> 0.51711618E+07</totfact>
</mgrwt>
</event>
<event>
 4    1  0.2769537E+004  0.5851447E+02  0.7546771E-02  0.1404174E+00
         21   -1    0    0  503  502  0.00000000000E+00  0.00000000000E+00  0.75160887279E+01  0.75160887279E+01  0.00000000000E+00 0. -1.
         21   -1    0    0  501  503 -0.00000000000E+00 -0.00000000000E+00 -0.54301334539E+03  0.54301334539E+03  0.00000000000E+00 0.  1.
          2    1    1    2  501    0  0.21806749466E+02 -0.54299252264E+02 -0.37822311840E+03  0.38272270694E+03  0.00000000000E+00 0.  1.
         -2    1    1    2    0  502 -0.21806749466E+02  0.54299252264E+02 -0.15727413827E+03  0.16780672718E+03  0.00000000000E+00 0. -1.
<mgrwt>
<rscale>  2 0.58514469E+02</rscale>
<asrwt>0</asrwt>
<pdfrwt beam="1">  1       21 0.11563213E-02 0.58514469E+02</pdfrwt>
<pdfrwt beam="2">  1       21 0.83540520E-01 0.58514469E+02</pdfrwt>
<totfact> 0.35544539E+06</totfact>
</mgrwt>
</event>
<event>
 4    1  0.2769537E+004  0.2255909E+02  0.7546771E-02  0.1698758E+00
         21   -1    0    0  501  502  0.00000000000E+00  0.00000000000E+00  0.47812960283E+03  0.47812960283E+03  0.00000000000E+00 0.  1.
         21   -1    0    0  502  503 -0.00000000000E+00 -0.00000000000E+00 -0.12837308593E+01  0.12837308593E+01  0.00000000000E+00 0. -1.
          2    1    1    2  501    0 -0.15608440520E+02  0.16287693314E+02  0.33750867954E+03  0.33826176422E+03  0.00000000000E+00 0. -1.
         -2    1    1    2    0  503  0.15608440520E+02 -0.16287693314E+02  0.13933719244E+03  0.14115156947E+03  0.00000000000E+00 0.  1.
<mgrwt>
<rscale>  2 0.22559086E+02</rscale>
<asrwt>0</asrwt>
<pdfrwt beam="1">  1       21 0.73558258E-01 0.22559086E+02</pdfrwt>
<pdfrwt beam="2">  1       21 0.19749744E-03 0.22559086E+02</pdfrwt>
<totfact> 0.57287515E+07</totfact>
</mgrwt>
</event>
<event>
 4    1  0.2769537E+004  0.2162816E+02  0.7546771E-02  0.1714763E+00
         21   -1    0    0  503  502  0.00000000000E+00  0.00000000000E+00  0.36489659453E+02  0.36489659453E+02  0.00000000000E+00 0.  1.
         21   -1    0    0  501  503 -0.00000000000E+00 -0.00000000000E+00 -0.13074399536E+02  0.13074399536E+02  0.00000000000E+00 0. -1.
          2    1    1    2  501    0  0.98133531670E+01  0.19273699039E+02  0.82470182734E+01  0.23147152858E+02  0.00000000000E+00 0.  1.
         -2    1    1    2    0  502 -0.98133531670E+01 -0.19273699039E+02  0.15168241644E+02  0.26416906132E+02  0.00000000000E+00 0. -1.
<mgrwt>
<rscale>  2 0.21628162E+02</rscale>
<asrwt>0</asrwt>
<pdfrwt beam="1">  1       21 0.56137937E-02 0.21628162E+02</pdfrwt>
<pdfrwt beam="2">  1       21 0.20114461E-02 0.21628162E+02</pdfrwt>
<totfact> 0.17338406E+08</totfact>
</mgrwt>
</event>
<event>
 4    1  0.2769537E+004  0.2669857E+02  0.7546771E-02  0.1637739E+00
         21   -1    0    0  501  502  0.00000000000E+00  0.00000000000E+00  0.48314400656E+02  0.48314400656E+02  0.00000000000E+00 0.  1.
         21   -1    0    0  502  503 -0.00000000000E+00 -0.00000000000E+00 -0.15029062370E+02  0.15029062370E+02  0.00000000000E+00 0. -1.
          2    1    1    2  501    0  0.26002983028E+02  0.60546440670E+01  0.20930090991E+02  0.33924659910E+02  0.00000000000E+00 0. -1.
         -2    1    1    2    0  503 -0.26002983028E+02 -0.60546440670E+01  0.12355247295E+02  0.29418803117E+02  0.00000000000E+00 0.  1.
<mgrwt>
<rscale>  2 0.26698574E+02</rscale>
<asrwt>0</asrwt>
<pdfrwt beam="1">  1       21 0.74329846E-02 0.26698574E+02</pdfrwt>
<pdfrwt beam="2">  1       21 0.23121635E-02 0.26698574E+02</pdfrwt>
<totfact> 0.94429679E+07</totfact>
</mgrwt>
</event>
<event>
 4    1  0.2769537E+004  0.2531288E+02  0.7546771E-02  0.1656548E+00
         21   -1    0    0  501  502  0.00000000000E+00  0.00000000000E+00  0.10513425105E+03  0.10513425105E+03  0.00000000000E+00 0. -1.
         21   -1    0    0  502  503 -0.00000000000E+00 -0.00000000000E+00 -0.65279522218E+01  0.65279522218E+01  0.00000000000E+00 0.  1.
          2    1    1    2  501    0  0.19297224094E+02  0.16381670235E+02  0.34916746800E+02  0.43126803551E+02  0.00000000000E+00 0. -1.
         -2    1    1    2    0  503 -0.19297224094E+02 -0.16381670235E+02  0.63689552032E+02  0.68535399725E+02  0.00000000000E+00 0.  1.
<mgrwt>
<rscale>  2 0.25312882E+02</rscale>
<asrwt>0</asrwt>
<pdfrwt beam="1">  1       21 0.16174499E-01 0.25312882E+02</pdfrwt>
<pdfrwt beam="2">  1       21 0.10043004E-02 0.25312882E+02</pdfrwt>
<totfact> 0.90617078E+07</totfact>
</mgrwt>
</event>
<event>
 4    1  0.2769537E+004  0.2190691E+02  0.7546771E-02  0.1709867E+00
         21   -1    0    0  503  502  0.00000000000E+00  0.00000000000E+00  0.51912754718E+02  0.51912754718E+02  0.00000000000E+00 0.  1.
         21   -1    0    0  501  503 -0.00000000000E+00 -0.00000000000E+00 -0.10169631999E+02  0.10169631999E+02  0.00000000000E+00 0. -1.
          2    1    1    2  501    0 -0.17803562869E+02 -0.12765017897E+02  0.11509646035E+02  0.24746403468E+02  0.00000000000E+00 0. -1.
         -2    1    1    2    0  502  0.17803562869E+02  0.12765017897E+02  0.30233476684E+02  0.37335983249E+02  0.00000000000E+00 0.  1.
<mgrwt>
<rscale>  2 0.21906906E+02</rscale>
<asrwt>0</asrwt>
<pdfrwt beam="1">  1       21 0.79865775E-02 0.21906906E+02</pdfrwt>
<pdfrwt beam="2">  1       21 0.15645588E-02 0.21906906E+02</pdfrwt>
<totfact> 0.14464685E+08</totfact>
</mgrwt>
</event>
<event>
 4    1  0.2769537E+004  0.6700381E+02  0.7546771E-02  0.1370589E+00
         21   -1    0    0  501  502  0.00000000000E+00  0.00000000000E+00  0.53407487586E+03  0.53407487586E+03  0.00000000000E+00 0.  1.
         21   -1    0    0  502  503 -0.00000000000E+00 -0.00000000000E+00 -0.71376448505E+02  0.71376448505E+02  0.00000000000E+00 0. -1.
          2    1    1    2  501    0  0.66963869925E+02 -0.23130514774E+01  0.51569033294E+03  0.52002502783E+03  0.00000000000E+00 0.  1.
         -2    1    1    2    0  503 -0.66963869925E+02  0.23130514774E+01 -0.52991905583E+02  0.85426296535E+02  0.00000000000E+00 0. -1.
<mgrwt>
<rscale>  2 0.67003806E+02</rscale>
<asrwt>0</asrwt>
<pdfrwt beam="1">  1       21 0.82165363E-01 0.67003806E+02</pdfrwt>
<pdfrwt beam="2">  1       21 0.10980992E-01 0.67003806E+02</pdfrwt>
<totfact> 0.94632746E+04</totfact>
</mgrwt>
</event>
<event>
 4    1  0.2769537E+004  0.3482396E+02  0.7546771E-02  0.1550169E+00
         21   -1    0    0  501  502  0.00000000000E+00  0.00000000000E+00  0.18332931899E+02  0.18332931899E+02  0.00000000000E+00 0.  1.
         21   -1    0    0  502  503 -0.00000000000E+00 -0.00000000000E+00 -0.81231736854E+02  0.81231736854E+02  0.00000000000E+00 0. -1.
          2    1    1    2  501    0 -0.17717304781E+02 -0.29980083950E+02 -0.99982838814E+01  0.36230843254E+02  0.00000000000E+00 0.  1.
         -2    1    1    2    0  503  0.17717304781E+02  0.29980083950E+02 -0.52900521074E+02  0.63333825498E+02  0.00000000000E+00 0. -1.
<mgrwt>
<rscale>  2 0.34823962E+02</rscale>
<asrwt>0</asrwt>
<pdfrwt beam="1">  1       21 0.28204511E-02 0.34823962E+02</pdfrwt>
<pdfrwt beam="2">  1       21 0.12497190E-01 0.34823962E+02</pdfrwt>
<totfact> 0.30850945E+07</totfact>
</mgrwt>
</event>
<event>
 4    1  0.2769537E+004  0.2452440E+02  0.7546771E-02  0.1667929E+00
         21   -1    0    0  503  502  0.00000000000E+00  0.00000000000E+00  0.19531587379E+03  0.19531587379E+03  0.00000000000E+00 0.  1.
         21   -1    0    0  501  503 -0.00000000000E+00 -0.00000000000E+00 -0.42771518764E+01  0.42771518764E+01  0.00000000000E+00 0. -1.
          2    1    1    2  501    0 -0.22635055574E+02 -0.94393117973E+01  0.42707661603E+02  0.49248255884E+02  0.00000000000E+00 0. -1.
         -2    1    1    2    0  502  0.22635055574E+02  0.94393117973E+01  0.14833106031E+03  0.15034476978E+03  0.00000000000E+00 0.  1.
<mgrwt>
<rscale>  2 0.24524403E+02</rscale>
<asrwt>0</asrwt>
<pdfrwt beam="1">  1       21 0.30048589E-01 0.24524403E+02</pdfrwt>
<pdfrwt beam="2">  1       21 0.65802352E-03 0.24524403E+02</pdfrwt>
<totfact> 0.56639034E+07</totfact>
</mgrwt>
</event>
<event>
 4    1  0.2769537E+004  0.2163339E+02  0.7546771E-02  0.1714671E+00
         21   -1    0    0  501  502  0.00000000000E+00  0.00000000000E+00  0.27401290234E+01  0.27401290234E+01  0.00000000000E+00 0.  1.
         21   -1    0    0  502  503 -0.00000000000E+00 -0.00000000000E+00 -0.17499384806E+03  0.17499384806E+03  0.00000000000E+00 0. -1.
          2    1    1    2  501    0  0.18462010363E+02 -0.11276417603E+02 -0.72363136073E+02  0.75527656411E+02  0.00000000000E+00 0.  1.
         -2    1    1    2    0  503 -0.18462010363E+02  0.11276417603E+02 -0.99890582963E+02  0.10220632067E+03  0.00000000000E+00 0. -1.
<mgrwt>
<rscale>  2 0.21633387E+02</rscale>
<asrwt>0</asrwt>
<pdfrwt beam="1">  1       21 0.42155819E-03 0.21633387E+02</pdfrwt>
<pdfrwt beam="2">  1       21 0.26922138E-01 0.21633387E+02</pdfrwt>
<totfact> 0.12899923E+08</totfact>
</mgrwt>
</event>
<event>
 4    1  0.2769537E+004  0.2208597E+02  0.7546771E-02  0.1706769E+00
         21   -1    0    0  501  502  0.00000000000E+00  0.00000000000E+00  0.36150648036E+03  0.36150648036E+03  0.00000000000E+00 0.  1.
         21   -1    0    0  502  503 -0.00000000000E+00 -0.00000000000E+00 -0.36670817954E+01  0.36670817954E+01  0.00000000000E+00 0. -1.
          2    1    1    2  501    0 -0.64804509721E+01 -0.21113829715E+02  0.32407833664E+03  0.32483004530E+03  0.00000000000E+00 0.  1.
         -2    1    1    2    0  503  0.64804509721E+01  0.21113829715E+02  0.33761061927E+02  0.40343516858E+02  0.00000000000E+00 0. -1.
<mgrwt>
<rscale>  2 0.22085970E+02</rscale>
<asrwt>0</asrwt>
<pdfrwt beam="1">  1       21 0.55616353E-01 0.22085970E+02</pdfrwt>
<pdfrwt beam="2">  1       21 0.56416672E-03 0.22085970E+02</pdfrwt>
<totfact> 0.21663806E+07</totfact>
</mgrwt>
</event>
<event>
 4    1  0.2769537E+004  0.3350598E+02  0.7546771E-02  0.1562283E+00
         21   -1    0    0  501  502  0.00000000000E+00  0.00000000000E+00  0.78570821148E+03  0.78570821148E+03  0.00000000000E+00 0. -1.
         21   -1    0    0  502  503 -0.00000000000E+00 -0.00000000000E+00 -0.17398973425E+01  0.17398973425E+01  0.00000000000E+00 0.  1.
          2    1    1    2  501    0  0.32464761124E+01  0.33348327928E+02  0.55845992265E+03  0.55946415058E+03  0.00000000000E+00 0.  1.
         -2    1    1    2    0  503 -0.32464761124E+01 -0.33348327928E+02  0.22550839149E+03  0.22798395824E+03  0.00000000000E+00 0. -1.
<mgrwt>
<rscale>  2 0.33505978E+02</rscale>
<asrwt>0</asrwt>
<pdfrwt beam="1">  1       21 0.12087790E+00 0.33505978E+02</pdfrwt>
<pdfrwt beam="2">  1       21 0.26767714E-03 0.33505978E+02</pdfrwt>
<totfact> 0.13363556E+07</totfact>
</mgrwt>
</event>
<event>
 4    1  0.2769537E+004  0.3882745E+02  0.7546771E-02  0.1517022E+00
         21   -1    0    0  501  502  0.00000000000E+00  0.00000000000E+00  0.23775481535E+02  0.23775481535E+02  0.00000000000E+00 0.  1.
         21   -1    0    0  502  503 -0.00000000000E+00 -0.00000000000E+00 -0.97692072270E+02  0.97692072270E+02  0.00000000000E+00 0. -1.
          2    1    1    2  501    0  0.18834029959E+02  0.33953652934E+02 -0.97982454426E+00  0.38839815759E+02  0.00000000000E+00 0.  1.
         -2    1    1    2    0  503 -0.18834029959E+02 -0.33953652934E+02 -0.72936766191E+02  0.82627738045E+02  0.00000000000E+00 0. -1.
<mgrwt>
<rscale>  2 0.38827455E+02</rscale>
<asrwt>0</asrwt>
<pdfrwt beam="1">  1       21 0.36577664E-02 0.38827455E+02</pdfrwt>
<pdfrwt beam="2">  1       21 0.15029549E-01 0.38827455E+02</pdfrwt>
<totfact> 0.15131629E+07</totfact>
</mgrwt>
</event>
<event>
 4    1  0.2769537E+004  0.2514086E+02  0.7546771E-02  0.1658987E+00
         21   -1    0    0  503  502  0.00000000000E+00  0.00000000000E+00  0.12266869394E+02  0.12266869394E+02  0.00000000000E+00 0. -1.
         21   -1    0    0  501  503 -0.00000000000E+00 -0.00000000000E+00 -0.66516280676E+02  0.66516280676E+02  0.00000000000E+00 0.  1.
          2    1    1    2  501    0  0.16463796312E+02  0.19000162008E+02 -0.45824817774E+02  0.52268314201E+02  0.00000000000E+00 0.  1.
         -2    1    1    2    0  502 -0.16463796312E+02 -0.19000162008E+02 -0.84245935079E+01  0.26514835868E+02  0.00000000000E+00 0. -1.
<mgrwt>
<rscale>  2 0.25140858E+02</rscale>
<asrwt>0</asrwt>
<pdfrwt beam="1">  1       21 0.18872107E-02 0.25140858E+02</pdfrwt>
<pdfrwt beam="2">  1       21 0.10233274E-01 0.25140858E+02</pdfrwt>
<totfact> 0.75109892E+07</totfact>
</mgrwt>
</event>
<event>
 4    1  0.2769537E+004  0.3502806E+02  0.7546771E-02  0.1548352E+00
         21   -1    0    0  503  502  0.00000000000E+00  0.00000000000E+00  0.27942580938E+03  0.27942580938E+03  0.00000000000E+00 0. -1.
         21   -1    0    0  501  503 -0.00000000000E+00 -0.00000000000E+00 -0.68276659412E+01  0.68276659412E+01  0.00000000000E+00 0.  1.
          2    1    1    2  501    0 -0.33245771778E+02 -0.11031024957E+02  0.50796203457E+02  0.61702667190E+02  0.00000000000E+00 0.  1.
         -2    1    1    2    0  502  0.33245771778E+02  0.11031024957E+02  0.22180193999E+03  0.22455080813E+03  0.00000000000E+00 0. -1.
<mgrwt>
<rscale>  2 0.35028058E+02</rscale>
<asrwt>0</asrwt>
<pdfrwt beam="1">  1       21 0.42988577E-01 0.35028058E+02</pdfrwt>
<pdfrwt beam="2">  1       21 0.10504104E-02 0.35028058E+02</pdfrwt>
<totfact> 0.15309949E+07</totfact>
</mgrwt>
</event>
<event>
 4    1  0.2769537E+004  0.2585679E+02  0.7546771E-02  0.1648992E+00
         21   -1    0    0  501  502  0.00000000000E+00  0.00000000000E+00  0.39894825572E+02  0.39894825572E+02  0.00000000000E+00 0.  1.
         21   -1    0    0  502  503 -0.00000000000E+00 -0.00000000000E+00 -0.26380635640E+02  0.26380635640E+02  0.00000000000E+00 0. -1.
          2    1    1    2  501    0 -0.24714229546E+02  0.76013537273E+01  0.26770361226E+02  0.37218623842E+02  0.00000000000E+00 0.  1.
         -2    1    1    2    0  503  0.24714229546E+02 -0.76013537273E+01 -0.13256171294E+02  0.29056837369E+02  0.00000000000E+00 0. -1.
<mgrwt>
<rscale>  2 0.25856793E+02</rscale>
<asrwt>0</asrwt>
<pdfrwt beam="1">  1       21 0.61376655E-02 0.25856793E+02</pdfrwt>
<pdfrwt beam="2">  1       21 0.40585593E-02 0.25856793E+02</pdfrwt>
<totfact> 0.52960780E+07</totfact>
</mgrwt>
</event>
<event>
 4    1  0.2769537E+004  0.2227785E+02  0.7546771E-02  0.1703491E+00
         21   -1    0    0  503  502  0.00000000000E+00  0.00000000000E+00  0.68698293101E+01  0.68698293101E+01  0.00000000000E+00 0. -1.
         21   -1    0    0  501  503 -0.00000000000E+00 -0.00000000000E+00 -0.90071261949E+02  0.90071261949E+02  0.00000000000E+00 0.  1.
          2    1    1    2  501    0  0.15173614993E+02  0.16311472776E+02 -0.63164713077E+02  0.66978233137E+02  0.00000000000E+00 0.  1.
         -2    1    1    2    0  502 -0.15173614993E+02 -0.16311472776E+02 -0.20036719563E+02  0.29962858123E+02  0.00000000000E+00 0. -1.
<mgrwt>
<rscale>  2 0.22277853E+02</rscale>
<asrwt>0</asrwt>
<pdfrwt beam="1">  1       21 0.10568969E-02 0.22277853E+02</pdfrwt>
<pdfrwt beam="2">  1       21 0.13857116E-01 0.22277853E+02</pdfrwt>
<totfact> 0.10548034E+08</totfact>
</mgrwt>
</event>
<event>
 4    1  0.2769537E+004  0.2037124E+02  0.7546771E-02  0.1738045E+00
         21   -1    0    0  503  502  0.00000000000E+00  0.00000000000E+00  0.74174989399E+02  0.74174989399E+02  0.00000000000E+00 0. -1.
         21   -1    0    0  501  503 -0.00000000000E+00 -0.00000000000E+00 -0.63654003639E+01  0.63654003639E+01  0.00000000000E+00 0.  1.
          2    1    1    2  501    0 -0.20164675183E+02  0.28936478007E+01  0.19892420686E+02  0.28472718935E+02  0.00000000000E+00 0. -1.
         -2    1    1    2    0  502  0.20164675183E+02 -0.28936478007E+01  0.47917168349E+02  0.52067670828E+02  0.00000000000E+00 0.  1.
<mgrwt>
<rscale>  2 0.20371238E+02</rscale>
<asrwt>0</asrwt>
<pdfrwt beam="1">  1       21 0.11411536E-01 0.20371238E+02</pdfrwt>
<pdfrwt beam="2">  1       21 0.97929242E-03 0.20371238E+02</pdfrwt>
<totfact> 0.15939980E+08</totfact>
</mgrwt>
</event>
<event>
 4    1  0.2769537E+004  0.2448784E+02  0.7546771E-02  0.1668469E+00
         21   -1    0    0  501  502  0.00000000000E+00  0.00000000000E+00  0.11323374882E+02  0.11323374882E+02  0.00000000000E+00 0. -1.
         21   -1    0    0  502  503 -0.00000000000E+00 -0.00000000000E+00 -0.94439188858E+02  0.94439188858E+02  0.00000000000E+00 0.  1.
          2    1    1    2  501    0  0.20871255089E+02  0.12808013564E+02 -0.65105308611E+01  0.25338538090E+02  0.00000000000E+00 0. -1.
         -2    1    1    2    0  503 -0.20871255089E+02 -0.12808013564E+02 -0.76605283116E+02  0.80424025650E+02  0.00000000000E+00 0.  1.
<mgrwt>
<rscale>  2 0.24487844E+02</rscale>
<asrwt>0</asrwt>
<pdfrwt beam="1">  1       21 0.17420577E-02 0.24487844E+02</pdfrwt>
<pdfrwt beam="2">  1       21 0.14529106E-01 0.24487844E+02</pdfrwt>
<totfact> 0.46791501E+07</totfact>
</mgrwt>
</event>
<event>
 4    1  0.2769537E+004  0.2013457E+02  0.7546771E-02  0.1742665E+00
         21   -1    0    0  501  502  0.00000000000E+00  0.00000000000E+00  0.36941876541E+01  0.36941876541E+01  0.00000000000E+00 0.  1.
         21   -1    0    0  502  503 -0.00000000000E+00 -0.00000000000E+00 -0.12105500985E+03  0.12105500985E+03  0.00000000000E+00 0. -1.
          2    1    1    2  501    0  0.14570447987E+02 -0.13896144186E+02 -0.39610854089E+02  0.44434452168E+02  0.00000000000E+00 0.  1.
         -2    1    1    2    0  503 -0.14570447987E+02  0.13896144186E+02 -0.77749968102E+02  0.80314745332E+02  0.00000000000E+00 0. -1.
<mgrwt>
<rscale>  2 0.20134567E+02</rscale>
<asrwt>0</asrwt>
<pdfrwt beam="1">  1       21 0.56833657E-03 0.20134567E+02</pdfrwt>
<pdfrwt beam="2">  1       21 0.18623847E-01 0.20134567E+02</pdfrwt>
<totfact> 0.15555366E+08</totfact>
</mgrwt>
</event>
<event>
 4    1  0.2769537E+004  0.2242199E+02  0.7546771E-02  0.1701054E+00
         21   -1    0    0  501  502  0.00000000000E+00  0.00000000000E+00  0.13801575778E+03  0.13801575778E+03  0.00000000000E+00 0.  1.
         21   -1    0    0  502  503 -0.00000000000E+00 -0.00000000000E+00 -0.48769191814E+01  0.48769191814E+01  0.00000000000E+00 0. -1.
          2    1    1    2  501    0  0.96581769711E+01 -0.20235246080E+02  0.10251197845E+03  0.10493546251E+03  0.00000000000E+00 0.  1.
         -2    1    1    2    0  503 -0.96581769711E+01  0.20235246080E+02  0.30626860142E+02  0.37957214446E+02  0.00000000000E+00 0. -1.
<mgrwt>
<rscale>  2 0.22421988E+02</rscale>
<asrwt>0</asrwt>
<pdfrwt beam="1">  1       21 0.21233191E-01 0.22421988E+02</pdfrwt>
<pdfrwt beam="2">  1       21 0.75029536E-03 0.22421988E+02</pdfrwt>
<totfact> 0.84672251E+07</totfact>
</mgrwt>
</event>
<event>
 4    1  0.2769537E+004  0.2347657E+02  0.7546771E-02  0.1683900E+00
         21   -1    0    0  503  502  0.00000000000E+00  0.00000000000E+00  0.25299496992E+02  0.25299496992E+02  0.00000000000E+00 0.  1.
         21   -1    0    0  501  503 -0.00000000000E+00 -0.00000000000E+00 -0.27316019062E+02  0.27316019062E+02  0.00000000000E+00 0. -1.
          2    1    1    2  501    0 -0.22638925846E+02  0.62151659356E+01 -0.12846256360E+02  0.26761456491E+02  0.00000000000E+00 0. -1.
         -2    1    1    2    0  502  0.22638925846E+02 -0.62151659356E+01  0.10829734290E+02  0.25854059562E+02  0.00000000000E+00 0.  1.
<mgrwt>
<rscale>  2 0.23476568E+02</rscale>
<asrwt>0</asrwt>
<pdfrwt beam="1">  1       21 0.38922303E-02 0.23476568E+02</pdfrwt>
<pdfrwt beam="2">  1       21 0.42024645E-02 0.23476568E+02</pdfrwt>
<totfact> 0.10103356E+08</totfact>
</mgrwt>
</event>
<event>
 4    1  0.2769537E+004  0.2459982E+02  0.7546771E-02  0.1666817E+00
         21   -1    0    0  503  502  0.00000000000E+00  0.00000000000E+00  0.12468084600E+03  0.12468084600E+03  0.00000000000E+00 0.  1.
         21   -1    0    0  501  503 -0.00000000000E+00 -0.00000000000E+00 -0.49716990567E+01  0.49716990567E+01  0.00000000000E+00 0. -1.
          2    1    1    2  501    0 -0.13643547260E+02  0.20469600423E+02  0.49863266474E+02  0.55601225407E+02  0.00000000000E+00 0. -1.
         -2    1    1    2    0  502  0.13643547260E+02 -0.20469600423E+02  0.69845880473E+02  0.74051319653E+02  0.00000000000E+00 0.  1.
<mgrwt>
<rscale>  2 0.24599816E+02</rscale>
<asrwt>0</asrwt>
<pdfrwt beam="1">  1       21 0.19181666E-01 0.24599816E+02</pdfrwt>
<pdfrwt beam="2">  1       21 0.76487687E-03 0.24599816E+02</pdfrwt>
<totfact> 0.10076681E+08</totfact>
</mgrwt>
</event>
<event>
 4    1  0.2769537E+004  0.2410461E+02  0.7546771E-02  0.1674206E+00
         21   -1    0    0  503  502  0.00000000000E+00  0.00000000000E+00  0.21863135132E+01  0.21863135132E+01  0.00000000000E+00 0. -1.
         21   -1    0    0  501  503 -0.00000000000E+00 -0.00000000000E+00 -0.50654255560E+03  0.50654255560E+03  0.00000000000E+00 0.  1.
          2    1    1    2  501    0  0.21872045228E+02  0.10131437541E+02 -0.42755077477E+03  0.42822972502E+03  0.00000000000E+00 0.  1.
         -2    1    1    2    0  502 -0.21872045228E+02 -0.10131437541E+02 -0.76805467322E+02  0.80499144092E+02  0.00000000000E+00 0. -1.
<mgrwt>
<rscale>  2 0.24104613E+02</rscale>
<asrwt>0</asrwt>
<pdfrwt beam="1">  1       21 0.33635570E-03 0.24104613E+02</pdfrwt>
<pdfrwt beam="2">  1       21 0.77929676E-01 0.24104613E+02</pdfrwt>
<totfact> 0.23779118E+07</totfact>
</mgrwt>
</event>
<event>
 4    1  0.2769537E+004  0.3004657E+02  0.7546771E-02  0.1597575E+00
         21   -1    0    0  501  502  0.00000000000E+00  0.00000000000E+00  0.59293351838E+00  0.59293351838E+00  0.00000000000E+00 0. -1.
         21   -1    0    0  502  503 -0.00000000000E+00 -0.00000000000E+00 -0.15661631866E+04  0.15661631866E+04  0.00000000000E+00 0.  1.
          2    1    1    2  501    0  0.72731558415E+01 -0.29152999196E+02 -0.65212296181E+03  0.65281479263E+03  0.00000000000E+00 0. -1.
         -2    1    1    2    0  503 -0.72731558415E+01  0.29152999196E+02 -0.91344729132E+03  0.91394132753E+03  0.00000000000E+00 0.  1.
<mgrwt>
<rscale>  2 0.30046566E+02</rscale>
<asrwt>0</asrwt>
<pdfrwt beam="1">  1       21 0.91220844E-04 0.30046566E+02</pdfrwt>
<pdfrwt beam="2">  1       21 0.24094738E+00 0.30046566E+02</pdfrwt>
<totfact> 0.10985752E+07</totfact>
</mgrwt>
</event>
<event>
 4    1  0.2769537E+004  0.2724160E+02  0.7546771E-02  0.1630747E+00
         21   -1    0    0  503  502  0.00000000000E+00  0.00000000000E+00  0.20330573781E+03  0.20330573781E+03  0.00000000000E+00 0. -1.
         21   -1    0    0  501  503 -0.00000000000E+00 -0.00000000000E+00 -0.73010474096E+01  0.73010474096E+01  0.00000000000E+00 0.  1.
          2    1    1    2  501    0  0.13517091645E+02 -0.23651493012E+02  0.23538214857E+02  0.36002117256E+02  0.00000000000E+00 0.  1.
         -2    1    1    2    0  502 -0.13517091645E+02  0.23651493012E+02  0.17246647554E+03  0.17460466796E+03  0.00000000000E+00 0. -1.
<mgrwt>
<rscale>  2 0.27241602E+02</rscale>
<asrwt>0</asrwt>
<pdfrwt beam="1">  1       21 0.31277801E-01 0.27241602E+02</pdfrwt>
<pdfrwt beam="2">  1       21 0.11232382E-02 0.27241602E+02</pdfrwt>
<totfact> 0.24113109E+07</totfact>
</mgrwt>
</event>
<event>
 4    1  0.2769537E+004  0.2756162E+02  0.7546771E-02  0.1626719E+00
         21   -1    0    0  503  502  0.00000000000E+00  0.00000000000E+00  0.33392082431E+02  0.33392082431E+02  0.00000000000E+00 0. -1.
         21   -1    0    0  501  503 -0.00000000000E+00 -0.00000000000E+00 -0.23603325247E+02  0.23603325247E+02  0.00000000000E+00 0.  1.
          2    1    1    2  501    0 -0.77318975637E+01 -0.26454876307E+02 -0.52672133565E+00  0.27566649338E+02  0.00000000000E+00 0. -1.
         -2    1    1    2    0  502  0.77318975637E+01  0.26454876307E+02  0.10315478520E+02  0.29428758340E+02  0.00000000000E+00 0.  1.
<mgrwt>
<rscale>  2 0.27561617E+02</rscale>
<asrwt>0</asrwt>
<pdfrwt beam="1">  1       21 0.51372434E-02 0.27561617E+02</pdfrwt>
<pdfrwt beam="2">  1       21 0.36312808E-02 0.27561617E+02</pdfrwt>
<totfact> 0.85445770E+07</totfact>
</mgrwt>
</event>
<event>
 4    1  0.2769537E+004  0.2349596E+02  0.7546771E-02  0.1683595E+00
         21   -1    0    0  503  502  0.00000000000E+00  0.00000000000E+00  0.69821178039E+03  0.69821178039E+03  0.00000000000E+00 0. -1.
         21   -1    0    0  501  503 -0.00000000000E+00 -0.00000000000E+00 -0.74016996861E+01  0.74016996861E+01  0.00000000000E+00 0.  1.
          2    1    1    2  501    0  0.20134117022E+02  0.12111049890E+02  0.11974437638E+02  0.26371335849E+02  0.00000000000E+00 0.  1.
         -2    1    1    2    0  502 -0.20134117022E+02 -0.12111049890E+02  0.67883564307E+03  0.67924214423E+03  0.00000000000E+00 0. -1.
<mgrwt>
<rscale>  2 0.23495961E+02</rscale>
<asrwt>0</asrwt>
<pdfrwt beam="1">  1       21 0.10741715E+00 0.23495961E+02</pdfrwt>
<pdfrwt beam="2">  1       21 0.11387236E-02 0.23495961E+02</pdfrwt>
<totfact> 0.19399083E+06</totfact>
</mgrwt>
</event>
<event>
 4    1  0.2769537E+004  0.2246709E+02  0.7546771E-02  0.1700297E+00
         21   -1    0    0  503  502  0.00000000000E+00  0.00000000000E+00  0.84096752083E+02  0.84096752083E+02  0.00000000000E+00 0. -1.
         21   -1    0    0  501  503 -0.00000000000E+00 -0.00000000000E+00 -0.66651331297E+01  0.66651331297E+01  0.00000000000E+00 0.  1.
          2    1    1    2  501    0  0.18256399664E+01  0.22392789121E+02  0.53027359177E+02  0.57590544252E+02  0.00000000000E+00 0. -1.
         -2    1    1    2    0  502 -0.18256399664E+01 -0.22392789121E+02  0.24404259775E+02  0.33171340960E+02  0.00000000000E+00 0.  1.
<mgrwt>
<rscale>  2 0.22467086E+02</rscale>
<asrwt>0</asrwt>
<pdfrwt beam="1">  1       21 0.12937961E-01 0.22467086E+02</pdfrwt>
<pdfrwt beam="2">  1       21 0.10254052E-02 0.22467086E+02</pdfrwt>
<totfact> 0.12422871E+08</totfact>
</mgrwt>
</event>
<event>
 4    1  0.2769537E+004  0.3800630E+02  0.7546771E-02  0.1523417E+00
         21   -1    0    0  501  502  0.00000000000E+00  0.00000000000E+00  0.60115792143E+01  0.60115792143E+01  0.00000000000E+00 0. -1.
         21   -1    0    0  502  503 -0.00000000000E+00 -0.00000000000E+00 -0.69738903096E+03  0.69738903096E+03  0.00000000000E+00 0.  1.
          2    1    1    2  501    0  0.34886103552E+02 -0.15081061342E+02 -0.60951797666E+02  0.71830357586E+02  0.00000000000E+00 0. -1.
         -2    1    1    2    0  503 -0.34886103552E+02  0.15081061342E+02 -0.63042565408E+03  0.63157025259E+03  0.00000000000E+00 0.  1.
<mgrwt>
<rscale>  2 0.38006297E+02</rscale>
<asrwt>0</asrwt>
<pdfrwt beam="1">  1       21 0.92485923E-03 0.38006297E+02</pdfrwt>
<pdfrwt beam="2">  1       21 0.10729052E+00 0.38006297E+02</pdfrwt>
<totfact> 0.27826893E+06</totfact>
</mgrwt>
</event>
<event>
 4    1  0.2769537E+004  0.2298496E+02  0.7546771E-02  0.1691754E+00
         21   -1    0    0  501  502  0.00000000000E+00  0.00000000000E+00  0.11779829660E+04  0.11779829660E+04  0.00000000000E+00 0.  1.
         21   -1    0    0  502  503 -0.00000000000E+00 -0.00000000000E+00 -0.13233054015E+01  0.13233054015E+01  0.00000000000E+00 0. -1.
          2    1    1    2  501    0  0.14832468807E+02 -0.17558652632E+02  0.10677605617E+04  0.10680079239E+04  0.00000000000E+00 0.  1.
         -2    1    1    2    0  503 -0.14832468807E+02  0.17558652632E+02  0.10889909885E+03  0.11129834745E+03  0.00000000000E+00 0. -1.
<mgrwt>
<rscale>  2 0.22984961E+02</rscale>
<asrwt>0</asrwt>
<pdfrwt beam="1">  1       21 0.18122731E+00 0.22984961E+02</pdfrwt>
<pdfrwt beam="2">  1       21 0.20358639E-03 0.22984961E+02</pdfrwt>
<totfact> 0.72007134E+06</totfact>
</mgrwt>
</event>
<event>
 4    1  0.2769537E+004  0.2142883E+02  0.7546771E-02  0.1718322E+00
         21   -1    0    0  501  502  0.00000000000E+00  0.00000000000E+00  0.25039078812E+01  0.25039078812E+01  0.00000000000E+00 0.  1.
         21   -1    0    0  502  503 -0.00000000000E+00 -0.00000000000E+00 -0.26389129141E+03  0.26389129141E+03  0.00000000000E+00 0. -1.
          2    1    1    2  501    0 -0.10940839313E+01  0.21400877303E+02 -0.57126840886E+02  0.61013691240E+02  0.00000000000E+00 0.  1.
         -2    1    1    2    0  503  0.10940839313E+01 -0.21400877303E+02 -0.20426054264E+03  0.20538150805E+03  0.00000000000E+00 0. -1.
<mgrwt>
<rscale>  2 0.21428826E+02</rscale>
<asrwt>0</asrwt>
<pdfrwt beam="1">  1       21 0.38521676E-03 0.21428826E+02</pdfrwt>
<pdfrwt beam="2">  1       21 0.40598643E-01 0.21428826E+02</pdfrwt>
<totfact> 0.69084325E+07</totfact>
</mgrwt>
</event>
<event>
 4    1  0.2769537E+004  0.2064478E+02  0.7546771E-02  0.1732802E+00
         21   -1    0    0  501  502  0.00000000000E+00  0.00000000000E+00  0.18340992197E+01  0.18340992197E+01  0.00000000000E+00 0. -1.
         21   -1    0    0  502  503 -0.00000000000E+00 -0.00000000000E+00 -0.28835386674E+03  0.28835386674E+03  0.00000000000E+00 0.  1.
          2    1    1    2  501    0 -0.88990512985E+01 -0.18628302674E+02 -0.79333268480E+02  0.81975449143E+02  0.00000000000E+00 0. -1.
         -2    1    1    2    0  503  0.88990512985E+01  0.18628302674E+02 -0.20718649904E+03  0.20821251682E+03  0.00000000000E+00 0.  1.
<mgrwt>
<rscale>  2 0.20644776E+02</rscale>
<asrwt>0</asrwt>
<pdfrwt beam="1">  1       21 0.28216926E-03 0.20644776E+02</pdfrwt>
<pdfrwt beam="2">  1       21 0.44362109E-01 0.20644776E+02</pdfrwt>
<totfact> 0.91012999E+07</totfact>
</mgrwt>
</event>
<event>
 4    1  0.2769537E+004  0.2503835E+02  0.7546771E-02  0.1660452E+00
         21   -1    0    0  501  502  0.00000000000E+00  0.00000000000E+00  0.25043524414E+01  0.25043524414E+01  0.00000000000E+00 0. -1.
         21   -1    0    0  502  503 -0.00000000000E+00 -0.00000000000E+00 -0.25471238657E+03  0.25471238657E+03  0.00000000000E+00 0.  1.
          2    1    1    2  501    0 -0.38202325759E+01  0.24745200975E+02 -0.14296987657E+03  0.14514580516E+03  0.00000000000E+00 0. -1.
         -2    1    1    2    0  503  0.38202325759E+01 -0.24745200975E+02 -0.10923815756E+03  0.11207093385E+03  0.00000000000E+00 0.  1.
<mgrwt>
<rscale>  2 0.25038354E+02</rscale>
<asrwt>0</asrwt>
<pdfrwt beam="1">  1       21 0.38528504E-03 0.25038354E+02</pdfrwt>
<pdfrwt beam="2">  1       21 0.39186516E-01 0.25038354E+02</pdfrwt>
<totfact> 0.76773113E+07</totfact>
</mgrwt>
</event>
<event>
 4    1  0.2769537E+004  0.2027975E+02  0.7546771E-02  0.1739822E+00
         21   -1    0    0  501  502  0.00000000000E+00  0.00000000000E+00  0.17163506983E+03  0.17163506983E+03  0.00000000000E+00 0. -1.
         21   -1    0    0  502  503 -0.00000000000E+00 -0.00000000000E+00 -0.26358347880E+01  0.26358347880E+01  0.00000000000E+00 0.  1.
          2    1    1    2  501    0 -0.93058659312E+01  0.18018572520E+02  0.11077391406E+03  0.11261495519E+03  0.00000000000E+00 0. -1.
         -2    1    1    2    0  503  0.93058659312E+01 -0.18018572520E+02  0.58225320984E+02  0.61655949430E+02  0.00000000000E+00 0.  1.
<mgrwt>
<rscale>  2 0.20279746E+02</rscale>
<asrwt>0</asrwt>
<pdfrwt beam="1">  1       21 0.26405387E-01 0.20279746E+02</pdfrwt>
<pdfrwt beam="2">  1       21 0.40551318E-03 0.20279746E+02</pdfrwt>
<totfact> 0.13873174E+08</totfact>
</mgrwt>
</event>
<event>
 4    1  0.2769537E+004  0.2265520E+02  0.7546771E-02  0.1697161E+00
         21   -1    0    0  503  502  0.00000000000E+00  0.00000000000E+00  0.86318362071E+01  0.86318362071E+01  0.00000000000E+00 0. -1.
         21   -1    0    0  501  503 -0.00000000000E+00 -0.00000000000E+00 -0.11510340566E+03  0.11510340566E+03  0.00000000000E+00 0.  1.
          2    1    1    2  501    0  0.13838175380E+02  0.17937747526E+02 -0.96251005417E+02  0.98881312329E+02  0.00000000000E+00 0.  1.
         -2    1    1    2    0  502 -0.13838175380E+02 -0.17937747526E+02 -0.10220564031E+02  0.24853929533E+02  0.00000000000E+00 0. -1.
<mgrwt>
<rscale>  2 0.22655196E+02</rscale>
<asrwt>0</asrwt>
<pdfrwt beam="1">  1       21 0.13279749E-02 0.22655196E+02</pdfrwt>
<pdfrwt beam="2">  1       21 0.17708215E-01 0.22655196E+02</pdfrwt>
<totfact> 0.49410890E+07</totfact>
</mgrwt>
</event>
<event>
 4    1  0.2769537E+004  0.2107119E+02  0.7546771E-02  0.1724829E+00
         21   -1    0    0  501  502  0.00000000000E+00  0.00000000000E+00  0.97848121321E+00  0.97848121321E+00  0.00000000000E+00 0. -1.
         21   -1    0    0  502  503 -0.00000000000E+00 -0.00000000000E+00 -0.60205192662E+03  0.60205192662E+03  0.00000000000E+00 0.  1.
          2    1    1    2  501    0 -0.13897150674E+02  0.15838691646E+02 -0.15089523383E+03  0.15235933362E+03  0.00000000000E+00 0. -1.
         -2    1    1    2    0  503  0.13897150674E+02 -0.15838691646E+02 -0.45017821158E+03  0.45067107421E+03  0.00000000000E+00 0.  1.
<mgrwt>
<rscale>  2 0.21071188E+02</rscale>
<asrwt>0</asrwt>
<pdfrwt beam="1">  1       21 0.15053532E-03 0.21071188E+02</pdfrwt>
<pdfrwt beam="2">  1       21 0.92623528E-01 0.21071188E+02</pdfrwt>
<totfact> 0.51283138E+07</totfact>
</mgrwt>
</event>
<event>
 4    1  0.2769537E+004  0.2410717E+02  0.7546771E-02  0.1674167E+00
         21   -1    0    0  501  502  0.00000000000E+00  0.00000000000E+00  0.37769845700E+02  0.37769845700E+02  0.00000000000E+00 0.  1.
         21   -1    0    0  502  503 -0.00000000000E+00 -0.00000000000E+00 -0.35649609509E+02  0.35649609509E+02  0.00000000000E+00 0. -1.
          2    1    1    2  501    0 -0.82916874747E+01 -0.22636335524E+02  0.28736159493E+02  0.37508967322E+02  0.00000000000E+00 0.  1.
         -2    1    1    2    0  503  0.82916874747E+01  0.22636335524E+02 -0.26615923301E+02  0.35910487888E+02  0.00000000000E+00 0. -1.
<mgrwt>
<rscale>  2 0.24107173E+02</rscale>
<asrwt>0</asrwt>
<pdfrwt beam="1">  1       21 0.58107455E-02 0.24107173E+02</pdfrwt>
<pdfrwt beam="2">  1       21 0.54845553E-02 0.24107173E+02</pdfrwt>
<totfact> 0.35215815E+07</totfact>
</mgrwt>
</event>
<event>
 4    1  0.2769537E+004  0.3086821E+02  0.7546771E-02  0.1588685E+00
         21   -1    0    0  501  502  0.00000000000E+00  0.00000000000E+00  0.25548633761E+03  0.25548633761E+03  0.00000000000E+00 0.  1.
         21   -1    0    0  502  503 -0.00000000000E+00 -0.00000000000E+00 -0.62514575426E+01  0.62514575426E+01  0.00000000000E+00 0. -1.
          2    1    1    2  501    0  0.28155879714E+02  0.12652771075E+02  0.20773855421E+03  0.21001941121E+03  0.00000000000E+00 0.  1.
         -2    1    1    2    0  503 -0.28155879714E+02 -0.12652771075E+02  0.41496325859E+02  0.51718383947E+02  0.00000000000E+00 0. -1.
<mgrwt>
<rscale>  2 0.30868207E+02</rscale>
<asrwt>0</asrwt>
<pdfrwt beam="1">  1       21 0.39305582E-01 0.30868207E+02</pdfrwt>
<pdfrwt beam="2">  1       21 0.96176290E-03 0.30868207E+02</pdfrwt>
<totfact> 0.20364070E+07</totfact>
</mgrwt>
</event>
<event>
 4    1  0.2769537E+004  0.2065343E+02  0.7546771E-02  0.1732638E+00
         21   -1    0    0  501  502  0.00000000000E+00  0.00000000000E+00  0.62176020782E+01  0.62176020782E+01  0.00000000000E+00 0.  1.
         21   -1    0    0  502  503 -0.00000000000E+00 -0.00000000000E+00 -0.82714600850E+02  0.82714600850E+02  0.00000000000E+00 0. -1.
          2    1    1    2  501    0 -0.12311314808E+02  0.16582992686E+02 -0.19883892102E+02  0.28669378853E+02  0.00000000000E+00 0. -1.
         -2    1    1    2    0  503  0.12311314808E+02 -0.16582992686E+02 -0.56613106670E+02  0.60262824076E+02  0.00000000000E+00 0.  1.
<mgrwt>
<rscale>  2 0.20653429E+02</rscale>
<asrwt>0</asrwt>
<pdfrwt beam="1">  1       21 0.95655411E-03 0.20653429E+02</pdfrwt>
<pdfrwt beam="2">  1       21 0.12725324E-01 0.20653429E+02</pdfrwt>
<totfact> 0.13825522E+08</totfact>
</mgrwt>
</event>
<event>
 4    1  0.2769537E+004  0.2423285E+02  0.7546771E-02  0.1672272E+00
         21   -1    0    0  503  502  0.00000000000E+00  0.00000000000E+00  0.58065366824E+01  0.58065366824E+01  0.00000000000E+00 0. -1.
         21   -1    0    0  501  503 -0.00000000000E+00 -0.00000000000E+00 -0.15108407627E+03  0.15108407627E+03  0.00000000000E+00 0.  1.
          2    1    1    2  501    0  0.75513224082E+01 -0.23026259692E+02 -0.11774443242E+03  0.12021223927E+03  0.00000000000E+00 0.  1.
         -2    1    1    2    0  502 -0.75513224082E+01  0.23026259692E+02 -0.27533107176E+02  0.36678373686E+02  0.00000000000E+00 0. -1.
<mgrwt>
<rscale>  2 0.24232852E+02</rscale>
<asrwt>0</asrwt>
<pdfrwt beam="1">  1       21 0.89331334E-03 0.24232852E+02</pdfrwt>
<pdfrwt beam="2">  1       21 0.23243704E-01 0.24232852E+02</pdfrwt>
<totfact> 0.56760301E+07</totfact>
</mgrwt>
</event>
<event>
 4    1  0.2769537E+004  0.5457238E+02  0.7546771E-02  0.1422132E+00
         21   -1    0    0  501  502  0.00000000000E+00  0.00000000000E+00  0.41656717560E+02  0.41656717560E+02  0.00000000000E+00 0.  1.
         21   -1    0    0  502  503 -0.00000000000E+00 -0.00000000000E+00 -0.13754696527E+03  0.13754696527E+03  0.00000000000E+00 0. -1.
          2    1    1    2  501    0  0.53702172394E+02  0.97067405084E+01  0.14147844300E+02  0.56376463435E+02  0.00000000000E+00 0.  1.
         -2    1    1    2    0  503 -0.53702172394E+02 -0.97067405084E+01 -0.11003809201E+03  0.12282721940E+03  0.00000000000E+00 0. -1.
<mgrwt>
<rscale>  2 0.54572375E+02</rscale>
<asrwt>0</asrwt>
<pdfrwt beam="1">  1       21 0.64087257E-02 0.54572375E+02</pdfrwt>
<pdfrwt beam="2">  1       21 0.21161072E-01 0.54572375E+02</pdfrwt>
<totfact> 0.34378478E+06</totfact>
</mgrwt>
</event>
<event>
 4    1  0.2769537E+004  0.2206295E+02  0.7546771E-02  0.1707166E+00
         21   -1    0    0  501  502  0.00000000000E+00  0.00000000000E+00  0.21685931962E+02  0.21685931962E+02  0.00000000000E+00 0.  1.
         21   -1    0    0  502  503 -0.00000000000E+00 -0.00000000000E+00 -0.24461008519E+02  0.24461008519E+02  0.00000000000E+00 0. -1.
          2    1    1    2  501    0 -0.13154986570E+02  0.17712147166E+02 -0.80090556488E+01  0.23471659534E+02  0.00000000000E+00 0. -1.
         -2    1    1    2    0  503  0.13154986570E+02 -0.17712147166E+02  0.52339790917E+01  0.22675280947E+02  0.00000000000E+00 0.  1.
<mgrwt>
<rscale>  2 0.22062952E+02</rscale>
<asrwt>0</asrwt>
<pdfrwt beam="1">  1       21 0.33362972E-02 0.22062952E+02</pdfrwt>
<pdfrwt beam="2">  1       21 0.37632321E-02 0.22062952E+02</pdfrwt>
<totfact> 0.15027819E+08</totfact>
</mgrwt>
</event>
<event>
 4    1  0.2769537E+004  0.2002423E+02  0.7546771E-02  0.1744847E+00
         21   -1    0    0  503  502  0.00000000000E+00  0.00000000000E+00  0.22741472560E+02  0.22741472560E+02  0.00000000000E+00 0. -1.
         21   -1    0    0  501  503 -0.00000000000E+00 -0.00000000000E+00 -0.20283269422E+02  0.20283269422E+02  0.00000000000E+00 0.  1.
          2    1    1    2  501    0 -0.17215045859E+02  0.10227990446E+02 -0.65490289555E+01  0.21067970304E+02  0.00000000000E+00 0.  1.
         -2    1    1    2    0  502  0.17215045859E+02 -0.10227990446E+02  0.90072320939E+01  0.21956771677E+02  0.00000000000E+00 0. -1.
<mgrwt>
<rscale>  2 0.20024225E+02</rscale>
<asrwt>0</asrwt>
<pdfrwt beam="1">  1       21 0.34986881E-02 0.20024225E+02</pdfrwt>
<pdfrwt beam="2">  1       21 0.31205030E-02 0.20024225E+02</pdfrwt>
<totfact> 0.18124821E+08</totfact>
</mgrwt>
</event>
<event>
 4    1  0.2769537E+004  0.2064117E+02  0.7546771E-02  0.1732870E+00
         21   -1    0    0  501  502  0.00000000000E+00  0.00000000000E+00  0.35437849171E+03  0.35437849171E+03  0.00000000000E+00 0. -1.
         21   -1    0    0  502  503 -0.00000000000E+00 -0.00000000000E+00 -0.21513042518E+01  0.21513042518E+01  0.00000000000E+00 0.  1.
          2    1    1    2  501    0  0.37385050427E+01 -0.20299792377E+02  0.29451483981E+03  0.29523727553E+03  0.00000000000E+00 0. -1.
         -2    1    1    2    0  503 -0.37385050427E+01  0.20299792377E+02  0.57712347640E+02  0.61292520429E+02  0.00000000000E+00 0.  1.
<mgrwt>
<rscale>  2 0.20641172E+02</rscale>
<asrwt>0</asrwt>
<pdfrwt beam="1">  1       21 0.54519722E-01 0.20641172E+02</pdfrwt>
<pdfrwt beam="2">  1       21 0.33097017E-03 0.20641172E+02</pdfrwt>
<totfact> 0.48489492E+07</totfact>
</mgrwt>
</event>
<event>
 4    1  0.2769537E+004  0.3869434E+02  0.7546771E-02  0.1518046E+00
         21   -1    0    0  501  502  0.00000000000E+00  0.00000000000E+00  0.13667235423E+02  0.13667235423E+02  0.00000000000E+00 0.  1.
         21   -1    0    0  502  503 -0.00000000000E+00 -0.00000000000E+00 -0.18827041953E+03  0.18827041953E+03  0.00000000000E+00 0. -1.
          2    1    1    2  501    0  0.16953090437E+02 -0.34782826895E+02 -0.22012802156E+02  0.44517589568E+02  0.00000000000E+00 0.  1.
         -2    1    1    2    0  503 -0.16953090437E+02  0.34782826895E+02 -0.15259038195E+03  0.15742006539E+03  0.00000000000E+00 0. -1.
<mgrwt>
<rscale>  2 0.38694345E+02</rscale>
<asrwt>0</asrwt>
<pdfrwt beam="1">  1       21 0.21026516E-02 0.38694345E+02</pdfrwt>
<pdfrwt beam="2">  1       21 0.28964680E-01 0.38694345E+02</pdfrwt>
<totfact> 0.11218635E+07</totfact>
</mgrwt>
</event>
<event>
 4    1  0.2769537E+004  0.3030758E+02  0.7546771E-02  0.1594713E+00
         21   -1    0    0  503  502  0.00000000000E+00  0.00000000000E+00  0.18290429885E+02  0.18290429885E+02  0.00000000000E+00 0. -1.
         21   -1    0    0  501  503 -0.00000000000E+00 -0.00000000000E+00 -0.59800816699E+02  0.59800816699E+02  0.00000000000E+00 0.  1.
          2    1    1    2  501    0 -0.14505031826E+02  0.26611153339E+02 -0.36383612900E+02  0.47353106740E+02  0.00000000000E+00 0.  1.
         -2    1    1    2    0  502  0.14505031826E+02 -0.26611153339E+02 -0.51267739138E+01  0.30738139844E+02  0.00000000000E+00 0. -1.
<mgrwt>
<rscale>  2 0.30307580E+02</rscale>
<asrwt>0</asrwt>
<pdfrwt beam="1">  1       21 0.28139122E-02 0.30307580E+02</pdfrwt>
<pdfrwt beam="2">  1       21 0.92001258E-02 0.30307580E+02</pdfrwt>
<totfact> 0.50426593E+07</totfact>
</mgrwt>
</event>
<event>
 4    1  0.2769537E+004  0.2892619E+02  0.7546771E-02  0.1610271E+00
         21   -1    0    0  501  502  0.00000000000E+00  0.00000000000E+00  0.11709058407E+03  0.11709058407E+03  0.00000000000E+00 0. -1.
         21   -1    0    0  502  503 -0.00000000000E+00 -0.00000000000E+00 -0.74934928778E+01  0.74934928778E+01  0.00000000000E+00 0.  1.
          2    1    1    2  501    0  0.11439214296E+02 -0.26568187366E+02  0.68213543778E+02  0.74093263920E+02  0.00000000000E+00 0. -1.
         -2    1    1    2    0  503 -0.11439214296E+02  0.26568187366E+02  0.41383547416E+02  0.50490813029E+02  0.00000000000E+00 0.  1.
<mgrwt>
<rscale>  2 0.28926185E+02</rscale>
<asrwt>0</asrwt>
<pdfrwt beam="1">  1       21 0.18013935E-01 0.28926185E+02</pdfrwt>
<pdfrwt beam="2">  1       21 0.11528451E-02 0.28926185E+02</pdfrwt>
<totfact> 0.63047831E+07</totfact>
</mgrwt>
</event>
<event>
 4    1  0.2769537E+004  0.2252047E+02  0.7546771E-02  0.1699403E+00
         21   -1    0    0  501  502  0.00000000000E+00  0.00000000000E+00  0.27017313122E+01  0.27017313122E+01  0.00000000000E+00 0.  1.
         21   -1    0    0  502  503 -0.00000000000E+00 -0.00000000000E+00 -0.19005675802E+03  0.19005675802E+03  0.00000000000E+00 0. -1.
          2    1    1    2  501    0 -0.37002903318E+01 -0.22214396204E+02 -0.82992842048E+02  0.85994089206E+02  0.00000000000E+00 0.  1.
         -2    1    1    2    0  503  0.37002903318E+01  0.22214396204E+02 -0.10436218466E+03  0.10676440013E+03  0.00000000000E+00 0. -1.
<mgrwt>
<rscale>  2 0.22520470E+02</rscale>
<asrwt>0</asrwt>
<pdfrwt beam="1">  1       21 0.41565095E-03 0.22520470E+02</pdfrwt>
<pdfrwt beam="2">  1       21 0.29239503E-01 0.22520470E+02</pdfrwt>
<totfact> 0.11477448E+08</totfact>
</mgrwt>
</event>
<event>
 4    1  0.2769537E+004  0.2172021E+02  0.7546771E-02  0.1713136E+00
         21   -1    0    0  503  502  0.00000000000E+00  0.00000000000E+00  0.44686385037E+02  0.44686385037E+02  0.00000000000E+00 0.  1.
         21   -1    0    0  501  503 -0.00000000000E+00 -0.00000000000E+00 -0.10836130983E+02  0.10836130983E+02  0.00000000000E+00 0. -1.
          2    1    1    2  501    0 -0.18026882940E+02 -0.12116061166E+02  0.12471901082E+02  0.25046272444E+02  0.00000000000E+00 0. -1.
         -2    1    1    2    0  502  0.18026882940E+02  0.12116061166E+02  0.21378352972E+02  0.30476243576E+02  0.00000000000E+00 0.  1.
<mgrwt>
<rscale>  2 0.21720208E+02</rscale>
<asrwt>0</asrwt>
<pdfrwt beam="1">  1       21 0.68748283E-02 0.21720208E+02</pdfrwt>
<pdfrwt beam="2">  1       21 0.16670971E-02 0.21720208E+02</pdfrwt>
<totfact> 0.16702308E+08</totfact>
</mgrwt>
</event>
<event>
 4    1  0.2769537E+004  0.2909955E+02  0.7546771E-02  0.1608261E+00
         21   -1    0    0  501  502  0.00000000000E+00  0.00000000000E+00  0.99293881589E+01  0.99293881589E+01  0.00000000000E+00 0. -1.
         21   -1    0    0  502  503 -0.00000000000E+00 -0.00000000000E+00 -0.22961351530E+03  0.22961351530E+03  0.00000000000E+00 0.  1.
          2    1    1    2  501    0  0.21102891487E+02  0.20036261082E+02 -0.14882799280E+02  0.32684575899E+02  0.00000000000E+00 0. -1.
         -2    1    1    2    0  503 -0.21102891487E+02 -0.20036261082E+02 -0.20480132786E+03  0.20685832756E+03  0.00000000000E+00 0.  1.
<mgrwt>
<rscale>  2 0.29099550E+02</rscale>
<asrwt>0</asrwt>
<pdfrwt beam="1">  1       21 0.15275982E-02 0.29099550E+02</pdfrwt>
<pdfrwt beam="2">  1       21 0.35325155E-01 0.29099550E+02</pdfrwt>
<totfact> 0.12184877E+07</totfact>
</mgrwt>
</event>
<event>
 4    1  0.2769537E+004  0.2614952E+02  0.7546771E-02  0.1645020E+00
         21   -1    0    0  503  502  0.00000000000E+00  0.00000000000E+00  0.96972884543E+02  0.96972884543E+02  0.00000000000E+00 0.  1.
         21   -1    0    0  501  503 -0.00000000000E+00 -0.00000000000E+00 -0.91922508264E+01  0.91922508264E+01  0.00000000000E+00 0. -1.
          2    1    1    2  501    0  0.13818239844E+02 -0.22200305501E+02  0.18273135150E+02  0.31901485623E+02  0.00000000000E+00 0. -1.
         -2    1    1    2    0  502 -0.13818239844E+02  0.22200305501E+02  0.69507498566E+02  0.74263649746E+02  0.00000000000E+00 0.  1.
<mgrwt>
<rscale>  2 0.26149518E+02</rscale>
<asrwt>0</asrwt>
<pdfrwt beam="1">  1       21 0.14918905E-01 0.26149518E+02</pdfrwt>
<pdfrwt beam="2">  1       21 0.14141925E-02 0.26149518E+02</pdfrwt>
<totfact> 0.62464333E+07</totfact>
</mgrwt>
</event>
<event>
 4    1  0.2769537E+004  0.2939767E+02  0.7546771E-02  0.1604844E+00
         21   -1    0    0  501  502  0.00000000000E+00  0.00000000000E+00  0.13177610495E+01  0.13177610495E+01  0.00000000000E+00 0.  1.
         21   -1    0    0  502  503 -0.00000000000E+00 -0.00000000000E+00 -0.65921273040E+03  0.65921273040E+03  0.00000000000E+00 0. -1.
          2    1    1    2  501    0 -0.29397234591E+02 -0.16057617723E+00 -0.30527844565E+03  0.30669064636E+03  0.00000000000E+00 0. -1.
         -2    1    1    2    0  503  0.29397234591E+02  0.16057617723E+00 -0.35261652370E+03  0.35383984509E+03  0.00000000000E+00 0.  1.
<mgrwt>
<rscale>  2 0.29397673E+02</rscale>
<asrwt>0</asrwt>
<pdfrwt beam="1">  1       21 0.20273263E-03 0.29397673E+02</pdfrwt>
<pdfrwt beam="2">  1       21 0.10141726E+00 0.29397673E+02</pdfrwt>
<totfact> 0.29278840E+07</totfact>
</mgrwt>
</event>
<event>
 4    1  0.2769537E+004  0.2098262E+02  0.7546771E-02  0.1726465E+00
         21   -1    0    0  501  502  0.00000000000E+00  0.00000000000E+00  0.45147326195E+01  0.45147326195E+01  0.00000000000E+00 0.  1.
         21   -1    0    0  502  503 -0.00000000000E+00 -0.00000000000E+00 -0.11608522142E+03  0.11608522142E+03  0.00000000000E+00 0. -1.
          2    1    1    2  501    0 -0.33112319150E+01  0.20719701298E+02 -0.31669790181E+02  0.37990076188E+02  0.00000000000E+00 0. -1.
         -2    1    1    2    0  503  0.33112319150E+01 -0.20719701298E+02 -0.79900698624E+02  0.82609877855E+02  0.00000000000E+00 0.  1.
<mgrwt>
<rscale>  2 0.20982618E+02</rscale>
<asrwt>0</asrwt>
<pdfrwt beam="1">  1       21 0.69457429E-03 0.20982618E+02</pdfrwt>
<pdfrwt beam="2">  1       21 0.17859264E-01 0.20982618E+02</pdfrwt>
<totfact> 0.12585992E+08</totfact>
</mgrwt>
</event>
<event>
 4    1  0.2769537E+004  0.2264720E+02  0.7546771E-02  0.1697294E+00
         21   -1    0    0  501  502  0.00000000000E+00  0.00000000000E+00  0.78621433695E+03  0.78621433695E+03  0.00000000000E+00 0. -1.
         21   -1    0    0  502  503 -0.00000000000E+00 -0.00000000000E+00 -0.11433330102E+01  0.11433330102E+01  0.00000000000E+00 0.  1.
          2    1    1    2  501    0 -0.33519311449E+01  0.22397769778E+02  0.65051434088E+03  0.65090844457E+03  0.00000000000E+00 0. -1.
         -2    1    1    2    0  503  0.33519311449E+01 -0.22397769778E+02  0.13455666306E+03  0.13644922538E+03  0.00000000000E+00 0.  1.
<mgrwt>
<rscale>  2 0.22647197E+02</rscale>
<asrwt>0</asrwt>
<pdfrwt beam="1">  1       21 0.12095562E+00 0.22647197E+02</pdfrwt>
<pdfrwt beam="2">  1       21 0.17589801E-03 0.22647197E+02</pdfrwt>
<totfact> 0.23115896E+07</totfact>
</mgrwt>
</event>
<event>
 4    1  0.2769537E+004  0.2582702E+02  0.7546771E-02  0.1649400E+00
         21   -1    0    0  503  502  0.00000000000E+00  0.00000000000E+00  0.40382054180E+01  0.40382054180E+01  0.00000000000E+00 0.  1.
         21   -1    0    0  501  503 -0.00000000000E+00 -0.00000000000E+00 -0.48624889532E+03  0.48624889532E+03  0.00000000000E+00 0. -1.
          2    1    1    2  501    0 -0.23012714698E+02  0.11723911077E+02 -0.44030544161E+03  0.44106225983E+03  0.00000000000E+00 0. -1.
         -2    1    1    2    0  502  0.23012714698E+02 -0.11723911077E+02 -0.41905248292E+02  0.49224840915E+02  0.00000000000E+00 0.  1.
<mgrwt>
<rscale>  2 0.25827023E+02</rscale>
<asrwt>0</asrwt>
<pdfrwt beam="1">  1       21 0.62126246E-03 0.25827023E+02</pdfrwt>
<pdfrwt beam="2">  1       21 0.74807512E-01 0.25827023E+02</pdfrwt>
<totfact> 0.10599948E+07</totfact>
</mgrwt>
</event>
<event>
 4    1  0.2769537E+004  0.2503557E+02  0.7546771E-02  0.1660492E+00
         21   -1    0    0  503  502  0.00000000000E+00  0.00000000000E+00  0.47078191753E+01  0.47078191753E+01  0.00000000000E+00 0.  1.
         21   -1    0    0  501  503 -0.00000000000E+00 -0.00000000000E+00 -0.25366148728E+03  0.25366148728E+03  0.00000000000E+00 0. -1.
          2    1    1    2  501    0  0.16435601940E+02 -0.18885200794E+02 -0.21352464652E+03  0.21498733565E+03  0.00000000000E+00 0. -1.
         -2    1    1    2    0  502 -0.16435601940E+02  0.18885200794E+02 -0.35429021587E+02  0.43381970803E+02  0.00000000000E+00 0.  1.
<mgrwt>
<rscale>  2 0.25035571E+02</rscale>
<asrwt>0</asrwt>
<pdfrwt beam="1">  1       21 0.72427990E-03 0.25035571E+02</pdfrwt>
<pdfrwt beam="2">  1       21 0.39024842E-01 0.25035571E+02</pdfrwt>
<totfact> 0.30377225E+07</totfact>
</mgrwt>
</event>
<event>
 4    1  0.2769537E+004  0.2593909E+02  0.7546771E-02  0.1647869E+00
         21   -1    0    0  503  502  0.00000000000E+00  0.00000000000E+00  0.89696800652E+02  0.89696800652E+02  0.00000000000E+00 0.  1.
         21   -1    0    0  501  503 -0.00000000000E+00 -0.00000000000E+00 -0.27338969521E+02  0.27338969521E+02  0.00000000000E+00 0. -1.
          2    1    1    2  501    0  0.12057137276E+02 -0.22966542522E+02 -0.18668610157E+02  0.31958623874E+02  0.00000000000E+00 0. -1.
         -2    1    1    2    0  502 -0.12057137276E+02  0.22966542522E+02  0.81026441288E+02  0.85077146299E+02  0.00000000000E+00 0.  1.
<mgrwt>
<rscale>  2 0.25939095E+02</rscale>
<asrwt>0</asrwt>
<pdfrwt beam="1">  1       21 0.13799508E-01 0.25939095E+02</pdfrwt>
<pdfrwt beam="2">  1       21 0.42059954E-02 0.25939095E+02</pdfrwt>
<totfact> 0.13103409E+07</totfact>
</mgrwt>
</event>
<event>
 4    1  0.2769537E+004  0.2014681E+02  0.7546771E-02  0.1742424E+00
         21   -1    0    0  503  502  0.00000000000E+00  0.00000000000E+00  0.39756308230E+01  0.39756308230E+01  0.00000000000E+00 0.  1.
         21   -1    0    0  501  503 -0.00000000000E+00 -0.00000000000E+00 -0.19325812977E+03  0.19325812977E+03  0.00000000000E+00 0. -1.
          2    1    1    2  501    0 -0.19558621958E+02  0.48326338534E+01 -0.16237276297E+03  0.16361787248E+03  0.00000000000E+00 0. -1.
         -2    1    1    2    0  502  0.19558621958E+02 -0.48326338534E+01 -0.26909735983E+02  0.33615888111E+02  0.00000000000E+00 0.  1.
<mgrwt>
<rscale>  2 0.20146812E+02</rscale>
<asrwt>0</asrwt>
<pdfrwt beam="1">  1       21 0.61163534E-03 0.20146812E+02</pdfrwt>
<pdfrwt beam="2">  1       21 0.29732028E-01 0.20146812E+02</pdfrwt>
<totfact> 0.61209449E+07</totfact>
</mgrwt>
</event>
<event>
 4    1  0.2769537E+004  0.2560218E+02  0.7546771E-02  0.1652500E+00
         21   -1    0    0  503  502  0.00000000000E+00  0.00000000000E+00  0.25053334930E+03  0.25053334930E+03  0.00000000000E+00 0.  1.
         21   -1    0    0  501  503 -0.00000000000E+00 -0.00000000000E+00 -0.41422270747E+01  0.41422270747E+01  0.00000000000E+00 0. -1.
          2    1    1    2  501    0  0.10238262242E+02  0.23465928104E+02  0.45908561396E+02  0.52564891372E+02  0.00000000000E+00 0. -1.
         -2    1    1    2    0  502 -0.10238262242E+02 -0.23465928104E+02  0.20048256083E+03  0.20211068500E+03  0.00000000000E+00 0.  1.
<mgrwt>
<rscale>  2 0.25602183E+02</rscale>
<asrwt>0</asrwt>
<pdfrwt beam="1">  1       21 0.38543580E-01 0.25602183E+02</pdfrwt>
<pdfrwt beam="2">  1       21 0.63726590E-03 0.25602183E+02</pdfrwt>
<totfact> 0.37812279E+07</totfact>
</mgrwt>
</event>
<event>
 4    1  0.2769537E+004  0.3790617E+02  0.7546771E-02  0.1524210E+00
         21   -1    0    0  501  502  0.00000000000E+00  0.00000000000E+00  0.11605800966E+02  0.11605800966E+02  0.00000000000E+00 0. -1.
         21   -1    0    0  502  503 -0.00000000000E+00 -0.00000000000E+00 -0.12390037792E+03  0.12390037792E+03  0.00000000000E+00 0.  1.
          2    1    1    2  501    0  0.18913271024E+01  0.37858955842E+02 -0.54285783642E+02  0.66210452054E+02  0.00000000000E+00 0.  1.
         -2    1    1    2    0  503 -0.18913271024E+01 -0.37858955842E+02 -0.58008793309E+02  0.69295726830E+02  0.00000000000E+00 0. -1.
<mgrwt>
<rscale>  2 0.37906169E+02</rscale>
<asrwt>0</asrwt>
<pdfrwt beam="1">  1       21 0.17855079E-02 0.37906169E+02</pdfrwt>
<pdfrwt beam="2">  1       21 0.19061596E-01 0.37906169E+02</pdfrwt>
<totfact> 0.30763007E+07</totfact>
</mgrwt>
</event>
<event>
 4    1  0.2769537E+004  0.2496710E+02  0.7546771E-02  0.1661475E+00
         21   -1    0    0  501  502  0.00000000000E+00  0.00000000000E+00  0.51787717642E+03  0.51787717642E+03  0.00000000000E+00 0.  1.
         21   -1    0    0  502  503 -0.00000000000E+00 -0.00000000000E+00 -0.67528158588E+01  0.67528158588E+01  0.00000000000E+00 0. -1.
          2    1    1    2  501    0 -0.24893341458E+02 -0.19176918587E+01  0.49335214722E+03  0.49398349888E+03  0.00000000000E+00 0.  1.
         -2    1    1    2    0  503  0.24893341458E+02  0.19176918587E+01  0.17772213337E+02  0.30646493403E+02  0.00000000000E+00 0. -1.
<mgrwt>
<rscale>  2 0.24967098E+02</rscale>
<asrwt>0</asrwt>
<pdfrwt beam="1">  1       21 0.79673381E-01 0.24967098E+02</pdfrwt>
<pdfrwt beam="2">  1       21 0.10388952E-02 0.24967098E+02</pdfrwt>
<totfact> 0.42791021E+06</totfact>
</mgrwt>
</event>
<event>
 4    1  0.2769537E+004  0.4689469E+02  0.7546771E-02  0.1462849E+00
         21   -1    0    0  503  502  0.00000000000E+00  0.00000000000E+00  0.25129556341E+02  0.25129556341E+02  0.00000000000E+00 0. -1.
         21   -1    0    0  501  503 -0.00000000000E+00 -0.00000000000E+00 -0.99980753322E+02  0.99980753322E+02  0.00000000000E+00 0.  1.
          2    1    1    2  501    0  0.39716414203E+02 -0.24934272407E+02 -0.59517576360E+02  0.75772378829E+02  0.00000000000E+00 0.  1.
         -2    1    1    2    0  502 -0.39716414203E+02  0.24934272407E+02 -0.15333620621E+02  0.49337930834E+02  0.00000000000E+00 0. -1.
<mgrwt>
<rscale>  2 0.46894685E+02</rscale>
<asrwt>0</asrwt>
<pdfrwt beam="1">  1       21 0.38660856E-02 0.46894685E+02</pdfrwt>
<pdfrwt beam="2">  1       21 0.15381654E-01 0.46894685E+02</pdfrwt>
<totfact> 0.13657341E+07</totfact>
</mgrwt>
</event>
<event>
 4    1  0.2769537E+004  0.2638226E+02  0.7546771E-02  0.1641907E+00
         21   -1    0    0  501  502  0.00000000000E+00  0.00000000000E+00  0.18609349181E+03  0.18609349181E+03  0.00000000000E+00 0. -1.
         21   -1    0    0  502  503 -0.00000000000E+00 -0.00000000000E+00 -0.46317021943E+01  0.46317021943E+01  0.00000000000E+00 0.  1.
          2    1    1    2  501    0 -0.39594346734E+01  0.26083455240E+02  0.13256909994E+03  0.13516874646E+03  0.00000000000E+00 0. -1.
         -2    1    1    2    0  503  0.39594346734E+01 -0.26083455240E+02  0.48892689672E+02  0.55556447542E+02  0.00000000000E+00 0.  1.
<mgrwt>
<rscale>  2 0.26382262E+02</rscale>
<asrwt>0</asrwt>
<pdfrwt beam="1">  1       21 0.28629762E-01 0.26382262E+02</pdfrwt>
<pdfrwt beam="2">  1       21 0.71256971E-03 0.26382262E+02</pdfrwt>
<totfact> 0.55862151E+07</totfact>
</mgrwt>
</event>
<event>
 4    1  0.2769537E+004  0.2100316E+02  0.7546771E-02  0.1726085E+00
         21   -1    0    0  501  502  0.00000000000E+00  0.00000000000E+00  0.35100890095E+03  0.35100890095E+03  0.00000000000E+00 0.  1.
         21   -1    0    0  502  503 -0.00000000000E+00 -0.00000000000E+00 -0.21267659007E+01  0.21267659007E+01  0.00000000000E+00 0. -1.
          2    1    1    2  501    0  0.15580522638E+02  0.14084746768E+02  0.28737219765E+03  0.28813870403E+03  0.00000000000E+00 0.  1.
         -2    1    1    2    0  503 -0.15580522638E+02 -0.14084746768E+02  0.61509937399E+02  0.64996962822E+02  0.00000000000E+00 0. -1.
<mgrwt>
<rscale>  2 0.21003161E+02</rscale>
<asrwt>0</asrwt>
<pdfrwt beam="1">  1       21 0.54001323E-01 0.21003161E+02</pdfrwt>
<pdfrwt beam="2">  1       21 0.32719503E-03 0.21003161E+02</pdfrwt>
<totfact> 0.50449893E+07</totfact>
</mgrwt>
</event>
<event>
 4    1  0.2769537E+004  0.2789199E+02  0.7546771E-02  0.1622631E+00
         21   -1    0    0  503  502  0.00000000000E+00  0.00000000000E+00  0.39040008847E+03  0.39040008847E+03  0.00000000000E+00 0. -1.
         21   -1    0    0  501  503 -0.00000000000E+00 -0.00000000000E+00 -0.58652198054E+01  0.58652198054E+01  0.00000000000E+00 0.  1.
          2    1    1    2  501    0 -0.11495797284E+02  0.25412785758E+02  0.31273727724E+02  0.41904762032E+02  0.00000000000E+00 0.  1.
         -2    1    1    2    0  502  0.11495797284E+02 -0.25412785758E+02  0.35326114094E+03  0.35436054624E+03  0.00000000000E+00 0. -1.
<mgrwt>
<rscale>  2 0.27891989E+02</rscale>
<asrwt>0</asrwt>
<pdfrwt beam="1">  1       21 0.60061532E-01 0.27891989E+02</pdfrwt>
<pdfrwt beam="2">  1       21 0.90234181E-03 0.27891989E+02</pdfrwt>
<totfact> 0.96192688E+06</totfact>
</mgrwt>
</event>
<event>
 4    1  0.2769537E+004  0.2035774E+02  0.7546771E-02  0.1738306E+00
         21   -1    0    0  503  502  0.00000000000E+00  0.00000000000E+00  0.39962517614E+02  0.39962517614E+02  0.00000000000E+00 0.  1.
         21   -1    0    0  501  503 -0.00000000000E+00 -0.00000000000E+00 -0.15461180474E+02  0.15461180474E+02  0.00000000000E+00 0. -1.
          2    1    1    2  501    0 -0.13696689397E+02 -0.15061147926E+02 -0.36503700934E+01  0.20682424401E+02  0.00000000000E+00 0. -1.
         -2    1    1    2    0  502  0.13696689397E+02  0.15061147926E+02  0.28151707233E+02  0.34741273687E+02  0.00000000000E+00 0.  1.
<mgrwt>
<rscale>  2 0.20357738E+02</rscale>
<asrwt>0</asrwt>
<pdfrwt beam="1">  1       21 0.61480796E-02 0.20357738E+02</pdfrwt>
<pdfrwt beam="2">  1       21 0.23786432E-02 0.20357738E+02</pdfrwt>
<totfact> 0.11380038E+08</totfact>
</mgrwt>
</event>
<event>
 4    1  0.2769537E+004  0.2130875E+02  0.7546771E-02  0.1720488E+00
         21   -1    0    0  503  502  0.00000000000E+00  0.00000000000E+00  0.23048679090E+02  0.23048679090E+02  0.00000000000E+00 0. -1.
         21   -1    0    0  501  503 -0.00000000000E+00 -0.00000000000E+00 -0.33742336240E+02  0.33742336240E+02  0.00000000000E+00 0.  1.
          2    1    1    2  501    0 -0.20318469746E+02 -0.64204865224E+01 -0.23664874463E+02  0.31844766341E+02  0.00000000000E+00 0.  1.
         -2    1    1    2    0  502  0.20318469746E+02  0.64204865224E+01  0.12971217313E+02  0.24946248988E+02  0.00000000000E+00 0. -1.
<mgrwt>
<rscale>  2 0.21308751E+02</rscale>
<asrwt>0</asrwt>
<pdfrwt beam="1">  1       21 0.35459506E-02 0.21308751E+02</pdfrwt>
<pdfrwt beam="2">  1       21 0.51911286E-02 0.21308751E+02</pdfrwt>
<totfact> 0.81367955E+07</totfact>
</mgrwt>
</event>
<event>
 4    1  0.2769537E+004  0.2093732E+02  0.7546771E-02  0.1727306E+00
         21   -1    0    0  503  502  0.00000000000E+00  0.00000000000E+00  0.48037034136E+02  0.48037034136E+02  0.00000000000E+00 0. -1.
         21   -1    0    0  501  503 -0.00000000000E+00 -0.00000000000E+00 -0.13128244864E+02  0.13128244864E+02  0.00000000000E+00 0.  1.
          2    1    1    2  501    0 -0.42700254501E+01  0.20497274332E+02  0.56788274769E+00  0.20945020010E+02  0.00000000000E+00 0. -1.
         -2    1    1    2    0  502  0.42700254501E+01 -0.20497274332E+02  0.34340906524E+02  0.40220258990E+02  0.00000000000E+00 0.  1.
<mgrwt>
<rscale>  2 0.20937320E+02</rscale>
<asrwt>0</asrwt>
<pdfrwt beam="1">  1       21 0.73903128E-02 0.20937320E+02</pdfrwt>
<pdfrwt beam="2">  1       21 0.20197300E-02 0.20937320E+02</pdfrwt>
<totfact> 0.10966486E+08</totfact>
</mgrwt>
</event>
<event>
 4    1  0.2769537E+004  0.5525309E+02  0.7546771E-02  0.1418906E+00
         21   -1    0    0  501  502  0.00000000000E+00  0.00000000000E+00  0.22563115714E+04  0.22563115714E+04  0.00000000000E+00 0.  1.
         21   -1    0    0  502  503 -0.00000000000E+00 -0.00000000000E+00 -0.14452421694E+01  0.14452421694E+01  0.00000000000E+00 0. -1.
          2    1    1    2  501    0  0.42870877908E+02  0.34856732491E+02  0.14125495652E+04  0.14136297882E+04  0.00000000000E+00 0.  1.
         -2    1    1    2    0  503 -0.42870877908E+02 -0.34856732491E+02  0.84231676407E+03  0.84412702540E+03  0.00000000000E+00 0. -1.
<mgrwt>
<rscale>  2 0.55253090E+02</rscale>
<asrwt>0</asrwt>
<pdfrwt beam="1">  1       21 0.34712204E+00 0.55253090E+02</pdfrwt>
<pdfrwt beam="2">  1       21 0.22234675E-03 0.55253090E+02</pdfrwt>
<totfact> 0.82742075E+05</totfact>
</mgrwt>
</event>
<event>
 4    1  0.2769537E+004  0.2511788E+02  0.7546771E-02  0.1659315E+00
         21   -1    0    0  501  502  0.00000000000E+00  0.00000000000E+00  0.23914172796E+02  0.23914172796E+02  0.00000000000E+00 0.  1.
         21   -1    0    0  502  503 -0.00000000000E+00 -0.00000000000E+00 -0.29262299465E+02  0.29262299465E+02  0.00000000000E+00 0. -1.
          2    1    1    2  501    0  0.23981365446E+02  0.74700671250E+01  0.56673808081E+01  0.25749310606E+02  0.00000000000E+00 0.  1.
         -2    1    1    2    0  503 -0.23981365446E+02 -0.74700671250E+01 -0.11015507477E+02  0.27427161655E+02  0.00000000000E+00 0. -1.
<mgrwt>
<rscale>  2 0.25117878E+02</rscale>
<asrwt>0</asrwt>
<pdfrwt beam="1">  1       21 0.36791035E-02 0.25117878E+02</pdfrwt>
<pdfrwt beam="2">  1       21 0.45018922E-02 0.25117878E+02</pdfrwt>
<totfact> 0.10087649E+08</totfact>
</mgrwt>
</event>
<event>
 4    1  0.2769537E+004  0.2410221E+02  0.7546771E-02  0.1674242E+00
         21   -1    0    0  501  502  0.00000000000E+00  0.00000000000E+00  0.99693610643E+03  0.99693610643E+03  0.00000000000E+00 0.  1.
         21   -1    0    0  502  503 -0.00000000000E+00 -0.00000000000E+00 -0.17436102789E+01  0.17436102789E+01  0.00000000000E+00 0. -1.
          2    1    1    2  501    0 -0.22292624366E+02  0.91627179778E+01  0.90504266957E+03  0.90536354590E+03  0.00000000000E+00 0.  1.
         -2    1    1    2    0  503  0.22292624366E+02 -0.91627179778E+01  0.90149826581E+02  0.93316170809E+02  0.00000000000E+00 0. -1.
<mgrwt>
<rscale>  2 0.24102209E+02</rscale>
<asrwt>0</asrwt>
<pdfrwt beam="1">  1       21 0.15337433E+00 0.24102209E+02</pdfrwt>
<pdfrwt beam="2">  1       21 0.26824853E-03 0.24102209E+02</pdfrwt>
<totfact> 0.72961187E+06</totfact>
</mgrwt>
</event>
<event>
 4    1  0.2769537E+004  0.2266419E+02  0.7546771E-02  0.1697012E+00
         21   -1    0    0  501  502  0.00000000000E+00  0.00000000000E+00  0.14645504136E+04  0.14645504136E+04  0.00000000000E+00 0.  1.
         21   -1    0    0  502  503 -0.00000000000E+00 -0.00000000000E+00 -0.35073480572E+00  0.35073480572E+00  0.00000000000E+00 0. -1.
          2    1    1    2  501    0 -0.22487108215E+02 -0.28276634552E+01  0.73389579656E+03  0.73424567137E+03  0.00000000000E+00 0. -1.
         -2    1    1    2    0  503  0.22487108215E+02  0.28276634552E+01  0.73030388221E+03  0.73065547701E+03  0.00000000000E+00 0.  1.
<mgrwt>
<rscale>  2 0.22664195E+02</rscale>
<asrwt>0</asrwt>
<pdfrwt beam="1">  1       21 0.22531055E+00 0.22664195E+02</pdfrwt>
<pdfrwt beam="2">  1       21 0.53960374E-04 0.22664195E+02</pdfrwt>
<totfact> 0.27161223E+07</totfact>
</mgrwt>
</event>
<event>
 4    1  0.2769537E+004  0.2669177E+02  0.7546771E-02  0.1637828E+00
         21   -1    0    0  503  502  0.00000000000E+00  0.00000000000E+00  0.10720278912E+02  0.10720278912E+02  0.00000000000E+00 0.  1.
         21   -1    0    0  501  503 -0.00000000000E+00 -0.00000000000E+00 -0.66490400644E+02  0.66490400644E+02  0.00000000000E+00 0. -1.
          2    1    1    2  501    0  0.51239061096E+01 -0.26195351473E+02 -0.27035996787E+02  0.37992051470E+02  0.00000000000E+00 0.  1.
         -2    1    1    2    0  502 -0.51239061096E+01  0.26195351473E+02 -0.28734124944E+02  0.39218628086E+02  0.00000000000E+00 0. -1.
<mgrwt>
<rscale>  2 0.26691775E+02</rscale>
<asrwt>0</asrwt>
<pdfrwt beam="1">  1       21 0.16492737E-02 0.26691775E+02</pdfrwt>
<pdfrwt beam="2">  1       21 0.10229292E-01 0.26691775E+02</pdfrwt>
<totfact> 0.93846165E+07</totfact>
</mgrwt>
</event>
<event>
 4    1  0.2769537E+004  0.8243802E+02  0.7546771E-02  0.1322272E+00
         21   -1    0    0  503  502  0.00000000000E+00  0.00000000000E+00  0.29623216740E+02  0.29623216740E+02  0.00000000000E+00 0.  1.
         21   -1    0    0  501  503 -0.00000000000E+00 -0.00000000000E+00 -0.23770936666E+03  0.23770936666E+03  0.00000000000E+00 0. -1.
          2    1    1    2  501    0  0.82171095666E+02  0.66285880447E+01 -0.12901059769E+03  0.15310049464E+03  0.00000000000E+00 0.  1.
         -2    1    1    2    0  502 -0.82171095666E+02 -0.66285880447E+01 -0.79075552229E+02  0.11423208876E+03  0.00000000000E+00 0. -1.
<mgrwt>
<rscale>  2 0.82438020E+02</rscale>
<asrwt>0</asrwt>
<pdfrwt beam="1">  1       21 0.45574180E-02 0.82438020E+02</pdfrwt>
<pdfrwt beam="2">  1       21 0.36570671E-01 0.82438020E+02</pdfrwt>
<totfact> 0.22197037E+06</totfact>
</mgrwt>
</event>
<event>
 4    1  0.2769537E+004  0.2390033E+02  0.7546771E-02  0.1677318E+00
         21   -1    0    0  501  502  0.00000000000E+00  0.00000000000E+00  0.25233833018E+01  0.25233833018E+01  0.00000000000E+00 0. -1.
         21   -1    0    0  502  503 -0.00000000000E+00 -0.00000000000E+00 -0.31938463681E+03  0.31938463681E+03  0.00000000000E+00 0.  1.
          2    1    1    2  501    0 -0.20131613410E+02  0.12881922903E+02 -0.71571895335E+02  0.75457020866E+02  0.00000000000E+00 0. -1.
         -2    1    1    2    0  503  0.20131613410E+02 -0.12881922903E+02 -0.24528935818E+03  0.24645099925E+03  0.00000000000E+00 0.  1.
<mgrwt>
<rscale>  2 0.23900330E+02</rscale>
<asrwt>0</asrwt>
<pdfrwt beam="1">  1       21 0.38821269E-03 0.23900330E+02</pdfrwt>
<pdfrwt beam="2">  1       21 0.49136114E-01 0.23900330E+02</pdfrwt>
<totfact> 0.48707627E+07</totfact>
</mgrwt>
</event>
<event>
 4    1  0.2769537E+004  0.2371316E+02  0.7546771E-02  0.1680204E+00
         21   -1    0    0  501  502  0.00000000000E+00  0.00000000000E+00  0.20600313518E+02  0.20600313518E+02  0.00000000000E+00 0.  1.
         21   -1    0    0  502  503 -0.00000000000E+00 -0.00000000000E+00 -0.39194705618E+02  0.39194705618E+02  0.00000000000E+00 0. -1.
          2    1    1    2  501    0 -0.22014149650E+02  0.88142537803E+01  0.71754873480E+01  0.24775017118E+02  0.00000000000E+00 0.  1.
         -2    1    1    2    0  503  0.22014149650E+02 -0.88142537803E+01 -0.25769879448E+02  0.35020002017E+02  0.00000000000E+00 0. -1.
<mgrwt>
<rscale>  2 0.23713158E+02</rscale>
<asrwt>0</asrwt>
<pdfrwt beam="1">  1       21 0.31692790E-02 0.23713158E+02</pdfrwt>
<pdfrwt beam="2">  1       21 0.60299546E-02 0.23713158E+02</pdfrwt>
<totfact> 0.78649451E+07</totfact>
</mgrwt>
</event>
<event>
 4    1  0.2769537E+004  0.2067802E+02  0.7546771E-02  0.1732171E+00
         21   -1    0    0  503  502  0.00000000000E+00  0.00000000000E+00  0.81663646207E+00  0.81663646207E+00  0.00000000000E+00 0. -1.
         21   -1    0    0  501  503 -0.00000000000E+00 -0.00000000000E+00 -0.58789977151E+03  0.58789977151E+03  0.00000000000E+00 0.  1.
          2    1    1    2  501    0  0.17169458423E+02  0.11523465177E+02 -0.39089960278E+03  0.39144613935E+03  0.00000000000E+00 0.  1.
         -2    1    1    2    0  502 -0.17169458423E+02 -0.11523465177E+02 -0.19618353227E+03  0.19727026863E+03  0.00000000000E+00 0. -1.
<mgrwt>
<rscale>  2 0.20678021E+02</rscale>
<asrwt>0</asrwt>
<pdfrwt beam="1">  1       21 0.12563618E-03 0.20678021E+02</pdfrwt>
<pdfrwt beam="2">  1       21 0.90446265E-01 0.20678021E+02</pdfrwt>
<totfact> 0.69539009E+07</totfact>
</mgrwt>
</event>
<event>
 4    1  0.2769537E+004  0.2418134E+02  0.7546771E-02  0.1673047E+00
         21   -1    0    0  501  502  0.00000000000E+00  0.00000000000E+00  0.29263339525E+02  0.29263339525E+02  0.00000000000E+00 0.  1.
         21   -1    0    0  502  503 -0.00000000000E+00 -0.00000000000E+00 -0.40064817326E+02  0.40064817326E+02  0.00000000000E+00 0. -1.
          2    1    1    2  501    0  0.47092076111E+01 -0.23718356111E+02  0.19141348681E+02  0.30840367739E+02  0.00000000000E+00 0.  1.
         -2    1    1    2    0  503 -0.47092076111E+01  0.23718356111E+02 -0.29942826482E+02  0.38487789111E+02  0.00000000000E+00 0. -1.
<mgrwt>
<rscale>  2 0.24181337E+02</rscale>
<asrwt>0</asrwt>
<pdfrwt beam="1">  1       21 0.45020523E-02 0.24181337E+02</pdfrwt>
<pdfrwt beam="2">  1       21 0.61638180E-02 0.24181337E+02</pdfrwt>
<totfact> 0.43909255E+07</totfact>
</mgrwt>
</event>
<event>
 4    1  0.2769537E+004  0.2346079E+02  0.7546771E-02  0.1684148E+00
         21   -1    0    0  501  502  0.00000000000E+00  0.00000000000E+00  0.73521766181E+01  0.73521766181E+01  0.00000000000E+00 0. -1.
         21   -1    0    0  502  503 -0.00000000000E+00 -0.00000000000E+00 -0.78641822792E+02  0.78641822792E+02  0.00000000000E+00 0.  1.
          2    1    1    2  501    0  0.23014707821E+02  0.45532315083E+01 -0.26220100759E+02  0.35183836872E+02  0.00000000000E+00 0.  1.
         -2    1    1    2    0  503 -0.23014707821E+02 -0.45532315083E+01 -0.45069545414E+02  0.50810162538E+02  0.00000000000E+00 0. -1.
<mgrwt>
<rscale>  2 0.23460791E+02</rscale>
<asrwt>0</asrwt>
<pdfrwt beam="1">  1       21 0.11311041E-02 0.23460791E+02</pdfrwt>
<pdfrwt beam="2">  1       21 0.12098742E-01 0.23460791E+02</pdfrwt>
<totfact> 0.12146682E+08</totfact>
</mgrwt>
</event>
<event>
 4    1  0.2769537E+004  0.2739139E+02  0.7546771E-02  0.1628853E+00
         21   -1    0    0  501  502  0.00000000000E+00  0.00000000000E+00  0.29249779816E+02  0.29249779816E+02  0.00000000000E+00 0. -1.
         21   -1    0    0  502  503 -0.00000000000E+00 -0.00000000000E+00 -0.49400814807E+02  0.49400814807E+02  0.00000000000E+00 0.  1.
          2    1    1    2  501    0  0.27340533180E+02  0.16684367313E+01  0.17191293196E+02  0.32339279482E+02  0.00000000000E+00 0. -1.
         -2    1    1    2    0  503 -0.27340533180E+02 -0.16684367313E+01 -0.37342328187E+02  0.46311315141E+02  0.00000000000E+00 0.  1.
<mgrwt>
<rscale>  2 0.27391393E+02</rscale>
<asrwt>0</asrwt>
<pdfrwt beam="1">  1       21 0.44999662E-02 0.27391393E+02</pdfrwt>
<pdfrwt beam="2">  1       21 0.76001253E-02 0.27391393E+02</pdfrwt>
<totfact> 0.32169150E+07</totfact>
</mgrwt>
</event>
<event>
 4    1  0.2769537E+004  0.2411393E+02  0.7546771E-02  0.1674065E+00
         21   -1    0    0  503  502  0.00000000000E+00  0.00000000000E+00  0.49550691015E+01  0.49550691015E+01  0.00000000000E+00 0.  1.
         21   -1    0    0  501  503 -0.00000000000E+00 -0.00000000000E+00 -0.11883064640E+03  0.11883064640E+03  0.00000000000E+00 0. -1.
          2    1    1    2  501    0 -0.21755552050E+02  0.10400841407E+02 -0.50030970900E+02  0.55538991674E+02  0.00000000000E+00 0. -1.
         -2    1    1    2    0  502  0.21755552050E+02 -0.10400841407E+02 -0.63844606396E+02  0.68246723825E+02  0.00000000000E+00 0.  1.
<mgrwt>
<rscale>  2 0.24113928E+02</rscale>
<asrwt>0</asrwt>
<pdfrwt beam="1">  1       21 0.76231835E-03 0.24113928E+02</pdfrwt>
<pdfrwt beam="2">  1       21 0.18281637E-01 0.24113928E+02</pdfrwt>
<totfact> 0.10950698E+08</totfact>
</mgrwt>
</event>
<event>
 4    1  0.2769537E+004  0.2028061E+02  0.7546771E-02  0.1739805E+00
         21   -1    0    0  501  502  0.00000000000E+00  0.00000000000E+00  0.12731738199E+01  0.12731738199E+01  0.00000000000E+00 0. -1.
         21   -1    0    0  502  503 -0.00000000000E+00 -0.00000000000E+00 -0.37711977141E+03  0.37711977141E+03  0.00000000000E+00 0.  1.
          2    1    1    2  501    0  0.48963679727E+01  0.19680673045E+02 -0.11628645725E+03  0.11804170217E+03  0.00000000000E+00 0. -1.
         -2    1    1    2    0  503 -0.48963679727E+01 -0.19680673045E+02 -0.25956014033E+03  0.26035124306E+03  0.00000000000E+00 0.  1.
<mgrwt>
<rscale>  2 0.20280614E+02</rscale>
<asrwt>0</asrwt>
<pdfrwt beam="1">  1       21 0.19587309E-03 0.20280614E+02</pdfrwt>
<pdfrwt beam="2">  1       21 0.58018367E-01 0.20280614E+02</pdfrwt>
<totfact> 0.91186930E+07</totfact>
</mgrwt>
</event>
<event>
 4    1  0.2769537E+004  0.2516110E+02  0.7546771E-02  0.1658699E+00
         21   -1    0    0  501  502  0.00000000000E+00  0.00000000000E+00  0.10131001773E+02  0.10131001773E+02  0.00000000000E+00 0.  1.
         21   -1    0    0  502  503 -0.00000000000E+00 -0.00000000000E+00 -0.11230971988E+03  0.11230971988E+03  0.00000000000E+00 0. -1.
          2    1    1    2  501    0  0.24645368242E+02  0.50682342068E+01 -0.10314726184E+02  0.27193285017E+02  0.00000000000E+00 0.  1.
         -2    1    1    2    0  503 -0.24645368242E+02 -0.50682342068E+01 -0.91863991926E+02  0.95247436639E+02  0.00000000000E+00 0. -1.
<mgrwt>
<rscale>  2 0.25161104E+02</rscale>
<asrwt>0</asrwt>
<pdfrwt beam="1">  1       21 0.15586157E-02 0.25161104E+02</pdfrwt>
<pdfrwt beam="2">  1       21 0.17278418E-01 0.25161104E+02</pdfrwt>
<totfact> 0.41460094E+07</totfact>
</mgrwt>
</event>
<event>
 4    1  0.2769537E+004  0.2035606E+02  0.7546771E-02  0.1738339E+00
         21   -1    0    0  503  502  0.00000000000E+00  0.00000000000E+00  0.87929232122E+01  0.87929232122E+01  0.00000000000E+00 0.  1.
         21   -1    0    0  501  503 -0.00000000000E+00 -0.00000000000E+00 -0.47476793286E+02  0.47476793286E+02  0.00000000000E+00 0. -1.
          2    1    1    2  501    0 -0.39727520841E+01  0.19964624704E+02 -0.21762812377E+02  0.29799144304E+02  0.00000000000E+00 0. -1.
         -2    1    1    2    0  502  0.39727520841E+01 -0.19964624704E+02 -0.16921057698E+02  0.26470572195E+02  0.00000000000E+00 0.  1.
<mgrwt>
<rscale>  2 0.20356056E+02</rscale>
<asrwt>0</asrwt>
<pdfrwt beam="1">  1       21 0.13527574E-02 0.20356056E+02</pdfrwt>
<pdfrwt beam="2">  1       21 0.73041220E-02 0.20356056E+02</pdfrwt>
<totfact> 0.20365051E+08</totfact>
</mgrwt>
</event>
<event>
 4    1  0.2769537E+004  0.2094582E+02  0.7546771E-02  0.1727148E+00
         21   -1    0    0  501  502  0.00000000000E+00  0.00000000000E+00  0.44971472079E+01  0.44971472079E+01  0.00000000000E+00 0.  1.
         21   -1    0    0  502  503 -0.00000000000E+00 -0.00000000000E+00 -0.10110464872E+03  0.10110464872E+03  0.00000000000E+00 0. -1.
          2    1    1    2  501    0 -0.11271652607E+02  0.17654379390E+02 -0.38412785991E+02  0.43752364413E+02  0.00000000000E+00 0.  1.
         -2    1    1    2    0  503  0.11271652607E+02 -0.17654379390E+02 -0.58194715524E+02  0.61849431518E+02  0.00000000000E+00 0. -1.
<mgrwt>
<rscale>  2 0.20945817E+02</rscale>
<asrwt>0</asrwt>
<pdfrwt beam="1">  1       21 0.69186882E-03 0.20945817E+02</pdfrwt>
<pdfrwt beam="2">  1       21 0.15554561E-01 0.20945817E+02</pdfrwt>
<totfact> 0.16024877E+08</totfact>
</mgrwt>
</event>
<event>
 4    1  0.2769537E+004  0.3140385E+02  0.7546771E-02  0.1583070E+00
         21   -1    0    0  501  502  0.00000000000E+00  0.00000000000E+00  0.22010002379E+02  0.22010002379E+02  0.00000000000E+00 0. -1.
         21   -1    0    0  502  503 -0.00000000000E+00 -0.00000000000E+00 -0.41682657371E+03  0.41682657371E+03  0.00000000000E+00 0.  1.
          2    1    1    2  501    0  0.21964735170E+02  0.22444420050E+02  0.98815628427E+01  0.32921829638E+02  0.00000000000E+00 0. -1.
         -2    1    1    2    0  503 -0.21964735170E+02 -0.22444420050E+02 -0.40469813417E+03  0.40591474645E+03  0.00000000000E+00 0.  1.
<mgrwt>
<rscale>  2 0.31403847E+02</rscale>
<asrwt>0</asrwt>
<pdfrwt beam="1">  1       21 0.33861540E-02 0.31403847E+02</pdfrwt>
<pdfrwt beam="2">  1       21 0.64127170E-01 0.31403847E+02</pdfrwt>
<totfact> 0.11096261E+06</totfact>
</mgrwt>
</event>
<event>
 4    1  0.2769537E+004  0.2123313E+02  0.7546771E-02  0.1721862E+00
         21   -1    0    0  503  502  0.00000000000E+00  0.00000000000E+00  0.19012766674E+02  0.19012766674E+02  0.00000000000E+00 0.  1.
         21   -1    0    0  501  503 -0.00000000000E+00 -0.00000000000E+00 -0.34057035098E+02  0.34057035098E+02  0.00000000000E+00 0. -1.
          2    1    1    2  501    0  0.17078617112E+02  0.12616127427E+02 -0.22146039066E+02  0.30680496737E+02  0.00000000000E+00 0. -1.
         -2    1    1    2    0  502 -0.17078617112E+02 -0.12616127427E+02  0.71017706426E+01  0.22389305035E+02  0.00000000000E+00 0.  1.
<mgrwt>
<rscale>  2 0.21233131E+02</rscale>
<asrwt>0</asrwt>
<pdfrwt beam="1">  1       21 0.29250410E-02 0.21233131E+02</pdfrwt>
<pdfrwt beam="2">  1       21 0.52395439E-02 0.21233131E+02</pdfrwt>
<totfact> 0.10808289E+08</totfact>
</mgrwt>
</event>
<event>
 4    1  0.2769537E+004  0.2933644E+02  0.7546771E-02  0.1605541E+00
         21   -1    0    0  503  502  0.00000000000E+00  0.00000000000E+00  0.11483714502E+02  0.11483714502E+02  0.00000000000E+00 0.  1.
         21   -1    0    0  501  503 -0.00000000000E+00 -0.00000000000E+00 -0.75909766612E+02  0.75909766612E+02  0.00000000000E+00 0. -1.
          2    1    1    2  501    0 -0.10821948729E+02  0.27267413758E+02 -0.37143786083E+02  0.47331673031E+02  0.00000000000E+00 0. -1.
         -2    1    1    2    0  502  0.10821948729E+02 -0.27267413758E+02 -0.27282266027E+02  0.40061808083E+02  0.00000000000E+00 0.  1.
<mgrwt>
<rscale>  2 0.29336435E+02</rscale>
<asrwt>0</asrwt>
<pdfrwt beam="1">  1       21 0.17667252E-02 0.29336435E+02</pdfrwt>
<pdfrwt beam="2">  1       21 0.11678426E-01 0.29336435E+02</pdfrwt>
<totfact> 0.69220070E+07</totfact>
</mgrwt>
</event>
<event>
 4    1  0.2769537E+004  0.2213065E+02  0.7546771E-02  0.1706002E+00
         21   -1    0    0  503  502  0.00000000000E+00  0.00000000000E+00  0.47217401168E+02  0.47217401168E+02  0.00000000000E+00 0.  1.
         21   -1    0    0  501  503 -0.00000000000E+00 -0.00000000000E+00 -0.47067286830E+02  0.47067286830E+02  0.00000000000E+00 0. -1.
          2    1    1    2  501    0 -0.99843824411E+01 -0.19750385230E+02 -0.41549860209E+02  0.47076071341E+02  0.00000000000E+00 0. -1.
         -2    1    1    2    0  502  0.99843824411E+01  0.19750385230E+02  0.41699974547E+02  0.47208616657E+02  0.00000000000E+00 0.  1.
<mgrwt>
<rscale>  2 0.22130649E+02</rscale>
<asrwt>0</asrwt>
<pdfrwt beam="1">  1       21 0.72642156E-02 0.22130649E+02</pdfrwt>
<pdfrwt beam="2">  1       21 0.72411210E-02 0.22130649E+02</pdfrwt>
<totfact> 0.15395172E+07</totfact>
</mgrwt>
</event>
<event>
 4    1  0.2769537E+004  0.3795192E+02  0.7546771E-02  0.1523848E+00
         21   -1    0    0  501  502  0.00000000000E+00  0.00000000000E+00  0.32377910212E+02  0.32377910212E+02  0.00000000000E+00 0. -1.
         21   -1    0    0  502  503 -0.00000000000E+00 -0.00000000000E+00 -0.55872637285E+02  0.55872637285E+02  0.00000000000E+00 0.  1.
          2    1    1    2  501    0 -0.36657611680E+02  0.98269046997E+01  0.81728734809E+01  0.38821957846E+02  0.00000000000E+00 0. -1.
         -2    1    1    2    0  503  0.36657611680E+02 -0.98269046997E+01 -0.31667600555E+02  0.49428589651E+02  0.00000000000E+00 0.  1.
<mgrwt>
<rscale>  2 0.37951924E+02</rscale>
<asrwt>0</asrwt>
<pdfrwt beam="1">  1       21 0.49812170E-02 0.37951924E+02</pdfrwt>
<pdfrwt beam="2">  1       21 0.85957903E-02 0.37951924E+02</pdfrwt>
<totfact> 0.23738506E+07</totfact>
</mgrwt>
</event>
<event>
 4    1  0.2769537E+004  0.2028076E+02  0.7546771E-02  0.1739802E+00
         21   -1    0    0  501  502  0.00000000000E+00  0.00000000000E+00  0.26460953593E+02  0.26460953593E+02  0.00000000000E+00 0. -1.
         21   -1    0    0  502  503 -0.00000000000E+00 -0.00000000000E+00 -0.17638912194E+02  0.17638912194E+02  0.00000000000E+00 0.  1.
          2    1    1    2  501    0  0.20040072735E+02  0.31152682331E+01  0.12009959014E+02  0.23570076939E+02  0.00000000000E+00 0. -1.
         -2    1    1    2    0  503 -0.20040072735E+02 -0.31152682331E+01 -0.31879176149E+01  0.20529788848E+02  0.00000000000E+00 0.  1.
<mgrwt>
<rscale>  2 0.20280765E+02</rscale>
<asrwt>0</asrwt>
<pdfrwt beam="1">  1       21 0.40709160E-02 0.20280765E+02</pdfrwt>
<pdfrwt beam="2">  1       21 0.27136788E-02 0.20280765E+02</pdfrwt>
<totfact> 0.17829799E+08</totfact>
</mgrwt>
</event>
<event>
 4    1  0.2769537E+004  0.2111321E+02  0.7546771E-02  0.1724056E+00
         21   -1    0    0  501  502  0.00000000000E+00  0.00000000000E+00  0.41909284547E+02  0.41909284547E+02  0.00000000000E+00 0.  1.
         21   -1    0    0  502  503 -0.00000000000E+00 -0.00000000000E+00 -0.13507986259E+02  0.13507986259E+02  0.00000000000E+00 0. -1.
          2    1    1    2  501    0 -0.77313919878E+01 -0.19646712407E+02  0.26976030709E+02  0.34256006237E+02  0.00000000000E+00 0.  1.
         -2    1    1    2    0  503  0.77313919878E+01  0.19646712407E+02  0.14252675791E+01  0.21161264569E+02  0.00000000000E+00 0. -1.
<mgrwt>
<rscale>  2 0.21113212E+02</rscale>
<asrwt>0</asrwt>
<pdfrwt beam="1">  1       21 0.64475822E-02 0.21113212E+02</pdfrwt>
<pdfrwt beam="2">  1       21 0.20781518E-02 0.21113212E+02</pdfrwt>
<totfact> 0.13114749E+08</totfact>
</mgrwt>
</event>
<event>
 4    1  0.2769537E+004  0.2450673E+02  0.7546771E-02  0.1668190E+00
         21   -1    0    0  503  502  0.00000000000E+00  0.00000000000E+00  0.28900802146E+01  0.28900802146E+01  0.00000000000E+00 0.  1.
         21   -1    0    0  501  503 -0.00000000000E+00 -0.00000000000E+00 -0.35233126702E+03  0.35233126702E+03  0.00000000000E+00 0. -1.
          2    1    1    2  501    0 -0.40521821721E+01 -0.24169391973E+02 -0.28847374710E+03  0.28951283642E+03  0.00000000000E+00 0. -1.
         -2    1    1    2    0  502  0.40521821721E+01  0.24169391973E+02 -0.60967439712E+02  0.65708510817E+02  0.00000000000E+00 0.  1.
<mgrwt>
<rscale>  2 0.24506727E+02</rscale>
<asrwt>0</asrwt>
<pdfrwt beam="1">  1       21 0.44462789E-03 0.24506727E+02</pdfrwt>
<pdfrwt beam="2">  1       21 0.54204790E-01 0.24506727E+02</pdfrwt>
<totfact> 0.33106216E+07</totfact>
</mgrwt>
</event>
<event>
 4    1  0.2769537E+004  0.2878694E+02  0.7546771E-02  0.1611898E+00
         21   -1    0    0  501  502  0.00000000000E+00  0.00000000000E+00  0.17856359524E+01  0.17856359524E+01  0.00000000000E+00 0. -1.
         21   -1    0    0  502  503 -0.00000000000E+00 -0.00000000000E+00 -0.46433008648E+03  0.46433008648E+03  0.00000000000E+00 0.  1.
          2    1    1    2  501    0  0.28448123503E+02 -0.44036760979E+01 -0.23661906710E+03  0.23836373677E+03  0.00000000000E+00 0.  1.
         -2    1    1    2    0  503 -0.28448123503E+02  0.44036760979E+01 -0.22592538343E+03  0.22775198566E+03  0.00000000000E+00 0. -1.
<mgrwt>
<rscale>  2 0.28786943E+02</rscale>
<asrwt>0</asrwt>
<pdfrwt beam="1">  1       21 0.27471298E-03 0.28786943E+02</pdfrwt>
<pdfrwt beam="2">  1       21 0.71435461E-01 0.28786943E+02</pdfrwt>
<totfact> 0.39679670E+07</totfact>
</mgrwt>
</event>
<event>
 4    1  0.2769537E+004  0.2794011E+02  0.7546771E-02  0.1622042E+00
         21   -1    0    0  503  502  0.00000000000E+00  0.00000000000E+00  0.12930337643E+02  0.12930337643E+02  0.00000000000E+00 0.  1.
         21   -1    0    0  501  503 -0.00000000000E+00 -0.00000000000E+00 -0.69064929371E+02  0.69064929371E+02  0.00000000000E+00 0. -1.
          2    1    1    2  501    0  0.20487510236E+01 -0.27864891751E+02 -0.42611030017E+02  0.50954385996E+02  0.00000000000E+00 0. -1.
         -2    1    1    2    0  502 -0.20487510236E+01  0.27864891751E+02 -0.13523561710E+02  0.31040881018E+02  0.00000000000E+00 0.  1.
<mgrwt>
<rscale>  2 0.27940107E+02</rscale>
<asrwt>0</asrwt>
<pdfrwt beam="1">  1       21 0.19892827E-02 0.27940107E+02</pdfrwt>
<pdfrwt beam="2">  1       21 0.10625374E-01 0.27940107E+02</pdfrwt>
<totfact> 0.66768350E+07</totfact>
</mgrwt>
</event>
<event>
 4    1  0.2769537E+004  0.2990570E+02  0.7546771E-02  0.1599133E+00
         21   -1    0    0  503  502  0.00000000000E+00  0.00000000000E+00  0.16893437315E+04  0.16893437315E+04  0.00000000000E+00 0.  1.
         21   -1    0    0  501  503 -0.00000000000E+00 -0.00000000000E+00 -0.62580782017E+00  0.62580782017E+00  0.00000000000E+00 0. -1.
          2    1    1    2  501    0  0.27662094375E+02 -0.11364820666E+02  0.51271777314E+03  0.51358919917E+03  0.00000000000E+00 0. -1.
         -2    1    1    2    0  502 -0.27662094375E+02  0.11364820666E+02  0.11760001505E+04  0.11763803402E+04  0.00000000000E+00 0.  1.
<mgrwt>
<rscale>  2 0.29905695E+02</rscale>
<asrwt>0</asrwt>
<pdfrwt beam="1">  1       21 0.25989539E+00 0.29905695E+02</pdfrwt>
<pdfrwt beam="2">  1       21 0.96279478E-04 0.29905695E+02</pdfrwt>
<totfact> 0.81337010E+06</totfact>
</mgrwt>
</event>
<event>
 4    1  0.2769537E+004  0.2254243E+02  0.7546771E-02  0.1699036E+00
         21   -1    0    0  503  502  0.00000000000E+00  0.00000000000E+00  0.14141922170E+03  0.14141922170E+03  0.00000000000E+00 0.  1.
         21   -1    0    0  501  503 -0.00000000000E+00 -0.00000000000E+00 -0.55295471428E+02  0.55295471428E+02  0.00000000000E+00 0. -1.
          2    1    1    2  501    0 -0.22212875349E+02  0.38404752434E+01 -0.52045989553E+02  0.56718128583E+02  0.00000000000E+00 0. -1.
         -2    1    1    2    0  502  0.22212875349E+02 -0.38404752434E+01  0.13816973983E+03  0.13999656455E+03  0.00000000000E+00 0.  1.
<mgrwt>
<rscale>  2 0.22542428E+02</rscale>
<asrwt>0</asrwt>
<pdfrwt beam="1">  1       21 0.21756803E-01 0.22542428E+02</pdfrwt>
<pdfrwt beam="2">  1       21 0.85069956E-02 0.22542428E+02</pdfrwt>
<totfact> 0.18783198E+06</totfact>
</mgrwt>
</event>
<event>
 4    1  0.2769537E+004  0.2251446E+02  0.7546771E-02  0.1699504E+00
         21   -1    0    0  503  502  0.00000000000E+00  0.00000000000E+00  0.50994343280E+03  0.50994343280E+03  0.00000000000E+00 0. -1.
         21   -1    0    0  501  503 -0.00000000000E+00 -0.00000000000E+00 -0.21502046940E+01  0.21502046940E+01  0.00000000000E+00 0.  1.
          2    1    1    2  501    0  0.20068922476E+02  0.10204866852E+02  0.66142044127E+02  0.69868955611E+02  0.00000000000E+00 0.  1.
         -2    1    1    2    0  502 -0.20068922476E+02 -0.10204866852E+02  0.44165118397E+03  0.44222468188E+03  0.00000000000E+00 0. -1.
<mgrwt>
<rscale>  2 0.22514461E+02</rscale>
<asrwt>0</asrwt>
<pdfrwt beam="1">  1       21 0.78452739E-01 0.22514461E+02</pdfrwt>
<pdfrwt beam="2">  1       21 0.33080113E-03 0.22514461E+02</pdfrwt>
<totfact> 0.23700911E+07</totfact>
</mgrwt>
</event>
<event>
 4    1  0.2769537E+004  0.2199460E+02  0.7546771E-02  0.1708345E+00
         21   -1    0    0  501  502  0.00000000000E+00  0.00000000000E+00  0.54717511760E+03  0.54717511760E+03  0.00000000000E+00 0. -1.
         21   -1    0    0  502  503 -0.00000000000E+00 -0.00000000000E+00 -0.88458406361E+00  0.88458406361E+00  0.00000000000E+00 0.  1.
          2    1    1    2  501    0  0.82982211240E+01  0.20369138621E+02  0.26679281747E+03  0.26769790760E+03  0.00000000000E+00 0.  1.
         -2    1    1    2    0  503 -0.82982211240E+01 -0.20369138621E+02  0.27949771606E+03  0.28036179406E+03  0.00000000000E+00 0. -1.
<mgrwt>
<rscale>  2 0.21994597E+02</rscale>
<asrwt>0</asrwt>
<pdfrwt beam="1">  1       21 0.84180517E-01 0.21994597E+02</pdfrwt>
<pdfrwt beam="2">  1       21 0.13609029E-03 0.21994597E+02</pdfrwt>
<totfact> 0.73346357E+07</totfact>
</mgrwt>
</event>
<event>
 4    1  0.2769537E+004  0.2204327E+02  0.7546771E-02  0.1707505E+00
         21   -1    0    0  503  502  0.00000000000E+00  0.00000000000E+00  0.43534263564E+01  0.43534263564E+01  0.00000000000E+00 0.  1.
         21   -1    0    0  501  503 -0.00000000000E+00 -0.00000000000E+00 -0.16403712260E+03  0.16403712260E+03  0.00000000000E+00 0. -1.
          2    1    1    2  501    0 -0.16874084587E+02 -0.14183470836E+02 -0.12743845042E+03  0.12933083245E+03  0.00000000000E+00 0. -1.
         -2    1    1    2    0  502  0.16874084587E+02  0.14183470836E+02 -0.32245245820E+02  0.39059716507E+02  0.00000000000E+00 0.  1.
<mgrwt>
<rscale>  2 0.22043266E+02</rscale>
<asrwt>0</asrwt>
<pdfrwt beam="1">  1       21 0.66975803E-03 0.22043266E+02</pdfrwt>
<pdfrwt beam="2">  1       21 0.25236475E-01 0.22043266E+02</pdfrwt>
<totfact> 0.73540464E+07</totfact>
</mgrwt>
</event>
<event>
 4    1  0.2769537E+004  0.3685028E+02  0.7546771E-02  0.1532758E+00
         21   -1    0    0  503  502  0.00000000000E+00  0.00000000000E+00  0.14933078745E+03  0.14933078745E+03  0.00000000000E+00 0.  1.
         21   -1    0    0  501  503 -0.00000000000E+00 -0.00000000000E+00 -0.30964653623E+02  0.30964653623E+02  0.00000000000E+00 0. -1.
          2    1    1    2  501    0 -0.36701329686E+02 -0.33099368709E+01 -0.16579945030E+02  0.40408388486E+02  0.00000000000E+00 0. -1.
         -2    1    1    2    0  502  0.36701329686E+02  0.33099368709E+01  0.13494607886E+03  0.13988705259E+03  0.00000000000E+00 0.  1.
<mgrwt>
<rscale>  2 0.36850282E+02</rscale>
<asrwt>0</asrwt>
<pdfrwt beam="1">  1       21 0.22973967E-01 0.36850282E+02</pdfrwt>
<pdfrwt beam="2">  1       21 0.47637930E-02 0.36850282E+02</pdfrwt>
<totfact> 0.46402961E+06</totfact>
</mgrwt>
</event>
<event>
 4    1  0.2769537E+004  0.2213060E+02  0.7546771E-02  0.1706003E+00
         21   -1    0    0  503  502  0.00000000000E+00  0.00000000000E+00  0.73706074341E+02  0.73706074341E+02  0.00000000000E+00 0. -1.
         21   -1    0    0  501  503 -0.00000000000E+00 -0.00000000000E+00 -0.23436174879E+02  0.23436174879E+02  0.00000000000E+00 0.  1.
          2    1    1    2  501    0 -0.20967169634E+02 -0.70810419853E+01 -0.15977911870E+02  0.27295732740E+02  0.00000000000E+00 0.  1.
         -2    1    1    2    0  502  0.20967169634E+02  0.70810419853E+01  0.66247811332E+02  0.69846516480E+02  0.00000000000E+00 0. -1.
<mgrwt>
<rscale>  2 0.22130598E+02</rscale>
<asrwt>0</asrwt>
<pdfrwt beam="1">  1       21 0.11339396E-01 0.22130598E+02</pdfrwt>
<pdfrwt beam="2">  1       21 0.36055654E-02 0.22130598E+02</pdfrwt>
<totfact> 0.22485436E+07</totfact>
</mgrwt>
</event>
<event>
 4    1  0.2769537E+004  0.2016171E+02  0.7546771E-02  0.1742131E+00
         21   -1    0    0  503  502  0.00000000000E+00  0.00000000000E+00  0.65848534102E+01  0.65848534102E+01  0.00000000000E+00 0.  1.
         21   -1    0    0  501  503 -0.00000000000E+00 -0.00000000000E+00 -0.13741661780E+03  0.13741661780E+03  0.00000000000E+00 0. -1.
          2    1    1    2  501    0  0.20090761524E+02 -0.16899078480E+01 -0.11885039457E+03  0.12054837525E+03  0.00000000000E+00 0. -1.
         -2    1    1    2    0  502 -0.20090761524E+02  0.16899078480E+01 -0.11981369820E+02  0.23453095956E+02  0.00000000000E+00 0.  1.
<mgrwt>
<rscale>  2 0.20161708E+02</rscale>
<asrwt>0</asrwt>
<pdfrwt beam="1">  1       21 0.10130545E-02 0.20161708E+02</pdfrwt>
<pdfrwt beam="2">  1       21 0.21141016E-01 0.20161708E+02</pdfrwt>
<totfact> 0.52984451E+07</totfact>
</mgrwt>
</event>
<event>
 4    1  0.2769537E+004  0.2178501E+02  0.7546771E-02  0.1711997E+00
         21   -1    0    0  501  502  0.00000000000E+00  0.00000000000E+00  0.81134386059E+03  0.81134386059E+03  0.00000000000E+00 0.  1.
         21   -1    0    0  502  503 -0.00000000000E+00 -0.00000000000E+00 -0.10109190109E+01  0.10109190109E+01  0.00000000000E+00 0. -1.
          2    1    1    2  501    0  0.13125666694E+02 -0.17386874920E+02  0.66883132812E+03  0.66918602199E+03  0.00000000000E+00 0.  1.
         -2    1    1    2    0  503 -0.13125666694E+02  0.17386874920E+02  0.14150161345E+03  0.14316875761E+03  0.00000000000E+00 0. -1.
<mgrwt>
<rscale>  2 0.21785007E+02</rscale>
<asrwt>0</asrwt>
<pdfrwt beam="1">  1       21 0.12482161E+00 0.21785007E+02</pdfrwt>
<pdfrwt beam="2">  1       21 0.15552665E-03 0.21785007E+02</pdfrwt>
<totfact> 0.25491146E+07</totfact>
</mgrwt>
</event>
<event>
 4    1  0.2769537E+004  0.2313738E+02  0.7546771E-02  0.1689293E+00
         21   -1    0    0  501  502  0.00000000000E+00  0.00000000000E+00  0.18037415927E+03  0.18037415927E+03  0.00000000000E+00 0.  1.
         21   -1    0    0  502  503 -0.00000000000E+00 -0.00000000000E+00 -0.39352149685E+01  0.39352149685E+01  0.00000000000E+00 0. -1.
          2    1    1    2  501    0 -0.47021847006E+01 -0.22654532631E+02  0.13390827530E+03  0.13589247434E+03  0.00000000000E+00 0.  1.
         -2    1    1    2    0  503  0.47021847006E+01  0.22654532631E+02  0.42530669009E+02  0.48416899901E+02  0.00000000000E+00 0. -1.
<mgrwt>
<rscale>  2 0.23137381E+02</rscale>
<asrwt>0</asrwt>
<pdfrwt beam="1">  1       21 0.27749864E-01 0.23137381E+02</pdfrwt>
<pdfrwt beam="2">  1       21 0.60541783E-03 0.23137381E+02</pdfrwt>
<totfact> 0.72978565E+07</totfact>
</mgrwt>
</event>
<event>
 4    1  0.2769537E+004  0.2611214E+02  0.7546771E-02  0.1645523E+00
         21   -1    0    0  503  502  0.00000000000E+00  0.00000000000E+00  0.44717270706E+02  0.44717270706E+02  0.00000000000E+00 0. -1.
         21   -1    0    0  501  503 -0.00000000000E+00 -0.00000000000E+00 -0.42734891883E+02  0.42734891883E+02  0.00000000000E+00 0.  1.
          2    1    1    2  501    0 -0.91872439201E+01 -0.24442548196E+02 -0.34076973216E+02  0.42931150890E+02  0.00000000000E+00 0.  1.
         -2    1    1    2    0  502  0.91872439201E+01  0.24442548196E+02  0.36059352040E+02  0.44521011699E+02  0.00000000000E+00 0. -1.
<mgrwt>
<rscale>  2 0.26112135E+02</rscale>
<asrwt>0</asrwt>
<pdfrwt beam="1">  1       21 0.68795802E-02 0.26112135E+02</pdfrwt>
<pdfrwt beam="2">  1       21 0.65745987E-02 0.26112135E+02</pdfrwt>
<totfact> 0.20364342E+07</totfact>
</mgrwt>
</event>
<event>
 4    1  0.2769537E+004  0.3273490E+02  0.7546771E-02  0.1569687E+00
         21   -1    0    0  501  502  0.00000000000E+00  0.00000000000E+00  0.11201256441E+02  0.11201256441E+02  0.00000000000E+00 0.  1.
         21   -1    0    0  502  503 -0.00000000000E+00 -0.00000000000E+00 -0.96312521091E+02  0.96312521091E+02  0.00000000000E+00 0. -1.
          2    1    1    2  501    0  0.24022254388E+02 -0.22237467928E+02 -0.38149522338E+02  0.50268874468E+02  0.00000000000E+00 0. -1.
         -2    1    1    2    0  503 -0.24022254388E+02  0.22237467928E+02 -0.46961742313E+02  0.57244903064E+02  0.00000000000E+00 0.  1.
<mgrwt>
<rscale>  2 0.32734900E+02</rscale>
<asrwt>0</asrwt>
<pdfrwt beam="1">  1       21 0.17232702E-02 0.32734900E+02</pdfrwt>
<pdfrwt beam="2">  1       21 0.14817311E-01 0.32734900E+02</pdfrwt>
<totfact> 0.49080507E+07</totfact>
</mgrwt>
</event>
<event>
 4    1  0.2769537E+004  0.2387196E+02  0.7546771E-02  0.1677754E+00
         21   -1    0    0  503  502  0.00000000000E+00  0.00000000000E+00  0.20922116141E+03  0.20922116141E+03  0.00000000000E+00 0.  1.
         21   -1    0    0  501  503 -0.00000000000E+00 -0.00000000000E+00 -0.41221467464E+01  0.41221467464E+01  0.00000000000E+00 0. -1.
          2    1    1    2  501    0  0.30612229280E+01 -0.23674869079E+02  0.40419806590E+02  0.46942851175E+02  0.00000000000E+00 0. -1.
         -2    1    1    2    0  502 -0.30612229280E+01  0.23674869079E+02  0.16467920807E+03  0.16640045698E+03  0.00000000000E+00 0.  1.
<mgrwt>
<rscale>  2 0.23871961E+02</rscale>
<asrwt>0</asrwt>
<pdfrwt beam="1">  1       21 0.32187863E-01 0.23871961E+02</pdfrwt>
<pdfrwt beam="2">  1       21 0.63417658E-03 0.23871961E+02</pdfrwt>
<totfact> 0.52412564E+07</totfact>
</mgrwt>
</event>
<event>
 4    1  0.2769537E+004  0.2016481E+02  0.7546771E-02  0.1742070E+00
         21   -1    0    0  503  502  0.00000000000E+00  0.00000000000E+00  0.13185777858E+02  0.13185777858E+02  0.00000000000E+00 0.  1.
         21   -1    0    0  501  503 -0.00000000000E+00 -0.00000000000E+00 -0.42949698263E+02  0.42949698263E+02  0.00000000000E+00 0. -1.
          2    1    1    2  501    0 -0.18963427608E+02  0.68562434084E+01 -0.29787044704E+02  0.35970650433E+02  0.00000000000E+00 0. -1.
         -2    1    1    2    0  502  0.18963427608E+02 -0.68562434084E+01  0.23124298693E-01  0.20164825689E+02  0.00000000000E+00 0.  1.
<mgrwt>
<rscale>  2 0.20164812E+02</rscale>
<asrwt>0</asrwt>
<pdfrwt beam="1">  1       21 0.20285812E-02 0.20164812E+02</pdfrwt>
<pdfrwt beam="2">  1       21 0.66076458E-02 0.20164812E+02</pdfrwt>
<totfact> 0.12899943E+08</totfact>
</mgrwt>
</event>
<event>
 4    1  0.2769537E+004  0.2012153E+02  0.7546771E-02  0.1742922E+00
         21   -1    0    0  503  502  0.00000000000E+00  0.00000000000E+00  0.89708520209E+03  0.89708520209E+03  0.00000000000E+00 0.  1.
         21   -1    0    0  501  503 -0.00000000000E+00 -0.00000000000E+00 -0.76789282741E+00  0.76789282741E+00  0.00000000000E+00 0. -1.
          2    1    1    2  501    0 -0.18689045198E+02  0.74562310683E+01  0.15991531692E+03  0.16117625253E+03  0.00000000000E+00 0. -1.
         -2    1    1    2    0  502  0.18689045198E+02 -0.74562310683E+01  0.73640199234E+03  0.73667684239E+03  0.00000000000E+00 0.  1.
<mgrwt>
<rscale>  2 0.20121526E+02</rscale>
<asrwt>0</asrwt>
<pdfrwt beam="1">  1       21 0.13801227E+00 0.20121526E+02</pdfrwt>
<pdfrwt beam="2">  1       21 0.11813808E-03 0.20121526E+02</pdfrwt>
<totfact> 0.29509973E+07</totfact>
</mgrwt>
</event>
<event>
 4    1  0.2769537E+004  0.2163661E+02  0.7546771E-02  0.1714613E+00
         21   -1    0    0  501  502  0.00000000000E+00  0.00000000000E+00  0.42051120734E+01  0.42051120734E+01  0.00000000000E+00 0.  1.
         21   -1    0    0  502  503 -0.00000000000E+00 -0.00000000000E+00 -0.11856646072E+03  0.11856646072E+03  0.00000000000E+00 0. -1.
          2    1    1    2  501    0  0.21612636612E+02 -0.10182704707E+01 -0.42012371953E+02  0.47256558626E+02  0.00000000000E+00 0.  1.
         -2    1    1    2    0  503 -0.21612636612E+02  0.10182704707E+01 -0.72348976696E+02  0.75515014170E+02  0.00000000000E+00 0. -1.
<mgrwt>
<rscale>  2 0.21636611E+02</rscale>
<asrwt>0</asrwt>
<pdfrwt beam="1">  1       21 0.64694027E-03 0.21636611E+02</pdfrwt>
<pdfrwt beam="2">  1       21 0.18240995E-01 0.21636611E+02</pdfrwt>
<totfact> 0.13604725E+08</totfact>
</mgrwt>
</event>
<event>
 4    1  0.2769537E+004  0.2098307E+02  0.7546771E-02  0.1726457E+00
         21   -1    0    0  503  502  0.00000000000E+00  0.00000000000E+00  0.49593923189E+01  0.49593923189E+01  0.00000000000E+00 0.  1.
         21   -1    0    0  501  503 -0.00000000000E+00 -0.00000000000E+00 -0.96917759836E+02  0.96917759836E+02  0.00000000000E+00 0. -1.
          2    1    1    2  501    0 -0.16326290038E+02 -0.13181105632E+02 -0.60740580539E+02  0.64262799630E+02  0.00000000000E+00 0. -1.
         -2    1    1    2    0  502  0.16326290038E+02  0.13181105632E+02 -0.31217786978E+02  0.37614352525E+02  0.00000000000E+00 0.  1.
<mgrwt>
<rscale>  2 0.20983072E+02</rscale>
<asrwt>0</asrwt>
<pdfrwt beam="1">  1       21 0.76298341E-03 0.20983072E+02</pdfrwt>
<pdfrwt beam="2">  1       21 0.14910425E-01 0.20983072E+02</pdfrwt>
<totfact> 0.14898777E+08</totfact>
</mgrwt>
</event>
<event>
 4    1  0.2769537E+004  0.2024618E+02  0.7546771E-02  0.1740476E+00
         21   -1    0    0  503  502  0.00000000000E+00  0.00000000000E+00  0.10331563260E+02  0.10331563260E+02  0.00000000000E+00 0. -1.
         21   -1    0    0  501  503 -0.00000000000E+00 -0.00000000000E+00 -0.81248536097E+02  0.81248536097E+02  0.00000000000E+00 0.  1.
          2    1    1    2  501    0 -0.18360543585E+02  0.85321941015E+01 -0.68212931450E+02  0.71154141931E+02  0.00000000000E+00 0.  1.
         -2    1    1    2    0  502  0.18360543585E+02 -0.85321941015E+01 -0.27040413870E+01  0.20425957425E+02  0.00000000000E+00 0. -1.
<mgrwt>
<rscale>  2 0.20246182E+02</rscale>
<asrwt>0</asrwt>
<pdfrwt beam="1">  1       21 0.15894712E-02 0.20246182E+02</pdfrwt>
<pdfrwt beam="2">  1       21 0.12499775E-01 0.20246182E+02</pdfrwt>
<totfact> 0.65968075E+07</totfact>
</mgrwt>
</event>
<event>
 4    1  0.2769537E+004  0.2212085E+02  0.7546771E-02  0.1706170E+00
         21   -1    0    0  503  502  0.00000000000E+00  0.00000000000E+00  0.11255333317E+02  0.11255333317E+02  0.00000000000E+00 0. -1.
         21   -1    0    0  501  503 -0.00000000000E+00 -0.00000000000E+00 -0.53753805092E+02  0.53753805092E+02  0.00000000000E+00 0.  1.
          2    1    1    2  501    0 -0.67443304007E+01  0.21067655226E+02 -0.35462668457E+02  0.41796326912E+02  0.00000000000E+00 0.  1.
         -2    1    1    2    0  502  0.67443304007E+01 -0.21067655226E+02 -0.70358033175E+01  0.23212811497E+02  0.00000000000E+00 0. -1.
<mgrwt>
<rscale>  2 0.22120852E+02</rscale>
<asrwt>0</asrwt>
<pdfrwt beam="1">  1       21 0.17315898E-02 0.22120852E+02</pdfrwt>
<pdfrwt beam="2">  1       21 0.82698161E-02 0.22120852E+02</pdfrwt>
<totfact> 0.11744837E+08</totfact>
</mgrwt>
</event>
<event>
 4    1  0.2769537E+004  0.2259620E+02  0.7546771E-02  0.1698140E+00
         21   -1    0    0  503  502  0.00000000000E+00  0.00000000000E+00  0.20079222707E+02  0.20079222707E+02  0.00000000000E+00 0.  1.
         21   -1    0    0  501  503 -0.00000000000E+00 -0.00000000000E+00 -0.42809339527E+02  0.42809339527E+02  0.00000000000E+00 0. -1.
          2    1    1    2  501    0 -0.21381693365E+02  0.73083016270E+01 -0.31400806407E+02  0.38685898295E+02  0.00000000000E+00 0. -1.
         -2    1    1    2    0  502  0.21381693365E+02 -0.73083016270E+01  0.86706895879E+01  0.24202663940E+02  0.00000000000E+00 0.  1.
<mgrwt>
<rscale>  2 0.22596196E+02</rscale>
<asrwt>0</asrwt>
<pdfrwt beam="1">  1       21 0.30891112E-02 0.22596196E+02</pdfrwt>
<pdfrwt beam="2">  1       21 0.65860522E-02 0.22596196E+02</pdfrwt>
<totfact> 0.70073270E+07</totfact>
</mgrwt>
</event>
<event>
 4    1  0.2769537E+004  0.2119051E+02  0.7546771E-02  0.1722640E+00
         21   -1    0    0  503  502  0.00000000000E+00  0.00000000000E+00  0.63332491689E+02  0.63332491689E+02  0.00000000000E+00 0.  1.
         21   -1    0    0  501  503 -0.00000000000E+00 -0.00000000000E+00 -0.71425316229E+01  0.71425316229E+01  0.00000000000E+00 0. -1.
          2    1    1    2  501    0  0.20032868456E+02  0.69081136331E+01  0.25077780494E+02  0.32831888874E+02  0.00000000000E+00 0. -1.
         -2    1    1    2    0  502 -0.20032868456E+02 -0.69081136331E+01  0.31112179572E+02  0.37643134438E+02  0.00000000000E+00 0.  1.
<mgrwt>
<rscale>  2 0.21190513E+02</rscale>
<asrwt>0</asrwt>
<pdfrwt beam="1">  1       21 0.97434599E-02 0.21190513E+02</pdfrwt>
<pdfrwt beam="2">  1       21 0.10988511E-02 0.21190513E+02</pdfrwt>
<totfact> 0.17631363E+08</totfact>
</mgrwt>
</event>
<event>
 4    1  0.2769537E+004  0.2930502E+02  0.7546771E-02  0.1605900E+00
         21   -1    0    0  501  502  0.00000000000E+00  0.00000000000E+00  0.43869300887E+01  0.43869300887E+01  0.00000000000E+00 0.  1.
         21   -1    0    0  502  503 -0.00000000000E+00 -0.00000000000E+00 -0.27745977110E+03  0.27745977110E+03  0.00000000000E+00 0. -1.
          2    1    1    2  501    0  0.10161224976E+01 -0.29287398647E+02 -0.60065890296E+02  0.66833340494E+02  0.00000000000E+00 0.  1.
         -2    1    1    2    0  503 -0.10161224976E+01  0.29287398647E+02 -0.21300695072E+03  0.21501336070E+03  0.00000000000E+00 0. -1.
<mgrwt>
<rscale>  2 0.29305020E+02</rscale>
<asrwt>0</asrwt>
<pdfrwt beam="1">  1       21 0.67491212E-03 0.29305020E+02</pdfrwt>
<pdfrwt beam="2">  1       21 0.42686131E-01 0.29305020E+02</pdfrwt>
<totfact> 0.29379704E+07</totfact>
</mgrwt>
</event>
<event>
 4    1  0.2769537E+004  0.2348594E+02  0.7546771E-02  0.1683752E+00
         21   -1    0    0  501  502  0.00000000000E+00  0.00000000000E+00  0.36879508355E+01  0.36879508355E+01  0.00000000000E+00 0. -1.
         21   -1    0    0  502  503 -0.00000000000E+00 -0.00000000000E+00 -0.15561870482E+03  0.15561870482E+03  0.00000000000E+00 0.  1.
          2    1    1    2  501    0 -0.15089140778E+01  0.23437416313E+02 -0.60255437248E+02  0.64670758640E+02  0.00000000000E+00 0. -1.
         -2    1    1    2    0  503  0.15089140778E+01 -0.23437416313E+02 -0.91675316732E+02  0.94635897011E+02  0.00000000000E+00 0.  1.
<mgrwt>
<rscale>  2 0.23485938E+02</rscale>
<asrwt>0</asrwt>
<pdfrwt beam="1">  1       21 0.56737702E-03 0.23485938E+02</pdfrwt>
<pdfrwt beam="2">  1       21 0.23941341E-01 0.23485938E+02</pdfrwt>
<totfact> 0.10505623E+08</totfact>
</mgrwt>
</event>
<event>
 4    1  0.2769537E+004  0.3499366E+02  0.7546771E-02  0.1548657E+00
         21   -1    0    0  503  502  0.00000000000E+00  0.00000000000E+00  0.30713634211E+02  0.30713634211E+02  0.00000000000E+00 0. -1.
         21   -1    0    0  501  503 -0.00000000000E+00 -0.00000000000E+00 -0.42374354121E+02  0.42374354121E+02  0.00000000000E+00 0.  1.
          2    1    1    2  501    0  0.34949786793E+02  0.17517546975E+01 -0.14714226894E+02  0.37961358175E+02  0.00000000000E+00 0. -1.
         -2    1    1    2    0  502 -0.34949786793E+02 -0.17517546975E+01  0.30535069839E+01  0.35126630158E+02  0.00000000000E+00 0.  1.
<mgrwt>
<rscale>  2 0.34993660E+02</rscale>
<asrwt>0</asrwt>
<pdfrwt beam="1">  1       21 0.47251745E-02 0.34993660E+02</pdfrwt>
<pdfrwt beam="2">  1       21 0.65191314E-02 0.34993660E+02</pdfrwt>
<totfact> 0.40250553E+07</totfact>
</mgrwt>
</event>
<event>
 4    1  0.2769537E+004  0.2166042E+02  0.7546771E-02  0.1714192E+00
         21   -1    0    0  501  502  0.00000000000E+00  0.00000000000E+00  0.28593387488E+03  0.28593387488E+03  0.00000000000E+00 0. -1.
         21   -1    0    0  502  503 -0.00000000000E+00 -0.00000000000E+00 -0.10671681393E+02  0.10671681393E+02  0.00000000000E+00 0.  1.
          2    1    1    2  501    0 -0.11190536248E+02 -0.18545767303E+02  0.27405699232E+03  0.27491163785E+03  0.00000000000E+00 0. -1.
         -2    1    1    2    0  503  0.11190536248E+02  0.18545767303E+02  0.12052011606E+01  0.21693918415E+02  0.00000000000E+00 0.  1.
<mgrwt>
<rscale>  2 0.21660415E+02</rscale>
<asrwt>0</asrwt>
<pdfrwt beam="1">  1       21 0.43989821E-01 0.21660415E+02</pdfrwt>
<pdfrwt beam="2">  1       21 0.16417974E-02 0.21660415E+02</pdfrwt>
<totfact> 0.68607328E+06</totfact>
</mgrwt>
</event>
<event>
 4    1  0.2769537E+004  0.3655042E+02  0.7546771E-02  0.1535248E+00
         21   -1    0    0  503  502  0.00000000000E+00  0.00000000000E+00  0.50695128604E+02  0.50695128604E+02  0.00000000000E+00 0. -1.
         21   -1    0    0  501  503 -0.00000000000E+00 -0.00000000000E+00 -0.54341574671E+02  0.54341574671E+02  0.00000000000E+00 0.  1.
          2    1    1    2  501    0  0.69623037009E+00  0.36543789829E+02 -0.39514494485E+02  0.53826838902E+02  0.00000000000E+00 0.  1.
         -2    1    1    2    0  502 -0.69623037009E+00 -0.36543789829E+02  0.35868048418E+02  0.51209864373E+02  0.00000000000E+00 0. -1.
<mgrwt>
<rscale>  2 0.36550421E+02</rscale>
<asrwt>0</asrwt>
<pdfrwt beam="1">  1       21 0.77992506E-02 0.36550421E+02</pdfrwt>
<pdfrwt beam="2">  1       21 0.83602423E-02 0.36550421E+02</pdfrwt>
<totfact> 0.11853422E+07</totfact>
</mgrwt>
</event>
<event>
 4    1  0.2769537E+004  0.2392576E+02  0.7546771E-02  0.1676929E+00
         21   -1    0    0  501  502  0.00000000000E+00  0.00000000000E+00  0.97422895093E+01  0.97422895093E+01  0.00000000000E+00 0. -1.
         21   -1    0    0  502  503 -0.00000000000E+00 -0.00000000000E+00 -0.63657681683E+02  0.63657681683E+02  0.00000000000E+00 0.  1.
          2    1    1    2  501    0  0.12273661519E+02  0.20537750758E+02 -0.16776382216E+02  0.29221378707E+02  0.00000000000E+00 0. -1.
         -2    1    1    2    0  503 -0.12273661519E+02 -0.20537750758E+02 -0.37139009958E+02  0.44178592485E+02  0.00000000000E+00 0.  1.
<mgrwt>
<rscale>  2 0.23925760E+02</rscale>
<asrwt>0</asrwt>
<pdfrwt beam="1">  1       21 0.14988138E-02 0.23925760E+02</pdfrwt>
<pdfrwt beam="2">  1       21 0.97934891E-02 0.23925760E+02</pdfrwt>
<totfact> 0.11339567E+08</totfact>
</mgrwt>
</event>
<event>
 4    1  0.2769537E+004  0.2216455E+02  0.7546771E-02  0.1705422E+00
         21   -1    0    0  501  502  0.00000000000E+00  0.00000000000E+00  0.46990564750E+02  0.46990564750E+02  0.00000000000E+00 0. -1.
         21   -1    0    0  502  503 -0.00000000000E+00 -0.00000000000E+00 -0.12675494416E+02  0.12675494416E+02  0.00000000000E+00 0.  1.
          2    1    1    2  501    0 -0.13734125578E+02  0.17396585974E+02  0.29645140696E+02  0.37014885868E+02  0.00000000000E+00 0. -1.
         -2    1    1    2    0  503  0.13734125578E+02 -0.17396585974E+02  0.46699296390E+01  0.22651173298E+02  0.00000000000E+00 0.  1.
<mgrwt>
<rscale>  2 0.22164553E+02</rscale>
<asrwt>0</asrwt>
<pdfrwt beam="1">  1       21 0.72293176E-02 0.22164553E+02</pdfrwt>
<pdfrwt beam="2">  1       21 0.19500761E-02 0.22164553E+02</pdfrwt>
<totfact> 0.12195766E+08</totfact>
</mgrwt>
</event>
<event>
 4    1  0.2769537E+004  0.2338827E+02  0.7546771E-02  0.1685293E+00
         21   -1    0    0  503  502  0.00000000000E+00  0.00000000000E+00  0.19030416646E+01  0.19030416646E+01  0.00000000000E+00 0. -1.
         21   -1    0    0  501  503 -0.00000000000E+00 -0.00000000000E+00 -0.32231665711E+03  0.32231665711E+03  0.00000000000E+00 0.  1.
          2    1    1    2  501    0  0.13733296780E+02 -0.18931664300E+02 -0.21353194633E+03  0.21480899296E+03  0.00000000000E+00 0.  1.
         -2    1    1    2    0  502 -0.13733296780E+02  0.18931664300E+02 -0.10688166911E+03  0.10941070581E+03  0.00000000000E+00 0. -1.
<mgrwt>
<rscale>  2 0.23388274E+02</rscale>
<asrwt>0</asrwt>
<pdfrwt beam="1">  1       21 0.29277586E-03 0.23388274E+02</pdfrwt>
<pdfrwt beam="2">  1       21 0.49587141E-01 0.23388274E+02</pdfrwt>
<totfact> 0.71916562E+07</totfact>
</mgrwt>
</event>
<event>
 4    1  0.2769537E+004  0.2259803E+02  0.7546771E-02  0.1698110E+00
         21   -1    0    0  501  502  0.00000000000E+00  0.00000000000E+00  0.47695151380E+02  0.47695151380E+02  0.00000000000E+00 0.  1.
         21   -1    0    0  502  503 -0.00000000000E+00 -0.00000000000E+00 -0.22992888541E+02  0.22992888541E+02  0.00000000000E+00 0. -1.
          2    1    1    2  501    0 -0.15434991560E+01 -0.22545254870E+02  0.38186987827E+02  0.44372479603E+02  0.00000000000E+00 0.  1.
         -2    1    1    2    0  503  0.15434991560E+01  0.22545254870E+02 -0.13484724989E+02  0.26315560318E+02  0.00000000000E+00 0. -1.
<mgrwt>
<rscale>  2 0.22598029E+02</rscale>
<asrwt>0</asrwt>
<pdfrwt beam="1">  1       21 0.73377156E-02 0.22598029E+02</pdfrwt>
<pdfrwt beam="2">  1       21 0.35373675E-02 0.22598029E+02</pdfrwt>
<totfact> 0.47609730E+07</totfact>
</mgrwt>
</event>
<event>
 4    1  0.2769537E+004  0.2603865E+02  0.7546771E-02  0.1646517E+00
         21   -1    0    0  503  502  0.00000000000E+00  0.00000000000E+00  0.38974478469E+01  0.38974478469E+01  0.00000000000E+00 0.  1.
         21   -1    0    0  501  503 -0.00000000000E+00 -0.00000000000E+00 -0.20059635783E+03  0.20059635783E+03  0.00000000000E+00 0. -1.
          2    1    1    2  501    0 -0.15869144896E+02  0.20644160844E+02 -0.13560602091E+03  0.13808332283E+03  0.00000000000E+00 0.  1.
         -2    1    1    2    0  502  0.15869144896E+02 -0.20644160844E+02 -0.61092889073E+02  0.66410482847E+02  0.00000000000E+00 0. -1.
<mgrwt>
<rscale>  2 0.26038647E+02</rscale>
<asrwt>0</asrwt>
<pdfrwt beam="1">  1       21 0.59960738E-03 0.26038647E+02</pdfrwt>
<pdfrwt beam="2">  1       21 0.30860977E-01 0.26038647E+02</pdfrwt>
<totfact> 0.62813122E+07</totfact>
</mgrwt>
</event>
<event>
 4    1  0.2769537E+004  0.2249558E+02  0.7546771E-02  0.1699819E+00
         21   -1    0    0  501  502  0.00000000000E+00  0.00000000000E+00  0.12290050629E+02  0.12290050629E+02  0.00000000000E+00 0. -1.
         21   -1    0    0  502  503 -0.00000000000E+00 -0.00000000000E+00 -0.91613657401E+02  0.91613657401E+02  0.00000000000E+00 0.  1.
          2    1    1    2  501    0 -0.78678941963E+01  0.21074803998E+02 -0.11139857405E+01  0.22523145581E+02  0.00000000000E+00 0. -1.
         -2    1    1    2    0  503  0.78678941963E+01 -0.21074803998E+02 -0.78209621031E+02  0.81380562449E+02  0.00000000000E+00 0.  1.
<mgrwt>
<rscale>  2 0.22495580E+02</rscale>
<asrwt>0</asrwt>
<pdfrwt beam="1">  1       21 0.18907770E-02 0.22495580E+02</pdfrwt>
<pdfrwt beam="2">  1       21 0.14094409E-01 0.22495580E+02</pdfrwt>
<totfact> 0.42548874E+07</totfact>
</mgrwt>
</event>
<event>
 4    1  0.2769537E+004  0.3059656E+02  0.7546771E-02  0.1591587E+00
         21   -1    0    0  503  502  0.00000000000E+00  0.00000000000E+00  0.24296214745E+02  0.24296214745E+02  0.00000000000E+00 0.  1.
         21   -1    0    0  501  503 -0.00000000000E+00 -0.00000000000E+00 -0.47379268017E+02  0.47379268017E+02  0.00000000000E+00 0. -1.
          2    1    1    2  501    0  0.14201415697E+01 -0.30563582961E+02 -0.27029112176E+02  0.40825510536E+02  0.00000000000E+00 0. -1.
         -2    1    1    2    0  502 -0.14201415697E+01  0.30563582961E+02  0.39460589048E+01  0.30849972226E+02  0.00000000000E+00 0.  1.
<mgrwt>
<rscale>  2 0.30596559E+02</rscale>
<asrwt>0</asrwt>
<pdfrwt beam="1">  1       21 0.37378792E-02 0.30596559E+02</pdfrwt>
<pdfrwt beam="2">  1       21 0.72891181E-02 0.30596559E+02</pdfrwt>
<totfact> 0.47419361E+07</totfact>
</mgrwt>
</event>
<event>
 4    1  0.2769537E+004  0.2613353E+02  0.7546771E-02  0.1645235E+00
         21   -1    0    0  501  502  0.00000000000E+00  0.00000000000E+00  0.33269531008E+01  0.33269531008E+01  0.00000000000E+00 0.  1.
         21   -1    0    0  502  503 -0.00000000000E+00 -0.00000000000E+00 -0.21043998794E+03  0.21043998794E+03  0.00000000000E+00 0. -1.
          2    1    1    2  501    0 -0.11543841422E+02  0.23445705963E+02 -0.86821961083E+02  0.90669809359E+02  0.00000000000E+00 0.  1.
         -2    1    1    2    0  503  0.11543841422E+02 -0.23445705963E+02 -0.12029107376E+03  0.12309713168E+03  0.00000000000E+00 0. -1.
<mgrwt>
<rscale>  2 0.26133530E+02</rscale>
<asrwt>0</asrwt>
<pdfrwt beam="1">  1       21 0.51183896E-03 0.26133530E+02</pdfrwt>
<pdfrwt beam="2">  1       21 0.32375381E-01 0.26133530E+02</pdfrwt>
<totfact> 0.72812537E+07</totfact>
</mgrwt>
</event>
<event>
 4    1  0.2769537E+004  0.3171974E+02  0.7546771E-02  0.1579822E+00
         21   -1    0    0  503  502  0.00000000000E+00  0.00000000000E+00  0.83785899319E+02  0.83785899319E+02  0.00000000000E+00 0.  1.
         21   -1    0    0  501  503 -0.00000000000E+00 -0.00000000000E+00 -0.12012744723E+02  0.12012744723E+02  0.00000000000E+00 0. -1.
          2    1    1    2  501    0 -0.43177983011E+01 -0.31424488180E+02  0.34984750225E+02  0.47223665549E+02  0.00000000000E+00 0. -1.
         -2    1    1    2    0  502  0.43177983011E+01  0.31424488180E+02  0.36788404371E+02  0.48574978494E+02  0.00000000000E+00 0.  1.
<mgrwt>
<rscale>  2 0.31719739E+02</rscale>
<asrwt>0</asrwt>
<pdfrwt beam="1">  1       21 0.12890138E-01 0.31719739E+02</pdfrwt>
<pdfrwt beam="2">  1       21 0.18481146E-02 0.31719739E+02</pdfrwt>
<totfact> 0.55566884E+07</totfact>
</mgrwt>
</event>
<event>
 4    1  0.2769537E+004  0.8383105E+02  0.7546771E-02  0.1318518E+00
         21   -1    0    0  503  502  0.00000000000E+00  0.00000000000E+00  0.24615155467E+02  0.24615155467E+02  0.00000000000E+00 0.  1.
         21   -1    0    0  501  503 -0.00000000000E+00 -0.00000000000E+00 -0.37040106370E+03  0.37040106370E+03  0.00000000000E+00 0. -1.
          2    1    1    2  501    0 -0.28079211280E+02  0.78988623270E+02 -0.26745209833E+03  0.28028248182E+03  0.00000000000E+00 0. -1.
         -2    1    1    2    0  502  0.28079211280E+02 -0.78988623270E+02 -0.78333809895E+02  0.11473373734E+03  0.00000000000E+00 0.  1.
<mgrwt>
<rscale>  2 0.83831049E+02</rscale>
<asrwt>0</asrwt>
<pdfrwt beam="1">  1       21 0.37869473E-02 0.83831049E+02</pdfrwt>
<pdfrwt beam="2">  1       21 0.56984775E-01 0.83831049E+02</pdfrwt>
<totfact> 0.12343280E+06</totfact>
</mgrwt>
</event>
<event>
 4    1  0.2769537E+004  0.4089184E+02  0.7546771E-02  0.1501749E+00
         21   -1    0    0  501  502  0.00000000000E+00  0.00000000000E+00  0.17533807690E+02  0.17533807690E+02  0.00000000000E+00 0. -1.
         21   -1    0    0  502  503 -0.00000000000E+00 -0.00000000000E+00 -0.12175220533E+03  0.12175220533E+03  0.00000000000E+00 0.  1.
          2    1    1    2  501    0 -0.40619903058E+02  0.47080874056E+01 -0.19688585806E+02  0.45384832516E+02  0.00000000000E+00 0. -1.
         -2    1    1    2    0  503  0.40619903058E+02 -0.47080874056E+01 -0.84529811839E+02  0.93901180509E+02  0.00000000000E+00 0.  1.
<mgrwt>
<rscale>  2 0.40891840E+02</rscale>
<asrwt>0</asrwt>
<pdfrwt beam="1">  1       21 0.26975088E-02 0.40891840E+02</pdfrwt>
<pdfrwt beam="2">  1       21 0.18731109E-01 0.40891840E+02</pdfrwt>
<totfact> 0.16820420E+07</totfact>
</mgrwt>
</event>
<event>
 4    1  0.2769537E+004  0.2053064E+02  0.7546771E-02  0.1734977E+00
         21   -1    0    0  501  502  0.00000000000E+00  0.00000000000E+00  0.44136923417E+02  0.44136923417E+02  0.00000000000E+00 0. -1.
         21   -1    0    0  502  503 -0.00000000000E+00 -0.00000000000E+00 -0.22815381801E+02  0.22815381801E+02  0.00000000000E+00 0.  1.
          2    1    1    2  501    0 -0.83167627971E+01  0.18770682165E+02  0.36186711496E+02  0.41605109557E+02  0.00000000000E+00 0. -1.
         -2    1    1    2    0  503  0.83167627971E+01 -0.18770682165E+02 -0.14865169880E+02  0.25347195661E+02  0.00000000000E+00 0.  1.
<mgrwt>
<rscale>  2 0.20530637E+02</rscale>
<asrwt>0</asrwt>
<pdfrwt beam="1">  1       21 0.67902959E-02 0.20530637E+02</pdfrwt>
<pdfrwt beam="2">  1       21 0.35100587E-02 0.20530637E+02</pdfrwt>
<totfact> 0.53254943E+07</totfact>
</mgrwt>
</event>
<event>
 4    1  0.2769537E+004  0.2133816E+02  0.7546771E-02  0.1719956E+00
         21   -1    0    0  501  502  0.00000000000E+00  0.00000000000E+00  0.16445640473E+01  0.16445640473E+01  0.00000000000E+00 0.  1.
         21   -1    0    0  502  503 -0.00000000000E+00 -0.00000000000E+00 -0.41996676136E+03  0.41996676136E+03  0.00000000000E+00 0. -1.
          2    1    1    2  501    0 -0.11299710944E+02  0.18100654225E+02 -0.86105327964E+02  0.88709890398E+02  0.00000000000E+00 0.  1.
         -2    1    1    2    0  503  0.11299710944E+02 -0.18100654225E+02 -0.33221686935E+03  0.33290143501E+03  0.00000000000E+00 0. -1.
<mgrwt>
<rscale>  2 0.21338162E+02</rscale>
<asrwt>0</asrwt>
<pdfrwt beam="1">  1       21 0.25301006E-03 0.21338162E+02</pdfrwt>
<pdfrwt beam="2">  1       21 0.64610219E-01 0.21338162E+02</pdfrwt>
<totfact> 0.51504065E+07</totfact>
</mgrwt>
</event>
<event>
 4    1  0.2769537E+004  0.2305825E+02  0.7546771E-02  0.1690568E+00
         21   -1    0    0  503  502  0.00000000000E+00  0.00000000000E+00  0.74337365194E+02  0.74337365194E+02  0.00000000000E+00 0. -1.
         21   -1    0    0  501  503 -0.00000000000E+00 -0.00000000000E+00 -0.88396410462E+01  0.88396410462E+01  0.00000000000E+00 0.  1.
          2    1    1    2  501    0 -0.15387954158E+02  0.17172464804E+02  0.14578725143E+02  0.27280430851E+02  0.00000000000E+00 0.  1.
         -2    1    1    2    0  502  0.15387954158E+02 -0.17172464804E+02  0.50918999005E+02  0.55896575389E+02  0.00000000000E+00 0. -1.
<mgrwt>
<rscale>  2 0.23058245E+02</rscale>
<asrwt>0</asrwt>
<pdfrwt beam="1">  1       21 0.11436517E-01 0.23058245E+02</pdfrwt>
<pdfrwt beam="2">  1       21 0.13599448E-02 0.23058245E+02</pdfrwt>
<totfact> 0.10051336E+08</totfact>
</mgrwt>
</event>
<event>
 4    1  0.2769537E+004  0.4225140E+02  0.7546771E-02  0.1492268E+00
         21   -1    0    0  503  502  0.00000000000E+00  0.00000000000E+00  0.22867260875E+03  0.22867260875E+03  0.00000000000E+00 0. -1.
         21   -1    0    0  501  503 -0.00000000000E+00 -0.00000000000E+00 -0.79097085408E+01  0.79097085408E+01  0.00000000000E+00 0.  1.
          2    1    1    2  501    0 -0.22261325505E+02  0.35911202455E+02  0.96882981338E+02  0.10569528442E+03  0.00000000000E+00 0. -1.
         -2    1    1    2    0  502  0.22261325505E+02 -0.35911202455E+02  0.12387991887E+03  0.13088703287E+03  0.00000000000E+00 0.  1.
<mgrwt>
<rscale>  2 0.42251403E+02</rscale>
<asrwt>0</asrwt>
<pdfrwt beam="1">  1       21 0.35180396E-01 0.42251403E+02</pdfrwt>
<pdfrwt beam="2">  1       21 0.12168784E-02 0.42251403E+02</pdfrwt>
<totfact> 0.18446270E+07</totfact>
</mgrwt>
</event>
<event>
 4    1  0.2769537E+004  0.2188361E+02  0.7546771E-02  0.1710273E+00
         21   -1    0    0  501  502  0.00000000000E+00  0.00000000000E+00  0.72944252837E+02  0.72944252837E+02  0.00000000000E+00 0.  1.
         21   -1    0    0  502  503 -0.00000000000E+00 -0.00000000000E+00 -0.99270023736E+01  0.99270023736E+01  0.00000000000E+00 0. -1.
          2    1    1    2  501    0 -0.20030757740E+02  0.88125546316E+01  0.55621669353E+02  0.59771753165E+02  0.00000000000E+00 0.  1.
         -2    1    1    2    0  503  0.20030757740E+02 -0.88125546316E+01  0.73955811101E+01  0.23099502045E+02  0.00000000000E+00 0. -1.
<mgrwt>
<rscale>  2 0.21883610E+02</rscale>
<asrwt>0</asrwt>
<pdfrwt beam="1">  1       21 0.11222192E-01 0.21883610E+02</pdfrwt>
<pdfrwt beam="2">  1       21 0.15272312E-02 0.21883610E+02</pdfrwt>
<totfact> 0.85718049E+07</totfact>
</mgrwt>
</event>
<event>
 4    1  0.2769537E+004  0.2550291E+02  0.7546771E-02  0.1653882E+00
         21   -1    0    0  503  502  0.00000000000E+00  0.00000000000E+00  0.15098510909E+03  0.15098510909E+03  0.00000000000E+00 0.  1.
         21   -1    0    0  501  503 -0.00000000000E+00 -0.00000000000E+00 -0.11368622424E+02  0.11368622424E+02  0.00000000000E+00 0. -1.
          2    1    1    2  501    0 -0.33776559884E+01 -0.25278247422E+02  0.58334165252E+01  0.26161557696E+02  0.00000000000E+00 0.  1.
         -2    1    1    2    0  502  0.33776559884E+01  0.25278247422E+02  0.13378307014E+03  0.13619217382E+03  0.00000000000E+00 0. -1.
<mgrwt>
<rscale>  2 0.25502909E+02</rscale>
<asrwt>0</asrwt>
<pdfrwt beam="1">  1       21 0.23228477E-01 0.25502909E+02</pdfrwt>
<pdfrwt beam="2">  1       21 0.17490189E-02 0.25502909E+02</pdfrwt>
<totfact> 0.20751829E+07</totfact>
</mgrwt>
</event>
<event>
 4    1  0.2769537E+004  0.2297610E+02  0.7546771E-02  0.1691898E+00
         21   -1    0    0  501  502  0.00000000000E+00  0.00000000000E+00  0.83868468758E+03  0.83868468758E+03  0.00000000000E+00 0. -1.
         21   -1    0    0  502  503 -0.00000000000E+00 -0.00000000000E+00 -0.65897182080E+00  0.65897182080E+00  0.00000000000E+00 0.  1.
          2    1    1    2  501    0 -0.12623163925E+02  0.19197830200E+02  0.50785683219E+03  0.50837630054E+03  0.00000000000E+00 0. -1.
         -2    1    1    2    0  503  0.12623163925E+02 -0.19197830200E+02  0.33016888357E+03  0.33096735886E+03  0.00000000000E+00 0.  1.
<mgrwt>
<rscale>  2 0.22976095E+02</rscale>
<asrwt>0</asrwt>
<pdfrwt beam="1">  1       21 0.12902756E+00 0.22976095E+02</pdfrwt>
<pdfrwt beam="2">  1       21 0.10138095E-03 0.22976095E+02</pdfrwt>
<totfact> 0.44013014E+07</totfact>
</mgrwt>
</event>
<event>
 4    1  0.2769537E+004  0.4428092E+02  0.7546771E-02  0.1478881E+00
         21   -1    0    0  503  502  0.00000000000E+00  0.00000000000E+00  0.98161240846E+02  0.98161240846E+02  0.00000000000E+00 0. -1.
         21   -1    0    0  501  503 -0.00000000000E+00 -0.00000000000E+00 -0.38384309586E+02  0.38384309586E+02  0.00000000000E+00 0.  1.
          2    1    1    2  501    0  0.43449299373E+02  0.85415689203E+01 -0.17392455437E+02  0.47574126600E+02  0.00000000000E+00 0.  1.
         -2    1    1    2    0  502 -0.43449299373E+02 -0.85415689203E+01  0.77169386697E+02  0.88971423832E+02  0.00000000000E+00 0. -1.
<mgrwt>
<rscale>  2 0.44280922E+02</rscale>
<asrwt>0</asrwt>
<pdfrwt beam="1">  1       21 0.15101729E-01 0.44280922E+02</pdfrwt>
<pdfrwt beam="2">  1       21 0.59052784E-02 0.44280922E+02</pdfrwt>
<totfact> 0.70272108E+06</totfact>
</mgrwt>
</event>
<event>
 4    1  0.2769537E+004  0.3519615E+02  0.7546771E-02  0.1546866E+00
         21   -1    0    0  501  502  0.00000000000E+00  0.00000000000E+00  0.27891620368E+01  0.27891620368E+01  0.00000000000E+00 0. -1.
         21   -1    0    0  502  503 -0.00000000000E+00 -0.00000000000E+00 -0.50368347748E+03  0.50368347748E+03  0.00000000000E+00 0.  1.
          2    1    1    2  501    0 -0.35099875082E+02  0.26014227758E+01 -0.16337545323E+03  0.16712362894E+03  0.00000000000E+00 0. -1.
         -2    1    1    2    0  503  0.35099875082E+02 -0.26014227758E+01 -0.33751886221E+03  0.33934901058E+03  0.00000000000E+00 0.  1.
<mgrwt>
<rscale>  2 0.35196145E+02</rscale>
<asrwt>0</asrwt>
<pdfrwt beam="1">  1       21 0.42910199E-03 0.35196145E+02</pdfrwt>
<pdfrwt beam="2">  1       21 0.77489741E-01 0.35196145E+02</pdfrwt>
<totfact> 0.17907967E+07</totfact>
</mgrwt>
</event>
<event>
 4    1  0.2769537E+004  0.2631057E+02  0.7546771E-02  0.1642861E+00
         21   -1    0    0  501  502  0.00000000000E+00  0.00000000000E+00  0.58053343321E+01  0.58053343321E+01  0.00000000000E+00 0. -1.
         21   -1    0    0  502  503 -0.00000000000E+00 -0.00000000000E+00 -0.10205013675E+04  0.10205013675E+04  0.00000000000E+00 0.  1.
          2    1    1    2  501    0  0.21725098205E+02 -0.14841366329E+02 -0.25106046121E+02  0.36367012503E+02  0.00000000000E+00 0. -1.
         -2    1    1    2    0  503 -0.21725098205E+02  0.14841366329E+02 -0.98958998708E+03  0.98993968937E+03  0.00000000000E+00 0.  1.
<mgrwt>
<rscale>  2 0.26310569E+02</rscale>
<asrwt>0</asrwt>
<pdfrwt beam="1">  1       21 0.89312817E-03 0.26310569E+02</pdfrwt>
<pdfrwt beam="2">  1       21 0.15700024E+00 0.26310569E+02</pdfrwt>
<totfact> 0.11740067E+06</totfact>
</mgrwt>
</event>
<event>
 4    1  0.2769537E+004  0.2369497E+02  0.7546771E-02  0.1680486E+00
         21   -1    0    0  503  502  0.00000000000E+00  0.00000000000E+00  0.33525715975E+01  0.33525715975E+01  0.00000000000E+00 0.  1.
         21   -1    0    0  501  503 -0.00000000000E+00 -0.00000000000E+00 -0.31141018211E+03  0.31141018211E+03  0.00000000000E+00 0. -1.
          2    1    1    2  501    0 -0.98142393348E+01 -0.21566927646E+02 -0.26102776037E+03  0.26210101745E+03  0.00000000000E+00 0. -1.
         -2    1    1    2    0  502  0.98142393348E+01  0.21566927646E+02 -0.47029850146E+02  0.52661736266E+02  0.00000000000E+00 0.  1.
<mgrwt>
<rscale>  2 0.23694971E+02</rscale>
<asrwt>0</asrwt>
<pdfrwt beam="1">  1       21 0.51578026E-03 0.23694971E+02</pdfrwt>
<pdfrwt beam="2">  1       21 0.47909257E-01 0.23694971E+02</pdfrwt>
<totfact> 0.33598583E+07</totfact>
</mgrwt>
</event>
<event>
 4    1  0.2769537E+004  0.3946008E+02  0.7546771E-02  0.1512223E+00
         21   -1    0    0  501  502  0.00000000000E+00  0.00000000000E+00  0.11107230245E+02  0.11107230245E+02  0.00000000000E+00 0.  1.
         21   -1    0    0  502  503 -0.00000000000E+00 -0.00000000000E+00 -0.22585785136E+03  0.22585785136E+03  0.00000000000E+00 0. -1.
          2    1    1    2  501    0 -0.50515549017E+01 -0.39135401461E+02 -0.34404133975E+02  0.52352099184E+02  0.00000000000E+00 0.  1.
         -2    1    1    2    0  503  0.50515549017E+01  0.39135401461E+02 -0.18034648714E+03  0.18461298242E+03  0.00000000000E+00 0. -1.
<mgrwt>
<rscale>  2 0.39460079E+02</rscale>
<asrwt>0</asrwt>
<pdfrwt beam="1">  1       21 0.17088048E-02 0.39460079E+02</pdfrwt>
<pdfrwt beam="2">  1       21 0.34747358E-01 0.39460079E+02</pdfrwt>
<totfact> 0.11059574E+07</totfact>
</mgrwt>
</event>
<event>
 4    1  0.2769537E+004  0.2548090E+02  0.7546771E-02  0.1654189E+00
         21   -1    0    0  503  502  0.00000000000E+00  0.00000000000E+00  0.15422935972E+01  0.15422935972E+01  0.00000000000E+00 0.  1.
         21   -1    0    0  501  503 -0.00000000000E+00 -0.00000000000E+00 -0.45072537913E+03  0.45072537913E+03  0.00000000000E+00 0. -1.
          2    1    1    2  501    0 -0.12753252666E+02  0.22059715615E+02 -0.16650025228E+03  0.16843874411E+03  0.00000000000E+00 0.  1.
         -2    1    1    2    0  502  0.12753252666E+02 -0.22059715615E+02 -0.28268283326E+03  0.28382892863E+03  0.00000000000E+00 0. -1.
<mgrwt>
<rscale>  2 0.25480905E+02</rscale>
<asrwt>0</asrwt>
<pdfrwt beam="1">  1       21 0.23727583E-03 0.25480905E+02</pdfrwt>
<pdfrwt beam="2">  1       21 0.69342397E-01 0.25480905E+02</pdfrwt>
<totfact> 0.50971767E+07</totfact>
</mgrwt>
</event>
<event>
 4    1  0.2769537E+004  0.3926493E+02  0.7546771E-02  0.1513691E+00
         21   -1    0    0  501  502  0.00000000000E+00  0.00000000000E+00  0.19524144887E+02  0.19524144887E+02  0.00000000000E+00 0.  1.
         21   -1    0    0  502  503 -0.00000000000E+00 -0.00000000000E+00 -0.90537479496E+02  0.90537479496E+02  0.00000000000E+00 0. -1.
          2    1    1    2  501    0  0.25596663674E+02  0.29774920985E+02 -0.15832591018E+02  0.42336816711E+02  0.00000000000E+00 0.  1.
         -2    1    1    2    0  503 -0.25596663674E+02 -0.29774920985E+02 -0.55180743591E+02  0.67724807671E+02  0.00000000000E+00 0. -1.
<mgrwt>
<rscale>  2 0.39264935E+02</rscale>
<asrwt>0</asrwt>
<pdfrwt beam="1">  1       21 0.30037146E-02 0.39264935E+02</pdfrwt>
<pdfrwt beam="2">  1       21 0.13928843E-01 0.39264935E+02</pdfrwt>
<totfact> 0.23671506E+07</totfact>
</mgrwt>
</event>
<event>
 4    1  0.2769537E+004  0.2374379E+02  0.7546771E-02  0.1679730E+00
         21   -1    0    0  501  502  0.00000000000E+00  0.00000000000E+00  0.41209570863E+02  0.41209570863E+02  0.00000000000E+00 0. -1.
         21   -1    0    0  502  503 -0.00000000000E+00 -0.00000000000E+00 -0.17532584568E+02  0.17532584568E+02  0.00000000000E+00 0.  1.
          2    1    1    2  501    0 -0.23463997179E+02  0.36343640224E+01  0.25605657636E+02  0.34920158482E+02  0.00000000000E+00 0. -1.
         -2    1    1    2    0  503  0.23463997179E+02 -0.36343640224E+01 -0.19286713416E+01  0.23821996948E+02  0.00000000000E+00 0.  1.
<mgrwt>
<rscale>  2 0.23743794E+02</rscale>
<asrwt>0</asrwt>
<pdfrwt beam="1">  1       21 0.63399340E-02 0.23743794E+02</pdfrwt>
<pdfrwt beam="2">  1       21 0.26973207E-02 0.23743794E+02</pdfrwt>
<totfact> 0.93294325E+07</totfact>
</mgrwt>
</event>
<event>
 4    1  0.2769537E+004  0.2219080E+02  0.7546771E-02  0.1704973E+00
         21   -1    0    0  501  502  0.00000000000E+00  0.00000000000E+00  0.82213771170E+03  0.82213771170E+03  0.00000000000E+00 0.  1.
         21   -1    0    0  502  503 -0.00000000000E+00 -0.00000000000E+00 -0.31248164793E+01  0.31248164793E+01  0.00000000000E+00 0. -1.
          2    1    1    2  501    0  0.26773154685E+01 -0.22028701639E+02  0.78048924991E+03  0.78080464966E+03  0.00000000000E+00 0.  1.
         -2    1    1    2    0  503 -0.26773154685E+01  0.22028701639E+02  0.38523645318E+02  0.44457878521E+02  0.00000000000E+00 0. -1.
<mgrwt>
<rscale>  2 0.22190802E+02</rscale>
<asrwt>0</asrwt>
<pdfrwt beam="1">  1       21 0.12648255E+00 0.22190802E+02</pdfrwt>
<pdfrwt beam="2">  1       21 0.48074165E-03 0.22190802E+02</pdfrwt>
<totfact> 0.48188361E+06</totfact>
</mgrwt>
</event>
<event>
 4    1  0.2769537E+004  0.3512394E+02  0.7546771E-02  0.1547503E+00
         21   -1    0    0  501  502  0.00000000000E+00  0.00000000000E+00  0.11645999597E+03  0.11645999597E+03  0.00000000000E+00 0. -1.
         21   -1    0    0  502  503 -0.00000000000E+00 -0.00000000000E+00 -0.37004819240E+02  0.37004819240E+02  0.00000000000E+00 0.  1.
          2    1    1    2  501    0  0.15649688038E+02 -0.31444848455E+02  0.10455320955E+03  0.11029535284E+03  0.00000000000E+00 0. -1.
         -2    1    1    2    0  503 -0.15649688038E+02  0.31444848455E+02 -0.25098032822E+02  0.43169462373E+02  0.00000000000E+00 0.  1.
<mgrwt>
<rscale>  2 0.35123941E+02</rscale>
<asrwt>0</asrwt>
<pdfrwt beam="1">  1       21 0.17916922E-01 0.35123941E+02</pdfrwt>
<pdfrwt beam="2">  1       21 0.56930492E-02 0.35123941E+02</pdfrwt>
<totfact> 0.53785746E+06</totfact>
</mgrwt>
</event>
<event>
 4    1  0.2769537E+004  0.2308046E+02  0.7546771E-02  0.1690209E+00
         21   -1    0    0  503  502  0.00000000000E+00  0.00000000000E+00  0.12637004352E+01  0.12637004352E+01  0.00000000000E+00 0.  1.
         21   -1    0    0  501  503 -0.00000000000E+00 -0.00000000000E+00 -0.53566876216E+03  0.53566876216E+03  0.00000000000E+00 0. -1.
          2    1    1    2  501    0 -0.22431995958E+02  0.54326020110E+01 -0.39111871436E+03  0.39179912752E+03  0.00000000000E+00 0.  1.
         -2    1    1    2    0  502  0.22431995958E+02 -0.54326020110E+01 -0.14328634736E+03  0.14513333507E+03  0.00000000000E+00 0. -1.
<mgrwt>
<rscale>  2 0.23080459E+02</rscale>
<asrwt>0</asrwt>
<pdfrwt beam="1">  1       21 0.19441532E-03 0.23080459E+02</pdfrwt>
<pdfrwt beam="2">  1       21 0.82410633E-01 0.23080459E+02</pdfrwt>
<totfact> 0.46469916E+07</totfact>
</mgrwt>
</event>
<event>
 4    1  0.2769537E+004  0.2187677E+02  0.7546771E-02  0.1710392E+00
         21   -1    0    0  503  502  0.00000000000E+00  0.00000000000E+00  0.69089922583E+01  0.69089922583E+01  0.00000000000E+00 0. -1.
         21   -1    0    0  501  503 -0.00000000000E+00 -0.00000000000E+00 -0.19834105349E+03  0.19834105349E+03  0.00000000000E+00 0.  1.
          2    1    1    2  501    0  0.49337180560E+01  0.21313177639E+02 -0.17850255082E+03  0.17983813212E+03  0.00000000000E+00 0.  1.
         -2    1    1    2    0  502 -0.49337180560E+01 -0.21313177639E+02 -0.12929510416E+02  0.25411913633E+02  0.00000000000E+00 0. -1.
<mgrwt>
<rscale>  2 0.21876771E+02</rscale>
<asrwt>0</asrwt>
<pdfrwt beam="1">  1       21 0.10629218E-02 0.21876771E+02</pdfrwt>
<pdfrwt beam="2">  1       21 0.30514010E-01 0.21876771E+02</pdfrwt>
<totfact> 0.26177180E+07</totfact>
</mgrwt>
</event>
<event>
 4    1  0.2769537E+004  0.2706544E+02  0.7546771E-02  0.1632993E+00
         21   -1    0    0  503  502  0.00000000000E+00  0.00000000000E+00  0.30256873538E+03  0.30256873538E+03  0.00000000000E+00 0. -1.
         21   -1    0    0  501  503 -0.00000000000E+00 -0.00000000000E+00 -0.24945706865E+01  0.24945706865E+01  0.00000000000E+00 0.  1.
          2    1    1    2  501    0 -0.21305200543E+02 -0.16692107637E+02  0.12385357103E+03  0.12677635854E+03  0.00000000000E+00 0. -1.
         -2    1    1    2    0  502  0.21305200543E+02  0.16692107637E+02  0.17622059367E+03  0.17828694753E+03  0.00000000000E+00 0.  1.
<mgrwt>
<rscale>  2 0.27065440E+02</rscale>
<asrwt>0</asrwt>
<pdfrwt beam="1">  1       21 0.46549007E-01 0.27065440E+02</pdfrwt>
<pdfrwt beam="2">  1       21 0.38378035E-03 0.27065440E+02</pdfrwt>
<totfact> 0.56561555E+07</totfact>
</mgrwt>
</event>
<event>
 4    1  0.2769537E+004  0.3331458E+02  0.7546771E-02  0.1564098E+00
         21   -1    0    0  501  502  0.00000000000E+00  0.00000000000E+00  0.15377838632E+03  0.15377838632E+03  0.00000000000E+00 0.  1.
         21   -1    0    0  502  503 -0.00000000000E+00 -0.00000000000E+00 -0.16390954520E+02  0.16390954520E+02  0.00000000000E+00 0. -1.
          2    1    1    2  501    0 -0.27960202815E+02  0.18113207872E+02  0.13234701656E+03  0.13647561699E+03  0.00000000000E+00 0.  1.
         -2    1    1    2    0  503  0.27960202815E+02 -0.18113207872E+02  0.50404152370E+01  0.33693723846E+02  0.00000000000E+00 0. -1.
<mgrwt>
<rscale>  2 0.33314580E+02</rscale>
<asrwt>0</asrwt>
<pdfrwt beam="1">  1       21 0.23658212E-01 0.33314580E+02</pdfrwt>
<pdfrwt beam="2">  1       21 0.25216854E-02 0.33314580E+02</pdfrwt>
<totfact> 0.11943974E+07</totfact>
</mgrwt>
</event>
<event>
 4    1  0.2769537E+004  0.3201718E+02  0.7546771E-02  0.1576805E+00
         21   -1    0    0  501  502  0.00000000000E+00  0.00000000000E+00  0.11739196502E+03  0.11739196502E+03  0.00000000000E+00 0.  1.
         21   -1    0    0  502  503 -0.00000000000E+00 -0.00000000000E+00 -0.88471274482E+01  0.88471274482E+01  0.00000000000E+00 0. -1.
          2    1    1    2  501    0  0.24772853736E+02  0.20283137453E+02  0.61463866594E+02  0.69303007466E+02  0.00000000000E+00 0.  1.
         -2    1    1    2    0  503 -0.24772853736E+02 -0.20283137453E+02  0.47080970978E+02  0.56936085002E+02  0.00000000000E+00 0. -1.
<mgrwt>
<rscale>  2 0.32017182E+02</rscale>
<asrwt>0</asrwt>
<pdfrwt beam="1">  1       21 0.18060301E-01 0.32017182E+02</pdfrwt>
<pdfrwt beam="2">  1       21 0.13610966E-02 0.32017182E+02</pdfrwt>
<totfact> 0.49796160E+07</totfact>
</mgrwt>
</event>
<event>
 4    1  0.2769537E+004  0.2119875E+02  0.7546771E-02  0.1722489E+00
         21   -1    0    0  503  502  0.00000000000E+00  0.00000000000E+00  0.17467653630E+02  0.17467653630E+02  0.00000000000E+00 0. -1.
         21   -1    0    0  501  503 -0.00000000000E+00 -0.00000000000E+00 -0.35680346081E+02  0.35680346081E+02  0.00000000000E+00 0.  1.
          2    1    1    2  501    0  0.11949341028E+01  0.21165045488E+02 -0.23141949426E+02  0.31383703435E+02  0.00000000000E+00 0.  1.
         -2    1    1    2    0  502 -0.11949341028E+01 -0.21165045488E+02  0.49292569757E+01  0.21764296276E+02  0.00000000000E+00 0. -1.
<mgrwt>
<rscale>  2 0.21198750E+02</rscale>
<asrwt>0</asrwt>
<pdfrwt beam="1">  1       21 0.26873314E-02 0.21198750E+02</pdfrwt>
<pdfrwt beam="2">  1       21 0.54892839E-02 0.21198750E+02</pdfrwt>
<totfact> 0.11437838E+08</totfact>
</mgrwt>
</event>
<event>
 4    1  0.2769537E+004  0.2152051E+02  0.7546771E-02  0.1716679E+00
         21   -1    0    0  501  502  0.00000000000E+00  0.00000000000E+00  0.28567984358E+01  0.28567984358E+01  0.00000000000E+00 0.  1.
         21   -1    0    0  502  503 -0.00000000000E+00 -0.00000000000E+00 -0.94312525907E+03  0.94312525907E+03  0.00000000000E+00 0. -1.
          2    1    1    2  501    0 -0.13032761749E+02  0.17125403750E+02 -0.39710362461E+02  0.45166859744E+02  0.00000000000E+00 0.  1.
         -2    1    1    2    0  503  0.13032761749E+02 -0.17125403750E+02 -0.90055809818E+03  0.90081519776E+03  0.00000000000E+00 0. -1.
<mgrwt>
<rscale>  2 0.21520510E+02</rscale>
<asrwt>0</asrwt>
<pdfrwt beam="1">  1       21 0.43950645E-03 0.21520510E+02</pdfrwt>
<pdfrwt beam="2">  1       21 0.14509652E+00 0.21520510E+02</pdfrwt>
<totfact> 0.39857067E+06</totfact>
</mgrwt>
</event>
<event>
 4    1  0.2769537E+004  0.2156459E+02  0.7546771E-02  0.1715893E+00
         21   -1    0    0  503  502  0.00000000000E+00  0.00000000000E+00  0.93925513189E+02  0.93925513189E+02  0.00000000000E+00 0.  1.
         21   -1    0    0  501  503 -0.00000000000E+00 -0.00000000000E+00 -0.72830726782E+01  0.72830726782E+01  0.00000000000E+00 0. -1.
          2    1    1    2  501    0 -0.21563377352E+02  0.22833777361E+00  0.14686366613E+02  0.26090625620E+02  0.00000000000E+00 0. -1.
         -2    1    1    2    0  502  0.21563377352E+02 -0.22833777361E+00  0.71956073897E+02  0.75117960247E+02  0.00000000000E+00 0.  1.
<mgrwt>
<rscale>  2 0.21564586E+02</rscale>
<asrwt>0</asrwt>
<pdfrwt beam="1">  1       21 0.14450078E-01 0.21564586E+02</pdfrwt>
<pdfrwt beam="2">  1       21 0.11204728E-02 0.21564586E+02</pdfrwt>
<totfact> 0.89178500E+07</totfact>
</mgrwt>
</event>
<event>
 4    1  0.2769537E+004  0.3369668E+02  0.7546771E-02  0.1560489E+00
         21   -1    0    0  503  502  0.00000000000E+00  0.00000000000E+00  0.34321141791E+03  0.34321141791E+03  0.00000000000E+00 0. -1.
         21   -1    0    0  501  503 -0.00000000000E+00 -0.00000000000E+00 -0.75870189226E+01  0.75870189226E+01  0.00000000000E+00 0.  1.
          2    1    1    2  501    0  0.10980590507E+02  0.31857381525E+02  0.36093928140E+02  0.49378515308E+02  0.00000000000E+00 0.  1.
         -2    1    1    2    0  502 -0.10980590507E+02 -0.31857381525E+02  0.29953047085E+03  0.30141992152E+03  0.00000000000E+00 0. -1.
<mgrwt>
<rscale>  2 0.33696678E+02</rscale>
<asrwt>0</asrwt>
<pdfrwt beam="1">  1       21 0.52801745E-01 0.33696678E+02</pdfrwt>
<pdfrwt beam="2">  1       21 0.11672339E-02 0.33696678E+02</pdfrwt>
<totfact> 0.86566797E+06</totfact>
</mgrwt>
</event>
<event>
 4    1  0.2769537E+004  0.2577535E+02  0.7546771E-02  0.1650109E+00
         21   -1    0    0  501  502  0.00000000000E+00  0.00000000000E+00  0.13278153281E+02  0.13278153281E+02  0.00000000000E+00 0. -1.
         21   -1    0    0  502  503 -0.00000000000E+00 -0.00000000000E+00 -0.54876526710E+02  0.54876526710E+02  0.00000000000E+00 0.  1.
          2    1    1    2  501    0 -0.13576332259E+02 -0.21910080556E+02 -0.10676939000E+02  0.27899201673E+02  0.00000000000E+00 0. -1.
         -2    1    1    2    0  503  0.13576332259E+02  0.21910080556E+02 -0.30921434429E+02  0.40255478319E+02  0.00000000000E+00 0.  1.
<mgrwt>
<rscale>  2 0.25775345E+02</rscale>
<asrwt>0</asrwt>
<pdfrwt beam="1">  1       21 0.20427928E-02 0.25775345E+02</pdfrwt>
<pdfrwt beam="2">  1       21 0.84425425E-02 0.25775345E+02</pdfrwt>
<totfact> 0.91970755E+07</totfact>
</mgrwt>
</event>
<event>
 4    1  0.2769537E+004  0.2062081E+02  0.7546771E-02  0.1733257E+00
         21   -1    0    0  503  502  0.00000000000E+00  0.00000000000E+00  0.60632268924E+00  0.60632268924E+00  0.00000000000E+00 0. -1.
         21   -1    0    0  501  503 -0.00000000000E+00 -0.00000000000E+00 -0.71912573356E+03  0.71912573356E+03  0.00000000000E+00 0.  1.
          2    1    1    2  501    0  0.89024578638E+01 -0.18600114266E+02 -0.41590758730E+03  0.41641846642E+03  0.00000000000E+00 0. -1.
         -2    1    1    2    0  502 -0.89024578638E+01  0.18600114266E+02 -0.30261182358E+03  0.30331358983E+03  0.00000000000E+00 0.  1.
<mgrwt>
<rscale>  2 0.20620815E+02</rscale>
<asrwt>0</asrwt>
<pdfrwt beam="1">  1       21 0.93280110E-04 0.20620815E+02</pdfrwt>
<pdfrwt beam="2">  1       21 0.11063509E+00 0.20620815E+02</pdfrwt>
<totfact> 0.68426559E+07</totfact>
</mgrwt>
</event>
<event>
 4    1  0.2769537E+004  0.5138325E+02  0.7546771E-02  0.1438020E+00
         21   -1    0    0  503  502  0.00000000000E+00  0.00000000000E+00  0.12300349428E+02  0.12300349428E+02  0.00000000000E+00 0.  1.
         21   -1    0    0  501  503 -0.00000000000E+00 -0.00000000000E+00 -0.21489086755E+03  0.21489086755E+03  0.00000000000E+00 0. -1.
          2    1    1    2  501    0 -0.45744283551E+02  0.23402956955E+02 -0.97471556335E+02  0.11018594360E+03  0.00000000000E+00 0.  1.
         -2    1    1    2    0  502  0.45744283551E+02 -0.23402956955E+02 -0.10511896178E+03  0.11700527338E+03  0.00000000000E+00 0. -1.
<mgrwt>
<rscale>  2 0.51383245E+02</rscale>
<asrwt>0</asrwt>
<pdfrwt beam="1">  1       21 0.18923614E-02 0.51383245E+02</pdfrwt>
<pdfrwt beam="2">  1       21 0.33060134E-01 0.51383245E+02</pdfrwt>
<totfact> 0.10706616E+07</totfact>
</mgrwt>
</event>
<event>
 4    1  0.2769537E+004  0.2082886E+02  0.7546771E-02  0.1729330E+00
         21   -1    0    0  501  502  0.00000000000E+00  0.00000000000E+00  0.24619640312E+03  0.24619640312E+03  0.00000000000E+00 0.  1.
         21   -1    0    0  502  503 -0.00000000000E+00 -0.00000000000E+00 -0.74013551359E+01  0.74013551359E+01  0.00000000000E+00 0. -1.
          2    1    1    2  501    0  0.10968686575E+02  0.17706764328E+02  0.23007715631E+03  0.23101805004E+03  0.00000000000E+00 0.  1.
         -2    1    1    2    0  503 -0.10968686575E+02 -0.17706764328E+02  0.87178916825E+01  0.22579708225E+02  0.00000000000E+00 0. -1.
<mgrwt>
<rscale>  2 0.20828864E+02</rscale>
<asrwt>0</asrwt>
<pdfrwt beam="1">  1       21 0.37876364E-01 0.20828864E+02</pdfrwt>
<pdfrwt beam="2">  1       21 0.11386702E-02 0.20828864E+02</pdfrwt>
<totfact> 0.15692665E+07</totfact>
</mgrwt>
</event>
<event>
 4    1  0.2769537E+004  0.2655232E+02  0.7546771E-02  0.1639657E+00
         21   -1    0    0  503  502  0.00000000000E+00  0.00000000000E+00  0.29478961964E+02  0.29478961964E+02  0.00000000000E+00 0. -1.
         21   -1    0    0  501  503 -0.00000000000E+00 -0.00000000000E+00 -0.56224369920E+02  0.56224369920E+02  0.00000000000E+00 0.  1.
          2    1    1    2  501    0  0.24621022991E+02  0.99413659302E+01 -0.45856098996E+02  0.52988747342E+02  0.00000000000E+00 0.  1.
         -2    1    1    2    0  502 -0.24621022991E+02 -0.99413659302E+01  0.19110691040E+02  0.32714584542E+02  0.00000000000E+00 0. -1.
<mgrwt>
<rscale>  2 0.26552317E+02</rscale>
<asrwt>0</asrwt>
<pdfrwt beam="1">  1       21 0.45352249E-02 0.26552317E+02</pdfrwt>
<pdfrwt beam="2">  1       21 0.86499030E-02 0.26552317E+02</pdfrwt>
<totfact> 0.25514600E+07</totfact>
</mgrwt>
</event>
<event>
 4    1  0.2769537E+004  0.2450783E+02  0.7546771E-02  0.1668173E+00
         21   -1    0    0  503  502  0.00000000000E+00  0.00000000000E+00  0.14836575923E+02  0.14836575923E+02  0.00000000000E+00 0.  1.
         21   -1    0    0  501  503 -0.00000000000E+00 -0.00000000000E+00 -0.10872296550E+03  0.10872296550E+03  0.00000000000E+00 0. -1.
          2    1    1    2  501    0  0.12789364032E+02  0.20906124024E+02 -0.95887709597E+02  0.98970130372E+02  0.00000000000E+00 0. -1.
         -2    1    1    2    0  502 -0.12789364032E+02 -0.20906124024E+02  0.20013200195E+01  0.24589411052E+02  0.00000000000E+00 0.  1.
<mgrwt>
<rscale>  2 0.24507833E+02</rscale>
<asrwt>0</asrwt>
<pdfrwt beam="1">  1       21 0.22825502E-02 0.24507833E+02</pdfrwt>
<pdfrwt beam="2">  1       21 0.16726609E-01 0.24507833E+02</pdfrwt>
<totfact> 0.24267243E+07</totfact>
</mgrwt>
</event>
<event>
 4    1  0.2769537E+004  0.2576000E+02  0.7546771E-02  0.1650320E+00
         21   -1    0    0  503  502  0.00000000000E+00  0.00000000000E+00  0.25085774130E+02  0.25085774130E+02  0.00000000000E+00 0. -1.
         21   -1    0    0  501  503 -0.00000000000E+00 -0.00000000000E+00 -0.34763396925E+02  0.34763396925E+02  0.00000000000E+00 0.  1.
          2    1    1    2  501    0 -0.25641058778E+02 -0.24725496157E+01 -0.19470525262E+02  0.32290536553E+02  0.00000000000E+00 0.  1.
         -2    1    1    2    0  502  0.25641058778E+02  0.24725496157E+01  0.97929024679E+01  0.27558634502E+02  0.00000000000E+00 0. -1.
<mgrwt>
<rscale>  2 0.25759996E+02</rscale>
<asrwt>0</asrwt>
<pdfrwt beam="1">  1       21 0.38593499E-02 0.25759996E+02</pdfrwt>
<pdfrwt beam="2">  1       21 0.53482149E-02 0.25759996E+02</pdfrwt>
<totfact> 0.71513325E+07</totfact>
</mgrwt>
</event>
<event>
 4    1  0.2769537E+004  0.2152178E+02  0.7546771E-02  0.1716656E+00
         21   -1    0    0  501  502  0.00000000000E+00  0.00000000000E+00  0.20397148273E+02  0.20397148273E+02  0.00000000000E+00 0.  1.
         21   -1    0    0  502  503 -0.00000000000E+00 -0.00000000000E+00 -0.25427547067E+02  0.25427547067E+02  0.00000000000E+00 0. -1.
          2    1    1    2  501    0 -0.19998023619E+02 -0.79540032239E+01  0.49773858545E+01  0.22089850291E+02  0.00000000000E+00 0.  1.
         -2    1    1    2    0  503  0.19998023619E+02  0.79540032239E+01 -0.10007784648E+02  0.23734845049E+02  0.00000000000E+00 0. -1.
<mgrwt>
<rscale>  2 0.21521782E+02</rscale>
<asrwt>0</asrwt>
<pdfrwt beam="1">  1       21 0.31380228E-02 0.21521782E+02</pdfrwt>
<pdfrwt beam="2">  1       21 0.39119303E-02 0.21521782E+02</pdfrwt>
<totfact> 0.15439277E+08</totfact>
</mgrwt>
</event>
<event>
 4    1  0.2769537E+004  0.2998592E+02  0.7546771E-02  0.1598244E+00
         21   -1    0    0  503  502  0.00000000000E+00  0.00000000000E+00  0.50570547174E+02  0.50570547174E+02  0.00000000000E+00 0.  1.
         21   -1    0    0  501  503 -0.00000000000E+00 -0.00000000000E+00 -0.31655167185E+02  0.31655167185E+02  0.00000000000E+00 0. -1.
          2    1    1    2  501    0  0.71489253929E+01 -0.29121270824E+02 -0.17761236571E+02  0.34851356834E+02  0.00000000000E+00 0. -1.
         -2    1    1    2    0  502 -0.71489253929E+01  0.29121270824E+02  0.36676616559E+02  0.47374357525E+02  0.00000000000E+00 0.  1.
<mgrwt>
<rscale>  2 0.29985923E+02</rscale>
<asrwt>0</asrwt>
<pdfrwt beam="1">  1       21 0.77800842E-02 0.29985923E+02</pdfrwt>
<pdfrwt beam="2">  1       21 0.48700257E-02 0.29985923E+02</pdfrwt>
<totfact> 0.27806320E+07</totfact>
</mgrwt>
</event>
<event>
 4    1  0.2769537E+004  0.2302829E+02  0.7546771E-02  0.1691052E+00
         21   -1    0    0  503  502  0.00000000000E+00  0.00000000000E+00  0.10288098766E+03  0.10288098766E+03  0.00000000000E+00 0.  1.
         21   -1    0    0  501  503 -0.00000000000E+00 -0.00000000000E+00 -0.10147720078E+02  0.10147720078E+02  0.00000000000E+00 0. -1.
          2    1    1    2  501    0 -0.19833299297E+02  0.11702230758E+02  0.67238565681E+01  0.23989835616E+02  0.00000000000E+00 0. -1.
         -2    1    1    2    0  502  0.19833299297E+02 -0.11702230758E+02  0.86009411018E+02  0.89038872126E+02  0.00000000000E+00 0.  1.
<mgrwt>
<rscale>  2 0.23028286E+02</rscale>
<asrwt>0</asrwt>
<pdfrwt beam="1">  1       21 0.15827844E-01 0.23028286E+02</pdfrwt>
<pdfrwt beam="2">  1       21 0.15611878E-02 0.23028286E+02</pdfrwt>
<totfact> 0.47064223E+07</totfact>
</mgrwt>
</event>
<event>
 4    1  0.2769537E+004  0.2256615E+02  0.7546771E-02  0.1698641E+00
         21   -1    0    0  501  502  0.00000000000E+00  0.00000000000E+00  0.15855243854E+01  0.15855243854E+01  0.00000000000E+00 0. -1.
         21   -1    0    0  502  503 -0.00000000000E+00 -0.00000000000E+00 -0.41107576137E+03  0.41107576137E+03  0.00000000000E+00 0.  1.
          2    1    1    2  501    0  0.13961303464E+02 -0.17728874158E+02 -0.10825469582E+03  0.11058168989E+03  0.00000000000E+00 0. -1.
         -2    1    1    2    0  503 -0.13961303464E+02  0.17728874158E+02 -0.30123554117E+03  0.30207959586E+03  0.00000000000E+00 0.  1.
<mgrwt>
<rscale>  2 0.22566147E+02</rscale>
<asrwt>0</asrwt>
<pdfrwt beam="1">  1       21 0.24392640E-03 0.22566147E+02</pdfrwt>
<pdfrwt beam="2">  1       21 0.63242536E-01 0.22566147E+02</pdfrwt>
<totfact> 0.57458828E+07</totfact>
</mgrwt>
</event>
<event>
 4    1  0.2769537E+004  0.3694979E+02  0.7546771E-02  0.1531938E+00
         21   -1    0    0  501  502  0.00000000000E+00  0.00000000000E+00  0.67649539276E+02  0.67649539276E+02  0.00000000000E+00 0.  1.
         21   -1    0    0  502  503 -0.00000000000E+00 -0.00000000000E+00 -0.22117385425E+02  0.22117385425E+02  0.00000000000E+00 0. -1.
          2    1    1    2  501    0 -0.28080000435E+02 -0.24016679956E+02  0.36043969915E+02  0.51618360181E+02  0.00000000000E+00 0. -1.
         -2    1    1    2    0  503  0.28080000435E+02  0.24016679956E+02  0.94881839360E+01  0.38148564520E+02  0.00000000000E+00 0.  1.
<mgrwt>
<rscale>  2 0.36949795E+02</rscale>
<asrwt>0</asrwt>
<pdfrwt beam="1">  1       21 0.10407621E-01 0.36949795E+02</pdfrwt>
<pdfrwt beam="2">  1       21 0.34026747E-02 0.36949795E+02</pdfrwt>
<totfact> 0.31606324E+07</totfact>
</mgrwt>
</event>
<event>
 4    1  0.2769537E+004  0.3021959E+02  0.7546771E-02  0.1595674E+00
         21   -1    0    0  503  502  0.00000000000E+00  0.00000000000E+00  0.34311294082E+03  0.34311294082E+03  0.00000000000E+00 0.  1.
         21   -1    0    0  501  503 -0.00000000000E+00 -0.00000000000E+00 -0.30133323067E+01  0.30133323067E+01  0.00000000000E+00 0. -1.
          2    1    1    2  501    0 -0.23469289923E+02 -0.19037229584E+02  0.11092121941E+03  0.11496408394E+03  0.00000000000E+00 0.  1.
         -2    1    1    2    0  502  0.23469289923E+02  0.19037229584E+02  0.22917838911E+03  0.23116218919E+03  0.00000000000E+00 0. -1.
<mgrwt>
<rscale>  2 0.30219591E+02</rscale>
<asrwt>0</asrwt>
<pdfrwt beam="1">  1       21 0.52786575E-01 0.30219591E+02</pdfrwt>
<pdfrwt beam="2">  1       21 0.46358986E-03 0.30219591E+02</pdfrwt>
<totfact> 0.34192555E+07</totfact>
</mgrwt>
</event>
<event>
 4    1  0.2769537E+004  0.3522996E+02  0.7546771E-02  0.1546568E+00
         21   -1    0    0  501  502  0.00000000000E+00  0.00000000000E+00  0.89484386261E+02  0.89484386261E+02  0.00000000000E+00 0.  1.
         21   -1    0    0  502  503 -0.00000000000E+00 -0.00000000000E+00 -0.14467368298E+02  0.14467368298E+02  0.00000000000E+00 0. -1.
          2    1    1    2  501    0  0.12504467681E+00  0.35229735270E+02  0.48069927955E+02  0.59597549085E+02  0.00000000000E+00 0.  1.
         -2    1    1    2    0  503 -0.12504467681E+00 -0.35229735270E+02  0.26947090008E+02  0.44354205474E+02  0.00000000000E+00 0. -1.
<mgrwt>
<rscale>  2 0.35229957E+02</rscale>
<asrwt>0</asrwt>
<pdfrwt beam="1">  1       21 0.13766828E-01 0.35229957E+02</pdfrwt>
<pdfrwt beam="2">  1       21 0.22257490E-02 0.35229957E+02</pdfrwt>
<totfact> 0.37992181E+07</totfact>
</mgrwt>
</event>
<event>
 4    1  0.2769537E+004  0.2071055E+02  0.7546771E-02  0.1731556E+00
         21   -1    0    0  501  502  0.00000000000E+00  0.00000000000E+00  0.23217325349E+00  0.23217325349E+00  0.00000000000E+00 0. -1.
         21   -1    0    0  502  503 -0.00000000000E+00 -0.00000000000E+00 -0.18477118206E+04  0.18477118206E+04  0.00000000000E+00 0.  1.
          2    1    1    2  501    0  0.10150467459E+02 -0.18052563455E+02 -0.93486811536E+03  0.93509749232E+03  0.00000000000E+00 0. -1.
         -2    1    1    2    0  503 -0.10150467459E+02  0.18052563455E+02 -0.91261153201E+03  0.91284650155E+03  0.00000000000E+00 0.  1.
<mgrwt>
<rscale>  2 0.20710554E+02</rscale>
<asrwt>0</asrwt>
<pdfrwt beam="1">  1       21 0.35718143E-04 0.20710554E+02</pdfrwt>
<pdfrwt beam="2">  1       21 0.28426988E+00 0.20710554E+02</pdfrwt>
<totfact> 0.24564399E+07</totfact>
</mgrwt>
</event>
<event>
 4    1  0.2769537E+004  0.3120850E+02  0.7546771E-02  0.1585102E+00
         21   -1    0    0  501  502  0.00000000000E+00  0.00000000000E+00  0.17064216054E+04  0.17064216054E+04  0.00000000000E+00 0. -1.
         21   -1    0    0  502  503 -0.00000000000E+00 -0.00000000000E+00 -0.49114038027E+01  0.49114038027E+01  0.00000000000E+00 0.  1.
          2    1    1    2  501    0  0.25581565759E+02 -0.17876076008E+02  0.16551668254E+04  0.16554610205E+04  0.00000000000E+00 0. -1.
         -2    1    1    2    0  503 -0.25581565759E+02  0.17876076008E+02  0.46343376177E+02  0.55871988649E+02  0.00000000000E+00 0.  1.
<mgrwt>
<rscale>  2 0.31208502E+02</rscale>
<asrwt>0</asrwt>
<pdfrwt beam="1">  1       21 0.26252593E+00 0.31208502E+02</pdfrwt>
<pdfrwt beam="2">  1       21 0.75560195E-03 0.31208502E+02</pdfrwt>
<totfact> 0.38340229E+05</totfact>
</mgrwt>
</event>
<event>
 4    1  0.2769537E+004  0.2014141E+02  0.7546771E-02  0.1742530E+00
         21   -1    0    0  501  502  0.00000000000E+00  0.00000000000E+00  0.22676310239E+01  0.22676310239E+01  0.00000000000E+00 0. -1.
         21   -1    0    0  502  503 -0.00000000000E+00 -0.00000000000E+00 -0.22495855685E+03  0.22495855685E+03  0.00000000000E+00 0.  1.
          2    1    1    2  501    0 -0.16628483724E+02 -0.11365297762E+02 -0.59936604655E+02  0.63230317426E+02  0.00000000000E+00 0. -1.
         -2    1    1    2    0  503  0.16628483724E+02  0.11365297762E+02 -0.16275432117E+03  0.16399587045E+03  0.00000000000E+00 0.  1.
<mgrwt>
<rscale>  2 0.20141412E+02</rscale>
<asrwt>0</asrwt>
<pdfrwt beam="1">  1       21 0.34886631E-03 0.20141412E+02</pdfrwt>
<pdfrwt beam="2">  1       21 0.34609009E-01 0.20141412E+02</pdfrwt>
<totfact> 0.10564740E+08</totfact>
</mgrwt>
</event>
<event>
 4    1  0.2769537E+004  0.3854120E+02  0.7546771E-02  0.1519230E+00
         21   -1    0    0  503  502  0.00000000000E+00  0.00000000000E+00  0.20734493621E+01  0.20734493621E+01  0.00000000000E+00 0. -1.
         21   -1    0    0  501  503 -0.00000000000E+00 -0.00000000000E+00 -0.16903562989E+04  0.16903562989E+04  0.00000000000E+00 0.  1.
          2    1    1    2  501    0  0.31874429576E+01 -0.38409165999E+02 -0.14864751964E+04  0.14869747588E+04  0.00000000000E+00 0.  1.
         -2    1    1    2    0  502 -0.31874429576E+01  0.38409165999E+02 -0.20180765308E+03  0.20545498940E+03  0.00000000000E+00 0. -1.
<mgrwt>
<rscale>  2 0.38541196E+02</rscale>
<asrwt>0</asrwt>
<pdfrwt beam="1">  1       21 0.31899172E-03 0.38541196E+02</pdfrwt>
<pdfrwt beam="2">  1       21 0.26005521E+00 0.38541196E+02</pdfrwt>
<totfact> 0.14188137E+06</totfact>
</mgrwt>
</event>
<event>
 4    1  0.2769537E+004  0.2013092E+02  0.7546771E-02  0.1742737E+00
         21   -1    0    0  501  502  0.00000000000E+00  0.00000000000E+00  0.64677595063E+02  0.64677595063E+02  0.00000000000E+00 0. -1.
         21   -1    0    0  502  503 -0.00000000000E+00 -0.00000000000E+00 -0.10578479163E+02  0.10578479163E+02  0.00000000000E+00 0.  1.
          2    1    1    2  501    0  0.19385962842E+02 -0.54257123089E+01  0.51075245803E+02  0.54899313686E+02  0.00000000000E+00 0. -1.
         -2    1    1    2    0  503 -0.19385962842E+02  0.54257123089E+01  0.30238700974E+01  0.20356760541E+02  0.00000000000E+00 0.  1.
<mgrwt>
<rscale>  2 0.20130919E+02</rscale>
<asrwt>0</asrwt>
<pdfrwt beam="1">  1       21 0.99503990E-02 0.20130919E+02</pdfrwt>
<pdfrwt beam="2">  1       21 0.16274584E-02 0.20130919E+02</pdfrwt>
<totfact> 0.92720479E+07</totfact>
</mgrwt>
</event>
<event>
 4    1  0.2769537E+004  0.2509619E+02  0.7546771E-02  0.1659624E+00
         21   -1    0    0  503  502  0.00000000000E+00  0.00000000000E+00  0.73918013039E+02  0.73918013039E+02  0.00000000000E+00 0.  1.
         21   -1    0    0  501  503 -0.00000000000E+00 -0.00000000000E+00 -0.23052053678E+02  0.23052053678E+02  0.00000000000E+00 0. -1.
          2    1    1    2  501    0  0.43293154424E+01  0.24719948539E+02 -0.13062419946E+02  0.28292148077E+02  0.00000000000E+00 0. -1.
         -2    1    1    2    0  502 -0.43293154424E+01 -0.24719948539E+02  0.63928379307E+02  0.68677918641E+02  0.00000000000E+00 0.  1.
<mgrwt>
<rscale>  2 0.25096192E+02</rscale>
<asrwt>0</asrwt>
<pdfrwt beam="1">  1       21 0.11372002E-01 0.25096192E+02</pdfrwt>
<pdfrwt beam="2">  1       21 0.35464698E-02 0.25096192E+02</pdfrwt>
<totfact> 0.23622095E+07</totfact>
</mgrwt>
</event>
<event>
 4    1  0.2769537E+004  0.2694107E+02  0.7546771E-02  0.1634591E+00
         21   -1    0    0  501  502  0.00000000000E+00  0.00000000000E+00  0.57363365955E+00  0.57363365955E+00  0.00000000000E+00 0. -1.
         21   -1    0    0  502  503 -0.00000000000E+00 -0.00000000000E+00 -0.14417426581E+04  0.14417426581E+04  0.00000000000E+00 0.  1.
          2    1    1    2  501    0 -0.26712293632E+02  0.35035104029E+01 -0.46830442578E+03  0.46907873158E+03  0.00000000000E+00 0. -1.
         -2    1    1    2    0  503  0.26712293632E+02 -0.35035104029E+01 -0.97286459871E+03  0.97323756023E+03  0.00000000000E+00 0.  1.
<mgrwt>
<rscale>  2 0.26941069E+02</rscale>
<asrwt>0</asrwt>
<pdfrwt beam="1">  1       21 0.88250581E-04 0.26941069E+02</pdfrwt>
<pdfrwt beam="2">  1       21 0.22180845E+00 0.26941069E+02</pdfrwt>
<totfact> 0.14388525E+07</totfact>
</mgrwt>
</event>
<event>
 4    1  0.2769537E+004  0.4437687E+02  0.7546771E-02  0.1478270E+00
         21   -1    0    0  501  502  0.00000000000E+00  0.00000000000E+00  0.48928493700E+02  0.48928493700E+02  0.00000000000E+00 0.  1.
         21   -1    0    0  502  503 -0.00000000000E+00 -0.00000000000E+00 -0.53230104336E+02  0.53230104336E+02  0.00000000000E+00 0. -1.
          2    1    1    2  501    0 -0.44327384926E+02 -0.20951230876E+01  0.23073991643E+02  0.50017153912E+02  0.00000000000E+00 0.  1.
         -2    1    1    2    0  503  0.44327384926E+02  0.20951230876E+01 -0.27375602279E+02  0.52141444124E+02  0.00000000000E+00 0. -1.
<mgrwt>
<rscale>  2 0.44376870E+02</rscale>
<asrwt>0</asrwt>
<pdfrwt beam="1">  1       21 0.75274606E-02 0.44376870E+02</pdfrwt>
<pdfrwt beam="2">  1       21 0.81892468E-02 0.44376870E+02</pdfrwt>
<totfact> 0.13383835E+07</totfact>
</mgrwt>
</event>
<event>
 4    1  0.2769537E+004  0.2252198E+02  0.7546771E-02  0.1699378E+00
         21   -1    0    0  503  502  0.00000000000E+00  0.00000000000E+00  0.47279139551E+02  0.47279139551E+02  0.00000000000E+00 0. -1.
         21   -1    0    0  501  503 -0.00000000000E+00 -0.00000000000E+00 -0.43424394096E+02  0.43424394096E+02  0.00000000000E+00 0.  1.
          2    1    1    2  501    0  0.16366410713E+02 -0.15471913046E+02 -0.37425206295E+02  0.43679349344E+02  0.00000000000E+00 0.  1.
         -2    1    1    2    0  502 -0.16366410713E+02  0.15471913046E+02  0.41279951750E+02  0.47024184303E+02  0.00000000000E+00 0. -1.
<mgrwt>
<rscale>  2 0.22521978E+02</rscale>
<asrwt>0</asrwt>
<pdfrwt beam="1">  1       21 0.72737138E-02 0.22521978E+02</pdfrwt>
<pdfrwt beam="2">  1       21 0.66806760E-02 0.22521978E+02</pdfrwt>
<totfact> 0.17566748E+07</totfact>
</mgrwt>
</event>
<event>
 4    1  0.2769537E+004  0.2846464E+02  0.7546771E-02  0.1615708E+00
         21   -1    0    0  503  502  0.00000000000E+00  0.00000000000E+00  0.35668189043E+02  0.35668189043E+02  0.00000000000E+00 0.  1.
         21   -1    0    0  501  503 -0.00000000000E+00 -0.00000000000E+00 -0.23254892742E+02  0.23254892742E+02  0.00000000000E+00 0. -1.
          2    1    1    2  501    0  0.28451249794E+02  0.87284199708E+00  0.17214190134E+01  0.28516639904E+02  0.00000000000E+00 0. -1.
         -2    1    1    2    0  502 -0.28451249794E+02 -0.87284199708E+00  0.10691877287E+02  0.30406441882E+02  0.00000000000E+00 0.  1.
<mgrwt>
<rscale>  2 0.28464635E+02</rscale>
<asrwt>0</asrwt>
<pdfrwt beam="1">  1       21 0.54874137E-02 0.28464635E+02</pdfrwt>
<pdfrwt beam="2">  1       21 0.35776758E-02 0.28464635E+02</pdfrwt>
<totfact> 0.79319729E+07</totfact>
</mgrwt>
</event>
<event>
 4    1  0.2769537E+004  0.2446542E+02  0.7546771E-02  0.1668801E+00
         21   -1    0    0  501  502  0.00000000000E+00  0.00000000000E+00  0.23106359585E+02  0.23106359585E+02  0.00000000000E+00 0.  1.
         21   -1    0    0  502  503 -0.00000000000E+00 -0.00000000000E+00 -0.26600565030E+02  0.26600565030E+02  0.00000000000E+00 0. -1.
          2    1    1    2  501    0 -0.14972516309E+02  0.19348916511E+02  0.22735051369E+01  0.24570829053E+02  0.00000000000E+00 0. -1.
         -2    1    1    2    0  503  0.14972516309E+02 -0.19348916511E+02 -0.57677105823E+01  0.25136095562E+02  0.00000000000E+00 0.  1.
<mgrwt>
<rscale>  2 0.24465421E+02</rscale>
<asrwt>0</asrwt>
<pdfrwt beam="1">  1       21 0.35548245E-02 0.24465421E+02</pdfrwt>
<pdfrwt beam="2">  1       21 0.40923946E-02 0.24465421E+02</pdfrwt>
<totfact> 0.12298296E+08</totfact>
</mgrwt>
</event>
<event>
 4    1  0.2769537E+004  0.2520165E+02  0.7546771E-02  0.1658122E+00
         21   -1    0    0  503  502  0.00000000000E+00  0.00000000000E+00  0.15472996607E+03  0.15472996607E+03  0.00000000000E+00 0. -1.
         21   -1    0    0  501  503 -0.00000000000E+00 -0.00000000000E+00 -0.97074617246E+01  0.97074617246E+01  0.00000000000E+00 0.  1.
          2    1    1    2  501    0  0.11529728299E+02  0.22409559901E+02  0.10048922051E+02  0.27131233735E+02  0.00000000000E+00 0.  1.
         -2    1    1    2    0  502 -0.11529728299E+02 -0.22409559901E+02  0.13497358229E+03  0.13730619406E+03  0.00000000000E+00 0. -1.
<mgrwt>
<rscale>  2 0.25201647E+02</rscale>
<asrwt>0</asrwt>
<pdfrwt beam="1">  1       21 0.23804608E-01 0.25201647E+02</pdfrwt>
<pdfrwt beam="2">  1       21 0.14934558E-02 0.25201647E+02</pdfrwt>
<totfact> 0.25233323E+07</totfact>
</mgrwt>
</event>
<event>
 4    1  0.2769537E+004  0.2545976E+02  0.7546771E-02  0.1654485E+00
         21   -1    0    0  501  502  0.00000000000E+00  0.00000000000E+00  0.97793810362E+02  0.97793810362E+02  0.00000000000E+00 0. -1.
         21   -1    0    0  502  503 -0.00000000000E+00 -0.00000000000E+00 -0.93170380034E+01  0.93170380034E+01  0.00000000000E+00 0.  1.
          2    1    1    2  501    0  0.25388379729E+02  0.19051863581E+01  0.73008705351E+02  0.77320570467E+02  0.00000000000E+00 0. -1.
         -2    1    1    2    0  503 -0.25388379729E+02 -0.19051863581E+01  0.15468067007E+02  0.29790277898E+02  0.00000000000E+00 0.  1.
<mgrwt>
<rscale>  2 0.25459764E+02</rscale>
<asrwt>0</asrwt>
<pdfrwt beam="1">  1       21 0.15045201E-01 0.25459764E+02</pdfrwt>
<pdfrwt beam="2">  1       21 0.14333905E-02 0.25459764E+02</pdfrwt>
<totfact> 0.59930810E+07</totfact>
</mgrwt>
</event>
<event>
 4    1  0.2769537E+004  0.3219882E+02  0.7546771E-02  0.1574982E+00
         21   -1    0    0  501  502  0.00000000000E+00  0.00000000000E+00  0.15181795864E+02  0.15181795864E+02  0.00000000000E+00 0. -1.
         21   -1    0    0  502  503 -0.00000000000E+00 -0.00000000000E+00 -0.76544229689E+02  0.76544229689E+02  0.00000000000E+00 0.  1.
          2    1    1    2  501    0 -0.26253240264E+02 -0.18642200029E+02 -0.15620499669E+02  0.35787766851E+02  0.00000000000E+00 0.  1.
         -2    1    1    2    0  503  0.26253240264E+02  0.18642200029E+02 -0.45741934156E+02  0.55938258702E+02  0.00000000000E+00 0. -1.
<mgrwt>
<rscale>  2 0.32198824E+02</rscale>
<asrwt>0</asrwt>
<pdfrwt beam="1">  1       21 0.23356609E-02 0.32198824E+02</pdfrwt>
<pdfrwt beam="2">  1       21 0.11776035E-01 0.32198824E+02</pdfrwt>
<totfact> 0.45171003E+07</totfact>
</mgrwt>
</event>
<event>
 4    1  0.2769537E+004  0.3019995E+02  0.7546771E-02  0.1595889E+00
         21   -1    0    0  501  502  0.00000000000E+00  0.00000000000E+00  0.44994983586E+02  0.44994983586E+02  0.00000000000E+00 0. -1.
         21   -1    0    0  502  503 -0.00000000000E+00 -0.00000000000E+00 -0.21980194826E+02  0.21980194826E+02  0.00000000000E+00 0.  1.
          2    1    1    2  501    0 -0.29190559295E+02  0.77426220399E+01  0.21657573288E+01  0.30277507374E+02  0.00000000000E+00 0.  1.
         -2    1    1    2    0  503  0.29190559295E+02 -0.77426220399E+01  0.20849031431E+02  0.36697671038E+02  0.00000000000E+00 0. -1.
<mgrwt>
<rscale>  2 0.30199949E+02</rscale>
<asrwt>0</asrwt>
<pdfrwt beam="1">  1       21 0.69223051E-02 0.30199949E+02</pdfrwt>
<pdfrwt beam="2">  1       21 0.33815684E-02 0.30199949E+02</pdfrwt>
<totfact> 0.60310263E+07</totfact>
</mgrwt>
</event>
<event>
 4    1  0.2769537E+004  0.2808160E+02  0.7546771E-02  0.1620316E+00
         21   -1    0    0  503  502  0.00000000000E+00  0.00000000000E+00  0.99586208596E+02  0.99586208596E+02  0.00000000000E+00 0.  1.
         21   -1    0    0  501  503 -0.00000000000E+00 -0.00000000000E+00 -0.12642221677E+02  0.12642221677E+02  0.00000000000E+00 0. -1.
          2    1    1    2  501    0 -0.98471868386E+01 -0.26298468508E+02  0.91713795969E+01  0.29541339479E+02  0.00000000000E+00 0. -1.
         -2    1    1    2    0  502  0.98471868386E+01  0.26298468508E+02  0.77772607321E+02  0.82687090794E+02  0.00000000000E+00 0.  1.
<mgrwt>
<rscale>  2 0.28081605E+02</rscale>
<asrwt>0</asrwt>
<pdfrwt beam="1">  1       21 0.15320955E-01 0.28081605E+02</pdfrwt>
<pdfrwt beam="2">  1       21 0.19449572E-02 0.28081605E+02</pdfrwt>
<totfact> 0.37209014E+07</totfact>
</mgrwt>
</event>
<event>
 4    1  0.2769537E+004  0.2120088E+02  0.7546771E-02  0.1722450E+00
         21   -1    0    0  503  502  0.00000000000E+00  0.00000000000E+00  0.36746542755E+02  0.36746542755E+02  0.00000000000E+00 0. -1.
         21   -1    0    0  501  503 -0.00000000000E+00 -0.00000000000E+00 -0.13316326805E+02  0.13316326805E+02  0.00000000000E+00 0.  1.
          2    1    1    2  501    0  0.14311273833E+02  0.15641769394E+02  0.45716677053E+01  0.21688191582E+02  0.00000000000E+00 0. -1.
         -2    1    1    2    0  502 -0.14311273833E+02 -0.15641769394E+02  0.18858548245E+02  0.28374677979E+02  0.00000000000E+00 0.  1.
<mgrwt>
<rscale>  2 0.21200885E+02</rscale>
<asrwt>0</asrwt>
<pdfrwt beam="1">  1       21 0.56533142E-02 0.21200885E+02</pdfrwt>
<pdfrwt beam="2">  1       21 0.20486657E-02 0.21200885E+02</pdfrwt>
<totfact> 0.16566971E+08</totfact>
</mgrwt>
</event>
<event>
 4    1  0.2769537E+004  0.2274192E+02  0.7546771E-02  0.1695728E+00
         21   -1    0    0  503  502  0.00000000000E+00  0.00000000000E+00  0.30586952373E+01  0.30586952373E+01  0.00000000000E+00 0. -1.
         21   -1    0    0  501  503 -0.00000000000E+00 -0.00000000000E+00 -0.17870826855E+03  0.17870826855E+03  0.00000000000E+00 0.  1.
          2    1    1    2  501    0  0.14397810710E+02 -0.17603913089E+02 -0.10890920321E+03  0.11125829970E+03  0.00000000000E+00 0. -1.
         -2    1    1    2    0  502 -0.14397810710E+02  0.17603913089E+02 -0.66740370101E+02  0.70508664081E+02  0.00000000000E+00 0.  1.
<mgrwt>
<rscale>  2 0.22741915E+02</rscale>
<asrwt>0</asrwt>
<pdfrwt beam="1">  1       21 0.47056845E-03 0.22741915E+02</pdfrwt>
<pdfrwt beam="2">  1       21 0.27493583E-01 0.22741915E+02</pdfrwt>
<totfact> 0.10717859E+08</totfact>
</mgrwt>
</event>
<event>
 4    1  0.2769537E+004  0.2019061E+02  0.7546771E-02  0.1741564E+00
         21   -1    0    0  503  502  0.00000000000E+00  0.00000000000E+00  0.18407751853E+02  0.18407751853E+02  0.00000000000E+00 0.  1.
         21   -1    0    0  501  503 -0.00000000000E+00 -0.00000000000E+00 -0.25092590044E+02  0.25092590044E+02  0.00000000000E+00 0. -1.
          2    1    1    2  501    0 -0.17069624967E+02 -0.10783717303E+02 -0.10795561980E+02  0.22895519514E+02  0.00000000000E+00 0. -1.
         -2    1    1    2    0  502  0.17069624967E+02  0.10783717303E+02  0.41107237885E+01  0.20604822383E+02  0.00000000000E+00 0.  1.
<mgrwt>
<rscale>  2 0.20190608E+02</rscale>
<asrwt>0</asrwt>
<pdfrwt beam="1">  1       21 0.28319618E-02 0.20190608E+02</pdfrwt>
<pdfrwt beam="2">  1       21 0.38603985E-02 0.20190608E+02</pdfrwt>
<totfact> 0.18114383E+08</totfact>
</mgrwt>
</event>
<event>
 4    1  0.2769537E+004  0.2804656E+02  0.7546771E-02  0.1620743E+00
         21   -1    0    0  501  502  0.00000000000E+00  0.00000000000E+00  0.13298850087E+03  0.13298850087E+03  0.00000000000E+00 0.  1.
         21   -1    0    0  502  503 -0.00000000000E+00 -0.00000000000E+00 -0.60899520988E+01  0.60899520988E+01  0.00000000000E+00 0. -1.
          2    1    1    2  501    0  0.79867581846E+01 -0.26885331618E+02  0.75240172377E+02  0.80297527371E+02  0.00000000000E+00 0.  1.
         -2    1    1    2    0  503 -0.79867581846E+01  0.26885331618E+02  0.51658376397E+02  0.58780925601E+02  0.00000000000E+00 0. -1.
<mgrwt>
<rscale>  2 0.28046557E+02</rscale>
<asrwt>0</asrwt>
<pdfrwt beam="1">  1       21 0.20459767E-01 0.28046557E+02</pdfrwt>
<pdfrwt beam="2">  1       21 0.93691581E-03 0.28046557E+02</pdfrwt>
<totfact> 0.68542753E+07</totfact>
</mgrwt>
</event>
<event>
 4    1  0.2769537E+004  0.2993085E+02  0.7546771E-02  0.1598854E+00
         21   -1    0    0  501  502  0.00000000000E+00  0.00000000000E+00  0.14886645394E+02  0.14886645394E+02  0.00000000000E+00 0. -1.
         21   -1    0    0  502  503 -0.00000000000E+00 -0.00000000000E+00 -0.62163565766E+02  0.62163565766E+02  0.00000000000E+00 0.  1.
          2    1    1    2  501    0  0.20788378452E+01 -0.29858569599E+02 -0.16754075568E+02  0.34300944498E+02  0.00000000000E+00 0.  1.
         -2    1    1    2    0  503 -0.20788378452E+01  0.29858569599E+02 -0.30522844803E+02  0.42749266662E+02  0.00000000000E+00 0. -1.
<mgrwt>
<rscale>  2 0.29930849E+02</rscale>
<asrwt>0</asrwt>
<pdfrwt beam="1">  1       21 0.22902531E-02 0.29930849E+02</pdfrwt>
<pdfrwt beam="2">  1       21 0.95636255E-02 0.29930849E+02</pdfrwt>
<totfact> 0.65039841E+07</totfact>
</mgrwt>
</event>
<event>
 4    1  0.2769537E+004  0.2043570E+02  0.7546771E-02  0.1736800E+00
         21   -1    0    0  501  502  0.00000000000E+00  0.00000000000E+00  0.15394493036E+03  0.15394493036E+03  0.00000000000E+00 0. -1.
         21   -1    0    0  502  503 -0.00000000000E+00 -0.00000000000E+00 -0.15304968859E+02  0.15304968859E+02  0.00000000000E+00 0.  1.
          2    1    1    2  501    0 -0.18895970653E+02 -0.77820390759E+01  0.14607961768E+03  0.14750211029E+03  0.00000000000E+00 0. -1.
         -2    1    1    2    0  503  0.18895970653E+02  0.77820390759E+01 -0.74396561797E+01  0.21747788926E+02  0.00000000000E+00 0.  1.
<mgrwt>
<rscale>  2 0.20435700E+02</rscale>
<asrwt>0</asrwt>
<pdfrwt beam="1">  1       21 0.23683834E-01 0.20435700E+02</pdfrwt>
<pdfrwt beam="2">  1       21 0.23546107E-02 0.20435700E+02</pdfrwt>
<totfact> 0.12138971E+07</totfact>
</mgrwt>
</event>
<event>
 4    1  0.2769537E+004  0.4037022E+02  0.7546771E-02  0.1505505E+00
         21   -1    0    0  503  502  0.00000000000E+00  0.00000000000E+00  0.95313964424E+02  0.95313964424E+02  0.00000000000E+00 0.  1.
         21   -1    0    0  501  503 -0.00000000000E+00 -0.00000000000E+00 -0.19238876771E+02  0.19238876771E+02  0.00000000000E+00 0. -1.
          2    1    1    2  501    0 -0.18222118600E+02 -0.36023727710E+02  0.18934589799E+02  0.44590057807E+02  0.00000000000E+00 0. -1.
         -2    1    1    2    0  502  0.18222118600E+02  0.36023727710E+02  0.57140497853E+02  0.69962783387E+02  0.00000000000E+00 0.  1.
<mgrwt>
<rscale>  2 0.40370219E+02</rscale>
<asrwt>0</asrwt>
<pdfrwt beam="1">  1       21 0.14663687E-01 0.40370219E+02</pdfrwt>
<pdfrwt beam="2">  1       21 0.29598273E-02 0.40370219E+02</pdfrwt>
<totfact> 0.22267377E+07</totfact>
</mgrwt>
</event>
<event>
 4    1  0.2769537E+004  0.2019639E+02  0.7546771E-02  0.1741451E+00
         21   -1    0    0  501  502  0.00000000000E+00  0.00000000000E+00  0.42776923202E+03  0.42776923202E+03  0.00000000000E+00 0.  1.
         21   -1    0    0  502  503 -0.00000000000E+00 -0.00000000000E+00 -0.98028775707E+00  0.98028775707E+00  0.00000000000E+00 0. -1.
          2    1    1    2  501    0  0.17905058980E+02  0.93436030374E+01  0.24880724052E+03  0.24962559362E+03  0.00000000000E+00 0.  1.
         -2    1    1    2    0  503 -0.17905058980E+02 -0.93436030374E+01  0.17798170374E+03  0.17912392616E+03  0.00000000000E+00 0. -1.
<mgrwt>
<rscale>  2 0.20196387E+02</rscale>
<asrwt>0</asrwt>
<pdfrwt beam="1">  1       21 0.65810502E-01 0.20196387E+02</pdfrwt>
<pdfrwt beam="2">  1       21 0.15081384E-03 0.20196387E+02</pdfrwt>
<totfact> 0.10299362E+08</totfact>
</mgrwt>
</event>
<event>
 4    1  0.2769537E+004  0.2340073E+02  0.7546771E-02  0.1685096E+00
         21   -1    0    0  503  502  0.00000000000E+00  0.00000000000E+00  0.89602312839E+01  0.89602312839E+01  0.00000000000E+00 0. -1.
         21   -1    0    0  501  503 -0.00000000000E+00 -0.00000000000E+00 -0.87825104088E+02  0.87825104088E+02  0.00000000000E+00 0.  1.
          2    1    1    2  501    0  0.15944261778E+02 -0.17128178231E+02 -0.66120532937E+02  0.70139281783E+02  0.00000000000E+00 0.  1.
         -2    1    1    2    0  502 -0.15944261778E+02  0.17128178231E+02 -0.12744339867E+02  0.26646053588E+02  0.00000000000E+00 0. -1.
<mgrwt>
<rscale>  2 0.23400726E+02</rscale>
<asrwt>0</asrwt>
<pdfrwt beam="1">  1       21 0.13784971E-02 0.23400726E+02</pdfrwt>
<pdfrwt beam="2">  1       21 0.13511555E-01 0.23400726E+02</pdfrwt>
<totfact> 0.74724975E+07</totfact>
</mgrwt>
</event>
<event>
 4    1  0.2769537E+004  0.2323917E+02  0.7546771E-02  0.1687662E+00
         21   -1    0    0  501  502  0.00000000000E+00  0.00000000000E+00  0.51550638010E+03  0.51550638010E+03  0.00000000000E+00 0.  1.
         21   -1    0    0  502  503 -0.00000000000E+00 -0.00000000000E+00 -0.11612454684E+02  0.11612454684E+02  0.00000000000E+00 0. -1.
          2    1    1    2  501    0 -0.11917818428E+02 -0.19950548886E+02  0.50333679948E+03  0.50387299244E+03  0.00000000000E+00 0.  1.
         -2    1    1    2    0  503  0.11917818428E+02  0.19950548886E+02  0.55712593101E+00  0.23245842343E+02  0.00000000000E+00 0. -1.
<mgrwt>
<rscale>  2 0.23239165E+02</rscale>
<asrwt>0</asrwt>
<pdfrwt beam="1">  1       21 0.79308656E-01 0.23239165E+02</pdfrwt>
<pdfrwt beam="2">  1       21 0.17865319E-02 0.23239165E+02</pdfrwt>
<totfact> 0.18805269E+06</totfact>
</mgrwt>
</event>
<event>
 4    1  0.2769537E+004  0.2177625E+02  0.7546771E-02  0.1712151E+00
         21   -1    0    0  501  502  0.00000000000E+00  0.00000000000E+00  0.59169654182E+01  0.59169654182E+01  0.00000000000E+00 0. -1.
         21   -1    0    0  502  503 -0.00000000000E+00 -0.00000000000E+00 -0.82073923445E+02  0.82073923445E+02  0.00000000000E+00 0.  1.
          2    1    1    2  501    0 -0.13113999716E+02  0.17384708042E+02 -0.44826171384E+02  0.49835636880E+02  0.00000000000E+00 0.  1.
         -2    1    1    2    0  503  0.13113999716E+02 -0.17384708042E+02 -0.31330786643E+02  0.38155251983E+02  0.00000000000E+00 0. -1.
<mgrwt>
<rscale>  2 0.21776250E+02</rscale>
<asrwt>0</asrwt>
<pdfrwt beam="1">  1       21 0.91030247E-03 0.21776250E+02</pdfrwt>
<pdfrwt beam="2">  1       21 0.12626756E-01 0.21776250E+02</pdfrwt>
<totfact> 0.15326316E+08</totfact>
</mgrwt>
</event>
<event>
 4    1  0.2769537E+004  0.2110793E+02  0.7546771E-02  0.1724153E+00
         21   -1    0    0  501  502  0.00000000000E+00  0.00000000000E+00  0.13455671042E+01  0.13455671042E+01  0.00000000000E+00 0. -1.
         21   -1    0    0  502  503 -0.00000000000E+00 -0.00000000000E+00 -0.33397708858E+03  0.33397708858E+03  0.00000000000E+00 0.  1.
          2    1    1    2  501    0 -0.62205602003E+00  0.21098763708E+02 -0.18182185032E+03  0.18304297320E+03  0.00000000000E+00 0.  1.
         -2    1    1    2    0  503  0.62205602003E+00 -0.21098763708E+02 -0.15080967115E+03  0.15227968248E+03  0.00000000000E+00 0. -1.
<mgrwt>
<rscale>  2 0.21107932E+02</rscale>
<asrwt>0</asrwt>
<pdfrwt beam="1">  1       21 0.20701023E-03 0.21107932E+02</pdfrwt>
<pdfrwt beam="2">  1       21 0.51381114E-01 0.21107932E+02</pdfrwt>
<totfact> 0.10800851E+08</totfact>
</mgrwt>
</event>
<event>
 4    1  0.2769537E+004  0.2108508E+02  0.7546771E-02  0.1724573E+00
         21   -1    0    0  503  502  0.00000000000E+00  0.00000000000E+00  0.52476550011E+01  0.52476550011E+01  0.00000000000E+00 0.  1.
         21   -1    0    0  501  503 -0.00000000000E+00 -0.00000000000E+00 -0.11972214695E+03  0.11972214695E+03  0.00000000000E+00 0. -1.
          2    1    1    2  501    0 -0.93444184202E+00  0.21064361286E+02 -0.91023198332E+02  0.93433415503E+02  0.00000000000E+00 0. -1.
         -2    1    1    2    0  502  0.93444184202E+00 -0.21064361286E+02 -0.23451293618E+02  0.31536386449E+02  0.00000000000E+00 0.  1.
<mgrwt>
<rscale>  2 0.21085078E+02</rscale>
<asrwt>0</asrwt>
<pdfrwt beam="1">  1       21 0.80733157E-03 0.21085078E+02</pdfrwt>
<pdfrwt beam="2">  1       21 0.18418791E-01 0.21085078E+02</pdfrwt>
<totfact> 0.95579888E+07</totfact>
</mgrwt>
</event>
<event>
 4    1  0.2769537E+004  0.2378462E+02  0.7546771E-02  0.1679099E+00
         21   -1    0    0  503  502  0.00000000000E+00  0.00000000000E+00  0.27785245384E+02  0.27785245384E+02  0.00000000000E+00 0. -1.
         21   -1    0    0  501  503 -0.00000000000E+00 -0.00000000000E+00 -0.26633082626E+02  0.26633082626E+02  0.00000000000E+00 0.  1.
          2    1    1    2  501    0 -0.16671876970E+02  0.16963387562E+02 -0.12629103372E+02  0.26929579485E+02  0.00000000000E+00 0.  1.
         -2    1    1    2    0  502  0.16671876970E+02 -0.16963387562E+02  0.13781266130E+02  0.27488748524E+02  0.00000000000E+00 0. -1.
<mgrwt>
<rscale>  2 0.23784617E+02</rscale>
<asrwt>0</asrwt>
<pdfrwt beam="1">  1       21 0.42746531E-02 0.23784617E+02</pdfrwt>
<pdfrwt beam="2">  1       21 0.40973973E-02 0.23784617E+02</pdfrwt>
<totfact> 0.91032643E+07</totfact>
</mgrwt>
</event>
<event>
 4    1  0.2769537E+004  0.2648800E+02  0.7546771E-02  0.1640505E+00
         21   -1    0    0  501  502  0.00000000000E+00  0.00000000000E+00  0.32122546250E+02  0.32122546250E+02  0.00000000000E+00 0. -1.
         21   -1    0    0  502  503 -0.00000000000E+00 -0.00000000000E+00 -0.28574716196E+02  0.28574716196E+02  0.00000000000E+00 0.  1.
          2    1    1    2  501    0 -0.23811400783E+02  0.11603084064E+02  0.16505504679E+02  0.31209710857E+02  0.00000000000E+00 0. -1.
         -2    1    1    2    0  503  0.23811400783E+02 -0.11603084064E+02 -0.12957674624E+02  0.29487551589E+02  0.00000000000E+00 0.  1.
<mgrwt>
<rscale>  2 0.26488004E+02</rscale>
<asrwt>0</asrwt>
<pdfrwt beam="1">  1       21 0.49419302E-02 0.26488004E+02</pdfrwt>
<pdfrwt beam="2">  1       21 0.43961102E-02 0.26488004E+02</pdfrwt>
<totfact> 0.66482926E+07</totfact>
</mgrwt>
</event>
<event>
 4    1  0.2769537E+004  0.2223119E+02  0.7546771E-02  0.1704284E+00
         21   -1    0    0  503  502  0.00000000000E+00  0.00000000000E+00  0.16389577538E+02  0.16389577538E+02  0.00000000000E+00 0.  1.
         21   -1    0    0  501  503 -0.00000000000E+00 -0.00000000000E+00 -0.51284199950E+02  0.51284199950E+02  0.00000000000E+00 0. -1.
          2    1    1    2  501    0  0.26392219599E+01 -0.22073974797E+02 -0.39166385982E+02  0.45035892872E+02  0.00000000000E+00 0. -1.
         -2    1    1    2    0  502 -0.26392219599E+01  0.22073974797E+02  0.42717635701E+01  0.22637884616E+02  0.00000000000E+00 0.  1.
<mgrwt>
<rscale>  2 0.22231191E+02</rscale>
<asrwt>0</asrwt>
<pdfrwt beam="1">  1       21 0.25214735E-02 0.22231191E+02</pdfrwt>
<pdfrwt beam="2">  1       21 0.78898769E-02 0.22231191E+02</pdfrwt>
<totfact> 0.71332021E+07</totfact>
</mgrwt>
</event>
<event>
 4    1  0.2769537E+004  0.2095304E+02  0.7546771E-02  0.1727014E+00
         21   -1    0    0  501  502  0.00000000000E+00  0.00000000000E+00  0.84901209756E+03  0.84901209756E+03  0.00000000000E+00 0.  1.
         21   -1    0    0  502  503 -0.00000000000E+00 -0.00000000000E+00 -0.87453178438E+00  0.87453178438E+00  0.00000000000E+00 0. -1.
          2    1    1    2  501    0 -0.56535011106E+01 -0.20175925825E+02  0.69573495495E+03  0.69605039874E+03  0.00000000000E+00 0.  1.
         -2    1    1    2    0  503  0.56535011106E+01  0.20175925825E+02  0.15240261083E+03  0.15383623060E+03  0.00000000000E+00 0. -1.
<mgrwt>
<rscale>  2 0.20953044E+02</rscale>
<asrwt>0</asrwt>
<pdfrwt beam="1">  1       21 0.13061659E+00 0.20953044E+02</pdfrwt>
<pdfrwt beam="2">  1       21 0.13454403E-03 0.20953044E+02</pdfrwt>
<totfact> 0.28058573E+07</totfact>
</mgrwt>
</event>
<event>
 4    1  0.2769537E+004  0.2848824E+02  0.7546771E-02  0.1615427E+00
         21   -1    0    0  503  502  0.00000000000E+00  0.00000000000E+00  0.15773289165E+02  0.15773289165E+02  0.00000000000E+00 0. -1.
         21   -1    0    0  501  503 -0.00000000000E+00 -0.00000000000E+00 -0.53938222238E+02  0.53938222238E+02  0.00000000000E+00 0.  1.
          2    1    1    2  501    0  0.81571634545E+01  0.27295425915E+02 -0.11600290057E+02  0.30759491558E+02  0.00000000000E+00 0.  1.
         -2    1    1    2    0  502 -0.81571634545E+01 -0.27295425915E+02 -0.26564643016E+02  0.38952019845E+02  0.00000000000E+00 0. -1.
<mgrwt>
<rscale>  2 0.28488236E+02</rscale>
<asrwt>0</asrwt>
<pdfrwt beam="1">  1       21 0.24266599E-02 0.28488236E+02</pdfrwt>
<pdfrwt beam="2">  1       21 0.82981881E-02 0.28488236E+02</pdfrwt>
<totfact> 0.74324664E+07</totfact>
</mgrwt>
</event>
<event>
 4    1  0.2769537E+004  0.2249703E+02  0.7546771E-02  0.1699795E+00
         21   -1    0    0  503  502  0.00000000000E+00  0.00000000000E+00  0.71312145241E+00  0.71312145241E+00  0.00000000000E+00 0. -1.
         21   -1    0    0  501  503 -0.00000000000E+00 -0.00000000000E+00 -0.12608914159E+04  0.12608914159E+04  0.00000000000E+00 0.  1.
          2    1    1    2  501    0  0.18703921270E+02  0.12501179033E+02 -0.10471486027E+04  0.10473902388E+04  0.00000000000E+00 0.  1.
         -2    1    1    2    0  502 -0.18703921270E+02 -0.12501179033E+02 -0.21302969169E+03  0.21421429852E+03  0.00000000000E+00 0. -1.
<mgrwt>
<rscale>  2 0.22497025E+02</rscale>
<asrwt>0</asrwt>
<pdfrwt beam="1">  1       21 0.10971024E-03 0.22497025E+02</pdfrwt>
<pdfrwt beam="2">  1       21 0.19398462E+00 0.22497025E+02</pdfrwt>
<totfact> 0.14687430E+07</totfact>
</mgrwt>
</event>
<event>
 4    1  0.2769537E+004  0.4021927E+02  0.7546771E-02  0.1506604E+00
         21   -1    0    0  503  502  0.00000000000E+00  0.00000000000E+00  0.26593624839E+02  0.26593624839E+02  0.00000000000E+00 0.  1.
         21   -1    0    0  501  503 -0.00000000000E+00 -0.00000000000E+00 -0.83083447244E+02  0.83083447244E+02  0.00000000000E+00 0. -1.
          2    1    1    2  501    0 -0.29076717882E+02  0.27787308655E+02 -0.56628283436E+02  0.69457559200E+02  0.00000000000E+00 0. -1.
         -2    1    1    2    0  502  0.29076717882E+02 -0.27787308655E+02  0.13846103048E+00  0.40219512883E+02  0.00000000000E+00 0.  1.
<mgrwt>
<rscale>  2 0.40219275E+02</rscale>
<asrwt>0</asrwt>
<pdfrwt beam="1">  1       21 0.40913269E-02 0.40219275E+02</pdfrwt>
<pdfrwt beam="2">  1       21 0.12782069E-01 0.40219275E+02</pdfrwt>
<totfact> 0.16817710E+07</totfact>
</mgrwt>
</event>
<event>
 4    1  0.2769537E+004  0.2762313E+02  0.7546771E-02  0.1625953E+00
         21   -1    0    0  503  502  0.00000000000E+00  0.00000000000E+00  0.49951564587E+03  0.49951564587E+03  0.00000000000E+00 0.  1.
         21   -1    0    0  501  503 -0.00000000000E+00 -0.00000000000E+00 -0.21374147814E+01  0.21374147814E+01  0.00000000000E+00 0. -1.
          2    1    1    2  501    0  0.28884621404E+01  0.27471694834E+02  0.11470776766E+03  0.11798690263E+03  0.00000000000E+00 0. -1.
         -2    1    1    2    0  502 -0.28884621404E+01 -0.27471694834E+02  0.38267046343E+03  0.38366615802E+03  0.00000000000E+00 0.  1.
<mgrwt>
<rscale>  2 0.27623129E+02</rscale>
<asrwt>0</asrwt>
<pdfrwt beam="1">  1       21 0.76848468E-01 0.27623129E+02</pdfrwt>
<pdfrwt beam="2">  1       21 0.32883344E-03 0.27623129E+02</pdfrwt>
<totfact> 0.25965333E+07</totfact>
</mgrwt>
</event>
<event>
 4    1  0.2769537E+004  0.3094972E+02  0.7546771E-02  0.1587822E+00
         21   -1    0    0  501  502  0.00000000000E+00  0.00000000000E+00  0.10445853818E+01  0.10445853818E+01  0.00000000000E+00 0. -1.
         21   -1    0    0  502  503 -0.00000000000E+00 -0.00000000000E+00 -0.91846214247E+03  0.91846214247E+03  0.00000000000E+00 0.  1.
          2    1    1    2  501    0  0.30166953901E+02  0.69166569448E+01 -0.47704983370E+03  0.47805274717E+03  0.00000000000E+00 0. -1.
         -2    1    1    2    0  503 -0.30166953901E+02 -0.69166569448E+01 -0.44036772340E+03  0.44145398068E+03  0.00000000000E+00 0.  1.
<mgrwt>
<rscale>  2 0.30949721E+02</rscale>
<asrwt>0</asrwt>
<pdfrwt beam="1">  1       21 0.16070473E-03 0.30949721E+02</pdfrwt>
<pdfrwt beam="2">  1       21 0.14130250E+00 0.30949721E+02</pdfrwt>
<totfact> 0.19314882E+07</totfact>
</mgrwt>
</event>
<event>
 4    1  0.2769537E+004  0.2940572E+02  0.7546771E-02  0.1604752E+00
         21   -1    0    0  503  502  0.00000000000E+00  0.00000000000E+00  0.14721869443E+02  0.14721869443E+02  0.00000000000E+00 0.  1.
         21   -1    0    0  501  503 -0.00000000000E+00 -0.00000000000E+00 -0.92645389362E+02  0.92645389362E+02  0.00000000000E+00 0. -1.
          2    1    1    2  501    0  0.15794591784E+02  0.24803778230E+02 -0.71440043704E+02  0.77255267707E+02  0.00000000000E+00 0. -1.
         -2    1    1    2    0  502 -0.15794591784E+02 -0.24803778230E+02 -0.64834762149E+01  0.30111991098E+02  0.00000000000E+00 0.  1.
<mgrwt>
<rscale>  2 0.29405723E+02</rscale>
<asrwt>0</asrwt>
<pdfrwt beam="1">  1       21 0.22649031E-02 0.29405723E+02</pdfrwt>
<pdfrwt beam="2">  1       21 0.14253136E-01 0.29405723E+02</pdfrwt>
<totfact> 0.33602259E+07</totfact>
</mgrwt>
</event>
<event>
 4    1  0.2769537E+004  0.2030495E+02  0.7546771E-02  0.1739331E+00
         21   -1    0    0  501  502  0.00000000000E+00  0.00000000000E+00  0.27453219584E+02  0.27453219584E+02  0.00000000000E+00 0. -1.
         21   -1    0    0  502  503 -0.00000000000E+00 -0.00000000000E+00 -0.32170037950E+03  0.32170037950E+03  0.00000000000E+00 0.  1.
          2    1    1    2  501    0  0.10596202195E+02  0.17320835852E+02  0.23329633880E+02  0.30928347394E+02  0.00000000000E+00 0. -1.
         -2    1    1    2    0  503 -0.10596202195E+02 -0.17320835852E+02 -0.31757679380E+03  0.31822525169E+03  0.00000000000E+00 0.  1.
<mgrwt>
<rscale>  2 0.20304947E+02</rscale>
<asrwt>0</asrwt>
<pdfrwt beam="1">  1       21 0.42235723E-02 0.20304947E+02</pdfrwt>
<pdfrwt beam="2">  1       21 0.49492365E-01 0.20304947E+02</pdfrwt>
<totfact> 0.12601643E+06</totfact>
</mgrwt>
</event>
<event>
 4    1  0.2769537E+004  0.2375479E+02  0.7546771E-02  0.1679560E+00
         21   -1    0    0  503  502  0.00000000000E+00  0.00000000000E+00  0.92501911545E+01  0.92501911545E+01  0.00000000000E+00 0. -1.
         21   -1    0    0  501  503 -0.00000000000E+00 -0.00000000000E+00 -0.92457135302E+02  0.92457135302E+02  0.00000000000E+00 0.  1.
          2    1    1    2  501    0 -0.54026123926E+01 -0.23132264540E+02 -0.71264797167E+02  0.75119645890E+02  0.00000000000E+00 0.  1.
         -2    1    1    2    0  502  0.54026123926E+01  0.23132264540E+02 -0.11942146981E+02  0.26587680567E+02  0.00000000000E+00 0. -1.
<mgrwt>
<rscale>  2 0.23754787E+02</rscale>
<asrwt>0</asrwt>
<pdfrwt beam="1">  1       21 0.14231063E-02 0.23754787E+02</pdfrwt>
<pdfrwt beam="2">  1       21 0.14224175E-01 0.23754787E+02</pdfrwt>
<totfact> 0.65522754E+07</totfact>
</mgrwt>
</event>
<event>
 4    1  0.2769537E+004  0.2568692E+02  0.7546771E-02  0.1651327E+00
         21   -1    0    0  501  502  0.00000000000E+00  0.00000000000E+00  0.87383678233E+02  0.87383678233E+02  0.00000000000E+00 0. -1.
         21   -1    0    0  502  503 -0.00000000000E+00 -0.00000000000E+00 -0.15773063013E+02  0.15773063013E+02  0.00000000000E+00 0.  1.
          2    1    1    2  501    0  0.17140946911E+02  0.19131271598E+02  0.73044906865E+02  0.77429813592E+02  0.00000000000E+00 0. -1.
         -2    1    1    2    0  503 -0.17140946911E+02 -0.19131271598E+02 -0.14342916447E+01  0.25726927654E+02  0.00000000000E+00 0.  1.
<mgrwt>
<rscale>  2 0.25686915E+02</rscale>
<asrwt>0</asrwt>
<pdfrwt beam="1">  1       21 0.13443642E-01 0.25686915E+02</pdfrwt>
<pdfrwt beam="2">  1       21 0.24266251E-02 0.25686915E+02</pdfrwt>
<totfact> 0.32389056E+07</totfact>
</mgrwt>
</event>
<event>
 4    1  0.2769537E+004  0.2280328E+02  0.7546771E-02  0.1694719E+00
         21   -1    0    0  503  502  0.00000000000E+00  0.00000000000E+00  0.24386562117E+02  0.24386562117E+02  0.00000000000E+00 0. -1.
         21   -1    0    0  501  503 -0.00000000000E+00 -0.00000000000E+00 -0.12434101413E+03  0.12434101413E+03  0.00000000000E+00 0.  1.
          2    1    1    2  501    0 -0.22714719790E+02 -0.20078039379E+01 -0.11766516833E+03  0.11985441840E+03  0.00000000000E+00 0.  1.
         -2    1    1    2    0  502  0.22714719790E+02  0.20078039379E+01  0.17710716316E+02  0.28873157850E+02  0.00000000000E+00 0. -1.
<mgrwt>
<rscale>  2 0.22803284E+02</rscale>
<asrwt>0</asrwt>
<pdfrwt beam="1">  1       21 0.37517788E-02 0.22803284E+02</pdfrwt>
<pdfrwt beam="2">  1       21 0.19129387E-01 0.22803284E+02</pdfrwt>
<totfact> 0.87419855E+06</totfact>
</mgrwt>
</event>
<event>
 4    1  0.2769537E+004  0.2672157E+02  0.7546771E-02  0.1637438E+00
         21   -1    0    0  501  502  0.00000000000E+00  0.00000000000E+00  0.17183134042E+02  0.17183134042E+02  0.00000000000E+00 0. -1.
         21   -1    0    0  502  503 -0.00000000000E+00 -0.00000000000E+00 -0.43210141236E+02  0.43210141236E+02  0.00000000000E+00 0.  1.
          2    1    1    2  501    0 -0.26513895090E+02  0.33250179627E+01 -0.18923732877E+02  0.32743702346E+02  0.00000000000E+00 0.  1.
         -2    1    1    2    0  503  0.26513895090E+02 -0.33250179627E+01 -0.71032743168E+01  0.27649572932E+02  0.00000000000E+00 0. -1.
<mgrwt>
<rscale>  2 0.26721571E+02</rscale>
<asrwt>0</asrwt>
<pdfrwt beam="1">  1       21 0.26435591E-02 0.26721571E+02</pdfrwt>
<pdfrwt beam="2">  1       21 0.66477139E-02 0.26721571E+02</pdfrwt>
<totfact> 0.92003202E+07</totfact>
</mgrwt>
</event>
<event>
 4    1  0.2769537E+004  0.2047523E+02  0.7546771E-02  0.1736039E+00
         21   -1    0    0  503  502  0.00000000000E+00  0.00000000000E+00  0.32635149919E+03  0.32635149919E+03  0.00000000000E+00 0.  1.
         21   -1    0    0  501  503 -0.00000000000E+00 -0.00000000000E+00 -0.12898397690E+01  0.12898397690E+01  0.00000000000E+00 0. -1.
          2    1    1    2  501    0 -0.30005793059E+01  0.20254177220E+02  0.15210180084E+03  0.15347375343E+03  0.00000000000E+00 0. -1.
         -2    1    1    2    0  502  0.30005793059E+01 -0.20254177220E+02  0.17295985858E+03  0.17416758553E+03  0.00000000000E+00 0.  1.
<mgrwt>
<rscale>  2 0.20475233E+02</rscale>
<asrwt>0</asrwt>
<pdfrwt beam="1">  1       21 0.50207857E-01 0.20475233E+02</pdfrwt>
<pdfrwt beam="2">  1       21 0.19843715E-03 0.20475233E+02</pdfrwt>
<totfact> 0.11905222E+08</totfact>
</mgrwt>
</event>
<event>
 4    1  0.2769537E+004  0.2374472E+02  0.7546771E-02  0.1679715E+00
         21   -1    0    0  503  502  0.00000000000E+00  0.00000000000E+00  0.13026243411E+02  0.13026243411E+02  0.00000000000E+00 0. -1.
         21   -1    0    0  501  503 -0.00000000000E+00 -0.00000000000E+00 -0.48146824793E+02  0.48146824793E+02  0.00000000000E+00 0.  1.
          2    1    1    2  501    0 -0.23741275466E+02 -0.40419304803E+00 -0.27282096046E+02  0.36168001015E+02  0.00000000000E+00 0.  1.
         -2    1    1    2    0  502  0.23741275466E+02  0.40419304803E+00 -0.78384853369E+01  0.25005067189E+02  0.00000000000E+00 0. -1.
<mgrwt>
<rscale>  2 0.23744716E+02</rscale>
<asrwt>0</asrwt>
<pdfrwt beam="1">  1       21 0.20040374E-02 0.23744716E+02</pdfrwt>
<pdfrwt beam="2">  1       21 0.74072038E-02 0.23744716E+02</pdfrwt>
<totfact> 0.11472990E+08</totfact>
</mgrwt>
</event>
<event>
 4    1  0.2769537E+004  0.2082105E+02  0.7546771E-02  0.1729477E+00
         21   -1    0    0  503  502  0.00000000000E+00  0.00000000000E+00  0.11712830245E+02  0.11712830245E+02  0.00000000000E+00 0.  1.
         21   -1    0    0  501  503 -0.00000000000E+00 -0.00000000000E+00 -0.38139435970E+02  0.38139435970E+02  0.00000000000E+00 0. -1.
          2    1    1    2  501    0  0.56780437888E+01  0.20031871984E+02 -0.17498793084E+02  0.27197864546E+02  0.00000000000E+00 0. -1.
         -2    1    1    2    0  502 -0.56780437888E+01 -0.20031871984E+02 -0.89278126404E+01  0.22654401669E+02  0.00000000000E+00 0.  1.
<mgrwt>
<rscale>  2 0.20821049E+02</rscale>
<asrwt>0</asrwt>
<pdfrwt beam="1">  1       21 0.18019739E-02 0.20821049E+02</pdfrwt>
<pdfrwt beam="2">  1       21 0.58676054E-02 0.20821049E+02</pdfrwt>
<totfact> 0.18882159E+08</totfact>
</mgrwt>
</event>
<event>
 4    1  0.2769537E+004  0.5949674E+02  0.7546771E-02  0.1399956E+00
         21   -1    0    0  503  502  0.00000000000E+00  0.00000000000E+00  0.10372230180E+03  0.10372230180E+03  0.00000000000E+00 0.  1.
         21   -1    0    0  501  503 -0.00000000000E+00 -0.00000000000E+00 -0.37285362937E+02  0.37285362937E+02  0.00000000000E+00 0. -1.
          2    1    1    2  501    0 -0.50950580522E+02  0.30722957323E+02  0.12702697798E+02  0.60837655227E+02  0.00000000000E+00 0. -1.
         -2    1    1    2    0  502  0.50950580522E+02 -0.30722957323E+02  0.53734241066E+02  0.80170009511E+02  0.00000000000E+00 0.  1.
<mgrwt>
<rscale>  2 0.59496737E+02</rscale>
<asrwt>0</asrwt>
<pdfrwt beam="1">  1       21 0.15957277E-01 0.59496737E+02</pdfrwt>
<pdfrwt beam="2">  1       21 0.57362097E-02 0.59496737E+02</pdfrwt>
<totfact> 0.69026400E+06</totfact>
</mgrwt>
</event>
<event>
 4    1  0.2769537E+004  0.2736826E+02  0.7546771E-02  0.1629145E+00
         21   -1    0    0  503  502  0.00000000000E+00  0.00000000000E+00  0.40678658807E+01  0.40678658807E+01  0.00000000000E+00 0. -1.
         21   -1    0    0  501  503 -0.00000000000E+00 -0.00000000000E+00 -0.24056145178E+03  0.24056145178E+03  0.00000000000E+00 0.  1.
          2    1    1    2  501    0 -0.26100082130E+02 -0.82345179073E+01 -0.17748760015E+03  0.17958527161E+03  0.00000000000E+00 0.  1.
         -2    1    1    2    0  502  0.26100082130E+02  0.82345179073E+01 -0.59005985750E+02  0.65044046051E+02  0.00000000000E+00 0. -1.
<mgrwt>
<rscale>  2 0.27368258E+02</rscale>
<asrwt>0</asrwt>
<pdfrwt beam="1">  1       21 0.62582529E-03 0.27368258E+02</pdfrwt>
<pdfrwt beam="2">  1       21 0.37009468E-01 0.27368258E+02</pdfrwt>
<totfact> 0.42532178E+07</totfact>
</mgrwt>
</event>
<event>
 4    1  0.2769537E+004  0.2076494E+02  0.7546771E-02  0.1730531E+00
         21   -1    0    0  501  502  0.00000000000E+00  0.00000000000E+00  0.65323909786E+02  0.65323909786E+02  0.00000000000E+00 0. -1.
         21   -1    0    0  502  503 -0.00000000000E+00 -0.00000000000E+00 -0.18240246997E+02  0.18240246997E+02  0.00000000000E+00 0.  1.
          2    1    1    2  501    0 -0.15965924250E+02 -0.13276750676E+02  0.56918494646E+02  0.60587935090E+02  0.00000000000E+00 0. -1.
         -2    1    1    2    0  503  0.15965924250E+02  0.13276750676E+02 -0.98348318563E+01  0.22976221693E+02  0.00000000000E+00 0.  1.
<mgrwt>
<rscale>  2 0.20764943E+02</rscale>
<asrwt>0</asrwt>
<pdfrwt beam="1">  1       21 0.10049832E-01 0.20764943E+02</pdfrwt>
<pdfrwt beam="2">  1       21 0.28061919E-02 0.20764943E+02</pdfrwt>
<totfact> 0.39948021E+07</totfact>
</mgrwt>
</event>
<event>
 4    1  0.2769537E+004  0.2635179E+02  0.7546771E-02  0.1642312E+00
         21   -1    0    0  503  502  0.00000000000E+00  0.00000000000E+00  0.86245628246E+02  0.86245628246E+02  0.00000000000E+00 0.  1.
         21   -1    0    0  501  503 -0.00000000000E+00 -0.00000000000E+00 -0.80518320549E+01  0.80518320549E+01  0.00000000000E+00 0. -1.
          2    1    1    2  501    0 -0.70026439605E+01 -0.25404324348E+02  0.38852912024E+02  0.46946410840E+02  0.00000000000E+00 0. -1.
         -2    1    1    2    0  502  0.70026439605E+01  0.25404324348E+02  0.39340884168E+02  0.47351049462E+02  0.00000000000E+00 0.  1.
<mgrwt>
<rscale>  2 0.26351788E+02</rscale>
<asrwt>0</asrwt>
<pdfrwt beam="1">  1       21 0.13268558E-01 0.26351788E+02</pdfrwt>
<pdfrwt beam="2">  1       21 0.12387435E-02 0.26351788E+02</pdfrwt>
<totfact> 0.93479440E+07</totfact>
</mgrwt>
</event>
<event>
 4    1  0.2769537E+004  0.7010215E+02  0.7546771E-02  0.1359746E+00
         21   -1    0    0  503  502  0.00000000000E+00  0.00000000000E+00  0.82042176902E+01  0.82042176902E+01  0.00000000000E+00 0. -1.
         21   -1    0    0  501  503 -0.00000000000E+00 -0.00000000000E+00 -0.90170409943E+03  0.90170409943E+03  0.00000000000E+00 0.  1.
          2    1    1    2  501    0  0.14818401658E+01  0.70086483226E+02 -0.71035037196E+03  0.71380106608E+03  0.00000000000E+00 0. -1.
         -2    1    1    2    0  502 -0.14818401658E+01 -0.70086483226E+02 -0.18314950978E+03  0.19610725105E+03  0.00000000000E+00 0.  1.
<mgrwt>
<rscale>  2 0.70102147E+02</rscale>
<asrwt>0</asrwt>
<pdfrwt beam="1">  1       21 0.12621871E-02 0.70102147E+02</pdfrwt>
<pdfrwt beam="2">  1       21 0.13872373E+00 0.70102147E+02</pdfrwt>
<totfact> 0.96100473E+05</totfact>
</mgrwt>
</event>
<event>
 4    1  0.2769537E+004  0.2385210E+02  0.7546771E-02  0.1678059E+00
         21   -1    0    0  501  502  0.00000000000E+00  0.00000000000E+00  0.10023635898E+03  0.10023635898E+03  0.00000000000E+00 0.  1.
         21   -1    0    0  502  503 -0.00000000000E+00 -0.00000000000E+00 -0.90191948436E+01  0.90191948436E+01  0.00000000000E+00 0. -1.
          2    1    1    2  501    0 -0.23762411967E+02 -0.20664922104E+01  0.78868622506E+02  0.82396494030E+02  0.00000000000E+00 0.  1.
         -2    1    1    2    0  503  0.23762411967E+02  0.20664922104E+01  0.12348541630E+02  0.26859059792E+02  0.00000000000E+00 0. -1.
<mgrwt>
<rscale>  2 0.23852099E+02</rscale>
<asrwt>0</asrwt>
<pdfrwt beam="1">  1       21 0.15420978E-01 0.23852099E+02</pdfrwt>
<pdfrwt beam="2">  1       21 0.13875685E-02 0.23852099E+02</pdfrwt>
<totfact> 0.59398294E+07</totfact>
</mgrwt>
</event>
<event>
 4    1  0.2769537E+004  0.2698846E+02  0.7546771E-02  0.1633981E+00
         21   -1    0    0  501  502  0.00000000000E+00  0.00000000000E+00  0.79815121402E+01  0.79815121402E+01  0.00000000000E+00 0. -1.
         21   -1    0    0  502  503 -0.00000000000E+00 -0.00000000000E+00 -0.11258697110E+03  0.11258697110E+03  0.00000000000E+00 0.  1.
          2    1    1    2  501    0  0.35527065291E+01  0.26753600267E+02 -0.26063887355E+02  0.37519369331E+02  0.00000000000E+00 0. -1.
         -2    1    1    2    0  503 -0.35527065291E+01 -0.26753600267E+02 -0.78541571605E+02  0.83049113909E+02  0.00000000000E+00 0.  1.
<mgrwt>
<rscale>  2 0.26988458E+02</rscale>
<asrwt>0</asrwt>
<pdfrwt beam="1">  1       21 0.12279249E-02 0.26988458E+02</pdfrwt>
<pdfrwt beam="2">  1       21 0.17321073E-01 0.26988458E+02</pdfrwt>
<totfact> 0.60334921E+07</totfact>
</mgrwt>
</event>
<event>
 4    1  0.2769537E+004  0.2613847E+02  0.7546771E-02  0.1645168E+00
         21   -1    0    0  501  502  0.00000000000E+00  0.00000000000E+00  0.79469819398E+01  0.79469819398E+01  0.00000000000E+00 0.  1.
         21   -1    0    0  502  503 -0.00000000000E+00 -0.00000000000E+00 -0.56876775943E+03  0.56876775943E+03  0.00000000000E+00 0. -1.
          2    1    1    2  501    0 -0.95009329106E+01  0.24350604599E+02 -0.14738748770E+02  0.30007505491E+02  0.00000000000E+00 0.  1.
         -2    1    1    2    0  503  0.95009329106E+01 -0.24350604599E+02 -0.54608202872E+03  0.54670723588E+03  0.00000000000E+00 0. -1.
<mgrwt>
<rscale>  2 0.26138471E+02</rscale>
<asrwt>0</asrwt>
<pdfrwt beam="1">  1       21 0.12226122E-02 0.26138471E+02</pdfrwt>
<pdfrwt beam="2">  1       21 0.87502760E-01 0.26138471E+02</pdfrwt>
<totfact> 0.27563164E+06</totfact>
</mgrwt>
</event>
<event>
 4    1  0.2769537E+004  0.3527621E+02  0.7546771E-02  0.1546161E+00
         21   -1    0    0  503  502  0.00000000000E+00  0.00000000000E+00  0.30868373330E+02  0.30868373330E+02  0.00000000000E+00 0. -1.
         21   -1    0    0  501  503 -0.00000000000E+00 -0.00000000000E+00 -0.40517902426E+02  0.40517902426E+02  0.00000000000E+00 0.  1.
          2    1    1    2  501    0 -0.32652509094E+02  0.13350067659E+02 -0.73602217958E+01  0.36035864378E+02  0.00000000000E+00 0. -1.
         -2    1    1    2    0  502  0.32652509094E+02 -0.13350067659E+02 -0.22893073003E+01  0.35350411377E+02  0.00000000000E+00 0.  1.
<mgrwt>
<rscale>  2 0.35276205E+02</rscale>
<asrwt>0</asrwt>
<pdfrwt beam="1">  1       21 0.47489805E-02 0.35276205E+02</pdfrwt>
<pdfrwt beam="2">  1       21 0.62335235E-02 0.35276205E+02</pdfrwt>
<totfact> 0.43035624E+07</totfact>
</mgrwt>
</event>
<event>
 4    1  0.2769537E+004  0.3112966E+02  0.7546771E-02  0.1585927E+00
         21   -1    0    0  501  502  0.00000000000E+00  0.00000000000E+00  0.45630965682E+02  0.45630965682E+02  0.00000000000E+00 0.  1.
         21   -1    0    0  502  503 -0.00000000000E+00 -0.00000000000E+00 -0.30414429172E+03  0.30414429172E+03  0.00000000000E+00 0. -1.
          2    1    1    2  501    0 -0.30066602183E+02 -0.80656957439E+01  0.39414746023E+02  0.50225274701E+02  0.00000000000E+00 0.  1.
         -2    1    1    2    0  503  0.30066602183E+02  0.80656957439E+01 -0.29792807207E+03  0.29954998271E+03  0.00000000000E+00 0. -1.
<mgrwt>
<rscale>  2 0.31129665E+02</rscale>
<asrwt>0</asrwt>
<pdfrwt beam="1">  1       21 0.70201489E-02 0.31129665E+02</pdfrwt>
<pdfrwt beam="2">  1       21 0.46791427E-01 0.31129665E+02</pdfrwt>
<totfact> 0.64368697E+05</totfact>
</mgrwt>
</event>
<event>
 4    1  0.2769537E+004  0.2269207E+02  0.7546771E-02  0.1696551E+00
         21   -1    0    0  501  502  0.00000000000E+00  0.00000000000E+00  0.69331575848E+02  0.69331575848E+02  0.00000000000E+00 0. -1.
         21   -1    0    0  502  503 -0.00000000000E+00 -0.00000000000E+00 -0.74597305841E+01  0.74597305841E+01  0.00000000000E+00 0.  1.
          2    1    1    2  501    0 -0.22581541069E+02 -0.22369666631E+01  0.33476752716E+02  0.40442836069E+02  0.00000000000E+00 0.  1.
         -2    1    1    2    0  503  0.22581541069E+02  0.22369666631E+01  0.28395092547E+02  0.36348470362E+02  0.00000000000E+00 0. -1.
<mgrwt>
<rscale>  2 0.22692069E+02</rscale>
<asrwt>0</asrwt>
<pdfrwt beam="1">  1       21 0.10666396E-01 0.22692069E+02</pdfrwt>
<pdfrwt beam="2">  1       21 0.11476509E-02 0.22692069E+02</pdfrwt>
<totfact> 0.14520949E+08</totfact>
</mgrwt>
</event>
<event>
 4    1  0.2769537E+004  0.2189860E+02  0.7546771E-02  0.1710011E+00
         21   -1    0    0  503  502  0.00000000000E+00  0.00000000000E+00  0.70877095477E+01  0.70877095477E+01  0.00000000000E+00 0. -1.
         21   -1    0    0  501  503 -0.00000000000E+00 -0.00000000000E+00 -0.37864679425E+03  0.37864679425E+03  0.00000000000E+00 0.  1.
          2    1    1    2  501    0  0.16911669513E+02  0.13912020156E+02 -0.36056804886E+03  0.36123242757E+03  0.00000000000E+00 0.  1.
         -2    1    1    2    0  502 -0.16911669513E+02 -0.13912020156E+02 -0.10991035843E+02  0.24502076227E+02  0.00000000000E+00 0. -1.
<mgrwt>
<rscale>  2 0.21898604E+02</rscale>
<asrwt>0</asrwt>
<pdfrwt beam="1">  1       21 0.10904166E-02 0.21898604E+02</pdfrwt>
<pdfrwt beam="2">  1       21 0.58253366E-01 0.21898604E+02</pdfrwt>
<totfact> 0.73939418E+06</totfact>
</mgrwt>
</event>
<event>
 4    1  0.2769537E+004  0.2318019E+02  0.7546771E-02  0.1688606E+00
         21   -1    0    0  501  502  0.00000000000E+00  0.00000000000E+00  0.18277050131E+03  0.18277050131E+03  0.00000000000E+00 0. -1.
         21   -1    0    0  502  503 -0.00000000000E+00 -0.00000000000E+00 -0.11381406752E+02  0.11381406752E+02  0.00000000000E+00 0.  1.
          2    1    1    2  501    0 -0.14769667029E+02 -0.17865555579E+02  0.16929805617E+03  0.17087759643E+03  0.00000000000E+00 0. -1.
         -2    1    1    2    0  503  0.14769667029E+02  0.17865555579E+02  0.20910383909E+01  0.23274311629E+02  0.00000000000E+00 0.  1.
<mgrwt>
<rscale>  2 0.23180189E+02</rscale>
<asrwt>0</asrwt>
<pdfrwt beam="1">  1       21 0.28118537E-01 0.23180189E+02</pdfrwt>
<pdfrwt beam="2">  1       21 0.17509858E-02 0.23180189E+02</pdfrwt>
<totfact> 0.14431740E+07</totfact>
</mgrwt>
</event>
<event>
 4    1  0.2769537E+004  0.2758799E+02  0.7546771E-02  0.1626390E+00
         21   -1    0    0  501  502  0.00000000000E+00  0.00000000000E+00  0.15628525085E+02  0.15628525085E+02  0.00000000000E+00 0. -1.
         21   -1    0    0  502  503 -0.00000000000E+00 -0.00000000000E+00 -0.59468771699E+02  0.59468771699E+02  0.00000000000E+00 0.  1.
          2    1    1    2  501    0  0.20111080717E+02  0.18884960845E+02 -0.59411743884E+01  0.28220468934E+02  0.00000000000E+00 0.  1.
         -2    1    1    2    0  503 -0.20111080717E+02 -0.18884960845E+02 -0.37899072225E+02  0.46876827850E+02  0.00000000000E+00 0. -1.
<mgrwt>
<rscale>  2 0.27587992E+02</rscale>
<asrwt>0</asrwt>
<pdfrwt beam="1">  1       21 0.24043885E-02 0.27587992E+02</pdfrwt>
<pdfrwt beam="2">  1       21 0.91490417E-02 0.27587992E+02</pdfrwt>
<totfact> 0.63660331E+07</totfact>
</mgrwt>
</event>
<event>
 4    1  0.2769537E+004  0.3909761E+02  0.7546771E-02  0.1514959E+00
         21   -1    0    0  501  502  0.00000000000E+00  0.00000000000E+00  0.65396353547E+02  0.65396353547E+02  0.00000000000E+00 0.  1.
         21   -1    0    0  502  503 -0.00000000000E+00 -0.00000000000E+00 -0.26116685606E+02  0.26116685606E+02  0.00000000000E+00 0. -1.
          2    1    1    2  501    0  0.34426662602E+02 -0.18531810039E+02  0.34465799372E+02  0.52120191937E+02  0.00000000000E+00 0.  1.
         -2    1    1    2    0  503 -0.34426662602E+02  0.18531810039E+02  0.48138685688E+01  0.39392847216E+02  0.00000000000E+00 0. -1.
<mgrwt>
<rscale>  2 0.39097610E+02</rscale>
<asrwt>0</asrwt>
<pdfrwt beam="1">  1       21 0.10060977E-01 0.39097610E+02</pdfrwt>
<pdfrwt beam="2">  1       21 0.40179517E-02 0.39097610E+02</pdfrwt>
<totfact> 0.25910446E+07</totfact>
</mgrwt>
</event>
<event>
 4    1  0.2769537E+004  0.2121133E+02  0.7546771E-02  0.1722260E+00
         21   -1    0    0  503  502  0.00000000000E+00  0.00000000000E+00  0.27025772129E+02  0.27025772129E+02  0.00000000000E+00 0. -1.
         21   -1    0    0  501  503 -0.00000000000E+00 -0.00000000000E+00 -0.24725889362E+02  0.24725889362E+02  0.00000000000E+00 0.  1.
          2    1    1    2  501    0  0.19838777073E+02  0.75062198018E+01 -0.13640185826E+02  0.25218546366E+02  0.00000000000E+00 0.  1.
         -2    1    1    2    0  502 -0.19838777073E+02 -0.75062198018E+01  0.15940068593E+02  0.26533115124E+02  0.00000000000E+00 0. -1.
<mgrwt>
<rscale>  2 0.21211327E+02</rscale>
<asrwt>0</asrwt>
<pdfrwt beam="1">  1       21 0.41578111E-02 0.21211327E+02</pdfrwt>
<pdfrwt beam="2">  1       21 0.38039830E-02 0.21211327E+02</pdfrwt>
<totfact> 0.10341625E+08</totfact>
</mgrwt>
</event>
<event>
 4    1  0.2769537E+004  0.2289347E+02  0.7546771E-02  0.1693243E+00
         21   -1    0    0  501  502  0.00000000000E+00  0.00000000000E+00  0.36146780617E+00  0.36146780617E+00  0.00000000000E+00 0.  1.
         21   -1    0    0  502  503 -0.00000000000E+00 -0.00000000000E+00 -0.18960776960E+04  0.18960776960E+04  0.00000000000E+00 0. -1.
          2    1    1    2  501    0  0.18488339959E+02  0.13501570734E+02 -0.48790955653E+03  0.48844635988E+03  0.00000000000E+00 0.  1.
         -2    1    1    2    0  503 -0.18488339959E+02 -0.13501570734E+02 -0.14078066717E+04  0.14079928039E+04  0.00000000000E+00 0. -1.
<mgrwt>
<rscale>  2 0.22893473E+02</rscale>
<asrwt>0</asrwt>
<pdfrwt beam="1">  1       21 0.55609670E-04 0.22893473E+02</pdfrwt>
<pdfrwt beam="2">  1       21 0.29170826E+00 0.22893473E+02</pdfrwt>
<totfact> 0.12237302E+07</totfact>
</mgrwt>
</event>
<event>
 4    1  0.2769537E+004  0.2016207E+02  0.7546771E-02  0.1742124E+00
         21   -1    0    0  501  502  0.00000000000E+00  0.00000000000E+00  0.96936730936E+01  0.96936730936E+01  0.00000000000E+00 0. -1.
         21   -1    0    0  502  503 -0.00000000000E+00 -0.00000000000E+00 -0.59730711668E+02  0.59730711668E+02  0.00000000000E+00 0.  1.
          2    1    1    2  501    0 -0.13774125431E+02  0.14723533240E+02 -0.60717633381E+01  0.21056478160E+02  0.00000000000E+00 0. -1.
         -2    1    1    2    0  503  0.13774125431E+02 -0.14723533240E+02 -0.43965275236E+02  0.48367906602E+02  0.00000000000E+00 0.  1.
<mgrwt>
<rscale>  2 0.20162067E+02</rscale>
<asrwt>0</asrwt>
<pdfrwt beam="1">  1       21 0.14913343E-02 0.20162067E+02</pdfrwt>
<pdfrwt beam="2">  1       21 0.91893402E-02 0.20162067E+02</pdfrwt>
<totfact> 0.12064694E+08</totfact>
</mgrwt>
</event>
<event>
 4    1  0.2769537E+004  0.2121079E+02  0.7546771E-02  0.1722269E+00
         21   -1    0    0  501  502  0.00000000000E+00  0.00000000000E+00  0.66876971814E+00  0.66876971814E+00  0.00000000000E+00 0. -1.
         21   -1    0    0  502  503 -0.00000000000E+00 -0.00000000000E+00 -0.81471275855E+03  0.81471275855E+03  0.00000000000E+00 0.  1.
          2    1    1    2  501    0 -0.16264012131E+02  0.13615418094E+02 -0.23682378008E+03  0.23777174035E+03  0.00000000000E+00 0. -1.
         -2    1    1    2    0  503  0.16264012131E+02 -0.13615418094E+02 -0.57722020876E+03  0.57760978792E+03  0.00000000000E+00 0.  1.
<mgrwt>
<rscale>  2 0.21210792E+02</rscale>
<asrwt>0</asrwt>
<pdfrwt beam="1">  1       21 0.10288748E-03 0.21210792E+02</pdfrwt>
<pdfrwt beam="2">  1       21 0.12534063E+00 0.21210792E+02</pdfrwt>
<totfact> 0.45285166E+07</totfact>
</mgrwt>
</event>
<event>
 4    1  0.2769537E+004  0.2108341E+02  0.7546771E-02  0.1724604E+00
         21   -1    0    0  503  502  0.00000000000E+00  0.00000000000E+00  0.23943960402E+02  0.23943960402E+02  0.00000000000E+00 0.  1.
         21   -1    0    0  501  503 -0.00000000000E+00 -0.00000000000E+00 -0.24306714410E+02  0.24306714410E+02  0.00000000000E+00 0. -1.
          2    1    1    2  501    0  0.20174237407E+02  0.61245708474E+01 -0.11907269546E+02  0.24213493987E+02  0.00000000000E+00 0. -1.
         -2    1    1    2    0  502 -0.20174237407E+02 -0.61245708474E+01  0.11544515538E+02  0.24037180825E+02  0.00000000000E+00 0.  1.
<mgrwt>
<rscale>  2 0.21083411E+02</rscale>
<asrwt>0</asrwt>
<pdfrwt beam="1">  1       21 0.36836862E-02 0.21083411E+02</pdfrwt>
<pdfrwt beam="2">  1       21 0.37394945E-02 0.21083411E+02</pdfrwt>
<totfact> 0.12821468E+08</totfact>
</mgrwt>
</event>
<event>
 4    1  0.2769537E+004  0.3179995E+02  0.7546771E-02  0.1579004E+00
         21   -1    0    0  501  502  0.00000000000E+00  0.00000000000E+00  0.73031066106E+03  0.73031066106E+03  0.00000000000E+00 0. -1.
         21   -1    0    0  502  503 -0.00000000000E+00 -0.00000000000E+00 -0.30352071502E+01  0.30352071502E+01  0.00000000000E+00 0.  1.
          2    1    1    2  501    0 -0.24619242982E+02  0.20127834146E+02  0.63403217822E+03  0.63482914225E+03  0.00000000000E+00 0. -1.
         -2    1    1    2    0  503  0.24619242982E+02 -0.20127834146E+02  0.93243275689E+02  0.98516725958E+02  0.00000000000E+00 0.  1.
<mgrwt>
<rscale>  2 0.31799950E+02</rscale>
<asrwt>0</asrwt>
<pdfrwt beam="1">  1       21 0.11235535E+00 0.31799950E+02</pdfrwt>
<pdfrwt beam="2">  1       21 0.46695553E-03 0.31799950E+02</pdfrwt>
<totfact> 0.68919517E+06</totfact>
</mgrwt>
</event>
<event>
 4    1  0.2769537E+004  0.2901060E+02  0.7546771E-02  0.1609290E+00
         21   -1    0    0  503  502  0.00000000000E+00  0.00000000000E+00  0.21690082231E+02  0.21690082231E+02  0.00000000000E+00 0. -1.
         21   -1    0    0  501  503 -0.00000000000E+00 -0.00000000000E+00 -0.10446809546E+03  0.10446809546E+03  0.00000000000E+00 0.  1.
          2    1    1    2  501    0  0.12402917021E+02  0.26225614363E+02 -0.91399908164E+02  0.95893474292E+02  0.00000000000E+00 0.  1.
         -2    1    1    2    0  502 -0.12402917021E+02 -0.26225614363E+02  0.86218949388E+01  0.30264703396E+02  0.00000000000E+00 0. -1.
<mgrwt>
<rscale>  2 0.29010605E+02</rscale>
<asrwt>0</asrwt>
<pdfrwt beam="1">  1       21 0.33369357E-02 0.29010605E+02</pdfrwt>
<pdfrwt beam="2">  1       21 0.16072015E-01 0.29010605E+02</pdfrwt>
<totfact> 0.14856556E+07</totfact>
</mgrwt>
</event>
<event>
 4    1  0.2769537E+004  0.2842588E+02  0.7546771E-02  0.1616170E+00
         21   -1    0    0  503  502  0.00000000000E+00  0.00000000000E+00  0.12142801576E+02  0.12142801576E+02  0.00000000000E+00 0.  1.
         21   -1    0    0  501  503 -0.00000000000E+00 -0.00000000000E+00 -0.69101217240E+02  0.69101217240E+02  0.00000000000E+00 0. -1.
          2    1    1    2  501    0  0.10799919408E+02 -0.26294346442E+02 -0.36293687865E+02  0.46100571503E+02  0.00000000000E+00 0. -1.
         -2    1    1    2    0  502 -0.10799919408E+02  0.26294346442E+02 -0.20664727800E+02  0.35143447313E+02  0.00000000000E+00 0.  1.
<mgrwt>
<rscale>  2 0.28425885E+02</rscale>
<asrwt>0</asrwt>
<pdfrwt beam="1">  1       21 0.18681233E-02 0.28425885E+02</pdfrwt>
<pdfrwt beam="2">  1       21 0.10630957E-01 0.28425885E+02</pdfrwt>
<totfact> 0.73815073E+07</totfact>
</mgrwt>
</event>
<event>
 4    1  0.2769537E+004  0.3375904E+02  0.7546771E-02  0.1559905E+00
         21   -1    0    0  501  502  0.00000000000E+00  0.00000000000E+00  0.21004736113E+02  0.21004736113E+02  0.00000000000E+00 0.  1.
         21   -1    0    0  502  503 -0.00000000000E+00 -0.00000000000E+00 -0.70399120887E+02  0.70399120887E+02  0.00000000000E+00 0. -1.
          2    1    1    2  501    0 -0.29832105367E+02  0.15802481700E+02 -0.28135778688E+01  0.33876085355E+02  0.00000000000E+00 0.  1.
         -2    1    1    2    0  503  0.29832105367E+02 -0.15802481700E+02 -0.46580806905E+02  0.57527771645E+02  0.00000000000E+00 0. -1.
<mgrwt>
<rscale>  2 0.33759042E+02</rscale>
<asrwt>0</asrwt>
<pdfrwt beam="1">  1       21 0.32314978E-02 0.33759042E+02</pdfrwt>
<pdfrwt beam="2">  1       21 0.10830634E-01 0.33759042E+02</pdfrwt>
<totfact> 0.31534472E+07</totfact>
</mgrwt>
</event>
<event>
 4    1  0.2769537E+004  0.5433565E+02  0.7546771E-02  0.1423267E+00
         21   -1    0    0  501  502  0.00000000000E+00  0.00000000000E+00  0.25145486046E+02  0.25145486046E+02  0.00000000000E+00 0. -1.
         21   -1    0    0  502  503 -0.00000000000E+00 -0.00000000000E+00 -0.17427603156E+03  0.17427603156E+03  0.00000000000E+00 0.  1.
          2    1    1    2  501    0  0.48541233006E+02 -0.24415406269E+02 -0.17608573320E+02  0.57117643678E+02  0.00000000000E+00 0. -1.
         -2    1    1    2    0  503 -0.48541233006E+02  0.24415406269E+02 -0.13152197219E+03  0.14230387393E+03  0.00000000000E+00 0.  1.
<mgrwt>
<rscale>  2 0.54335655E+02</rscale>
<asrwt>0</asrwt>
<pdfrwt beam="1">  1       21 0.38685364E-02 0.54335655E+02</pdfrwt>
<pdfrwt beam="2">  1       21 0.26811697E-01 0.54335655E+02</pdfrwt>
<totfact> 0.50971479E+06</totfact>
</mgrwt>
</event>
<event>
 4    1  0.2769537E+004  0.2171358E+02  0.7546771E-02  0.1713253E+00
         21   -1    0    0  501  502  0.00000000000E+00  0.00000000000E+00  0.19259618467E+03  0.19259618467E+03  0.00000000000E+00 0.  1.
         21   -1    0    0  502  503 -0.00000000000E+00 -0.00000000000E+00 -0.54285146989E+01  0.54285146989E+01  0.00000000000E+00 0. -1.
          2    1    1    2  501    0  0.21639603005E+02 -0.17908466748E+01  0.16694951457E+03  0.16835563538E+03  0.00000000000E+00 0.  1.
         -2    1    1    2    0  503 -0.21639603005E+02  0.17908466748E+01  0.20218155405E+02  0.29669063990E+02  0.00000000000E+00 0. -1.
<mgrwt>
<rscale>  2 0.21713580E+02</rscale>
<asrwt>0</asrwt>
<pdfrwt beam="1">  1       21 0.29630177E-01 0.21713580E+02</pdfrwt>
<pdfrwt beam="2">  1       21 0.83515626E-03 0.21713580E+02</pdfrwt>
<totfact> 0.39543640E+07</totfact>
</mgrwt>
</event>
<event>
 4    1  0.2769537E+004  0.2056283E+02  0.7546771E-02  0.1734362E+00
         21   -1    0    0  503  502  0.00000000000E+00  0.00000000000E+00  0.63133261656E+02  0.63133261656E+02  0.00000000000E+00 0.  1.
         21   -1    0    0  501  503 -0.00000000000E+00 -0.00000000000E+00 -0.79042644440E+01  0.79042644440E+01  0.00000000000E+00 0. -1.
          2    1    1    2  501    0 -0.16463604303E+02 -0.12319888507E+02  0.13735667467E+02  0.24728495309E+02  0.00000000000E+00 0. -1.
         -2    1    1    2    0  502  0.16463604303E+02  0.12319888507E+02  0.41493329745E+02  0.46309030791E+02  0.00000000000E+00 0.  1.
<mgrwt>
<rscale>  2 0.20562829E+02</rscale>
<asrwt>0</asrwt>
<pdfrwt beam="1">  1       21 0.97128091E-02 0.20562829E+02</pdfrwt>
<pdfrwt beam="2">  1       21 0.12160407E-02 0.20562829E+02</pdfrwt>
<totfact> 0.15078495E+08</totfact>
</mgrwt>
</event>
<event>
 4    1  0.2769537E+004  0.2403262E+02  0.7546771E-02  0.1675299E+00
         21   -1    0    0  501  502  0.00000000000E+00  0.00000000000E+00  0.60010733841E+01  0.60010733841E+01  0.00000000000E+00 0.  1.
         21   -1    0    0  502  503 -0.00000000000E+00 -0.00000000000E+00 -0.97579298297E+02  0.97579298297E+02  0.00000000000E+00 0. -1.
          2    1    1    2  501    0  0.10622760447E+02  0.21557448587E+02 -0.39730458693E+02  0.46433565199E+02  0.00000000000E+00 0. -1.
         -2    1    1    2    0  503 -0.10622760447E+02 -0.21557448587E+02 -0.51847766220E+02  0.57146806482E+02  0.00000000000E+00 0.  1.
<mgrwt>
<rscale>  2 0.24032616E+02</rscale>
<asrwt>0</asrwt>
<pdfrwt beam="1">  1       21 0.92324212E-03 0.24032616E+02</pdfrwt>
<pdfrwt beam="2">  1       21 0.15012199E-01 0.24032616E+02</pdfrwt>
<totfact> 0.11525611E+08</totfact>
</mgrwt>
</event>
