<event>
 4    1  0.1474645E+004  0.2128343E+02  0.7546771E-02  0.1720948E+00
          2   -1    0    0  501    0  0.00000000000E+00  0.00000000000E+00  0.10341083164E+04  0.10341083164E+04  0.00000000000E+00 0.  1.
         -2   -1    0    0    0  501 -0.00000000000E+00 -0.00000000000E+00 -0.12603209650E+01  0.12603209650E+01  0.00000000000E+00 0.  1.
          2    1    1    2  502    0 -0.15529324387E+01 -0.21226697567E+02  0.93457549747E+03  0.93481781367E+03  0.00000000000E+00 0.  1.
         -2    1    1    2    0  502  0.15529324387E+01  0.21226697567E+02  0.98272497931E+02  0.10055082366E+03  0.00000000000E+00 0.  1.
<mgrwt>
<rscale>  2 0.21283428E+02</rscale>
<asrwt>0</asrwt>
<pdfrwt beam="1">  1        2 0.15909291E+00 0.21283428E+02</pdfrwt>
<pdfrwt beam="2">  1       -2 0.19389636E-03 0.21283428E+02</pdfrwt>
<totfact> 0.35051420E+05</totfact>
</mgrwt>
</event>
<event>
 4    1  0.1474645E+004  0.2578340E+02  0.7546771E-02  0.1649998E+00
          2   -1    0    0  501    0  0.00000000000E+00  0.00000000000E+00  0.77185409086E+03  0.77185409086E+03  0.00000000000E+00 0.  1.
         -2   -1    0    0    0  501 -0.00000000000E+00 -0.00000000000E+00 -0.10734479598E+01  0.10734479598E+01  0.00000000000E+00 0. -1.
          2    1    1    2  502    0 -0.24927119857E+02  0.65895564355E+01  0.55720361906E+03  0.55779983565E+03  0.00000000000E+00 0.  1.
         -2    1    1    2    0  502  0.24927119857E+02 -0.65895564355E+01  0.21357702385E+03  0.21512770317E+03  0.00000000000E+00 0. -1.
<mgrwt>
<rscale>  2 0.25783397E+02</rscale>
<asrwt>0</asrwt>
<pdfrwt beam="1">  1        2 0.11874634E+00 0.25783397E+02</pdfrwt>
<pdfrwt beam="2">  1       -2 0.16514646E-03 0.25783397E+02</pdfrwt>
<totfact> 0.64685122E+05</totfact>
</mgrwt>
</event>
<event>
 4    1  0.1474645E+004  0.2093179E+02  0.7546771E-02  0.1727409E+00
          2   -1    0    0  501    0  0.00000000000E+00  0.00000000000E+00  0.60982002640E+02  0.60982002640E+02  0.00000000000E+00 0.  1.
         -2   -1    0    0    0  501 -0.00000000000E+00 -0.00000000000E+00 -0.12175859614E+02  0.12175859614E+02  0.00000000000E+00 0.  1.
          2    1    1    2  502    0  0.20682998915E+02 -0.32176849995E+01  0.47822705706E+02  0.52202980010E+02  0.00000000000E+00 0.  1.
         -2    1    1    2    0  502 -0.20682998915E+02  0.32176849995E+01  0.98343731961E+00  0.20954882244E+02  0.00000000000E+00 0.  1.
<mgrwt>
<rscale>  2 0.20931793E+02</rscale>
<asrwt>0</asrwt>
<pdfrwt beam="1">  1        2 0.93818464E-02 0.20931793E+02</pdfrwt>
<pdfrwt beam="2">  1       -2 0.18732092E-02 0.20931793E+02</pdfrwt>
<totfact> 0.33129873E+05</totfact>
</mgrwt>
</event>
<event>
 4    1  0.1474645E+004  0.2884104E+02  0.7546771E-02  0.1611264E+00
         -2   -1    0    0    0  501 -0.00000000000E+00  0.00000000000E+00  0.50925147458E+00  0.50925147458E+00  0.00000000000E+00 0. -1.
          2   -1    0    0  501    0  0.00000000000E+00 -0.00000000000E+00 -0.20465062980E+04  0.20465062980E+04  0.00000000000E+00 0.  1.
          2    1    1    2  502    0  0.21183421003E+02  0.19572133489E+02 -0.14828539502E+04  0.14831343983E+04  0.00000000000E+00 0.  1.
         -2    1    1    2    0  502 -0.21183421003E+02 -0.19572133489E+02 -0.56314309634E+03  0.56388115121E+03  0.00000000000E+00 0. -1.
<mgrwt>
<rscale>  2 0.28841043E+02</rscale>
<asrwt>0</asrwt>
<pdfrwt beam="2">  1        2 0.31484876E+00 0.28841043E+02</pdfrwt>
<pdfrwt beam="1">  1       -2 0.78345974E-04 0.28841043E+02</pdfrwt>
<totfact> 0.40643937E+05</totfact>
</mgrwt>
</event>
<event>
 4    1  0.1474645E+004  0.3199594E+02  0.7546771E-02  0.1577019E+00
          2   -1    0    0  501    0  0.00000000000E+00  0.00000000000E+00  0.72315650469E+03  0.72315650469E+03  0.00000000000E+00 0.  1.
         -2   -1    0    0    0  501 -0.00000000000E+00 -0.00000000000E+00 -0.15456134028E+01  0.15456134028E+01  0.00000000000E+00 0. -1.
          2    1    1    2  502    0 -0.30142808333E+02  0.10730864162E+02  0.46587594004E+03  0.46697337381E+03  0.00000000000E+00 0.  1.
         -2    1    1    2    0  502  0.30142808333E+02 -0.10730864162E+02  0.25573495125E+03  0.25772874428E+03  0.00000000000E+00 0. -1.
<mgrwt>
<rscale>  2 0.31995943E+02</rscale>
<asrwt>0</asrwt>
<pdfrwt beam="1">  1        2 0.11125458E+00 0.31995943E+02</pdfrwt>
<pdfrwt beam="2">  1       -2 0.23778725E-03 0.31995943E+02</pdfrwt>
<totfact> 0.45275469E+05</totfact>
</mgrwt>
</event>
<event>
 4    1  0.1474645E+004  0.2638821E+02  0.7546771E-02  0.1641828E+00
         -2   -1    0    0    0  501 -0.00000000000E+00  0.00000000000E+00  0.50947494688E+02  0.50947494688E+02  0.00000000000E+00 0. -1.
          2   -1    0    0  501    0  0.00000000000E+00 -0.00000000000E+00 -0.19200365779E+04  0.19200365779E+04  0.00000000000E+00 0. -1.
          2    1    1    2  502    0 -0.17736998367E+02 -0.19538077488E+02 -0.19165227089E+04  0.19167043672E+04  0.00000000000E+00 0. -1.
         -2    1    1    2    0  502  0.17736998367E+02  0.19538077488E+02  0.47433625620E+02  0.54279705438E+02  0.00000000000E+00 0. -1.
<mgrwt>
<rscale>  2 0.26388209E+02</rscale>
<asrwt>0</asrwt>
<pdfrwt beam="2">  1        2 0.29539027E+00 0.26388209E+02</pdfrwt>
<pdfrwt beam="1">  1       -2 0.78380755E-02 0.26388209E+02</pdfrwt>
<totfact> 0.84795143E+02</totfact>
</mgrwt>
</event>
<event>
 4    1  0.1474645E+004  0.3251044E+02  0.7546771E-02  0.1571889E+00
         -2   -1    0    0    0  501 -0.00000000000E+00  0.00000000000E+00  0.24361097372E+02  0.24361097372E+02  0.00000000000E+00 0.  1.
          2   -1    0    0  501    0  0.00000000000E+00 -0.00000000000E+00 -0.10524671726E+04  0.10524671726E+04  0.00000000000E+00 0. -1.
          2    1    1    2  502    0 -0.16155834284E+02  0.28212011632E+02 -0.10412528447E+04  0.10417602485E+04  0.00000000000E+00 0. -1.
         -2    1    1    2    0  502  0.16155834284E+02 -0.28212011632E+02  0.13146769542E+02  0.35068021488E+02  0.00000000000E+00 0.  1.
<mgrwt>
<rscale>  2 0.32510438E+02</rscale>
<asrwt>0</asrwt>
<pdfrwt beam="2">  1        2 0.16191810E+00 0.32510438E+02</pdfrwt>
<pdfrwt beam="1">  1       -2 0.37478595E-02 0.32510438E+02</pdfrwt>
<totfact> 0.65606997E+03</totfact>
</mgrwt>
</event>
<event>
 4    1  0.1474645E+004  0.2665501E+02  0.7546771E-02  0.1638308E+00
         -2   -1    0    0    0  501 -0.00000000000E+00  0.00000000000E+00  0.32094023535E+01  0.32094023535E+01  0.00000000000E+00 0.  1.
          2   -1    0    0  501    0  0.00000000000E+00 -0.00000000000E+00 -0.91411899569E+03  0.91411899569E+03  0.00000000000E+00 0.  1.
          2    1    1    2  502    0 -0.37929556020E+01 -0.26383767674E+02 -0.85473617296E+03  0.85515169127E+03  0.00000000000E+00 0.  1.
         -2    1    1    2    0  502  0.37929556020E+01  0.26383767674E+02 -0.56173420376E+02  0.62176706777E+02  0.00000000000E+00 0.  1.
<mgrwt>
<rscale>  2 0.26655013E+02</rscale>
<asrwt>0</asrwt>
<pdfrwt beam="2">  1        2 0.14063369E+00 0.26655013E+02</pdfrwt>
<pdfrwt beam="1">  1       -2 0.49375422E-03 0.26655013E+02</pdfrwt>
<totfact> 0.12378090E+05</totfact>
</mgrwt>
</event>
<event>
 4    1  0.1474645E+004  0.3342514E+02  0.7546771E-02  0.1563048E+00
         -2   -1    0    0    0  501 -0.00000000000E+00  0.00000000000E+00  0.14446021626E+02  0.14446021626E+02  0.00000000000E+00 0. -1.
          2   -1    0    0  501    0  0.00000000000E+00 -0.00000000000E+00 -0.14249207918E+04  0.14249207918E+04  0.00000000000E+00 0. -1.
          2    1    1    2  502    0 -0.12970458225E+02  0.30805958892E+02 -0.14051175827E+04  0.14055150875E+04  0.00000000000E+00 0. -1.
         -2    1    1    2    0  502  0.12970458225E+02 -0.30805958892E+02 -0.53571874246E+01  0.33851725907E+02  0.00000000000E+00 0. -1.
<mgrwt>
<rscale>  2 0.33425139E+02</rscale>
<asrwt>0</asrwt>
<pdfrwt beam="2">  1        2 0.21921863E+00 0.33425139E+02</pdfrwt>
<pdfrwt beam="1">  1       -2 0.22224644E-02 0.33425139E+02</pdfrwt>
<totfact> 0.88570760E+03</totfact>
</mgrwt>
</event>
<event>
 4    1  0.1474645E+004  0.2328056E+02  0.7546771E-02  0.1687002E+00
          2   -1    0    0  501    0  0.00000000000E+00  0.00000000000E+00  0.13709881147E+02  0.13709881147E+02  0.00000000000E+00 0. -1.
         -2   -1    0    0    0  501 -0.00000000000E+00 -0.00000000000E+00 -0.35551577480E+03  0.35551577480E+03  0.00000000000E+00 0.  1.
          2    1    1    2  502    0 -0.21601963559E+01  0.23180119032E+02  0.31432591965E+01  0.23491795271E+02  0.00000000000E+00 0. -1.
         -2    1    1    2    0  502  0.21601963559E+01 -0.23180119032E+02 -0.34494915285E+03  0.34573386068E+03  0.00000000000E+00 0.  1.
<mgrwt>
<rscale>  2 0.23280558E+02</rscale>
<asrwt>0</asrwt>
<pdfrwt beam="1">  1        2 0.21092124E-02 0.23280558E+02</pdfrwt>
<pdfrwt beam="2">  1       -2 0.54694737E-01 0.23280558E+02</pdfrwt>
<totfact> 0.11658947E+04</totfact>
</mgrwt>
</event>
<event>
 4    1  0.1474645E+004  0.2068193E+02  0.7546771E-02  0.1732098E+00
          2   -1    0    0  501    0  0.00000000000E+00  0.00000000000E+00  0.29281381300E+03  0.29281381300E+03  0.00000000000E+00 0.  1.
         -2   -1    0    0    0  501 -0.00000000000E+00 -0.00000000000E+00 -0.72035179400E+02  0.72035179400E+02  0.00000000000E+00 0.  1.
          2    1    1    2  502    0  0.20681006313E+02  0.19514133753E+00  0.29095464921E+03  0.29168878963E+03  0.00000000000E+00 0.  1.
         -2    1    1    2    0  502 -0.20681006313E+02 -0.19514133753E+00 -0.70176015607E+02  0.73160202766E+02  0.00000000000E+00 0.  1.
<mgrwt>
<rscale>  2 0.20681927E+02</rscale>
<asrwt>0</asrwt>
<pdfrwt beam="1">  1        2 0.45048278E-01 0.20681927E+02</pdfrwt>
<pdfrwt beam="2">  1       -2 0.11082335E-01 0.20681927E+02</pdfrwt>
<totfact> 0.50908356E+03</totfact>
</mgrwt>
</event>
<event>
 4    1  0.1474645E+004  0.3181783E+02  0.7546771E-02  0.1578822E+00
          2   -1    0    0  501    0  0.00000000000E+00  0.00000000000E+00  0.62014545252E+03  0.62014545252E+03  0.00000000000E+00 0. -1.
         -2   -1    0    0    0  501 -0.00000000000E+00 -0.00000000000E+00 -0.10010201857E+02  0.10010201857E+02  0.00000000000E+00 0.  1.
          2    1    1    2  502    0  0.24108837148E+02  0.20763870251E+02  0.59331105912E+03  0.59416360307E+03  0.00000000000E+00 0. -1.
         -2    1    1    2    0  502 -0.24108837148E+02 -0.20763870251E+02  0.16824191544E+02  0.35992051310E+02  0.00000000000E+00 0.  1.
<mgrwt>
<rscale>  2 0.31817830E+02</rscale>
<asrwt>0</asrwt>
<pdfrwt beam="1">  1        2 0.95406963E-01 0.31817830E+02</pdfrwt>
<pdfrwt beam="2">  1       -2 0.15400315E-02 0.31817830E+02</pdfrwt>
<totfact> 0.42133840E+04</totfact>
</mgrwt>
</event>
<event>
 4    1  0.1474645E+004  0.2097727E+02  0.7546771E-02  0.1726564E+00
         -2   -1    0    0    0  501 -0.00000000000E+00  0.00000000000E+00  0.10364194636E+01  0.10364194636E+01  0.00000000000E+00 0. -1.
          2   -1    0    0  501    0  0.00000000000E+00 -0.00000000000E+00 -0.70430402846E+03  0.70430402846E+03  0.00000000000E+00 0. -1.
          2    1    1    2  502    0  0.13785945562E+02 -0.15811187163E+02 -0.57388872181E+03  0.57427198343E+03  0.00000000000E+00 0. -1.
         -2    1    1    2    0  502 -0.13785945562E+02  0.15811187163E+02 -0.12937888719E+03  0.13106846449E+03  0.00000000000E+00 0. -1.
<mgrwt>
<rscale>  2 0.20977272E+02</rscale>
<asrwt>0</asrwt>
<pdfrwt beam="2">  1        2 0.10835435E+00 0.20977272E+02</pdfrwt>
<pdfrwt beam="1">  1       -2 0.15944931E-03 0.20977272E+02</pdfrwt>
<totfact> 0.70542292E+05</totfact>
</mgrwt>
</event>
<event>
 4    1  0.1474645E+004  0.2053644E+02  0.7546771E-02  0.1734866E+00
         -2   -1    0    0    0  501 -0.00000000000E+00  0.00000000000E+00  0.78226119274E+00  0.78226119274E+00  0.00000000000E+00 0.  1.
          2   -1    0    0  501    0  0.00000000000E+00 -0.00000000000E+00 -0.68454083609E+03  0.68454083609E+03  0.00000000000E+00 0.  1.
          2    1    1    2  502    0 -0.82841196338E+01 -0.18791453074E+02 -0.49980570426E+03  0.50022743563E+03  0.00000000000E+00 0.  1.
         -2    1    1    2    0  502  0.82841196338E+01  0.18791453074E+02 -0.18395287064E+03  0.18509566165E+03  0.00000000000E+00 0.  1.
<mgrwt>
<rscale>  2 0.20536439E+02</rscale>
<asrwt>0</asrwt>
<pdfrwt beam="2">  1        2 0.10531367E+00 0.20536439E+02</pdfrwt>
<pdfrwt beam="1">  1       -2 0.12034822E-03 0.20536439E+02</pdfrwt>
<totfact> 0.10456023E+06</totfact>
</mgrwt>
</event>
<event>
 4    1  0.1474645E+004  0.2660440E+02  0.7546771E-02  0.1638972E+00
         -2   -1    0    0    0  501 -0.00000000000E+00  0.00000000000E+00  0.12714460060E+01  0.12714460060E+01  0.00000000000E+00 0.  1.
          2   -1    0    0  501    0  0.00000000000E+00 -0.00000000000E+00 -0.56823677551E+03  0.56823677551E+03  0.00000000000E+00 0.  1.
          2    1    1    2  502    0 -0.16718307368E+02  0.20695204546E+02 -0.24288007238E+03  0.24433281165E+03  0.00000000000E+00 0.  1.
         -2    1    1    2    0  502  0.16718307368E+02 -0.20695204546E+02 -0.32408525713E+03  0.32517540986E+03  0.00000000000E+00 0.  1.
<mgrwt>
<rscale>  2 0.26604398E+02</rscale>
<asrwt>0</asrwt>
<pdfrwt beam="2">  1        2 0.87421008E-01 0.26604398E+02</pdfrwt>
<pdfrwt beam="1">  1       -2 0.19560715E-03 0.26604398E+02</pdfrwt>
<totfact> 0.72504997E+05</totfact>
</mgrwt>
</event>
<event>
 4    1  0.1474645E+004  0.2347465E+02  0.7546771E-02  0.1683930E+00
          2   -1    0    0  501    0  0.00000000000E+00  0.00000000000E+00  0.10109708043E+04  0.10109708043E+04  0.00000000000E+00 0. -1.
         -2   -1    0    0    0  501 -0.00000000000E+00 -0.00000000000E+00 -0.74663108369E+01  0.74663108369E+01  0.00000000000E+00 0.  1.
          2    1    1    2  502    0  0.22778084932E+02  0.56760953010E+01  0.99203078160E+03  0.99230848573E+03  0.00000000000E+00 0. -1.
         -2    1    1    2    0  502 -0.22778084932E+02 -0.56760953010E+01  0.11473711874E+02  0.26128629417E+02  0.00000000000E+00 0.  1.
<mgrwt>
<rscale>  2 0.23474650E+02</rscale>
<asrwt>0</asrwt>
<pdfrwt beam="1">  1        2 0.15553386E+00 0.23474650E+02</pdfrwt>
<pdfrwt beam="2">  1       -2 0.11486640E-02 0.23474650E+02</pdfrwt>
<totfact> 0.34115998E+04</totfact>
</mgrwt>
</event>
<event>
 4    1  0.1474645E+004  0.2622749E+02  0.7546771E-02  0.1643972E+00
          2   -1    0    0  501    0  0.00000000000E+00  0.00000000000E+00  0.89142826576E+01  0.89142826576E+01  0.00000000000E+00 0. -1.
         -2   -1    0    0    0  501 -0.00000000000E+00 -0.00000000000E+00 -0.12472674731E+03  0.12472674731E+03  0.00000000000E+00 0. -1.
          2    1    1    2  502    0 -0.21170196526E+02  0.15482383858E+02 -0.16643936888E+02  0.31062872790E+02  0.00000000000E+00 0. -1.
         -2    1    1    2    0  502  0.21170196526E+02 -0.15482383858E+02 -0.99168527765E+02  0.10257815718E+03  0.00000000000E+00 0. -1.
<mgrwt>
<rscale>  2 0.26227494E+02</rscale>
<asrwt>0</asrwt>
<pdfrwt beam="1">  1        2 0.13714282E-02 0.26227494E+02</pdfrwt>
<pdfrwt beam="2">  1       -2 0.19188729E-01 0.26227494E+02</pdfrwt>
<totfact> 0.13124613E+05</totfact>
</mgrwt>
</event>
<event>
 4    1  0.1474645E+004  0.2046964E+02  0.7546771E-02  0.1736147E+00
          2   -1    0    0  501    0  0.00000000000E+00  0.00000000000E+00  0.33427321314E+03  0.33427321314E+03  0.00000000000E+00 0. -1.
         -2   -1    0    0    0  501 -0.00000000000E+00 -0.00000000000E+00 -0.17847928456E+02  0.17847928456E+02  0.00000000000E+00 0. -1.
          2    1    1    2  502    0 -0.68123230815E+00 -0.20458296698E+02  0.32797819118E+03  0.32861634145E+03  0.00000000000E+00 0. -1.
         -2    1    1    2    0  502  0.68123230815E+00  0.20458296698E+02 -0.11552906495E+02  0.23504800142E+02  0.00000000000E+00 0. -1.
<mgrwt>
<rscale>  2 0.20469636E+02</rscale>
<asrwt>0</asrwt>
<pdfrwt beam="1">  1        2 0.51426643E-01 0.20469636E+02</pdfrwt>
<pdfrwt beam="2">  1       -2 0.27458354E-02 0.20469636E+02</pdfrwt>
<totfact> 0.32704883E+04</totfact>
</mgrwt>
</event>
<event>
 4    1  0.1474645E+004  0.2306266E+02  0.7546771E-02  0.1690497E+00
          2   -1    0    0  501    0  0.00000000000E+00  0.00000000000E+00  0.37307377649E+03  0.37307377649E+03  0.00000000000E+00 0. -1.
         -2   -1    0    0    0  501 -0.00000000000E+00 -0.00000000000E+00 -0.10000133347E+02  0.10000133347E+02  0.00000000000E+00 0.  1.
          2    1    1    2  502    0 -0.76994013964E+01 -0.21739486587E+02  0.35889562581E+03  0.35963586623E+03  0.00000000000E+00 0. -1.
         -2    1    1    2    0  502  0.76994013964E+01  0.21739486587E+02  0.41780173324E+01  0.23438043599E+02  0.00000000000E+00 0.  1.
<mgrwt>
<rscale>  2 0.23062655E+02</rscale>
<asrwt>0</asrwt>
<pdfrwt beam="1">  1        2 0.57395955E-01 0.23062655E+02</pdfrwt>
<pdfrwt beam="2">  1       -2 0.15384823E-02 0.23062655E+02</pdfrwt>
<totfact> 0.66562979E+04</totfact>
</mgrwt>
</event>
<event>
 4    1  0.1474645E+004  0.2143150E+02  0.7546771E-02  0.1718274E+00
          2   -1    0    0  501    0  0.00000000000E+00  0.00000000000E+00  0.36162861375E+02  0.36162861375E+02  0.00000000000E+00 0. -1.
         -2   -1    0    0    0  501 -0.00000000000E+00 -0.00000000000E+00 -0.17098007426E+02  0.17098007426E+02  0.00000000000E+00 0.  1.
          2    1    1    2  502    0 -0.21177420509E+02 -0.32902682448E+01  0.23036909623E+02  0.31464395903E+02  0.00000000000E+00 0. -1.
         -2    1    1    2    0  502  0.21177420509E+02  0.32902682448E+01 -0.39720556739E+01  0.21796472898E+02  0.00000000000E+00 0.  1.
<mgrwt>
<rscale>  2 0.21431496E+02</rscale>
<asrwt>0</asrwt>
<pdfrwt beam="1">  1        2 0.55635171E-02 0.21431496E+02</pdfrwt>
<pdfrwt beam="2">  1       -2 0.26304627E-02 0.21431496E+02</pdfrwt>
<totfact> 0.38862356E+05</totfact>
</mgrwt>
</event>
<event>
 4    1  0.1474645E+004  0.2088222E+02  0.7546771E-02  0.1728332E+00
         -2   -1    0    0    0  501 -0.00000000000E+00  0.00000000000E+00  0.31025953712E+03  0.31025953712E+03  0.00000000000E+00 0.  1.
          2   -1    0    0  501    0  0.00000000000E+00 -0.00000000000E+00 -0.42021770254E+03  0.42021770254E+03  0.00000000000E+00 0.  1.
          2    1    1    2  502    0  0.18728534828E+02  0.92362994374E+01 -0.41960638862E+03  0.42012568193E+03  0.00000000000E+00 0.  1.
         -2    1    1    2    0  502 -0.18728534828E+02 -0.92362994374E+01  0.30964822321E+03  0.31035155772E+03  0.00000000000E+00 0.  1.
<mgrwt>
<rscale>  2 0.20882223E+02</rscale>
<asrwt>0</asrwt>
<pdfrwt beam="2">  1        2 0.64648877E-01 0.20882223E+02</pdfrwt>
<pdfrwt beam="1">  1       -2 0.47732236E-01 0.20882223E+02</pdfrwt>
<totfact> 0.31913543E+02</totfact>
</mgrwt>
</event>
<event>
 4    1  0.1474645E+004  0.2014295E+02  0.7546771E-02  0.1742500E+00
         -2   -1    0    0    0  501 -0.00000000000E+00  0.00000000000E+00  0.12240483479E+04  0.12240483479E+04  0.00000000000E+00 0.  1.
          2   -1    0    0  501    0  0.00000000000E+00 -0.00000000000E+00 -0.52852803520E+00  0.52852803520E+00  0.00000000000E+00 0.  1.
          2    1    1    2  502    0 -0.12848446556E+02  0.15513089714E+02  0.23789370073E+03  0.23874495048E+03  0.00000000000E+00 0.  1.
         -2    1    1    2    0  502  0.12848446556E+02 -0.15513089714E+02  0.98562611914E+03  0.98583192546E+03  0.00000000000E+00 0.  1.
<mgrwt>
<rscale>  2 0.20142952E+02</rscale>
<asrwt>0</asrwt>
<pdfrwt beam="2">  1        2 0.81312985E-04 0.20142952E+02</pdfrwt>
<pdfrwt beam="1">  1       -2 0.18831286E+00 0.20142952E+02</pdfrwt>
<totfact> 0.49281667E+04</totfact>
</mgrwt>
</event>
<event>
 4    1  0.1474645E+004  0.2704602E+02  0.7546771E-02  0.1633242E+00
          2   -1    0    0  501    0  0.00000000000E+00  0.00000000000E+00  0.98122867305E+03  0.98122867305E+03  0.00000000000E+00 0.  1.
         -2   -1    0    0    0  501 -0.00000000000E+00 -0.00000000000E+00 -0.83918514205E+02  0.83918514205E+02  0.00000000000E+00 0.  1.
          2    1    1    2  502    0  0.26913584925E+02 -0.26732389005E+01  0.97885786653E+03  0.97923143849E+03  0.00000000000E+00 0.  1.
         -2    1    1    2    0  502 -0.26913584925E+02  0.26732389005E+01 -0.81547707678E+02  0.85915748773E+02  0.00000000000E+00 0.  1.
<mgrwt>
<rscale>  2 0.27046021E+02</rscale>
<asrwt>0</asrwt>
<pdfrwt beam="1">  1        2 0.15095825E+00 0.27046021E+02</pdfrwt>
<pdfrwt beam="2">  1       -2 0.12910541E-01 0.27046021E+02</pdfrwt>
<totfact> 0.11562652E+03</totfact>
</mgrwt>
</event>
<event>
 4    1  0.1474645E+004  0.3340408E+02  0.7546771E-02  0.1563247E+00
         -2   -1    0    0    0  501 -0.00000000000E+00  0.00000000000E+00  0.84390336561E+00  0.84390336561E+00  0.00000000000E+00 0. -1.
          2   -1    0    0  501    0  0.00000000000E+00 -0.00000000000E+00 -0.14725763341E+04  0.14725763341E+04  0.00000000000E+00 0. -1.
          2    1    1    2  502    0  0.42286315829E+01  0.33135343527E+02 -0.97126684761E+03  0.97184109893E+03  0.00000000000E+00 0. -1.
         -2    1    1    2    0  502 -0.42286315829E+01 -0.33135343527E+02 -0.50046558317E+03  0.50157913857E+03  0.00000000000E+00 0. -1.
<mgrwt>
<rscale>  2 0.33404076E+02</rscale>
<asrwt>0</asrwt>
<pdfrwt beam="2">  1        2 0.22654974E+00 0.33404076E+02</pdfrwt>
<pdfrwt beam="1">  1       -2 0.12983155E-03 0.33404076E+02</pdfrwt>
<totfact> 0.40127786E+05</totfact>
</mgrwt>
</event>
<event>
 4    1  0.1474645E+004  0.2457815E+02  0.7546771E-02  0.1667136E+00
         -2   -1    0    0    0  501 -0.00000000000E+00  0.00000000000E+00  0.11981703334E+02  0.11981703334E+02  0.00000000000E+00 0.  1.
          2   -1    0    0  501    0  0.00000000000E+00 -0.00000000000E+00 -0.10073731104E+04  0.10073731104E+04  0.00000000000E+00 0.  1.
          2    1    1    2  502    0 -0.14931624387E+02  0.19522604821E+02 -0.99445515650E+03  0.99475883700E+03  0.00000000000E+00 0.  1.
         -2    1    1    2    0  502  0.14931624387E+02 -0.19522604821E+02 -0.93625055622E+00  0.24595976722E+02  0.00000000000E+00 0.  1.
<mgrwt>
<rscale>  2 0.24578151E+02</rscale>
<asrwt>0</asrwt>
<pdfrwt beam="2">  1        2 0.15498049E+00 0.24578151E+02</pdfrwt>
<pdfrwt beam="1">  1       -2 0.18433388E-02 0.24578151E+02</pdfrwt>
<totfact> 0.18100916E+04</totfact>
</mgrwt>
</event>
<event>
 4    1  0.1474645E+004  0.2889224E+02  0.7546771E-02  0.1610666E+00
         -2   -1    0    0    0  501 -0.00000000000E+00  0.00000000000E+00  0.21140708623E+01  0.21140708623E+01  0.00000000000E+00 0.  1.
          2   -1    0    0  501    0  0.00000000000E+00 -0.00000000000E+00 -0.75943766087E+03  0.75943766087E+03  0.00000000000E+00 0. -1.
          2    1    1    2  502    0  0.24105091887E+02  0.15928159406E+02 -0.64248832289E+03  0.64313762662E+03  0.00000000000E+00 0. -1.
         -2    1    1    2    0  502 -0.24105091887E+02 -0.15928159406E+02 -0.11483526712E+03  0.11841410512E+03  0.00000000000E+00 0.  1.
<mgrwt>
<rscale>  2 0.28892243E+02</rscale>
<asrwt>0</asrwt>
<pdfrwt beam="2">  1        2 0.11683657E+00 0.28892243E+02</pdfrwt>
<pdfrwt beam="1">  1       -2 0.32524164E-03 0.28892243E+02</pdfrwt>
<totfact> 0.27434655E+05</totfact>
</mgrwt>
</event>
<event>
 4    1  0.1474645E+004  0.2173725E+02  0.7546771E-02  0.1712836E+00
          2   -1    0    0  501    0  0.00000000000E+00  0.00000000000E+00  0.11972105720E+03  0.11972105720E+03  0.00000000000E+00 0.  1.
         -2   -1    0    0    0  501 -0.00000000000E+00 -0.00000000000E+00 -0.83920348177E+01  0.83920348177E+01  0.00000000000E+00 0.  1.
          2    1    1    2  502    0  0.21736117745E+02  0.22156279001E+00  0.10228535777E+03  0.10456960514E+03  0.00000000000E+00 0.  1.
         -2    1    1    2    0  502 -0.21736117745E+02 -0.22156279001E+00  0.90436646074E+01  0.23543486875E+02  0.00000000000E+00 0.  1.
<mgrwt>
<rscale>  2 0.21737247E+02</rscale>
<asrwt>0</asrwt>
<pdfrwt beam="1">  1        2 0.18418623E-01 0.21737247E+02</pdfrwt>
<pdfrwt beam="2">  1       -2 0.12910824E-02 0.21737247E+02</pdfrwt>
<totfact> 0.26269394E+05</totfact>
</mgrwt>
</event>
<event>
 4    1  0.1474645E+004  0.2059594E+02  0.7546771E-02  0.1733730E+00
          2   -1    0    0  501    0  0.00000000000E+00  0.00000000000E+00  0.18989852888E+01  0.18989852888E+01  0.00000000000E+00 0. -1.
         -2   -1    0    0    0  501 -0.00000000000E+00 -0.00000000000E+00 -0.78418948856E+03  0.78418948856E+03  0.00000000000E+00 0. -1.
          2    1    1    2  502    0 -0.81481386472E+01  0.18915615415E+02 -0.58761990832E+02  0.62266879129E+02  0.00000000000E+00 0. -1.
         -2    1    1    2    0  502  0.81481386472E+01 -0.18915615415E+02 -0.72352851244E+03  0.72382159472E+03  0.00000000000E+00 0. -1.
<mgrwt>
<rscale>  2 0.20595938E+02</rscale>
<asrwt>0</asrwt>
<pdfrwt beam="1">  1        2 0.29215160E-03 0.20595938E+02</pdfrwt>
<pdfrwt beam="2">  1       -2 0.12064453E+00 0.20595938E+02</pdfrwt>
<totfact> 0.27759247E+04</totfact>
</mgrwt>
</event>
<event>
 4    1  0.1474645E+004  0.2008521E+02  0.7546771E-02  0.1743639E+00
         -2   -1    0    0    0  501 -0.00000000000E+00  0.00000000000E+00  0.25277489147E+01  0.25277489147E+01  0.00000000000E+00 0.  1.
          2   -1    0    0  501    0  0.00000000000E+00 -0.00000000000E+00 -0.11593582045E+04  0.11593582045E+04  0.00000000000E+00 0. -1.
          2    1    1    2  502    0  0.19775361634E+02 -0.35143888587E+01 -0.11178926581E+04  0.11180730794E+04  0.00000000000E+00 0. -1.
         -2    1    1    2    0  502 -0.19775361634E+02  0.35143888587E+01 -0.38937797570E+02  0.43812874094E+02  0.00000000000E+00 0.  1.
<mgrwt>
<rscale>  2 0.20085215E+02</rscale>
<asrwt>0</asrwt>
<pdfrwt beam="2">  1        2 0.17836253E+00 0.20085215E+02</pdfrwt>
<pdfrwt beam="1">  1       -2 0.38888503E-03 0.20085215E+02</pdfrwt>
<totfact> 0.11847989E+05</totfact>
</mgrwt>
</event>
<event>
 4    1  0.1474645E+004  0.2086526E+02  0.7546771E-02  0.1728649E+00
         -2   -1    0    0    0  501 -0.00000000000E+00  0.00000000000E+00  0.13767795401E+02  0.13767795401E+02  0.00000000000E+00 0. -1.
          2   -1    0    0  501    0  0.00000000000E+00 -0.00000000000E+00 -0.40177821432E+02  0.40177821432E+02  0.00000000000E+00 0. -1.
          2    1    1    2  502    0  0.65660937624E+01 -0.19805183325E+02 -0.25652324034E+02  0.33066608568E+02  0.00000000000E+00 0. -1.
         -2    1    1    2    0  502 -0.65660937624E+01  0.19805183325E+02 -0.75770199775E+00  0.20879008266E+02  0.00000000000E+00 0. -1.
<mgrwt>
<rscale>  2 0.20865255E+02</rscale>
<asrwt>0</asrwt>
<pdfrwt beam="2">  1        2 0.61812033E-02 0.20865255E+02</pdfrwt>
<pdfrwt beam="1">  1       -2 0.21181224E-02 0.20865255E+02</pdfrwt>
<totfact> 0.45714931E+05</totfact>
</mgrwt>
</event>
<event>
 4    1  0.1474645E+004  0.3014058E+02  0.7546771E-02  0.1596540E+00
         -2   -1    0    0    0  501 -0.00000000000E+00  0.00000000000E+00  0.33655331580E+01  0.33655331580E+01  0.00000000000E+00 0. -1.
          2   -1    0    0  501    0  0.00000000000E+00 -0.00000000000E+00 -0.28215407798E+03  0.28215407798E+03  0.00000000000E+00 0. -1.
          2    1    1    2  502    0 -0.68026812370E+01 -0.29362868505E+02 -0.16911032645E+03  0.17177530973E+03  0.00000000000E+00 0. -1.
         -2    1    1    2    0  502  0.68026812370E+01  0.29362868505E+02 -0.10967821837E+03  0.11374430141E+03  0.00000000000E+00 0. -1.
<mgrwt>
<rscale>  2 0.30140579E+02</rscale>
<asrwt>0</asrwt>
<pdfrwt beam="2">  1        2 0.43408334E-01 0.30140579E+02</pdfrwt>
<pdfrwt beam="1">  1       -2 0.51777416E-03 0.30140579E+02</pdfrwt>
<totfact> 0.41099640E+05</totfact>
</mgrwt>
</event>
<event>
 4    1  0.1474645E+004  0.2065309E+02  0.7546771E-02  0.1732644E+00
         -2   -1    0    0    0  501 -0.00000000000E+00  0.00000000000E+00  0.49001733417E+01  0.49001733417E+01  0.00000000000E+00 0. -1.
          2   -1    0    0  501    0  0.00000000000E+00 -0.00000000000E+00 -0.12375139330E+03  0.12375139330E+03  0.00000000000E+00 0.  1.
          2    1    1    2  502    0 -0.11907926322E+02 -0.16874576215E+02 -0.94457490769E+02  0.96689025199E+02  0.00000000000E+00 0.  1.
         -2    1    1    2    0  502  0.11907926322E+02  0.16874576215E+02 -0.24393729193E+02  0.31962541446E+02  0.00000000000E+00 0. -1.
<mgrwt>
<rscale>  2 0.20653088E+02</rscale>
<asrwt>0</asrwt>
<pdfrwt beam="2">  1        2 0.19038678E-01 0.20653088E+02</pdfrwt>
<pdfrwt beam="1">  1       -2 0.75387276E-03 0.20653088E+02</pdfrwt>
<totfact> 0.51564005E+05</totfact>
</mgrwt>
</event>
<event>
 4    1  0.1474645E+004  0.2681522E+02  0.7546771E-02  0.1636220E+00
          2   -1    0    0  501    0  0.00000000000E+00  0.00000000000E+00  0.16835313335E+04  0.16835313335E+04  0.00000000000E+00 0. -1.
         -2   -1    0    0    0  501 -0.00000000000E+00 -0.00000000000E+00 -0.60073647694E+00  0.60073647694E+00  0.00000000000E+00 0. -1.
          2    1    1    2  502    0  0.43062727376E+01  0.26467191436E+02  0.12941645672E+04  0.12944423445E+04  0.00000000000E+00 0. -1.
         -2    1    1    2    0  502 -0.43062727376E+01 -0.26467191436E+02  0.38876602987E+03  0.38968972553E+03  0.00000000000E+00 0. -1.
<mgrwt>
<rscale>  2 0.26815223E+02</rscale>
<asrwt>0</asrwt>
<pdfrwt beam="1">  1        2 0.25900104E+00 0.26815223E+02</pdfrwt>
<pdfrwt beam="2">  1       -2 0.92422344E-04 0.26815223E+02</pdfrwt>
<totfact> 0.47603754E+05</totfact>
</mgrwt>
</event>
<event>
 4    1  0.1931321E+004  0.2383549E+02  0.7546771E-02  0.1678314E+00
          2   -1    0    0  501    0  0.00000000000E+00  0.00000000000E+00  0.14006093254E+04  0.14006093254E+04  0.00000000000E+00 0. -1.
         -2   -1    0    0    0  501 -0.00000000000E+00 -0.00000000000E+00 -0.29591344920E+03  0.29591344920E+03  0.00000000000E+00 0.  1.
          2    1    1    2  502    0 -0.19999966062E+02 -0.12966564280E+02  0.14000277381E+04  0.14002306231E+04  0.00000000000E+00 0. -1.
         -2    1    1    2    0  502  0.19999966062E+02  0.12966564280E+02 -0.29533186186E+03  0.29629215154E+03  0.00000000000E+00 0.  1.
<mgrwt>
<rscale>  2 0.23835487E+02</rscale>
<asrwt>0</asrwt>
<pdfrwt beam="1">  1        2 0.21547835E+00 0.23835487E+02</pdfrwt>
<pdfrwt beam="2">  1       -2 0.45525147E-01 0.23835487E+02</pdfrwt>
<totfact> 0.85807012E+01</totfact>
</mgrwt>
</event>
<event>
 4    1  0.1474645E+004  0.3028309E+02  0.7546771E-02  0.1594980E+00
          2   -1    0    0  501    0  0.00000000000E+00  0.00000000000E+00  0.61742593416E+03  0.61742593416E+03  0.00000000000E+00 0. -1.
         -2   -1    0    0    0  501 -0.00000000000E+00 -0.00000000000E+00 -0.21030147882E+01  0.21030147882E+01  0.00000000000E+00 0. -1.
          2    1    1    2  502    0  0.20506396069E+02 -0.22283470842E+02  0.47554300475E+03  0.47650625884E+03  0.00000000000E+00 0. -1.
         -2    1    1    2    0  502 -0.20506396069E+02  0.22283470842E+02  0.13977991462E+03  0.14302269010E+03  0.00000000000E+00 0. -1.
<mgrwt>
<rscale>  2 0.30283087E+02</rscale>
<asrwt>0</asrwt>
<pdfrwt beam="1">  1        2 0.94988461E-01 0.30283087E+02</pdfrwt>
<pdfrwt beam="2">  1       -2 0.32354123E-03 0.30283087E+02</pdfrwt>
<totfact> 0.35060546E+05</totfact>
</mgrwt>
</event>
<event>
 4    1  0.1474645E+004  0.2250501E+02  0.7546771E-02  0.1699662E+00
          2   -1    0    0  501    0  0.00000000000E+00  0.00000000000E+00  0.10381590024E+04  0.10381590024E+04  0.00000000000E+00 0. -1.
         -2   -1    0    0    0  501 -0.00000000000E+00 -0.00000000000E+00 -0.48791618861E+00  0.48791618861E+00  0.00000000000E+00 0. -1.
          2    1    1    2  502    0  0.18367495938E+02 -0.13004240842E+02  0.51321194125E+03  0.51370514094E+03  0.00000000000E+00 0. -1.
         -2    1    1    2    0  502 -0.18367495938E+02  0.13004240842E+02  0.52445914492E+03  0.52494177760E+03  0.00000000000E+00 0. -1.
<mgrwt>
<rscale>  2 0.22505015E+02</rscale>
<asrwt>0</asrwt>
<pdfrwt beam="1">  1        2 0.15971500E+00 0.22505015E+02</pdfrwt>
<pdfrwt beam="2">  1       -2 0.75064860E-04 0.22505015E+02</pdfrwt>
<totfact> 0.12355062E+06</totfact>
</mgrwt>
</event>
<event>
 4    1  0.1474645E+004  0.2941353E+02  0.7546771E-02  0.1604663E+00
          2   -1    0    0  501    0  0.00000000000E+00  0.00000000000E+00  0.39059918824E+02  0.39059918824E+02  0.00000000000E+00 0. -1.
         -2   -1    0    0    0  501 -0.00000000000E+00 -0.00000000000E+00 -0.25209781378E+03  0.25209781378E+03  0.00000000000E+00 0. -1.
          2    1    1    2  502    0 -0.55994055542E+01 -0.28875636169E+02  0.32517593738E+02  0.43846888250E+02  0.00000000000E+00 0. -1.
         -2    1    1    2    0  502  0.55994055542E+01  0.28875636169E+02 -0.24555548869E+03  0.24731084435E+03  0.00000000000E+00 0. -1.
<mgrwt>
<rscale>  2 0.29413529E+02</rscale>
<asrwt>0</asrwt>
<pdfrwt beam="1">  1        2 0.60092183E-02 0.29413529E+02</pdfrwt>
<pdfrwt beam="2">  1       -2 0.38784279E-01 0.29413529E+02</pdfrwt>
<totfact> 0.62123448E+03</totfact>
</mgrwt>
</event>
<event>
 4    1  0.1474645E+004  0.3550009E+02  0.7546771E-02  0.1544204E+00
         -2   -1    0    0    0  501 -0.00000000000E+00  0.00000000000E+00  0.30504133296E+01  0.30504133296E+01  0.00000000000E+00 0. -1.
          2   -1    0    0  501    0  0.00000000000E+00 -0.00000000000E+00 -0.11863670312E+04  0.11863670312E+04  0.00000000000E+00 0. -1.
          2    1    1    2  502    0 -0.23650360714E+02 -0.26474832249E+02 -0.10717757704E+04  0.10723635383E+04  0.00000000000E+00 0. -1.
         -2    1    1    2    0  502  0.23650360714E+02  0.26474832249E+02 -0.11154084750E+03  0.11705390624E+03  0.00000000000E+00 0. -1.
<mgrwt>
<rscale>  2 0.35500089E+02</rscale>
<asrwt>0</asrwt>
<pdfrwt beam="2">  1        2 0.18251796E+00 0.35500089E+02</pdfrwt>
<pdfrwt beam="1">  1       -2 0.46929447E-03 0.35500089E+02</pdfrwt>
<totfact> 0.99738199E+04</totfact>
</mgrwt>
</event>
<event>
 4    1  0.1474645E+004  0.2437397E+02  0.7546771E-02  0.1670160E+00
         -2   -1    0    0    0  501 -0.00000000000E+00  0.00000000000E+00  0.17137391442E+02  0.17137391442E+02  0.00000000000E+00 0. -1.
          2   -1    0    0  501    0  0.00000000000E+00 -0.00000000000E+00 -0.95144582582E+02  0.95144582582E+02  0.00000000000E+00 0. -1.
          2    1    1    2  502    0  0.24204635442E+02 -0.28681150304E+01 -0.83763343253E+02  0.87237538558E+02  0.00000000000E+00 0. -1.
         -2    1    1    2    0  502 -0.24204635442E+02  0.28681150304E+01  0.57561521129E+01  0.25044435467E+02  0.00000000000E+00 0. -1.
<mgrwt>
<rscale>  2 0.24373971E+02</rscale>
<asrwt>0</asrwt>
<pdfrwt beam="2">  1        2 0.14637628E-01 0.24373971E+02</pdfrwt>
<pdfrwt beam="1">  1       -2 0.26365218E-02 0.24373971E+02</pdfrwt>
<totfact> 0.13074596E+05</totfact>
</mgrwt>
</event>
<event>
 4    1  0.1474645E+004  0.2433548E+02  0.7546771E-02  0.1670734E+00
          2   -1    0    0  501    0  0.00000000000E+00  0.00000000000E+00  0.57282073623E+03  0.57282073623E+03  0.00000000000E+00 0.  1.
         -2   -1    0    0    0  501 -0.00000000000E+00 -0.00000000000E+00 -0.70758402582E+01  0.70758402582E+01  0.00000000000E+00 0. -1.
          2    1    1    2  502    0  0.22841730119E+02 -0.83947060546E+01  0.55080238098E+03  0.55133971253E+03  0.00000000000E+00 0.  1.
         -2    1    1    2    0  502 -0.22841730119E+02  0.83947060546E+01  0.14942514991E+02  0.28556863953E+02  0.00000000000E+00 0. -1.
<mgrwt>
<rscale>  2 0.24335483E+02</rscale>
<asrwt>0</asrwt>
<pdfrwt beam="1">  1        2 0.88126231E-01 0.24335483E+02</pdfrwt>
<pdfrwt beam="2">  1       -2 0.10885913E-02 0.24335483E+02</pdfrwt>
<totfact> 0.70044455E+04</totfact>
</mgrwt>
</event>
<event>
 4    1  0.1474645E+004  0.3919548E+02  0.7546771E-02  0.1514217E+00
         -2   -1    0    0    0  501 -0.00000000000E+00  0.00000000000E+00  0.20495825920E+02  0.20495825920E+02  0.00000000000E+00 0.  1.
          2   -1    0    0  501    0  0.00000000000E+00 -0.00000000000E+00 -0.13108336636E+03  0.13108336636E+03  0.00000000000E+00 0.  1.
          2    1    1    2  502    0 -0.70816810308E+01  0.38550425336E+02 -0.10488707639E+03  0.11197135479E+03  0.00000000000E+00 0.  1.
         -2    1    1    2    0  502  0.70816810308E+01 -0.38550425336E+02 -0.57004640421E+01  0.39607837483E+02  0.00000000000E+00 0.  1.
<mgrwt>
<rscale>  2 0.39195478E+02</rscale>
<asrwt>0</asrwt>
<pdfrwt beam="2">  1        2 0.20166672E-01 0.39195478E+02</pdfrwt>
<pdfrwt beam="1">  1       -2 0.31532039E-02 0.39195478E+02</pdfrwt>
<totfact> 0.79599977E+04</totfact>
</mgrwt>
</event>
<event>
 4    1  0.1474645E+004  0.2519704E+02  0.7546771E-02  0.1658188E+00
         -2   -1    0    0    0  501 -0.00000000000E+00  0.00000000000E+00  0.88306126192E+01  0.88306126192E+01  0.00000000000E+00 0.  1.
          2   -1    0    0  501    0  0.00000000000E+00 -0.00000000000E+00 -0.24649765575E+03  0.24649765575E+03  0.00000000000E+00 0.  1.
          2    1    1    2  502    0 -0.17656743496E+02 -0.17975824705E+02 -0.22627846029E+03  0.22767703541E+03  0.00000000000E+00 0.  1.
         -2    1    1    2    0  502  0.17656743496E+02  0.17975824705E+02 -0.11388582840E+02  0.27651232952E+02  0.00000000000E+00 0.  1.
<mgrwt>
<rscale>  2 0.25197041E+02</rscale>
<asrwt>0</asrwt>
<pdfrwt beam="2">  1        2 0.37922716E-01 0.25197041E+02</pdfrwt>
<pdfrwt beam="1">  1       -2 0.13585558E-02 0.25197041E+02</pdfrwt>
<totfact> 0.12123616E+05</totfact>
</mgrwt>
</event>
<event>
 4    1  0.1474645E+004  0.7589883E+02  0.7546771E-02  0.1341110E+00
          2   -1    0    0  501    0  0.00000000000E+00  0.00000000000E+00  0.19328814045E+04  0.19328814045E+04  0.00000000000E+00 0.  1.
         -2   -1    0    0    0  501 -0.00000000000E+00 -0.00000000000E+00 -0.33939488765E+01  0.33939488765E+01  0.00000000000E+00 0.  1.
          2    1    1    2  502    0 -0.45366751483E+02 -0.60848042645E+02  0.62676909384E+03  0.63134786245E+03  0.00000000000E+00 0.  1.
         -2    1    1    2    0  502  0.45366751483E+02  0.60848042645E+02  0.13027183618E+04  0.13049274909E+04  0.00000000000E+00 0.  1.
<mgrwt>
<rscale>  2 0.75898829E+02</rscale>
<asrwt>0</asrwt>
<pdfrwt beam="1">  1        2 0.29736549E+00 0.75898829E+02</pdfrwt>
<pdfrwt beam="2">  1       -2 0.52214753E-03 0.75898829E+02</pdfrwt>
<totfact> 0.40320784E+04</totfact>
</mgrwt>
</event>
<event>
 4    1  0.1474645E+004  0.2119282E+02  0.7546771E-02  0.1722597E+00
          2   -1    0    0  501    0  0.00000000000E+00  0.00000000000E+00  0.38645486721E+03  0.38645486721E+03  0.00000000000E+00 0. -1.
         -2   -1    0    0    0  501 -0.00000000000E+00 -0.00000000000E+00 -0.19256121372E+01  0.19256121372E+01  0.00000000000E+00 0.  1.
          2    1    1    2  502    0  0.13728267120E+02 -0.16145292028E+02  0.31453579165E+03  0.31524894925E+03  0.00000000000E+00 0. -1.
         -2    1    1    2    0  502 -0.13728267120E+02  0.16145292028E+02  0.69993463419E+02  0.73131530096E+02  0.00000000000E+00 0.  1.
<mgrwt>
<rscale>  2 0.21192824E+02</rscale>
<asrwt>0</asrwt>
<pdfrwt beam="1">  1        2 0.59454533E-01 0.21192824E+02</pdfrwt>
<pdfrwt beam="2">  1       -2 0.29624833E-03 0.21192824E+02</pdfrwt>
<totfact> 0.57484108E+05</totfact>
</mgrwt>
</event>
<event>
 4    1  0.1474645E+004  0.4834669E+02  0.7546771E-02  0.1454469E+00
          2   -1    0    0  501    0  0.00000000000E+00  0.00000000000E+00  0.24532963657E+04  0.24532963657E+04  0.00000000000E+00 0.  1.
         -2   -1    0    0    0  501 -0.00000000000E+00 -0.00000000000E+00 -0.10460816226E+01  0.10460816226E+01  0.00000000000E+00 0.  1.
          2    1    1    2  502    0  0.20840135436E+02  0.43624437158E+02  0.15926584161E+04  0.15933920526E+04  0.00000000000E+00 0.  1.
         -2    1    1    2    0  502 -0.20840135436E+02 -0.43624437158E+02  0.85959186796E+03  0.86095039475E+03  0.00000000000E+00 0.  1.
<mgrwt>
<rscale>  2 0.48346693E+02</rscale>
<asrwt>0</asrwt>
<pdfrwt beam="1">  1        2 0.37742560E+00 0.48346693E+02</pdfrwt>
<pdfrwt beam="2">  1       -2 0.16093760E-03 0.48346693E+02</pdfrwt>
<totfact> 0.10675195E+05</totfact>
</mgrwt>
</event>
<event>
 4    1  0.1474645E+004  0.3755298E+02  0.7546771E-02  0.1527032E+00
         -2   -1    0    0    0  501 -0.00000000000E+00  0.00000000000E+00  0.21825083107E+02  0.21825083107E+02  0.00000000000E+00 0. -1.
          2   -1    0    0  501    0  0.00000000000E+00 -0.00000000000E+00 -0.17515475604E+04  0.17515475604E+04  0.00000000000E+00 0. -1.
          2    1    1    2  502    0  0.30870815453E+02 -0.21382677486E+02 -0.17350388630E+04  0.17354452115E+04  0.00000000000E+00 0. -1.
         -2    1    1    2    0  502 -0.30870815453E+02  0.21382677486E+02  0.53163856529E+01  0.37927432020E+02  0.00000000000E+00 0. -1.
<mgrwt>
<rscale>  2 0.37552978E+02</rscale>
<asrwt>0</asrwt>
<pdfrwt beam="2">  1        2 0.26946890E+00 0.37552978E+02</pdfrwt>
<pdfrwt beam="1">  1       -2 0.33577045E-02 0.37552978E+02</pdfrwt>
<totfact> 0.34731527E+03</totfact>
</mgrwt>
</event>
<event>
 4    1  0.1474645E+004  0.3653965E+02  0.7546771E-02  0.1535338E+00
          2   -1    0    0  501    0  0.00000000000E+00  0.00000000000E+00  0.54189685281E+03  0.54189685281E+03  0.00000000000E+00 0. -1.
         -2   -1    0    0    0  501 -0.00000000000E+00 -0.00000000000E+00 -0.44181351799E+01  0.44181351799E+01  0.00000000000E+00 0. -1.
          2    1    1    2  502    0  0.50203620150E+00  0.36536204212E+02  0.45041172867E+03  0.45189143783E+03  0.00000000000E+00 0. -1.
         -2    1    1    2    0  502 -0.50203620150E+00 -0.36536204212E+02  0.87066988953E+02  0.94423550156E+02  0.00000000000E+00 0. -1.
<mgrwt>
<rscale>  2 0.36539653E+02</rscale>
<asrwt>0</asrwt>
<pdfrwt beam="1">  1        2 0.83368694E-01 0.36539653E+02</pdfrwt>
<pdfrwt beam="2">  1       -2 0.67971353E-03 0.36539653E+02</pdfrwt>
<totfact> 0.15339958E+05</totfact>
</mgrwt>
</event>
<event>
 4    1  0.1474645E+004  0.2040378E+02  0.7546771E-02  0.1737416E+00
         -2   -1    0    0    0  501 -0.00000000000E+00  0.00000000000E+00  0.53481281958E+01  0.53481281958E+01  0.00000000000E+00 0. -1.
          2   -1    0    0  501    0  0.00000000000E+00 -0.00000000000E+00 -0.11463502459E+03  0.11463502459E+03  0.00000000000E+00 0. -1.
          2    1    1    2  502    0 -0.10577576887E+02 -0.17447897568E+02 -0.88630112535E+02  0.90948398064E+02  0.00000000000E+00 0. -1.
         -2    1    1    2    0  502  0.10577576887E+02  0.17447897568E+02 -0.20656783858E+02  0.29034754721E+02  0.00000000000E+00 0. -1.
<mgrwt>
<rscale>  2 0.20403781E+02</rscale>
<asrwt>0</asrwt>
<pdfrwt beam="2">  1        2 0.17636155E-01 0.20403781E+02</pdfrwt>
<pdfrwt beam="1">  1       -2 0.82278906E-03 0.20403781E+02</pdfrwt>
<totfact> 0.49558478E+05</totfact>
</mgrwt>
</event>
<event>
 4    1  0.1474645E+004  0.3510710E+02  0.7546771E-02  0.1547652E+00
          2   -1    0    0  501    0  0.00000000000E+00  0.00000000000E+00  0.12346184643E+04  0.12346184643E+04  0.00000000000E+00 0.  1.
         -2   -1    0    0    0  501 -0.00000000000E+00 -0.00000000000E+00 -0.80728062589E+01  0.80728062589E+01  0.00000000000E+00 0. -1.
          2    1    1    2  502    0  0.23117158682E+02  0.26421681535E+02  0.11949330130E+04  0.11954486245E+04  0.00000000000E+00 0.  1.
         -2    1    1    2    0  502 -0.23117158682E+02 -0.26421681535E+02  0.31612645081E+02  0.47242646091E+02  0.00000000000E+00 0. -1.
<mgrwt>
<rscale>  2 0.35107097E+02</rscale>
<asrwt>0</asrwt>
<pdfrwt beam="1">  1        2 0.18994115E+00 0.35107097E+02</pdfrwt>
<pdfrwt beam="2">  1       -2 0.12419712E-02 0.35107097E+02</pdfrwt>
<totfact> 0.24819037E+04</totfact>
</mgrwt>
</event>
<event>
 4    1  0.1474645E+004  0.2319193E+02  0.7546771E-02  0.1688418E+00
          2   -1    0    0  501    0  0.00000000000E+00  0.00000000000E+00  0.17056864667E+02  0.17056864667E+02  0.00000000000E+00 0.  1.
         -2   -1    0    0    0  501 -0.00000000000E+00 -0.00000000000E+00 -0.59789466634E+02  0.59789466634E+02  0.00000000000E+00 0. -1.
          2    1    1    2  502    0  0.12788688885E+02  0.19347223148E+02  0.50477220479E+01  0.23734892138E+02  0.00000000000E+00 0.  1.
         -2    1    1    2    0  502 -0.12788688885E+02 -0.19347223148E+02 -0.47780324015E+02  0.53111439162E+02  0.00000000000E+00 0. -1.
<mgrwt>
<rscale>  2 0.23191930E+02</rscale>
<asrwt>0</asrwt>
<pdfrwt beam="1">  1        2 0.26241330E-02 0.23191930E+02</pdfrwt>
<pdfrwt beam="2">  1       -2 0.91983795E-02 0.23191930E+02</pdfrwt>
<totfact> 0.17066352E+05</totfact>
</mgrwt>
</event>
<event>
 4    1  0.1474645E+004  0.3409579E+02  0.7546771E-02  0.1556780E+00
         -2   -1    0    0    0  501 -0.00000000000E+00  0.00000000000E+00  0.21536045961E+03  0.21536045961E+03  0.00000000000E+00 0. -1.
          2   -1    0    0  501    0  0.00000000000E+00 -0.00000000000E+00 -0.12858845239E+04  0.12858845239E+04  0.00000000000E+00 0. -1.
          2    1    1    2  502    0 -0.32739292548E+02 -0.95216241284E+01 -0.12843073429E+04  0.12847598506E+04  0.00000000000E+00 0. -1.
         -2    1    1    2    0  502  0.32739292548E+02  0.95216241284E+01  0.21378327857E+03  0.21648513297E+03  0.00000000000E+00 0. -1.
<mgrwt>
<rscale>  2 0.34095786E+02</rscale>
<asrwt>0</asrwt>
<pdfrwt beam="2">  1        2 0.19782839E+00 0.34095786E+02</pdfrwt>
<pdfrwt beam="1">  1       -2 0.33132378E-01 0.34095786E+02</pdfrwt>
<totfact> 0.17057915E+02</totfact>
</mgrwt>
</event>
<event>
 4    1  0.1474645E+004  0.2047087E+02  0.7546771E-02  0.1736123E+00
          2   -1    0    0  501    0  0.00000000000E+00  0.00000000000E+00  0.50258635486E+03  0.50258635486E+03  0.00000000000E+00 0.  1.
         -2   -1    0    0    0  501 -0.00000000000E+00 -0.00000000000E+00 -0.23456239610E+02  0.23456239610E+02  0.00000000000E+00 0. -1.
          2    1    1    2  502    0  0.14754239778E+02 -0.14190453296E+02  0.49786924016E+03  0.49828991245E+03  0.00000000000E+00 0.  1.
         -2    1    1    2    0  502 -0.14754239778E+02  0.14190453296E+02 -0.18739124915E+02  0.27752682010E+02  0.00000000000E+00 0. -1.
<mgrwt>
<rscale>  2 0.20470871E+02</rscale>
<asrwt>0</asrwt>
<pdfrwt beam="1">  1        2 0.77320969E-01 0.20470871E+02</pdfrwt>
<pdfrwt beam="2">  1       -2 0.36086526E-02 0.20470871E+02</pdfrwt>
<totfact> 0.14979724E+04</totfact>
</mgrwt>
</event>
<event>
 4    1  0.1474645E+004  0.4008156E+02  0.7546771E-02  0.1507612E+00
          2   -1    0    0  501    0  0.00000000000E+00  0.00000000000E+00  0.85180940109E+03  0.85180940109E+03  0.00000000000E+00 0. -1.
         -2   -1    0    0    0  501 -0.00000000000E+00 -0.00000000000E+00 -0.16949845477E+02  0.16949845477E+02  0.00000000000E+00 0.  1.
          2    1    1    2  502    0  0.13624959569E+02  0.37694716555E+02  0.82693003903E+03  0.82790085193E+03  0.00000000000E+00 0. -1.
         -2    1    1    2    0  502 -0.13624959569E+02 -0.37694716555E+02  0.79295165897E+01  0.40858394643E+02  0.00000000000E+00 0.  1.
<mgrwt>
<rscale>  2 0.40081557E+02</rscale>
<asrwt>0</asrwt>
<pdfrwt beam="1">  1        2 0.13104757E+00 0.40081557E+02</pdfrwt>
<pdfrwt beam="2">  1       -2 0.26076692E-02 0.40081557E+02</pdfrwt>
<totfact> 0.14582681E+04</totfact>
</mgrwt>
</event>
<event>
 4    1  0.1474645E+004  0.2041215E+02  0.7546771E-02  0.1737254E+00
         -2   -1    0    0    0  501 -0.00000000000E+00  0.00000000000E+00  0.29739045161E+02  0.29739045161E+02  0.00000000000E+00 0.  1.
          2   -1    0    0  501    0  0.00000000000E+00 -0.00000000000E+00 -0.11715319766E+03  0.11715319766E+03  0.00000000000E+00 0. -1.
          2    1    1    2  502    0 -0.10523431513E+02 -0.17490377616E+02 -0.11262167727E+03  0.11445653372E+03  0.00000000000E+00 0. -1.
         -2    1    1    2    0  502  0.10523431513E+02  0.17490377616E+02  0.25207524770E+02  0.32435709103E+02  0.00000000000E+00 0.  1.
<mgrwt>
<rscale>  2 0.20412151E+02</rscale>
<asrwt>0</asrwt>
<pdfrwt beam="2">  1        2 0.18023569E-01 0.20412151E+02</pdfrwt>
<pdfrwt beam="1">  1       -2 0.45752377E-02 0.20412151E+02</pdfrwt>
<totfact> 0.46339258E+04</totfact>
</mgrwt>
</event>
<event>
 4    1  0.1474645E+004  0.2055113E+02  0.7546771E-02  0.1734585E+00
         -2   -1    0    0    0  501 -0.00000000000E+00  0.00000000000E+00  0.27722567819E+01  0.27722567819E+01  0.00000000000E+00 0.  1.
          2   -1    0    0  501    0  0.00000000000E+00 -0.00000000000E+00 -0.32546880512E+03  0.32546880512E+03  0.00000000000E+00 0.  1.
          2    1    1    2  502    0 -0.16243344082E+02  0.12589778564E+02 -0.28104504080E+03  0.28179542883E+03  0.00000000000E+00 0.  1.
         -2    1    1    2    0  502  0.16243344082E+02 -0.12589778564E+02 -0.41651507540E+02  0.46445633074E+02  0.00000000000E+00 0.  1.
<mgrwt>
<rscale>  2 0.20551125E+02</rscale>
<asrwt>0</asrwt>
<pdfrwt beam="2">  1        2 0.50072138E-01 0.20551125E+02</pdfrwt>
<pdfrwt beam="1">  1       -2 0.42650093E-03 0.20551125E+02</pdfrwt>
<totfact> 0.41521710E+05</totfact>
</mgrwt>
</event>
<event>
 4    1  0.1474645E+004  0.2386261E+02  0.7546771E-02  0.1677897E+00
          2   -1    0    0  501    0  0.00000000000E+00  0.00000000000E+00  0.23531333345E+03  0.23531333345E+03  0.00000000000E+00 0. -1.
         -2   -1    0    0    0  501 -0.00000000000E+00 -0.00000000000E+00 -0.12693178805E+03  0.12693178805E+03  0.00000000000E+00 0. -1.
          2    1    1    2  502    0 -0.23604837404E+02 -0.34979967714E+01  0.23357854521E+03  0.23479429532E+03  0.00000000000E+00 0. -1.
         -2    1    1    2    0  502  0.23604837404E+02  0.34979967714E+01 -0.12519699982E+03  0.12745082618E+03  0.00000000000E+00 0. -1.
<mgrwt>
<rscale>  2 0.23862614E+02</rscale>
<asrwt>0</asrwt>
<pdfrwt beam="1">  1        2 0.36202051E-01 0.23862614E+02</pdfrwt>
<pdfrwt beam="2">  1       -2 0.19527968E-01 0.23862614E+02</pdfrwt>
<totfact> 0.26709130E+03</totfact>
</mgrwt>
</event>
<event>
 4    1  0.1474645E+004  0.2025462E+02  0.7546771E-02  0.1740312E+00
         -2   -1    0    0    0  501 -0.00000000000E+00  0.00000000000E+00  0.69349121937E+00  0.69349121937E+00  0.00000000000E+00 0.  1.
          2   -1    0    0  501    0  0.00000000000E+00 -0.00000000000E+00 -0.10721937081E+04  0.10721937081E+04  0.00000000000E+00 0.  1.
          2    1    1    2  502    0 -0.60323436208E+01  0.19335472079E+02 -0.89491125729E+03  0.89514044042E+03  0.00000000000E+00 0.  1.
         -2    1    1    2    0  502  0.60323436208E+01 -0.19335472079E+02 -0.17658895958E+03  0.17774675888E+03  0.00000000000E+00 0.  1.
<mgrwt>
<rscale>  2 0.20254620E+02</rscale>
<asrwt>0</asrwt>
<pdfrwt beam="2">  1        2 0.16495239E+00 0.20254620E+02</pdfrwt>
<pdfrwt beam="1">  1       -2 0.10669127E-03 0.20254620E+02</pdfrwt>
<totfact> 0.72394115E+05</totfact>
</mgrwt>
</event>
<event>
 4    1  0.1474645E+004  0.2319612E+02  0.7546771E-02  0.1688351E+00
         -2   -1    0    0    0  501 -0.00000000000E+00  0.00000000000E+00  0.83019205286E+00  0.83019205286E+00  0.00000000000E+00 0.  1.
          2   -1    0    0  501    0  0.00000000000E+00 -0.00000000000E+00 -0.15851073862E+04  0.15851073862E+04  0.00000000000E+00 0.  1.
          2    1    1    2  502    0 -0.22754539132E+02  0.45045450450E+01 -0.14018085123E+04  0.14020004156E+04  0.00000000000E+00 0.  1.
         -2    1    1    2    0  502  0.22754539132E+02 -0.45045450450E+01 -0.18246868185E+03  0.18393716273E+03  0.00000000000E+00 0.  1.
<mgrwt>
<rscale>  2 0.23196120E+02</rscale>
<asrwt>0</asrwt>
<pdfrwt beam="2">  1        2 0.24386259E+00 0.23196120E+02</pdfrwt>
<pdfrwt beam="1">  1       -2 0.12772190E-03 0.23196120E+02</pdfrwt>
<totfact> 0.33361430E+05</totfact>
</mgrwt>
</event>
<event>
 4    1  0.1474645E+004  0.2850608E+02  0.7546771E-02  0.1615214E+00
         -2   -1    0    0    0  501 -0.00000000000E+00  0.00000000000E+00  0.29861948621E+01  0.29861948621E+01  0.00000000000E+00 0. -1.
          2   -1    0    0  501    0  0.00000000000E+00 -0.00000000000E+00 -0.56749393491E+03  0.56749393491E+03  0.00000000000E+00 0. -1.
          2    1    1    2  502    0 -0.21754059389E+02 -0.18421653410E+02 -0.48804076065E+03  0.48887256056E+03  0.00000000000E+00 0. -1.
         -2    1    1    2    0  502  0.21754059389E+02  0.18421653410E+02 -0.76466979401E+02  0.81607569214E+02  0.00000000000E+00 0. -1.
<mgrwt>
<rscale>  2 0.28506077E+02</rscale>
<asrwt>0</asrwt>
<pdfrwt beam="2">  1        2 0.87306813E-01 0.28506077E+02</pdfrwt>
<pdfrwt beam="1">  1       -2 0.45941431E-03 0.28506077E+02</pdfrwt>
<totfact> 0.23538585E+05</totfact>
</mgrwt>
</event>
<event>
 4    1  0.1474645E+004  0.2921977E+02  0.7546771E-02  0.1606877E+00
          2   -1    0    0  501    0  0.00000000000E+00  0.00000000000E+00  0.25425511261E+04  0.25425511261E+04  0.00000000000E+00 0.  1.
         -2   -1    0    0    0  501 -0.00000000000E+00 -0.00000000000E+00 -0.35762729598E+00  0.35762729598E+00  0.00000000000E+00 0.  1.
          2    1    1    2  502    0 -0.13352743905E+02 -0.25990350002E+02  0.95699937184E+03  0.95744534662E+03  0.00000000000E+00 0.  1.
         -2    1    1    2    0  502  0.13352743905E+02  0.25990350002E+02  0.15851941269E+04  0.15854634067E+04  0.00000000000E+00 0.  1.
<mgrwt>
<rscale>  2 0.29219769E+02</rscale>
<asrwt>0</asrwt>
<pdfrwt beam="1">  1        2 0.39114724E+00 0.29219769E+02</pdfrwt>
<pdfrwt beam="2">  1       -2 0.55021620E-04 0.29219769E+02</pdfrwt>
<totfact> 0.37423474E+05</totfact>
</mgrwt>
</event>
<event>
 4    1  0.1474645E+004  0.3426553E+02  0.7546771E-02  0.1555221E+00
          2   -1    0    0  501    0  0.00000000000E+00  0.00000000000E+00  0.20385197788E+04  0.20385197788E+04  0.00000000000E+00 0.  1.
         -2   -1    0    0    0  501 -0.00000000000E+00 -0.00000000000E+00 -0.31174608495E+02  0.31174608495E+02  0.00000000000E+00 0. -1.
          2    1    1    2  502    0  0.34006089574E+02 -0.42086083856E+01  0.20289154903E+04  0.20292048180E+04  0.00000000000E+00 0.  1.
         -2    1    1    2    0  502 -0.34006089574E+02  0.42086083856E+01 -0.21570320046E+02  0.40489569269E+02  0.00000000000E+00 0. -1.
<mgrwt>
<rscale>  2 0.34265530E+02</rscale>
<asrwt>0</asrwt>
<pdfrwt beam="1">  1        2 0.31361832E+00 0.34265530E+02</pdfrwt>
<pdfrwt beam="2">  1       -2 0.47960952E-02 0.34265530E+02</pdfrwt>
<totfact> 0.15192266E+03</totfact>
</mgrwt>
</event>
<event>
 4    1  0.1474645E+004  0.2758558E+02  0.7546771E-02  0.1626420E+00
          2   -1    0    0  501    0  0.00000000000E+00  0.00000000000E+00  0.15714277662E+04  0.15714277662E+04  0.00000000000E+00 0.  1.
         -2   -1    0    0    0  501 -0.00000000000E+00 -0.00000000000E+00 -0.12179473614E+01  0.12179473614E+01  0.00000000000E+00 0.  1.
          2    1    1    2  502    0  0.10707124604E+02 -0.25422861386E+02  0.13954072344E+04  0.13956798753E+04  0.00000000000E+00 0.  1.
         -2    1    1    2    0  502 -0.10707124604E+02  0.25422861386E+02  0.17480258446E+03  0.17696583832E+03  0.00000000000E+00 0.  1.
<mgrwt>
<rscale>  2 0.27585583E+02</rscale>
<asrwt>0</asrwt>
<pdfrwt beam="1">  1        2 0.24175650E+00 0.27585583E+02</pdfrwt>
<pdfrwt beam="2">  1       -2 0.18737777E-03 0.27585583E+02</pdfrwt>
<totfact> 0.21166550E+05</totfact>
</mgrwt>
</event>
<event>
 4    1  0.1474645E+004  0.5645611E+02  0.7546771E-02  0.1413336E+00
         -2   -1    0    0    0  501 -0.00000000000E+00  0.00000000000E+00  0.25623627064E+02  0.25623627064E+02  0.00000000000E+00 0.  1.
          2   -1    0    0  501    0  0.00000000000E+00 -0.00000000000E+00 -0.11312708575E+04  0.11312708575E+04  0.00000000000E+00 0. -1.
          2    1    1    2  502    0 -0.27153771124E+02 -0.49497118235E+02 -0.10985434739E+04  0.10999932073E+04  0.00000000000E+00 0. -1.
         -2    1    1    2    0  502  0.27153771124E+02  0.49497118235E+02 -0.71037565309E+01  0.56901277285E+02  0.00000000000E+00 0.  1.
<mgrwt>
<rscale>  2 0.56456107E+02</rscale>
<asrwt>0</asrwt>
<pdfrwt beam="2">  1        2 0.17404166E+00 0.56456107E+02</pdfrwt>
<pdfrwt beam="1">  1       -2 0.39420968E-02 0.56456107E+02</pdfrwt>
<totfact> 0.57550460E+03</totfact>
</mgrwt>
</event>
<event>
 4    1  0.1474645E+004  0.2796327E+02  0.7546771E-02  0.1621758E+00
          2   -1    0    0  501    0  0.00000000000E+00  0.00000000000E+00  0.14554503306E+04  0.14554503306E+04  0.00000000000E+00 0. -1.
         -2   -1    0    0    0  501 -0.00000000000E+00 -0.00000000000E+00 -0.58575111796E+01  0.58575111796E+01  0.00000000000E+00 0. -1.
          2    1    1    2  502    0  0.63960663811E+01 -0.27221957609E+02  0.14211366961E+04  0.14214117819E+04  0.00000000000E+00 0. -1.
         -2    1    1    2    0  502 -0.63960663811E+01  0.27221957609E+02  0.28456123297E+02  0.39896059885E+02  0.00000000000E+00 0. -1.
<mgrwt>
<rscale>  2 0.27963273E+02</rscale>
<asrwt>0</asrwt>
<pdfrwt beam="1">  1        2 0.22391515E+00 0.27963273E+02</pdfrwt>
<pdfrwt beam="2">  1       -2 0.90115673E-03 0.27963273E+02</pdfrwt>
<totfact> 0.29089727E+04</totfact>
</mgrwt>
</event>
<event>
 4    1  0.1474645E+004  0.2133372E+02  0.7546771E-02  0.1720036E+00
         -2   -1    0    0    0  501 -0.00000000000E+00  0.00000000000E+00  0.42652826106E+01  0.42652826106E+01  0.00000000000E+00 0.  1.
          2   -1    0    0  501    0  0.00000000000E+00 -0.00000000000E+00 -0.22663254922E+03  0.22663254922E+03  0.00000000000E+00 0.  1.
          2    1    1    2  502    0 -0.21101565490E+02 -0.31387025287E+01 -0.19516597267E+03  0.19632851145E+03  0.00000000000E+00 0.  1.
         -2    1    1    2    0  502  0.21101565490E+02  0.31387025287E+01 -0.27201293943E+02  0.34569320385E+02  0.00000000000E+00 0.  1.
<mgrwt>
<rscale>  2 0.21333718E+02</rscale>
<asrwt>0</asrwt>
<pdfrwt beam="2">  1        2 0.34866545E-01 0.21333718E+02</pdfrwt>
<pdfrwt beam="1">  1       -2 0.65619734E-03 0.21333718E+02</pdfrwt>
<totfact> 0.33730282E+05</totfact>
</mgrwt>
</event>
<event>
 4    1  0.1474645E+004  0.2273114E+02  0.7546771E-02  0.1695906E+00
         -2   -1    0    0    0  501 -0.00000000000E+00  0.00000000000E+00  0.29390888892E+02  0.29390888892E+02  0.00000000000E+00 0. -1.
          2   -1    0    0  501    0  0.00000000000E+00 -0.00000000000E+00 -0.18095453138E+02  0.18095453138E+02  0.00000000000E+00 0.  1.
          2    1    1    2  502    0  0.15268825976E+02 -0.16839467828E+02  0.16421541128E+01  0.22790379408E+02  0.00000000000E+00 0.  1.
         -2    1    1    2    0  502 -0.15268825976E+02  0.16839467828E+02  0.96532816407E+01  0.24695962622E+02  0.00000000000E+00 0. -1.
<mgrwt>
<rscale>  2 0.22731140E+02</rscale>
<asrwt>0</asrwt>
<pdfrwt beam="2">  1        2 0.27839159E-02 0.22731140E+02</pdfrwt>
<pdfrwt beam="1">  1       -2 0.45216752E-02 0.22731140E+02</pdfrwt>
<totfact> 0.43855048E+05</totfact>
</mgrwt>
</event>
<event>
 4    1  0.1474645E+004  0.6603869E+02  0.7546771E-02  0.1374106E+00
          2   -1    0    0  501    0  0.00000000000E+00  0.00000000000E+00  0.25295055330E+04  0.25295055330E+04  0.00000000000E+00 0.  1.
         -2   -1    0    0    0  501 -0.00000000000E+00 -0.00000000000E+00 -0.80506509207E+01  0.80506509207E+01  0.00000000000E+00 0. -1.
          2    1    1    2  502    0 -0.33424380209E+02  0.56955417094E+02  0.23854718336E+04  0.23863857562E+04  0.00000000000E+00 0.  1.
         -2    1    1    2    0  502  0.33424380209E+02 -0.56955417094E+02  0.13598304848E+03  0.15117042767E+03  0.00000000000E+00 0. -1.
<mgrwt>
<rscale>  2 0.66038691E+02</rscale>
<asrwt>0</asrwt>
<pdfrwt beam="1">  1        2 0.38915406E+00 0.66038691E+02</pdfrwt>
<pdfrwt beam="2">  1       -2 0.12385637E-02 0.66038691E+02</pdfrwt>
<totfact> 0.59592855E+03</totfact>
</mgrwt>
</event>
<event>
 4    1  0.1474645E+004  0.2650325E+02  0.7546771E-02  0.1640304E+00
          2   -1    0    0  501    0  0.00000000000E+00  0.00000000000E+00  0.59368838899E+01  0.59368838899E+01  0.00000000000E+00 0. -1.
         -2   -1    0    0    0  501 -0.00000000000E+00 -0.00000000000E+00 -0.35562071027E+03  0.35562071027E+03  0.00000000000E+00 0.  1.
          2    1    1    2  502    0 -0.64884049489E+01  0.25696745963E+02 -0.27166530486E+02  0.37953162326E+02  0.00000000000E+00 0. -1.
         -2    1    1    2    0  502  0.64884049489E+01 -0.25696745963E+02 -0.32251729589E+03  0.32360443183E+03  0.00000000000E+00 0.  1.
<mgrwt>
<rscale>  2 0.26503248E+02</rscale>
<asrwt>0</asrwt>
<pdfrwt beam="1">  1        2 0.91336689E-03 0.26503248E+02</pdfrwt>
<pdfrwt beam="2">  1       -2 0.54710870E-01 0.26503248E+02</pdfrwt>
<totfact> 0.35490723E+04</totfact>
</mgrwt>
</event>
<event>
 4    1  0.1474645E+004  0.2082328E+02  0.7546771E-02  0.1729435E+00
          2   -1    0    0  501    0  0.00000000000E+00  0.00000000000E+00  0.24640236301E+02  0.24640236301E+02  0.00000000000E+00 0.  1.
         -2   -1    0    0    0  501 -0.00000000000E+00 -0.00000000000E+00 -0.57912441855E+03  0.57912441855E+03  0.00000000000E+00 0.  1.
          2    1    1    2  502    0  0.14041812878E+02 -0.15376492549E+02  0.20018270912E+02  0.28884947677E+02  0.00000000000E+00 0.  1.
         -2    1    1    2    0  502 -0.14041812878E+02  0.15376492549E+02 -0.57450245316E+03  0.57487970717E+03  0.00000000000E+00 0.  1.
<mgrwt>
<rscale>  2 0.20823281E+02</rscale>
<asrwt>0</asrwt>
<pdfrwt beam="1">  1        2 0.37908058E-02 0.20823281E+02</pdfrwt>
<pdfrwt beam="2">  1       -2 0.89096059E-01 0.20823281E+02</pdfrwt>
<totfact> 0.20143227E+03</totfact>
</mgrwt>
</event>
<event>
 4    1  0.1474645E+004  0.3270175E+02  0.7546771E-02  0.1570011E+00
          2   -1    0    0  501    0  0.00000000000E+00  0.00000000000E+00  0.12319047993E+02  0.12319047993E+02  0.00000000000E+00 0.  1.
         -2   -1    0    0    0  501 -0.00000000000E+00 -0.00000000000E+00 -0.16201030741E+03  0.16201030741E+03  0.00000000000E+00 0.  1.
          2    1    1    2  502    0 -0.32098339293E+02 -0.62530827474E+01 -0.15459932972E+02  0.36172005152E+02  0.00000000000E+00 0.  1.
         -2    1    1    2    0  502  0.32098339293E+02  0.62530827474E+01 -0.13423132644E+03  0.13815735025E+03  0.00000000000E+00 0.  1.
<mgrwt>
<rscale>  2 0.32701750E+02</rscale>
<asrwt>0</asrwt>
<pdfrwt beam="1">  1        2 0.18952380E-02 0.32701750E+02</pdfrwt>
<pdfrwt beam="2">  1       -2 0.24924664E-01 0.32701750E+02</pdfrwt>
<totfact> 0.59089969E+04</totfact>
</mgrwt>
</event>
<event>
 4    1  0.1474645E+004  0.2683157E+02  0.7546771E-02  0.1636007E+00
          2   -1    0    0  501    0  0.00000000000E+00  0.00000000000E+00  0.23078059745E+02  0.23078059745E+02  0.00000000000E+00 0.  1.
         -2   -1    0    0    0  501 -0.00000000000E+00 -0.00000000000E+00 -0.25805145338E+03  0.25805145338E+03  0.00000000000E+00 0. -1.
          2    1    1    2  502    0  0.18291973890E+02 -0.19630002818E+02  0.14308113619E+02  0.30408147506E+02  0.00000000000E+00 0.  1.
         -2    1    1    2    0  502 -0.18291973890E+02  0.19630002818E+02 -0.24928150725E+03  0.25072136562E+03  0.00000000000E+00 0. -1.
<mgrwt>
<rscale>  2 0.26831573E+02</rscale>
<asrwt>0</asrwt>
<pdfrwt beam="1">  1        2 0.35504707E-02 0.26831573E+02</pdfrwt>
<pdfrwt beam="2">  1       -2 0.39700224E-01 0.26831573E+02</pdfrwt>
<totfact> 0.11271198E+04</totfact>
</mgrwt>
</event>
<event>
 4    1  0.1474645E+004  0.2549131E+02  0.7546771E-02  0.1654044E+00
         -2   -1    0    0    0  501 -0.00000000000E+00  0.00000000000E+00  0.10078246140E+02  0.10078246140E+02  0.00000000000E+00 0. -1.
          2   -1    0    0  501    0  0.00000000000E+00 -0.00000000000E+00 -0.89212920912E+03  0.89212920912E+03  0.00000000000E+00 0.  1.
          2    1    1    2  502    0  0.18780537681E+02 -0.17236537577E+02 -0.87552238984E+03  0.87589340787E+03  0.00000000000E+00 0.  1.
         -2    1    1    2    0  502 -0.18780537681E+02  0.17236537577E+02 -0.65285731396E+01  0.26314047398E+02  0.00000000000E+00 0. -1.
<mgrwt>
<rscale>  2 0.25491309E+02</rscale>
<asrwt>0</asrwt>
<pdfrwt beam="2">  1        2 0.13725063E+00 0.25491309E+02</pdfrwt>
<pdfrwt beam="1">  1       -2 0.15504996E-02 0.25491309E+02</pdfrwt>
<totfact> 0.26764848E+04</totfact>
</mgrwt>
</event>
<event>
 4    1  0.1474645E+004  0.3391175E+02  0.7546771E-02  0.1558482E+00
         -2   -1    0    0    0  501 -0.00000000000E+00  0.00000000000E+00  0.15765979473E+02  0.15765979473E+02  0.00000000000E+00 0.  1.
          2   -1    0    0  501    0  0.00000000000E+00 -0.00000000000E+00 -0.21174166202E+04  0.21174166202E+04  0.00000000000E+00 0. -1.
          2    1    1    2  502    0  0.22939925373E+02 -0.24975313443E+02 -0.20988842686E+04  0.20991582073E+04  0.00000000000E+00 0. -1.
         -2    1    1    2    0  502 -0.22939925373E+02  0.24975313443E+02 -0.27663721058E+01  0.34024392314E+02  0.00000000000E+00 0.  1.
<mgrwt>
<rscale>  2 0.33911745E+02</rscale>
<asrwt>0</asrwt>
<pdfrwt beam="2">  1        2 0.32575635E+00 0.33911745E+02</pdfrwt>
<pdfrwt beam="1">  1       -2 0.24255357E-02 0.33911745E+02</pdfrwt>
<totfact> 0.36592336E+03</totfact>
</mgrwt>
</event>
<event>
 4    1  0.1474645E+004  0.2081408E+02  0.7546771E-02  0.1729607E+00
         -2   -1    0    0    0  501 -0.00000000000E+00  0.00000000000E+00  0.79261395515E+02  0.79261395515E+02  0.00000000000E+00 0. -1.
          2   -1    0    0  501    0  0.00000000000E+00 -0.00000000000E+00 -0.14538166919E+03  0.14538166919E+03  0.00000000000E+00 0. -1.
          2    1    1    2  502    0 -0.40206640300E+01 -0.20422048418E+02 -0.14325001526E+03  0.14475424924E+03  0.00000000000E+00 0. -1.
         -2    1    1    2    0  502  0.40206640300E+01  0.20422048418E+02  0.77129741581E+02  0.79888815470E+02  0.00000000000E+00 0. -1.
<mgrwt>
<rscale>  2 0.20814077E+02</rscale>
<asrwt>0</asrwt>
<pdfrwt beam="2">  1        2 0.22366410E-01 0.20814077E+02</pdfrwt>
<pdfrwt beam="1">  1       -2 0.12194061E-01 0.20814077E+02</pdfrwt>
<totfact> 0.89171681E+03</totfact>
</mgrwt>
</event>
<event>
 4    1  0.1474645E+004  0.2198240E+02  0.7546771E-02  0.1708557E+00
         -2   -1    0    0    0  501 -0.00000000000E+00  0.00000000000E+00  0.79528792404E+00  0.79528792404E+00  0.00000000000E+00 0. -1.
          2   -1    0    0  501    0  0.00000000000E+00 -0.00000000000E+00 -0.61560833869E+03  0.61560833869E+03  0.00000000000E+00 0. -1.
          2    1    1    2  502    0 -0.69382018763E+01  0.20858740522E+02 -0.34253467906E+03  0.34323932185E+03  0.00000000000E+00 0. -1.
         -2    1    1    2    0  502  0.69382018763E+01 -0.20858740522E+02 -0.27227837170E+03  0.27316430476E+03  0.00000000000E+00 0. -1.
<mgrwt>
<rscale>  2 0.21982395E+02</rscale>
<asrwt>0</asrwt>
<pdfrwt beam="2">  1        2 0.94708753E-01 0.21982395E+02</pdfrwt>
<pdfrwt beam="1">  1       -2 0.12235228E-03 0.21982395E+02</pdfrwt>
<totfact> 0.11705107E+06</totfact>
</mgrwt>
</event>
<event>
 4    1  0.1474645E+004  0.2763592E+02  0.7546771E-02  0.1625794E+00
         -2   -1    0    0    0  501 -0.00000000000E+00  0.00000000000E+00  0.52980483131E+01  0.52980483131E+01  0.00000000000E+00 0.  1.
          2   -1    0    0  501    0  0.00000000000E+00 -0.00000000000E+00 -0.75933548596E+03  0.75933548596E+03  0.00000000000E+00 0. -1.
          2    1    1    2  502    0  0.86627215311E+01 -0.26243123290E+02 -0.72113680481E+03  0.72166615239E+03  0.00000000000E+00 0. -1.
         -2    1    1    2    0  502 -0.86627215311E+01  0.26243123290E+02 -0.32900632843E+02  0.42967381882E+02  0.00000000000E+00 0.  1.
<mgrwt>
<rscale>  2 0.27635923E+02</rscale>
<asrwt>0</asrwt>
<pdfrwt beam="2">  1        2 0.11682082E+00 0.27635923E+02</pdfrwt>
<pdfrwt beam="1">  1       -2 0.81508452E-03 0.27635923E+02</pdfrwt>
<totfact> 0.78572402E+04</totfact>
</mgrwt>
</event>
<event>
 4    1  0.1474645E+004  0.3264879E+02  0.7546771E-02  0.1570529E+00
         -2   -1    0    0    0  501 -0.00000000000E+00  0.00000000000E+00  0.11957041055E+02  0.11957041055E+02  0.00000000000E+00 0.  1.
          2   -1    0    0  501    0  0.00000000000E+00 -0.00000000000E+00 -0.10263319252E+03  0.10263319252E+03  0.00000000000E+00 0.  1.
          2    1    1    2  502    0  0.30471857419E+02 -0.11722183731E+02 -0.66106606777E+02  0.73729418454E+02  0.00000000000E+00 0.  1.
         -2    1    1    2    0  502 -0.30471857419E+02  0.11722183731E+02 -0.24569544683E+02  0.40860815116E+02  0.00000000000E+00 0.  1.
<mgrwt>
<rscale>  2 0.32648793E+02</rscale>
<asrwt>0</asrwt>
<pdfrwt beam="2">  1        2 0.15789721E-01 0.32648793E+02</pdfrwt>
<pdfrwt beam="1">  1       -2 0.18395448E-02 0.32648793E+02</pdfrwt>
<totfact> 0.21287962E+05</totfact>
</mgrwt>
</event>
<event>
 4    1  0.1474645E+004  0.2643774E+02  0.7546771E-02  0.1641170E+00
          2   -1    0    0  501    0  0.00000000000E+00  0.00000000000E+00  0.12930608246E+02  0.12930608246E+02  0.00000000000E+00 0.  1.
         -2   -1    0    0    0  501 -0.00000000000E+00 -0.00000000000E+00 -0.63294908425E+02  0.63294908425E+02  0.00000000000E+00 0. -1.
          2    1    1    2  502    0  0.15569506122E+02 -0.21366900718E+02 -0.10619577188E+02  0.28490864972E+02  0.00000000000E+00 0.  1.
         -2    1    1    2    0  502 -0.15569506122E+02  0.21366900718E+02 -0.39744722991E+02  0.47734651699E+02  0.00000000000E+00 0. -1.
<mgrwt>
<rscale>  2 0.26437738E+02</rscale>
<asrwt>0</asrwt>
<pdfrwt beam="1">  1        2 0.19893243E-02 0.26437738E+02</pdfrwt>
<pdfrwt beam="2">  1       -2 0.97376782E-02 0.26437738E+02</pdfrwt>
<totfact> 0.23180047E+05</totfact>
</mgrwt>
</event>
<event>
 4    1  0.1474645E+004  0.2003940E+02  0.7546771E-02  0.1744546E+00
         -2   -1    0    0    0  501 -0.00000000000E+00  0.00000000000E+00  0.53916021591E+01  0.53916021591E+01  0.00000000000E+00 0. -1.
          2   -1    0    0  501    0  0.00000000000E+00 -0.00000000000E+00 -0.37779214063E+03  0.37779214063E+03  0.00000000000E+00 0. -1.
          2    1    1    2  502    0  0.19984421255E+02  0.14833352263E+01 -0.35787013862E+03  0.35843076527E+03  0.00000000000E+00 0. -1.
         -2    1    1    2    0  502 -0.19984421255E+02 -0.14833352263E+01 -0.14530399855E+02  0.24752977523E+02  0.00000000000E+00 0. -1.
<mgrwt>
<rscale>  2 0.20039396E+02</rscale>
<asrwt>0</asrwt>
<pdfrwt beam="2">  1        2 0.58121860E-01 0.20039396E+02</pdfrwt>
<pdfrwt beam="1">  1       -2 0.82947736E-03 0.20039396E+02</pdfrwt>
<totfact> 0.14655963E+05</totfact>
</mgrwt>
</event>
<event>
 4    1  0.1474645E+004  0.2010922E+02  0.7546771E-02  0.1743165E+00
          2   -1    0    0  501    0  0.00000000000E+00  0.00000000000E+00  0.90826455414E+02  0.90826455414E+02  0.00000000000E+00 0. -1.
         -2   -1    0    0    0  501 -0.00000000000E+00 -0.00000000000E+00 -0.63551636704E+02  0.63551636704E+02  0.00000000000E+00 0.  1.
          2    1    1    2  502    0  0.20106891092E+02  0.30613312320E+00  0.88073549249E+02  0.90340084482E+02  0.00000000000E+00 0. -1.
         -2    1    1    2    0  502 -0.20106891092E+02 -0.30613312320E+00 -0.60798730539E+02  0.64038007636E+02  0.00000000000E+00 0.  1.
<mgrwt>
<rscale>  2 0.20109221E+02</rscale>
<asrwt>0</asrwt>
<pdfrwt beam="1">  1        2 0.13973301E-01 0.20109221E+02</pdfrwt>
<pdfrwt beam="2">  1       -2 0.97771749E-02 0.20109221E+02</pdfrwt>
<totfact> 0.20398120E+04</totfact>
</mgrwt>
</event>
<event>
 4    1  0.1474645E+004  0.2582861E+02  0.7546771E-02  0.1649378E+00
         -2   -1    0    0    0  501 -0.00000000000E+00  0.00000000000E+00  0.79808954945E+02  0.79808954945E+02  0.00000000000E+00 0.  1.
          2   -1    0    0  501    0  0.00000000000E+00 -0.00000000000E+00 -0.26601040611E+03  0.26601040611E+03  0.00000000000E+00 0. -1.
          2    1    1    2  502    0 -0.18964663702E+02  0.17534501076E+02 -0.26327202519E+03  0.26453596437E+03  0.00000000000E+00 0. -1.
         -2    1    1    2    0  502  0.18964663702E+02 -0.17534501076E+02  0.77070574021E+02  0.81283396689E+02  0.00000000000E+00 0.  1.
<mgrwt>
<rscale>  2 0.25828612E+02</rscale>
<asrwt>0</asrwt>
<pdfrwt beam="2">  1        2 0.40924678E-01 0.25828612E+02</pdfrwt>
<pdfrwt beam="1">  1       -2 0.12278301E-01 0.25828612E+02</pdfrwt>
<totfact> 0.49238319E+03</totfact>
</mgrwt>
</event>
<event>
 4    1  0.1474645E+004  0.2061470E+02  0.7546771E-02  0.1733373E+00
         -2   -1    0    0    0  501 -0.00000000000E+00  0.00000000000E+00  0.95222054853E+02  0.95222054853E+02  0.00000000000E+00 0.  1.
          2   -1    0    0  501    0  0.00000000000E+00 -0.00000000000E+00 -0.73948420004E+01  0.73948420004E+01  0.00000000000E+00 0. -1.
          2    1    1    2  502    0 -0.16888783894E+02  0.11820954338E+02  0.11606167765E+02  0.23657326837E+02  0.00000000000E+00 0. -1.
         -2    1    1    2    0  502  0.16888783894E+02 -0.11820954338E+02  0.76221045088E+02  0.78959570016E+02  0.00000000000E+00 0.  1.
<mgrwt>
<rscale>  2 0.20614703E+02</rscale>
<asrwt>0</asrwt>
<pdfrwt beam="2">  1        2 0.11376681E-02 0.20614703E+02</pdfrwt>
<pdfrwt beam="1">  1       -2 0.14649546E-01 0.20614703E+02</pdfrwt>
<totfact> 0.23861264E+05</totfact>
</mgrwt>
</event>
<event>
 4    1  0.1474645E+004  0.2990392E+02  0.7546771E-02  0.1599153E+00
         -2   -1    0    0    0  501 -0.00000000000E+00  0.00000000000E+00  0.77691558598E+00  0.77691558598E+00  0.00000000000E+00 0.  1.
          2   -1    0    0  501    0  0.00000000000E+00 -0.00000000000E+00 -0.14062049489E+04  0.14062049489E+04  0.00000000000E+00 0.  1.
          2    1    1    2  502    0  0.18950154988E+02  0.23133001660E+02 -0.10023976852E+04  0.10028436386E+04  0.00000000000E+00 0.  1.
         -2    1    1    2    0  502 -0.18950154988E+02 -0.23133001660E+02 -0.40303034805E+03  0.40413822584E+03  0.00000000000E+00 0.  1.
<mgrwt>
<rscale>  2 0.29903915E+02</rscale>
<asrwt>0</asrwt>
<pdfrwt beam="2">  1        2 0.21633735E+00 0.29903915E+02</pdfrwt>
<pdfrwt beam="1">  1       -2 0.11952651E-03 0.29903915E+02</pdfrwt>
<totfact> 0.47065103E+05</totfact>
</mgrwt>
</event>
<event>
 4    1  0.1474645E+004  0.2885221E+02  0.7546771E-02  0.1611134E+00
         -2   -1    0    0    0  501 -0.00000000000E+00  0.00000000000E+00  0.12209673667E+04  0.12209673667E+04  0.00000000000E+00 0.  1.
          2   -1    0    0  501    0  0.00000000000E+00 -0.00000000000E+00 -0.63029290590E+02  0.63029290590E+02  0.00000000000E+00 0. -1.
          2    1    1    2  502    0 -0.28159999433E+02  0.62820791307E+01 -0.59547562304E+02  0.66169194211E+02  0.00000000000E+00 0. -1.
         -2    1    1    2    0  502  0.28159999433E+02 -0.62820791307E+01  0.12174856384E+04  0.12178274630E+04  0.00000000000E+00 0.  1.
<mgrwt>
<rscale>  2 0.28852211E+02</rscale>
<asrwt>0</asrwt>
<pdfrwt beam="2">  1        2 0.96968148E-02 0.28852211E+02</pdfrwt>
<pdfrwt beam="1">  1       -2 0.18784112E+00 0.28852211E+02</pdfrwt>
<totfact> 0.11391079E+02</totfact>
</mgrwt>
</event>
<event>
 4    1  0.1474645E+004  0.2093308E+02  0.7546771E-02  0.1727385E+00
         -2   -1    0    0    0  501 -0.00000000000E+00  0.00000000000E+00  0.88709944558E+01  0.88709944558E+01  0.00000000000E+00 0. -1.
          2   -1    0    0  501    0  0.00000000000E+00 -0.00000000000E+00 -0.15085333996E+03  0.15085333996E+03  0.00000000000E+00 0.  1.
          2    1    1    2  502    0 -0.86762973252E+01  0.19050343091E+02 -0.13648567773E+03  0.13808162054E+03  0.00000000000E+00 0.  1.
         -2    1    1    2    0  502  0.86762973252E+01 -0.19050343091E+02 -0.54966677786E+01  0.21642713874E+02  0.00000000000E+00 0. -1.
<mgrwt>
<rscale>  2 0.20933077E+02</rscale>
<asrwt>0</asrwt>
<pdfrwt beam="2">  1        2 0.23208206E-01 0.20933077E+02</pdfrwt>
<pdfrwt beam="1">  1       -2 0.13647684E-02 0.20933077E+02</pdfrwt>
<totfact> 0.18909211E+05</totfact>
</mgrwt>
</event>
<event>
 4    1  0.1474645E+004  0.2460664E+02  0.7546771E-02  0.1666717E+00
          2   -1    0    0  501    0  0.00000000000E+00  0.00000000000E+00  0.10163714759E+04  0.10163714759E+04  0.00000000000E+00 0. -1.
         -2   -1    0    0    0  501 -0.00000000000E+00 -0.00000000000E+00 -0.95350933305E+00  0.95350933305E+00  0.00000000000E+00 0. -1.
          2    1    1    2  502    0  0.12282516581E+02  0.21321971082E+02  0.81929120196E+03  0.81966063726E+03  0.00000000000E+00 0. -1.
         -2    1    1    2    0  502 -0.12282516581E+02 -0.21321971082E+02  0.19612676460E+03  0.19766434796E+03  0.00000000000E+00 0. -1.
<mgrwt>
<rscale>  2 0.24606639E+02</rscale>
<asrwt>0</asrwt>
<pdfrwt beam="1">  1        2 0.15636398E+00 0.24606639E+02</pdfrwt>
<pdfrwt beam="2">  1       -2 0.14669456E-03 0.24606639E+02</pdfrwt>
<totfact> 0.53859868E+05</totfact>
</mgrwt>
</event>
<event>
 4    1  0.1474645E+004  0.2153247E+02  0.7546771E-02  0.1716465E+00
          2   -1    0    0  501    0  0.00000000000E+00  0.00000000000E+00  0.11338742458E+04  0.11338742458E+04  0.00000000000E+00 0. -1.
         -2   -1    0    0    0  501 -0.00000000000E+00 -0.00000000000E+00 -0.45652537717E+00  0.45652537717E+00  0.00000000000E+00 0. -1.
          2    1    1    2  502    0 -0.19200349575E+02  0.97464512404E+01  0.38353051761E+03  0.38413448774E+03  0.00000000000E+00 0. -1.
         -2    1    1    2    0  502  0.19200349575E+02 -0.97464512404E+01  0.74988720282E+03  0.75019628344E+03  0.00000000000E+00 0. -1.
<mgrwt>
<rscale>  2 0.21532468E+02</rscale>
<asrwt>0</asrwt>
<pdfrwt beam="1">  1        2 0.17443994E+00 0.21532468E+02</pdfrwt>
<pdfrwt beam="2">  1       -2 0.70235581E-04 0.21532468E+02</pdfrwt>
<totfact> 0.11856346E+06</totfact>
</mgrwt>
</event>
<event>
 4    1  0.1474645E+004  0.3404883E+02  0.7546771E-02  0.1557213E+00
          2   -1    0    0  501    0  0.00000000000E+00  0.00000000000E+00  0.37345893763E+03  0.37345893763E+03  0.00000000000E+00 0.  1.
         -2   -1    0    0    0  501 -0.00000000000E+00 -0.00000000000E+00 -0.11028516051E+02  0.11028516051E+02  0.00000000000E+00 0.  1.
          2    1    1    2  502    0  0.30187395699E+02  0.15749407610E+02  0.34417191136E+03  0.34585203088E+03  0.00000000000E+00 0.  1.
         -2    1    1    2    0  502 -0.30187395699E+02 -0.15749407610E+02  0.18258510222E+02  0.38635422797E+02  0.00000000000E+00 0.  1.
<mgrwt>
<rscale>  2 0.34048828E+02</rscale>
<asrwt>0</asrwt>
<pdfrwt beam="1">  1        2 0.57455212E-01 0.34048828E+02</pdfrwt>
<pdfrwt beam="2">  1       -2 0.16966951E-02 0.34048828E+02</pdfrwt>
<totfact> 0.62859888E+04</totfact>
</mgrwt>
</event>
<event>
 4    1  0.1474645E+004  0.2006496E+02  0.7546771E-02  0.1744039E+00
          2   -1    0    0  501    0  0.00000000000E+00  0.00000000000E+00  0.24327268763E+01  0.24327268763E+01  0.00000000000E+00 0. -1.
         -2   -1    0    0    0  501 -0.00000000000E+00 -0.00000000000E+00 -0.27111308061E+03  0.27111308061E+03  0.00000000000E+00 0. -1.
          2    1    1    2  502    0 -0.16614078023E+02 -0.11250564501E+02 -0.48972177666E+02  0.52923312212E+02  0.00000000000E+00 0. -1.
         -2    1    1    2    0  502  0.16614078023E+02  0.11250564501E+02 -0.21970817607E+03  0.22062249527E+03  0.00000000000E+00 0. -1.
<mgrwt>
<rscale>  2 0.20064964E+02</rscale>
<asrwt>0</asrwt>
<pdfrwt beam="1">  1        2 0.37426547E-03 0.20064964E+02</pdfrwt>
<pdfrwt beam="2">  1       -2 0.41709727E-01 0.20064964E+02</pdfrwt>
<totfact> 0.17630307E+05</totfact>
</mgrwt>
</event>
<event>
 4    1  0.1474645E+004  0.2216442E+02  0.7546771E-02  0.1705424E+00
         -2   -1    0    0    0  501 -0.00000000000E+00  0.00000000000E+00  0.22821520369E+02  0.22821520369E+02  0.00000000000E+00 0. -1.
          2   -1    0    0  501    0  0.00000000000E+00 -0.00000000000E+00 -0.53786920276E+02  0.53786920276E+02  0.00000000000E+00 0.  1.
          2    1    1    2  502    0 -0.18659368395E+02 -0.11962010195E+02 -0.45147743589E+02  0.50294934814E+02  0.00000000000E+00 0.  1.
         -2    1    1    2    0  502  0.18659368395E+02  0.11962010195E+02  0.14182343682E+02  0.26313505831E+02  0.00000000000E+00 0. -1.
<mgrwt>
<rscale>  2 0.22164425E+02</rscale>
<asrwt>0</asrwt>
<pdfrwt beam="2">  1        2 0.82749107E-02 0.22164425E+02</pdfrwt>
<pdfrwt beam="1">  1       -2 0.35110032E-02 0.22164425E+02</pdfrwt>
<totfact> 0.16385388E+05</totfact>
</mgrwt>
</event>
<event>
 4    1  0.1474645E+004  0.2286034E+02  0.7546771E-02  0.1693784E+00
          2   -1    0    0  501    0  0.00000000000E+00  0.00000000000E+00  0.94118818058E+02  0.94118818058E+02  0.00000000000E+00 0. -1.
         -2   -1    0    0    0  501 -0.00000000000E+00 -0.00000000000E+00 -0.78846632476E+01  0.78846632476E+01  0.00000000000E+00 0.  1.
          2    1    1    2  502    0  0.22830508945E+02 -0.11674644436E+01  0.70854910253E+02  0.74451416500E+02  0.00000000000E+00 0. -1.
         -2    1    1    2    0  502 -0.22830508945E+02  0.11674644436E+01  0.15379244558E+02  0.27552064806E+02  0.00000000000E+00 0.  1.
<mgrwt>
<rscale>  2 0.22860339E+02</rscale>
<asrwt>0</asrwt>
<pdfrwt beam="1">  1        2 0.14479817E-01 0.22860339E+02</pdfrwt>
<pdfrwt beam="2">  1       -2 0.12130252E-02 0.22860339E+02</pdfrwt>
<totfact> 0.37661830E+05</totfact>
</mgrwt>
</event>
<event>
 4    1  0.1474645E+004  0.2540414E+02  0.7546771E-02  0.1655264E+00
          2   -1    0    0  501    0  0.00000000000E+00  0.00000000000E+00  0.13763468995E+04  0.13763468995E+04  0.00000000000E+00 0. -1.
         -2   -1    0    0    0  501 -0.00000000000E+00 -0.00000000000E+00 -0.22267720683E+01  0.22267720683E+01  0.00000000000E+00 0.  1.
          2    1    1    2  502    0  0.58095057822E+00 -0.25397498666E+02  0.12994888707E+04  0.12997371641E+04  0.00000000000E+00 0. -1.
         -2    1    1    2    0  502 -0.58095057822E+00  0.25397498666E+02  0.74631256712E+02  0.78836507536E+02  0.00000000000E+00 0.  1.
<mgrwt>
<rscale>  2 0.25404142E+02</rscale>
<asrwt>0</asrwt>
<pdfrwt beam="1">  1        2 0.21174500E+00 0.25404142E+02</pdfrwt>
<pdfrwt beam="2">  1       -2 0.34258142E-03 0.25404142E+02</pdfrwt>
<totfact> 0.11524424E+05</totfact>
</mgrwt>
</event>
<event>
 4    1  0.1474645E+004  0.2023995E+02  0.7546771E-02  0.1740598E+00
          2   -1    0    0  501    0  0.00000000000E+00  0.00000000000E+00  0.63595753097E+01  0.63595753097E+01  0.00000000000E+00 0.  1.
         -2   -1    0    0    0  501 -0.00000000000E+00 -0.00000000000E+00 -0.10143082501E+04  0.10143082501E+04  0.00000000000E+00 0. -1.
          2    1    1    2  502    0 -0.81418649256E+01 -0.18530130220E+02 -0.10111076365E+02  0.22624976368E+02  0.00000000000E+00 0.  1.
         -2    1    1    2    0  502  0.81418649256E+01  0.18530130220E+02 -0.99783759847E+03  0.99804284909E+03  0.00000000000E+00 0. -1.
<mgrwt>
<rscale>  2 0.20239953E+02</rscale>
<asrwt>0</asrwt>
<pdfrwt beam="1">  1        2 0.97839695E-03 0.20239953E+02</pdfrwt>
<pdfrwt beam="2">  1       -2 0.15604730E+00 0.20239953E+02</pdfrwt>
<totfact> 0.30971662E+03</totfact>
</mgrwt>
</event>
<event>
 4    1  0.1474645E+004  0.2103989E+02  0.7546771E-02  0.1725406E+00
          2   -1    0    0  501    0  0.00000000000E+00  0.00000000000E+00  0.37984116140E+02  0.37984116140E+02  0.00000000000E+00 0. -1.
         -2   -1    0    0    0  501 -0.00000000000E+00 -0.00000000000E+00 -0.11833147490E+02  0.11833147490E+02  0.00000000000E+00 0. -1.
          2    1    1    2  502    0 -0.70059013903E+01  0.19839205279E+02  0.10012878134E+02  0.23300953820E+02  0.00000000000E+00 0. -1.
         -2    1    1    2    0  502  0.70059013903E+01 -0.19839205279E+02  0.16138090517E+02  0.26516309810E+02  0.00000000000E+00 0. -1.
<mgrwt>
<rscale>  2 0.21039895E+02</rscale>
<asrwt>0</asrwt>
<pdfrwt beam="1">  1        2 0.58437101E-02 0.21039895E+02</pdfrwt>
<pdfrwt beam="2">  1       -2 0.18204842E-02 0.21039895E+02</pdfrwt>
<totfact> 0.60309731E+05</totfact>
</mgrwt>
</event>
<event>
 4    1  0.1474645E+004  0.2394973E+02  0.7546771E-02  0.1676562E+00
          2   -1    0    0  501    0  0.00000000000E+00  0.00000000000E+00  0.57365232029E+03  0.57365232029E+03  0.00000000000E+00 0.  1.
         -2   -1    0    0    0  501 -0.00000000000E+00 -0.00000000000E+00 -0.16025396302E+01  0.16025396302E+01  0.00000000000E+00 0.  1.
          2    1    1    2  502    0  0.15577258146E+02 -0.18191717610E+02  0.46240846653E+03  0.46302827071E+03  0.00000000000E+00 0.  1.
         -2    1    1    2    0  502 -0.15577258146E+02  0.18191717610E+02  0.10964131413E+03  0.11222658921E+03  0.00000000000E+00 0.  1.
<mgrwt>
<rscale>  2 0.23949730E+02</rscale>
<asrwt>0</asrwt>
<pdfrwt beam="1">  1        2 0.88254039E-01 0.23949730E+02</pdfrwt>
<pdfrwt beam="2">  1       -2 0.24654502E-03 0.23949730E+02</pdfrwt>
<totfact> 0.51183132E+05</totfact>
</mgrwt>
</event>
<event>
 4    1  0.1474645E+004  0.2606846E+02  0.7546771E-02  0.1646113E+00
          2   -1    0    0  501    0  0.00000000000E+00  0.00000000000E+00  0.95423923433E+02  0.95423923433E+02  0.00000000000E+00 0.  1.
         -2   -1    0    0    0  501 -0.00000000000E+00 -0.00000000000E+00 -0.15995524034E+02  0.15995524034E+02  0.00000000000E+00 0.  1.
          2    1    1    2  502    0  0.21473068628E+02  0.14780802094E+02  0.81208764915E+02  0.85290259032E+02  0.00000000000E+00 0.  1.
         -2    1    1    2    0  502 -0.21473068628E+02 -0.14780802094E+02 -0.17803655154E+01  0.26129188434E+02  0.00000000000E+00 0.  1.
<mgrwt>
<rscale>  2 0.26068463E+02</rscale>
<asrwt>0</asrwt>
<pdfrwt beam="1">  1        2 0.14680603E-01 0.26068463E+02</pdfrwt>
<pdfrwt beam="2">  1       -2 0.24608499E-02 0.26068463E+02</pdfrwt>
<totfact> 0.14580429E+05</totfact>
</mgrwt>
</event>
<event>
 4    1  0.1474645E+004  0.2083742E+02  0.7546771E-02  0.1729170E+00
          2   -1    0    0  501    0  0.00000000000E+00  0.00000000000E+00  0.23543959164E+03  0.23543959164E+03  0.00000000000E+00 0. -1.
         -2   -1    0    0    0  501 -0.00000000000E+00 -0.00000000000E+00 -0.44354219911E+01  0.44354219911E+01  0.00000000000E+00 0.  1.
          2    1    1    2  502    0 -0.13703396791E+02  0.15697615141E+02  0.20717471102E+03  0.20821997764E+03  0.00000000000E+00 0. -1.
         -2    1    1    2    0  502  0.13703396791E+02 -0.15697615141E+02  0.23829458633E+02  0.31655035989E+02  0.00000000000E+00 0.  1.
<mgrwt>
<rscale>  2 0.20837423E+02</rscale>
<asrwt>0</asrwt>
<pdfrwt beam="1">  1        2 0.36221466E-01 0.20837423E+02</pdfrwt>
<pdfrwt beam="2">  1       -2 0.68237279E-03 0.20837423E+02</pdfrwt>
<totfact> 0.30606725E+05</totfact>
</mgrwt>
</event>
<event>
 4    1  0.1474645E+004  0.3225160E+02  0.7546771E-02  0.1574456E+00
          2   -1    0    0  501    0  0.00000000000E+00  0.00000000000E+00  0.50291513250E+01  0.50291513250E+01  0.00000000000E+00 0. -1.
         -2   -1    0    0    0  501 -0.00000000000E+00 -0.00000000000E+00 -0.34143082728E+03  0.34143082728E+03  0.00000000000E+00 0. -1.
          2    1    1    2  502    0 -0.24862129020E+02 -0.20543614744E+02 -0.59433122840E+02  0.67619979716E+02  0.00000000000E+00 0. -1.
         -2    1    1    2    0  502  0.24862129020E+02  0.20543614744E+02 -0.27696855312E+03  0.27883999889E+03  0.00000000000E+00 0. -1.
<mgrwt>
<rscale>  2 0.32251598E+02</rscale>
<asrwt>0</asrwt>
<pdfrwt beam="1">  1        2 0.77371541E-03 0.32251598E+02</pdfrwt>
<pdfrwt beam="2">  1       -2 0.52527831E-01 0.32251598E+02</pdfrwt>
<totfact> 0.50035520E+04</totfact>
</mgrwt>
</event>
<event>
 4    1  0.1474645E+004  0.2116847E+02  0.7546771E-02  0.1723043E+00
         -2   -1    0    0    0  501 -0.00000000000E+00  0.00000000000E+00  0.10158162055E+01  0.10158162055E+01  0.00000000000E+00 0. -1.
          2   -1    0    0  501    0  0.00000000000E+00 -0.00000000000E+00 -0.11267980796E+04  0.11267980796E+04  0.00000000000E+00 0.  1.
          2    1    1    2  502    0  0.21093485136E+02 -0.17801429413E+01 -0.10027793103E+04  0.10030027165E+04  0.00000000000E+00 0.  1.
         -2    1    1    2    0  502 -0.21093485136E+02  0.17801429413E+01 -0.12300295307E+03  0.12481117934E+03  0.00000000000E+00 0. -1.
<mgrwt>
<rscale>  2 0.21168468E+02</rscale>
<asrwt>0</asrwt>
<pdfrwt beam="2">  1        2 0.17335411E+00 0.21168468E+02</pdfrwt>
<pdfrwt beam="1">  1       -2 0.15627891E-03 0.21168468E+02</pdfrwt>
<totfact> 0.41627827E+05</totfact>
</mgrwt>
</event>
<event>
 4    1  0.1474645E+004  0.2045630E+02  0.7546771E-02  0.1736403E+00
          2   -1    0    0  501    0  0.00000000000E+00  0.00000000000E+00  0.42280092390E+03  0.42280092390E+03  0.00000000000E+00 0.  1.
         -2   -1    0    0    0  501 -0.00000000000E+00 -0.00000000000E+00 -0.89200697737E+02  0.89200697737E+02  0.00000000000E+00 0.  1.
          2    1    1    2  502    0  0.40471684578E+01 -0.20051944025E+02  0.42137672423E+03  0.42187297112E+03  0.00000000000E+00 0.  1.
         -2    1    1    2    0  502 -0.40471684578E+01  0.20051944025E+02 -0.87776498069E+02  0.90128650523E+02  0.00000000000E+00 0.  1.
<mgrwt>
<rscale>  2 0.20456296E+02</rscale>
<asrwt>0</asrwt>
<pdfrwt beam="1">  1        2 0.65046295E-01 0.20456296E+02</pdfrwt>
<pdfrwt beam="2">  1       -2 0.13723184E-01 0.20456296E+02</pdfrwt>
<totfact> 0.25670873E+03</totfact>
</mgrwt>
</event>
<event>
 4    1  0.1474645E+004  0.2034140E+02  0.7546771E-02  0.1738623E+00
          2   -1    0    0  501    0  0.00000000000E+00  0.00000000000E+00  0.21918307029E+02  0.21918307029E+02  0.00000000000E+00 0. -1.
         -2   -1    0    0    0  501 -0.00000000000E+00 -0.00000000000E+00 -0.13272886740E+03  0.13272886740E+03  0.00000000000E+00 0. -1.
          2    1    1    2  502    0 -0.97604897452E+01  0.17846724542E+02  0.16208659121E+02  0.26009486105E+02  0.00000000000E+00 0. -1.
         -2    1    1    2    0  502  0.97604897452E+01 -0.17846724542E+02 -0.12701921949E+03  0.12863768832E+03  0.00000000000E+00 0. -1.
<mgrwt>
<rscale>  2 0.20341404E+02</rscale>
<asrwt>0</asrwt>
<pdfrwt beam="1">  1        2 0.33720472E-02 0.20341404E+02</pdfrwt>
<pdfrwt beam="2">  1       -2 0.20419826E-01 0.20341404E+02</pdfrwt>
<totfact> 0.35353860E+04</totfact>
</mgrwt>
</event>
<event>
 4    1  0.1474645E+004  0.6581126E+02  0.7546771E-02  0.1374946E+00
         -2   -1    0    0    0  501 -0.00000000000E+00  0.00000000000E+00  0.68701397141E+01  0.68701397141E+01  0.00000000000E+00 0.  1.
          2   -1    0    0  501    0  0.00000000000E+00 -0.00000000000E+00 -0.21935609417E+04  0.21935609417E+04  0.00000000000E+00 0.  1.
          2    1    1    2  502    0 -0.12027841563E+02 -0.64702799884E+02 -0.20221001026E+04  0.20231707655E+04  0.00000000000E+00 0.  1.
         -2    1    1    2    0  502  0.12027841563E+02  0.64702799884E+02 -0.16459069932E+03  0.17726031589E+03  0.00000000000E+00 0.  1.
<mgrwt>
<rscale>  2 0.65811255E+02</rscale>
<asrwt>0</asrwt>
<pdfrwt beam="2">  1        2 0.33747104E+00 0.65811255E+02</pdfrwt>
<pdfrwt beam="1">  1       -2 0.10569442E-02 0.65811255E+02</pdfrwt>
<totfact> 0.11041042E+04</totfact>
</mgrwt>
</event>
<event>
 4    1  0.1474645E+004  0.2372130E+02  0.7546771E-02  0.1680078E+00
          2   -1    0    0  501    0  0.00000000000E+00  0.00000000000E+00  0.48344543448E+03  0.48344543448E+03  0.00000000000E+00 0. -1.
         -2   -1    0    0    0  501 -0.00000000000E+00 -0.00000000000E+00 -0.65974397038E+01  0.65974397038E+01  0.00000000000E+00 0. -1.
          2    1    1    2  502    0 -0.11855353917E+02 -0.20546300457E+02  0.46078382260E+03  0.46139400847E+03  0.00000000000E+00 0. -1.
         -2    1    1    2    0  502  0.11855353917E+02  0.20546300457E+02  0.16064172167E+02  0.28648865708E+02  0.00000000000E+00 0. -1.
<mgrwt>
<rscale>  2 0.23721296E+02</rscale>
<asrwt>0</asrwt>
<pdfrwt beam="1">  1        2 0.74376193E-01 0.23721296E+02</pdfrwt>
<pdfrwt beam="2">  1       -2 0.10149911E-02 0.23721296E+02</pdfrwt>
<totfact> 0.91080324E+04</totfact>
</mgrwt>
</event>
<event>
 4    1  0.1474645E+004  0.2104527E+02  0.7546771E-02  0.1725306E+00
         -2   -1    0    0    0  501 -0.00000000000E+00  0.00000000000E+00  0.12408469123E+03  0.12408469123E+03  0.00000000000E+00 0. -1.
          2   -1    0    0  501    0  0.00000000000E+00 -0.00000000000E+00 -0.59915036000E+01  0.59915036000E+01  0.00000000000E+00 0. -1.
          2    1    1    2  502    0  0.20464685477E+02  0.49091940291E+01  0.17694317319E+02  0.27495316021E+02  0.00000000000E+00 0. -1.
         -2    1    1    2    0  502 -0.20464685477E+02 -0.49091940291E+01  0.10039887031E+03  0.10258087881E+03  0.00000000000E+00 0. -1.
<mgrwt>
<rscale>  2 0.21045274E+02</rscale>
<asrwt>0</asrwt>
<pdfrwt beam="2">  1        2 0.92176988E-03 0.21045274E+02</pdfrwt>
<pdfrwt beam="1">  1       -2 0.19089951E-01 0.21045274E+02</pdfrwt>
<totfact> 0.20830243E+05</totfact>
</mgrwt>
</event>
<event>
 4    1  0.1474645E+004  0.2171895E+02  0.7546771E-02  0.1713158E+00
         -2   -1    0    0    0  501 -0.00000000000E+00  0.00000000000E+00  0.31711783460E+01  0.31711783460E+01  0.00000000000E+00 0. -1.
          2   -1    0    0  501    0  0.00000000000E+00 -0.00000000000E+00 -0.20279796358E+03  0.20279796358E+03  0.00000000000E+00 0. -1.
          2    1    1    2  502    0  0.14339353650E+02 -0.16312439030E+02 -0.15297891662E+03  0.15451298217E+03  0.00000000000E+00 0. -1.
         -2    1    1    2    0  502 -0.14339353650E+02  0.16312439030E+02 -0.46647868618E+02  0.51456159756E+02  0.00000000000E+00 0. -1.
<mgrwt>
<rscale>  2 0.21718949E+02</rscale>
<asrwt>0</asrwt>
<pdfrwt beam="2">  1        2 0.31199690E-01 0.21718949E+02</pdfrwt>
<pdfrwt beam="1">  1       -2 0.48787353E-03 0.21718949E+02</pdfrwt>
<totfact> 0.56349632E+05</totfact>
</mgrwt>
</event>
<event>
 4    1  0.1474645E+004  0.2804915E+02  0.7546771E-02  0.1620711E+00
          2   -1    0    0  501    0  0.00000000000E+00  0.00000000000E+00  0.95688387140E+03  0.95688387140E+03  0.00000000000E+00 0.  1.
         -2   -1    0    0    0  501 -0.00000000000E+00 -0.00000000000E+00 -0.10734637321E+01  0.10734637321E+01  0.00000000000E+00 0. -1.
          2    1    1    2  502    0 -0.13554083611E+02  0.24556900974E+02  0.70963569803E+03  0.71018981863E+03  0.00000000000E+00 0.  1.
         -2    1    1    2    0  502  0.13554083611E+02 -0.24556900974E+02  0.24617470963E+03  0.24776751650E+03  0.00000000000E+00 0. -1.
<mgrwt>
<rscale>  2 0.28049146E+02</rscale>
<asrwt>0</asrwt>
<pdfrwt beam="1">  1        2 0.14721222E+00 0.28049146E+02</pdfrwt>
<pdfrwt beam="2">  1       -2 0.16514903E-03 0.28049146E+02</pdfrwt>
<totfact> 0.51369264E+05</totfact>
</mgrwt>
</event>
<event>
 4    1  0.1474645E+004  0.2353417E+02  0.7546771E-02  0.1682995E+00
         -2   -1    0    0    0  501 -0.00000000000E+00  0.00000000000E+00  0.27122297289E+01  0.27122297289E+01  0.00000000000E+00 0. -1.
          2   -1    0    0  501    0  0.00000000000E+00 -0.00000000000E+00 -0.26871039948E+03  0.26871039948E+03  0.00000000000E+00 0.  1.
          2    1    1    2  502    0 -0.13022401150E+02  0.19602911583E+02 -0.19949028262E+03  0.20087366660E+03  0.00000000000E+00 0.  1.
         -2    1    1    2    0  502  0.13022401150E+02 -0.19602911583E+02 -0.66507887130E+02  0.70548962606E+02  0.00000000000E+00 0. -1.
<mgrwt>
<rscale>  2 0.23534168E+02</rscale>
<asrwt>0</asrwt>
<pdfrwt beam="2">  1        2 0.41340075E-01 0.23534168E+02</pdfrwt>
<pdfrwt beam="1">  1       -2 0.41726598E-03 0.23534168E+02</pdfrwt>
<totfact> 0.53769348E+05</totfact>
</mgrwt>
</event>
<event>
 4    1  0.1474645E+004  0.2105162E+02  0.7546771E-02  0.1725189E+00
         -2   -1    0    0    0  501 -0.00000000000E+00  0.00000000000E+00  0.32951868423E+02  0.32951868423E+02  0.00000000000E+00 0.  1.
          2   -1    0    0  501    0  0.00000000000E+00 -0.00000000000E+00 -0.52348963042E+03  0.52348963042E+03  0.00000000000E+00 0. -1.
          2    1    1    2  502    0  0.58299695277E+01 -0.20228256062E+02 -0.51989247454E+03  0.52031851396E+03  0.00000000000E+00 0. -1.
         -2    1    1    2    0  502 -0.58299695277E+01  0.20228256062E+02  0.29354712545E+02  0.36122984879E+02  0.00000000000E+00 0.  1.
<mgrwt>
<rscale>  2 0.21051624E+02</rscale>
<asrwt>0</asrwt>
<pdfrwt beam="2">  1        2 0.80536861E-01 0.21051624E+02</pdfrwt>
<pdfrwt beam="1">  1       -2 0.50695186E-02 0.21051624E+02</pdfrwt>
<totfact> 0.89569542E+03</totfact>
</mgrwt>
</event>
<event>
 4    1  0.1474645E+004  0.2102328E+02  0.7546771E-02  0.1725713E+00
          2   -1    0    0  501    0  0.00000000000E+00  0.00000000000E+00  0.25339524935E+03  0.25339524935E+03  0.00000000000E+00 0. -1.
         -2   -1    0    0    0  501 -0.00000000000E+00 -0.00000000000E+00 -0.41302792643E+01  0.41302792643E+01  0.00000000000E+00 0.  1.
          2    1    1    2  502    0 -0.61803911853E+01 -0.20094302081E+02  0.22250050085E+03  0.22349150116E+03  0.00000000000E+00 0. -1.
         -2    1    1    2    0  502  0.61803911853E+01  0.20094302081E+02  0.26764469229E+02  0.34034027449E+02  0.00000000000E+00 0.  1.
<mgrwt>
<rscale>  2 0.21023278E+02</rscale>
<asrwt>0</asrwt>
<pdfrwt beam="1">  1        2 0.38983872E-01 0.21023278E+02</pdfrwt>
<pdfrwt beam="2">  1       -2 0.63542778E-03 0.21023278E+02</pdfrwt>
<totfact> 0.31389048E+05</totfact>
</mgrwt>
</event>
<event>
 4    1  0.1474645E+004  0.2220648E+02  0.7546771E-02  0.1704705E+00
          2   -1    0    0  501    0  0.00000000000E+00  0.00000000000E+00  0.32449496030E+02  0.32449496030E+02  0.00000000000E+00 0.  1.
         -2   -1    0    0    0  501 -0.00000000000E+00 -0.00000000000E+00 -0.17279665531E+02  0.17279665531E+02  0.00000000000E+00 0.  1.
          2    1    1    2  502    0  0.33299456227E+01  0.21955389333E+02  0.16217618240E+02  0.27497978107E+02  0.00000000000E+00 0.  1.
         -2    1    1    2    0  502 -0.33299456227E+01 -0.21955389333E+02 -0.10477877414E+01  0.22231183454E+02  0.00000000000E+00 0.  1.
<mgrwt>
<rscale>  2 0.22206478E+02</rscale>
<asrwt>0</asrwt>
<pdfrwt beam="1">  1        2 0.49922302E-02 0.22206478E+02</pdfrwt>
<pdfrwt beam="2">  1       -2 0.26584101E-02 0.22206478E+02</pdfrwt>
<totfact> 0.44181886E+05</totfact>
</mgrwt>
</event>
<event>
 4    1  0.1474645E+004  0.2231281E+02  0.7546771E-02  0.1702898E+00
          2   -1    0    0  501    0  0.00000000000E+00  0.00000000000E+00  0.78183798773E+03  0.78183798773E+03  0.00000000000E+00 0.  1.
         -2   -1    0    0    0  501 -0.00000000000E+00 -0.00000000000E+00 -0.84528528831E+00  0.84528528831E+00  0.00000000000E+00 0. -1.
          2    1    1    2  502    0 -0.22280687363E+02  0.11965896020E+01  0.19613487372E+03  0.19739997352E+03  0.00000000000E+00 0. -1.
         -2    1    1    2    0  502  0.22280687363E+02 -0.11965896020E+01  0.58485782872E+03  0.58528329950E+03  0.00000000000E+00 0.  1.
<mgrwt>
<rscale>  2 0.22312807E+02</rscale>
<asrwt>0</asrwt>
<pdfrwt beam="1">  1        2 0.12028219E+00 0.22312807E+02</pdfrwt>
<pdfrwt beam="2">  1       -2 0.13004452E-03 0.22312807E+02</pdfrwt>
<totfact> 0.83829337E+05</totfact>
</mgrwt>
</event>
<event>
 4    1  0.1474645E+004  0.4370685E+02  0.7546771E-02  0.1482580E+00
         -2   -1    0    0    0  501 -0.00000000000E+00  0.00000000000E+00  0.57558835642E+02  0.57558835642E+02  0.00000000000E+00 0.  1.
          2   -1    0    0  501    0  0.00000000000E+00 -0.00000000000E+00 -0.25929411562E+03  0.25929411562E+03  0.00000000000E+00 0. -1.
          2    1    1    2  502    0  0.42773172332E+02  0.89857993288E+01 -0.24880816223E+03  0.25261787437E+03  0.00000000000E+00 0. -1.
         -2    1    1    2    0  502 -0.42773172332E+02 -0.89857993288E+01  0.47072882245E+02  0.64235076895E+02  0.00000000000E+00 0.  1.
<mgrwt>
<rscale>  2 0.43706851E+02</rscale>
<asrwt>0</asrwt>
<pdfrwt beam="2">  1        2 0.39891403E-01 0.43706851E+02</pdfrwt>
<pdfrwt beam="1">  1       -2 0.88552054E-02 0.43706851E+02</pdfrwt>
<totfact> 0.87976525E+03</totfact>
</mgrwt>
</event>
<event>
 4    1  0.1474645E+004  0.4055513E+02  0.7546771E-02  0.1504166E+00
         -2   -1    0    0    0  501 -0.00000000000E+00  0.00000000000E+00  0.69068812117E+02  0.69068812117E+02  0.00000000000E+00 0.  1.
          2   -1    0    0  501    0  0.00000000000E+00 -0.00000000000E+00 -0.12066416219E+04  0.12066416219E+04  0.00000000000E+00 0. -1.
          2    1    1    2  502    0 -0.34363065274E+02  0.21538291851E+02 -0.12003163085E+04  0.12010012318E+04  0.00000000000E+00 0. -1.
         -2    1    1    2    0  502  0.34363065274E+02 -0.21538291851E+02  0.62743498709E+02  0.74709202252E+02  0.00000000000E+00 0.  1.
<mgrwt>
<rscale>  2 0.40555126E+02</rscale>
<asrwt>0</asrwt>
<pdfrwt beam="2">  1        2 0.18563717E+00 0.40555126E+02</pdfrwt>
<pdfrwt beam="1">  1       -2 0.10625971E-01 0.40555126E+02</pdfrwt>
<totfact> 0.11925553E+03</totfact>
</mgrwt>
</event>
<event>
 4    1  0.1474645E+004  0.2439837E+02  0.7546771E-02  0.1669797E+00
         -2   -1    0    0    0  501 -0.00000000000E+00  0.00000000000E+00  0.38211764046E+00  0.38211764046E+00  0.00000000000E+00 0. -1.
          2   -1    0    0  501    0  0.00000000000E+00 -0.00000000000E+00 -0.18236184276E+04  0.18236184276E+04  0.00000000000E+00 0.  1.
          2    1    1    2  502    0 -0.23455941104E+02 -0.67156054271E+01 -0.12597812609E+04  0.12600175022E+04  0.00000000000E+00 0.  1.
         -2    1    1    2    0  502  0.23455941104E+02  0.67156054271E+01 -0.56345504908E+03  0.56398304307E+03  0.00000000000E+00 0. -1.
<mgrwt>
<rscale>  2 0.24398371E+02</rscale>
<asrwt>0</asrwt>
<pdfrwt beam="2">  1        2 0.28056104E+00 0.24398371E+02</pdfrwt>
<pdfrwt beam="1">  1       -2 0.58786417E-04 0.24398371E+02</pdfrwt>
<totfact> 0.72635302E+05</totfact>
</mgrwt>
</event>
<event>
 4    1  0.1474645E+004  0.2377891E+02  0.7546771E-02  0.1679187E+00
          2   -1    0    0  501    0  0.00000000000E+00  0.00000000000E+00  0.14425452434E+03  0.14425452434E+03  0.00000000000E+00 0.  1.
         -2   -1    0    0    0  501 -0.00000000000E+00 -0.00000000000E+00 -0.10052453498E+02  0.10052453498E+02  0.00000000000E+00 0.  1.
          2    1    1    2  502    0  0.13676958421E+02 -0.19451921682E+02  0.12736348756E+03  0.12956424820E+03  0.00000000000E+00 0.  1.
         -2    1    1    2    0  502 -0.13676958421E+02  0.19451921682E+02  0.68385832891E+01  0.24742729643E+02  0.00000000000E+00 0.  1.
<mgrwt>
<rscale>  2 0.23778908E+02</rscale>
<asrwt>0</asrwt>
<pdfrwt beam="1">  1        2 0.22193002E-01 0.23778908E+02</pdfrwt>
<pdfrwt beam="2">  1       -2 0.15465314E-02 0.23778908E+02</pdfrwt>
<totfact> 0.17294942E+05</totfact>
</mgrwt>
</event>
<event>
 4    1  0.1474645E+004  0.2422066E+02  0.7546771E-02  0.1672455E+00
          2   -1    0    0  501    0  0.00000000000E+00  0.00000000000E+00  0.89934312233E+01  0.89934312233E+01  0.00000000000E+00 0. -1.
         -2   -1    0    0    0  501 -0.00000000000E+00 -0.00000000000E+00 -0.53313500861E+03  0.53313500861E+03  0.00000000000E+00 0. -1.
          2    1    1    2  502    0  0.22714812766E+02 -0.84070061739E+01 -0.81299817281E+01  0.25548719629E+02  0.00000000000E+00 0. -1.
         -2    1    1    2    0  502 -0.22714812766E+02  0.84070061739E+01 -0.51601159565E+03  0.51657972020E+03  0.00000000000E+00 0. -1.
<mgrwt>
<rscale>  2 0.24220662E+02</rscale>
<asrwt>0</asrwt>
<pdfrwt beam="1">  1        2 0.13836048E-02 0.24220662E+02</pdfrwt>
<pdfrwt beam="2">  1       -2 0.82020771E-01 0.24220662E+02</pdfrwt>
<totfact> 0.88904190E+03</totfact>
</mgrwt>
</event>
<event>
 4    1  0.1474645E+004  0.3786767E+02  0.7546771E-02  0.1524516E+00
          2   -1    0    0  501    0  0.00000000000E+00  0.00000000000E+00  0.18699923370E+04  0.18699923370E+04  0.00000000000E+00 0. -1.
         -2   -1    0    0    0  501 -0.00000000000E+00 -0.00000000000E+00 -0.82858056728E+00  0.82858056728E+00  0.00000000000E+00 0. -1.
          2    1    1    2  502    0  0.18629414433E+02 -0.32968251608E+02  0.11899494341E+04  0.11905518117E+04  0.00000000000E+00 0. -1.
         -2    1    1    2    0  502 -0.18629414433E+02  0.32968251608E+02  0.67921432234E+03  0.68026910585E+03  0.00000000000E+00 0. -1.
<mgrwt>
<rscale>  2 0.37867673E+02</rscale>
<asrwt>0</asrwt>
<pdfrwt beam="1">  1        2 0.28768775E+00 0.37867673E+02</pdfrwt>
<pdfrwt beam="2">  1       -2 0.12747543E-03 0.37867673E+02</pdfrwt>
<totfact> 0.27193273E+05</totfact>
</mgrwt>
</event>
<event>
 4    1  0.1474645E+004  0.2654746E+02  0.7546771E-02  0.1639721E+00
         -2   -1    0    0    0  501 -0.00000000000E+00  0.00000000000E+00  0.11545503324E+02  0.11545503324E+02  0.00000000000E+00 0. -1.
          2   -1    0    0  501    0  0.00000000000E+00 -0.00000000000E+00 -0.11052658638E+04  0.11052658638E+04  0.00000000000E+00 0.  1.
          2    1    1    2  502    0 -0.76809734262E+01  0.25412015761E+02 -0.10896267958E+04  0.10899501466E+04  0.00000000000E+00 0.  1.
         -2    1    1    2    0  502  0.76809734262E+01 -0.25412015761E+02 -0.40935646808E+01  0.26861220553E+02  0.00000000000E+00 0. -1.
<mgrwt>
<rscale>  2 0.26547465E+02</rscale>
<asrwt>0</asrwt>
<pdfrwt beam="2">  1        2 0.17004088E+00 0.26547465E+02</pdfrwt>
<pdfrwt beam="1">  1       -2 0.17762315E-02 0.26547465E+02</pdfrwt>
<totfact> 0.17068542E+04</totfact>
</mgrwt>
</event>
<event>
 4    1  0.1474645E+004  0.2024970E+02  0.7546771E-02  0.1740408E+00
          2   -1    0    0  501    0  0.00000000000E+00  0.00000000000E+00  0.22818615862E+01  0.22818615862E+01  0.00000000000E+00 0.  1.
         -2   -1    0    0    0  501 -0.00000000000E+00 -0.00000000000E+00 -0.18007085656E+03  0.18007085656E+03  0.00000000000E+00 0.  1.
          2    1    1    2  502    0 -0.53684912642E+01  0.19525100551E+02 -0.84756077221E+02  0.87141510635E+02  0.00000000000E+00 0.  1.
         -2    1    1    2    0  502  0.53684912642E+01 -0.19525100551E+02 -0.93032917750E+02  0.95211207508E+02  0.00000000000E+00 0.  1.
<mgrwt>
<rscale>  2 0.20249698E+02</rscale>
<asrwt>0</asrwt>
<pdfrwt beam="1">  1        2 0.35105569E-03 0.20249698E+02</pdfrwt>
<pdfrwt beam="2">  1       -2 0.27703204E-01 0.20249698E+02</pdfrwt>
<totfact> 0.39370736E+05</totfact>
</mgrwt>
</event>
<event>
 4    1  0.1474645E+004  0.2137418E+02  0.7546771E-02  0.1719306E+00
          2   -1    0    0  501    0  0.00000000000E+00  0.00000000000E+00  0.39260687659E+03  0.39260687659E+03  0.00000000000E+00 0. -1.
         -2   -1    0    0    0  501 -0.00000000000E+00 -0.00000000000E+00 -0.18161100698E+02  0.18161100698E+02  0.00000000000E+00 0. -1.
          2    1    1    2  502    0  0.21335257216E+02  0.12892532698E+01  0.38591812113E+03  0.38650957504E+03  0.00000000000E+00 0. -1.
         -2    1    1    2    0  502 -0.21335257216E+02 -0.12892532698E+01 -0.11472345242E+02  0.24258402252E+02  0.00000000000E+00 0. -1.
<mgrwt>
<rscale>  2 0.21374175E+02</rscale>
<asrwt>0</asrwt>
<pdfrwt beam="1">  1        2 0.60401051E-01 0.21374175E+02</pdfrwt>
<pdfrwt beam="2">  1       -2 0.27940158E-02 0.21374175E+02</pdfrwt>
<totfact> 0.27495613E+04</totfact>
</mgrwt>
</event>
<event>
 4    1  0.1474645E+004  0.2958265E+02  0.7546771E-02  0.1602748E+00
          2   -1    0    0  501    0  0.00000000000E+00  0.00000000000E+00  0.15609471780E+04  0.15609471780E+04  0.00000000000E+00 0. -1.
         -2   -1    0    0    0  501 -0.00000000000E+00 -0.00000000000E+00 -0.85485219936E+01  0.85485219936E+01  0.00000000000E+00 0.  1.
          2    1    1    2  502    0 -0.11571313090E+02  0.27225684583E+02  0.15347775536E+04  0.15350626281E+04  0.00000000000E+00 0. -1.
         -2    1    1    2    0  502  0.11571313090E+02 -0.27225684583E+02  0.17621102357E+02  0.34433071833E+02  0.00000000000E+00 0.  1.
<mgrwt>
<rscale>  2 0.29582650E+02</rscale>
<asrwt>0</asrwt>
<pdfrwt beam="1">  1        2 0.24014549E+00 0.29582650E+02</pdfrwt>
<pdfrwt beam="2">  1       -2 0.13151585E-02 0.29582650E+02</pdfrwt>
<totfact> 0.15556417E+04</totfact>
</mgrwt>
</event>
<event>
 4    1  0.1474645E+004  0.3429061E+02  0.7546771E-02  0.1554992E+00
         -2   -1    0    0    0  501 -0.00000000000E+00  0.00000000000E+00  0.39718152022E+02  0.39718152022E+02  0.00000000000E+00 0. -1.
          2   -1    0    0  501    0  0.00000000000E+00 -0.00000000000E+00 -0.39480538453E+03  0.39480538453E+03  0.00000000000E+00 0. -1.
          2    1    1    2  502    0  0.20233522741E+02  0.27684840416E+02 -0.38650091241E+03  0.38801907315E+03  0.00000000000E+00 0. -1.
         -2    1    1    2    0  502 -0.20233522741E+02 -0.27684840416E+02  0.31413679904E+02  0.46504463403E+02  0.00000000000E+00 0. -1.
<mgrwt>
<rscale>  2 0.34290609E+02</rscale>
<asrwt>0</asrwt>
<pdfrwt beam="2">  1        2 0.60739293E-01 0.34290609E+02</pdfrwt>
<pdfrwt beam="1">  1       -2 0.61104846E-02 0.34290609E+02</pdfrwt>
<totfact> 0.96910148E+03</totfact>
</mgrwt>
</event>
<event>
 4    1  0.1474645E+004  0.2722661E+02  0.7546771E-02  0.1630937E+00
         -2   -1    0    0    0  501 -0.00000000000E+00  0.00000000000E+00  0.20371559208E+01  0.20371559208E+01  0.00000000000E+00 0. -1.
          2   -1    0    0  501    0  0.00000000000E+00 -0.00000000000E+00 -0.46604646013E+03  0.46604646013E+03  0.00000000000E+00 0. -1.
          2    1    1    2  502    0  0.22942440927E+02  0.14660591378E+02 -0.34158291584E+03  0.34266627632E+03  0.00000000000E+00 0. -1.
         -2    1    1    2    0  502 -0.22942440927E+02 -0.14660591378E+02 -0.12242638836E+03  0.12541733972E+03  0.00000000000E+00 0. -1.
<mgrwt>
<rscale>  2 0.27226614E+02</rscale>
<asrwt>0</asrwt>
<pdfrwt beam="2">  1        2 0.71699458E-01 0.27226614E+02</pdfrwt>
<pdfrwt beam="1">  1       -2 0.31340859E-03 0.27226614E+02</pdfrwt>
<totfact> 0.47620246E+05</totfact>
</mgrwt>
</event>
<event>
 4    1  0.1474645E+004  0.2435014E+02  0.7546771E-02  0.1670515E+00
         -2   -1    0    0    0  501 -0.00000000000E+00  0.00000000000E+00  0.11008499287E+02  0.11008499287E+02  0.00000000000E+00 0. -1.
          2   -1    0    0  501    0  0.00000000000E+00 -0.00000000000E+00 -0.97943800348E+03  0.97943800348E+03  0.00000000000E+00 0. -1.
          2    1    1    2  502    0 -0.14485059919E+02  0.19573251839E+02 -0.96562886935E+03  0.96593583766E+03  0.00000000000E+00 0. -1.
         -2    1    1    2    0  502  0.14485059919E+02 -0.19573251839E+02 -0.28006348391E+01  0.24510665105E+02  0.00000000000E+00 0. -1.
<mgrwt>
<rscale>  2 0.24350137E+02</rscale>
<asrwt>0</asrwt>
<pdfrwt beam="2">  1        2 0.15068282E+00 0.24350137E+02</pdfrwt>
<pdfrwt beam="1">  1       -2 0.16936147E-02 0.24350137E+02</pdfrwt>
<totfact> 0.21029315E+04</totfact>
</mgrwt>
</event>
<event>
 4    1  0.1474645E+004  0.2261507E+02  0.7546771E-02  0.1697827E+00
          2   -1    0    0  501    0  0.00000000000E+00  0.00000000000E+00  0.16405625334E+03  0.16405625334E+03  0.00000000000E+00 0.  1.
         -2   -1    0    0    0  501 -0.00000000000E+00 -0.00000000000E+00 -0.57822398486E+02  0.57822398486E+02  0.00000000000E+00 0.  1.
          2    1    1    2  502    0 -0.17977651679E+02  0.13720256756E+02  0.16102419008E+03  0.16260452391E+03  0.00000000000E+00 0.  1.
         -2    1    1    2    0  502  0.17977651679E+02 -0.13720256756E+02 -0.54790335228E+02  0.59274127913E+02  0.00000000000E+00 0.  1.
<mgrwt>
<rscale>  2 0.22615070E+02</rscale>
<asrwt>0</asrwt>
<pdfrwt beam="1">  1        2 0.25239423E-01 0.22615070E+02</pdfrwt>
<pdfrwt beam="2">  1       -2 0.88957537E-02 0.22615070E+02</pdfrwt>
<totfact> 0.12763586E+04</totfact>
</mgrwt>
</event>
<event>
 4    1  0.1474645E+004  0.8016858E+02  0.7546771E-02  0.1328574E+00
          2   -1    0    0  501    0  0.00000000000E+00  0.00000000000E+00  0.32865360950E+04  0.32865360950E+04  0.00000000000E+00 0. -1.
         -2   -1    0    0    0  501 -0.00000000000E+00 -0.00000000000E+00 -0.26407759546E+01  0.26407759546E+01  0.00000000000E+00 0.  1.
          2    1    1    2  502    0  0.75177597796E+02 -0.27844625501E+02  0.80421101066E+03  0.80819697107E+03  0.00000000000E+00 0.  1.
         -2    1    1    2    0  502 -0.75177597796E+02  0.27844625501E+02  0.24796843084E+04  0.24809798999E+04  0.00000000000E+00 0. -1.
<mgrwt>
<rscale>  2 0.80168577E+02</rscale>
<asrwt>0</asrwt>
<pdfrwt beam="1">  1        2 0.50561767E+00 0.80168577E+02</pdfrwt>
<pdfrwt beam="2">  1       -2 0.40627585E-03 0.80168577E+02</pdfrwt>
<totfact> 0.10795790E+04</totfact>
</mgrwt>
</event>
<event>
 4    1  0.1474645E+004  0.2205242E+02  0.7546771E-02  0.1707347E+00
          2   -1    0    0  501    0  0.00000000000E+00  0.00000000000E+00  0.71148869124E+03  0.71148869124E+03  0.00000000000E+00 0.  1.
         -2   -1    0    0    0  501 -0.00000000000E+00 -0.00000000000E+00 -0.99812128109E+00  0.99812128109E+00  0.00000000000E+00 0. -1.
          2    1    1    2  502    0  0.18644997508E+02  0.11775964374E+02  0.55525112549E+03  0.55568887124E+03  0.00000000000E+00 0.  1.
         -2    1    1    2    0  502 -0.18644997508E+02 -0.11775964374E+02  0.15523944447E+03  0.15679794128E+03  0.00000000000E+00 0. -1.
<mgrwt>
<rscale>  2 0.22052421E+02</rscale>
<asrwt>0</asrwt>
<pdfrwt beam="1">  1        2 0.10945939E+00 0.22052421E+02</pdfrwt>
<pdfrwt beam="2">  1       -2 0.15355769E-03 0.22052421E+02</pdfrwt>
<totfact> 0.74454067E+05</totfact>
</mgrwt>
</event>
<event>
 4    1  0.1474645E+004  0.2292258E+02  0.7546771E-02  0.1692768E+00
         -2   -1    0    0    0  501 -0.00000000000E+00  0.00000000000E+00  0.47374872178E+02  0.47374872178E+02  0.00000000000E+00 0. -1.
          2   -1    0    0  501    0  0.00000000000E+00 -0.00000000000E+00 -0.11796795472E+04  0.11796795472E+04  0.00000000000E+00 0.  1.
          2    1    1    2  502    0 -0.25899481183E+01 -0.22775796192E+02 -0.11767885799E+04  0.11770118124E+04  0.00000000000E+00 0.  1.
         -2    1    1    2    0  502  0.25899481183E+01  0.22775796192E+02  0.44483904865E+02  0.50042607001E+02  0.00000000000E+00 0. -1.
<mgrwt>
<rscale>  2 0.22922581E+02</rscale>
<asrwt>0</asrwt>
<pdfrwt beam="2">  1        2 0.18148915E+00 0.22922581E+02</pdfrwt>
<pdfrwt beam="1">  1       -2 0.72884423E-02 0.22922581E+02</pdfrwt>
<totfact> 0.21172821E+03</totfact>
</mgrwt>
</event>
<event>
 4    1  0.1474645E+004  0.5264397E+02  0.7546771E-02  0.1431581E+00
         -2   -1    0    0    0  501 -0.00000000000E+00  0.00000000000E+00  0.95950583333E+02  0.95950583333E+02  0.00000000000E+00 0. -1.
          2   -1    0    0  501    0  0.00000000000E+00 -0.00000000000E+00 -0.39101597400E+02  0.39101597400E+02  0.00000000000E+00 0.  1.
          2    1    1    2  502    0 -0.50709119604E+02 -0.14141165611E+02 -0.60946227869E+01  0.52995582861E+02  0.00000000000E+00 0.  1.
         -2    1    1    2    0  502  0.50709119604E+02  0.14141165611E+02  0.62943608720E+02  0.82056597873E+02  0.00000000000E+00 0. -1.
<mgrwt>
<rscale>  2 0.52643968E+02</rscale>
<asrwt>0</asrwt>
<pdfrwt beam="2">  1        2 0.60156304E-02 0.52643968E+02</pdfrwt>
<pdfrwt beam="1">  1       -2 0.14761628E-01 0.52643968E+02</pdfrwt>
<totfact> 0.34609705E+04</totfact>
</mgrwt>
</event>
<event>
 4    1  0.1474645E+004  0.2177952E+02  0.7546771E-02  0.1712093E+00
         -2   -1    0    0    0  501 -0.00000000000E+00  0.00000000000E+00  0.79350060197E+01  0.79350060197E+01  0.00000000000E+00 0. -1.
          2   -1    0    0  501    0  0.00000000000E+00 -0.00000000000E+00 -0.11891800465E+04  0.11891800465E+04  0.00000000000E+00 0.  1.
          2    1    1    2  502    0  0.10468248498E+02 -0.19098780622E+02 -0.11739415702E+04  0.11741435849E+04  0.00000000000E+00 0.  1.
         -2    1    1    2    0  502 -0.10468248498E+02  0.19098780622E+02 -0.73034702809E+01  0.22971467650E+02  0.00000000000E+00 0. -1.
<mgrwt>
<rscale>  2 0.21779524E+02</rscale>
<asrwt>0</asrwt>
<pdfrwt beam="2">  1        2 0.18295088E+00 0.21779524E+02</pdfrwt>
<pdfrwt beam="1">  1       -2 0.12207695E-02 0.21779524E+02</pdfrwt>
<totfact> 0.25088300E+04</totfact>
</mgrwt>
</event>
<event>
 4    1  0.1474645E+004  0.2232094E+02  0.7546771E-02  0.1702760E+00
          2   -1    0    0  501    0  0.00000000000E+00  0.00000000000E+00  0.15504646921E+04  0.15504646921E+04  0.00000000000E+00 0.  1.
         -2   -1    0    0    0  501 -0.00000000000E+00 -0.00000000000E+00 -0.19523447080E+02  0.19523447080E+02  0.00000000000E+00 0. -1.
          2    1    1    2  502    0  0.19873422529E+02 -0.10162258133E+02  0.15439777330E+04  0.15441390690E+04  0.00000000000E+00 0.  1.
         -2    1    1    2    0  502 -0.19873422529E+02  0.10162258133E+02 -0.13036487940E+02  0.25849070220E+02  0.00000000000E+00 0. -1.
<mgrwt>
<rscale>  2 0.22320941E+02</rscale>
<asrwt>0</asrwt>
<pdfrwt beam="1">  1        2 0.23853293E+00 0.22320941E+02</pdfrwt>
<pdfrwt beam="2">  1       -2 0.30036085E-02 0.22320941E+02</pdfrwt>
<totfact> 0.49141715E+03</totfact>
</mgrwt>
</event>
<event>
 4    1  0.1474645E+004  0.2189367E+02  0.7546771E-02  0.1710097E+00
         -2   -1    0    0    0  501 -0.00000000000E+00  0.00000000000E+00  0.11325394973E+02  0.11325394973E+02  0.00000000000E+00 0.  1.
          2   -1    0    0  501    0  0.00000000000E+00 -0.00000000000E+00 -0.44455034015E+02  0.44455034015E+02  0.00000000000E+00 0.  1.
          2    1    1    2  502    0  0.20191785127E+02  0.84631320567E+01 -0.22671646215E+02  0.31517238663E+02  0.00000000000E+00 0.  1.
         -2    1    1    2    0  502 -0.20191785127E+02 -0.84631320567E+01 -0.10457992827E+02  0.24263190326E+02  0.00000000000E+00 0.  1.
<mgrwt>
<rscale>  2 0.21893670E+02</rscale>
<asrwt>0</asrwt>
<pdfrwt beam="2">  1        2 0.68392358E-02 0.21893670E+02</pdfrwt>
<pdfrwt beam="1">  1       -2 0.17423685E-02 0.21893670E+02</pdfrwt>
<totfact> 0.53723236E+05</totfact>
</mgrwt>
</event>
<event>
 4    1  0.1474645E+004  0.2305140E+02  0.7546771E-02  0.1690678E+00
          2   -1    0    0  501    0  0.00000000000E+00  0.00000000000E+00  0.16084626141E+03  0.16084626141E+03  0.00000000000E+00 0.  1.
         -2   -1    0    0    0  501 -0.00000000000E+00 -0.00000000000E+00 -0.70683370739E+02  0.70683370739E+02  0.00000000000E+00 0.  1.
          2    1    1    2  502    0  0.21424846717E+02  0.85054567295E+01  0.15810860705E+03  0.15978015670E+03  0.00000000000E+00 0.  1.
         -2    1    1    2    0  502 -0.21424846717E+02 -0.85054567295E+01 -0.67945716387E+02  0.71749475444E+02  0.00000000000E+00 0.  1.
<mgrwt>
<rscale>  2 0.23051396E+02</rscale>
<asrwt>0</asrwt>
<pdfrwt beam="1">  1        2 0.24745579E-01 0.23051396E+02</pdfrwt>
<pdfrwt beam="2">  1       -2 0.10874365E-01 0.23051396E+02</pdfrwt>
<totfact> 0.96922934E+03</totfact>
</mgrwt>
</event>
<event>
 4    1  0.1474645E+004  0.2152784E+02  0.7546771E-02  0.1716548E+00
          2   -1    0    0  501    0  0.00000000000E+00  0.00000000000E+00  0.51984320152E+03  0.51984320152E+03  0.00000000000E+00 0.  1.
         -2   -1    0    0    0  501 -0.00000000000E+00 -0.00000000000E+00 -0.89671746864E+00  0.89671746864E+00  0.00000000000E+00 0.  1.
          2    1    1    2  502    0  0.16639692138E+02 -0.13659015663E+02  0.27930511165E+03  0.28013352790E+03  0.00000000000E+00 0.  1.
         -2    1    1    2    0  502 -0.16639692138E+02  0.13659015663E+02  0.23964137241E+03  0.24060639109E+03  0.00000000000E+00 0.  1.
<mgrwt>
<rscale>  2 0.21527844E+02</rscale>
<asrwt>0</asrwt>
<pdfrwt beam="1">  1        2 0.79975636E-01 0.21527844E+02</pdfrwt>
<pdfrwt beam="2">  1       -2 0.13795695E-03 0.21527844E+02</pdfrwt>
<totfact> 0.11809590E+06</totfact>
</mgrwt>
</event>
<event>
 4    1  0.1474645E+004  0.2432360E+02  0.7546771E-02  0.1670912E+00
         -2   -1    0    0    0  501 -0.00000000000E+00  0.00000000000E+00  0.17921314090E+01  0.17921314090E+01  0.00000000000E+00 0.  1.
          2   -1    0    0  501    0  0.00000000000E+00 -0.00000000000E+00 -0.14304476744E+04  0.14304476744E+04  0.00000000000E+00 0. -1.
          2    1    1    2  502    0  0.21479152792E+02 -0.11414190400E+02 -0.13423986338E+04  0.13426189816E+04  0.00000000000E+00 0. -1.
         -2    1    1    2    0  502 -0.21479152792E+02  0.11414190400E+02 -0.86256909181E+02  0.89620824190E+02  0.00000000000E+00 0.  1.
<mgrwt>
<rscale>  2 0.24323605E+02</rscale>
<asrwt>0</asrwt>
<pdfrwt beam="2">  1        2 0.22006979E+00 0.24323605E+02</pdfrwt>
<pdfrwt beam="1">  1       -2 0.27571138E-03 0.24323605E+02</pdfrwt>
<totfact> 0.14380172E+05</totfact>
</mgrwt>
</event>
<event>
 4    1  0.1474645E+004  0.2858211E+02  0.7546771E-02  0.1614312E+00
         -2   -1    0    0    0  501 -0.00000000000E+00  0.00000000000E+00  0.90783929487E+02  0.90783929487E+02  0.00000000000E+00 0.  1.
          2   -1    0    0  501    0  0.00000000000E+00 -0.00000000000E+00 -0.39989512726E+02  0.39989512726E+02  0.00000000000E+00 0. -1.
          2    1    1    2  502    0 -0.24051343294E+02  0.15442472791E+02 -0.32164411463E+02  0.43028902437E+02  0.00000000000E+00 0. -1.
         -2    1    1    2    0  502  0.24051343294E+02 -0.15442472791E+02  0.82958828224E+02  0.87744539776E+02  0.00000000000E+00 0.  1.
<mgrwt>
<rscale>  2 0.28582111E+02</rscale>
<asrwt>0</asrwt>
<pdfrwt beam="2">  1        2 0.61522328E-02 0.28582111E+02</pdfrwt>
<pdfrwt beam="1">  1       -2 0.13966758E-01 0.28582111E+02</pdfrwt>
<totfact> 0.32970686E+04</totfact>
</mgrwt>
</event>
<event>
 4    1  0.1474645E+004  0.2517719E+02  0.7546771E-02  0.1658470E+00
          2   -1    0    0  501    0  0.00000000000E+00  0.00000000000E+00  0.42402309622E+02  0.42402309622E+02  0.00000000000E+00 0.  1.
         -2   -1    0    0    0  501 -0.00000000000E+00 -0.00000000000E+00 -0.26828498317E+03  0.26828498317E+03  0.00000000000E+00 0.  1.
          2    1    1    2  502    0  0.39507204541E+01  0.24865292001E+02  0.38012227805E+02  0.45594082961E+02  0.00000000000E+00 0.  1.
         -2    1    1    2    0  502 -0.39507204541E+01 -0.24865292001E+02 -0.26389490136E+03  0.26509320983E+03  0.00000000000E+00 0.  1.
<mgrwt>
<rscale>  2 0.25177191E+02</rscale>
<asrwt>0</asrwt>
<pdfrwt beam="1">  1        2 0.65234322E-02 0.25177191E+02</pdfrwt>
<pdfrwt beam="2">  1       -2 0.41274613E-01 0.25177191E+02</pdfrwt>
<totfact> 0.49107285E+03</totfact>
</mgrwt>
</event>
<event>
 4    1  0.1474645E+004  0.7268034E+02  0.7546771E-02  0.1351209E+00
         -2   -1    0    0    0  501 -0.00000000000E+00  0.00000000000E+00  0.81602666501E+02  0.81602666501E+02  0.00000000000E+00 0. -1.
          2   -1    0    0  501    0  0.00000000000E+00 -0.00000000000E+00 -0.17498325306E+04  0.17498325306E+04  0.00000000000E+00 0.  1.
          2    1    1    2  502    0 -0.20243432981E+02 -0.69804259443E+02 -0.17327348160E+04  0.17342584507E+04  0.00000000000E+00 0.  1.
         -2    1    1    2    0  502  0.20243432981E+02  0.69804259443E+02  0.64504951926E+02  0.97176746386E+02  0.00000000000E+00 0. -1.
<mgrwt>
<rscale>  2 0.72680336E+02</rscale>
<asrwt>0</asrwt>
<pdfrwt beam="2">  1        2 0.26920499E+00 0.72680336E+02</pdfrwt>
<pdfrwt beam="1">  1       -2 0.12554257E-01 0.72680336E+02</pdfrwt>
<totfact> 0.48840488E+02</totfact>
</mgrwt>
</event>
<event>
 4    1  0.1474645E+004  0.2874107E+02  0.7546771E-02  0.1612436E+00
          2   -1    0    0  501    0  0.00000000000E+00  0.00000000000E+00  0.11888597292E+03  0.11888597292E+03  0.00000000000E+00 0. -1.
         -2   -1    0    0    0  501 -0.00000000000E+00 -0.00000000000E+00 -0.95873362194E+02  0.95873362194E+02  0.00000000000E+00 0.  1.
          2    1    1    2  502    0 -0.27507732037E+02  0.83291091145E+01  0.11492172264E+03  0.11846118232E+03  0.00000000000E+00 0. -1.
         -2    1    1    2    0  502  0.27507732037E+02 -0.83291091145E+01 -0.91909111912E+02  0.96298152802E+02  0.00000000000E+00 0.  1.
<mgrwt>
<rscale>  2 0.28741075E+02</rscale>
<asrwt>0</asrwt>
<pdfrwt beam="1">  1        2 0.18290150E-01 0.28741075E+02</pdfrwt>
<pdfrwt beam="2">  1       -2 0.14749748E-01 0.28741075E+02</pdfrwt>
<totfact> 0.86401698E+03</totfact>
</mgrwt>
</event>
<event>
 4    1  0.1474645E+004  0.2540386E+02  0.7546771E-02  0.1655268E+00
         -2   -1    0    0    0  501 -0.00000000000E+00  0.00000000000E+00  0.22745083605E+02  0.22745083605E+02  0.00000000000E+00 0.  1.
          2   -1    0    0  501    0  0.00000000000E+00 -0.00000000000E+00 -0.12957326624E+04  0.12957326624E+04  0.00000000000E+00 0. -1.
          2    1    1    2  502    0  0.22920096051E+02 -0.10955602970E+02 -0.12884748371E+04  0.12887252469E+04  0.00000000000E+00 0. -1.
         -2    1    1    2    0  502 -0.22920096051E+02  0.10955602970E+02  0.15487258267E+02  0.29752499190E+02  0.00000000000E+00 0.  1.
<mgrwt>
<rscale>  2 0.25403859E+02</rscale>
<asrwt>0</asrwt>
<pdfrwt beam="2">  1        2 0.19934345E+00 0.25403859E+02</pdfrwt>
<pdfrwt beam="1">  1       -2 0.34992443E-02 0.25403859E+02</pdfrwt>
<totfact> 0.53103684E+03</totfact>
</mgrwt>
</event>
<event>
 4    1  0.1474645E+004  0.2031241E+02  0.7546771E-02  0.1739186E+00
          2   -1    0    0  501    0  0.00000000000E+00  0.00000000000E+00  0.23438979619E+03  0.23438979619E+03  0.00000000000E+00 0. -1.
         -2   -1    0    0    0  501 -0.00000000000E+00 -0.00000000000E+00 -0.20517938543E+01  0.20517938543E+01  0.00000000000E+00 0. -1.
          2    1    1    2  502    0 -0.20201001121E+02 -0.21245349875E+01  0.16072938334E+03  0.16200780464E+03  0.00000000000E+00 0. -1.
         -2    1    1    2    0  502  0.20201001121E+02  0.21245349875E+01  0.71608618988E+02  0.74433785397E+02  0.00000000000E+00 0. -1.
<mgrwt>
<rscale>  2 0.20312412E+02</rscale>
<asrwt>0</asrwt>
<pdfrwt beam="1">  1        2 0.36059948E-01 0.20312412E+02</pdfrwt>
<pdfrwt beam="2">  1       -2 0.31566078E-03 0.20312412E+02</pdfrwt>
<totfact> 0.85170973E+05</totfact>
</mgrwt>
</event>
<event>
 4    1  0.1474645E+004  0.2937236E+02  0.7546771E-02  0.1605132E+00
         -2   -1    0    0    0  501 -0.00000000000E+00  0.00000000000E+00  0.56497109647E+02  0.56497109647E+02  0.00000000000E+00 0.  1.
          2   -1    0    0  501    0  0.00000000000E+00 -0.00000000000E+00 -0.21293674337E+02  0.21293674337E+02  0.00000000000E+00 0. -1.
          2    1    1    2  502    0  0.24387358991E+02 -0.16370477031E+02 -0.30848139849E+01  0.29533910579E+02  0.00000000000E+00 0. -1.
         -2    1    1    2    0  502 -0.24387358991E+02  0.16370477031E+02  0.38288249294E+02  0.48256873405E+02  0.00000000000E+00 0.  1.
<mgrwt>
<rscale>  2 0.29372365E+02</rscale>
<asrwt>0</asrwt>
<pdfrwt beam="2">  1        2 0.32759499E-02 0.29372365E+02</pdfrwt>
<pdfrwt beam="1">  1       -2 0.86918630E-02 0.29372365E+02</pdfrwt>
<totfact> 0.14915687E+05</totfact>
</mgrwt>
</event>
<event>
 4    1  0.1474645E+004  0.2115495E+02  0.7546771E-02  0.1723290E+00
          2   -1    0    0  501    0  0.00000000000E+00  0.00000000000E+00  0.16698348839E+01  0.16698348839E+01  0.00000000000E+00 0.  1.
         -2   -1    0    0    0  501 -0.00000000000E+00 -0.00000000000E+00 -0.28861960746E+03  0.28861960746E+03  0.00000000000E+00 0.  1.
          2    1    1    2  502    0 -0.20734301225E+02 -0.41976471210E+01 -0.18226126539E+03  0.18348487772E+03  0.00000000000E+00 0.  1.
         -2    1    1    2    0  502  0.20734301225E+02  0.41976471210E+01 -0.10468850719E+03  0.10680456463E+03  0.00000000000E+00 0.  1.
<mgrwt>
<rscale>  2 0.21154951E+02</rscale>
<asrwt>0</asrwt>
<pdfrwt beam="1">  1        2 0.25689774E-03 0.21154951E+02</pdfrwt>
<pdfrwt beam="2">  1       -2 0.44403005E-01 0.21154951E+02</pdfrwt>
<totfact> 0.26167988E+05</totfact>
</mgrwt>
</event>
<event>
 4    1  0.1474645E+004  0.2554804E+02  0.7546771E-02  0.1653253E+00
          2   -1    0    0  501    0  0.00000000000E+00  0.00000000000E+00  0.91079138139E+03  0.91079138139E+03  0.00000000000E+00 0. -1.
         -2   -1    0    0    0  501 -0.00000000000E+00 -0.00000000000E+00 -0.45909643837E+02  0.45909643837E+02  0.00000000000E+00 0. -1.
          2    1    1    2  502    0  0.11951840147E+02 -0.22579988188E+02  0.90704326224E+03  0.90740298761E+03  0.00000000000E+00 0. -1.
         -2    1    1    2    0  502 -0.11951840147E+02  0.22579988188E+02 -0.42161524684E+02  0.49298037619E+02  0.00000000000E+00 0. -1.
<mgrwt>
<rscale>  2 0.25548040E+02</rscale>
<asrwt>0</asrwt>
<pdfrwt beam="1">  1        2 0.14012174E+00 0.25548040E+02</pdfrwt>
<pdfrwt beam="2">  1       -2 0.70630228E-02 0.25548040E+02</pdfrwt>
<totfact> 0.31068103E+03</totfact>
</mgrwt>
</event>
<event>
 4    1  0.1474645E+004  0.2455660E+02  0.7546771E-02  0.1667453E+00
          2   -1    0    0  501    0  0.00000000000E+00  0.00000000000E+00  0.72003332619E+03  0.72003332619E+03  0.00000000000E+00 0.  1.
         -2   -1    0    0    0  501 -0.00000000000E+00 -0.00000000000E+00 -0.25337355438E+01  0.25337355438E+01  0.00000000000E+00 0. -1.
          2    1    1    2  502    0 -0.17293799877E+01 -0.24495633030E+02  0.65435413208E+03  0.65481475011E+03  0.00000000000E+00 0.  1.
         -2    1    1    2    0  502  0.17293799877E+01  0.24495633030E+02  0.63145458567E+02  0.67752311624E+02  0.00000000000E+00 0. -1.
<mgrwt>
<rscale>  2 0.24556604E+02</rscale>
<asrwt>0</asrwt>
<pdfrwt beam="1">  1        2 0.11077419E+00 0.24556604E+02</pdfrwt>
<pdfrwt beam="2">  1       -2 0.38980604E-03 0.24556604E+02</pdfrwt>
<totfact> 0.21950160E+05</totfact>
</mgrwt>
</event>
<event>
 4    1  0.1474645E+004  0.4325522E+02  0.7546771E-02  0.1485537E+00
         -2   -1    0    0    0  501 -0.00000000000E+00  0.00000000000E+00  0.28824910889E+01  0.28824910889E+01  0.00000000000E+00 0. -1.
          2   -1    0    0  501    0  0.00000000000E+00 -0.00000000000E+00 -0.92223572312E+03  0.92223572312E+03  0.00000000000E+00 0. -1.
          2    1    1    2  502    0 -0.36790197360E+02 -0.22748534744E+02 -0.71140861063E+03  0.71272240440E+03  0.00000000000E+00 0. -1.
         -2    1    1    2    0  502  0.36790197360E+02  0.22748534744E+02 -0.20794462140E+03  0.21239580981E+03  0.00000000000E+00 0. -1.
<mgrwt>
<rscale>  2 0.43255225E+02</rscale>
<asrwt>0</asrwt>
<pdfrwt beam="2">  1        2 0.14188245E+00 0.43255225E+02</pdfrwt>
<pdfrwt beam="1">  1       -2 0.44346007E-03 0.43255225E+02</pdfrwt>
<totfact> 0.15584763E+05</totfact>
</mgrwt>
</event>
<event>
 4    1  0.1474645E+004  0.3170749E+02  0.7546771E-02  0.1579947E+00
          2   -1    0    0  501    0  0.00000000000E+00  0.00000000000E+00  0.85489920709E+03  0.85489920709E+03  0.00000000000E+00 0.  1.
         -2   -1    0    0    0  501 -0.00000000000E+00 -0.00000000000E+00 -0.18632015328E+01  0.18632015328E+01  0.00000000000E+00 0.  1.
          2    1    1    2  502    0 -0.24743570522E+01 -0.31610801551E+02  0.68667838665E+03  0.68741004642E+03  0.00000000000E+00 0.  1.
         -2    1    1    2    0  502  0.24743570522E+01  0.31610801551E+02  0.16635761891E+03  0.16935236221E+03  0.00000000000E+00 0.  1.
<mgrwt>
<rscale>  2 0.31707495E+02</rscale>
<asrwt>0</asrwt>
<pdfrwt beam="1">  1        2 0.13152264E+00 0.31707495E+02</pdfrwt>
<pdfrwt beam="2">  1       -2 0.28664707E-03 0.31707495E+02</pdfrwt>
<totfact> 0.28983274E+05</totfact>
</mgrwt>
</event>
<event>
 4    1  0.1474645E+004  0.9719291E+02  0.7546771E-02  0.1286312E+00
         -2   -1    0    0    0  501 -0.00000000000E+00  0.00000000000E+00  0.15193017847E+02  0.15193017847E+02  0.00000000000E+00 0.  1.
          2   -1    0    0  501    0  0.00000000000E+00 -0.00000000000E+00 -0.12653953628E+04  0.12653953628E+04  0.00000000000E+00 0.  1.
          2    1    1    2  502    0 -0.19080471120E+02  0.95301608072E+02 -0.10817530820E+04  0.10861105796E+04  0.00000000000E+00 0.  1.
         -2    1    1    2    0  502  0.19080471120E+02 -0.95301608072E+02 -0.16844926296E+03  0.19447780097E+03  0.00000000000E+00 0.  1.
<mgrwt>
<rscale>  2 0.97192905E+02</rscale>
<asrwt>0</asrwt>
<pdfrwt beam="2">  1        2 0.19467615E+00 0.97192905E+02</pdfrwt>
<pdfrwt beam="1">  1       -2 0.23373881E-02 0.97192905E+02</pdfrwt>
<totfact> 0.10718446E+04</totfact>
</mgrwt>
</event>
<event>
 4    1  0.1474645E+004  0.2554017E+02  0.7546771E-02  0.1653362E+00
          2   -1    0    0  501    0  0.00000000000E+00  0.00000000000E+00  0.70043763488E+03  0.70043763488E+03  0.00000000000E+00 0.  1.
         -2   -1    0    0    0  501 -0.00000000000E+00 -0.00000000000E+00 -0.51494525640E+01  0.51494525640E+01  0.00000000000E+00 0.  1.
          2    1    1    2  502    0  0.23323200882E+02  0.10408113981E+02  0.66694671801E+03  0.66743555884E+03  0.00000000000E+00 0.  1.
         -2    1    1    2    0  502 -0.23323200882E+02 -0.10408113981E+02  0.28341464306E+02  0.38151528607E+02  0.00000000000E+00 0.  1.
<mgrwt>
<rscale>  2 0.25540175E+02</rscale>
<asrwt>0</asrwt>
<pdfrwt beam="1">  1        2 0.10775956E+00 0.25540175E+02</pdfrwt>
<pdfrwt beam="2">  1       -2 0.79222403E-03 0.25540175E+02</pdfrwt>
<totfact> 0.87893649E+04</totfact>
</mgrwt>
</event>
<event>
 4    1  0.1474645E+004  0.2491090E+02  0.7546771E-02  0.1662285E+00
          2   -1    0    0  501    0  0.00000000000E+00  0.00000000000E+00  0.14881618287E+03  0.14881618287E+03  0.00000000000E+00 0. -1.
         -2   -1    0    0    0  501 -0.00000000000E+00 -0.00000000000E+00 -0.67582792382E+01  0.67582792382E+01  0.00000000000E+00 0. -1.
          2    1    1    2  502    0 -0.24376562730E+02  0.51318714048E+01  0.11916847324E+03  0.12174431374E+03  0.00000000000E+00 0. -1.
         -2    1    1    2    0  502  0.24376562730E+02 -0.51318714048E+01  0.22889430391E+02  0.33830148363E+02  0.00000000000E+00 0. -1.
<mgrwt>
<rscale>  2 0.24910900E+02</rscale>
<asrwt>0</asrwt>
<pdfrwt beam="1">  1        2 0.22894795E-01 0.24910900E+02</pdfrwt>
<pdfrwt beam="2">  1       -2 0.10397354E-02 0.24910900E+02</pdfrwt>
<totfact> 0.29101410E+05</totfact>
</mgrwt>
</event>
<event>
 4    1  0.1474645E+004  0.3066482E+02  0.7546771E-02  0.1590854E+00
          2   -1    0    0  501    0  0.00000000000E+00  0.00000000000E+00  0.31731309821E+01  0.31731309821E+01  0.00000000000E+00 0.  1.
         -2   -1    0    0    0  501 -0.00000000000E+00 -0.00000000000E+00 -0.93297975019E+03  0.93297975019E+03  0.00000000000E+00 0. -1.
          2    1    1    2  502    0 -0.15888016342E+02 -0.26227884315E+02 -0.78245332029E+02  0.84039651137E+02  0.00000000000E+00 0.  1.
         -2    1    1    2    0  502  0.15888016342E+02  0.26227884315E+02 -0.85156128718E+03  0.85211323004E+03  0.00000000000E+00 0. -1.
<mgrwt>
<rscale>  2 0.30664817E+02</rscale>
<asrwt>0</asrwt>
<pdfrwt beam="1">  1        2 0.48817392E-03 0.30664817E+02</pdfrwt>
<pdfrwt beam="2">  1       -2 0.14353537E+00 0.30664817E+02</pdfrwt>
<totfact> 0.10292809E+04</totfact>
</mgrwt>
</event>
<event>
 4    1  0.1474645E+004  0.3153546E+02  0.7546771E-02  0.1581711E+00
          2   -1    0    0  501    0  0.00000000000E+00  0.00000000000E+00  0.59942976479E+02  0.59942976479E+02  0.00000000000E+00 0.  1.
         -2   -1    0    0    0  501 -0.00000000000E+00 -0.00000000000E+00 -0.58916943015E+02  0.58916943015E+02  0.00000000000E+00 0.  1.
          2    1    1    2  502    0 -0.13980643259E+02 -0.28267058736E+02  0.50885241310E+02  0.59864787469E+02  0.00000000000E+00 0.  1.
         -2    1    1    2    0  502  0.13980643259E+02  0.28267058736E+02 -0.49859207846E+02  0.58995132024E+02  0.00000000000E+00 0.  1.
<mgrwt>
<rscale>  2 0.31535456E+02</rscale>
<asrwt>0</asrwt>
<pdfrwt beam="1">  1        2 0.92219964E-02 0.31535456E+02</pdfrwt>
<pdfrwt beam="2">  1       -2 0.90641451E-02 0.31535456E+02</pdfrwt>
<totfact> 0.39947455E+04</totfact>
</mgrwt>
</event>
<event>
 4    1  0.1474645E+004  0.2392998E+02  0.7546771E-02  0.1676864E+00
         -2   -1    0    0    0  501 -0.00000000000E+00  0.00000000000E+00  0.69112510016E+02  0.69112510016E+02  0.00000000000E+00 0. -1.
          2   -1    0    0  501    0  0.00000000000E+00 -0.00000000000E+00 -0.44988769118E+03  0.44988769118E+03  0.00000000000E+00 0. -1.
          2    1    1    2  502    0 -0.53307111360E+01  0.23328678937E+02 -0.44748695271E+03  0.44812633998E+03  0.00000000000E+00 0. -1.
         -2    1    1    2    0  502  0.53307111360E+01 -0.23328678937E+02  0.66711771539E+02  0.70873861219E+02  0.00000000000E+00 0. -1.
<mgrwt>
<rscale>  2 0.23929976E+02</rscale>
<asrwt>0</asrwt>
<pdfrwt beam="2">  1        2 0.69213491E-01 0.23929976E+02</pdfrwt>
<pdfrwt beam="1">  1       -2 0.10632694E-01 0.23929976E+02</pdfrwt>
<totfact> 0.36065331E+03</totfact>
</mgrwt>
</event>
<event>
 4    1  0.1474645E+004  0.2528300E+02  0.7546771E-02  0.1656970E+00
         -2   -1    0    0    0  501 -0.00000000000E+00  0.00000000000E+00  0.13399773688E+04  0.13399773688E+04  0.00000000000E+00 0. -1.
          2   -1    0    0  501    0  0.00000000000E+00 -0.00000000000E+00 -0.10317458689E+01  0.10317458689E+01  0.00000000000E+00 0.  1.
          2    1    1    2  502    0  0.15048924310E+02 -0.20316489944E+02  0.17783568003E+03  0.17962393765E+03  0.00000000000E+00 0.  1.
         -2    1    1    2    0  502 -0.15048924310E+02  0.20316489944E+02  0.11611099429E+04  0.11613851770E+04  0.00000000000E+00 0. -1.
<mgrwt>
<rscale>  2 0.25282996E+02</rscale>
<asrwt>0</asrwt>
<pdfrwt beam="2">  1        2 0.15873121E-03 0.25282996E+02</pdfrwt>
<pdfrwt beam="1">  1       -2 0.20614897E+00 0.25282996E+02</pdfrwt>
<totfact> 0.17184329E+04</totfact>
</mgrwt>
</event>
<event>
 4    1  0.1474645E+004  0.3655426E+02  0.7546771E-02  0.1535216E+00
         -2   -1    0    0    0  501 -0.00000000000E+00  0.00000000000E+00  0.10542075850E+01  0.10542075850E+01  0.00000000000E+00 0.  1.
          2   -1    0    0  501    0  0.00000000000E+00 -0.00000000000E+00 -0.18835251068E+04  0.18835251068E+04  0.00000000000E+00 0.  1.
          2    1    1    2  502    0 -0.26556752415E+02 -0.25118770030E+02 -0.14801203984E+04  0.14805717164E+04  0.00000000000E+00 0.  1.
         -2    1    1    2    0  502  0.26556752415E+02  0.25118770030E+02 -0.40235050089E+03  0.40400759804E+03  0.00000000000E+00 0.  1.
<mgrwt>
<rscale>  2 0.36554257E+02</rscale>
<asrwt>0</asrwt>
<pdfrwt beam="2">  1        2 0.28977054E+00 0.36554257E+02</pdfrwt>
<pdfrwt beam="1">  1       -2 0.16218721E-03 0.36554257E+02</pdfrwt>
<totfact> 0.19260478E+05</totfact>
</mgrwt>
</event>
<event>
 4    1  0.1474645E+004  0.2251858E+02  0.7546771E-02  0.1699435E+00
         -2   -1    0    0    0  501 -0.00000000000E+00  0.00000000000E+00  0.14052705177E+02  0.14052705177E+02  0.00000000000E+00 0.  1.
          2   -1    0    0  501    0  0.00000000000E+00 -0.00000000000E+00 -0.63690145118E+03  0.63690145118E+03  0.00000000000E+00 0. -1.
          2    1    1    2  502    0 -0.21181407677E+02 -0.76442527046E+01 -0.62754681779E+03  0.62795071077E+03  0.00000000000E+00 0. -1.
         -2    1    1    2    0  502  0.21181407677E+02  0.76442527046E+01  0.46980717881E+01  0.23003445592E+02  0.00000000000E+00 0.  1.
<mgrwt>
<rscale>  2 0.22518584E+02</rscale>
<asrwt>0</asrwt>
<pdfrwt beam="2">  1        2 0.97984814E-01 0.22518584E+02</pdfrwt>
<pdfrwt beam="1">  1       -2 0.21619552E-02 0.22518584E+02</pdfrwt>
<totfact> 0.24220905E+04</totfact>
</mgrwt>
</event>
<event>
 4    1  0.1474645E+004  0.2327617E+02  0.7546771E-02  0.1687072E+00
          2   -1    0    0  501    0  0.00000000000E+00  0.00000000000E+00  0.96901754798E+02  0.96901754798E+02  0.00000000000E+00 0.  1.
         -2   -1    0    0    0  501 -0.00000000000E+00 -0.00000000000E+00 -0.32262812894E+03  0.32262812894E+03  0.00000000000E+00 0.  1.
          2    1    1    2  502    0  0.74286443302E+01  0.22058904940E+02  0.95076237597E+02  0.97883967019E+02  0.00000000000E+00 0.  1.
         -2    1    1    2    0  502 -0.74286443302E+01 -0.22058904940E+02 -0.32080261174E+03  0.32164591672E+03  0.00000000000E+00 0.  1.
<mgrwt>
<rscale>  2 0.23276169E+02</rscale>
<asrwt>0</asrwt>
<pdfrwt beam="1">  1        2 0.14907962E-01 0.23276169E+02</pdfrwt>
<pdfrwt beam="2">  1       -2 0.49635096E-01 0.23276169E+02</pdfrwt>
<totfact> 0.13301885E+03</totfact>
</mgrwt>
</event>
<event>
 4    1  0.1474645E+004  0.2624026E+02  0.7546771E-02  0.1643801E+00
          2   -1    0    0  501    0  0.00000000000E+00  0.00000000000E+00  0.13311525516E+04  0.13311525516E+04  0.00000000000E+00 0. -1.
         -2   -1    0    0    0  501 -0.00000000000E+00 -0.00000000000E+00 -0.51161080234E+01  0.51161080234E+01  0.00000000000E+00 0.  1.
          2    1    1    2  502    0 -0.10066078906E+02  0.24232728592E+02  0.12964771982E+04  0.12967427179E+04  0.00000000000E+00 0. -1.
         -2    1    1    2    0  502  0.10066078906E+02 -0.24232728592E+02  0.29559245421E+02  0.39525941727E+02  0.00000000000E+00 0.  1.
<mgrwt>
<rscale>  2 0.26240257E+02</rscale>
<asrwt>0</asrwt>
<pdfrwt beam="1">  1        2 0.20479243E+00 0.26240257E+02</pdfrwt>
<pdfrwt beam="2">  1       -2 0.78709460E-03 0.26240257E+02</pdfrwt>
<totfact> 0.39788229E+04</totfact>
</mgrwt>
</event>
<event>
 4    1  0.1474645E+004  0.3331400E+02  0.7546771E-02  0.1564103E+00
          2   -1    0    0  501    0  0.00000000000E+00  0.00000000000E+00  0.14648197906E+04  0.14648197906E+04  0.00000000000E+00 0.  1.
         -2   -1    0    0    0  501 -0.00000000000E+00 -0.00000000000E+00 -0.13156362706E+01  0.13156362706E+01  0.00000000000E+00 0. -1.
          2    1    1    2  502    0 -0.27647168819E+02 -0.18586469521E+02  0.12091575327E+04  0.12096163697E+04  0.00000000000E+00 0.  1.
         -2    1    1    2    0  502  0.27647168819E+02  0.18586469521E+02  0.25434662161E+03  0.25651905722E+03  0.00000000000E+00 0. -1.
<mgrwt>
<rscale>  2 0.33314003E+02</rscale>
<asrwt>0</asrwt>
<pdfrwt beam="1">  1        2 0.22535559E+00 0.33314003E+02</pdfrwt>
<pdfrwt beam="2">  1       -2 0.20240675E-03 0.33314003E+02</pdfrwt>
<totfact> 0.22307469E+05</totfact>
</mgrwt>
</event>
<event>
 4    1  0.1474645E+004  0.2591805E+02  0.7546771E-02  0.1648155E+00
         -2   -1    0    0    0  501 -0.00000000000E+00  0.00000000000E+00  0.23028618750E+01  0.23028618750E+01  0.00000000000E+00 0.  1.
          2   -1    0    0  501    0  0.00000000000E+00 -0.00000000000E+00 -0.31987405597E+03  0.31987405597E+03  0.00000000000E+00 0. -1.
          2    1    1    2  502    0  0.17782422352E+02  0.18855529848E+02 -0.20659321693E+03  0.20821263850E+03  0.00000000000E+00 0. -1.
         -2    1    1    2    0  502 -0.17782422352E+02 -0.18855529848E+02 -0.11097797717E+03  0.11396427935E+03  0.00000000000E+00 0.  1.
<mgrwt>
<rscale>  2 0.25918055E+02</rscale>
<asrwt>0</asrwt>
<pdfrwt beam="2">  1        2 0.49211404E-01 0.25918055E+02</pdfrwt>
<pdfrwt beam="1">  1       -2 0.35428637E-03 0.25918055E+02</pdfrwt>
<totfact> 0.57977485E+05</totfact>
</mgrwt>
</event>
<event>
 4    1  0.1474645E+004  0.2146419E+02  0.7546771E-02  0.1717687E+00
         -2   -1    0    0    0  501 -0.00000000000E+00  0.00000000000E+00  0.66786674042E+00  0.66786674042E+00  0.00000000000E+00 0.  1.
          2   -1    0    0  501    0  0.00000000000E+00 -0.00000000000E+00 -0.77800321871E+03  0.77800321871E+03  0.00000000000E+00 0. -1.
          2    1    1    2  502    0  0.63318061390E+01 -0.20509016563E+02 -0.51974051518E+03  0.52018353938E+03  0.00000000000E+00 0. -1.
         -2    1    1    2    0  502 -0.63318061390E+01  0.20509016563E+02 -0.25759483680E+03  0.25848754607E+03  0.00000000000E+00 0.  1.
<mgrwt>
<rscale>  2 0.21464192E+02</rscale>
<asrwt>0</asrwt>
<pdfrwt beam="2">  1        2 0.11969344E+00 0.21464192E+02</pdfrwt>
<pdfrwt beam="1">  1       -2 0.10274818E-03 0.21464192E+02</pdfrwt>
<totfact> 0.11350849E+06</totfact>
</mgrwt>
</event>
<event>
 4    1  0.1474645E+004  0.2008931E+02  0.7546771E-02  0.1743558E+00
         -2   -1    0    0    0  501 -0.00000000000E+00  0.00000000000E+00  0.60687311792E+02  0.60687311792E+02  0.00000000000E+00 0. -1.
          2   -1    0    0  501    0  0.00000000000E+00 -0.00000000000E+00 -0.21132404827E+03  0.21132404827E+03  0.00000000000E+00 0. -1.
          2    1    1    2  502    0 -0.15834786133E+02  0.12362837984E+02 -0.20916696039E+03  0.21012947802E+03  0.00000000000E+00 0. -1.
         -2    1    1    2    0  502  0.15834786133E+02 -0.12362837984E+02  0.58530223907E+02  0.61881882045E+02  0.00000000000E+00 0. -1.
<mgrwt>
<rscale>  2 0.20089306E+02</rscale>
<asrwt>0</asrwt>
<pdfrwt beam="2">  1        2 0.32511392E-01 0.20089306E+02</pdfrwt>
<pdfrwt beam="1">  1       -2 0.93365095E-02 0.20089306E+02</pdfrwt>
<totfact> 0.90259719E+03</totfact>
</mgrwt>
</event>
<event>
 4    1  0.1474645E+004  0.2017146E+02  0.7546771E-02  0.1741940E+00
          2   -1    0    0  501    0  0.00000000000E+00  0.00000000000E+00  0.50004913335E+02  0.50004913335E+02  0.00000000000E+00 0.  1.
         -2   -1    0    0    0  501 -0.00000000000E+00 -0.00000000000E+00 -0.34634193482E+03  0.34634193482E+03  0.00000000000E+00 0. -1.
          2    1    1    2  502    0  0.64696722161E+01 -0.19105784015E+02  0.47663135141E+02  0.51755792844E+02  0.00000000000E+00 0.  1.
         -2    1    1    2    0  502 -0.64696722161E+01  0.19105784015E+02 -0.34400015663E+03  0.34459105532E+03  0.00000000000E+00 0. -1.
<mgrwt>
<rscale>  2 0.20171456E+02</rscale>
<asrwt>0</asrwt>
<pdfrwt beam="1">  1        2 0.76930639E-02 0.20171456E+02</pdfrwt>
<pdfrwt beam="2">  1       -2 0.53283373E-01 0.20171456E+02</pdfrwt>
<totfact> 0.24265801E+03</totfact>
</mgrwt>
</event>
<event>
 4    1  0.1474645E+004  0.2269412E+02  0.7546771E-02  0.1696517E+00
          2   -1    0    0  501    0  0.00000000000E+00  0.00000000000E+00  0.18749505384E+04  0.18749505384E+04  0.00000000000E+00 0.  1.
         -2   -1    0    0    0  501 -0.00000000000E+00 -0.00000000000E+00 -0.32328084537E+00  0.32328084537E+00  0.00000000000E+00 0.  1.
          2    1    1    2  502    0 -0.18258977086E+02  0.13477099272E+02  0.57378357397E+03  0.57423219363E+03  0.00000000000E+00 0.  1.
         -2    1    1    2    0  502  0.18258977086E+02 -0.13477099272E+02  0.13008436836E+04  0.13010416256E+04  0.00000000000E+00 0.  1.
<mgrwt>
<rscale>  2 0.22694117E+02</rscale>
<asrwt>0</asrwt>
<pdfrwt beam="1">  1        2 0.28844522E+00 0.22694117E+02</pdfrwt>
<pdfrwt beam="2">  1       -2 0.49737016E-04 0.22694117E+02</pdfrwt>
<totfact> 0.84069652E+05</totfact>
</mgrwt>
</event>
<event>
 4    1  0.1474645E+004  0.2469763E+02  0.7546771E-02  0.1665383E+00
          2   -1    0    0  501    0  0.00000000000E+00  0.00000000000E+00  0.46047117810E+01  0.46047117810E+01  0.00000000000E+00 0. -1.
         -2   -1    0    0    0  501 -0.00000000000E+00 -0.00000000000E+00 -0.14667924748E+03  0.14667924748E+03  0.00000000000E+00 0. -1.
          2    1    1    2  502    0 -0.23377364991E+02 -0.79669155869E+01 -0.47491763486E+02  0.53529809797E+02  0.00000000000E+00 0. -1.
         -2    1    1    2    0  502  0.23377364991E+02  0.79669155869E+01 -0.94582772214E+02  0.97754149465E+02  0.00000000000E+00 0. -1.
<mgrwt>
<rscale>  2 0.24697630E+02</rscale>
<asrwt>0</asrwt>
<pdfrwt beam="1">  1        2 0.70841711E-03 0.24697630E+02</pdfrwt>
<pdfrwt beam="2">  1       -2 0.22566041E-01 0.24697630E+02</pdfrwt>
<totfact> 0.23526452E+05</totfact>
</mgrwt>
</event>
<event>
 4    1  0.1474645E+004  0.2865051E+02  0.7546771E-02  0.1613503E+00
         -2   -1    0    0    0  501 -0.00000000000E+00  0.00000000000E+00  0.11240662346E+01  0.11240662346E+01  0.00000000000E+00 0. -1.
          2   -1    0    0  501    0  0.00000000000E+00 -0.00000000000E+00 -0.11731350045E+04  0.11731350045E+04  0.00000000000E+00 0.  1.
          2    1    1    2  502    0 -0.28413596544E+02 -0.36768212786E+01 -0.94675393793E+03  0.94718734708E+03  0.00000000000E+00 0.  1.
         -2    1    1    2    0  502  0.28413596544E+02  0.36768212786E+01 -0.22525700036E+03  0.22707172368E+03  0.00000000000E+00 0. -1.
<mgrwt>
<rscale>  2 0.28650506E+02</rscale>
<asrwt>0</asrwt>
<pdfrwt beam="2">  1        2 0.18048241E+00 0.28650506E+02</pdfrwt>
<pdfrwt beam="1">  1       -2 0.17293317E-03 0.28650506E+02</pdfrwt>
<totfact> 0.37210584E+05</totfact>
</mgrwt>
</event>
<event>
 4    1  0.1474645E+004  0.2360458E+02  0.7546771E-02  0.1681893E+00
         -2   -1    0    0    0  501 -0.00000000000E+00  0.00000000000E+00  0.16881827025E+01  0.16881827025E+01  0.00000000000E+00 0.  1.
          2   -1    0    0  501    0  0.00000000000E+00 -0.00000000000E+00 -0.13727334489E+04  0.13727334489E+04  0.00000000000E+00 0. -1.
          2    1    1    2  502    0  0.15561965413E+02 -0.17748275453E+02 -0.12844500378E+04  0.12846669124E+04  0.00000000000E+00 0. -1.
         -2    1    1    2    0  502 -0.15561965413E+02  0.17748275453E+02 -0.86595228376E+02  0.89754719244E+02  0.00000000000E+00 0.  1.
<mgrwt>
<rscale>  2 0.23604577E+02</rscale>
<asrwt>0</asrwt>
<pdfrwt beam="2">  1        2 0.21118930E+00 0.23604577E+02</pdfrwt>
<pdfrwt beam="1">  1       -2 0.25972098E-03 0.23604577E+02</pdfrwt>
<totfact> 0.16492806E+05</totfact>
</mgrwt>
</event>
<event>
 4    1  0.1474645E+004  0.2457270E+02  0.7546771E-02  0.1667216E+00
          2   -1    0    0  501    0  0.00000000000E+00  0.00000000000E+00  0.10375121242E+04  0.10375121242E+04  0.00000000000E+00 0. -1.
         -2   -1    0    0    0  501 -0.00000000000E+00 -0.00000000000E+00 -0.26279043272E+01  0.26279043272E+01  0.00000000000E+00 0. -1.
          2    1    1    2  502    0 -0.24247630649E+02  0.39837041093E+01  0.97632428674E+03  0.97663346777E+03  0.00000000000E+00 0. -1.
         -2    1    1    2    0  502  0.24247630649E+02 -0.39837041093E+01  0.58559933118E+02  0.63506560742E+02  0.00000000000E+00 0. -1.
<mgrwt>
<rscale>  2 0.24572698E+02</rscale>
<asrwt>0</asrwt>
<pdfrwt beam="1">  1        2 0.15961692E+00 0.24572698E+02</pdfrwt>
<pdfrwt beam="2">  1       -2 0.40429380E-03 0.24572698E+02</pdfrwt>
<totfact> 0.13597850E+05</totfact>
</mgrwt>
</event>
<event>
 4    1  0.1474645E+004  0.2477332E+02  0.7546771E-02  0.1664279E+00
          2   -1    0    0  501    0  0.00000000000E+00  0.00000000000E+00  0.17077489732E+04  0.17077489732E+04  0.00000000000E+00 0.  1.
         -2   -1    0    0    0  501 -0.00000000000E+00 -0.00000000000E+00 -0.36158563725E+00  0.36158563725E+00  0.00000000000E+00 0.  1.
          2    1    1    2  502    0  0.24654529470E+02 -0.24230827987E+01  0.92051796286E+03  0.92085125678E+03  0.00000000000E+00 0.  1.
         -2    1    1    2    0  502 -0.24654529470E+02  0.24230827987E+01  0.78686942470E+03  0.78725930207E+03  0.00000000000E+00 0.  1.
<mgrwt>
<rscale>  2 0.24773315E+02</rscale>
<asrwt>0</asrwt>
<pdfrwt beam="1">  1        2 0.26272415E+00 0.24773315E+02</pdfrwt>
<pdfrwt beam="2">  1       -2 0.55629927E-04 0.24773315E+02</pdfrwt>
<totfact> 0.88812322E+05</totfact>
</mgrwt>
</event>
<event>
 4    1  0.1474645E+004  0.3826722E+02  0.7546771E-02  0.1521364E+00
         -2   -1    0    0    0  501 -0.00000000000E+00  0.00000000000E+00  0.27649407952E+02  0.27649407952E+02  0.00000000000E+00 0. -1.
          2   -1    0    0  501    0  0.00000000000E+00 -0.00000000000E+00 -0.55973237194E+02  0.55973237194E+02  0.00000000000E+00 0. -1.
          2    1    1    2  502    0  0.34957177645E+02  0.15568425697E+02 -0.23859069797E+02  0.45095846363E+02  0.00000000000E+00 0. -1.
         -2    1    1    2    0  502 -0.34957177645E+02 -0.15568425697E+02 -0.44647594444E+01  0.38526798783E+02  0.00000000000E+00 0. -1.
<mgrwt>
<rscale>  2 0.38267220E+02</rscale>
<asrwt>0</asrwt>
<pdfrwt beam="2">  1        2 0.86112673E-02 0.38267220E+02</pdfrwt>
<pdfrwt beam="1">  1       -2 0.42537551E-02 0.38267220E+02</pdfrwt>
<totfact> 0.13618737E+05</totfact>
</mgrwt>
</event>
<event>
 4    1  0.1474645E+004  0.4002865E+02  0.7546771E-02  0.1508001E+00
          2   -1    0    0  501    0  0.00000000000E+00  0.00000000000E+00  0.93214127542E+03  0.93214127542E+03  0.00000000000E+00 0. -1.
         -2   -1    0    0    0  501 -0.00000000000E+00 -0.00000000000E+00 -0.25306439584E+01  0.25306439584E+01  0.00000000000E+00 0.  1.
          2    1    1    2  502    0 -0.31604289020E+02  0.24565451682E+02  0.72948048722E+03  0.73057790395E+03  0.00000000000E+00 0. -1.
         -2    1    1    2    0  502  0.31604289020E+02 -0.24565451682E+02  0.20013014424E+03  0.20409401543E+03  0.00000000000E+00 0.  1.
<mgrwt>
<rscale>  2 0.40028646E+02</rscale>
<asrwt>0</asrwt>
<pdfrwt beam="1">  1        2 0.14340608E+00 0.40028646E+02</pdfrwt>
<pdfrwt beam="2">  1       -2 0.38933058E-03 0.40028646E+02</pdfrwt>
<totfact> 0.18102434E+05</totfact>
</mgrwt>
</event>
<event>
 4    1  0.1474645E+004  0.2137215E+02  0.7546771E-02  0.1719342E+00
          2   -1    0    0  501    0  0.00000000000E+00  0.00000000000E+00  0.14925221684E+04  0.14925221684E+04  0.00000000000E+00 0. -1.
         -2   -1    0    0    0  501 -0.00000000000E+00 -0.00000000000E+00 -0.20584419664E+03  0.20584419664E+03  0.00000000000E+00 0.  1.
          2    1    1    2  502    0 -0.20653158045E+02  0.54968806776E+01  0.14918906736E+04  0.14920437496E+04  0.00000000000E+00 0. -1.
         -2    1    1    2    0  502  0.20653158045E+02 -0.54968806776E+01 -0.20521270187E+03  0.20632261544E+03  0.00000000000E+00 0.  1.
<mgrwt>
<rscale>  2 0.21372146E+02</rscale>
<asrwt>0</asrwt>
<pdfrwt beam="1">  1        2 0.22961879E+00 0.21372146E+02</pdfrwt>
<pdfrwt beam="2">  1       -2 0.31668339E-01 0.21372146E+02</pdfrwt>
<totfact> 0.14980467E+02</totfact>
</mgrwt>
</event>
<event>
 4    1  0.1474645E+004  0.2413345E+02  0.7546771E-02  0.1673770E+00
         -2   -1    0    0    0  501 -0.00000000000E+00  0.00000000000E+00  0.19296030123E+03  0.19296030123E+03  0.00000000000E+00 0.  1.
          2   -1    0    0  501    0  0.00000000000E+00 -0.00000000000E+00 -0.30311478293E+01  0.30311478293E+01  0.00000000000E+00 0.  1.
          2    1    1    2  502    0  0.64120880403E+01  0.23266036257E+02  0.88599087516E+02  0.91827129024E+02  0.00000000000E+00 0.  1.
         -2    1    1    2    0  502 -0.64120880403E+01 -0.23266036257E+02  0.10133006589E+03  0.10416432004E+03  0.00000000000E+00 0.  1.
<mgrwt>
<rscale>  2 0.24133448E+02</rscale>
<asrwt>0</asrwt>
<pdfrwt beam="2">  1        2 0.46633059E-03 0.24133448E+02</pdfrwt>
<pdfrwt beam="1">  1       -2 0.29686191E-01 0.24133448E+02</pdfrwt>
<totfact> 0.25544472E+05</totfact>
</mgrwt>
</event>
<event>
 4    1  0.1474645E+004  0.2293513E+02  0.7546771E-02  0.1692564E+00
          2   -1    0    0  501    0  0.00000000000E+00  0.00000000000E+00  0.53711063292E+02  0.53711063292E+02  0.00000000000E+00 0. -1.
         -2   -1    0    0    0  501 -0.00000000000E+00 -0.00000000000E+00 -0.21907599025E+02  0.21907599025E+02  0.00000000000E+00 0. -1.
          2    1    1    2  502    0 -0.21850290131E+02  0.69703024403E+01  0.44017298097E+02  0.49634089361E+02  0.00000000000E+00 0. -1.
         -2    1    1    2    0  502  0.21850290131E+02 -0.69703024403E+01 -0.12213833829E+02  0.25984572956E+02  0.00000000000E+00 0. -1.
<mgrwt>
<rscale>  2 0.22935132E+02</rscale>
<asrwt>0</asrwt>
<pdfrwt beam="1">  1        2 0.82632405E-02 0.22935132E+02</pdfrwt>
<pdfrwt beam="2">  1       -2 0.33703999E-02 0.22935132E+02</pdfrwt>
<totfact> 0.17538304E+05</totfact>
</mgrwt>
</event>
<event>
 4    1  0.1474645E+004  0.2381549E+02  0.7546771E-02  0.1678622E+00
          2   -1    0    0  501    0  0.00000000000E+00  0.00000000000E+00  0.24850753036E+04  0.24850753036E+04  0.00000000000E+00 0. -1.
         -2   -1    0    0    0  501 -0.00000000000E+00 -0.00000000000E+00 -0.25527228134E+00  0.25527228134E+00  0.00000000000E+00 0.  1.
          2    1    1    2  502    0  0.20177312065E+02  0.12651229083E+02  0.16468421159E+04  0.16470143085E+04  0.00000000000E+00 0. -1.
         -2    1    1    2    0  502 -0.20177312065E+02 -0.12651229083E+02  0.83797791535E+03  0.83831626737E+03  0.00000000000E+00 0.  1.
<mgrwt>
<rscale>  2 0.23815489E+02</rscale>
<asrwt>0</asrwt>
<pdfrwt beam="1">  1        2 0.38229990E+00 0.23815489E+02</pdfrwt>
<pdfrwt beam="2">  1       -2 0.39274649E-04 0.23815489E+02</pdfrwt>
<totfact> 0.59676124E+05</totfact>
</mgrwt>
</event>
<event>
 4    1  0.1474645E+004  0.2566436E+02  0.7546771E-02  0.1651639E+00
         -2   -1    0    0    0  501 -0.00000000000E+00  0.00000000000E+00  0.18338952382E+02  0.18338952382E+02  0.00000000000E+00 0.  1.
          2   -1    0    0  501    0  0.00000000000E+00 -0.00000000000E+00 -0.44529299046E+02  0.44529299046E+02  0.00000000000E+00 0.  1.
          2    1    1    2  502    0 -0.95351815150E+01 -0.23827291808E+02 -0.26920212502E+02  0.37193512372E+02  0.00000000000E+00 0.  1.
         -2    1    1    2    0  502  0.95351815150E+01  0.23827291808E+02  0.72986583825E+00  0.25674739056E+02  0.00000000000E+00 0.  1.
<mgrwt>
<rscale>  2 0.25664363E+02</rscale>
<asrwt>0</asrwt>
<pdfrwt beam="2">  1        2 0.68506613E-02 0.25664363E+02</pdfrwt>
<pdfrwt beam="1">  1       -2 0.28213773E-02 0.25664363E+02</pdfrwt>
<totfact> 0.28954077E+05</totfact>
</mgrwt>
</event>
<event>
 4    1  0.1474645E+004  0.2490285E+02  0.7546771E-02  0.1662401E+00
         -2   -1    0    0    0  501 -0.00000000000E+00  0.00000000000E+00  0.26306717245E+02  0.26306717245E+02  0.00000000000E+00 0.  1.
          2   -1    0    0  501    0  0.00000000000E+00 -0.00000000000E+00 -0.12002213951E+03  0.12002213951E+03  0.00000000000E+00 0.  1.
          2    1    1    2  502    0  0.95721700630E+01  0.22989677067E+02 -0.11244451594E+03  0.11516909679E+03  0.00000000000E+00 0.  1.
         -2    1    1    2    0  502 -0.95721700630E+01 -0.22989677067E+02  0.18729093670E+02  0.31159759965E+02  0.00000000000E+00 0.  1.
<mgrwt>
<rscale>  2 0.24902845E+02</rscale>
<asrwt>0</asrwt>
<pdfrwt beam="2">  1        2 0.18464945E-01 0.24902845E+02</pdfrwt>
<pdfrwt beam="1">  1       -2 0.40471872E-02 0.24902845E+02</pdfrwt>
<totfact> 0.56055734E+04</totfact>
</mgrwt>
</event>
<event>
 4    1  0.1474645E+004  0.2065411E+02  0.7546771E-02  0.1732625E+00
          2   -1    0    0  501    0  0.00000000000E+00  0.00000000000E+00  0.14020269945E+03  0.14020269945E+03  0.00000000000E+00 0. -1.
         -2   -1    0    0    0  501 -0.00000000000E+00 -0.00000000000E+00 -0.92531481276E+01  0.92531481276E+01  0.00000000000E+00 0.  1.
          2    1    1    2  502    0 -0.16167901136E+02  0.12852666606E+02  0.12669575864E+03  0.12836824889E+03  0.00000000000E+00 0. -1.
         -2    1    1    2    0  502  0.16167901136E+02 -0.12852666606E+02  0.42537926776E+01  0.21087598682E+02  0.00000000000E+00 0.  1.
<mgrwt>
<rscale>  2 0.20654105E+02</rscale>
<asrwt>0</asrwt>
<pdfrwt beam="1">  1        2 0.21569645E-01 0.20654105E+02</pdfrwt>
<pdfrwt beam="2">  1       -2 0.14235614E-02 0.20654105E+02</pdfrwt>
<totfact> 0.19201101E+05</totfact>
</mgrwt>
</event>
<event>
 4    1  0.1474645E+004  0.2176297E+02  0.7546771E-02  0.1712384E+00
         -2   -1    0    0    0  501 -0.00000000000E+00  0.00000000000E+00  0.81411893654E+01  0.81411893654E+01  0.00000000000E+00 0.  1.
          2   -1    0    0  501    0  0.00000000000E+00 -0.00000000000E+00 -0.84989197739E+03  0.84989197739E+03  0.00000000000E+00 0. -1.
          2    1    1    2  502    0  0.21656932275E+02  0.21457695101E+01 -0.83494823323E+03  0.83523181166E+03  0.00000000000E+00 0. -1.
         -2    1    1    2    0  502 -0.21656932275E+02 -0.21457695101E+01 -0.68025547984E+01  0.22801355095E+02  0.00000000000E+00 0.  1.
<mgrwt>
<rscale>  2 0.21762974E+02</rscale>
<asrwt>0</asrwt>
<pdfrwt beam="2">  1        2 0.13075260E+00 0.21762974E+02</pdfrwt>
<pdfrwt beam="1">  1       -2 0.12524908E-02 0.21762974E+02</pdfrwt>
<totfact> 0.36898381E+04</totfact>
</mgrwt>
</event>
<event>
 4    1  0.1474645E+004  0.2706473E+02  0.7546771E-02  0.1633002E+00
         -2   -1    0    0    0  501 -0.00000000000E+00  0.00000000000E+00  0.50234017478E+02  0.50234017478E+02  0.00000000000E+00 0.  1.
          2   -1    0    0  501    0  0.00000000000E+00 -0.00000000000E+00 -0.38793266335E+03  0.38793266335E+03  0.00000000000E+00 0.  1.
          2    1    1    2  502    0  0.27053085460E+02 -0.79369653026E+00 -0.38377573803E+03  0.38472888700E+03  0.00000000000E+00 0.  1.
         -2    1    1    2    0  502 -0.27053085460E+02  0.79369653026E+00  0.46077092164E+02  0.53437793829E+02  0.00000000000E+00 0.  1.
<mgrwt>
<rscale>  2 0.27064726E+02</rscale>
<asrwt>0</asrwt>
<pdfrwt beam="2">  1        2 0.59681948E-01 0.27064726E+02</pdfrwt>
<pdfrwt beam="1">  1       -2 0.77283104E-02 0.27064726E+02</pdfrwt>
<totfact> 0.68005231E+03</totfact>
</mgrwt>
</event>
<event>
 4    1  0.1474645E+004  0.3016077E+02  0.7546771E-02  0.1596318E+00
         -2   -1    0    0    0  501 -0.00000000000E+00  0.00000000000E+00  0.26422355495E+02  0.26422355495E+02  0.00000000000E+00 0.  1.
          2   -1    0    0  501    0  0.00000000000E+00 -0.00000000000E+00 -0.55360644637E+03  0.55360644637E+03  0.00000000000E+00 0.  1.
          2    1    1    2  502    0 -0.30076176028E+02  0.22573477277E+01 -0.54444388458E+03  0.54527865852E+03  0.00000000000E+00 0.  1.
         -2    1    1    2    0  502  0.30076176028E+02 -0.22573477277E+01  0.17259793709E+02  0.34750143340E+02  0.00000000000E+00 0.  1.
<mgrwt>
<rscale>  2 0.30160769E+02</rscale>
<asrwt>0</asrwt>
<pdfrwt beam="2">  1        2 0.85170227E-01 0.30160769E+02</pdfrwt>
<pdfrwt beam="1">  1       -2 0.40649776E-02 0.30160769E+02</pdfrwt>
<totfact> 0.12133718E+04</totfact>
</mgrwt>
</event>
<event>
 4    1  0.1474645E+004  0.3192998E+02  0.7546771E-02  0.1577685E+00
          2   -1    0    0  501    0  0.00000000000E+00  0.00000000000E+00  0.14919928412E+04  0.14919928412E+04  0.00000000000E+00 0. -1.
         -2   -1    0    0    0  501 -0.00000000000E+00 -0.00000000000E+00 -0.14613153109E+01  0.14613153109E+01  0.00000000000E+00 0.  1.
          2    1    1    2  502    0  0.22885176364E+02 -0.22266394779E+02  0.12901140634E+04  0.12905091322E+04  0.00000000000E+00 0. -1.
         -2    1    1    2    0  502 -0.22885176364E+02  0.22266394779E+02  0.20041746245E+03  0.20294502430E+03  0.00000000000E+00 0.  1.
<mgrwt>
<rscale>  2 0.31929980E+02</rscale>
<asrwt>0</asrwt>
<pdfrwt beam="1">  1        2 0.22953614E+00 0.31929980E+02</pdfrwt>
<pdfrwt beam="2">  1       -2 0.22481893E-03 0.31929980E+02</pdfrwt>
<totfact> 0.18639025E+05</totfact>
</mgrwt>
</event>
<event>
 4    1  0.1474645E+004  0.2621400E+02  0.7546771E-02  0.1644153E+00
         -2   -1    0    0    0  501 -0.00000000000E+00  0.00000000000E+00  0.42008635773E+00  0.42008635773E+00  0.00000000000E+00 0. -1.
          2   -1    0    0  501    0  0.00000000000E+00 -0.00000000000E+00 -0.23094961052E+04  0.23094961052E+04  0.00000000000E+00 0. -1.
          2    1    1    2  502    0  0.22339488515E+02 -0.13715725603E+02 -0.17783334961E+04  0.17785266929E+04  0.00000000000E+00 0. -1.
         -2    1    1    2    0  502 -0.22339488515E+02  0.13715725603E+02 -0.53074252275E+03  0.53138949870E+03  0.00000000000E+00 0. -1.
<mgrwt>
<rscale>  2 0.26214002E+02</rscale>
<asrwt>0</asrwt>
<pdfrwt beam="2">  1        2 0.35531432E+00 0.26214002E+02</pdfrwt>
<pdfrwt beam="1">  1       -2 0.64627356E-04 0.26214002E+02</pdfrwt>
<totfact> 0.38489583E+05</totfact>
</mgrwt>
</event>
<event>
 4    1  0.1474645E+004  0.2171419E+02  0.7546771E-02  0.1713242E+00
          2   -1    0    0  501    0  0.00000000000E+00  0.00000000000E+00  0.13599083361E+04  0.13599083361E+04  0.00000000000E+00 0.  1.
         -2   -1    0    0    0  501 -0.00000000000E+00 -0.00000000000E+00 -0.29192019790E+01  0.29192019790E+01  0.00000000000E+00 0. -1.
          2    1    1    2  502    0 -0.12256232765E+02 -0.17924591987E+02  0.13181632313E+04  0.13183420689E+04  0.00000000000E+00 0.  1.
         -2    1    1    2    0  502  0.12256232765E+02  0.17924591987E+02  0.38825902812E+02  0.44485469185E+02  0.00000000000E+00 0. -1.
<mgrwt>
<rscale>  2 0.21714194E+02</rscale>
<asrwt>0</asrwt>
<pdfrwt beam="1">  1        2 0.20921616E+00 0.21714194E+02</pdfrwt>
<pdfrwt beam="2">  1       -2 0.44910908E-03 0.21714194E+02</pdfrwt>
<totfact> 0.79274054E+04</totfact>
</mgrwt>
</event>
<event>
 4    1  0.1474645E+004  0.2008969E+02  0.7546771E-02  0.1743550E+00
          2   -1    0    0  501    0  0.00000000000E+00  0.00000000000E+00  0.14473845224E+03  0.14473845224E+03  0.00000000000E+00 0.  1.
         -2   -1    0    0    0  501 -0.00000000000E+00 -0.00000000000E+00 -0.34416169863E+01  0.34416169863E+01  0.00000000000E+00 0. -1.
          2    1    1    2  502    0  0.10160515171E+02  0.17330889073E+02  0.10292525639E+03  0.10486755545E+03  0.00000000000E+00 0.  1.
         -2    1    1    2    0  502 -0.10160515171E+02 -0.17330889073E+02  0.38371578872E+02  0.43312513778E+02  0.00000000000E+00 0. -1.
<mgrwt>
<rscale>  2 0.20089693E+02</rscale>
<asrwt>0</asrwt>
<pdfrwt beam="1">  1        2 0.22267449E-01 0.20089693E+02</pdfrwt>
<pdfrwt beam="2">  1       -2 0.52947965E-03 0.20089693E+02</pdfrwt>
<totfact> 0.69528478E+05</totfact>
</mgrwt>
</event>
<event>
 4    1  0.1474645E+004  0.2241345E+02  0.7546771E-02  0.1701198E+00
         -2   -1    0    0    0  501 -0.00000000000E+00  0.00000000000E+00  0.10405844321E+02  0.10405844321E+02  0.00000000000E+00 0. -1.
          2   -1    0    0  501    0  0.00000000000E+00 -0.00000000000E+00 -0.18056418123E+03  0.18056418123E+03  0.00000000000E+00 0.  1.
          2    1    1    2  502    0  0.22328446608E+02  0.19501568316E+01 -0.16680857375E+03  0.16830764366E+03  0.00000000000E+00 0.  1.
         -2    1    1    2    0  502 -0.22328446608E+02 -0.19501568316E+01 -0.33497631613E+01  0.22662381888E+02  0.00000000000E+00 0. -1.
<mgrwt>
<rscale>  2 0.22413448E+02</rscale>
<asrwt>0</asrwt>
<pdfrwt beam="2">  1        2 0.27779104E-01 0.22413448E+02</pdfrwt>
<pdfrwt beam="1">  1       -2 0.16008991E-02 0.22413448E+02</pdfrwt>
<totfact> 0.12884735E+05</totfact>
</mgrwt>
</event>
<event>
 4    1  0.1474645E+004  0.2728194E+02  0.7546771E-02  0.1630235E+00
          2   -1    0    0  501    0  0.00000000000E+00  0.00000000000E+00  0.82033289904E+03  0.82033289904E+03  0.00000000000E+00 0. -1.
         -2   -1    0    0    0  501 -0.00000000000E+00 -0.00000000000E+00 -0.30706268524E+01  0.30706268524E+01  0.00000000000E+00 0.  1.
          2    1    1    2  502    0 -0.26706091496E+02 -0.55757462376E+01  0.75419497467E+03  0.75468825623E+03  0.00000000000E+00 0. -1.
         -2    1    1    2    0  502  0.26706091496E+02  0.55757462376E+01  0.63067297520E+02  0.68715269669E+02  0.00000000000E+00 0.  1.
<mgrwt>
<rscale>  2 0.27281940E+02</rscale>
<asrwt>0</asrwt>
<pdfrwt beam="1">  1        2 0.12620489E+00 0.27281940E+02</pdfrwt>
<pdfrwt beam="2">  1       -2 0.47240478E-03 0.27281940E+02</pdfrwt>
<totfact> 0.15003372E+05</totfact>
</mgrwt>
</event>
<event>
 4    1  0.1474645E+004  0.3639044E+02  0.7546771E-02  0.1536589E+00
         -2   -1    0    0    0  501 -0.00000000000E+00  0.00000000000E+00  0.12134076290E+03  0.12134076290E+03  0.00000000000E+00 0.  1.
          2   -1    0    0  501    0  0.00000000000E+00 -0.00000000000E+00 -0.57033486627E+03  0.57033486627E+03  0.00000000000E+00 0. -1.
          2    1    1    2  502    0 -0.51486274659E+01 -0.36024375420E+02 -0.56701000845E+03  0.56817656910E+03  0.00000000000E+00 0. -1.
         -2    1    1    2    0  502  0.51486274659E+01  0.36024375420E+02  0.11801590508E+03  0.12349906008E+03  0.00000000000E+00 0.  1.
<mgrwt>
<rscale>  2 0.36390438E+02</rscale>
<asrwt>0</asrwt>
<pdfrwt beam="2">  1        2 0.87743825E-01 0.36390438E+02</pdfrwt>
<pdfrwt beam="1">  1       -2 0.18667810E-01 0.36390438E+02</pdfrwt>
<totfact> 0.12122642E+03</totfact>
</mgrwt>
</event>
<event>
 4    1  0.1474645E+004  0.2010671E+02  0.7546771E-02  0.1743214E+00
         -2   -1    0    0    0  501 -0.00000000000E+00  0.00000000000E+00  0.17662289200E+01  0.17662289200E+01  0.00000000000E+00 0.  1.
          2   -1    0    0  501    0  0.00000000000E+00 -0.00000000000E+00 -0.23194529473E+03  0.23194529473E+03  0.00000000000E+00 0.  1.
          2    1    1    2  502    0  0.29920601632E+01 -0.19882836235E+02 -0.12849195759E+03  0.13005561413E+03  0.00000000000E+00 0.  1.
         -2    1    1    2    0  502 -0.29920601632E+01  0.19882836235E+02 -0.10168710821E+03  0.10365590951E+03  0.00000000000E+00 0.  1.
<mgrwt>
<rscale>  2 0.20106705E+02</rscale>
<asrwt>0</asrwt>
<pdfrwt beam="2">  1        2 0.35683894E-01 0.20106705E+02</pdfrwt>
<pdfrwt beam="1">  1       -2 0.27172751E-03 0.20106705E+02</pdfrwt>
<totfact> 0.10458490E+06</totfact>
</mgrwt>
</event>
<event>
 4    1  0.1474645E+004  0.2089243E+02  0.7546771E-02  0.1728142E+00
         -2   -1    0    0    0  501 -0.00000000000E+00  0.00000000000E+00  0.43689777095E+02  0.43689777095E+02  0.00000000000E+00 0.  1.
          2   -1    0    0  501    0  0.00000000000E+00 -0.00000000000E+00 -0.41285851019E+03  0.41285851019E+03  0.00000000000E+00 0.  1.
          2    1    1    2  502    0  0.60105245680E+01 -0.20009173566E+02 -0.41007959747E+03  0.41061145831E+03  0.00000000000E+00 0.  1.
         -2    1    1    2    0  502 -0.60105245680E+01  0.20009173566E+02  0.40910864377E+02  0.45936828977E+02  0.00000000000E+00 0.  1.
<mgrwt>
<rscale>  2 0.20892425E+02</rscale>
<asrwt>0</asrwt>
<pdfrwt beam="2">  1        2 0.63516694E-01 0.20892425E+02</pdfrwt>
<pdfrwt beam="1">  1       -2 0.67215041E-02 0.20892425E+02</pdfrwt>
<totfact> 0.75791643E+03</totfact>
</mgrwt>
</event>
<event>
 4    1  0.1474645E+004  0.2799499E+02  0.7546771E-02  0.1621371E+00
          2   -1    0    0  501    0  0.00000000000E+00  0.00000000000E+00  0.18197110905E+04  0.18197110905E+04  0.00000000000E+00 0. -1.
         -2   -1    0    0    0  501 -0.00000000000E+00 -0.00000000000E+00 -0.18883005943E+03  0.18883005943E+03  0.00000000000E+00 0. -1.
          2    1    1    2  502    0 -0.24556346746E+02  0.13442672294E+02  0.18185651667E+04  0.18187806314E+04  0.00000000000E+00 0. -1.
         -2    1    1    2    0  502  0.24556346746E+02 -0.13442672294E+02 -0.18768413566E+03  0.18976051850E+03  0.00000000000E+00 0. -1.
<mgrwt>
<rscale>  2 0.27994992E+02</rscale>
<asrwt>0</asrwt>
<pdfrwt beam="1">  1        2 0.27995554E+00 0.27994992E+02</pdfrwt>
<pdfrwt beam="2">  1       -2 0.29050780E-01 0.27994992E+02</pdfrwt>
<totfact> 0.12014624E+02</totfact>
</mgrwt>
</event>
<event>
 4    1  0.1474645E+004  0.2631928E+02  0.7546771E-02  0.1642745E+00
         -2   -1    0    0    0  501 -0.00000000000E+00  0.00000000000E+00  0.36858061577E+00  0.36858061577E+00  0.00000000000E+00 0. -1.
          2   -1    0    0  501    0  0.00000000000E+00 -0.00000000000E+00 -0.20929727286E+04  0.20929727286E+04  0.00000000000E+00 0. -1.
          2    1    1    2  502    0 -0.21379694934E+02 -0.15349689988E+02 -0.13806648390E+04  0.13809156752E+04  0.00000000000E+00 0. -1.
         -2    1    1    2    0  502  0.21379694934E+02  0.15349689988E+02 -0.71193930898E+03  0.71242563402E+03  0.00000000000E+00 0. -1.
<mgrwt>
<rscale>  2 0.26319277E+02</rscale>
<asrwt>0</asrwt>
<pdfrwt beam="2">  1        2 0.32199417E+00 0.26319277E+02</pdfrwt>
<pdfrwt beam="1">  1       -2 0.56704999E-04 0.26319277E+02</pdfrwt>
<totfact> 0.58056525E+05</totfact>
</mgrwt>
</event>
<event>
 4    1  0.1474645E+004  0.2339495E+02  0.7546771E-02  0.1685187E+00
          2   -1    0    0  501    0  0.00000000000E+00  0.00000000000E+00  0.17232972636E+03  0.17232972636E+03  0.00000000000E+00 0. -1.
         -2   -1    0    0    0  501 -0.00000000000E+00 -0.00000000000E+00 -0.33979612497E+01  0.33979612497E+01  0.00000000000E+00 0. -1.
          2    1    1    2  502    0  0.57041614367E+01  0.22688903988E+02  0.10692089967E+03  0.10945045732E+03  0.00000000000E+00 0. -1.
         -2    1    1    2    0  502 -0.57041614367E+01 -0.22688903988E+02  0.62010865444E+02  0.66277230291E+02  0.00000000000E+00 0. -1.
<mgrwt>
<rscale>  2 0.23394953E+02</rscale>
<asrwt>0</asrwt>
<pdfrwt beam="1">  1        2 0.26512259E-01 0.23394953E+02</pdfrwt>
<pdfrwt beam="2">  1       -2 0.52276340E-03 0.23394953E+02</pdfrwt>
<totfact> 0.62035069E+05</totfact>
</mgrwt>
</event>
<event>
 4    1  0.1474645E+004  0.4237684E+02  0.7546771E-02  0.1491415E+00
         -2   -1    0    0    0  501 -0.00000000000E+00  0.00000000000E+00  0.19874272771E+01  0.19874272771E+01  0.00000000000E+00 0.  1.
          2   -1    0    0  501    0  0.00000000000E+00 -0.00000000000E+00 -0.14520418987E+04  0.14520418987E+04  0.00000000000E+00 0.  1.
          2    1    1    2  502    0 -0.26842734969E+02  0.32791224993E+02 -0.11718418421E+04  0.11726078201E+04  0.00000000000E+00 0.  1.
         -2    1    1    2    0  502  0.26842734969E+02 -0.32791224993E+02 -0.27821262936E+03  0.28142150591E+03  0.00000000000E+00 0.  1.
<mgrwt>
<rscale>  2 0.42376843E+02</rscale>
<asrwt>0</asrwt>
<pdfrwt beam="2">  1        2 0.22339111E+00 0.42376843E+02</pdfrwt>
<pdfrwt beam="1">  1       -2 0.30575798E-03 0.42376843E+02</pdfrwt>
<totfact> 0.13527913E+05</totfact>
</mgrwt>
</event>
<event>
 4    1  0.1474645E+004  0.2324602E+02  0.7546771E-02  0.1687553E+00
         -2   -1    0    0    0  501 -0.00000000000E+00  0.00000000000E+00  0.35947707003E+00  0.35947707003E+00  0.00000000000E+00 0. -1.
          2   -1    0    0  501    0  0.00000000000E+00 -0.00000000000E+00 -0.15598038079E+04  0.15598038079E+04  0.00000000000E+00 0. -1.
          2    1    1    2  502    0  0.20501877389E+02  0.10956739328E+02 -0.63115989275E+03  0.63158783025E+03  0.00000000000E+00 0. -1.
         -2    1    1    2    0  502 -0.20501877389E+02 -0.10956739328E+02 -0.92828443810E+03  0.92857545473E+03  0.00000000000E+00 0. -1.
<mgrwt>
<rscale>  2 0.23246024E+02</rscale>
<asrwt>0</asrwt>
<pdfrwt beam="2">  1        2 0.23997419E+00 0.23246024E+02</pdfrwt>
<pdfrwt beam="1">  1       -2 0.55303156E-04 0.23246024E+02</pdfrwt>
<totfact> 0.10315228E+06</totfact>
</mgrwt>
</event>
<event>
 4    1  0.1474645E+004  0.2029399E+02  0.7546771E-02  0.1739544E+00
          2   -1    0    0  501    0  0.00000000000E+00  0.00000000000E+00  0.64412700686E+02  0.64412700686E+02  0.00000000000E+00 0. -1.
         -2   -1    0    0    0  501 -0.00000000000E+00 -0.00000000000E+00 -0.71745114358E+01  0.71745114358E+01  0.00000000000E+00 0. -1.
          2    1    1    2  502    0  0.12620540377E+02  0.15892383124E+02  0.40426037964E+02  0.45233952140E+02  0.00000000000E+00 0. -1.
         -2    1    1    2    0  502 -0.12620540377E+02 -0.15892383124E+02  0.16812151286E+02  0.26353259982E+02  0.00000000000E+00 0. -1.
<mgrwt>
<rscale>  2 0.20293986E+02</rscale>
<asrwt>0</asrwt>
<pdfrwt beam="1">  1        2 0.99096459E-02 0.20293986E+02</pdfrwt>
<pdfrwt beam="2">  1       -2 0.11037710E-02 0.20293986E+02</pdfrwt>
<totfact> 0.63105799E+05</totfact>
</mgrwt>
</event>
<event>
 4    1  0.1474645E+004  0.2178175E+02  0.7546771E-02  0.1712054E+00
          2   -1    0    0  501    0  0.00000000000E+00  0.00000000000E+00  0.22980613559E+03  0.22980613559E+03  0.00000000000E+00 0. -1.
         -2   -1    0    0    0  501 -0.00000000000E+00 -0.00000000000E+00 -0.57880666772E+01  0.57880666772E+01  0.00000000000E+00 0.  1.
          2    1    1    2  502    0  0.56959236569E+01 -0.21023817285E+02  0.20649013714E+03  0.20763578972E+03  0.00000000000E+00 0. -1.
         -2    1    1    2    0  502 -0.56959236569E+01  0.21023817285E+02  0.17527931774E+02  0.27958412541E+02  0.00000000000E+00 0.  1.
<mgrwt>
<rscale>  2 0.21781746E+02</rscale>
<asrwt>0</asrwt>
<pdfrwt beam="1">  1        2 0.35354783E-01 0.21781746E+02</pdfrwt>
<pdfrwt beam="2">  1       -2 0.89047198E-03 0.21781746E+02</pdfrwt>
<totfact> 0.22205723E+05</totfact>
</mgrwt>
</event>
<event>
 4    1  0.1474645E+004  0.2871033E+02  0.7546771E-02  0.1612798E+00
         -2   -1    0    0    0  501 -0.00000000000E+00  0.00000000000E+00  0.71816235829E+01  0.71816235829E+01  0.00000000000E+00 0.  1.
          2   -1    0    0  501    0  0.00000000000E+00 -0.00000000000E+00 -0.74729974399E+03  0.74729974399E+03  0.00000000000E+00 0. -1.
          2    1    1    2  502    0 -0.23737488821E+02 -0.16149754624E+02 -0.71712283645E+03  0.71769732165E+03  0.00000000000E+00 0. -1.
         -2    1    1    2    0  502  0.23737488821E+02  0.16149754624E+02 -0.22995283956E+02  0.36784045919E+02  0.00000000000E+00 0.  1.
<mgrwt>
<rscale>  2 0.28710328E+02</rscale>
<asrwt>0</asrwt>
<pdfrwt beam="2">  1        2 0.11496913E+00 0.28710328E+02</pdfrwt>
<pdfrwt beam="1">  1       -2 0.11048658E-02 0.28710328E+02</pdfrwt>
<totfact> 0.53244215E+04</totfact>
</mgrwt>
</event>
<event>
 4    1  0.1474645E+004  0.3807887E+02  0.7546771E-02  0.1522844E+00
          2   -1    0    0  501    0  0.00000000000E+00  0.00000000000E+00  0.11644204614E+04  0.11644204614E+04  0.00000000000E+00 0. -1.
         -2   -1    0    0    0  501 -0.00000000000E+00 -0.00000000000E+00 -0.36664101107E+01  0.36664101107E+01  0.00000000000E+00 0. -1.
          2    1    1    2  502    0  0.35415256881E+02  0.13991436142E+02  0.10549859601E+04  0.10556729497E+04  0.00000000000E+00 0. -1.
         -2    1    1    2    0  502 -0.35415256881E+02 -0.13991436142E+02  0.10576809123E+03  0.11241392186E+03  0.00000000000E+00 0. -1.
<mgrwt>
<rscale>  2 0.38078875E+02</rscale>
<asrwt>0</asrwt>
<pdfrwt beam="1">  1        2 0.17914131E+00 0.38078875E+02</pdfrwt>
<pdfrwt beam="2">  1       -2 0.56406402E-03 0.38078875E+02</pdfrwt>
<totfact> 0.80631759E+04</totfact>
</mgrwt>
</event>
<event>
 4    1  0.1474645E+004  0.2194319E+02  0.7546771E-02  0.1709236E+00
          2   -1    0    0  501    0  0.00000000000E+00  0.00000000000E+00  0.32765256983E+03  0.32765256983E+03  0.00000000000E+00 0. -1.
         -2   -1    0    0    0  501 -0.00000000000E+00 -0.00000000000E+00 -0.83524159973E+01  0.83524159973E+01  0.00000000000E+00 0. -1.
          2    1    1    2  502    0 -0.21715815729E+02  0.31506970942E+01  0.31215861577E+03  0.31292891357E+03  0.00000000000E+00 0. -1.
         -2    1    1    2    0  502  0.21715815729E+02 -0.31506970942E+01  0.71415380552E+01  0.23076072256E+02  0.00000000000E+00 0. -1.
<mgrwt>
<rscale>  2 0.21943189E+02</rscale>
<asrwt>0</asrwt>
<pdfrwt beam="1">  1        2 0.50408078E-01 0.21943189E+02</pdfrwt>
<pdfrwt beam="2">  1       -2 0.12849873E-02 0.21943189E+02</pdfrwt>
<totfact> 0.95529314E+04</totfact>
</mgrwt>
</event>
<event>
 4    1  0.1474645E+004  0.2043385E+02  0.7546771E-02  0.1736835E+00
          2   -1    0    0  501    0  0.00000000000E+00  0.00000000000E+00  0.14556790582E+04  0.14556790582E+04  0.00000000000E+00 0.  1.
         -2   -1    0    0    0  501 -0.00000000000E+00 -0.00000000000E+00 -0.49295002785E+00  0.49295002785E+00  0.00000000000E+00 0. -1.
          2    1    1    2  502    0  0.16016062656E+02  0.12689687309E+02  0.11983904934E+04  0.11985646904E+04  0.00000000000E+00 0.  1.
         -2    1    1    2    0  502 -0.16016062656E+02 -0.12689687309E+02  0.25679561484E+03  0.25760731788E+03  0.00000000000E+00 0. -1.
<mgrwt>
<rscale>  2 0.20433855E+02</rscale>
<asrwt>0</asrwt>
<pdfrwt beam="1">  1        2 0.22394718E+00 0.20433855E+02</pdfrwt>
<pdfrwt beam="2">  1       -2 0.75839631E-04 0.20433855E+02</pdfrwt>
<totfact> 0.73570858E+05</totfact>
</mgrwt>
</event>
<event>
 4    1  0.1474645E+004  0.2181169E+02  0.7546771E-02  0.1711529E+00
         -2   -1    0    0    0  501 -0.00000000000E+00  0.00000000000E+00  0.49776984402E+01  0.49776984402E+01  0.00000000000E+00 0. -1.
          2   -1    0    0  501    0  0.00000000000E+00 -0.00000000000E+00 -0.14389672589E+03  0.14389672589E+03  0.00000000000E+00 0. -1.
          2    1    1    2  502    0  0.12382959481E+02 -0.17955842463E+02 -0.11259453851E+03  0.11468775029E+03  0.00000000000E+00 0. -1.
         -2    1    1    2    0  502 -0.12382959481E+02  0.17955842463E+02 -0.26324488938E+02  0.34186674039E+02  0.00000000000E+00 0. -1.
<mgrwt>
<rscale>  2 0.21811693E+02</rscale>
<asrwt>0</asrwt>
<pdfrwt beam="2">  1        2 0.22137954E-01 0.21811693E+02</pdfrwt>
<pdfrwt beam="1">  1       -2 0.76579991E-03 0.21811693E+02</pdfrwt>
<totfact> 0.43822661E+05</totfact>
</mgrwt>
</event>
<event>
 4    1  0.1474645E+004  0.2311320E+02  0.7546771E-02  0.1689682E+00
         -2   -1    0    0    0  501 -0.00000000000E+00  0.00000000000E+00  0.44044597216E+02  0.44044597216E+02  0.00000000000E+00 0. -1.
          2   -1    0    0  501    0  0.00000000000E+00 -0.00000000000E+00 -0.12527121600E+04  0.12527121600E+04  0.00000000000E+00 0.  1.
          2    1    1    2  502    0  0.18206054500E+02  0.14239362127E+02 -0.12495656459E+04  0.12497793898E+04  0.00000000000E+00 0.  1.
         -2    1    1    2    0  502 -0.18206054500E+02 -0.14239362127E+02  0.40898083052E+02  0.46977367440E+02  0.00000000000E+00 0. -1.
<mgrwt>
<rscale>  2 0.23113197E+02</rscale>
<asrwt>0</asrwt>
<pdfrwt beam="2">  1        2 0.19272494E+00 0.23113197E+02</pdfrwt>
<pdfrwt beam="1">  1       -2 0.67760921E-02 0.23113197E+02</pdfrwt>
<totfact> 0.21647781E+03</totfact>
</mgrwt>
</event>
<event>
 4    1  0.1474645E+004  0.3438770E+02  0.7546771E-02  0.1554106E+00
          2   -1    0    0  501    0  0.00000000000E+00  0.00000000000E+00  0.14995355257E+04  0.14995355257E+04  0.00000000000E+00 0. -1.
         -2   -1    0    0    0  501 -0.00000000000E+00 -0.00000000000E+00 -0.20770231279E+01  0.20770231279E+01  0.00000000000E+00 0. -1.
          2    1    1    2  502    0  0.10095875398E+02  0.32872282734E+02  0.13400712650E+04  0.13405124053E+04  0.00000000000E+00 0. -1.
         -2    1    1    2    0  502 -0.10095875398E+02 -0.32872282734E+02  0.15738723766E+03  0.16110014354E+03  0.00000000000E+00 0. -1.
<mgrwt>
<rscale>  2 0.34387697E+02</rscale>
<asrwt>0</asrwt>
<pdfrwt beam="1">  1        2 0.23069691E+00 0.34387697E+02</pdfrwt>
<pdfrwt beam="2">  1       -2 0.31954322E-03 0.34387697E+02</pdfrwt>
<totfact> 0.11662668E+05</totfact>
</mgrwt>
</event>
<event>
 4    1  0.1474645E+004  0.3591286E+02  0.7546771E-02  0.1540640E+00
         -2   -1    0    0    0  501 -0.00000000000E+00  0.00000000000E+00  0.45825798887E+01  0.45825798887E+01  0.00000000000E+00 0. -1.
          2   -1    0    0  501    0  0.00000000000E+00 -0.00000000000E+00 -0.28835036005E+03  0.28835036005E+03  0.00000000000E+00 0.  1.
          2    1    1    2  502    0 -0.35862110164E+02  0.19081494885E+01 -0.11921371120E+03  0.12450558589E+03  0.00000000000E+00 0.  1.
         -2    1    1    2    0  502  0.35862110164E+02 -0.19081494885E+01 -0.16455406896E+03  0.16842735405E+03  0.00000000000E+00 0. -1.
<mgrwt>
<rscale>  2 0.35912857E+02</rscale>
<asrwt>0</asrwt>
<pdfrwt beam="2">  1        2 0.44361606E-01 0.35912857E+02</pdfrwt>
<pdfrwt beam="1">  1       -2 0.70501210E-03 0.35912857E+02</pdfrwt>
<totfact> 0.27617534E+05</totfact>
</mgrwt>
</event>
<event>
 4    1  0.1474645E+004  0.2123949E+02  0.7546771E-02  0.1721747E+00
         -2   -1    0    0    0  501 -0.00000000000E+00  0.00000000000E+00  0.10733154382E+04  0.10733154382E+04  0.00000000000E+00 0. -1.
          2   -1    0    0  501    0  0.00000000000E+00 -0.00000000000E+00 -0.76407522760E+01  0.76407522760E+01  0.00000000000E+00 0. -1.
          2    1    1    2  502    0  0.38568146460E+01 -0.20886377738E+02  0.74347622351E+01  0.22503143863E+02  0.00000000000E+00 0. -1.
         -2    1    1    2    0  502 -0.38568146460E+01  0.20886377738E+02  0.10582399237E+04  0.10584530466E+04  0.00000000000E+00 0. -1.
<mgrwt>
<rscale>  2 0.21239487E+02</rscale>
<asrwt>0</asrwt>
<pdfrwt beam="2">  1        2 0.11755012E-02 0.21239487E+02</pdfrwt>
<pdfrwt beam="1">  1       -2 0.16512533E+00 0.21239487E+02</pdfrwt>
<totfact> 0.21409733E+03</totfact>
</mgrwt>
</event>
<event>
 4    1  0.1474645E+004  0.2797450E+02  0.7546771E-02  0.1621621E+00
         -2   -1    0    0    0  501 -0.00000000000E+00  0.00000000000E+00  0.88058306041E+02  0.88058306041E+02  0.00000000000E+00 0. -1.
          2   -1    0    0  501    0  0.00000000000E+00 -0.00000000000E+00 -0.21244839972E+03  0.21244839972E+03  0.00000000000E+00 0.  1.
          2    1    1    2  502    0  0.22636897957E+02 -0.16436036232E+02 -0.20927218649E+03  0.21113365548E+03  0.00000000000E+00 0.  1.
         -2    1    1    2    0  502 -0.22636897957E+02  0.16436036232E+02  0.84882092815E+02  0.89373050282E+02  0.00000000000E+00 0. -1.
<mgrwt>
<rscale>  2 0.27974496E+02</rscale>
<asrwt>0</asrwt>
<pdfrwt beam="2">  1        2 0.32684369E-01 0.27974496E+02</pdfrwt>
<pdfrwt beam="1">  1       -2 0.13547432E-01 0.27974496E+02</pdfrwt>
<totfact> 0.53554206E+03</totfact>
</mgrwt>
</event>
<event>
 4    1  0.1474645E+004  0.2717411E+02  0.7546771E-02  0.1631605E+00
          2   -1    0    0  501    0  0.00000000000E+00  0.00000000000E+00  0.11687540237E+04  0.11687540237E+04  0.00000000000E+00 0. -1.
         -2   -1    0    0    0  501 -0.00000000000E+00 -0.00000000000E+00 -0.24108091919E+01  0.24108091919E+01  0.00000000000E+00 0.  1.
          2    1    1    2  502    0  0.66238515581E+01 -0.26354443117E+02  0.10862021050E+04  0.10865419666E+04  0.00000000000E+00 0. -1.
         -2    1    1    2    0  502 -0.66238515581E+01  0.26354443117E+02  0.80141109510E+02  0.84622866384E+02  0.00000000000E+00 0.  1.
<mgrwt>
<rscale>  2 0.27174107E+02</rscale>
<asrwt>0</asrwt>
<pdfrwt beam="1">  1        2 0.17980786E+00 0.27174107E+02</pdfrwt>
<pdfrwt beam="2">  1       -2 0.37089466E-03 0.27174107E+02</pdfrwt>
<totfact> 0.13313037E+05</totfact>
</mgrwt>
</event>
<event>
 4    1  0.1474645E+004  0.2197015E+02  0.7546771E-02  0.1708769E+00
         -2   -1    0    0    0  501 -0.00000000000E+00  0.00000000000E+00  0.70768108293E+01  0.70768108293E+01  0.00000000000E+00 0.  1.
          2   -1    0    0  501    0  0.00000000000E+00 -0.00000000000E+00 -0.86615127283E+03  0.86615127283E+03  0.00000000000E+00 0. -1.
          2    1    1    2  502    0  0.21250014992E+02  0.55789124425E+01 -0.84860776964E+03  0.84889212158E+03  0.00000000000E+00 0. -1.
         -2    1    1    2    0  502 -0.21250014992E+02 -0.55789124425E+01 -0.10466692370E+02  0.24335962080E+02  0.00000000000E+00 0.  1.
<mgrwt>
<rscale>  2 0.21970148E+02</rscale>
<asrwt>0</asrwt>
<pdfrwt beam="2">  1        2 0.13325398E+00 0.21970148E+02</pdfrwt>
<pdfrwt beam="1">  1       -2 0.10887406E-02 0.21970148E+02</pdfrwt>
<totfact> 0.43707522E+04</totfact>
</mgrwt>
</event>
<event>
 4    1  0.1474645E+004  0.2024862E+02  0.7546771E-02  0.1740429E+00
         -2   -1    0    0    0  501 -0.00000000000E+00  0.00000000000E+00  0.67600260293E+02  0.67600260293E+02  0.00000000000E+00 0. -1.
          2   -1    0    0  501    0  0.00000000000E+00 -0.00000000000E+00 -0.27265084163E+02  0.27265084163E+02  0.00000000000E+00 0.  1.
          2    1    1    2  502    0  0.20586054909E+00  0.20247569603E+02 -0.21657928730E+02  0.29649153955E+02  0.00000000000E+00 0.  1.
         -2    1    1    2    0  502 -0.20586054909E+00 -0.20247569603E+02  0.61993104859E+02  0.65216190501E+02  0.00000000000E+00 0. -1.
<mgrwt>
<rscale>  2 0.20248616E+02</rscale>
<asrwt>0</asrwt>
<pdfrwt beam="2">  1        2 0.41946284E-02 0.20248616E+02</pdfrwt>
<pdfrwt beam="1">  1       -2 0.10400040E-01 0.20248616E+02</pdfrwt>
<totfact> 0.76309704E+04</totfact>
</mgrwt>
</event>
<event>
 4    1  0.1474645E+004  0.2602466E+02  0.7546771E-02  0.1646706E+00
          2   -1    0    0  501    0  0.00000000000E+00  0.00000000000E+00  0.37260728395E+03  0.37260728395E+03  0.00000000000E+00 0.  1.
         -2   -1    0    0    0  501 -0.00000000000E+00 -0.00000000000E+00 -0.38393515089E+01  0.38393515089E+01  0.00000000000E+00 0. -1.
          2    1    1    2  502    0 -0.71197317441E+01 -0.25031823816E+02  0.32096777281E+03  0.32202110795E+03  0.00000000000E+00 0.  1.
         -2    1    1    2    0  502  0.71197317441E+01  0.25031823816E+02  0.47800159628E+02  0.54425527505E+02  0.00000000000E+00 0. -1.
<mgrwt>
<rscale>  2 0.26024657E+02</rscale>
<asrwt>0</asrwt>
<pdfrwt beam="1">  1        2 0.57324169E-01 0.26024657E+02</pdfrwt>
<pdfrwt beam="2">  1       -2 0.59066976E-03 0.26024657E+02</pdfrwt>
<totfact> 0.25097239E+05</totfact>
</mgrwt>
</event>
<event>
 4    1  0.1474645E+004  0.2391127E+02  0.7546771E-02  0.1677151E+00
         -2   -1    0    0    0  501 -0.00000000000E+00  0.00000000000E+00  0.80457999856E+01  0.80457999856E+01  0.00000000000E+00 0. -1.
          2   -1    0    0  501    0  0.00000000000E+00 -0.00000000000E+00 -0.10375367988E+04  0.10375367988E+04  0.00000000000E+00 0.  1.
          2    1    1    2  502    0  0.13943298036E+02 -0.19425064822E+02 -0.10193160716E+04  0.10195964900E+04  0.00000000000E+00 0.  1.
         -2    1    1    2    0  502 -0.13943298036E+02  0.19425064822E+02 -0.10174927219E+02  0.25986108739E+02  0.00000000000E+00 0. -1.
<mgrwt>
<rscale>  2 0.23911267E+02</rscale>
<asrwt>0</asrwt>
<pdfrwt beam="2">  1        2 0.15962098E+00 0.23911267E+02</pdfrwt>
<pdfrwt beam="1">  1       -2 0.12378159E-02 0.23911267E+02</pdfrwt>
<totfact> 0.29916615E+04</totfact>
</mgrwt>
</event>
<event>
 4    1  0.1474645E+004  0.3567251E+02  0.7546771E-02  0.1542708E+00
          2   -1    0    0  501    0  0.00000000000E+00  0.00000000000E+00  0.59387736918E+01  0.59387736918E+01  0.00000000000E+00 0. -1.
         -2   -1    0    0    0  501 -0.00000000000E+00 -0.00000000000E+00 -0.21993590174E+03  0.21993590174E+03  0.00000000000E+00 0. -1.
          2    1    1    2  502    0 -0.35672159724E+02 -0.15371877644E+00 -0.12511859459E+03  0.13010453228E+03  0.00000000000E+00 0. -1.
         -2    1    1    2    0  502  0.35672159724E+02  0.15371877644E+00 -0.88878533462E+02  0.95770143151E+02  0.00000000000E+00 0. -1.
<mgrwt>
<rscale>  2 0.35672509E+02</rscale>
<asrwt>0</asrwt>
<pdfrwt beam="1">  1        2 0.91365732E-03 0.35672509E+02</pdfrwt>
<pdfrwt beam="2">  1       -2 0.33836299E-01 0.35672509E+02</pdfrwt>
<totfact> 0.92852881E+04</totfact>
</mgrwt>
</event>
<event>
 4    1  0.1474645E+004  0.3168655E+02  0.7546771E-02  0.1580161E+00
         -2   -1    0    0    0  501 -0.00000000000E+00  0.00000000000E+00  0.28311620321E+02  0.28311620321E+02  0.00000000000E+00 0.  1.
          2   -1    0    0  501    0  0.00000000000E+00 -0.00000000000E+00 -0.18560060951E+04  0.18560060951E+04  0.00000000000E+00 0. -1.
          2    1    1    2  502    0 -0.31579228549E+02 -0.26056822709E+01 -0.18469614933E+04  0.18472332812E+04  0.00000000000E+00 0. -1.
         -2    1    1    2    0  502  0.31579228549E+02  0.26056822709E+01  0.19267018580E+02  0.37084434212E+02  0.00000000000E+00 0.  1.
<mgrwt>
<rscale>  2 0.31686547E+02</rscale>
<asrwt>0</asrwt>
<pdfrwt beam="2">  1        2 0.28553932E+00 0.31686547E+02</pdfrwt>
<pdfrwt beam="1">  1       -2 0.43556352E-02 0.31686547E+02</pdfrwt>
<totfact> 0.21279277E+03</totfact>
</mgrwt>
</event>
<event>
 4    1  0.1474645E+004  0.6427883E+02  0.7546771E-02  0.1380705E+00
         -2   -1    0    0    0  501 -0.00000000000E+00  0.00000000000E+00  0.85664009648E+02  0.85664009648E+02  0.00000000000E+00 0.  1.
          2   -1    0    0  501    0  0.00000000000E+00 -0.00000000000E+00 -0.51810076315E+03  0.51810076315E+03  0.00000000000E+00 0. -1.
          2    1    1    2  502    0  0.14662967206E+02 -0.62584065445E+02 -0.50370578681E+03  0.50779059416E+03  0.00000000000E+00 0. -1.
         -2    1    1    2    0  502 -0.14662967206E+02  0.62584065445E+02  0.71269033311E+02  0.95974178631E+02  0.00000000000E+00 0.  1.
<mgrwt>
<rscale>  2 0.64278829E+02</rscale>
<asrwt>0</asrwt>
<pdfrwt beam="2">  1        2 0.79707810E-01 0.64278829E+02</pdfrwt>
<pdfrwt beam="1">  1       -2 0.13179078E-01 0.64278829E+02</pdfrwt>
<totfact> 0.24047177E+03</totfact>
</mgrwt>
</event>
<event>
 4    1  0.1474645E+004  0.2677478E+02  0.7546771E-02  0.1636745E+00
          2   -1    0    0  501    0  0.00000000000E+00  0.00000000000E+00  0.21135620105E+03  0.21135620105E+03  0.00000000000E+00 0. -1.
         -2   -1    0    0    0  501 -0.00000000000E+00 -0.00000000000E+00 -0.59963570737E+01  0.59963570737E+01  0.00000000000E+00 0. -1.
          2    1    1    2  502    0 -0.21317611304E+02  0.16200250783E+02  0.17430312351E+03  0.17634757595E+03  0.00000000000E+00 0. -1.
         -2    1    1    2    0  502  0.21317611304E+02 -0.16200250783E+02  0.31056720465E+02  0.41004982175E+02  0.00000000000E+00 0. -1.
<mgrwt>
<rscale>  2 0.26774777E+02</rscale>
<asrwt>0</asrwt>
<pdfrwt beam="1">  1        2 0.32516333E-01 0.26774777E+02</pdfrwt>
<pdfrwt beam="2">  1       -2 0.92251664E-03 0.26774777E+02</pdfrwt>
<totfact> 0.24333008E+05</totfact>
</mgrwt>
</event>
<event>
 4    1  0.1474645E+004  0.2271684E+02  0.7546771E-02  0.1696142E+00
          2   -1    0    0  501    0  0.00000000000E+00  0.00000000000E+00  0.67480023116E+03  0.67480023116E+03  0.00000000000E+00 0. -1.
         -2   -1    0    0    0  501 -0.00000000000E+00 -0.00000000000E+00 -0.85281505727E+00  0.85281505727E+00  0.00000000000E+00 0. -1.
          2    1    1    2  502    0 -0.16053221502E+01 -0.22660044266E+02  0.44553219497E+03  0.44611096313E+03  0.00000000000E+00 0. -1.
         -2    1    1    2    0  502  0.16053221502E+01  0.22660044266E+02  0.22841522113E+03  0.22954208309E+03  0.00000000000E+00 0. -1.
<mgrwt>
<rscale>  2 0.22716837E+02</rscale>
<asrwt>0</asrwt>
<pdfrwt beam="1">  1        2 0.10381499E+00 0.22716837E+02</pdfrwt>
<pdfrwt beam="2">  1       -2 0.13120286E-03 0.22716837E+02</pdfrwt>
<totfact> 0.97900693E+05</totfact>
</mgrwt>
</event>
<event>
 4    1  0.1474645E+004  0.3536989E+02  0.7546771E-02  0.1545340E+00
         -2   -1    0    0    0  501 -0.00000000000E+00  0.00000000000E+00  0.15352165636E+02  0.15352165636E+02  0.00000000000E+00 0.  1.
          2   -1    0    0  501    0  0.00000000000E+00 -0.00000000000E+00 -0.30450422128E+03  0.30450422128E+03  0.00000000000E+00 0. -1.
          2    1    1    2  502    0 -0.35363373899E+02 -0.67887168277E+00 -0.28144211464E+03  0.28365594119E+03  0.00000000000E+00 0. -1.
         -2    1    1    2    0  502  0.35363373899E+02  0.67887168277E+00 -0.77099410014E+01  0.36200445722E+02  0.00000000000E+00 0.  1.
<mgrwt>
<rscale>  2 0.35369889E+02</rscale>
<asrwt>0</asrwt>
<pdfrwt beam="2">  1        2 0.46846799E-01 0.35369889E+02</pdfrwt>
<pdfrwt beam="1">  1       -2 0.23618719E-02 0.35369889E+02</pdfrwt>
<totfact> 0.49017036E+04</totfact>
</mgrwt>
</event>
<event>
 4    1  0.1474645E+004  0.2336553E+02  0.7546771E-02  0.1685653E+00
          2   -1    0    0  501    0  0.00000000000E+00  0.00000000000E+00  0.32969733391E+02  0.32969733391E+02  0.00000000000E+00 0.  1.
         -2   -1    0    0    0  501 -0.00000000000E+00 -0.00000000000E+00 -0.62230234755E+02  0.62230234755E+02  0.00000000000E+00 0.  1.
          2    1    1    2  502    0 -0.19901978575E+02 -0.12241705092E+02  0.26147863316E+02  0.35066491851E+02  0.00000000000E+00 0.  1.
         -2    1    1    2    0  502  0.19901978575E+02  0.12241705092E+02 -0.55408364680E+02  0.60133476294E+02  0.00000000000E+00 0.  1.
<mgrwt>
<rscale>  2 0.23365532E+02</rscale>
<asrwt>0</asrwt>
<pdfrwt beam="1">  1        2 0.50722668E-02 0.23365532E+02</pdfrwt>
<pdfrwt beam="2">  1       -2 0.95738820E-02 0.23365532E+02</pdfrwt>
<totfact> 0.70815106E+04</totfact>
</mgrwt>
</event>
<event>
 4    1  0.1474645E+004  0.3907507E+02  0.7546771E-02  0.1515130E+00
         -2   -1    0    0    0  501 -0.00000000000E+00  0.00000000000E+00  0.12759653328E+03  0.12759653328E+03  0.00000000000E+00 0.  1.
          2   -1    0    0  501    0  0.00000000000E+00 -0.00000000000E+00 -0.11871312411E+03  0.11871312411E+03  0.00000000000E+00 0. -1.
          2    1    1    2  502    0 -0.32755967206E+02 -0.21305110955E+02 -0.11234126519E+03  0.11894293171E+03  0.00000000000E+00 0. -1.
         -2    1    1    2    0  502  0.32755967206E+02  0.21305110955E+02  0.12122467435E+03  0.12736672569E+03  0.00000000000E+00 0.  1.
<mgrwt>
<rscale>  2 0.39075071E+02</rscale>
<asrwt>0</asrwt>
<pdfrwt beam="2">  1        2 0.18263557E-01 0.39075071E+02</pdfrwt>
<pdfrwt beam="1">  1       -2 0.19630236E-01 0.39075071E+02</pdfrwt>
<totfact> 0.56949394E+03</totfact>
</mgrwt>
</event>
<event>
 4    1  0.1474645E+004  0.2458221E+02  0.7546771E-02  0.1667076E+00
          2   -1    0    0  501    0  0.00000000000E+00  0.00000000000E+00  0.18794246690E+02  0.18794246690E+02  0.00000000000E+00 0.  1.
         -2   -1    0    0    0  501 -0.00000000000E+00 -0.00000000000E+00 -0.17658777710E+03  0.17658777710E+03  0.00000000000E+00 0.  1.
          2    1    1    2  502    0  0.17974282986E+02 -0.16769327238E+02  0.94540730405E+01  0.26337514726E+02  0.00000000000E+00 0.  1.
         -2    1    1    2    0  502 -0.17974282986E+02  0.16769327238E+02 -0.16724760345E+03  0.16904450907E+03  0.00000000000E+00 0.  1.
<mgrwt>
<rscale>  2 0.24582213E+02</rscale>
<asrwt>0</asrwt>
<pdfrwt beam="1">  1        2 0.28914226E-02 0.24582213E+02</pdfrwt>
<pdfrwt beam="2">  1       -2 0.27167350E-01 0.24582213E+02</pdfrwt>
<totfact> 0.27930054E+04</totfact>
</mgrwt>
</event>
<event>
 4    1  0.1474645E+004  0.3330516E+02  0.7546771E-02  0.1564188E+00
         -2   -1    0    0    0  501 -0.00000000000E+00  0.00000000000E+00  0.65689757083E+00  0.65689757083E+00  0.00000000000E+00 0. -1.
          2   -1    0    0  501    0  0.00000000000E+00 -0.00000000000E+00 -0.19654949413E+04  0.19654949413E+04  0.00000000000E+00 0. -1.
          2    1    1    2  502    0 -0.19793252845E+02  0.26785434537E+02 -0.61342916723E+03  0.61433262616E+03  0.00000000000E+00 0. -1.
         -2    1    1    2    0  502  0.19793252845E+02 -0.26785434537E+02 -0.13514088765E+04  0.13518192127E+04  0.00000000000E+00 0. -1.
<mgrwt>
<rscale>  2 0.33305157E+02</rscale>
<asrwt>0</asrwt>
<pdfrwt beam="2">  1        2 0.30237941E+00 0.33305157E+02</pdfrwt>
<pdfrwt beam="1">  1       -2 0.10106264E-03 0.33305157E+02</pdfrwt>
<totfact> 0.32606106E+05</totfact>
</mgrwt>
</event>
<event>
 4    1  0.1474645E+004  0.2846474E+02  0.7546771E-02  0.1615706E+00
          2   -1    0    0  501    0  0.00000000000E+00  0.00000000000E+00  0.75198219980E+03  0.75198219980E+03  0.00000000000E+00 0. -1.
         -2   -1    0    0    0  501 -0.00000000000E+00 -0.00000000000E+00 -0.41659803709E+01  0.41659803709E+01  0.00000000000E+00 0.  1.
          2    1    1    2  502    0  0.88351530871E+01 -0.27058848277E+02  0.69943926773E+03  0.70001823580E+03  0.00000000000E+00 0. -1.
         -2    1    1    2    0  502 -0.88351530871E+01  0.27058848277E+02  0.48376951698E+02  0.56129944377E+02  0.00000000000E+00 0.  1.
<mgrwt>
<rscale>  2 0.28464736E+02</rscale>
<asrwt>0</asrwt>
<pdfrwt beam="1">  1        2 0.11568946E+00 0.28464736E+02</pdfrwt>
<pdfrwt beam="2">  1       -2 0.64092065E-03 0.28464736E+02</pdfrwt>
<totfact> 0.11070813E+05</totfact>
</mgrwt>
</event>
<event>
 4    1  0.1474645E+004  0.3214312E+02  0.7546771E-02  0.1575540E+00
          2   -1    0    0  501    0  0.00000000000E+00  0.00000000000E+00  0.22992774239E+03  0.22992774239E+03  0.00000000000E+00 0.  1.
         -2   -1    0    0    0  501 -0.00000000000E+00 -0.00000000000E+00 -0.46924824445E+01  0.46924824445E+01  0.00000000000E+00 0. -1.
          2    1    1    2  502    0 -0.39693600606E+00  0.32140671842E+02  0.13677453775E+03  0.14050072783E+03  0.00000000000E+00 0.  1.
         -2    1    1    2    0  502  0.39693600606E+00 -0.32140671842E+02  0.88460722198E+02  0.94119497005E+02  0.00000000000E+00 0. -1.
<mgrwt>
<rscale>  2 0.32143123E+02</rscale>
<asrwt>0</asrwt>
<pdfrwt beam="1">  1        2 0.35373490E-01 0.32143123E+02</pdfrwt>
<pdfrwt beam="2">  1       -2 0.72192056E-03 0.32143123E+02</pdfrwt>
<totfact> 0.32696109E+05</totfact>
</mgrwt>
</event>
<event>
 4    1  0.1474645E+004  0.2052212E+02  0.7546771E-02  0.1735140E+00
         -2   -1    0    0    0  501 -0.00000000000E+00  0.00000000000E+00  0.74597882663E+01  0.74597882663E+01  0.00000000000E+00 0. -1.
          2   -1    0    0  501    0  0.00000000000E+00 -0.00000000000E+00 -0.10596592960E+03  0.10596592960E+03  0.00000000000E+00 0.  1.
          2    1    1    2  502    0 -0.18646240087E+02 -0.85717644039E+01 -0.88018098127E+02  0.90378885877E+02  0.00000000000E+00 0.  1.
         -2    1    1    2    0  502  0.18646240087E+02  0.85717644039E+01 -0.10488043203E+02  0.23046831986E+02  0.00000000000E+00 0. -1.
<mgrwt>
<rscale>  2 0.20522120E+02</rscale>
<asrwt>0</asrwt>
<pdfrwt beam="2">  1        2 0.16302450E-01 0.20522120E+02</pdfrwt>
<pdfrwt beam="1">  1       -2 0.11476598E-02 0.20522120E+02</pdfrwt>
<totfact> 0.34528785E+05</totfact>
</mgrwt>
</event>
<event>
 4    1  0.1474645E+004  0.2228816E+02  0.7546771E-02  0.1703316E+00
         -2   -1    0    0    0  501 -0.00000000000E+00  0.00000000000E+00  0.66488932780E+02  0.66488932780E+02  0.00000000000E+00 0.  1.
          2   -1    0    0  501    0  0.00000000000E+00 -0.00000000000E+00 -0.19056401237E+02  0.19056401237E+02  0.00000000000E+00 0.  1.
          2    1    1    2  502    0 -0.67071510156E+01  0.21255024522E+02 -0.96336627184E+01  0.24281050215E+02  0.00000000000E+00 0.  1.
         -2    1    1    2    0  502  0.67071510156E+01 -0.21255024522E+02  0.57066194262E+02  0.61264283802E+02  0.00000000000E+00 0.  1.
<mgrwt>
<rscale>  2 0.22288157E+02</rscale>
<asrwt>0</asrwt>
<pdfrwt beam="2">  1        2 0.29317541E-02 0.22288157E+02</pdfrwt>
<pdfrwt beam="1">  1       -2 0.10229067E-01 0.22288157E+02</pdfrwt>
<totfact> 0.12531866E+05</totfact>
</mgrwt>
</event>
<event>
 4    1  0.1474645E+004  0.2698292E+02  0.7546771E-02  0.1634052E+00
         -2   -1    0    0    0  501 -0.00000000000E+00  0.00000000000E+00  0.38730658417E+01  0.38730658417E+01  0.00000000000E+00 0.  1.
          2   -1    0    0  501    0  0.00000000000E+00 -0.00000000000E+00 -0.11398254987E+04  0.11398254987E+04  0.00000000000E+00 0.  1.
          2    1    1    2  502    0  0.53184760419E+01  0.26453574557E+02 -0.10905462653E+04  0.10908800276E+04  0.00000000000E+00 0.  1.
         -2    1    1    2    0  502 -0.53184760419E+01 -0.26453574557E+02 -0.45406167485E+02  0.52818536897E+02  0.00000000000E+00 0.  1.
<mgrwt>
<rscale>  2 0.26982917E+02</rscale>
<asrwt>0</asrwt>
<pdfrwt beam="2">  1        2 0.17535772E+00 0.26982917E+02</pdfrwt>
<pdfrwt beam="1">  1       -2 0.59585645E-03 0.26982917E+02</pdfrwt>
<totfact> 0.72652944E+04</totfact>
</mgrwt>
</event>
<event>
 4    1  0.1474645E+004  0.2025532E+02  0.7546771E-02  0.1740298E+00
         -2   -1    0    0    0  501 -0.00000000000E+00  0.00000000000E+00  0.24379223344E+00  0.24379223344E+00  0.00000000000E+00 0.  1.
          2   -1    0    0  501    0  0.00000000000E+00 -0.00000000000E+00 -0.16887532437E+04  0.16887532437E+04  0.00000000000E+00 0.  1.
          2    1    1    2  502    0  0.16014126796E+02  0.12402643435E+02 -0.89397501426E+03  0.89420445309E+03  0.00000000000E+00 0.  1.
         -2    1    1    2    0  502 -0.16014126796E+02 -0.12402643435E+02 -0.79453443716E+03  0.79479258279E+03  0.00000000000E+00 0.  1.
<mgrwt>
<rscale>  2 0.20255316E+02</rscale>
<asrwt>0</asrwt>
<pdfrwt beam="2">  1        2 0.25981015E+00 0.20255316E+02</pdfrwt>
<pdfrwt beam="1">  1       -2 0.37506215E-04 0.20255316E+02</pdfrwt>
<totfact> 0.14349496E+06</totfact>
</mgrwt>
</event>
<event>
 4    1  0.1474645E+004  0.2357664E+02  0.7546771E-02  0.1682330E+00
         -2   -1    0    0    0  501 -0.00000000000E+00  0.00000000000E+00  0.20398369629E+01  0.20398369629E+01  0.00000000000E+00 0.  1.
          2   -1    0    0  501    0  0.00000000000E+00 -0.00000000000E+00 -0.70847572974E+03  0.70847572974E+03  0.00000000000E+00 0. -1.
          2    1    1    2  502    0  0.17556012026E+02  0.15736719184E+02 -0.63190173377E+03  0.63234141018E+03  0.00000000000E+00 0. -1.
         -2    1    1    2    0  502 -0.17556012026E+02 -0.15736719184E+02 -0.74534159010E+02  0.78174156525E+02  0.00000000000E+00 0.  1.
<mgrwt>
<rscale>  2 0.23576639E+02</rscale>
<asrwt>0</asrwt>
<pdfrwt beam="2">  1        2 0.10899613E+00 0.23576639E+02</pdfrwt>
<pdfrwt beam="1">  1       -2 0.31382146E-03 0.23576639E+02</pdfrwt>
<totfact> 0.29543248E+05</totfact>
</mgrwt>
</event>
<event>
 4    1  0.1474645E+004  0.4183949E+02  0.7546771E-02  0.1495095E+00
         -2   -1    0    0    0  501 -0.00000000000E+00  0.00000000000E+00  0.56042753476E+01  0.56042753476E+01  0.00000000000E+00 0.  1.
          2   -1    0    0  501    0  0.00000000000E+00 -0.00000000000E+00 -0.90294993549E+03  0.90294993549E+03  0.00000000000E+00 0.  1.
          2    1    1    2  502    0  0.31465221664E+02  0.27576849958E+02 -0.81606728782E+03  0.81713913202E+03  0.00000000000E+00 0.  1.
         -2    1    1    2    0  502 -0.31465221664E+02 -0.27576849958E+02 -0.81278372325E+02  0.91415078820E+02  0.00000000000E+00 0.  1.
<mgrwt>
<rscale>  2 0.41839489E+02</rscale>
<asrwt>0</asrwt>
<pdfrwt beam="2">  1        2 0.13891541E+00 0.41839489E+02</pdfrwt>
<pdfrwt beam="1">  1       -2 0.86219601E-03 0.41839489E+02</pdfrwt>
<totfact> 0.63833575E+04</totfact>
</mgrwt>
</event>
<event>
 4    1  0.1474645E+004  0.2221213E+02  0.7546771E-02  0.1704609E+00
          2   -1    0    0  501    0  0.00000000000E+00  0.00000000000E+00  0.13989044646E+04  0.13989044646E+04  0.00000000000E+00 0. -1.
         -2   -1    0    0    0  501 -0.00000000000E+00 -0.00000000000E+00 -0.79740624783E+01  0.79740624783E+01  0.00000000000E+00 0. -1.
          2    1    1    2  502    0 -0.13072890673E+02 -0.17957681430E+02  0.13831721281E+04  0.13833504670E+04  0.00000000000E+00 0. -1.
         -2    1    1    2    0  502  0.13072890673E+02  0.17957681430E+02  0.77582740531E+01  0.23528060039E+02  0.00000000000E+00 0. -1.
<mgrwt>
<rscale>  2 0.22212132E+02</rscale>
<asrwt>0</asrwt>
<pdfrwt beam="1">  1        2 0.21521588E+00 0.22212132E+02</pdfrwt>
<pdfrwt beam="2">  1       -2 0.12267800E-02 0.22212132E+02</pdfrwt>
<totfact> 0.19746021E+04</totfact>
</mgrwt>
</event>
<event>
 4    1  0.1474645E+004  0.2939407E+02  0.7546771E-02  0.1604885E+00
         -2   -1    0    0    0  501 -0.00000000000E+00  0.00000000000E+00  0.11533437190E+03  0.11533437190E+03  0.00000000000E+00 0. -1.
          2   -1    0    0  501    0  0.00000000000E+00 -0.00000000000E+00 -0.14153777100E+03  0.14153777100E+03  0.00000000000E+00 0. -1.
          2    1    1    2  502    0  0.23973845461E+02 -0.17007826712E+02 -0.13809260971E+03  0.14118633181E+03  0.00000000000E+00 0. -1.
         -2    1    1    2    0  502 -0.23973845461E+02  0.17007826712E+02  0.11188921061E+03  0.11568581108E+03  0.00000000000E+00 0. -1.
<mgrwt>
<rscale>  2 0.29394071E+02</rscale>
<asrwt>0</asrwt>
<pdfrwt beam="2">  1        2 0.21775042E-01 0.29394071E+02</pdfrwt>
<pdfrwt beam="1">  1       -2 0.17743749E-01 0.29394071E+02</pdfrwt>
<totfact> 0.53704732E+03</totfact>
</mgrwt>
</event>
<event>
 4    1  0.1474645E+004  0.3689408E+02  0.7546771E-02  0.1532396E+00
         -2   -1    0    0    0  501 -0.00000000000E+00  0.00000000000E+00  0.41996284050E+01  0.41996284050E+01  0.00000000000E+00 0. -1.
          2   -1    0    0  501    0  0.00000000000E+00 -0.00000000000E+00 -0.14832939014E+04  0.14832939014E+04  0.00000000000E+00 0. -1.
          2    1    1    2  502    0  0.34243529223E+02  0.13731481077E+02 -0.13970327559E+04  0.13975198367E+04  0.00000000000E+00 0. -1.
         -2    1    1    2    0  502 -0.34243529223E+02 -0.13731481077E+02 -0.82061517108E+02  0.89973693134E+02  0.00000000000E+00 0. -1.
<mgrwt>
<rscale>  2 0.36894076E+02</rscale>
<asrwt>0</asrwt>
<pdfrwt beam="2">  1        2 0.22819908E+00 0.36894076E+02</pdfrwt>
<pdfrwt beam="1">  1       -2 0.64609663E-03 0.36894076E+02</pdfrwt>
<totfact> 0.46087452E+04</totfact>
</mgrwt>
</event>
<event>
 4    1  0.1474645E+004  0.2452824E+02  0.7546771E-02  0.1667872E+00
         -2   -1    0    0    0  501 -0.00000000000E+00  0.00000000000E+00  0.24237457169E+02  0.24237457169E+02  0.00000000000E+00 0. -1.
          2   -1    0    0  501    0  0.00000000000E+00 -0.00000000000E+00 -0.10628783480E+03  0.10628783480E+03  0.00000000000E+00 0.  1.
          2    1    1    2  502    0 -0.12992199191E+02  0.20804738279E+02 -0.98161120116E+02  0.10117924628E+03  0.00000000000E+00 0.  1.
         -2    1    1    2    0  502  0.12992199191E+02 -0.20804738279E+02  0.16110742481E+02  0.29346045695E+02  0.00000000000E+00 0. -1.
<mgrwt>
<rscale>  2 0.24528236E+02</rscale>
<asrwt>0</asrwt>
<pdfrwt beam="2">  1        2 0.16351975E-01 0.24528236E+02</pdfrwt>
<pdfrwt beam="1">  1       -2 0.37288396E-02 0.24528236E+02</pdfrwt>
<totfact> 0.71505531E+04</totfact>
</mgrwt>
</event>
<event>
 4    1  0.1474645E+004  0.2538764E+02  0.7546771E-02  0.1655496E+00
         -2   -1    0    0    0  501 -0.00000000000E+00  0.00000000000E+00  0.79565797919E+02  0.79565797919E+02  0.00000000000E+00 0. -1.
          2   -1    0    0  501    0  0.00000000000E+00 -0.00000000000E+00 -0.14202680236E+03  0.14202680236E+03  0.00000000000E+00 0. -1.
          2    1    1    2  502    0 -0.80735787626E+01  0.24069685199E+02 -0.13882073459E+03  0.14112309794E+03  0.00000000000E+00 0. -1.
         -2    1    1    2    0  502  0.80735787626E+01 -0.24069685199E+02  0.76359730145E+02  0.80469502344E+02  0.00000000000E+00 0. -1.
<mgrwt>
<rscale>  2 0.25387643E+02</rscale>
<asrwt>0</asrwt>
<pdfrwt beam="2">  1        2 0.21850277E-01 0.25387643E+02</pdfrwt>
<pdfrwt beam="1">  1       -2 0.12240892E-01 0.25387643E+02</pdfrwt>
<totfact> 0.93608734E+03</totfact>
</mgrwt>
</event>
<event>
 4    1  0.1474645E+004  0.2134962E+02  0.7546771E-02  0.1719749E+00
         -2   -1    0    0    0  501 -0.00000000000E+00  0.00000000000E+00  0.14471180376E+03  0.14471180376E+03  0.00000000000E+00 0. -1.
          2   -1    0    0  501    0  0.00000000000E+00 -0.00000000000E+00 -0.56524426324E+02  0.56524426324E+02  0.00000000000E+00 0. -1.
          2    1    1    2  502    0 -0.87179553288E+01 -0.19488545824E+02 -0.53680837038E+02  0.57770567148E+02  0.00000000000E+00 0. -1.
         -2    1    1    2    0  502  0.87179553288E+01  0.19488545824E+02  0.14186821448E+03  0.14346566294E+03  0.00000000000E+00 0. -1.
<mgrwt>
<rscale>  2 0.21349617E+02</rscale>
<asrwt>0</asrwt>
<pdfrwt beam="2">  1        2 0.86960656E-02 0.21349617E+02</pdfrwt>
<pdfrwt beam="1">  1       -2 0.22263354E-01 0.21349617E+02</pdfrwt>
<totfact> 0.98721887E+03</totfact>
</mgrwt>
</event>
<event>
 4    1  0.1474645E+004  0.2695961E+02  0.7546771E-02  0.1634352E+00
          2   -1    0    0  501    0  0.00000000000E+00  0.00000000000E+00  0.16234398163E+03  0.16234398163E+03  0.00000000000E+00 0. -1.
         -2   -1    0    0    0  501 -0.00000000000E+00 -0.00000000000E+00 -0.68533438173E+01  0.68533438173E+01  0.00000000000E+00 0. -1.
          2    1    1    2  502    0 -0.11271241301E+02 -0.24490398553E+02  0.12756067277E+03  0.13037847115E+03  0.00000000000E+00 0. -1.
         -2    1    1    2    0  502  0.11271241301E+02  0.24490398553E+02  0.27929965045E+02  0.38818854300E+02  0.00000000000E+00 0. -1.
<mgrwt>
<rscale>  2 0.26959609E+02</rscale>
<asrwt>0</asrwt>
<pdfrwt beam="1">  1        2 0.24975994E-01 0.26959609E+02</pdfrwt>
<pdfrwt beam="2">  1       -2 0.10543607E-02 0.26959609E+02</pdfrwt>
<totfact> 0.26639320E+05</totfact>
</mgrwt>
</event>
<event>
 4    1  0.1474645E+004  0.2658685E+02  0.7546771E-02  0.1639203E+00
         -2   -1    0    0    0  501 -0.00000000000E+00  0.00000000000E+00  0.19143869624E+02  0.19143869624E+02  0.00000000000E+00 0.  1.
          2   -1    0    0  501    0  0.00000000000E+00 -0.00000000000E+00 -0.39186033028E+02  0.39186033028E+02  0.00000000000E+00 0. -1.
          2    1    1    2  502    0  0.11763788746E+02 -0.23842684685E+02 -0.17028930199E+02  0.31572849133E+02  0.00000000000E+00 0. -1.
         -2    1    1    2    0  502 -0.11763788746E+02  0.23842684685E+02 -0.30132332055E+01  0.26757053519E+02  0.00000000000E+00 0.  1.
<mgrwt>
<rscale>  2 0.26586845E+02</rscale>
<asrwt>0</asrwt>
<pdfrwt beam="2">  1        2 0.60286204E-02 0.26586845E+02</pdfrwt>
<pdfrwt beam="1">  1       -2 0.29452107E-02 0.26586845E+02</pdfrwt>
<totfact> 0.32137946E+05</totfact>
</mgrwt>
</event>
<event>
 4    1  0.1474645E+004  0.2003774E+02  0.7546771E-02  0.1744579E+00
         -2   -1    0    0    0  501 -0.00000000000E+00  0.00000000000E+00  0.37997113718E+00  0.37997113718E+00  0.00000000000E+00 0.  1.
          2   -1    0    0  501    0  0.00000000000E+00 -0.00000000000E+00 -0.14173822061E+04  0.14173822061E+04  0.00000000000E+00 0.  1.
          2    1    1    2  502    0  0.15471717236E+01 -0.19977917694E+02 -0.10661027509E+04  0.10662910421E+04  0.00000000000E+00 0.  1.
         -2    1    1    2    0  502 -0.15471717236E+01  0.19977917694E+02 -0.35089948409E+03  0.35147113519E+03  0.00000000000E+00 0.  1.
<mgrwt>
<rscale>  2 0.20037738E+02</rscale>
<asrwt>0</asrwt>
<pdfrwt beam="2">  1        2 0.21805764E+00 0.20037738E+02</pdfrwt>
<pdfrwt beam="1">  1       -2 0.58457408E-04 0.20037738E+02</pdfrwt>
<totfact> 0.10714045E+06</totfact>
</mgrwt>
</event>
<event>
 4    1  0.1474645E+004  0.2429837E+02  0.7546771E-02  0.1671289E+00
         -2   -1    0    0    0  501 -0.00000000000E+00  0.00000000000E+00  0.24837762533E+01  0.24837762533E+01  0.00000000000E+00 0. -1.
          2   -1    0    0  501    0  0.00000000000E+00 -0.00000000000E+00 -0.37324455532E+03  0.37324455532E+03  0.00000000000E+00 0.  1.
          2    1    1    2  502    0 -0.18283371841E+02 -0.16004039137E+02 -0.29858837502E+03  0.29957541396E+03  0.00000000000E+00 0.  1.
         -2    1    1    2    0  502  0.18283371841E+02  0.16004039137E+02 -0.72172404051E+02  0.76152917614E+02  0.00000000000E+00 0. -1.
<mgrwt>
<rscale>  2 0.24298373E+02</rscale>
<asrwt>0</asrwt>
<pdfrwt beam="2">  1        2 0.57422267E-01 0.24298373E+02</pdfrwt>
<pdfrwt beam="1">  1       -2 0.38211924E-03 0.24298373E+02</pdfrwt>
<totfact> 0.44142302E+05</totfact>
</mgrwt>
</event>
<event>
 4    1  0.1497132E+004  0.2352812E+02  0.7546771E-02  0.1683090E+00
          2   -1    0    0  501    0  0.00000000000E+00  0.00000000000E+00  0.13481456824E+04  0.13481456824E+04  0.00000000000E+00 0.  1.
         -2   -1    0    0    0  501 -0.00000000000E+00 -0.00000000000E+00 -0.11080663147E+03  0.11080663147E+03  0.00000000000E+00 0.  1.
          2    1    1    2  502    0 -0.15442501832E+02  0.17751098458E+02  0.13467928131E+04  0.13469983125E+04  0.00000000000E+00 0.  1.
         -2    1    1    2    0  502  0.15442501832E+02 -0.17751098458E+02 -0.10945376221E+03  0.11195400136E+03  0.00000000000E+00 0.  1.
<mgrwt>
<rscale>  2 0.23528118E+02</rscale>
<asrwt>0</asrwt>
<pdfrwt beam="1">  1        2 0.20740702E+00 0.23528118E+02</pdfrwt>
<pdfrwt beam="2">  1       -2 0.17047175E-01 0.23528118E+02</pdfrwt>
<totfact> 0.48569105E+02</totfact>
</mgrwt>
</event>
<event>
 4    1  0.1474645E+004  0.2043624E+02  0.7546771E-02  0.1736790E+00
         -2   -1    0    0    0  501 -0.00000000000E+00  0.00000000000E+00  0.82387601581E+01  0.82387601581E+01  0.00000000000E+00 0. -1.
          2   -1    0    0  501    0  0.00000000000E+00 -0.00000000000E+00 -0.19723001357E+03  0.19723001357E+03  0.00000000000E+00 0. -1.
          2    1    1    2  502    0 -0.20379347335E+02 -0.15238318406E+01 -0.18304884869E+03  0.18418610389E+03  0.00000000000E+00 0. -1.
         -2    1    1    2    0  502  0.20379347335E+02  0.15238318406E+01 -0.59424047199E+01  0.21282669831E+02  0.00000000000E+00 0. -1.
<mgrwt>
<rscale>  2 0.20436239E+02</rscale>
<asrwt>0</asrwt>
<pdfrwt beam="2">  1        2 0.30343078E-01 0.20436239E+02</pdfrwt>
<pdfrwt beam="1">  1       -2 0.12675016E-02 0.20436239E+02</pdfrwt>
<totfact> 0.15795570E+05</totfact>
</mgrwt>
</event>
<event>
 4    1  0.1474645E+004  0.3294287E+02  0.7546771E-02  0.1567666E+00
          2   -1    0    0  501    0  0.00000000000E+00  0.00000000000E+00  0.81909034189E+01  0.81909034189E+01  0.00000000000E+00 0.  1.
         -2   -1    0    0    0  501 -0.00000000000E+00 -0.00000000000E+00 -0.14135630224E+03  0.14135630224E+03  0.00000000000E+00 0. -1.
          2    1    1    2  502    0  0.23605539938E+02  0.22978498442E+02 -0.47858561169E+02  0.58100557516E+02  0.00000000000E+00 0.  1.
         -2    1    1    2    0  502 -0.23605539938E+02 -0.22978498442E+02 -0.85306837652E+02  0.91446648144E+02  0.00000000000E+00 0. -1.
<mgrwt>
<rscale>  2 0.32942873E+02</rscale>
<asrwt>0</asrwt>
<pdfrwt beam="1">  1        2 0.12601390E-02 0.32942873E+02</pdfrwt>
<pdfrwt beam="2">  1       -2 0.21747123E-01 0.32942873E+02</pdfrwt>
<totfact> 0.12678317E+05</totfact>
</mgrwt>
</event>
<event>
 4    1  0.1474645E+004  0.2420451E+02  0.7546771E-02  0.1672698E+00
          2   -1    0    0  501    0  0.00000000000E+00  0.00000000000E+00  0.67053419081E+03  0.67053419081E+03  0.00000000000E+00 0.  1.
         -2   -1    0    0    0  501 -0.00000000000E+00 -0.00000000000E+00 -0.16267339654E+02  0.16267339654E+02  0.00000000000E+00 0.  1.
          2    1    1    2  502    0 -0.20630308009E+02 -0.12658942924E+02  0.66118489132E+03  0.66162777977E+03  0.00000000000E+00 0.  1.
         -2    1    1    2    0  502  0.20630308009E+02  0.12658942924E+02 -0.69180401657E+01  0.25173750699E+02  0.00000000000E+00 0.  1.
<mgrwt>
<rscale>  2 0.24204513E+02</rscale>
<asrwt>0</asrwt>
<pdfrwt beam="1">  1        2 0.10315908E+00 0.24204513E+02</pdfrwt>
<pdfrwt beam="2">  1       -2 0.25026682E-02 0.24204513E+02</pdfrwt>
<totfact> 0.18959544E+04</totfact>
</mgrwt>
</event>
<event>
 4    1  0.1474645E+004  0.2827256E+02  0.7546771E-02  0.1618008E+00
          2   -1    0    0  501    0  0.00000000000E+00  0.00000000000E+00  0.12751259386E+01  0.12751259386E+01  0.00000000000E+00 0. -1.
         -2   -1    0    0    0  501 -0.00000000000E+00 -0.00000000000E+00 -0.90080829453E+03  0.90080829453E+03  0.00000000000E+00 0.  1.
          2    1    1    2  502    0 -0.26334950842E+02 -0.10286310304E+02 -0.20103718096E+03  0.20301548203E+03  0.00000000000E+00 0. -1.
         -2    1    1    2    0  502  0.26334950842E+02  0.10286310304E+02 -0.69849598763E+03  0.69906793844E+03  0.00000000000E+00 0.  1.
<mgrwt>
<rscale>  2 0.28272563E+02</rscale>
<asrwt>0</asrwt>
<pdfrwt beam="1">  1        2 0.19617269E-03 0.28272563E+02</pdfrwt>
<pdfrwt beam="2">  1       -2 0.13858627E+00 0.28272563E+02</pdfrwt>
<totfact> 0.36869012E+04</totfact>
</mgrwt>
</event>
<event>
 4    1  0.1474645E+004  0.2976441E+02  0.7546771E-02  0.1600708E+00
         -2   -1    0    0    0  501 -0.00000000000E+00  0.00000000000E+00  0.12224945483E+02  0.12224945483E+02  0.00000000000E+00 0. -1.
          2   -1    0    0  501    0  0.00000000000E+00 -0.00000000000E+00 -0.17035021338E+04  0.17035021338E+04  0.00000000000E+00 0.  1.
          2    1    1    2  502    0  0.25313765371E+02  0.15656728274E+02 -0.16850567663E+04  0.16853196212E+04  0.00000000000E+00 0.  1.
         -2    1    1    2    0  502 -0.25313765371E+02 -0.15656728274E+02 -0.62204219935E+01  0.30407458086E+02  0.00000000000E+00 0. -1.
<mgrwt>
<rscale>  2 0.29764406E+02</rscale>
<asrwt>0</asrwt>
<pdfrwt beam="2">  1        2 0.26207710E+00 0.29764406E+02</pdfrwt>
<pdfrwt beam="1">  1       -2 0.18807619E-02 0.29764406E+02</pdfrwt>
<totfact> 0.81382019E+03</totfact>
</mgrwt>
</event>
<event>
 4    1  0.1474645E+004  0.3213138E+02  0.7546771E-02  0.1575657E+00
          2   -1    0    0  501    0  0.00000000000E+00  0.00000000000E+00  0.67052361889E+02  0.67052361889E+02  0.00000000000E+00 0. -1.
         -2   -1    0    0    0  501 -0.00000000000E+00 -0.00000000000E+00 -0.19636767499E+02  0.19636767499E+02  0.00000000000E+00 0. -1.
          2    1    1    2  502    0  0.50899767779E+01  0.31725664809E+02  0.43847592049E+02  0.54360252020E+02  0.00000000000E+00 0. -1.
         -2    1    1    2    0  502 -0.50899767779E+01 -0.31725664809E+02  0.35680023413E+01  0.32328877368E+02  0.00000000000E+00 0. -1.
<mgrwt>
<rscale>  2 0.32131381E+02</rscale>
<asrwt>0</asrwt>
<pdfrwt beam="1">  1        2 0.10315748E-01 0.32131381E+02</pdfrwt>
<pdfrwt beam="2">  1       -2 0.30210412E-02 0.32131381E+02</pdfrwt>
<totfact> 0.17196329E+05</totfact>
</mgrwt>
</event>
<event>
 4    1  0.1474645E+004  0.4687075E+02  0.7546771E-02  0.1462990E+00
          2   -1    0    0  501    0  0.00000000000E+00  0.00000000000E+00  0.20579836976E+04  0.20579836976E+04  0.00000000000E+00 0.  1.
         -2   -1    0    0    0  501 -0.00000000000E+00 -0.00000000000E+00 -0.21495731433E+02  0.21495731433E+02  0.00000000000E+00 0. -1.
          2    1    1    2  502    0 -0.84215340661E+01  0.46107971722E+02  0.20318380515E+04  0.20323785904E+04  0.00000000000E+00 0.  1.
         -2    1    1    2    0  502  0.84215340661E+01 -0.46107971722E+02  0.46499146804E+01  0.47100838621E+02  0.00000000000E+00 0. -1.
<mgrwt>
<rscale>  2 0.46870751E+02</rscale>
<asrwt>0</asrwt>
<pdfrwt beam="1">  1        2 0.31661272E+00 0.46870751E+02</pdfrwt>
<pdfrwt beam="2">  1       -2 0.33070372E-02 0.46870751E+02</pdfrwt>
<totfact> 0.25398184E+03</totfact>
</mgrwt>
</event>
<event>
 4    1  0.1474645E+004  0.5067726E+02  0.7546771E-02  0.1441722E+00
         -2   -1    0    0    0  501 -0.00000000000E+00  0.00000000000E+00  0.64899563212E+02  0.64899563212E+02  0.00000000000E+00 0.  1.
          2   -1    0    0  501    0  0.00000000000E+00 -0.00000000000E+00 -0.99531877166E+03  0.99531877166E+03  0.00000000000E+00 0.  1.
          2    1    1    2  502    0 -0.45440637878E+02  0.22435095152E+02 -0.98467390729E+03  0.98597712386E+03  0.00000000000E+00 0.  1.
         -2    1    1    2    0  502  0.45440637878E+02 -0.22435095152E+02  0.54254698849E+02  0.74241211011E+02  0.00000000000E+00 0.  1.
<mgrwt>
<rscale>  2 0.50677264E+02</rscale>
<asrwt>0</asrwt>
<pdfrwt beam="2">  1        2 0.15312597E+00 0.50677264E+02</pdfrwt>
<pdfrwt beam="1">  1       -2 0.99845480E-02 0.50677264E+02</pdfrwt>
<totfact> 0.17161491E+03</totfact>
</mgrwt>
</event>
<event>
 4    1  0.1474645E+004  0.2209760E+02  0.7546771E-02  0.1706570E+00
         -2   -1    0    0    0  501 -0.00000000000E+00  0.00000000000E+00  0.21300934483E+03  0.21300934483E+03  0.00000000000E+00 0. -1.
          2   -1    0    0  501    0  0.00000000000E+00 -0.00000000000E+00 -0.23813588175E+01  0.23813588175E+01  0.00000000000E+00 0.  1.
          2    1    1    2  502    0 -0.21416203771E+02 -0.54451772603E+01  0.84499480819E+02  0.87341089975E+02  0.00000000000E+00 0.  1.
         -2    1    1    2    0  502  0.21416203771E+02  0.54451772603E+01  0.12612850519E+03  0.12804961367E+03  0.00000000000E+00 0. -1.
<mgrwt>
<rscale>  2 0.22097596E+02</rscale>
<asrwt>0</asrwt>
<pdfrwt beam="2">  1        2 0.36636306E-03 0.22097596E+02</pdfrwt>
<pdfrwt beam="1">  1       -2 0.32770653E-01 0.22097596E+02</pdfrwt>
<totfact> 0.28742616E+05</totfact>
</mgrwt>
</event>
<event>
 4    1  0.1474645E+004  0.2020030E+02  0.7546771E-02  0.1741374E+00
          2   -1    0    0  501    0  0.00000000000E+00  0.00000000000E+00  0.41159615816E+02  0.41159615816E+02  0.00000000000E+00 0. -1.
         -2   -1    0    0    0  501 -0.00000000000E+00 -0.00000000000E+00 -0.11688493836E+02  0.11688493836E+02  0.00000000000E+00 0. -1.
          2    1    1    2  502    0  0.27345973003E+01  0.20014351945E+02  0.25031588566E+02  0.32165707396E+02  0.00000000000E+00 0. -1.
         -2    1    1    2    0  502 -0.27345973003E+01 -0.20014351945E+02  0.44395334139E+01  0.20682402257E+02  0.00000000000E+00 0. -1.
<mgrwt>
<rscale>  2 0.20200305E+02</rscale>
<asrwt>0</asrwt>
<pdfrwt beam="1">  1        2 0.63322485E-02 0.20200305E+02</pdfrwt>
<pdfrwt beam="2">  1       -2 0.17982298E-02 0.20200305E+02</pdfrwt>
<totfact> 0.54955644E+05</totfact>
</mgrwt>
</event>
<event>
 4    1  0.1474645E+004  0.2007779E+02  0.7546771E-02  0.1743786E+00
          2   -1    0    0  501    0  0.00000000000E+00  0.00000000000E+00  0.83350461780E+00  0.83350461780E+00  0.00000000000E+00 0.  1.
         -2   -1    0    0    0  501 -0.00000000000E+00 -0.00000000000E+00 -0.11727043815E+04  0.11727043815E+04  0.00000000000E+00 0.  1.
          2    1    1    2  502    0  0.99931880243E+01 -0.17414183915E+02 -0.13615330162E+03  0.13762572125E+03  0.00000000000E+00 0.  1.
         -2    1    1    2    0  502 -0.99931880243E+01  0.17414183915E+02 -0.10357175752E+04  0.10359121648E+04  0.00000000000E+00 0.  1.
<mgrwt>
<rscale>  2 0.20077789E+02</rscale>
<asrwt>0</asrwt>
<pdfrwt beam="1">  1        2 0.12823173E-03 0.20077789E+02</pdfrwt>
<pdfrwt beam="2">  1       -2 0.18041571E+00 0.20077789E+02</pdfrwt>
<totfact> 0.30397429E+04</totfact>
</mgrwt>
</event>
<event>
 4    1  0.1474645E+004  0.2151644E+02  0.7546771E-02  0.1716752E+00
         -2   -1    0    0    0  501 -0.00000000000E+00  0.00000000000E+00  0.26046717965E+01  0.26046717965E+01  0.00000000000E+00 0.  1.
          2   -1    0    0  501    0  0.00000000000E+00 -0.00000000000E+00 -0.25255142644E+03  0.25255142644E+03  0.00000000000E+00 0.  1.
          2    1    1    2  502    0  0.17199910927E+02  0.12927507600E+02 -0.19440888933E+03  0.19559594484E+03  0.00000000000E+00 0.  1.
         -2    1    1    2    0  502 -0.17199910927E+02 -0.12927507600E+02 -0.55537865314E+02  0.59560153393E+02  0.00000000000E+00 0.  1.
<mgrwt>
<rscale>  2 0.21516445E+02</rscale>
<asrwt>0</asrwt>
<pdfrwt beam="2">  1        2 0.38854062E-01 0.21516445E+02</pdfrwt>
<pdfrwt beam="1">  1       -2 0.40071877E-03 0.21516445E+02</pdfrwt>
<totfact> 0.58698634E+05</totfact>
</mgrwt>
</event>
<event>
 4    1  0.1474645E+004  0.2757232E+02  0.7546771E-02  0.1626586E+00
          2   -1    0    0  501    0  0.00000000000E+00  0.00000000000E+00  0.13857608109E+03  0.13857608109E+03  0.00000000000E+00 0.  1.
         -2   -1    0    0    0  501 -0.00000000000E+00 -0.00000000000E+00 -0.61711903028E+02  0.61711903028E+02  0.00000000000E+00 0. -1.
          2    1    1    2  502    0 -0.25453294378E+02 -0.10600130189E+02  0.13402122199E+03  0.13682807058E+03  0.00000000000E+00 0.  1.
         -2    1    1    2    0  502  0.25453294378E+02  0.10600130189E+02 -0.57157043932E+02  0.63459913534E+02  0.00000000000E+00 0. -1.
<mgrwt>
<rscale>  2 0.27572322E+02</rscale>
<asrwt>0</asrwt>
<pdfrwt beam="1">  1        2 0.21319397E-01 0.27572322E+02</pdfrwt>
<pdfrwt beam="2">  1       -2 0.94941390E-02 0.27572322E+02</pdfrwt>
<totfact> 0.14267620E+04</totfact>
</mgrwt>
</event>
<event>
 4    1  0.1474645E+004  0.2422249E+02  0.7546771E-02  0.1672427E+00
          2   -1    0    0  501    0  0.00000000000E+00  0.00000000000E+00  0.29747832821E+03  0.29747832821E+03  0.00000000000E+00 0. -1.
         -2   -1    0    0    0  501 -0.00000000000E+00 -0.00000000000E+00 -0.25201460087E+02  0.25201460087E+02  0.00000000000E+00 0.  1.
          2    1    1    2  502    0 -0.19416753954E+02  0.14481662546E+02  0.29103624516E+03  0.29204250527E+03  0.00000000000E+00 0. -1.
         -2    1    1    2    0  502  0.19416753954E+02 -0.14481662546E+02 -0.18759377043E+02  0.30637283026E+02  0.00000000000E+00 0.  1.
<mgrwt>
<rscale>  2 0.24222487E+02</rscale>
<asrwt>0</asrwt>
<pdfrwt beam="1">  1        2 0.45765894E-01 0.24222487E+02</pdfrwt>
<pdfrwt beam="2">  1       -2 0.38771479E-02 0.24222487E+02</pdfrwt>
<totfact> 0.23413136E+04</totfact>
</mgrwt>
</event>
<event>
 4    1  0.1474645E+004  0.2346838E+02  0.7546771E-02  0.1684028E+00
          2   -1    0    0  501    0  0.00000000000E+00  0.00000000000E+00  0.11301879452E+03  0.11301879452E+03  0.00000000000E+00 0.  1.
         -2   -1    0    0    0  501 -0.00000000000E+00 -0.00000000000E+00 -0.74380791614E+01  0.74380791614E+01  0.00000000000E+00 0. -1.
          2    1    1    2  502    0 -0.23463851631E+02 -0.46112897495E+00  0.88157772149E+02  0.91228053599E+02  0.00000000000E+00 0.  1.
         -2    1    1    2    0  502  0.23463851631E+02  0.46112897495E+00  0.17422943209E+02  0.29228820082E+02  0.00000000000E+00 0. -1.
<mgrwt>
<rscale>  2 0.23468382E+02</rscale>
<asrwt>0</asrwt>
<pdfrwt beam="1">  1        2 0.17387506E-01 0.23468382E+02</pdfrwt>
<pdfrwt beam="2">  1       -2 0.11443200E-02 0.23468382E+02</pdfrwt>
<totfact> 0.33649845E+05</totfact>
</mgrwt>
</event>
<event>
 4    1  0.1474645E+004  0.2274527E+02  0.7546771E-02  0.1695673E+00
         -2   -1    0    0    0  501 -0.00000000000E+00  0.00000000000E+00  0.14242998627E+02  0.14242998627E+02  0.00000000000E+00 0. -1.
          2   -1    0    0  501    0  0.00000000000E+00 -0.00000000000E+00 -0.36697735732E+02  0.36697735732E+02  0.00000000000E+00 0.  1.
          2    1    1    2  502    0  0.32499873743E+01 -0.22511873217E+02 -0.86531665847E+01  0.24335655850E+02  0.00000000000E+00 0.  1.
         -2    1    1    2    0  502 -0.32499873743E+01  0.22511873217E+02 -0.13801570520E+02  0.26605078509E+02  0.00000000000E+00 0. -1.
<mgrwt>
<rscale>  2 0.22745271E+02</rscale>
<asrwt>0</asrwt>
<pdfrwt beam="2">  1        2 0.56458055E-02 0.22745271E+02</pdfrwt>
<pdfrwt beam="1">  1       -2 0.21912305E-02 0.22745271E+02</pdfrwt>
<totfact> 0.50025161E+05</totfact>
</mgrwt>
</event>
<event>
 4    1  0.1474645E+004  0.2250778E+02  0.7546771E-02  0.1699615E+00
          2   -1    0    0  501    0  0.00000000000E+00  0.00000000000E+00  0.22006520535E+03  0.22006520535E+03  0.00000000000E+00 0. -1.
         -2   -1    0    0    0  501 -0.00000000000E+00 -0.00000000000E+00 -0.39907871324E+01  0.39907871324E+01  0.00000000000E+00 0. -1.
          2    1    1    2  502    0  0.12245036621E+02  0.18885428808E+02  0.18091224115E+03  0.18230699202E+03  0.00000000000E+00 0. -1.
         -2    1    1    2    0  502 -0.12245036621E+02 -0.18885428808E+02  0.35162177068E+02  0.41749000459E+02  0.00000000000E+00 0. -1.
<mgrwt>
<rscale>  2 0.22507784E+02</rscale>
<asrwt>0</asrwt>
<pdfrwt beam="1">  1        2 0.33856176E-01 0.22507784E+02</pdfrwt>
<pdfrwt beam="2">  1       -2 0.61396742E-03 0.22507784E+02</pdfrwt>
<totfact> 0.38578705E+05</totfact>
</mgrwt>
</event>
<event>
 4    1  0.1474645E+004  0.3054671E+02  0.7546771E-02  0.1592123E+00
         -2   -1    0    0    0  501 -0.00000000000E+00  0.00000000000E+00  0.27153695765E+02  0.27153695765E+02  0.00000000000E+00 0. -1.
          2   -1    0    0  501    0  0.00000000000E+00 -0.00000000000E+00 -0.43110317064E+03  0.43110317064E+03  0.00000000000E+00 0. -1.
          2    1    1    2  502    0 -0.16540354000E+02  0.25681081045E+02 -0.42178151839E+03  0.42288621459E+03  0.00000000000E+00 0. -1.
         -2    1    1    2    0  502  0.16540354000E+02 -0.25681081045E+02  0.17832043514E+02  0.35370651817E+02  0.00000000000E+00 0. -1.
<mgrwt>
<rscale>  2 0.30546706E+02</rscale>
<asrwt>0</asrwt>
<pdfrwt beam="2">  1        2 0.66323560E-01 0.30546706E+02</pdfrwt>
<pdfrwt beam="1">  1       -2 0.41774920E-02 0.30546706E+02</pdfrwt>
<totfact> 0.15104358E+04</totfact>
</mgrwt>
</event>
<event>
 4    1  0.1474645E+004  0.2654410E+02  0.7546771E-02  0.1639765E+00
         -2   -1    0    0    0  501 -0.00000000000E+00  0.00000000000E+00  0.55299433487E+01  0.55299433487E+01  0.00000000000E+00 0. -1.
          2   -1    0    0  501    0  0.00000000000E+00 -0.00000000000E+00 -0.14636590355E+03  0.14636590355E+03  0.00000000000E+00 0. -1.
          2    1    1    2  502    0  0.24685203013E+02  0.97585880600E+01 -0.97747273268E+02  0.10128730779E+03  0.00000000000E+00 0. -1.
         -2    1    1    2    0  502 -0.24685203013E+02 -0.97585880600E+01 -0.43088686932E+02  0.50608539104E+02  0.00000000000E+00 0. -1.
<mgrwt>
<rscale>  2 0.26544101E+02</rscale>
<asrwt>0</asrwt>
<pdfrwt beam="2">  1        2 0.22517832E-01 0.26544101E+02</pdfrwt>
<pdfrwt beam="1">  1       -2 0.85076049E-03 0.26544101E+02</pdfrwt>
<totfact> 0.39569600E+05</totfact>
</mgrwt>
</event>
<event>
 4    1  0.1474645E+004  0.2667390E+02  0.7546771E-02  0.1638061E+00
         -2   -1    0    0    0  501 -0.00000000000E+00  0.00000000000E+00  0.32733698972E+01  0.32733698972E+01  0.00000000000E+00 0.  1.
          2   -1    0    0  501    0  0.00000000000E+00 -0.00000000000E+00 -0.13929443228E+04  0.13929443228E+04  0.00000000000E+00 0.  1.
          2    1    1    2  502    0 -0.17900620278E+02  0.19775361590E+02 -0.13361680512E+04  0.13364342700E+04  0.00000000000E+00 0.  1.
         -2    1    1    2    0  502  0.17900620278E+02 -0.19775361590E+02 -0.53502901725E+02  0.59783422663E+02  0.00000000000E+00 0.  1.
<mgrwt>
<rscale>  2 0.26673904E+02</rscale>
<asrwt>0</asrwt>
<pdfrwt beam="2">  1        2 0.21429889E+00 0.26673904E+02</pdfrwt>
<pdfrwt beam="1">  1       -2 0.50359592E-03 0.26673904E+02</pdfrwt>
<totfact> 0.68045669E+04</totfact>
</mgrwt>
</event>
<event>
 4    1  0.1474645E+004  0.3410397E+02  0.7546771E-02  0.1556705E+00
         -2   -1    0    0    0  501 -0.00000000000E+00  0.00000000000E+00  0.58143725932E+02  0.58143725932E+02  0.00000000000E+00 0. -1.
          2   -1    0    0  501    0  0.00000000000E+00 -0.00000000000E+00 -0.15364384766E+04  0.15364384766E+04  0.00000000000E+00 0. -1.
          2    1    1    2  502    0 -0.32264309112E+02 -0.11049654506E+02 -0.15312313374E+04  0.15316110764E+04  0.00000000000E+00 0. -1.
         -2    1    1    2    0  502  0.32264309112E+02  0.11049654506E+02  0.52936586787E+02  0.62971126144E+02  0.00000000000E+00 0. -1.
<mgrwt>
<rscale>  2 0.34103966E+02</rscale>
<asrwt>0</asrwt>
<pdfrwt beam="2">  1        2 0.23637514E+00 0.34103966E+02</pdfrwt>
<pdfrwt beam="1">  1       -2 0.89451888E-02 0.34103966E+02</pdfrwt>
<totfact> 0.10583594E+03</totfact>
</mgrwt>
</event>
<event>
 4    1  0.1474645E+004  0.2133420E+02  0.7546771E-02  0.1720028E+00
          2   -1    0    0  501    0  0.00000000000E+00  0.00000000000E+00  0.28639997423E+02  0.28639997423E+02  0.00000000000E+00 0.  1.
         -2   -1    0    0    0  501 -0.00000000000E+00 -0.00000000000E+00 -0.24068171578E+03  0.24068171578E+03  0.00000000000E+00 0.  1.
          2    1    1    2  502    0 -0.10782043289E+01  0.21306939793E+02  0.24118299945E+02  0.32200009319E+02  0.00000000000E+00 0.  1.
         -2    1    1    2    0  502  0.10782043289E+01 -0.21306939793E+02 -0.23616001830E+03  0.23712170388E+03  0.00000000000E+00 0.  1.
<mgrwt>
<rscale>  2 0.21334203E+02</rscale>
<asrwt>0</asrwt>
<pdfrwt beam="1">  1        2 0.44061533E-02 0.21334203E+02</pdfrwt>
<pdfrwt beam="2">  1       -2 0.37027957E-01 0.21334203E+02</pdfrwt>
<totfact> 0.93784703E+03</totfact>
</mgrwt>
</event>
<event>
 4    1  0.1474645E+004  0.2479314E+02  0.7546771E-02  0.1663991E+00
          2   -1    0    0  501    0  0.00000000000E+00  0.00000000000E+00  0.83707573717E+03  0.83707573717E+03  0.00000000000E+00 0. -1.
         -2   -1    0    0    0  501 -0.00000000000E+00 -0.00000000000E+00 -0.10670444486E+01  0.10670444486E+01  0.00000000000E+00 0.  1.
          2    1    1    2  502    0 -0.23803945099E+01  0.24678605855E+02  0.65200914389E+03  0.65248036260E+03  0.00000000000E+00 0. -1.
         -2    1    1    2    0  502  0.23803945099E+01 -0.24678605855E+02  0.18399954883E+03  0.18566241902E+03  0.00000000000E+00 0.  1.
<mgrwt>
<rscale>  2 0.24793141E+02</rscale>
<asrwt>0</asrwt>
<pdfrwt beam="1">  1        2 0.12878036E+00 0.24793141E+02</pdfrwt>
<pdfrwt beam="2">  1       -2 0.16416135E-03 0.24793141E+02</pdfrwt>
<totfact> 0.58782022E+05</totfact>
</mgrwt>
</event>
<event>
 4    1  0.1474645E+004  0.2026245E+02  0.7546771E-02  0.1740159E+00
         -2   -1    0    0    0  501 -0.00000000000E+00  0.00000000000E+00  0.14104070129E+02  0.14104070129E+02  0.00000000000E+00 0. -1.
          2   -1    0    0  501    0  0.00000000000E+00 -0.00000000000E+00 -0.30419378108E+02  0.30419378108E+02  0.00000000000E+00 0. -1.
          2    1    1    2  502    0  0.16645452846E+02  0.11554036126E+02 -0.12776644746E+02  0.23954321160E+02  0.00000000000E+00 0. -1.
         -2    1    1    2    0  502 -0.16645452846E+02 -0.11554036126E+02 -0.35386632325E+01  0.20569127077E+02  0.00000000000E+00 0. -1.
<mgrwt>
<rscale>  2 0.20262449E+02</rscale>
<asrwt>0</asrwt>
<pdfrwt beam="2">  1        2 0.46799043E-02 0.20262449E+02</pdfrwt>
<pdfrwt beam="1">  1       -2 0.21698570E-02 0.20262449E+02</pdfrwt>
<totfact> 0.61354912E+05</totfact>
</mgrwt>
</event>
<event>
 4    1  0.1474645E+004  0.2129052E+02  0.7546771E-02  0.1720819E+00
          2   -1    0    0  501    0  0.00000000000E+00  0.00000000000E+00  0.41522338982E+03  0.41522338982E+03  0.00000000000E+00 0. -1.
         -2   -1    0    0    0  501 -0.00000000000E+00 -0.00000000000E+00 -0.62823746245E+02  0.62823746245E+02  0.00000000000E+00 0. -1.
          2    1    1    2  502    0 -0.12088404000E+02  0.17525889118E+02  0.41313757020E+03  0.41368579649E+03  0.00000000000E+00 0. -1.
         -2    1    1    2    0  502  0.12088404000E+02 -0.17525889118E+02 -0.60737926631E+02  0.64361339577E+02  0.00000000000E+00 0. -1.
<mgrwt>
<rscale>  2 0.21290521E+02</rscale>
<asrwt>0</asrwt>
<pdfrwt beam="1">  1        2 0.63880520E-01 0.21290521E+02</pdfrwt>
<pdfrwt beam="2">  1       -2 0.96651920E-02 0.21290521E+02</pdfrwt>
<totfact> 0.44460927E+03</totfact>
</mgrwt>
</event>
<event>
 4    1  0.1474645E+004  0.2003075E+02  0.7546771E-02  0.1744717E+00
          2   -1    0    0  501    0  0.00000000000E+00  0.00000000000E+00  0.18079583794E+02  0.18079583794E+02  0.00000000000E+00 0. -1.
         -2   -1    0    0    0  501 -0.00000000000E+00 -0.00000000000E+00 -0.79782094472E+02  0.79782094472E+02  0.00000000000E+00 0. -1.
          2    1    1    2  502    0 -0.13057585065E+02  0.15189811311E+02  0.10720849426E+02  0.22719320144E+02  0.00000000000E+00 0. -1.
         -2    1    1    2    0  502  0.13057585065E+02 -0.15189811311E+02 -0.72423360103E+02  0.75142358122E+02  0.00000000000E+00 0. -1.
<mgrwt>
<rscale>  2 0.20030749E+02</rscale>
<asrwt>0</asrwt>
<pdfrwt beam="1">  1        2 0.27814744E-02 0.20030749E+02</pdfrwt>
<pdfrwt beam="2">  1       -2 0.12274168E-01 0.20030749E+02</pdfrwt>
<totfact> 0.98961667E+04</totfact>
</mgrwt>
</event>
<event>
 4    1  0.1474645E+004  0.2275056E+02  0.7546771E-02  0.1695586E+00
         -2   -1    0    0    0  501 -0.00000000000E+00  0.00000000000E+00  0.26350696607E+02  0.26350696607E+02  0.00000000000E+00 0.  1.
          2   -1    0    0  501    0  0.00000000000E+00 -0.00000000000E+00 -0.25318005481E+02  0.25318005481E+02  0.00000000000E+00 0.  1.
          2    1    1    2  502    0  0.17554398879E+02 -0.14471735908E+02 -0.11715530391E+02  0.25589875196E+02  0.00000000000E+00 0.  1.
         -2    1    1    2    0  502 -0.17554398879E+02  0.14471735908E+02  0.12748221518E+02  0.26078826892E+02  0.00000000000E+00 0.  1.
<mgrwt>
<rscale>  2 0.22750562E+02</rscale>
<asrwt>0</asrwt>
<pdfrwt beam="2">  1        2 0.38950778E-02 0.22750562E+02</pdfrwt>
<pdfrwt beam="1">  1       -2 0.40539533E-02 0.22750562E+02</pdfrwt>
<totfact> 0.33579115E+05</totfact>
</mgrwt>
</event>
<event>
 4    1  0.1474645E+004  0.3750971E+02  0.7546771E-02  0.1527380E+00
          2   -1    0    0  501    0  0.00000000000E+00  0.00000000000E+00  0.11969910544E+04  0.11969910544E+04  0.00000000000E+00 0.  1.
         -2   -1    0    0    0  501 -0.00000000000E+00 -0.00000000000E+00 -0.18005961138E+02  0.18005961138E+02  0.00000000000E+00 0. -1.
          2    1    1    2  502    0  0.66386189174E+01  0.36917568926E+02  0.11768276839E+04  0.11774253165E+04  0.00000000000E+00 0.  1.
         -2    1    1    2    0  502 -0.66386189174E+01 -0.36917568926E+02  0.21574093229E+01  0.37571699077E+02  0.00000000000E+00 0. -1.
<mgrwt>
<rscale>  2 0.37509707E+02</rscale>
<asrwt>0</asrwt>
<pdfrwt beam="1">  1        2 0.18415241E+00 0.37509707E+02</pdfrwt>
<pdfrwt beam="2">  1       -2 0.27701488E-02 0.37509707E+02</pdfrwt>
<totfact> 0.85426256E+03</totfact>
</mgrwt>
</event>
<event>
 4    1  0.1474645E+004  0.2386678E+02  0.7546771E-02  0.1677833E+00
         -2   -1    0    0    0  501 -0.00000000000E+00  0.00000000000E+00  0.35084086118E+01  0.35084086118E+01  0.00000000000E+00 0. -1.
          2   -1    0    0  501    0  0.00000000000E+00 -0.00000000000E+00 -0.22058739234E+03  0.22058739234E+03  0.00000000000E+00 0. -1.
          2    1    1    2  502    0  0.22079367456E+02  0.90622721688E+01 -0.16610722827E+03  0.16781309403E+03  0.00000000000E+00 0. -1.
         -2    1    1    2    0  502 -0.22079367456E+02 -0.90622721688E+01 -0.50971755466E+02  0.56282706930E+02  0.00000000000E+00 0. -1.
<mgrwt>
<rscale>  2 0.23866781E+02</rscale>
<asrwt>0</asrwt>
<pdfrwt beam="2">  1        2 0.33936523E-01 0.23866781E+02</pdfrwt>
<pdfrwt beam="1">  1       -2 0.53975515E-03 0.23866781E+02</pdfrwt>
<totfact> 0.46552533E+05</totfact>
</mgrwt>
</event>
<event>
 4    1  0.1474645E+004  0.2006174E+02  0.7546771E-02  0.1744103E+00
         -2   -1    0    0    0  501 -0.00000000000E+00  0.00000000000E+00  0.14823310410E+03  0.14823310410E+03  0.00000000000E+00 0. -1.
          2   -1    0    0  501    0  0.00000000000E+00 -0.00000000000E+00 -0.15179842475E+02  0.15179842475E+02  0.00000000000E+00 0. -1.
          2    1    1    2  502    0  0.10096686058E+02  0.17335812345E+02 -0.75129261574E+01  0.21422360245E+02  0.00000000000E+00 0. -1.
         -2    1    1    2    0  502 -0.10096686058E+02 -0.17335812345E+02  0.14056618778E+03  0.14199058633E+03  0.00000000000E+00 0. -1.
<mgrwt>
<rscale>  2 0.20061741E+02</rscale>
<asrwt>0</asrwt>
<pdfrwt beam="2">  1        2 0.23353605E-02 0.20061741E+02</pdfrwt>
<pdfrwt beam="1">  1       -2 0.22805092E-01 0.20061741E+02</pdfrwt>
<totfact> 0.46735159E+04</totfact>
</mgrwt>
</event>
<event>
 4    1  0.1474645E+004  0.2161875E+02  0.7546771E-02  0.1714930E+00
          2   -1    0    0  501    0  0.00000000000E+00  0.00000000000E+00  0.13514558100E+04  0.13514558100E+04  0.00000000000E+00 0. -1.
         -2   -1    0    0    0  501 -0.00000000000E+00 -0.00000000000E+00 -0.10366565574E+03  0.10366565574E+03  0.00000000000E+00 0.  1.
          2    1    1    2  502    0 -0.13765815010E+02  0.16669513645E+02  0.13502412294E+04  0.13504142876E+04  0.00000000000E+00 0. -1.
         -2    1    1    2    0  502  0.13765815010E+02 -0.16669513645E+02 -0.10245107521E+03  0.10470717816E+03  0.00000000000E+00 0.  1.
<mgrwt>
<rscale>  2 0.21618750E+02</rscale>
<asrwt>0</asrwt>
<pdfrwt beam="1">  1        2 0.20791626E+00 0.21618750E+02</pdfrwt>
<pdfrwt beam="2">  1       -2 0.15948563E-01 0.21618750E+02</pdfrwt>
<totfact> 0.53743343E+02</totfact>
</mgrwt>
</event>
<event>
 4    1  0.1474645E+004  0.2468808E+02  0.7546771E-02  0.1665523E+00
         -2   -1    0    0    0  501 -0.00000000000E+00  0.00000000000E+00  0.85165782009E+03  0.85165782009E+03  0.00000000000E+00 0. -1.
          2   -1    0    0  501    0  0.00000000000E+00 -0.00000000000E+00 -0.10017624844E+03  0.10017624844E+03  0.00000000000E+00 0.  1.
          2    1    1    2  502    0  0.23870067911E+02 -0.63024911254E+01 -0.98473212162E+02  0.10152081092E+03  0.00000000000E+00 0.  1.
         -2    1    1    2    0  502 -0.23870067911E+02  0.63024911254E+01  0.84995478381E+03  0.85031325761E+03  0.00000000000E+00 0. -1.
<mgrwt>
<rscale>  2 0.24688085E+02</rscale>
<asrwt>0</asrwt>
<pdfrwt beam="2">  1        2 0.15411731E-01 0.24688085E+02</pdfrwt>
<pdfrwt beam="1">  1       -2 0.13102428E+00 0.24688085E+02</pdfrwt>
<totfact> 0.16444129E+02</totfact>
</mgrwt>
</event>
<event>
 4    1  0.1474645E+004  0.3396779E+02  0.7546771E-02  0.1557963E+00
         -2   -1    0    0    0  501 -0.00000000000E+00  0.00000000000E+00  0.15232356756E+03  0.15232356756E+03  0.00000000000E+00 0.  1.
          2   -1    0    0  501    0  0.00000000000E+00 -0.00000000000E+00 -0.74744091365E+03  0.74744091365E+03  0.00000000000E+00 0.  1.
          2    1    1    2  502    0  0.25349597028E+02  0.22609930926E+02 -0.74515550381E+03  0.74592931026E+03  0.00000000000E+00 0.  1.
         -2    1    1    2    0  502 -0.25349597028E+02 -0.22609930926E+02  0.15003815773E+03  0.15383517095E+03  0.00000000000E+00 0.  1.
<mgrwt>
<rscale>  2 0.33967794E+02</rscale>
<asrwt>0</asrwt>
<pdfrwt beam="2">  1        2 0.11499091E+00 0.33967794E+02</pdfrwt>
<pdfrwt beam="1">  1       -2 0.23434395E-01 0.33967794E+02</pdfrwt>
<totfact> 0.61956802E+02</totfact>
</mgrwt>
</event>
<event>
 4    1  0.1474645E+004  0.2966321E+02  0.7546771E-02  0.1601842E+00
         -2   -1    0    0    0  501 -0.00000000000E+00  0.00000000000E+00  0.21653886457E+02  0.21653886457E+02  0.00000000000E+00 0.  1.
          2   -1    0    0  501    0  0.00000000000E+00 -0.00000000000E+00 -0.14360921693E+04  0.14360921693E+04  0.00000000000E+00 0.  1.
          2    1    1    2  502    0 -0.18429411067E+00  0.29662632749E+02 -0.14257062453E+04  0.14260147979E+04  0.00000000000E+00 0.  1.
         -2    1    1    2    0  502  0.18429411067E+00 -0.29662632749E+02  0.11267962523E+02  0.31731257859E+02  0.00000000000E+00 0.  1.
<mgrwt>
<rscale>  2 0.29663205E+02</rscale>
<asrwt>0</asrwt>
<pdfrwt beam="2">  1        2 0.22093731E+00 0.29663205E+02</pdfrwt>
<pdfrwt beam="1">  1       -2 0.33313663E-02 0.29663205E+02</pdfrwt>
<totfact> 0.49161806E+03</totfact>
</mgrwt>
</event>
<event>
 4    1  0.1474645E+004  0.2451528E+02  0.7546771E-02  0.1668063E+00
         -2   -1    0    0    0  501 -0.00000000000E+00  0.00000000000E+00  0.16273405479E+03  0.16273405479E+03  0.00000000000E+00 0.  1.
          2   -1    0    0  501    0  0.00000000000E+00 -0.00000000000E+00 -0.54892803192E+01  0.54892803192E+01  0.00000000000E+00 0. -1.
          2    1    1    2  502    0  0.22345888564E+01  0.24413224751E+02  0.30508637806E+02  0.39137908872E+02  0.00000000000E+00 0. -1.
         -2    1    1    2    0  502 -0.22345888564E+01 -0.24413224751E+02  0.12673613667E+03  0.12908542624E+03  0.00000000000E+00 0.  1.
<mgrwt>
<rscale>  2 0.24515280E+02</rscale>
<asrwt>0</asrwt>
<pdfrwt beam="2">  1        2 0.84450479E-03 0.24515280E+02</pdfrwt>
<pdfrwt beam="1">  1       -2 0.25036005E-01 0.24515280E+02</pdfrwt>
<totfact> 0.15699183E+05</totfact>
</mgrwt>
</event>
<event>
 4    1  0.1474645E+004  0.2110706E+02  0.7546771E-02  0.1724169E+00
         -2   -1    0    0    0  501 -0.00000000000E+00  0.00000000000E+00  0.89287913310E+00  0.89287913310E+00  0.00000000000E+00 0.  1.
          2   -1    0    0  501    0  0.00000000000E+00 -0.00000000000E+00 -0.11409751237E+04  0.11409751237E+04  0.00000000000E+00 0. -1.
          2    1    1    2  502    0  0.11427839186E+01  0.21076099148E+02 -0.99831502310E+03  0.99853812809E+03  0.00000000000E+00 0. -1.
         -2    1    1    2    0  502 -0.11427839186E+01 -0.21076099148E+02 -0.14176722151E+03  0.14332987478E+03  0.00000000000E+00 0.  1.
<mgrwt>
<rscale>  2 0.21107058E+02</rscale>
<asrwt>0</asrwt>
<pdfrwt beam="2">  1        2 0.17553420E+00 0.21107058E+02</pdfrwt>
<pdfrwt beam="1">  1       -2 0.13736636E-03 0.21107058E+02</pdfrwt>
<totfact> 0.48477501E+05</totfact>
</mgrwt>
</event>
<event>
 4    1  0.1474645E+004  0.2083581E+02  0.7546771E-02  0.1729200E+00
         -2   -1    0    0    0  501 -0.00000000000E+00  0.00000000000E+00  0.20271831234E+01  0.20271831234E+01  0.00000000000E+00 0.  1.
          2   -1    0    0  501    0  0.00000000000E+00 -0.00000000000E+00 -0.22033399787E+03  0.22033399787E+03  0.00000000000E+00 0.  1.
          2    1    1    2  502    0  0.19631821095E+02 -0.69801265503E+01 -0.90534176899E+02  0.92900849043E+02  0.00000000000E+00 0.  1.
         -2    1    1    2    0  502 -0.19631821095E+02  0.69801265503E+01 -0.12777263785E+03  0.12946033195E+03  0.00000000000E+00 0.  1.
<mgrwt>
<rscale>  2 0.20835811E+02</rscale>
<asrwt>0</asrwt>
<pdfrwt beam="2">  1        2 0.33897542E-01 0.20835811E+02</pdfrwt>
<pdfrwt beam="1">  1       -2 0.31187429E-03 0.20835811E+02</pdfrwt>
<totfact> 0.92824376E+05</totfact>
</mgrwt>
</event>
<event>
 4    1  0.1474645E+004  0.2798959E+02  0.7546771E-02  0.1621437E+00
          2   -1    0    0  501    0  0.00000000000E+00  0.00000000000E+00  0.37575835040E+03  0.37575835040E+03  0.00000000000E+00 0. -1.
         -2   -1    0    0    0  501 -0.00000000000E+00 -0.00000000000E+00 -0.61983357234E+01  0.61983357234E+01  0.00000000000E+00 0. -1.
          2    1    1    2  502    0 -0.62990874367E+01  0.27271574561E+02  0.34035834046E+03  0.34150727255E+03  0.00000000000E+00 0. -1.
         -2    1    1    2    0  502  0.62990874367E+01 -0.27271574561E+02  0.29201674213E+02  0.40449413573E+02  0.00000000000E+00 0. -1.
<mgrwt>
<rscale>  2 0.27989592E+02</rscale>
<asrwt>0</asrwt>
<pdfrwt beam="1">  1        2 0.57808959E-01 0.27989592E+02</pdfrwt>
<pdfrwt beam="2">  1       -2 0.95359040E-03 0.27989592E+02</pdfrwt>
<totfact> 0.13238620E+05</totfact>
</mgrwt>
</event>
<event>
 4    1  0.1474645E+004  0.2908500E+02  0.7546771E-02  0.1608429E+00
          2   -1    0    0  501    0  0.00000000000E+00  0.00000000000E+00  0.16406553172E+03  0.16406553172E+03  0.00000000000E+00 0. -1.
         -2   -1    0    0    0  501 -0.00000000000E+00 -0.00000000000E+00 -0.14726012521E+02  0.14726012521E+02  0.00000000000E+00 0.  1.
          2    1    1    2  502    0 -0.19058987402E+02 -0.21970263166E+02  0.14673544060E+03  0.14959019684E+03  0.00000000000E+00 0. -1.
         -2    1    1    2    0  502  0.19058987402E+02  0.21970263166E+02  0.26040786010E+01  0.29201347396E+02  0.00000000000E+00 0.  1.
<mgrwt>
<rscale>  2 0.29085004E+02</rscale>
<asrwt>0</asrwt>
<pdfrwt beam="1">  1        2 0.25240850E-01 0.29085004E+02</pdfrwt>
<pdfrwt beam="2">  1       -2 0.22655405E-02 0.29085004E+02</pdfrwt>
<totfact> 0.93800964E+04</totfact>
</mgrwt>
</event>
<event>
 4    1  0.1474645E+004  0.2191180E+02  0.7546771E-02  0.1709782E+00
          2   -1    0    0  501    0  0.00000000000E+00  0.00000000000E+00  0.39089061721E+03  0.39089061721E+03  0.00000000000E+00 0. -1.
         -2   -1    0    0    0  501 -0.00000000000E+00 -0.00000000000E+00 -0.23366054507E+02  0.23366054507E+02  0.00000000000E+00 0.  1.
          2    1    1    2  502    0  0.22038921728E+01  0.21800689022E+02  0.38537303875E+03  0.38599547429E+03  0.00000000000E+00 0. -1.
         -2    1    1    2    0  502 -0.22038921728E+01 -0.21800689022E+02 -0.17848476046E+02  0.28261197422E+02  0.00000000000E+00 0.  1.
<mgrwt>
<rscale>  2 0.21911805E+02</rscale>
<asrwt>0</asrwt>
<pdfrwt beam="1">  1        2 0.60137013E-01 0.21911805E+02</pdfrwt>
<pdfrwt beam="2">  1       -2 0.35947779E-02 0.21911805E+02</pdfrwt>
<totfact> 0.19545617E+04</totfact>
</mgrwt>
</event>
<event>
 4    1  0.1474645E+004  0.2480577E+02  0.7546771E-02  0.1663807E+00
          2   -1    0    0  501    0  0.00000000000E+00  0.00000000000E+00  0.98698766868E+00  0.98698766868E+00  0.00000000000E+00 0. -1.
         -2   -1    0    0    0  501 -0.00000000000E+00 -0.00000000000E+00 -0.94325912273E+03  0.94325912273E+03  0.00000000000E+00 0. -1.
          2    1    1    2  502    0 -0.13812974249E+02 -0.20604082003E+02 -0.19622469924E+03  0.19778639752E+03  0.00000000000E+00 0. -1.
         -2    1    1    2    0  502  0.13812974249E+02  0.20604082003E+02 -0.74604743582E+03  0.74645971287E+03  0.00000000000E+00 0. -1.
<mgrwt>
<rscale>  2 0.24805775E+02</rscale>
<asrwt>0</asrwt>
<pdfrwt beam="1">  1        2 0.15184293E-03 0.24805775E+02</pdfrwt>
<pdfrwt beam="2">  1       -2 0.14511806E+00 0.24805775E+02</pdfrwt>
<totfact> 0.44626844E+04</totfact>
</mgrwt>
</event>
<event>
 4    1  0.1474645E+004  0.2326544E+02  0.7546771E-02  0.1687243E+00
          2   -1    0    0  501    0  0.00000000000E+00  0.00000000000E+00  0.96512862081E+02  0.96512862081E+02  0.00000000000E+00 0.  1.
         -2   -1    0    0    0  501 -0.00000000000E+00 -0.00000000000E+00 -0.61357796272E+01  0.61357796272E+01  0.00000000000E+00 0.  1.
          2    1    1    2  502    0 -0.22899984837E+02  0.41074328309E+01  0.30141179627E+02  0.38075858747E+02  0.00000000000E+00 0.  1.
         -2    1    1    2    0  502  0.22899984837E+02 -0.41074328309E+01  0.60235902827E+02  0.64572782961E+02  0.00000000000E+00 0.  1.
<mgrwt>
<rscale>  2 0.23265443E+02</rscale>
<asrwt>0</asrwt>
<pdfrwt beam="1">  1        2 0.14848131E-01 0.23265443E+02</pdfrwt>
<pdfrwt beam="2">  1       -2 0.94396617E-03 0.23265443E+02</pdfrwt>
<totfact> 0.51724572E+05</totfact>
</mgrwt>
</event>
<event>
 4    1  0.1474645E+004  0.2635493E+02  0.7546771E-02  0.1642270E+00
         -2   -1    0    0    0  501 -0.00000000000E+00  0.00000000000E+00  0.34010551491E+01  0.34010551491E+01  0.00000000000E+00 0.  1.
          2   -1    0    0  501    0  0.00000000000E+00 -0.00000000000E+00 -0.84097375607E+03  0.84097375607E+03  0.00000000000E+00 0.  1.
          2    1    1    2  502    0  0.26241406028E+02  0.24436019796E+01 -0.78615144976E+03  0.78659308702E+03  0.00000000000E+00 0.  1.
         -2    1    1    2    0  502 -0.26241406028E+02 -0.24436019796E+01 -0.51421251158E+02  0.57781724201E+02  0.00000000000E+00 0.  1.
<mgrwt>
<rscale>  2 0.26354935E+02</rscale>
<asrwt>0</asrwt>
<pdfrwt beam="2">  1        2 0.12938071E+00 0.26354935E+02</pdfrwt>
<pdfrwt beam="1">  1       -2 0.52323874E-03 0.26354935E+02</pdfrwt>
<totfact> 0.12607092E+05</totfact>
</mgrwt>
</event>
<event>
 4    1  0.1474645E+004  0.4665930E+02  0.7546771E-02  0.1464241E+00
          2   -1    0    0  501    0  0.00000000000E+00  0.00000000000E+00  0.77696806090E+03  0.77696806090E+03  0.00000000000E+00 0. -1.
         -2   -1    0    0    0  501 -0.00000000000E+00 -0.00000000000E+00 -0.61291401352E+01  0.61291401352E+01  0.00000000000E+00 0. -1.
          2    1    1    2  502    0  0.99475002232E+01 -0.45586589518E+02  0.67390185454E+03  0.67551521038E+03  0.00000000000E+00 0. -1.
         -2    1    1    2    0  502 -0.99475002232E+01  0.45586589518E+02  0.96937066218E+02  0.10758199065E+03  0.00000000000E+00 0. -1.
<mgrwt>
<rscale>  2 0.46659296E+02</rscale>
<asrwt>0</asrwt>
<pdfrwt beam="1">  1        2 0.11953347E+00 0.46659296E+02</pdfrwt>
<pdfrwt beam="2">  1       -2 0.94294525E-03 0.46659296E+02</pdfrwt>
<totfact> 0.68713419E+04</totfact>
</mgrwt>
</event>
<event>
 4    1  0.1474645E+004  0.2823636E+02  0.7546771E-02  0.1618443E+00
         -2   -1    0    0    0  501 -0.00000000000E+00  0.00000000000E+00  0.48715779776E+01  0.48715779776E+01  0.00000000000E+00 0.  1.
          2   -1    0    0  501    0  0.00000000000E+00 -0.00000000000E+00 -0.17456052479E+03  0.17456052479E+03  0.00000000000E+00 0.  1.
          2    1    1    2  502    0 -0.28197105943E+02  0.14884427785E+01 -0.10726164330E+03  0.11091596986E+03  0.00000000000E+00 0.  1.
         -2    1    1    2    0  502  0.28197105943E+02 -0.14884427785E+01 -0.62427303515E+02  0.68516132915E+02  0.00000000000E+00 0.  1.
<mgrwt>
<rscale>  2 0.28236364E+02</rscale>
<asrwt>0</asrwt>
<pdfrwt beam="2">  1        2 0.26855468E-01 0.28236364E+02</pdfrwt>
<pdfrwt beam="1">  1       -2 0.74947345E-03 0.28236364E+02</pdfrwt>
<totfact> 0.39792980E+05</totfact>
</mgrwt>
</event>
<event>
 4    1  0.1474645E+004  0.2281220E+02  0.7546771E-02  0.1694572E+00
         -2   -1    0    0    0  501 -0.00000000000E+00  0.00000000000E+00  0.30643398199E+01  0.30643398199E+01  0.00000000000E+00 0. -1.
          2   -1    0    0  501    0  0.00000000000E+00 -0.00000000000E+00 -0.48044309922E+03  0.48044309922E+03  0.00000000000E+00 0.  1.
          2    1    1    2  502    0 -0.22376020249E+02  0.44396221900E+01 -0.43307614832E+03  0.43367654625E+03  0.00000000000E+00 0.  1.
         -2    1    1    2    0  502  0.22376020249E+02 -0.44396221900E+01 -0.44302611085E+02  0.49830892791E+02  0.00000000000E+00 0. -1.
<mgrwt>
<rscale>  2 0.22812201E+02</rscale>
<asrwt>0</asrwt>
<pdfrwt beam="2">  1        2 0.73914361E-01 0.22812201E+02</pdfrwt>
<pdfrwt beam="1">  1       -2 0.47143665E-03 0.22812201E+02</pdfrwt>
<totfact> 0.25477362E+05</totfact>
</mgrwt>
</event>
<event>
 4    1  0.1474645E+004  0.4231877E+02  0.7546771E-02  0.1491810E+00
          2   -1    0    0  501    0  0.00000000000E+00  0.00000000000E+00  0.71280039423E+02  0.71280039423E+02  0.00000000000E+00 0.  1.
         -2   -1    0    0    0  501 -0.00000000000E+00 -0.00000000000E+00 -0.25257112258E+03  0.25257112258E+03  0.00000000000E+00 0.  1.
          2    1    1    2  502    0 -0.17317512592E+02  0.38613240106E+02  0.63015339821E+02  0.75906597912E+02  0.00000000000E+00 0.  1.
         -2    1    1    2    0  502  0.17317512592E+02 -0.38613240106E+02 -0.24430642298E+03  0.24794456409E+03  0.00000000000E+00 0.  1.
<mgrwt>
<rscale>  2 0.42318773E+02</rscale>
<asrwt>0</asrwt>
<pdfrwt beam="1">  1        2 0.10966160E-01 0.42318773E+02</pdfrwt>
<pdfrwt beam="2">  1       -2 0.38857096E-01 0.42318773E+02</pdfrwt>
<totfact> 0.31483893E+03</totfact>
</mgrwt>
</event>
<event>
 4    1  0.1474645E+004  0.2270594E+02  0.7546771E-02  0.1696322E+00
         -2   -1    0    0    0  501 -0.00000000000E+00  0.00000000000E+00  0.17727911202E+03  0.17727911202E+03  0.00000000000E+00 0.  1.
          2   -1    0    0  501    0  0.00000000000E+00 -0.00000000000E+00 -0.44298098398E+02  0.44298098398E+02  0.00000000000E+00 0. -1.
          2    1    1    2  502    0  0.21118209612E+02  0.83415125585E+01 -0.40599719638E+02  0.46517704626E+02  0.00000000000E+00 0. -1.
         -2    1    1    2    0  502 -0.21118209612E+02 -0.83415125585E+01  0.17358073326E+03  0.17505950579E+03  0.00000000000E+00 0.  1.
<mgrwt>
<rscale>  2 0.22705938E+02</rscale>
<asrwt>0</asrwt>
<pdfrwt beam="2">  1        2 0.68150921E-02 0.22705938E+02</pdfrwt>
<pdfrwt beam="1">  1       -2 0.27273709E-01 0.22705938E+02</pdfrwt>
<totfact> 0.94926655E+03</totfact>
</mgrwt>
</event>
<event>
 4    1  0.1474645E+004  0.2220018E+02  0.7546771E-02  0.1704813E+00
         -2   -1    0    0    0  501 -0.00000000000E+00  0.00000000000E+00  0.31525393655E+00  0.31525393655E+00  0.00000000000E+00 0. -1.
          2   -1    0    0  501    0  0.00000000000E+00 -0.00000000000E+00 -0.16117234732E+04  0.16117234732E+04  0.00000000000E+00 0. -1.
          2    1    1    2  502    0 -0.21909147143E+02 -0.35828313870E+01 -0.66604391463E+03  0.66641379309E+03  0.00000000000E+00 0. -1.
         -2    1    1    2    0  502  0.21909147143E+02  0.35828313870E+01 -0.94536430465E+03  0.94562493406E+03  0.00000000000E+00 0. -1.
<mgrwt>
<rscale>  2 0.22200178E+02</rscale>
<asrwt>0</asrwt>
<pdfrwt beam="2">  1        2 0.24795752E+00 0.22200178E+02</pdfrwt>
<pdfrwt beam="1">  1       -2 0.48500594E-04 0.22200178E+02</pdfrwt>
<totfact> 0.11437717E+06</totfact>
</mgrwt>
</event>
<event>
 4    1  0.1474645E+004  0.2188686E+02  0.7546771E-02  0.1710216E+00
         -2   -1    0    0    0  501 -0.00000000000E+00  0.00000000000E+00  0.50216944178E+00  0.50216944178E+00  0.00000000000E+00 0.  1.
          2   -1    0    0  501    0  0.00000000000E+00 -0.00000000000E+00 -0.13335623813E+04  0.13335623813E+04  0.00000000000E+00 0.  1.
          2    1    1    2  502    0 -0.18616385890E+02  0.11509340059E+02 -0.10224248183E+04  0.10226590555E+04  0.00000000000E+00 0.  1.
         -2    1    1    2    0  502  0.18616385890E+02 -0.11509340059E+02 -0.31063539361E+03  0.31140549528E+03  0.00000000000E+00 0.  1.
<mgrwt>
<rscale>  2 0.21886862E+02</rscale>
<asrwt>0</asrwt>
<pdfrwt beam="2">  1        2 0.20516427E+00 0.21886862E+02</pdfrwt>
<pdfrwt beam="1">  1       -2 0.77256527E-04 0.21886862E+02</pdfrwt>
<totfact> 0.83749383E+05</totfact>
</mgrwt>
</event>
<event>
 4    1  0.1474645E+004  0.2394304E+02  0.7546771E-02  0.1676664E+00
         -2   -1    0    0    0  501 -0.00000000000E+00  0.00000000000E+00  0.20765292586E+01  0.20765292586E+01  0.00000000000E+00 0.  1.
          2   -1    0    0  501    0  0.00000000000E+00 -0.00000000000E+00 -0.79070998288E+03  0.79070998288E+03  0.00000000000E+00 0. -1.
          2    1    1    2  502    0  0.20728097463E+02 -0.11983958771E+02 -0.71410978356E+03  0.71451105819E+03  0.00000000000E+00 0. -1.
         -2    1    1    2    0  502 -0.20728097463E+02  0.11983958771E+02 -0.74523670061E+02  0.78275453954E+02  0.00000000000E+00 0.  1.
<mgrwt>
<rscale>  2 0.23943043E+02</rscale>
<asrwt>0</asrwt>
<pdfrwt beam="2">  1        2 0.12164768E+00 0.23943043E+02</pdfrwt>
<pdfrwt beam="1">  1       -2 0.31946606E-03 0.23943043E+02</pdfrwt>
<totfact> 0.25640184E+05</totfact>
</mgrwt>
</event>
<event>
 4    1  0.1474645E+004  0.2222511E+02  0.7546771E-02  0.1704388E+00
         -2   -1    0    0    0  501 -0.00000000000E+00  0.00000000000E+00  0.26542966700E+03  0.26542966700E+03  0.00000000000E+00 0. -1.
          2   -1    0    0  501    0  0.00000000000E+00 -0.00000000000E+00 -0.22870899052E+02  0.22870899052E+02  0.00000000000E+00 0. -1.
          2    1    1    2  502    0 -0.21444954767E+02  0.58369101055E+01 -0.16881853504E+02  0.27909722003E+02  0.00000000000E+00 0. -1.
         -2    1    1    2    0  502  0.21444954767E+02 -0.58369101055E+01  0.25944062145E+03  0.26039084405E+03  0.00000000000E+00 0. -1.
<mgrwt>
<rscale>  2 0.22225112E+02</rscale>
<asrwt>0</asrwt>
<pdfrwt beam="2">  1        2 0.35186001E-02 0.22225112E+02</pdfrwt>
<pdfrwt beam="1">  1       -2 0.40835331E-01 0.22225112E+02</pdfrwt>
<totfact> 0.10469240E+04</totfact>
</mgrwt>
</event>
<event>
 4    1  0.1474645E+004  0.5478056E+02  0.7546771E-02  0.1421139E+00
         -2   -1    0    0    0  501 -0.00000000000E+00  0.00000000000E+00  0.70589702647E+02  0.70589702647E+02  0.00000000000E+00 0.  1.
          2   -1    0    0  501    0  0.00000000000E+00 -0.00000000000E+00 -0.60968056828E+02  0.60968056828E+02  0.00000000000E+00 0.  1.
          2    1    1    2  502    0  0.54679031203E+02  0.33336831984E+01 -0.31380518409E+02  0.63131979476E+02  0.00000000000E+00 0.  1.
         -2    1    1    2    0  502 -0.54679031203E+02 -0.33336831984E+01  0.41002164229E+02  0.68425779999E+02  0.00000000000E+00 0.  1.
<mgrwt>
<rscale>  2 0.54780561E+02</rscale>
<asrwt>0</asrwt>
<pdfrwt beam="2">  1        2 0.93797011E-02 0.54780561E+02</pdfrwt>
<pdfrwt beam="1">  1       -2 0.10859954E-01 0.54780561E+02</pdfrwt>
<totfact> 0.32690300E+04</totfact>
</mgrwt>
</event>
<event>
 4    1  0.1474645E+004  0.2200799E+02  0.7546771E-02  0.1708114E+00
          2   -1    0    0  501    0  0.00000000000E+00  0.00000000000E+00  0.70386846239E+03  0.70386846239E+03  0.00000000000E+00 0.  1.
         -2   -1    0    0    0  501 -0.00000000000E+00 -0.00000000000E+00 -0.15132807533E+02  0.15132807533E+02  0.00000000000E+00 0. -1.
          2    1    1    2  502    0 -0.18324105787E+02  0.12189292459E+02  0.69559965284E+03  0.69594771983E+03  0.00000000000E+00 0.  1.
         -2    1    1    2    0  502  0.18324105787E+02 -0.12189292459E+02 -0.68639979852E+01  0.23053550093E+02  0.00000000000E+00 0. -1.
<mgrwt>
<rscale>  2 0.22007992E+02</rscale>
<asrwt>0</asrwt>
<pdfrwt beam="1">  1        2 0.10828743E+00 0.22007992E+02</pdfrwt>
<pdfrwt beam="2">  1       -2 0.23281248E-02 0.22007992E+02</pdfrwt>
<totfact> 0.19585520E+04</totfact>
</mgrwt>
</event>
<event>
 4    1  0.1474645E+004  0.2814803E+02  0.7546771E-02  0.1619511E+00
          2   -1    0    0  501    0  0.00000000000E+00  0.00000000000E+00  0.29589509343E+03  0.29589509343E+03  0.00000000000E+00 0.  1.
         -2   -1    0    0    0  501 -0.00000000000E+00 -0.00000000000E+00 -0.32317555241E+02  0.32317555241E+02  0.00000000000E+00 0. -1.
          2    1    1    2  502    0 -0.15236201255E+02  0.23667909597E+02  0.28894958284E+03  0.29031736634E+03  0.00000000000E+00 0.  1.
         -2    1    1    2    0  502  0.15236201255E+02 -0.23667909597E+02 -0.25372044652E+02  0.37895282334E+02  0.00000000000E+00 0. -1.
<mgrwt>
<rscale>  2 0.28148033E+02</rscale>
<asrwt>0</asrwt>
<pdfrwt beam="1">  1        2 0.45522320E-01 0.28148033E+02</pdfrwt>
<pdfrwt beam="2">  1       -2 0.49719318E-02 0.28148033E+02</pdfrwt>
<totfact> 0.16952873E+04</totfact>
</mgrwt>
</event>
<event>
 4    1  0.1474645E+004  0.2337570E+02  0.7546771E-02  0.1685492E+00
          2   -1    0    0  501    0  0.00000000000E+00  0.00000000000E+00  0.15676323560E+02  0.15676323560E+02  0.00000000000E+00 0.  1.
         -2   -1    0    0    0  501 -0.00000000000E+00 -0.00000000000E+00 -0.18232998106E+03  0.18232998106E+03  0.00000000000E+00 0.  1.
          2    1    1    2  502    0  0.76905261225E+01 -0.22074399444E+02  0.57114593961E+01  0.24063334583E+02  0.00000000000E+00 0.  1.
         -2    1    1    2    0  502 -0.76905261225E+01  0.22074399444E+02 -0.17236511690E+03  0.17394297004E+03  0.00000000000E+00 0.  1.
<mgrwt>
<rscale>  2 0.23375699E+02</rscale>
<asrwt>0</asrwt>
<pdfrwt beam="1">  1        2 0.24117420E-02 0.23375699E+02</pdfrwt>
<pdfrwt beam="2">  1       -2 0.28050767E-01 0.23375699E+02</pdfrwt>
<totfact> 0.32941998E+04</totfact>
</mgrwt>
</event>
<event>
 4    1  0.1474645E+004  0.2789397E+02  0.7546771E-02  0.1622607E+00
          2   -1    0    0  501    0  0.00000000000E+00  0.00000000000E+00  0.45272670904E+01  0.45272670904E+01  0.00000000000E+00 0.  1.
         -2   -1    0    0    0  501 -0.00000000000E+00 -0.00000000000E+00 -0.38125807603E+03  0.38125807603E+03  0.00000000000E+00 0. -1.
          2    1    1    2  502    0  0.27855226883E+02 -0.14696879843E+01 -0.45413965531E+02  0.53296359282E+02  0.00000000000E+00 0.  1.
         -2    1    1    2    0  502 -0.27855226883E+02  0.14696879843E+01 -0.33131684341E+03  0.33248898384E+03  0.00000000000E+00 0. -1.
<mgrwt>
<rscale>  2 0.27893972E+02</rscale>
<asrwt>0</asrwt>
<pdfrwt beam="1">  1        2 0.69650233E-03 0.27893972E+02</pdfrwt>
<pdfrwt beam="2">  1       -2 0.58655114E-01 0.27893972E+02</pdfrwt>
<totfact> 0.44778934E+04</totfact>
</mgrwt>
</event>
<event>
 4    1  0.1474645E+004  0.2456573E+02  0.7546771E-02  0.1667319E+00
         -2   -1    0    0    0  501 -0.00000000000E+00  0.00000000000E+00  0.78358055870E+01  0.78358055870E+01  0.00000000000E+00 0.  1.
          2   -1    0    0  501    0  0.00000000000E+00 -0.00000000000E+00 -0.41232965433E+03  0.41232965433E+03  0.00000000000E+00 0. -1.
          2    1    1    2  502    0  0.13635491873E+02 -0.20433999536E+02 -0.39169678955E+03  0.39246636788E+03  0.00000000000E+00 0. -1.
         -2    1    1    2    0  502 -0.13635491873E+02  0.20433999536E+02 -0.12797059198E+02  0.27699092039E+02  0.00000000000E+00 0.  1.
<mgrwt>
<rscale>  2 0.24565728E+02</rscale>
<asrwt>0</asrwt>
<pdfrwt beam="2">  1        2 0.63435345E-01 0.24565728E+02</pdfrwt>
<pdfrwt beam="1">  1       -2 0.12055083E-02 0.24565728E+02</pdfrwt>
<totfact> 0.85217205E+04</totfact>
</mgrwt>
</event>
<event>
 4    1  0.1474645E+004  0.2005606E+02  0.7546771E-02  0.1744216E+00
          2   -1    0    0  501    0  0.00000000000E+00  0.00000000000E+00  0.36667062851E+02  0.36667062851E+02  0.00000000000E+00 0.  1.
         -2   -1    0    0    0  501 -0.00000000000E+00 -0.00000000000E+00 -0.34437913719E+03  0.34437913719E+03  0.00000000000E+00 0.  1.
          2    1    1    2  502    0  0.12636250244E+01  0.20016211538E+02  0.33607942725E+02  0.39137440983E+02  0.00000000000E+00 0.  1.
         -2    1    1    2    0  502 -0.12636250244E+01 -0.20016211538E+02 -0.34132001706E+03  0.34190875906E+03  0.00000000000E+00 0.  1.
<mgrwt>
<rscale>  2 0.20056058E+02</rscale>
<asrwt>0</asrwt>
<pdfrwt beam="1">  1        2 0.56410865E-02 0.20056058E+02</pdfrwt>
<pdfrwt beam="2">  1       -2 0.52981406E-01 0.20056058E+02</pdfrwt>
<totfact> 0.35456141E+03</totfact>
</mgrwt>
</event>
<event>
 4    1  0.1474645E+004  0.2663464E+02  0.7546771E-02  0.1638575E+00
          2   -1    0    0  501    0  0.00000000000E+00  0.00000000000E+00  0.10859178805E+04  0.10859178805E+04  0.00000000000E+00 0.  1.
         -2   -1    0    0    0  501 -0.00000000000E+00 -0.00000000000E+00 -0.13518300015E+02  0.13518300015E+02  0.00000000000E+00 0.  1.
          2    1    1    2  502    0 -0.16039706455E+02 -0.21263386377E+02  0.10724707680E+04  0.10728014504E+04  0.00000000000E+00 0.  1.
         -2    1    1    2    0  502  0.16039706455E+02  0.21263386377E+02 -0.71187455123E-01  0.26634730167E+02  0.00000000000E+00 0.  1.
<mgrwt>
<rscale>  2 0.26634635E+02</rscale>
<asrwt>0</asrwt>
<pdfrwt beam="1">  1        2 0.16706422E+00 0.26634635E+02</pdfrwt>
<pdfrwt beam="2">  1       -2 0.20797393E-02 0.26634635E+02</pdfrwt>
<totfact> 0.14063438E+04</totfact>
</mgrwt>
</event>
<event>
 4    1  0.1474645E+004  0.2781959E+02  0.7546771E-02  0.1623521E+00
          2   -1    0    0  501    0  0.00000000000E+00  0.00000000000E+00  0.54214072978E+03  0.54214072978E+03  0.00000000000E+00 0.  1.
         -2   -1    0    0    0  501 -0.00000000000E+00 -0.00000000000E+00 -0.82831516735E+01  0.82831516735E+01  0.00000000000E+00 0. -1.
          2    1    1    2  502    0  0.84161137695E+01  0.26516002645E+02  0.51730465606E+03  0.51805215621E+03  0.00000000000E+00 0.  1.
         -2    1    1    2    0  502 -0.84161137695E+01 -0.26516002645E+02  0.16552922046E+02  0.32371725248E+02  0.00000000000E+00 0. -1.
<mgrwt>
<rscale>  2 0.27819586E+02</rscale>
<asrwt>0</asrwt>
<pdfrwt beam="1">  1        2 0.83406238E-01 0.27819586E+02</pdfrwt>
<pdfrwt beam="2">  1       -2 0.12743315E-02 0.27819586E+02</pdfrwt>
<totfact> 0.61445598E+04</totfact>
</mgrwt>
</event>
<event>
 4    1  0.1474645E+004  0.2162028E+02  0.7546771E-02  0.1714903E+00
         -2   -1    0    0    0  501 -0.00000000000E+00  0.00000000000E+00  0.87392447635E+02  0.87392447635E+02  0.00000000000E+00 0. -1.
          2   -1    0    0  501    0  0.00000000000E+00 -0.00000000000E+00 -0.78932561383E+01  0.78932561383E+01  0.00000000000E+00 0.  1.
          2    1    1    2  502    0 -0.66310418897E+01  0.20578283774E+02  0.12699102575E+02  0.25073964302E+02  0.00000000000E+00 0.  1.
         -2    1    1    2    0  502  0.66310418897E+01 -0.20578283774E+02  0.66800088922E+02  0.70211739472E+02  0.00000000000E+00 0. -1.
<mgrwt>
<rscale>  2 0.21620279E+02</rscale>
<asrwt>0</asrwt>
<pdfrwt beam="2">  1        2 0.12143472E-02 0.21620279E+02</pdfrwt>
<pdfrwt beam="1">  1       -2 0.13444991E-01 0.21620279E+02</pdfrwt>
<totfact> 0.25390871E+05</totfact>
</mgrwt>
</event>
<event>
 4    1  0.1474645E+004  0.3288519E+02  0.7546771E-02  0.1568225E+00
         -2   -1    0    0    0  501 -0.00000000000E+00  0.00000000000E+00  0.10547837848E+03  0.10547837848E+03  0.00000000000E+00 0. -1.
          2   -1    0    0  501    0  0.00000000000E+00 -0.00000000000E+00 -0.56776605127E+03  0.56776605127E+03  0.00000000000E+00 0.  1.
          2    1    1    2  502    0 -0.10744408984E+02 -0.31080437156E+02 -0.56471285502E+03  0.56566955418E+03  0.00000000000E+00 0.  1.
         -2    1    1    2    0  502  0.10744408984E+02  0.31080437156E+02  0.10242518223E+03  0.10757487557E+03  0.00000000000E+00 0. -1.
<mgrwt>
<rscale>  2 0.32885193E+02</rscale>
<asrwt>0</asrwt>
<pdfrwt beam="2">  1        2 0.87348624E-01 0.32885193E+02</pdfrwt>
<pdfrwt beam="1">  1       -2 0.16227443E-01 0.32885193E+02</pdfrwt>
<totfact> 0.15171162E+03</totfact>
</mgrwt>
</event>
<event>
 4    1  0.1474645E+004  0.2234333E+02  0.7546771E-02  0.1702381E+00
          2   -1    0    0  501    0  0.00000000000E+00  0.00000000000E+00  0.30050743107E+03  0.30050743107E+03  0.00000000000E+00 0. -1.
         -2   -1    0    0    0  501 -0.00000000000E+00 -0.00000000000E+00 -0.30991720393E+01  0.30991720393E+01  0.00000000000E+00 0. -1.
          2    1    1    2  502    0  0.11917854009E+02 -0.18899447362E+02  0.25210467645E+03  0.25309285301E+03  0.00000000000E+00 0. -1.
         -2    1    1    2    0  502 -0.11917854009E+02  0.18899447362E+02  0.45303582574E+02  0.50513750096E+02  0.00000000000E+00 0. -1.
<mgrwt>
<rscale>  2 0.22343329E+02</rscale>
<asrwt>0</asrwt>
<pdfrwt beam="1">  1        2 0.46231889E-01 0.22343329E+02</pdfrwt>
<pdfrwt beam="2">  1       -2 0.47679594E-03 0.22343329E+02</pdfrwt>
<totfact> 0.39671980E+05</totfact>
</mgrwt>
</event>
<event>
 4    1  0.1474645E+004  0.2266976E+02  0.7546771E-02  0.1696920E+00
         -2   -1    0    0    0  501 -0.00000000000E+00  0.00000000000E+00  0.31331603110E+01  0.31331603110E+01  0.00000000000E+00 0.  1.
          2   -1    0    0  501    0  0.00000000000E+00 -0.00000000000E+00 -0.47024487593E+03  0.47024487593E+03  0.00000000000E+00 0.  1.
          2    1    1    2  502    0 -0.21997397531E+02  0.54801757334E+01 -0.42455547097E+03  0.42516028242E+03  0.00000000000E+00 0.  1.
         -2    1    1    2    0  502  0.21997397531E+02 -0.54801757334E+01 -0.42556244658E+02  0.48217753821E+02  0.00000000000E+00 0.  1.
<mgrwt>
<rscale>  2 0.22669756E+02</rscale>
<asrwt>0</asrwt>
<pdfrwt beam="2">  1        2 0.72345326E-01 0.22669756E+02</pdfrwt>
<pdfrwt beam="1">  1       -2 0.48202493E-03 0.22669756E+02</pdfrwt>
<totfact> 0.25227387E+05</totfact>
</mgrwt>
</event>
<event>
 4    1  0.1474645E+004  0.2242273E+02  0.7546771E-02  0.1701042E+00
          2   -1    0    0  501    0  0.00000000000E+00  0.00000000000E+00  0.67937315153E+03  0.67937315153E+03  0.00000000000E+00 0. -1.
         -2   -1    0    0    0  501 -0.00000000000E+00 -0.00000000000E+00 -0.13270602801E+01  0.13270602801E+01  0.00000000000E+00 0. -1.
          2    1    1    2  502    0  0.20430357933E+02 -0.92400842115E+01  0.56538255606E+03  0.56582701718E+03  0.00000000000E+00 0. -1.
         -2    1    1    2    0  502 -0.20430357933E+02  0.92400842115E+01  0.11266353519E+03  0.11487319463E+03  0.00000000000E+00 0. -1.
<mgrwt>
<rscale>  2 0.22422727E+02</rscale>
<asrwt>0</asrwt>
<pdfrwt beam="1">  1        2 0.10451867E+00 0.22422727E+02</pdfrwt>
<pdfrwt beam="2">  1       -2 0.20416366E-03 0.22422727E+02</pdfrwt>
<totfact> 0.53979254E+05</totfact>
</mgrwt>
</event>
<event>
 4    1  0.1474645E+004  0.2089785E+02  0.7546771E-02  0.1728041E+00
         -2   -1    0    0    0  501 -0.00000000000E+00  0.00000000000E+00  0.20169588545E+02  0.20169588545E+02  0.00000000000E+00 0. -1.
          2   -1    0    0  501    0  0.00000000000E+00 -0.00000000000E+00 -0.44688644156E+02  0.44688644156E+02  0.00000000000E+00 0. -1.
          2    1    1    2  502    0 -0.19678151284E+02 -0.70349542269E+01 -0.35542705858E+02  0.41231106687E+02  0.00000000000E+00 0. -1.
         -2    1    1    2    0  502  0.19678151284E+02  0.70349542269E+01  0.11023650247E+02  0.23627126014E+02  0.00000000000E+00 0. -1.
<mgrwt>
<rscale>  2 0.20897852E+02</rscale>
<asrwt>0</asrwt>
<pdfrwt beam="2">  1        2 0.68751760E-02 0.20897852E+02</pdfrwt>
<pdfrwt beam="1">  1       -2 0.31030137E-02 0.20897852E+02</pdfrwt>
<totfact> 0.23811655E+05</totfact>
</mgrwt>
</event>
<event>
 4    1  0.1474645E+004  0.2354031E+02  0.7546771E-02  0.1682899E+00
          2   -1    0    0  501    0  0.00000000000E+00  0.00000000000E+00  0.52594170547E+03  0.52594170547E+03  0.00000000000E+00 0.  1.
         -2   -1    0    0    0  501 -0.00000000000E+00 -0.00000000000E+00 -0.66895358843E+01  0.66895358843E+01  0.00000000000E+00 0. -1.
          2    1    1    2  502    0 -0.21252896236E+02 -0.10122287464E+02  0.50407078974E+03  0.50462016147E+03  0.00000000000E+00 0.  1.
         -2    1    1    2    0  502  0.21252896236E+02  0.10122287464E+02  0.15181379852E+02  0.28011079882E+02  0.00000000000E+00 0. -1.
<mgrwt>
<rscale>  2 0.23540312E+02</rscale>
<asrwt>0</asrwt>
<pdfrwt beam="1">  1        2 0.80914076E-01 0.23540312E+02</pdfrwt>
<pdfrwt beam="2">  1       -2 0.10291598E-02 0.23540312E+02</pdfrwt>
<totfact> 0.81929598E+04</totfact>
</mgrwt>
</event>
<event>
 4    1  0.1474645E+004  0.2019056E+02  0.7546771E-02  0.1741565E+00
          2   -1    0    0  501    0  0.00000000000E+00  0.00000000000E+00  0.14952703212E+04  0.14952703212E+04  0.00000000000E+00 0.  1.
         -2   -1    0    0    0  501 -0.00000000000E+00 -0.00000000000E+00 -0.38289287427E+00  0.38289287427E+00  0.00000000000E+00 0. -1.
          2    1    1    2  502    0 -0.13208654953E+02 -0.15270568047E+02  0.11487469147E+04  0.11489243373E+04  0.00000000000E+00 0.  1.
         -2    1    1    2    0  502  0.13208654953E+02  0.15270568047E+02  0.34614051371E+03  0.34672887686E+03  0.00000000000E+00 0. -1.
<mgrwt>
<rscale>  2 0.20190563E+02</rscale>
<asrwt>0</asrwt>
<pdfrwt beam="1">  1        2 0.23003691E+00 0.20190563E+02</pdfrwt>
<pdfrwt beam="2">  1       -2 0.58907793E-04 0.20190563E+02</pdfrwt>
<totfact> 0.97718953E+05</totfact>
</mgrwt>
</event>
<event>
 4    1  0.1474645E+004  0.1721255E+03  0.7546771E-02  0.1175649E+00
          2   -1    0    0  501    0  0.00000000000E+00  0.00000000000E+00  0.73535984409E+03  0.73535984409E+03  0.00000000000E+00 0.  1.
         -2   -1    0    0    0  501 -0.00000000000E+00 -0.00000000000E+00 -0.29818418027E+03  0.29818418027E+03  0.00000000000E+00 0. -1.
          2    1    1    2  502    0  0.13582293066E+03 -0.10573233169E+03  0.69918142367E+03  0.72005684336E+03  0.00000000000E+00 0.  1.
         -2    1    1    2    0  502 -0.13582293066E+03  0.10573233169E+03 -0.26200575985E+03  0.31348718100E+03  0.00000000000E+00 0. -1.
<mgrwt>
<rscale>  2 0.17212552E+03</rscale>
<asrwt>0</asrwt>
<pdfrwt beam="1">  1        2 0.11313228E+00 0.17212552E+03</pdfrwt>
<pdfrwt beam="2">  1       -2 0.45874490E-01 0.17212552E+03</pdfrwt>
<totfact> 0.18462733E+02</totfact>
</mgrwt>
</event>
<event>
 4    1  0.1474645E+004  0.2047967E+02  0.7546771E-02  0.1735954E+00
          2   -1    0    0  501    0  0.00000000000E+00  0.00000000000E+00  0.28127854177E+02  0.28127854177E+02  0.00000000000E+00 0.  1.
         -2   -1    0    0    0  501 -0.00000000000E+00 -0.00000000000E+00 -0.12560840107E+03  0.12560840107E+03  0.00000000000E+00 0.  1.
          2    1    1    2  502    0  0.19387165986E+02  0.65995932186E+01  0.23421218502E+02  0.31112221260E+02  0.00000000000E+00 0.  1.
         -2    1    1    2    0  502 -0.19387165986E+02 -0.65995932186E+01 -0.12090176540E+03  0.12262403399E+03  0.00000000000E+00 0.  1.
<mgrwt>
<rscale>  2 0.20479669E+02</rscale>
<asrwt>0</asrwt>
<pdfrwt beam="1">  1        2 0.43273621E-02 0.20479669E+02</pdfrwt>
<pdfrwt beam="2">  1       -2 0.19324370E-01 0.20479669E+02</pdfrwt>
<totfact> 0.28404629E+04</totfact>
</mgrwt>
</event>
<event>
 4    1  0.1474645E+004  0.2402477E+02  0.7546771E-02  0.1675418E+00
         -2   -1    0    0    0  501 -0.00000000000E+00  0.00000000000E+00  0.35532611822E+02  0.35532611822E+02  0.00000000000E+00 0.  1.
          2   -1    0    0  501    0  0.00000000000E+00 -0.00000000000E+00 -0.51615622646E+03  0.51615622646E+03  0.00000000000E+00 0.  1.
          2    1    1    2  502    0 -0.23986064648E+02  0.13632605549E+01 -0.51178098024E+03  0.51234457303E+03  0.00000000000E+00 0.  1.
         -2    1    1    2    0  502  0.23986064648E+02 -0.13632605549E+01  0.31157365604E+02  0.39344265250E+02  0.00000000000E+00 0.  1.
<mgrwt>
<rscale>  2 0.24024774E+02</rscale>
<asrwt>0</asrwt>
<pdfrwt beam="2">  1        2 0.79408641E-01 0.24024774E+02</pdfrwt>
<pdfrwt beam="1">  1       -2 0.54665563E-02 0.24024774E+02</pdfrwt>
<totfact> 0.83060853E+03</totfact>
</mgrwt>
</event>
<event>
 4    1  0.1474645E+004  0.2283046E+02  0.7546771E-02  0.1694273E+00
         -2   -1    0    0    0  501 -0.00000000000E+00  0.00000000000E+00  0.41020003829E+01  0.41020003829E+01  0.00000000000E+00 0.  1.
          2   -1    0    0  501    0  0.00000000000E+00 -0.00000000000E+00 -0.18424232313E+03  0.18424232313E+03  0.00000000000E+00 0. -1.
          2    1    1    2  502    0  0.18642464851E+02  0.13179093375E+02 -0.14253050376E+03  0.14434740905E+03  0.00000000000E+00 0. -1.
         -2    1    1    2    0  502 -0.18642464851E+02 -0.13179093375E+02 -0.37609818991E+02  0.43996914465E+02  0.00000000000E+00 0.  1.
<mgrwt>
<rscale>  2 0.22830462E+02</rscale>
<asrwt>0</asrwt>
<pdfrwt beam="2">  1        2 0.28344973E-01 0.22830462E+02</pdfrwt>
<pdfrwt beam="1">  1       -2 0.63107697E-03 0.22830462E+02</pdfrwt>
<totfact> 0.44667213E+05</totfact>
</mgrwt>
</event>
<event>
 4    1  0.1474645E+004  0.3023550E+02  0.7546771E-02  0.1595500E+00
          2   -1    0    0  501    0  0.00000000000E+00  0.00000000000E+00  0.11951435051E+02  0.11951435051E+02  0.00000000000E+00 0. -1.
         -2   -1    0    0    0  501 -0.00000000000E+00 -0.00000000000E+00 -0.44858776895E+03  0.44858776895E+03  0.00000000000E+00 0.  1.
          2    1    1    2  502    0  0.18345165501E+02 -0.24034146792E+02 -0.85978764231E+01  0.31434197752E+02  0.00000000000E+00 0. -1.
         -2    1    1    2    0  502 -0.18345165501E+02  0.24034146792E+02 -0.42803845747E+03  0.42910500625E+03  0.00000000000E+00 0.  1.
<mgrwt>
<rscale>  2 0.30235498E+02</rscale>
<asrwt>0</asrwt>
<pdfrwt beam="1">  1        2 0.18386820E-02 0.30235498E+02</pdfrwt>
<pdfrwt beam="2">  1       -2 0.69013516E-01 0.30235498E+02</pdfrwt>
<totfact> 0.91877983E+03</totfact>
</mgrwt>
</event>
<event>
 4    1  0.1474645E+004  0.5061660E+02  0.7546771E-02  0.1442044E+00
         -2   -1    0    0    0  501 -0.00000000000E+00  0.00000000000E+00  0.46799439355E+02  0.46799439355E+02  0.00000000000E+00 0.  1.
          2   -1    0    0  501    0  0.00000000000E+00 -0.00000000000E+00 -0.46424737266E+03  0.46424737266E+03  0.00000000000E+00 0.  1.
          2    1    1    2  502    0  0.46087809438E+02 -0.20927344107E+02 -0.44870897885E+03  0.45155485559E+03  0.00000000000E+00 0.  1.
         -2    1    1    2    0  502 -0.46087809438E+02  0.20927344107E+02  0.31261045545E+02  0.59491956421E+02  0.00000000000E+00 0.  1.
<mgrwt>
<rscale>  2 0.50616597E+02</rscale>
<asrwt>0</asrwt>
<pdfrwt beam="2">  1        2 0.71422675E-01 0.50616597E+02</pdfrwt>
<pdfrwt beam="1">  1       -2 0.71999135E-02 0.50616597E+02</pdfrwt>
<totfact> 0.67109049E+03</totfact>
</mgrwt>
</event>
<event>
 4    1  0.1474645E+004  0.4085554E+02  0.7546771E-02  0.1502008E+00
          2   -1    0    0  501    0  0.00000000000E+00  0.00000000000E+00  0.89977448006E+03  0.89977448006E+03  0.00000000000E+00 0. -1.
         -2   -1    0    0    0  501 -0.00000000000E+00 -0.00000000000E+00 -0.57847228151E+01  0.57847228151E+01  0.00000000000E+00 0.  1.
          2    1    1    2  502    0  0.30532865382E+02 -0.27146250147E+02  0.82017698970E+03  0.82119392911E+03  0.00000000000E+00 0. -1.
         -2    1    1    2    0  502 -0.30532865382E+02  0.27146250147E+02  0.73812767538E+02  0.84365273763E+02  0.00000000000E+00 0.  1.
<mgrwt>
<rscale>  2 0.40855535E+02</rscale>
<asrwt>0</asrwt>
<pdfrwt beam="1">  1        2 0.13842673E+00 0.40855535E+02</pdfrwt>
<pdfrwt beam="2">  1       -2 0.88995807E-03 0.40855535E+02</pdfrwt>
<totfact> 0.61140411E+04</totfact>
</mgrwt>
</event>
<event>
 4    1  0.1474645E+004  0.2335779E+02  0.7546771E-02  0.1685775E+00
          2   -1    0    0  501    0  0.00000000000E+00  0.00000000000E+00  0.41428734619E+03  0.41428734619E+03  0.00000000000E+00 0. -1.
         -2   -1    0    0    0  501 -0.00000000000E+00 -0.00000000000E+00 -0.19058612015E+01  0.19058612015E+01  0.00000000000E+00 0. -1.
          2    1    1    2  502    0 -0.13652342628E+02 -0.18952573164E+02  0.32186919804E+03  0.32271561340E+03  0.00000000000E+00 0. -1.
         -2    1    1    2    0  502  0.13652342628E+02  0.18952573164E+02  0.90512286953E+02  0.93477593991E+02  0.00000000000E+00 0. -1.
<mgrwt>
<rscale>  2 0.23357793E+02</rscale>
<asrwt>0</asrwt>
<pdfrwt beam="1">  1        2 0.63736443E-01 0.23357793E+02</pdfrwt>
<pdfrwt beam="2">  1       -2 0.29320975E-03 0.23357793E+02</pdfrwt>
<totfact> 0.56047658E+05</totfact>
</mgrwt>
</event>
<event>
 4    1  0.1474645E+004  0.2093442E+02  0.7546771E-02  0.1727360E+00
          2   -1    0    0  501    0  0.00000000000E+00  0.00000000000E+00  0.44723478402E+03  0.44723478402E+03  0.00000000000E+00 0. -1.
         -2   -1    0    0    0  501 -0.00000000000E+00 -0.00000000000E+00 -0.22377533120E+01  0.22377533120E+01  0.00000000000E+00 0. -1.
          2    1    1    2  502    0 -0.19331603727E+02 -0.80336192914E+01  0.39099090660E+03  0.39155094047E+03  0.00000000000E+00 0. -1.
         -2    1    1    2    0  502  0.19331603727E+02  0.80336192914E+01  0.54006124116E+02  0.57921596867E+02  0.00000000000E+00 0. -1.
<mgrwt>
<rscale>  2 0.20934420E+02</rscale>
<asrwt>0</asrwt>
<pdfrwt beam="1">  1        2 0.68805280E-01 0.20934420E+02</pdfrwt>
<pdfrwt beam="2">  1       -2 0.34427010E-03 0.20934420E+02</pdfrwt>
<totfact> 0.40620903E+05</totfact>
</mgrwt>
</event>
<event>
 4    1  0.1474645E+004  0.2234072E+02  0.7546771E-02  0.1702425E+00
          2   -1    0    0  501    0  0.00000000000E+00  0.00000000000E+00  0.37994474929E+01  0.37994474929E+01  0.00000000000E+00 0.  1.
         -2   -1    0    0    0  501 -0.00000000000E+00 -0.00000000000E+00 -0.13300416038E+03  0.13300416038E+03  0.00000000000E+00 0.  1.
          2    1    1    2  502    0  0.20104368710E+02  0.97427889668E+01 -0.57004622394E+02  0.61226093722E+02  0.00000000000E+00 0.  1.
         -2    1    1    2    0  502 -0.20104368710E+02 -0.97427889668E+01 -0.72200090489E+02  0.75577514147E+02  0.00000000000E+00 0.  1.
<mgrwt>
<rscale>  2 0.22340716E+02</rscale>
<asrwt>0</asrwt>
<pdfrwt beam="1">  1        2 0.58453044E-03 0.22340716E+02</pdfrwt>
<pdfrwt beam="2">  1       -2 0.20462176E-01 0.22340716E+02</pdfrwt>
<totfact> 0.34403696E+05</totfact>
</mgrwt>
</event>
<event>
 4    1  0.1474645E+004  0.2286877E+02  0.7546771E-02  0.1693646E+00
         -2   -1    0    0    0  501 -0.00000000000E+00  0.00000000000E+00  0.28707659999E+01  0.28707659999E+01  0.00000000000E+00 0.  1.
          2   -1    0    0  501    0  0.00000000000E+00 -0.00000000000E+00 -0.18237070964E+03  0.18237070964E+03  0.00000000000E+00 0.  1.
          2    1    1    2  502    0 -0.22651155814E+02  0.31473752806E+01 -0.92786725093E+02  0.95563367377E+02  0.00000000000E+00 0.  1.
         -2    1    1    2    0  502  0.22651155814E+02 -0.31473752806E+01 -0.86713218542E+02  0.89678108259E+02  0.00000000000E+00 0.  1.
<mgrwt>
<rscale>  2 0.22868774E+02</rscale>
<asrwt>0</asrwt>
<pdfrwt beam="2">  1        2 0.28057027E-01 0.22868774E+02</pdfrwt>
<pdfrwt beam="1">  1       -2 0.44165639E-03 0.22868774E+02</pdfrwt>
<totfact> 0.72847006E+05</totfact>
</mgrwt>
</event>
<event>
 4    1  0.1474645E+004  0.2280363E+02  0.7546771E-02  0.1694713E+00
          2   -1    0    0  501    0  0.00000000000E+00  0.00000000000E+00  0.68395828044E+03  0.68395828044E+03  0.00000000000E+00 0.  1.
         -2   -1    0    0    0  501 -0.00000000000E+00 -0.00000000000E+00 -0.32353299738E+02  0.32353299738E+02  0.00000000000E+00 0.  1.
          2    1    1    2  502    0 -0.88302465171E+01 -0.21024568009E+02  0.67972500898E+03  0.68010741324E+03  0.00000000000E+00 0.  1.
         -2    1    1    2    0  502  0.88302465171E+01  0.21024568009E+02 -0.28120028275E+02  0.36204166939E+02  0.00000000000E+00 0.  1.
<mgrwt>
<rscale>  2 0.22803634E+02</rscale>
<asrwt>0</asrwt>
<pdfrwt beam="1">  1        2 0.10522434E+00 0.22803634E+02</pdfrwt>
<pdfrwt beam="2">  1       -2 0.49774312E-02 0.22803634E+02</pdfrwt>
<totfact> 0.70309282E+03</totfact>
</mgrwt>
</event>
<event>
 4    1  0.1474645E+004  0.3375671E+02  0.7546771E-02  0.1559927E+00
         -2   -1    0    0    0  501 -0.00000000000E+00  0.00000000000E+00  0.15230820614E+01  0.15230820614E+01  0.00000000000E+00 0.  1.
          2   -1    0    0  501    0  0.00000000000E+00 -0.00000000000E+00 -0.86264462919E+03  0.86264462919E+03  0.00000000000E+00 0.  1.
          2    1    1    2  502    0 -0.33168801433E+02  0.62726307650E+01 -0.58796556031E+03  0.58893379542E+03  0.00000000000E+00 0.  1.
         -2    1    1    2    0  502  0.33168801433E+02 -0.62726307650E+01 -0.27315598682E+03  0.27523391582E+03  0.00000000000E+00 0.  1.
<mgrwt>
<rscale>  2 0.33756707E+02</rscale>
<asrwt>0</asrwt>
<pdfrwt beam="2">  1        2 0.13271447E+00 0.33756707E+02</pdfrwt>
<pdfrwt beam="1">  1       -2 0.23432048E-03 0.33756707E+02</pdfrwt>
<totfact> 0.38168366E+05</totfact>
</mgrwt>
</event>
<event>
 4    1  0.1474645E+004  0.2428628E+02  0.7546771E-02  0.1671470E+00
          2   -1    0    0  501    0  0.00000000000E+00  0.00000000000E+00  0.24686825908E+04  0.24686825908E+04  0.00000000000E+00 0. -1.
         -2   -1    0    0    0  501 -0.00000000000E+00 -0.00000000000E+00 -0.26822365895E+00  0.26822365895E+00  0.00000000000E+00 0.  1.
          2    1    1    2  502    0  0.78634597065E+01  0.22978022775E+02  0.16422231538E+04  0.16424027248E+04  0.00000000000E+00 0. -1.
         -2    1    1    2    0  502 -0.78634597065E+01 -0.22978022775E+02  0.82619121328E+03  0.82654808960E+03  0.00000000000E+00 0.  1.
<mgrwt>
<rscale>  2 0.24286283E+02</rscale>
<asrwt>0</asrwt>
<pdfrwt beam="1">  1        2 0.37977913E+00 0.24286283E+02</pdfrwt>
<pdfrwt beam="2">  1       -2 0.41267155E-04 0.24286283E+02</pdfrwt>
<totfact> 0.57204268E+05</totfact>
</mgrwt>
</event>
<event>
 4    1  0.1474645E+004  0.4393376E+02  0.7546771E-02  0.1481110E+00
         -2   -1    0    0    0  501 -0.00000000000E+00  0.00000000000E+00  0.21310012347E+02  0.21310012347E+02  0.00000000000E+00 0.  1.
          2   -1    0    0  501    0  0.00000000000E+00 -0.00000000000E+00 -0.24012408870E+03  0.24012408870E+03  0.00000000000E+00 0. -1.
          2    1    1    2  502    0  0.43789361042E+02 -0.35590632837E+01 -0.21256549811E+03  0.21705820892E+03  0.00000000000E+00 0. -1.
         -2    1    1    2    0  502 -0.43789361042E+02  0.35590632837E+01 -0.62485782400E+01  0.44375892125E+02  0.00000000000E+00 0.  1.
<mgrwt>
<rscale>  2 0.43933758E+02</rscale>
<asrwt>0</asrwt>
<pdfrwt beam="2">  1        2 0.36942164E-01 0.43933758E+02</pdfrwt>
<pdfrwt beam="1">  1       -2 0.32784637E-02 0.43933758E+02</pdfrwt>
<totfact> 0.40695643E+04</totfact>
</mgrwt>
</event>
<event>
 4    1  0.1474645E+004  0.2388376E+02  0.7546771E-02  0.1677573E+00
          2   -1    0    0  501    0  0.00000000000E+00  0.00000000000E+00  0.30945329542E+04  0.30945329542E+04  0.00000000000E+00 0. -1.
         -2   -1    0    0    0  501 -0.00000000000E+00 -0.00000000000E+00 -0.18438255179E+00  0.18438255179E+00  0.00000000000E+00 0. -1.
          2    1    1    2  502    0  0.18339598400E+02  0.15300098153E+02  0.15717569773E+04  0.15719384306E+04  0.00000000000E+00 0. -1.
         -2    1    1    2    0  502 -0.18339598400E+02 -0.15300098153E+02  0.15225915944E+04  0.15227789062E+04  0.00000000000E+00 0. -1.
<mgrwt>
<rscale>  2 0.23883758E+02</rscale>
<asrwt>0</asrwt>
<pdfrwt beam="1">  1        2 0.47604040E+00 0.23883758E+02</pdfrwt>
<pdfrwt beam="2">  1       -2 0.28369025E-04 0.23883758E+02</pdfrwt>
<totfact> 0.44513926E+05</totfact>
</mgrwt>
</event>
<event>
 4    1  0.1474645E+004  0.3468401E+02  0.7546771E-02  0.1551425E+00
         -2   -1    0    0    0  501 -0.00000000000E+00  0.00000000000E+00  0.40035115717E+02  0.40035115717E+02  0.00000000000E+00 0.  1.
          2   -1    0    0  501    0  0.00000000000E+00 -0.00000000000E+00 -0.70784410446E+02  0.70784410446E+02  0.00000000000E+00 0. -1.
          2    1    1    2  502    0  0.20449709708E+02 -0.28014097823E+02 -0.57409369141E+02  0.67073213499E+02  0.00000000000E+00 0. -1.
         -2    1    1    2    0  502 -0.20449709708E+02  0.28014097823E+02  0.26660074413E+02  0.43746312664E+02  0.00000000000E+00 0.  1.
<mgrwt>
<rscale>  2 0.34684006E+02</rscale>
<asrwt>0</asrwt>
<pdfrwt beam="2">  1        2 0.10889909E-01 0.34684006E+02</pdfrwt>
<pdfrwt beam="1">  1       -2 0.61592486E-02 0.34684006E+02</pdfrwt>
<totfact> 0.59261060E+04</totfact>
</mgrwt>
</event>
<event>
 4    1  0.1474645E+004  0.2885868E+02  0.7546771E-02  0.1611058E+00
          2   -1    0    0  501    0  0.00000000000E+00  0.00000000000E+00  0.94604946517E+02  0.94604946517E+02  0.00000000000E+00 0. -1.
         -2   -1    0    0    0  501 -0.00000000000E+00 -0.00000000000E+00 -0.23243071673E+02  0.23243071673E+02  0.00000000000E+00 0. -1.
          2    1    1    2  502    0 -0.26611954217E+02  0.11163663712E+02  0.82124725466E+02  0.87047653774E+02  0.00000000000E+00 0. -1.
         -2    1    1    2    0  502  0.26611954217E+02 -0.11163663712E+02 -0.10762850622E+02  0.30800364417E+02  0.00000000000E+00 0. -1.
<mgrwt>
<rscale>  2 0.28858681E+02</rscale>
<asrwt>0</asrwt>
<pdfrwt beam="1">  1        2 0.14554607E-01 0.28858681E+02</pdfrwt>
<pdfrwt beam="2">  1       -2 0.35758572E-02 0.28858681E+02</pdfrwt>
<totfact> 0.89415949E+04</totfact>
</mgrwt>
</event>
<event>
 4    1  0.1474645E+004  0.2301762E+02  0.7546771E-02  0.1691225E+00
          2   -1    0    0  501    0  0.00000000000E+00  0.00000000000E+00  0.73294420861E+03  0.73294420861E+03  0.00000000000E+00 0. -1.
         -2   -1    0    0    0  501 -0.00000000000E+00 -0.00000000000E+00 -0.50131038636E+01  0.50131038636E+01  0.00000000000E+00 0.  1.
          2    1    1    2  502    0  0.13819063461E+02 -0.18407726784E+02  0.70530716606E+03  0.70568265489E+03  0.00000000000E+00 0. -1.
         -2    1    1    2    0  502 -0.13819063461E+02  0.18407726784E+02  0.22623938685E+02  0.32274657580E+02  0.00000000000E+00 0.  1.
<mgrwt>
<rscale>  2 0.23017622E+02</rscale>
<asrwt>0</asrwt>
<pdfrwt beam="1">  1        2 0.11276056E+00 0.23017622E+02</pdfrwt>
<pdfrwt beam="2">  1       -2 0.77124733E-03 0.23017622E+02</pdfrwt>
<totfact> 0.84839484E+04</totfact>
</mgrwt>
</event>
<event>
 4    1  0.1474645E+004  0.2092720E+02  0.7546771E-02  0.1727494E+00
         -2   -1    0    0    0  501 -0.00000000000E+00  0.00000000000E+00  0.33814145250E+01  0.33814145250E+01  0.00000000000E+00 0. -1.
          2   -1    0    0  501    0  0.00000000000E+00 -0.00000000000E+00 -0.22951427522E+03  0.22951427522E+03  0.00000000000E+00 0. -1.
          2    1    1    2  502    0  0.60206848606E+01  0.20042429430E+02 -0.18993036997E+03  0.19107980810E+03  0.00000000000E+00 0. -1.
         -2    1    1    2    0  502 -0.60206848606E+01 -0.20042429430E+02 -0.36202490720E+02  0.41815881648E+02  0.00000000000E+00 0. -1.
<mgrwt>
<rscale>  2 0.20927198E+02</rscale>
<asrwt>0</asrwt>
<pdfrwt beam="2">  1        2 0.35309906E-01 0.20927198E+02</pdfrwt>
<pdfrwt beam="1">  1       -2 0.52021736E-03 0.20927198E+02</pdfrwt>
<totfact> 0.45177804E+05</totfact>
</mgrwt>
</event>
<event>
 4    1  0.1474645E+004  0.2370121E+02  0.7546771E-02  0.1680390E+00
         -2   -1    0    0    0  501 -0.00000000000E+00  0.00000000000E+00  0.66418256626E+01  0.66418256626E+01  0.00000000000E+00 0. -1.
          2   -1    0    0  501    0  0.00000000000E+00 -0.00000000000E+00 -0.20163692141E+03  0.20163692141E+03  0.00000000000E+00 0. -1.
          2    1    1    2  502    0 -0.12195521491E+02 -0.20322810441E+02 -0.17684510794E+03  0.17842628610E+03  0.00000000000E+00 0. -1.
         -2    1    1    2    0  502  0.12195521491E+02  0.20322810441E+02 -0.18149987802E+02  0.29852460968E+02  0.00000000000E+00 0. -1.
<mgrwt>
<rscale>  2 0.23701210E+02</rscale>
<asrwt>0</asrwt>
<pdfrwt beam="2">  1        2 0.31021066E-01 0.23701210E+02</pdfrwt>
<pdfrwt beam="1">  1       -2 0.10218193E-02 0.23701210E+02</pdfrwt>
<totfact> 0.21512601E+05</totfact>
</mgrwt>
</event>
<event>
 4    1  0.1474645E+004  0.2292527E+02  0.7546771E-02  0.1692724E+00
         -2   -1    0    0    0  501 -0.00000000000E+00  0.00000000000E+00  0.20971696030E+03  0.20971696030E+03  0.00000000000E+00 0. -1.
          2   -1    0    0  501    0  0.00000000000E+00 -0.00000000000E+00 -0.66149210616E+01  0.66149210616E+01  0.00000000000E+00 0. -1.
          2    1    1    2  502    0 -0.41849094276E+01 -0.22540069366E+02  0.16302334387E+02  0.28130664770E+02  0.00000000000E+00 0. -1.
         -2    1    1    2    0  502  0.41849094276E+01  0.22540069366E+02  0.18679970485E+03  0.18820121659E+03  0.00000000000E+00 0. -1.
<mgrwt>
<rscale>  2 0.22925274E+02</rscale>
<asrwt>0</asrwt>
<pdfrwt beam="2">  1        2 0.10176803E-02 0.22925274E+02</pdfrwt>
<pdfrwt beam="1">  1       -2 0.32264143E-01 0.22925274E+02</pdfrwt>
<totfact> 0.78408080E+04</totfact>
</mgrwt>
</event>
<event>
 4    1  0.1474645E+004  0.2739713E+02  0.7546771E-02  0.1628781E+00
          2   -1    0    0  501    0  0.00000000000E+00  0.00000000000E+00  0.31365552900E+03  0.31365552900E+03  0.00000000000E+00 0. -1.
         -2   -1    0    0    0  501 -0.00000000000E+00 -0.00000000000E+00 -0.25622383356E+02  0.25622383356E+02  0.00000000000E+00 0. -1.
          2    1    1    2  502    0  0.90739939859E+01 -0.25850832712E+02  0.30553940372E+03  0.30676526880E+03  0.00000000000E+00 0. -1.
         -2    1    1    2    0  502 -0.90739939859E+01  0.25850832712E+02 -0.17506258077E+02  0.32512643550E+02  0.00000000000E+00 0. -1.
<mgrwt>
<rscale>  2 0.27397133E+02</rscale>
<asrwt>0</asrwt>
<pdfrwt beam="1">  1        2 0.48254694E-01 0.27397133E+02</pdfrwt>
<pdfrwt beam="2">  1       -2 0.39419054E-02 0.27397133E+02</pdfrwt>
<totfact> 0.22160198E+04</totfact>
</mgrwt>
</event>
<event>
 4    1  0.1474645E+004  0.2894089E+02  0.7546771E-02  0.1610100E+00
         -2   -1    0    0    0  501 -0.00000000000E+00  0.00000000000E+00  0.10883440426E+03  0.10883440426E+03  0.00000000000E+00 0.  1.
          2   -1    0    0  501    0  0.00000000000E+00 -0.00000000000E+00 -0.78477470364E+01  0.78477470364E+01  0.00000000000E+00 0. -1.
          2    1    1    2  502    0 -0.19451424941E+02 -0.21429356440E+02  0.42377173895E+02  0.51316665100E+02  0.00000000000E+00 0. -1.
         -2    1    1    2    0  502  0.19451424941E+02  0.21429356440E+02  0.58609483331E+02  0.65365486199E+02  0.00000000000E+00 0.  1.
<mgrwt>
<rscale>  2 0.28940892E+02</rscale>
<asrwt>0</asrwt>
<pdfrwt beam="2">  1        2 0.12073458E-02 0.28940892E+02</pdfrwt>
<pdfrwt beam="1">  1       -2 0.16743753E-01 0.28940892E+02</pdfrwt>
<totfact> 0.19789088E+05</totfact>
</mgrwt>
</event>
<event>
 4    1  0.1474645E+004  0.3073111E+02  0.7546771E-02  0.1590145E+00
         -2   -1    0    0    0  501 -0.00000000000E+00  0.00000000000E+00  0.34988138494E+02  0.34988138494E+02  0.00000000000E+00 0. -1.
          2   -1    0    0  501    0  0.00000000000E+00 -0.00000000000E+00 -0.88317318523E+02  0.88317318523E+02  0.00000000000E+00 0. -1.
          2    1    1    2  502    0  0.16811460036E+02  0.25725002800E+02 -0.78039273216E+02  0.83872099781E+02  0.00000000000E+00 0. -1.
         -2    1    1    2    0  502 -0.16811460036E+02 -0.25725002800E+02  0.24710093186E+02  0.39433357236E+02  0.00000000000E+00 0. -1.
<mgrwt>
<rscale>  2 0.30731107E+02</rscale>
<asrwt>0</asrwt>
<pdfrwt beam="2">  1        2 0.13587280E-01 0.30731107E+02</pdfrwt>
<pdfrwt beam="1">  1       -2 0.53827906E-02 0.30731107E+02</pdfrwt>
<totfact> 0.54624993E+04</totfact>
</mgrwt>
</event>
<event>
 4    1  0.1474645E+004  0.2092473E+02  0.7546771E-02  0.1727540E+00
         -2   -1    0    0    0  501 -0.00000000000E+00  0.00000000000E+00  0.26807094303E+02  0.26807094303E+02  0.00000000000E+00 0. -1.
          2   -1    0    0  501    0  0.00000000000E+00 -0.00000000000E+00 -0.32364454387E+03  0.32364454387E+03  0.00000000000E+00 0. -1.
          2    1    1    2  502    0 -0.20851830142E+02 -0.17451061808E+01 -0.31916580543E+03  0.31985098964E+03  0.00000000000E+00 0. -1.
         -2    1    1    2    0  502  0.20851830142E+02  0.17451061808E+01  0.22328355858E+02  0.30600648542E+02  0.00000000000E+00 0. -1.
<mgrwt>
<rscale>  2 0.20924727E+02</rscale>
<asrwt>0</asrwt>
<pdfrwt beam="2">  1        2 0.49791468E-01 0.20924727E+02</pdfrwt>
<pdfrwt beam="1">  1       -2 0.41241684E-02 0.20924727E+02</pdfrwt>
<totfact> 0.19257748E+04</totfact>
</mgrwt>
</event>
<event>
 4    1  0.1474645E+004  0.2264011E+02  0.7546771E-02  0.1697411E+00
          2   -1    0    0  501    0  0.00000000000E+00  0.00000000000E+00  0.52379848211E+03  0.52379848211E+03  0.00000000000E+00 0.  1.
         -2   -1    0    0    0  501 -0.00000000000E+00 -0.00000000000E+00 -0.13947352401E+02  0.13947352401E+02  0.00000000000E+00 0.  1.
          2    1    1    2  502    0  0.21780707692E+02  0.61786213081E+01  0.51419465194E+03  0.51469283527E+03  0.00000000000E+00 0.  1.
         -2    1    1    2    0  502 -0.21780707692E+02 -0.61786213081E+01 -0.43435222316E+01  0.23052999245E+02  0.00000000000E+00 0.  1.
<mgrwt>
<rscale>  2 0.22640110E+02</rscale>
<asrwt>0</asrwt>
<pdfrwt beam="1">  1        2 0.80584367E-01 0.22640110E+02</pdfrwt>
<pdfrwt beam="2">  1       -2 0.21457469E-02 0.22640110E+02</pdfrwt>
<totfact> 0.29984936E+04</totfact>
</mgrwt>
</event>
<event>
 4    1  0.1474645E+004  0.2476860E+02  0.7546771E-02  0.1664348E+00
         -2   -1    0    0    0  501 -0.00000000000E+00  0.00000000000E+00  0.26745590719E+02  0.26745590719E+02  0.00000000000E+00 0. -1.
          2   -1    0    0  501    0  0.00000000000E+00 -0.00000000000E+00 -0.10378213417E+03  0.10378213417E+03  0.00000000000E+00 0.  1.
          2    1    1    2  502    0 -0.15972991161E+02  0.18930058618E+02 -0.96120119269E+02  0.99260066966E+02  0.00000000000E+00 0.  1.
         -2    1    1    2    0  502  0.15972991161E+02 -0.18930058618E+02  0.19083575819E+02  0.31267657922E+02  0.00000000000E+00 0. -1.
<mgrwt>
<rscale>  2 0.24768600E+02</rscale>
<asrwt>0</asrwt>
<pdfrwt beam="2">  1        2 0.15966482E-01 0.24768600E+02</pdfrwt>
<pdfrwt beam="1">  1       -2 0.41147063E-02 0.24768600E+02</pdfrwt>
<totfact> 0.64028397E+04</totfact>
</mgrwt>
</event>
<event>
 4    1  0.1474645E+004  0.2018266E+02  0.7546771E-02  0.1741720E+00
          2   -1    0    0  501    0  0.00000000000E+00  0.00000000000E+00  0.48298793634E+03  0.48298793634E+03  0.00000000000E+00 0. -1.
         -2   -1    0    0    0  501 -0.00000000000E+00 -0.00000000000E+00 -0.27723322391E+02  0.27723322391E+02  0.00000000000E+00 0.  1.
          2    1    1    2  502    0 -0.20181535063E+02 -0.21283622090E+00  0.47907383708E+03  0.47949878105E+03  0.00000000000E+00 0. -1.
         -2    1    1    2    0  502  0.20181535063E+02  0.21283622090E+00 -0.23809223130E+02  0.31212477678E+02  0.00000000000E+00 0.  1.
<mgrwt>
<rscale>  2 0.20182657E+02</rscale>
<asrwt>0</asrwt>
<pdfrwt beam="1">  1        2 0.74305830E-01 0.20182657E+02</pdfrwt>
<pdfrwt beam="2">  1       -2 0.42651269E-02 0.20182657E+02</pdfrwt>
<totfact> 0.12314747E+04</totfact>
</mgrwt>
</event>
<event>
 4    1  0.1474645E+004  0.2217642E+02  0.7546771E-02  0.1705219E+00
          2   -1    0    0  501    0  0.00000000000E+00  0.00000000000E+00  0.17767757180E+03  0.17767757180E+03  0.00000000000E+00 0. -1.
         -2   -1    0    0    0  501 -0.00000000000E+00 -0.00000000000E+00 -0.44393537530E+01  0.44393537530E+01  0.00000000000E+00 0. -1.
          2    1    1    2  502    0 -0.20610838780E+02  0.81845624887E+01  0.14249283445E+03  0.14420818842E+03  0.00000000000E+00 0. -1.
         -2    1    1    2    0  502  0.20610838780E+02 -0.81845624887E+01  0.30745383595E+02  0.37908737129E+02  0.00000000000E+00 0. -1.
<mgrwt>
<rscale>  2 0.22176423E+02</rscale>
<asrwt>0</asrwt>
<pdfrwt beam="1">  1        2 0.27335005E-01 0.22176423E+02</pdfrwt>
<pdfrwt beam="2">  1       -2 0.68297764E-03 0.22176423E+02</pdfrwt>
<totfact> 0.41318536E+05</totfact>
</mgrwt>
</event>
<event>
 4    1  0.1474645E+004  0.3054889E+02  0.7546771E-02  0.1592099E+00
          2   -1    0    0  501    0  0.00000000000E+00  0.00000000000E+00  0.15926451636E+04  0.15926451636E+04  0.00000000000E+00 0. -1.
         -2   -1    0    0    0  501 -0.00000000000E+00 -0.00000000000E+00 -0.59358128959E+00  0.59358128959E+00  0.00000000000E+00 0. -1.
          2    1    1    2  502    0  0.29889257860E+01 -0.30402323579E+02  0.88625998733E+03  0.88678633284E+03  0.00000000000E+00 0. -1.
         -2    1    1    2    0  502 -0.29889257860E+01  0.30402323579E+02  0.70579159502E+03  0.70645241209E+03  0.00000000000E+00 0. -1.
<mgrwt>
<rscale>  2 0.30548895E+02</rscale>
<asrwt>0</asrwt>
<pdfrwt beam="1">  1        2 0.24501891E+00 0.30548895E+02</pdfrwt>
<pdfrwt beam="2">  1       -2 0.91321473E-04 0.30548895E+02</pdfrwt>
<totfact> 0.55047855E+05</totfact>
</mgrwt>
</event>
<event>
 4    1  0.1474645E+004  0.2293685E+02  0.7546771E-02  0.1692536E+00
          2   -1    0    0  501    0  0.00000000000E+00  0.00000000000E+00  0.10407525233E+03  0.10407525233E+03  0.00000000000E+00 0. -1.
         -2   -1    0    0    0  501 -0.00000000000E+00 -0.00000000000E+00 -0.19631498019E+03  0.19631498019E+03  0.00000000000E+00 0.  1.
          2    1    1    2  502    0  0.43191087709E+01  0.22526524888E+02  0.10212892676E+03  0.10467290340E+03  0.00000000000E+00 0. -1.
         -2    1    1    2    0  502 -0.43191087709E+01 -0.22526524888E+02 -0.19436865462E+03  0.19571732913E+03  0.00000000000E+00 0.  1.
<mgrwt>
<rscale>  2 0.22936849E+02</rscale>
<asrwt>0</asrwt>
<pdfrwt beam="1">  1        2 0.16011577E-01 0.22936849E+02</pdfrwt>
<pdfrwt beam="2">  1       -2 0.30202305E-01 0.22936849E+02</pdfrwt>
<totfact> 0.30095899E+03</totfact>
</mgrwt>
</event>
<event>
 4    1  0.1474645E+004  0.3044305E+02  0.7546771E-02  0.1593242E+00
         -2   -1    0    0    0  501 -0.00000000000E+00  0.00000000000E+00  0.22688735763E+02  0.22688735763E+02  0.00000000000E+00 0. -1.
          2   -1    0    0  501    0  0.00000000000E+00 -0.00000000000E+00 -0.92223356135E+02  0.92223356135E+02  0.00000000000E+00 0.  1.
          2    1    1    2  502    0  0.29337032214E+02  0.81312226298E+01  0.81166406978E+01  0.31506477061E+02  0.00000000000E+00 0. -1.
         -2    1    1    2    0  502 -0.29337032214E+02 -0.81312226298E+01 -0.77651261069E+02  0.83405614837E+02  0.00000000000E+00 0.  1.
<mgrwt>
<rscale>  2 0.30443048E+02</rscale>
<asrwt>0</asrwt>
<pdfrwt beam="2">  1        2 0.14188209E-01 0.30443048E+02</pdfrwt>
<pdfrwt beam="1">  1       -2 0.34905747E-02 0.30443048E+02</pdfrwt>
<totfact> 0.96315776E+04</totfact>
</mgrwt>
</event>
<event>
 4    1  0.1474645E+004  0.2366042E+02  0.7546771E-02  0.1681023E+00
         -2   -1    0    0    0  501 -0.00000000000E+00  0.00000000000E+00  0.35555603138E+03  0.35555603138E+03  0.00000000000E+00 0.  1.
          2   -1    0    0  501    0  0.00000000000E+00 -0.00000000000E+00 -0.10034676549E+02  0.10034676549E+02  0.00000000000E+00 0.  1.
          2    1    1    2  502    0 -0.14082685511E+02 -0.19012983450E+02  0.49174926993E+01  0.24166036194E+02  0.00000000000E+00 0.  1.
         -2    1    1    2    0  502  0.14082685511E+02  0.19012983450E+02  0.34060386214E+03  0.34142467174E+03  0.00000000000E+00 0.  1.
<mgrwt>
<rscale>  2 0.23660422E+02</rscale>
<asrwt>0</asrwt>
<pdfrwt beam="2">  1        2 0.15437967E-02 0.23660422E+02</pdfrwt>
<pdfrwt beam="1">  1       -2 0.54700918E-01 0.23660422E+02</pdfrwt>
<totfact> 0.17469982E+04</totfact>
</mgrwt>
</event>
<event>
 4    1  0.1474645E+004  0.2122817E+02  0.7546771E-02  0.1721953E+00
         -2   -1    0    0    0  501 -0.00000000000E+00  0.00000000000E+00  0.11106849752E+01  0.11106849752E+01  0.00000000000E+00 0. -1.
          2   -1    0    0  501    0  0.00000000000E+00 -0.00000000000E+00 -0.43886110364E+03  0.43886110364E+03  0.00000000000E+00 0. -1.
          2    1    1    2  502    0 -0.19875531939E+02  0.74564253624E+01 -0.27932125877E+03  0.28012675818E+03  0.00000000000E+00 0. -1.
         -2    1    1    2    0  502  0.19875531939E+02 -0.74564253624E+01 -0.15842915990E+03  0.15984503044E+03  0.00000000000E+00 0. -1.
<mgrwt>
<rscale>  2 0.21228166E+02</rscale>
<asrwt>0</asrwt>
<pdfrwt beam="2">  1        2 0.67517063E-01 0.21228166E+02</pdfrwt>
<pdfrwt beam="1">  1       -2 0.17087469E-03 0.21228166E+02</pdfrwt>
<totfact> 0.10505137E+06</totfact>
</mgrwt>
</event>
<event>
 4    1  0.1474645E+004  0.2863131E+02  0.7546771E-02  0.1613730E+00
         -2   -1    0    0    0  501 -0.00000000000E+00  0.00000000000E+00  0.34175830383E+01  0.34175830383E+01  0.00000000000E+00 0. -1.
          2   -1    0    0  501    0  0.00000000000E+00 -0.00000000000E+00 -0.18913557073E+04  0.18913557073E+04  0.00000000000E+00 0. -1.
          2    1    1    2  502    0 -0.94344433774E+00  0.28615763318E+02 -0.18292456332E+04  0.18294696878E+04  0.00000000000E+00 0. -1.
         -2    1    1    2    0  502  0.94344433774E+00 -0.28615763318E+02 -0.58692491066E+02  0.65303602543E+02  0.00000000000E+00 0. -1.
<mgrwt>
<rscale>  2 0.28631311E+02</rscale>
<asrwt>0</asrwt>
<pdfrwt beam="2">  1        2 0.29097780E+00 0.28631311E+02</pdfrwt>
<pdfrwt beam="1">  1       -2 0.52578201E-03 0.28631311E+02</pdfrwt>
<totfact> 0.37684630E+04</totfact>
</mgrwt>
</event>
<event>
 4    1  0.1474645E+004  0.2003257E+02  0.7546771E-02  0.1744681E+00
          2   -1    0    0  501    0  0.00000000000E+00  0.00000000000E+00  0.21724801016E+03  0.21724801016E+03  0.00000000000E+00 0.  1.
         -2   -1    0    0    0  501 -0.00000000000E+00 -0.00000000000E+00 -0.28453297311E+01  0.28453297311E+01  0.00000000000E+00 0.  1.
          2    1    1    2  502    0  0.13540798446E+02  0.14763150202E+02  0.17237930473E+03  0.17353941491E+03  0.00000000000E+00 0.  1.
         -2    1    1    2    0  502 -0.13540798446E+02 -0.14763150202E+02  0.42023375697E+02  0.46553924984E+02  0.00000000000E+00 0.  1.
<mgrwt>
<rscale>  2 0.20032569E+02</rscale>
<asrwt>0</asrwt>
<pdfrwt beam="1">  1        2 0.33422758E-01 0.20032569E+02</pdfrwt>
<pdfrwt beam="2">  1       -2 0.43774320E-03 0.20032569E+02</pdfrwt>
<totfact> 0.59231565E+05</totfact>
</mgrwt>
</event>
<event>
 4    1  0.1474645E+004  0.2001914E+02  0.7546771E-02  0.1744948E+00
          2   -1    0    0  501    0  0.00000000000E+00  0.00000000000E+00  0.42198846275E+02  0.42198846275E+02  0.00000000000E+00 0. -1.
         -2   -1    0    0    0  501 -0.00000000000E+00 -0.00000000000E+00 -0.27550300255E+02  0.27550300255E+02  0.00000000000E+00 0. -1.
          2    1    1    2  502    0  0.17327869759E+02  0.10025520066E+02  0.35555060166E+02  0.40803534484E+02  0.00000000000E+00 0. -1.
         -2    1    1    2    0  502 -0.17327869759E+02 -0.10025520066E+02 -0.20906514146E+02  0.28945612046E+02  0.00000000000E+00 0. -1.
<mgrwt>
<rscale>  2 0.20019144E+02</rscale>
<asrwt>0</asrwt>
<pdfrwt beam="1">  1        2 0.64921302E-02 0.20019144E+02</pdfrwt>
<pdfrwt beam="2">  1       -2 0.42385077E-02 0.20019144E+02</pdfrwt>
<totfact> 0.16307231E+05</totfact>
</mgrwt>
</event>
<event>
 4    1  0.1474645E+004  0.2554430E+02  0.7546771E-02  0.1653305E+00
          2   -1    0    0  501    0  0.00000000000E+00  0.00000000000E+00  0.91018153135E+03  0.91018153135E+03  0.00000000000E+00 0.  1.
         -2   -1    0    0    0  501 -0.00000000000E+00 -0.00000000000E+00 -0.42673167264E+02  0.42673167264E+02  0.00000000000E+00 0. -1.
          2    1    1    2  502    0  0.22720652600E+02 -0.11674045084E+02  0.90616262854E+03  0.90652259803E+03  0.00000000000E+00 0.  1.
         -2    1    1    2    0  502 -0.22720652600E+02  0.11674045084E+02 -0.38654264457E+02  0.46332100577E+02  0.00000000000E+00 0. -1.
<mgrwt>
<rscale>  2 0.25544302E+02</rscale>
<asrwt>0</asrwt>
<pdfrwt beam="1">  1        2 0.14002791E+00 0.25544302E+02</pdfrwt>
<pdfrwt beam="2">  1       -2 0.65651033E-02 0.25544302E+02</pdfrwt>
<totfact> 0.34575321E+03</totfact>
</mgrwt>
</event>
<event>
 4    1  0.1474645E+004  0.3948298E+02  0.7546771E-02  0.1512051E+00
         -2   -1    0    0    0  501 -0.00000000000E+00  0.00000000000E+00  0.38566804257E+01  0.38566804257E+01  0.00000000000E+00 0. -1.
          2   -1    0    0  501    0  0.00000000000E+00 -0.00000000000E+00 -0.40421138569E+03  0.40421138569E+03  0.00000000000E+00 0. -1.
          2    1    1    2  502    0 -0.26882767065E+02  0.28917508415E+02 -0.20065883209E+03  0.20450641152E+03  0.00000000000E+00 0. -1.
         -2    1    1    2    0  502  0.26882767065E+02 -0.28917508415E+02 -0.19969587318E+03  0.20356165460E+03  0.00000000000E+00 0. -1.
<mgrwt>
<rscale>  2 0.39482977E+02</rscale>
<asrwt>0</asrwt>
<pdfrwt beam="2">  1        2 0.62186378E-01 0.39482977E+02</pdfrwt>
<pdfrwt beam="1">  1       -2 0.59333534E-03 0.39482977E+02</pdfrwt>
<totfact> 0.25413719E+05</totfact>
</mgrwt>
</event>
<event>
 4    1  0.1474645E+004  0.2207612E+02  0.7546771E-02  0.1706939E+00
         -2   -1    0    0    0  501 -0.00000000000E+00  0.00000000000E+00  0.14615759112E+01  0.14615759112E+01  0.00000000000E+00 0. -1.
          2   -1    0    0  501    0  0.00000000000E+00 -0.00000000000E+00 -0.13920413804E+04  0.13920413804E+04  0.00000000000E+00 0. -1.
          2    1    1    2  502    0 -0.18745139367E+02  0.11660826062E+02 -0.13028888842E+04  0.13030758994E+04  0.00000000000E+00 0. -1.
         -2    1    1    2    0  502  0.18745139367E+02 -0.11660826062E+02 -0.87690920295E+02  0.90427056883E+02  0.00000000000E+00 0. -1.
<mgrwt>
<rscale>  2 0.22076121E+02</rscale>
<asrwt>0</asrwt>
<pdfrwt beam="2">  1        2 0.21416075E+00 0.22076121E+02</pdfrwt>
<pdfrwt beam="1">  1       -2 0.22485727E-03 0.22076121E+02</pdfrwt>
<totfact> 0.19263702E+05</totfact>
</mgrwt>
</event>
<event>
 4    1  0.1474645E+004  0.4577191E+02  0.7546771E-02  0.1469580E+00
          2   -1    0    0  501    0  0.00000000000E+00  0.00000000000E+00  0.35376453000E+04  0.35376453000E+04  0.00000000000E+00 0.  1.
         -2   -1    0    0    0  501 -0.00000000000E+00 -0.00000000000E+00 -0.23564526164E+01  0.23564526164E+01  0.00000000000E+00 0. -1.
          2    1    1    2  502    0  0.45770590070E+02 -0.34699578222E+00  0.32991618542E+04  0.32994793540E+04  0.00000000000E+00 0.  1.
         -2    1    1    2    0  502 -0.45770590070E+02  0.34699578222E+00  0.23612699311E+03  0.24052239854E+03  0.00000000000E+00 0. -1.
<mgrwt>
<rscale>  2 0.45771905E+02</rscale>
<asrwt>0</asrwt>
<pdfrwt beam="1">  1        2 0.54424887E+00 0.45771905E+02</pdfrwt>
<pdfrwt beam="2">  1       -2 0.36253400E-03 0.45771905E+02</pdfrwt>
<totfact> 0.87485247E+03</totfact>
</mgrwt>
</event>
<event>
 4    1  0.1474645E+004  0.5034777E+02  0.7546771E-02  0.1443475E+00
          2   -1    0    0  501    0  0.00000000000E+00  0.00000000000E+00  0.18113044638E+03  0.18113044638E+03  0.00000000000E+00 0.  1.
         -2   -1    0    0    0  501 -0.00000000000E+00 -0.00000000000E+00 -0.39837390274E+02  0.39837390274E+02  0.00000000000E+00 0. -1.
          2    1    1    2  502    0  0.46030423555E+02 -0.20398490996E+02  0.15963238796E+03  0.16738398255E+03  0.00000000000E+00 0.  1.
         -2    1    1    2    0  502 -0.46030423555E+02  0.20398490996E+02 -0.18339331857E+02  0.53583854103E+02  0.00000000000E+00 0. -1.
<mgrwt>
<rscale>  2 0.50347774E+02</rscale>
<asrwt>0</asrwt>
<pdfrwt beam="1">  1        2 0.27866222E-01 0.50347774E+02</pdfrwt>
<pdfrwt beam="2">  1       -2 0.61288294E-02 0.50347774E+02</pdfrwt>
<totfact> 0.22470386E+04</totfact>
</mgrwt>
</event>
<event>
 4    1  0.1474645E+004  0.2837865E+02  0.7546771E-02  0.1616734E+00
          2   -1    0    0  501    0  0.00000000000E+00  0.00000000000E+00  0.18535121051E+04  0.18535121051E+04  0.00000000000E+00 0.  1.
         -2   -1    0    0    0  501 -0.00000000000E+00 -0.00000000000E+00 -0.17456312495E+01  0.17456312495E+01  0.00000000000E+00 0.  1.
          2    1    1    2  502    0  0.22367465778E+02 -0.17465510800E+02  0.17298190787E+04  0.17300518468E+04  0.00000000000E+00 0.  1.
         -2    1    1    2    0  502 -0.22367465778E+02  0.17465510800E+02  0.12194739512E+03  0.12520588951E+03  0.00000000000E+00 0.  1.
<mgrwt>
<rscale>  2 0.28378647E+02</rscale>
<asrwt>0</asrwt>
<pdfrwt beam="1">  1        2 0.28515413E+00 0.28378647E+02</pdfrwt>
<pdfrwt beam="2">  1       -2 0.26856014E-03 0.28378647E+02</pdfrwt>
<totfact> 0.96846329E+04</totfact>
</mgrwt>
</event>
<event>
 4    1  0.1474645E+004  0.2012509E+02  0.7546771E-02  0.1742852E+00
         -2   -1    0    0    0  501 -0.00000000000E+00  0.00000000000E+00  0.19531093277E+02  0.19531093277E+02  0.00000000000E+00 0.  1.
          2   -1    0    0  501    0  0.00000000000E+00 -0.00000000000E+00 -0.14008620751E+04  0.14008620751E+04  0.00000000000E+00 0. -1.
          2    1    1    2  502    0  0.13820465084E+02 -0.14629218575E+02 -0.13955859074E+04  0.13957310071E+04  0.00000000000E+00 0. -1.
         -2    1    1    2    0  502 -0.13820465084E+02  0.14629218575E+02  0.14254925623E+02  0.24662161214E+02  0.00000000000E+00 0.  1.
<mgrwt>
<rscale>  2 0.20125091E+02</rscale>
<asrwt>0</asrwt>
<pdfrwt beam="2">  1        2 0.21551724E+00 0.20125091E+02</pdfrwt>
<pdfrwt beam="1">  1       -2 0.30047836E-02 0.20125091E+02</pdfrwt>
<totfact> 0.57273807E+03</totfact>
</mgrwt>
</event>
<event>
 4    1  0.1474645E+004  0.2430701E+02  0.7546771E-02  0.1671160E+00
          2   -1    0    0  501    0  0.00000000000E+00  0.00000000000E+00  0.15567142397E+04  0.15567142397E+04  0.00000000000E+00 0. -1.
         -2   -1    0    0    0  501 -0.00000000000E+00 -0.00000000000E+00 -0.29648993399E+02  0.29648993399E+02  0.00000000000E+00 0. -1.
          2    1    1    2  502    0  0.46591857767E+01 -0.23856288600E+02  0.15516211271E+04  0.15518115068E+04  0.00000000000E+00 0. -1.
         -2    1    1    2    0  502 -0.46591857767E+01  0.23856288600E+02 -0.24555880730E+02  0.34551726386E+02  0.00000000000E+00 0. -1.
<mgrwt>
<rscale>  2 0.24307006E+02</rscale>
<asrwt>0</asrwt>
<pdfrwt beam="1">  1        2 0.23949444E+00 0.24307006E+02</pdfrwt>
<pdfrwt beam="2">  1       -2 0.45613848E-02 0.24307006E+02</pdfrwt>
<totfact> 0.27316739E+03</totfact>
</mgrwt>
</event>
<event>
 4    1  0.1474645E+004  0.2079146E+02  0.7546771E-02  0.1730032E+00
         -2   -1    0    0    0  501 -0.00000000000E+00  0.00000000000E+00  0.14696262557E+02  0.14696262557E+02  0.00000000000E+00 0.  1.
          2   -1    0    0  501    0  0.00000000000E+00 -0.00000000000E+00 -0.19013441832E+03  0.19013441832E+03  0.00000000000E+00 0. -1.
          2    1    1    2  502    0  0.18927347938E+02 -0.86046713947E+01 -0.18187970497E+03  0.18306422903E+03  0.00000000000E+00 0. -1.
         -2    1    1    2    0  502 -0.18927347938E+02  0.86046713947E+01  0.64415492089E+01  0.21766451846E+02  0.00000000000E+00 0.  1.
<mgrwt>
<rscale>  2 0.20791461E+02</rscale>
<asrwt>0</asrwt>
<pdfrwt beam="2">  1        2 0.29251450E-01 0.20791461E+02</pdfrwt>
<pdfrwt beam="1">  1       -2 0.22609634E-02 0.20791461E+02</pdfrwt>
<totfact> 0.74890926E+04</totfact>
</mgrwt>
</event>
<event>
 4    1  0.1474645E+004  0.2239963E+02  0.7546771E-02  0.1701431E+00
         -2   -1    0    0    0  501 -0.00000000000E+00  0.00000000000E+00  0.11092113509E+02  0.11092113509E+02  0.00000000000E+00 0. -1.
          2   -1    0    0  501    0  0.00000000000E+00 -0.00000000000E+00 -0.29194218360E+03  0.29194218360E+03  0.00000000000E+00 0.  1.
          2    1    1    2  502    0  0.22391626983E+02  0.59854287731E+00 -0.27971022415E+03  0.28060568901E+03  0.00000000000E+00 0.  1.
         -2    1    1    2    0  502 -0.22391626983E+02 -0.59854287731E+00 -0.11398459453E+01  0.22428608100E+02  0.00000000000E+00 0. -1.
<mgrwt>
<rscale>  2 0.22399625E+02</rscale>
<asrwt>0</asrwt>
<pdfrwt beam="2">  1        2 0.44914176E-01 0.22399625E+02</pdfrwt>
<pdfrwt beam="1">  1       -2 0.17064793E-02 0.22399625E+02</pdfrwt>
<totfact> 0.73087115E+04</totfact>
</mgrwt>
</event>
<event>
 4    1  0.1474645E+004  0.2754815E+02  0.7546771E-02  0.1626887E+00
          2   -1    0    0  501    0  0.00000000000E+00  0.00000000000E+00  0.23475311608E+03  0.23475311608E+03  0.00000000000E+00 0.  1.
         -2   -1    0    0    0  501 -0.00000000000E+00 -0.00000000000E+00 -0.38685579682E+01  0.38685579682E+01  0.00000000000E+00 0.  1.
          2    1    1    2  502    0  0.27525359106E+02 -0.11203304715E+01  0.16381102551E+03  0.16611126576E+03  0.00000000000E+00 0.  1.
         -2    1    1    2    0  502 -0.27525359106E+02  0.11203304715E+01  0.67073532611E+02  0.72510408295E+02  0.00000000000E+00 0.  1.
<mgrwt>
<rscale>  2 0.27548149E+02</rscale>
<asrwt>0</asrwt>
<pdfrwt beam="1">  1        2 0.36115853E-01 0.27548149E+02</pdfrwt>
<pdfrwt beam="2">  1       -2 0.59516295E-03 0.27548149E+02</pdfrwt>
<totfact> 0.39940222E+05</totfact>
</mgrwt>
</event>
<event>
 4    1  0.1474645E+004  0.2181526E+02  0.7546771E-02  0.1711467E+00
         -2   -1    0    0    0  501 -0.00000000000E+00  0.00000000000E+00  0.15896993833E+00  0.15896993833E+00  0.00000000000E+00 0. -1.
          2   -1    0    0  501    0  0.00000000000E+00 -0.00000000000E+00 -0.30062988910E+04  0.30062988910E+04  0.00000000000E+00 0. -1.
          2    1    1    2  502    0  0.14475475701E+02 -0.16320730371E+02 -0.16004487233E+04  0.16005973952E+04  0.00000000000E+00 0. -1.
         -2    1    1    2    0  502 -0.14475475701E+02  0.16320730371E+02 -0.14056911978E+04  0.14058604658E+04  0.00000000000E+00 0. -1.
<mgrwt>
<rscale>  2 0.21815262E+02</rscale>
<asrwt>0</asrwt>
<pdfrwt beam="2">  1        2 0.46251900E+00 0.21815262E+02</pdfrwt>
<pdfrwt beam="1">  1       -2 0.24456307E-04 0.21815262E+02</pdfrwt>
<totfact> 0.59203334E+05</totfact>
</mgrwt>
</event>
<event>
 4    1  0.1474645E+004  0.5353556E+02  0.7546771E-02  0.1427154E+00
          2   -1    0    0  501    0  0.00000000000E+00  0.00000000000E+00  0.15607489350E+03  0.15607489350E+03  0.00000000000E+00 0.  1.
         -2   -1    0    0    0  501 -0.00000000000E+00 -0.00000000000E+00 -0.49468294559E+02  0.49468294559E+02  0.00000000000E+00 0. -1.
          2    1    1    2  502    0 -0.51502052402E+02  0.14614890437E+02  0.13479706871E+03  0.14503898151E+03  0.00000000000E+00 0.  1.
         -2    1    1    2    0  502  0.51502052402E+02 -0.14614890437E+02 -0.28190469771E+02  0.60504206549E+02  0.00000000000E+00 0. -1.
<mgrwt>
<rscale>  2 0.53535562E+02</rscale>
<asrwt>0</asrwt>
<pdfrwt beam="1">  1        2 0.24011522E-01 0.53535562E+02</pdfrwt>
<pdfrwt beam="2">  1       -2 0.76105069E-02 0.53535562E+02</pdfrwt>
<totfact> 0.19233656E+04</totfact>
</mgrwt>
</event>
<event>
 4    1  0.1474645E+004  0.5713753E+02  0.7546771E-02  0.1410252E+00
         -2   -1    0    0    0  501 -0.00000000000E+00  0.00000000000E+00  0.24952775610E+02  0.24952775610E+02  0.00000000000E+00 0. -1.
          2   -1    0    0  501    0  0.00000000000E+00 -0.00000000000E+00 -0.16751374590E+04  0.16751374590E+04  0.00000000000E+00 0. -1.
          2    1    1    2  502    0  0.51504069557E+02 -0.24739202173E+02 -0.16412666659E+04  0.16422609311E+04  0.00000000000E+00 0. -1.
         -2    1    1    2    0  502 -0.51504069557E+02  0.24739202173E+02 -0.89180174844E+01  0.57829303480E+02  0.00000000000E+00 0. -1.
<mgrwt>
<rscale>  2 0.57137530E+02</rscale>
<asrwt>0</asrwt>
<pdfrwt beam="2">  1        2 0.25771362E+00 0.57137530E+02</pdfrwt>
<pdfrwt beam="1">  1       -2 0.38388861E-02 0.57137530E+02</pdfrwt>
<totfact> 0.31622709E+03</totfact>
</mgrwt>
</event>
<event>
 4    1  0.1474645E+004  0.5334985E+02  0.7546771E-02  0.1428068E+00
         -2   -1    0    0    0  501 -0.00000000000E+00  0.00000000000E+00  0.35076015067E+02  0.35076015067E+02  0.00000000000E+00 0. -1.
          2   -1    0    0  501    0  0.00000000000E+00 -0.00000000000E+00 -0.33524085875E+03  0.33524085875E+03  0.00000000000E+00 0. -1.
          2    1    1    2  502    0 -0.53222752215E+02 -0.36803464777E+01 -0.31128230663E+03  0.31582096309E+03  0.00000000000E+00 0. -1.
         -2    1    1    2    0  502  0.53222752215E+02  0.36803464777E+01  0.11117462950E+02  0.54495910727E+02  0.00000000000E+00 0. -1.
<mgrwt>
<rscale>  2 0.53349848E+02</rscale>
<asrwt>0</asrwt>
<pdfrwt beam="2">  1        2 0.51575517E-01 0.53349848E+02</pdfrwt>
<pdfrwt beam="1">  1       -2 0.53963100E-02 0.53349848E+02</pdfrwt>
<totfact> 0.14455054E+04</totfact>
</mgrwt>
</event>
<event>
 4    1  0.1474645E+004  0.2819474E+02  0.7546771E-02  0.1618946E+00
          2   -1    0    0  501    0  0.00000000000E+00  0.00000000000E+00  0.92892411675E+03  0.92892411675E+03  0.00000000000E+00 0.  1.
         -2   -1    0    0    0  501 -0.00000000000E+00 -0.00000000000E+00 -0.69406200148E+01  0.69406200148E+01  0.00000000000E+00 0.  1.
          2    1    1    2  502    0 -0.53581546338E+01 -0.27680926411E+02  0.89912777447E+03  0.89956972956E+03  0.00000000000E+00 0.  1.
         -2    1    1    2    0  502  0.53581546338E+01  0.27680926411E+02  0.22855722263E+02  0.36295007208E+02  0.00000000000E+00 0.  1.
<mgrwt>
<rscale>  2 0.28194743E+02</rscale>
<asrwt>0</asrwt>
<pdfrwt beam="1">  1        2 0.14291130E+00 0.28194743E+02</pdfrwt>
<pdfrwt beam="2">  1       -2 0.10677884E-02 0.28194743E+02</pdfrwt>
<totfact> 0.43133896E+04</totfact>
</mgrwt>
</event>
<event>
 4    1  0.1474645E+004  0.2705476E+02  0.7546771E-02  0.1633130E+00
          2   -1    0    0  501    0  0.00000000000E+00  0.00000000000E+00  0.20181489501E+03  0.20181489501E+03  0.00000000000E+00 0.  1.
         -2   -1    0    0    0  501 -0.00000000000E+00 -0.00000000000E+00 -0.59231984390E+01  0.59231984390E+01  0.00000000000E+00 0. -1.
          2    1    1    2  502    0  0.24016513080E+02 -0.12456612348E+02  0.16261888764E+03  0.16485406488E+03  0.00000000000E+00 0.  1.
         -2    1    1    2    0  502 -0.24016513080E+02  0.12456612348E+02  0.33272808930E+02  0.42884028563E+02  0.00000000000E+00 0. -1.
<mgrwt>
<rscale>  2 0.27054761E+02</rscale>
<asrwt>0</asrwt>
<pdfrwt beam="1">  1        2 0.31048440E-01 0.27054761E+02</pdfrwt>
<pdfrwt beam="2">  1       -2 0.91126145E-03 0.27054761E+02</pdfrwt>
<totfact> 0.25999926E+05</totfact>
</mgrwt>
</event>
<event>
 4    1  0.1474645E+004  0.4131655E+02  0.7546771E-02  0.1498741E+00
         -2   -1    0    0    0  501 -0.00000000000E+00  0.00000000000E+00  0.19506118478E+03  0.19506118478E+03  0.00000000000E+00 0.  1.
          2   -1    0    0  501    0  0.00000000000E+00 -0.00000000000E+00 -0.42399277510E+02  0.42399277510E+02  0.00000000000E+00 0.  1.
          2    1    1    2  502    0  0.40771015739E+02  0.66918956331E+01 -0.29438671242E+02  0.50731573561E+02  0.00000000000E+00 0.  1.
         -2    1    1    2    0  502 -0.40771015739E+02 -0.66918956331E+01  0.18210057851E+03  0.18672888873E+03  0.00000000000E+00 0.  1.
<mgrwt>
<rscale>  2 0.41316549E+02</rscale>
<asrwt>0</asrwt>
<pdfrwt beam="2">  1        2 0.65229659E-02 0.41316549E+02</pdfrwt>
<pdfrwt beam="1">  1       -2 0.30009413E-01 0.41316549E+02</pdfrwt>
<totfact> 0.92935985E+03</totfact>
</mgrwt>
</event>
<event>
 4    1  0.1474645E+004  0.2470615E+02  0.7546771E-02  0.1665259E+00
         -2   -1    0    0    0  501 -0.00000000000E+00  0.00000000000E+00  0.28984059915E+01  0.28984059915E+01  0.00000000000E+00 0. -1.
          2   -1    0    0  501    0  0.00000000000E+00 -0.00000000000E+00 -0.21298453675E+03  0.21298453675E+03  0.00000000000E+00 0. -1.
          2    1    1    2  502    0  0.21449412612E+02 -0.12260361510E+02 -0.11647308793E+03  0.11906457902E+03  0.00000000000E+00 0. -1.
         -2    1    1    2    0  502 -0.21449412612E+02  0.12260361510E+02 -0.93613042834E+02  0.96818363725E+02  0.00000000000E+00 0. -1.
<mgrwt>
<rscale>  2 0.24706148E+02</rscale>
<asrwt>0</asrwt>
<pdfrwt beam="2">  1        2 0.32766850E-01 0.24706148E+02</pdfrwt>
<pdfrwt beam="1">  1       -2 0.44590864E-03 0.24706148E+02</pdfrwt>
<totfact> 0.62963241E+05</totfact>
</mgrwt>
</event>
<event>
 4    1  0.1474645E+004  0.3193310E+02  0.7546771E-02  0.1577654E+00
         -2   -1    0    0    0  501 -0.00000000000E+00  0.00000000000E+00  0.12015733858E+02  0.12015733858E+02  0.00000000000E+00 0.  1.
          2   -1    0    0  501    0  0.00000000000E+00 -0.00000000000E+00 -0.57935121959E+03  0.57935121959E+03  0.00000000000E+00 0. -1.
          2    1    1    2  502    0 -0.31889206789E+02  0.16738123693E+01 -0.55683767896E+03  0.55775256510E+03  0.00000000000E+00 0. -1.
         -2    1    1    2    0  502  0.31889206789E+02 -0.16738123693E+01 -0.10497806771E+02  0.33614388355E+02  0.00000000000E+00 0.  1.
<mgrwt>
<rscale>  2 0.31933104E+02</rscale>
<asrwt>0</asrwt>
<pdfrwt beam="2">  1        2 0.89130955E-01 0.31933104E+02</pdfrwt>
<pdfrwt beam="1">  1       -2 0.18485745E-02 0.31933104E+02</pdfrwt>
<totfact> 0.35203015E+04</totfact>
</mgrwt>
</event>
<event>
 4    1  0.1474645E+004  0.3338633E+02  0.7546771E-02  0.1563416E+00
         -2   -1    0    0    0  501 -0.00000000000E+00  0.00000000000E+00  0.11978142463E+03  0.11978142463E+03  0.00000000000E+00 0. -1.
          2   -1    0    0  501    0  0.00000000000E+00 -0.00000000000E+00 -0.48069032043E+02  0.48069032043E+02  0.00000000000E+00 0. -1.
          2    1    1    2  502    0  0.26395148794E+02 -0.20443663467E+02 -0.39508945784E+02  0.51726241433E+02  0.00000000000E+00 0. -1.
         -2    1    1    2    0  502 -0.26395148794E+02  0.20443663467E+02  0.11122133838E+03  0.11612421524E+03  0.00000000000E+00 0. -1.
<mgrwt>
<rscale>  2 0.33386333E+02</rscale>
<asrwt>0</asrwt>
<pdfrwt beam="2">  1        2 0.73952357E-02 0.33386333E+02</pdfrwt>
<pdfrwt beam="1">  1       -2 0.18427911E-01 0.33386333E+02</pdfrwt>
<totfact> 0.17503328E+04</totfact>
</mgrwt>
</event>
<event>
 4    1  0.1474645E+004  0.2453019E+02  0.7546771E-02  0.1667843E+00
         -2   -1    0    0    0  501 -0.00000000000E+00  0.00000000000E+00  0.23919152821E+01  0.23919152821E+01  0.00000000000E+00 0.  1.
          2   -1    0    0  501    0  0.00000000000E+00 -0.00000000000E+00 -0.31413464600E+03  0.31413464600E+03  0.00000000000E+00 0. -1.
          2    1    1    2  502    0  0.24439834665E+02 -0.21034817719E+01 -0.22650190211E+03  0.22782634135E+03  0.00000000000E+00 0. -1.
         -2    1    1    2    0  502 -0.24439834665E+02  0.21034817719E+01 -0.85240828603E+02  0.88700219926E+02  0.00000000000E+00 0.  1.
<mgrwt>
<rscale>  2 0.24530189E+02</rscale>
<asrwt>0</asrwt>
<pdfrwt beam="2">  1        2 0.48328398E-01 0.24530189E+02</pdfrwt>
<pdfrwt beam="1">  1       -2 0.36798703E-03 0.24530189E+02</pdfrwt>
<totfact> 0.55200951E+05</totfact>
</mgrwt>
</event>
<event>
 4    1  0.1474645E+004  0.2983945E+02  0.7546771E-02  0.1599870E+00
          2   -1    0    0  501    0  0.00000000000E+00  0.00000000000E+00  0.59142839828E+03  0.59142839828E+03  0.00000000000E+00 0.  1.
         -2   -1    0    0    0  501 -0.00000000000E+00 -0.00000000000E+00 -0.45824933008E+02  0.45824933008E+02  0.00000000000E+00 0.  1.
          2    1    1    2  502    0  0.29311686661E+02 -0.55872965026E+01  0.58615073676E+03  0.58690977080E+03  0.00000000000E+00 0.  1.
         -2    1    1    2    0  502 -0.29311686661E+02  0.55872965026E+01 -0.40547271490E+02  0.50343560485E+02  0.00000000000E+00 0.  1.
<mgrwt>
<rscale>  2 0.29839451E+02</rscale>
<asrwt>0</asrwt>
<pdfrwt beam="1">  1        2 0.90988979E-01 0.29839451E+02</pdfrwt>
<pdfrwt beam="2">  1       -2 0.70499901E-02 0.29839451E+02</pdfrwt>
<totfact> 0.51156797E+03</totfact>
</mgrwt>
</event>
<event>
 4    1  0.1474645E+004  0.2131361E+02  0.7546771E-02  0.1720400E+00
          2   -1    0    0  501    0  0.00000000000E+00  0.00000000000E+00  0.54532049201E+03  0.54532049201E+03  0.00000000000E+00 0. -1.
         -2   -1    0    0    0  501 -0.00000000000E+00 -0.00000000000E+00 -0.12640972685E+03  0.12640972685E+03  0.00000000000E+00 0.  1.
          2    1    1    2  502    0 -0.12452270019E+02 -0.17297716336E+02  0.54421199652E+03  0.54462920155E+03  0.00000000000E+00 0. -1.
         -2    1    1    2    0  502  0.12452270019E+02  0.17297716336E+02 -0.12530123137E+03  0.12710101731E+03  0.00000000000E+00 0.  1.
<mgrwt>
<rscale>  2 0.21313611E+02</rscale>
<asrwt>0</asrwt>
<pdfrwt beam="1">  1        2 0.83895459E-01 0.21313611E+02</pdfrwt>
<pdfrwt beam="2">  1       -2 0.19447651E-01 0.21313611E+02</pdfrwt>
<totfact> 0.11573282E+03</totfact>
</mgrwt>
</event>
<event>
 4    1  0.1474645E+004  0.2566292E+02  0.7546771E-02  0.1651659E+00
          2   -1    0    0  501    0  0.00000000000E+00  0.00000000000E+00  0.77574481320E+02  0.77574481320E+02  0.00000000000E+00 0. -1.
         -2   -1    0    0    0  501 -0.00000000000E+00 -0.00000000000E+00 -0.24644778239E+02  0.24644778239E+02  0.00000000000E+00 0. -1.
          2    1    1    2  502    0 -0.13688502216E+02  0.21707376173E+02  0.67845243767E+02  0.72536627816E+02  0.00000000000E+00 0. -1.
         -2    1    1    2    0  502  0.13688502216E+02 -0.21707376173E+02 -0.14915540685E+02  0.29682631743E+02  0.00000000000E+00 0. -1.
<mgrwt>
<rscale>  2 0.25662916E+02</rscale>
<asrwt>0</asrwt>
<pdfrwt beam="1">  1        2 0.11934535E-01 0.25662916E+02</pdfrwt>
<pdfrwt beam="2">  1       -2 0.37915044E-02 0.25662916E+02</pdfrwt>
<totfact> 0.10013887E+05</totfact>
</mgrwt>
</event>
<event>
 4    1  0.1474645E+004  0.2128254E+02  0.7546771E-02  0.1720964E+00
         -2   -1    0    0    0  501 -0.00000000000E+00  0.00000000000E+00  0.86143783424E+02  0.86143783424E+02  0.00000000000E+00 0. -1.
          2   -1    0    0  501    0  0.00000000000E+00 -0.00000000000E+00 -0.61019335769E+01  0.61019335769E+01  0.00000000000E+00 0. -1.
          2    1    1    2  502    0 -0.18943389902E+02 -0.97002243235E+01  0.22868340632E+02  0.31239516260E+02  0.00000000000E+00 0. -1.
         -2    1    1    2    0  502  0.18943389902E+02  0.97002243235E+01  0.57173509215E+02  0.61006200741E+02  0.00000000000E+00 0. -1.
<mgrwt>
<rscale>  2 0.21282537E+02</rscale>
<asrwt>0</asrwt>
<pdfrwt beam="2">  1        2 0.93875908E-03 0.21282537E+02</pdfrwt>
<pdfrwt beam="1">  1       -2 0.13252889E-01 0.21282537E+02</pdfrwt>
<totfact> 0.36061757E+05</totfact>
</mgrwt>
</event>
<event>
 4    1  0.1474645E+004  0.2712308E+02  0.7546771E-02  0.1632256E+00
         -2   -1    0    0    0  501 -0.00000000000E+00  0.00000000000E+00  0.13992573721E+01  0.13992573721E+01  0.00000000000E+00 0.  1.
          2   -1    0    0  501    0  0.00000000000E+00 -0.00000000000E+00 -0.16479769966E+04  0.16479769966E+04  0.00000000000E+00 0. -1.
          2    1    1    2  502    0 -0.16778305324E+02 -0.21310798808E+02 -0.15038297732E+04  0.15040743494E+04  0.00000000000E+00 0. -1.
         -2    1    1    2    0  502  0.16778305324E+02  0.21310798808E+02 -0.14274796603E+03  0.14530190460E+03  0.00000000000E+00 0.  1.
<mgrwt>
<rscale>  2 0.27123084E+02</rscale>
<asrwt>0</asrwt>
<pdfrwt beam="2">  1        2 0.25353429E+00 0.27123084E+02</pdfrwt>
<pdfrwt beam="1">  1       -2 0.21527090E-03 0.27123084E+02</pdfrwt>
<totfact> 0.16129573E+05</totfact>
</mgrwt>
</event>
<event>
 4    1  0.1474645E+004  0.3251144E+02  0.7546771E-02  0.1571879E+00
         -2   -1    0    0    0  501 -0.00000000000E+00  0.00000000000E+00  0.65923476126E+01  0.65923476126E+01  0.00000000000E+00 0.  1.
          2   -1    0    0  501    0  0.00000000000E+00 -0.00000000000E+00 -0.21034777396E+03  0.21034777396E+03  0.00000000000E+00 0. -1.
          2    1    1    2  502    0 -0.31477724538E+02  0.81330378956E+01 -0.15476791309E+03  0.15814581996E+03  0.00000000000E+00 0. -1.
         -2    1    1    2    0  502  0.31477724538E+02 -0.81330378956E+01 -0.48987513263E+02  0.58794301621E+02  0.00000000000E+00 0.  1.
<mgrwt>
<rscale>  2 0.32511436E+02</rscale>
<asrwt>0</asrwt>
<pdfrwt beam="2">  1        2 0.32361194E-01 0.32511436E+02</pdfrwt>
<pdfrwt beam="1">  1       -2 0.10142074E-02 0.32511436E+02</pdfrwt>
<totfact> 0.22558811E+05</totfact>
</mgrwt>
</event>
<event>
 4    1  0.1474645E+004  0.5155954E+02  0.7546771E-02  0.1437107E+00
          2   -1    0    0  501    0  0.00000000000E+00  0.00000000000E+00  0.16927911365E+03  0.16927911365E+03  0.00000000000E+00 0. -1.
         -2   -1    0    0    0  501 -0.00000000000E+00 -0.00000000000E+00 -0.15848638059E+02  0.15848638059E+02  0.00000000000E+00 0. -1.
          2    1    1    2  502    0 -0.16641416204E+02 -0.48800101834E+02  0.85553015444E+02  0.99888463417E+02  0.00000000000E+00 0. -1.
         -2    1    1    2    0  502  0.16641416204E+02  0.48800101834E+02  0.67877460146E+02  0.85239288291E+02  0.00000000000E+00 0. -1.
<mgrwt>
<rscale>  2 0.51559545E+02</rscale>
<asrwt>0</asrwt>
<pdfrwt beam="1">  1        2 0.26042939E-01 0.51559545E+02</pdfrwt>
<pdfrwt beam="2">  1       -2 0.24382521E-02 0.51559545E+02</pdfrwt>
<totfact> 0.91774166E+04</totfact>
</mgrwt>
</event>
<event>
 4    1  0.1474645E+004  0.2407422E+02  0.7546771E-02  0.1674667E+00
         -2   -1    0    0    0  501 -0.00000000000E+00  0.00000000000E+00  0.37797604602E+01  0.37797604602E+01  0.00000000000E+00 0. -1.
          2   -1    0    0  501    0  0.00000000000E+00 -0.00000000000E+00 -0.46610447412E+03  0.46610447412E+03  0.00000000000E+00 0. -1.
          2    1    1    2  502    0 -0.66929244244E+01  0.23125154608E+02 -0.42361846903E+03  0.42430198599E+03  0.00000000000E+00 0. -1.
         -2    1    1    2    0  502  0.66929244244E+01 -0.23125154608E+02 -0.38706244625E+02  0.45582248584E+02  0.00000000000E+00 0. -1.
<mgrwt>
<rscale>  2 0.24074219E+02</rscale>
<asrwt>0</asrwt>
<pdfrwt beam="2">  1        2 0.71708391E-01 0.24074219E+02</pdfrwt>
<pdfrwt beam="1">  1       -2 0.58150153E-03 0.24074219E+02</pdfrwt>
<totfact> 0.20102879E+05</totfact>
</mgrwt>
</event>
<event>
 4    1  0.1474645E+004  0.2315810E+02  0.7546771E-02  0.1688960E+00
         -2   -1    0    0    0  501 -0.00000000000E+00  0.00000000000E+00  0.97256763374E+01  0.97256763374E+01  0.00000000000E+00 0.  1.
          2   -1    0    0  501    0  0.00000000000E+00 -0.00000000000E+00 -0.69880358190E+03  0.69880358190E+03  0.00000000000E+00 0.  1.
          2    1    1    2  502    0  0.18578191878E+02  0.13825640746E+02 -0.68453892110E+03  0.68493053083E+03  0.00000000000E+00 0.  1.
         -2    1    1    2    0  502 -0.18578191878E+02 -0.13825640746E+02 -0.45389844613E+01  0.23598727411E+02  0.00000000000E+00 0.  1.
<mgrwt>
<rscale>  2 0.23158099E+02</rscale>
<asrwt>0</asrwt>
<pdfrwt beam="2">  1        2 0.10750827E+00 0.23158099E+02</pdfrwt>
<pdfrwt beam="1">  1       -2 0.14962576E-02 0.23158099E+02</pdfrwt>
<totfact> 0.36468363E+04</totfact>
</mgrwt>
</event>
<event>
 4    1  0.1474645E+004  0.2577338E+02  0.7546771E-02  0.1650136E+00
         -2   -1    0    0    0  501 -0.00000000000E+00  0.00000000000E+00  0.66194801614E+02  0.66194801614E+02  0.00000000000E+00 0.  1.
          2   -1    0    0  501    0  0.00000000000E+00 -0.00000000000E+00 -0.18381266327E+04  0.18381266327E+04  0.00000000000E+00 0.  1.
          2    1    1    2  502    0  0.14752631552E+02 -0.21133552752E+02 -0.18355239710E+04  0.18357049097E+04  0.00000000000E+00 0.  1.
         -2    1    1    2    0  502 -0.14752631552E+02  0.21133552752E+02  0.63592139947E+02  0.68616524633E+02  0.00000000000E+00 0.  1.
<mgrwt>
<rscale>  2 0.25773381E+02</rscale>
<asrwt>0</asrwt>
<pdfrwt beam="2">  1        2 0.28278870E+00 0.25773381E+02</pdfrwt>
<pdfrwt beam="1">  1       -2 0.10183816E-01 0.25773381E+02</pdfrwt>
<totfact> 0.62841997E+02</totfact>
</mgrwt>
</event>
<event>
 4    1  0.1474645E+004  0.2161228E+02  0.7546771E-02  0.1715045E+00
          2   -1    0    0  501    0  0.00000000000E+00  0.00000000000E+00  0.80588941393E+02  0.80588941393E+02  0.00000000000E+00 0. -1.
         -2   -1    0    0    0  501 -0.00000000000E+00 -0.00000000000E+00 -0.94006397329E+02  0.94006397329E+02  0.00000000000E+00 0.  1.
          2    1    1    2  502    0  0.16195735901E+02 -0.14310439284E+02  0.77854961841E+02  0.80799044655E+02  0.00000000000E+00 0. -1.
         -2    1    1    2    0  502 -0.16195735901E+02  0.14310439284E+02 -0.91272417777E+02  0.93796294068E+02  0.00000000000E+00 0.  1.
<mgrwt>
<rscale>  2 0.21612277E+02</rscale>
<asrwt>0</asrwt>
<pdfrwt beam="1">  1        2 0.12398299E-01 0.21612277E+02</pdfrwt>
<pdfrwt beam="2">  1       -2 0.14462523E-01 0.21612277E+02</pdfrwt>
<totfact> 0.13071285E+04</totfact>
</mgrwt>
</event>
<event>
 4    1  0.1474645E+004  0.2097933E+02  0.7546771E-02  0.1726526E+00
         -2   -1    0    0    0  501 -0.00000000000E+00  0.00000000000E+00  0.31575727729E+03  0.31575727729E+03  0.00000000000E+00 0.  1.
          2   -1    0    0  501    0  0.00000000000E+00 -0.00000000000E+00 -0.35453333326E+02  0.35453333326E+02  0.00000000000E+00 0. -1.
          2    1    1    2  502    0 -0.20974642192E+02 -0.44327924497E+00 -0.31966643536E+02  0.38236087804E+02  0.00000000000E+00 0. -1.
         -2    1    1    2    0  502  0.20974642192E+02  0.44327924497E+00  0.31227058750E+03  0.31297452281E+03  0.00000000000E+00 0.  1.
<mgrwt>
<rscale>  2 0.20979326E+02</rscale>
<asrwt>0</asrwt>
<pdfrwt beam="2">  1        2 0.54543592E-02 0.20979326E+02</pdfrwt>
<pdfrwt beam="1">  1       -2 0.48578041E-01 0.20979326E+02</pdfrwt>
<totfact> 0.43842127E+03</totfact>
</mgrwt>
</event>
<event>
 4    1  0.1474645E+004  0.2118025E+02  0.7546771E-02  0.1722827E+00
          2   -1    0    0  501    0  0.00000000000E+00  0.00000000000E+00  0.11646245627E+03  0.11646245627E+03  0.00000000000E+00 0.  1.
         -2   -1    0    0    0  501 -0.00000000000E+00 -0.00000000000E+00 -0.52305780217E+02  0.52305780217E+02  0.00000000000E+00 0. -1.
          2    1    1    2  502    0  0.21163933824E+02 -0.83124212345E+00  0.11329592910E+03  0.11525871164E+03  0.00000000000E+00 0.  1.
         -2    1    1    2    0  502 -0.21163933824E+02  0.83124212345E+00 -0.49139253052E+02  0.53509524842E+02  0.00000000000E+00 0. -1.
<mgrwt>
<rscale>  2 0.21180252E+02</rscale>
<asrwt>0</asrwt>
<pdfrwt beam="1">  1        2 0.17917301E-01 0.21180252E+02</pdfrwt>
<pdfrwt beam="2">  1       -2 0.80470431E-02 0.21180252E+02</pdfrwt>
<totfact> 0.20939368E+04</totfact>
</mgrwt>
</event>
<event>
 4    1  0.1474645E+004  0.3830661E+02  0.7546771E-02  0.1521056E+00
          2   -1    0    0  501    0  0.00000000000E+00  0.00000000000E+00  0.14673916464E+04  0.14673916464E+04  0.00000000000E+00 0. -1.
         -2   -1    0    0    0  501 -0.00000000000E+00 -0.00000000000E+00 -0.61486874878E+01  0.61486874878E+01  0.00000000000E+00 0.  1.
          2    1    1    2  502    0 -0.31737184685E+02 -0.21451053575E+02  0.14048217866E+04  0.14053439610E+04  0.00000000000E+00 0. -1.
         -2    1    1    2    0  502  0.31737184685E+02  0.21451053575E+02  0.56421172320E+02  0.68196372903E+02  0.00000000000E+00 0.  1.
<mgrwt>
<rscale>  2 0.38306613E+02</rscale>
<asrwt>0</asrwt>
<pdfrwt beam="1">  1        2 0.22575228E+00 0.38306613E+02</pdfrwt>
<pdfrwt beam="2">  1       -2 0.94595309E-03 0.38306613E+02</pdfrwt>
<totfact> 0.27940983E+04</totfact>
</mgrwt>
</event>
<event>
 4    1  0.1474645E+004  0.3975652E+02  0.7546771E-02  0.1510011E+00
         -2   -1    0    0    0  501 -0.00000000000E+00  0.00000000000E+00  0.98081550663E+01  0.98081550663E+01  0.00000000000E+00 0.  1.
          2   -1    0    0  501    0  0.00000000000E+00 -0.00000000000E+00 -0.22502062264E+04  0.22502062264E+04  0.00000000000E+00 0.  1.
          2    1    1    2  502    0 -0.19090938396E+02 -0.34872872532E+02 -0.22089915908E+04  0.22093493226E+04  0.00000000000E+00 0.  1.
         -2    1    1    2    0  502  0.19090938396E+02  0.34872872532E+02 -0.31406480529E+02  0.50665058834E+02  0.00000000000E+00 0.  1.
<mgrwt>
<rscale>  2 0.39756524E+02</rscale>
<asrwt>0</asrwt>
<pdfrwt beam="2">  1        2 0.34618597E+00 0.39756524E+02</pdfrwt>
<pdfrwt beam="1">  1       -2 0.15089452E-02 0.39756524E+02</pdfrwt>
<totfact> 0.61526575E+03</totfact>
</mgrwt>
</event>
<event>
 4    1  0.1474645E+004  0.3185622E+02  0.7546771E-02  0.1578433E+00
          2   -1    0    0  501    0  0.00000000000E+00  0.00000000000E+00  0.27947094461E+02  0.27947094461E+02  0.00000000000E+00 0.  1.
         -2   -1    0    0    0  501 -0.00000000000E+00 -0.00000000000E+00 -0.37861171877E+02  0.37861171877E+02  0.00000000000E+00 0.  1.
          2    1    1    2  502    0 -0.31050754689E+02 -0.71182448837E+01  0.16985082874E+01  0.31901468734E+02  0.00000000000E+00 0.  1.
         -2    1    1    2    0  502  0.31050754689E+02  0.71182448837E+01 -0.11612585703E+02  0.33906797603E+02  0.00000000000E+00 0.  1.
<mgrwt>
<rscale>  2 0.31856220E+02</rscale>
<asrwt>0</asrwt>
<pdfrwt beam="1">  1        2 0.42995530E-02 0.31856220E+02</pdfrwt>
<pdfrwt beam="2">  1       -2 0.58247956E-02 0.31856220E+02</pdfrwt>
<totfact> 0.19426094E+05</totfact>
</mgrwt>
</event>
<event>
 4    1  0.1474645E+004  0.2290792E+02  0.7546771E-02  0.1693007E+00
          2   -1    0    0  501    0  0.00000000000E+00  0.00000000000E+00  0.85249114968E+02  0.85249114968E+02  0.00000000000E+00 0. -1.
         -2   -1    0    0    0  501 -0.00000000000E+00 -0.00000000000E+00 -0.62352959189E+01  0.62352959189E+01  0.00000000000E+00 0. -1.
          2    1    1    2  502    0  0.22685971698E+02  0.31811332297E+01  0.44673162968E+02  0.50204227014E+02  0.00000000000E+00 0. -1.
         -2    1    1    2    0  502 -0.22685971698E+02 -0.31811332297E+01  0.34340656080E+02  0.41280183872E+02  0.00000000000E+00 0. -1.
<mgrwt>
<rscale>  2 0.22907923E+02</rscale>
<asrwt>0</asrwt>
<pdfrwt beam="1">  1        2 0.13115248E-01 0.22907923E+02</pdfrwt>
<pdfrwt beam="2">  1       -2 0.95927636E-03 0.22907923E+02</pdfrwt>
<totfact> 0.57783158E+05</totfact>
</mgrwt>
</event>
<event>
 4    1  0.1474645E+004  0.2234047E+02  0.7546771E-02  0.1702429E+00
         -2   -1    0    0    0  501 -0.00000000000E+00  0.00000000000E+00  0.83715334424E+01  0.83715334424E+01  0.00000000000E+00 0.  1.
          2   -1    0    0  501    0  0.00000000000E+00 -0.00000000000E+00 -0.64984999456E+03  0.64984999456E+03  0.00000000000E+00 0.  1.
          2    1    1    2  502    0 -0.22340013195E+02  0.14220199720E+00 -0.63439031845E+03  0.63478356355E+03  0.00000000000E+00 0.  1.
         -2    1    1    2    0  502  0.22340013195E+02 -0.14220199720E+00 -0.70881426619E+01  0.23437964446E+02  0.00000000000E+00 0.  1.
<mgrwt>
<rscale>  2 0.22340466E+02</rscale>
<asrwt>0</asrwt>
<pdfrwt beam="2">  1        2 0.99976944E-01 0.22340466E+02</pdfrwt>
<pdfrwt beam="1">  1       -2 0.12879279E-02 0.22340466E+02</pdfrwt>
<totfact> 0.48011006E+04</totfact>
</mgrwt>
</event>
<event>
 4    1  0.1474645E+004  0.2033462E+02  0.7546771E-02  0.1738754E+00
         -2   -1    0    0    0  501 -0.00000000000E+00  0.00000000000E+00  0.51373293998E+01  0.51373293998E+01  0.00000000000E+00 0. -1.
          2   -1    0    0  501    0  0.00000000000E+00 -0.00000000000E+00 -0.32857410516E+03  0.32857410516E+03  0.00000000000E+00 0.  1.
          2    1    1    2  502    0  0.19123377187E+02 -0.69132564872E+01 -0.30670405904E+03  0.30737741703E+03  0.00000000000E+00 0.  1.
         -2    1    1    2    0  502 -0.19123377187E+02  0.69132564872E+01 -0.16732716721E+02  0.26334017528E+02  0.00000000000E+00 0. -1.
<mgrwt>
<rscale>  2 0.20334618E+02</rscale>
<asrwt>0</asrwt>
<pdfrwt beam="2">  1        2 0.50549858E-01 0.20334618E+02</pdfrwt>
<pdfrwt beam="1">  1       -2 0.79035844E-03 0.20334618E+02</pdfrwt>
<totfact> 0.17994609E+05</totfact>
</mgrwt>
</event>
<event>
 4    1  0.1474645E+004  0.2605309E+02  0.7546771E-02  0.1646321E+00
         -2   -1    0    0    0  501 -0.00000000000E+00  0.00000000000E+00  0.69867523046E+00  0.69867523046E+00  0.00000000000E+00 0.  1.
          2   -1    0    0  501    0  0.00000000000E+00 -0.00000000000E+00 -0.12998154216E+04  0.12998154216E+04  0.00000000000E+00 0.  1.
          2    1    1    2  502    0  0.24438726567E+02 -0.90284129936E+01 -0.97636382191E+03  0.97671135773E+03  0.00000000000E+00 0.  1.
         -2    1    1    2    0  502 -0.24438726567E+02  0.90284129936E+01 -0.32275292447E+03  0.32380273910E+03  0.00000000000E+00 0.  1.
<mgrwt>
<rscale>  2 0.26053092E+02</rscale>
<asrwt>0</asrwt>
<pdfrwt beam="2">  1        2 0.19997078E+00 0.26053092E+02</pdfrwt>
<pdfrwt beam="1">  1       -2 0.10748894E-03 0.26053092E+02</pdfrwt>
<totfact> 0.59047307E+05</totfact>
</mgrwt>
</event>
<event>
 4    1  0.1474645E+004  0.2699704E+02  0.7546771E-02  0.1633871E+00
          2   -1    0    0  501    0  0.00000000000E+00  0.00000000000E+00  0.10412034026E+04  0.10412034026E+04  0.00000000000E+00 0.  1.
         -2   -1    0    0    0  501 -0.00000000000E+00 -0.00000000000E+00 -0.24358672693E+03  0.24358672693E+03  0.00000000000E+00 0.  1.
          2    1    1    2  502    0 -0.80322013295E+01 -0.25774476706E+02  0.10402797099E+04  0.10406299605E+04  0.00000000000E+00 0.  1.
         -2    1    1    2    0  502  0.80322013295E+01  0.25774476706E+02 -0.24266303427E+03  0.24416016897E+03  0.00000000000E+00 0.  1.
<mgrwt>
<rscale>  2 0.26997035E+02</rscale>
<asrwt>0</asrwt>
<pdfrwt beam="1">  1        2 0.16018514E+00 0.26997035E+02</pdfrwt>
<pdfrwt beam="2">  1       -2 0.37474882E-01 0.26997035E+02</pdfrwt>
<totfact> 0.18484055E+02</totfact>
</mgrwt>
</event>
<event>
 4    1  0.1474645E+004  0.2075676E+02  0.7546771E-02  0.1730685E+00
         -2   -1    0    0    0  501 -0.00000000000E+00  0.00000000000E+00  0.31197986436E+01  0.31197986436E+01  0.00000000000E+00 0. -1.
          2   -1    0    0  501    0  0.00000000000E+00 -0.00000000000E+00 -0.15548609406E+04  0.15548609406E+04  0.00000000000E+00 0.  1.
          2    1    1    2  502    0  0.19349937198E+02  0.75115317844E+01 -0.15194624688E+04  0.15196042371E+04  0.00000000000E+00 0.  1.
         -2    1    1    2    0  502 -0.19349937198E+02 -0.75115317844E+01 -0.32278673133E+02  0.38376502166E+02  0.00000000000E+00 0. -1.
<mgrwt>
<rscale>  2 0.20756762E+02</rscale>
<asrwt>0</asrwt>
<pdfrwt beam="2">  1        2 0.23920953E+00 0.20756762E+02</pdfrwt>
<pdfrwt beam="1">  1       -2 0.47996872E-03 0.20756762E+02</pdfrwt>
<totfact> 0.58205287E+04</totfact>
</mgrwt>
</event>
<event>
 4    1  0.1474645E+004  0.3167414E+02  0.7546771E-02  0.1580288E+00
         -2   -1    0    0    0  501 -0.00000000000E+00  0.00000000000E+00  0.20980749767E+02  0.20980749767E+02  0.00000000000E+00 0.  1.
          2   -1    0    0  501    0  0.00000000000E+00 -0.00000000000E+00 -0.70016468846E+02  0.70016468846E+02  0.00000000000E+00 0. -1.
          2    1    1    2  502    0 -0.48601049109E+01 -0.31299050219E+02 -0.50136877640E+02  0.59303943071E+02  0.00000000000E+00 0. -1.
         -2    1    1    2    0  502  0.48601049109E+01  0.31299050219E+02  0.11011585598E+01  0.31693275541E+02  0.00000000000E+00 0.  1.
<mgrwt>
<rscale>  2 0.31674140E+02</rscale>
<asrwt>0</asrwt>
<pdfrwt beam="2">  1        2 0.10771764E-01 0.31674140E+02</pdfrwt>
<pdfrwt beam="1">  1       -2 0.32278076E-02 0.31674140E+02</pdfrwt>
<totfact> 0.14848118E+05</totfact>
</mgrwt>
</event>
<event>
 4    1  0.1474645E+004  0.2581864E+02  0.7546771E-02  0.1649514E+00
         -2   -1    0    0    0  501 -0.00000000000E+00  0.00000000000E+00  0.88748047993E+01  0.88748047993E+01  0.00000000000E+00 0.  1.
          2   -1    0    0  501    0  0.00000000000E+00 -0.00000000000E+00 -0.10136478950E+03  0.10136478950E+03  0.00000000000E+00 0. -1.
          2    1    1    2  502    0  0.24497072706E+02 -0.81544977272E+01 -0.74296330251E+02  0.78654606306E+02  0.00000000000E+00 0. -1.
         -2    1    1    2    0  502 -0.24497072706E+02  0.81544977272E+01 -0.18193654451E+02  0.31584987995E+02  0.00000000000E+00 0.  1.
<mgrwt>
<rscale>  2 0.25818645E+02</rscale>
<asrwt>0</asrwt>
<pdfrwt beam="2">  1        2 0.15594584E-01 0.25818645E+02</pdfrwt>
<pdfrwt beam="1">  1       -2 0.13653545E-02 0.25818645E+02</pdfrwt>
<totfact> 0.30603048E+05</totfact>
</mgrwt>
</event>
<event>
 4    1  0.1474645E+004  0.2024770E+02  0.7546771E-02  0.1740447E+00
          2   -1    0    0  501    0  0.00000000000E+00  0.00000000000E+00  0.54096617072E+03  0.54096617072E+03  0.00000000000E+00 0.  1.
         -2   -1    0    0    0  501 -0.00000000000E+00 -0.00000000000E+00 -0.12527271786E+01  0.12527271786E+01  0.00000000000E+00 0.  1.
          2    1    1    2  502    0  0.98534920361E+01  0.17688362765E+02  0.44025551738E+03  0.44072087546E+03  0.00000000000E+00 0.  1.
         -2    1    1    2    0  502 -0.98534920361E+01 -0.17688362765E+02  0.99457926161E+02  0.10149802244E+03  0.00000000000E+00 0.  1.
<mgrwt>
<rscale>  2 0.20247703E+02</rscale>
<asrwt>0</asrwt>
<pdfrwt beam="1">  1        2 0.83225379E-01 0.20247703E+02</pdfrwt>
<pdfrwt beam="2">  1       -2 0.19272769E-03 0.20247703E+02</pdfrwt>
<totfact> 0.71580204E+05</totfact>
</mgrwt>
</event>
<event>
 4    1  0.1474645E+004  0.2143789E+02  0.7546771E-02  0.1718159E+00
          2   -1    0    0  501    0  0.00000000000E+00  0.00000000000E+00  0.99506376033E+03  0.99506376033E+03  0.00000000000E+00 0.  1.
         -2   -1    0    0    0  501 -0.00000000000E+00 -0.00000000000E+00 -0.93028936279E+00  0.93028936279E+00  0.00000000000E+00 0.  1.
          2    1    1    2  502    0 -0.16723657194E+02 -0.13412777289E+02  0.85044375660E+03  0.85071391575E+03  0.00000000000E+00 0.  1.
         -2    1    1    2    0  502  0.16723657194E+02  0.13412777289E+02  0.14368971436E+03  0.14528013394E+03  0.00000000000E+00 0.  1.
<mgrwt>
<rscale>  2 0.21437894E+02</rscale>
<asrwt>0</asrwt>
<pdfrwt beam="1">  1        2 0.15308588E+00 0.21437894E+02</pdfrwt>
<pdfrwt beam="2">  1       -2 0.14312224E-03 0.21437894E+02</pdfrwt>
<totfact> 0.54996543E+05</totfact>
</mgrwt>
</event>
<event>
 4    1  0.1474645E+004  0.2027011E+02  0.7546771E-02  0.1740009E+00
         -2   -1    0    0    0  501 -0.00000000000E+00  0.00000000000E+00  0.12927033148E+02  0.12927033148E+02  0.00000000000E+00 0.  1.
          2   -1    0    0  501    0  0.00000000000E+00 -0.00000000000E+00 -0.12273965116E+04  0.12273965116E+04  0.00000000000E+00 0. -1.
          2    1    1    2  502    0  0.64743720056E+01  0.19208331101E+02 -0.12193140643E+04  0.12194825398E+04  0.00000000000E+00 0. -1.
         -2    1    1    2    0  502 -0.64743720056E+01 -0.19208331101E+02  0.48445858226E+01  0.20841004975E+02  0.00000000000E+00 0.  1.
<mgrwt>
<rscale>  2 0.20270113E+02</rscale>
<asrwt>0</asrwt>
<pdfrwt beam="2">  1        2 0.18883034E+00 0.20270113E+02</pdfrwt>
<pdfrwt beam="1">  1       -2 0.19887732E-02 0.20270113E+02</pdfrwt>
<totfact> 0.12248527E+04</totfact>
</mgrwt>
</event>
<event>
 4    1  0.1474645E+004  0.3028749E+02  0.7546771E-02  0.1594932E+00
          2   -1    0    0  501    0  0.00000000000E+00  0.00000000000E+00  0.70590842589E+03  0.70590842589E+03  0.00000000000E+00 0. -1.
         -2   -1    0    0    0  501 -0.00000000000E+00 -0.00000000000E+00 -0.22675673367E+01  0.22675673367E+01  0.00000000000E+00 0.  1.
          2    1    1    2  502    0 -0.15224434638E+02 -0.26182988086E+02  0.58317737018E+03  0.58396333563E+03  0.00000000000E+00 0. -1.
         -2    1    1    2    0  502  0.15224434638E+02  0.26182988086E+02  0.12046348838E+03  0.12421265760E+03  0.00000000000E+00 0.  1.
<mgrwt>
<rscale>  2 0.30287494E+02</rscale>
<asrwt>0</asrwt>
<pdfrwt beam="1">  1        2 0.10860112E+00 0.30287494E+02</pdfrwt>
<pdfrwt beam="2">  1       -2 0.34885708E-03 0.30287494E+02</pdfrwt>
<totfact> 0.27393244E+05</totfact>
</mgrwt>
</event>
<event>
 4    1  0.1474645E+004  0.2589670E+02  0.7546771E-02  0.1648447E+00
          2   -1    0    0  501    0  0.00000000000E+00  0.00000000000E+00  0.60218199362E+02  0.60218199362E+02  0.00000000000E+00 0. -1.
         -2   -1    0    0    0  501 -0.00000000000E+00 -0.00000000000E+00 -0.71783593340E+02  0.71783593340E+02  0.00000000000E+00 0. -1.
          2    1    1    2  502    0  0.25726841338E+02 -0.29611657560E+01  0.54882709060E+02  0.60685670645E+02  0.00000000000E+00 0. -1.
         -2    1    1    2    0  502 -0.25726841338E+02  0.29611657560E+01 -0.66448103038E+02  0.71316122057E+02  0.00000000000E+00 0. -1.
<mgrwt>
<rscale>  2 0.25896696E+02</rscale>
<asrwt>0</asrwt>
<pdfrwt beam="1">  1        2 0.92643384E-02 0.25896696E+02</pdfrwt>
<pdfrwt beam="2">  1       -2 0.11043630E-01 0.25896696E+02</pdfrwt>
<totfact> 0.28442375E+04</totfact>
</mgrwt>
</event>
<event>
 4    1  0.1474645E+004  0.2778611E+02  0.7546771E-02  0.1623934E+00
          2   -1    0    0  501    0  0.00000000000E+00  0.00000000000E+00  0.20309745857E+04  0.20309745857E+04  0.00000000000E+00 0.  1.
         -2   -1    0    0    0  501 -0.00000000000E+00 -0.00000000000E+00 -0.98726752519E+00  0.98726752519E+00  0.00000000000E+00 0.  1.
          2    1    1    2  502    0  0.21583325656E+02 -0.17499374428E+02  0.18117136885E+04  0.18119267527E+04  0.00000000000E+00 0.  1.
         -2    1    1    2    0  502 -0.21583325656E+02  0.17499374428E+02  0.21827362969E+03  0.22003510054E+03  0.00000000000E+00 0.  1.
<mgrwt>
<rscale>  2 0.27786113E+02</rscale>
<asrwt>0</asrwt>
<pdfrwt beam="1">  1        2 0.31245428E+00 0.27786113E+02</pdfrwt>
<pdfrwt beam="2">  1       -2 0.15188894E-03 0.27786113E+02</pdfrwt>
<totfact> 0.17041568E+05</totfact>
</mgrwt>
</event>
<event>
 4    1  0.1474645E+004  0.2307605E+02  0.7546771E-02  0.1690280E+00
          2   -1    0    0  501    0  0.00000000000E+00  0.00000000000E+00  0.46466017724E+03  0.46466017724E+03  0.00000000000E+00 0.  1.
         -2   -1    0    0    0  501 -0.00000000000E+00 -0.00000000000E+00 -0.22888313910E+01  0.22888313910E+01  0.00000000000E+00 0. -1.
          2    1    1    2  502    0 -0.12213290140E+02  0.19579060143E+02  0.39616222211E+03  0.39683373128E+03  0.00000000000E+00 0.  1.
         -2    1    1    2    0  502  0.12213290140E+02 -0.19579060143E+02  0.66209123741E+02  0.70115277355E+02  0.00000000000E+00 0. -1.
<mgrwt>
<rscale>  2 0.23076049E+02</rscale>
<asrwt>0</asrwt>
<pdfrwt beam="1">  1        2 0.71486106E-01 0.23076049E+02</pdfrwt>
<pdfrwt beam="2">  1       -2 0.35212828E-03 0.23076049E+02</pdfrwt>
<totfact> 0.39028765E+05</totfact>
</mgrwt>
</event>
<event>
 4    1  0.1474645E+004  0.2559391E+02  0.7546771E-02  0.1652615E+00
         -2   -1    0    0    0  501 -0.00000000000E+00  0.00000000000E+00  0.37229683850E+01  0.37229683850E+01  0.00000000000E+00 0.  1.
          2   -1    0    0  501    0  0.00000000000E+00 -0.00000000000E+00 -0.36970354257E+03  0.36970354257E+03  0.00000000000E+00 0. -1.
          2    1    1    2  502    0 -0.72966083569E+01  0.24531769023E+02 -0.31815882315E+03  0.31918659893E+03  0.00000000000E+00 0. -1.
         -2    1    1    2    0  502  0.72966083569E+01 -0.24531769023E+02 -0.47821751030E+02  0.54239912025E+02  0.00000000000E+00 0.  1.
<mgrwt>
<rscale>  2 0.25593909E+02</rscale>
<asrwt>0</asrwt>
<pdfrwt beam="2">  1        2 0.56877451E-01 0.25593909E+02</pdfrwt>
<pdfrwt beam="1">  1       -2 0.57276453E-03 0.25593909E+02</pdfrwt>
<totfact> 0.26250472E+05</totfact>
</mgrwt>
</event>
<event>
 4    1  0.1474645E+004  0.3415514E+02  0.7546771E-02  0.1556234E+00
         -2   -1    0    0    0  501 -0.00000000000E+00  0.00000000000E+00  0.57331255047E+01  0.57331255047E+01  0.00000000000E+00 0. -1.
          2   -1    0    0  501    0  0.00000000000E+00 -0.00000000000E+00 -0.10849591714E+04  0.10849591714E+04  0.00000000000E+00 0.  1.
          2    1    1    2  502    0 -0.27125283989E+02 -0.20755543615E+02 -0.10311675479E+04  0.10317330495E+04  0.00000000000E+00 0.  1.
         -2    1    1    2    0  502  0.27125283989E+02  0.20755543615E+02 -0.48058497958E+02  0.58959247351E+02  0.00000000000E+00 0. -1.
<mgrwt>
<rscale>  2 0.34155140E+02</rscale>
<asrwt>0</asrwt>
<pdfrwt beam="2">  1        2 0.16691668E+00 0.34155140E+02</pdfrwt>
<pdfrwt beam="1">  1       -2 0.88201993E-03 0.34155140E+02</pdfrwt>
<totfact> 0.47370773E+04</totfact>
</mgrwt>
</event>
<event>
 4    1  0.1474645E+004  0.2486212E+02  0.7546771E-02  0.1662990E+00
         -2   -1    0    0    0  501 -0.00000000000E+00  0.00000000000E+00  0.77925380806E+02  0.77925380806E+02  0.00000000000E+00 0. -1.
          2   -1    0    0  501    0  0.00000000000E+00 -0.00000000000E+00 -0.12736212566E+03  0.12736212566E+03  0.00000000000E+00 0. -1.
          2    1    1    2  502    0  0.20530968424E+02  0.14021558422E+02 -0.12411435642E+03  0.12658000724E+03  0.00000000000E+00 0. -1.
         -2    1    1    2    0  502 -0.20530968424E+02 -0.14021558422E+02  0.74677611564E+02  0.78707499222E+02  0.00000000000E+00 0. -1.
<mgrwt>
<rscale>  2 0.24862115E+02</rscale>
<asrwt>0</asrwt>
<pdfrwt beam="2">  1        2 0.19594173E-01 0.24862115E+02</pdfrwt>
<pdfrwt beam="1">  1       -2 0.11988520E-01 0.24862115E+02</pdfrwt>
<totfact> 0.10810939E+04</totfact>
</mgrwt>
</event>
<event>
 4    1  0.1474645E+004  0.2006409E+02  0.7546771E-02  0.1744057E+00
         -2   -1    0    0    0  501 -0.00000000000E+00  0.00000000000E+00  0.66862458114E+00  0.66862458114E+00  0.00000000000E+00 0. -1.
          2   -1    0    0  501    0  0.00000000000E+00 -0.00000000000E+00 -0.60498096473E+03  0.60498096473E+03  0.00000000000E+00 0.  1.
          2    1    1    2  502    0  0.19983732323E+02  0.17938828296E+01 -0.32311457442E+03  0.32373692372E+03  0.00000000000E+00 0.  1.
         -2    1    1    2    0  502 -0.19983732323E+02 -0.17938828296E+01 -0.28119776573E+03  0.28191266559E+03  0.00000000000E+00 0. -1.
<mgrwt>
<rscale>  2 0.20064087E+02</rscale>
<asrwt>0</asrwt>
<pdfrwt beam="2">  1        2 0.93074429E-01 0.20064087E+02</pdfrwt>
<pdfrwt beam="1">  1       -2 0.10286484E-03 0.20064087E+02</pdfrwt>
<totfact> 0.14512531E+06</totfact>
</mgrwt>
</event>
<event>
 4    1  0.1474645E+004  0.2429903E+02  0.7546771E-02  0.1671279E+00
         -2   -1    0    0    0  501 -0.00000000000E+00  0.00000000000E+00  0.21564572955E+02  0.21564572955E+02  0.00000000000E+00 0. -1.
          2   -1    0    0  501    0  0.00000000000E+00 -0.00000000000E+00 -0.29445071675E+02  0.29445071675E+02  0.00000000000E+00 0. -1.
          2    1    1    2  502    0  0.11340518348E+02 -0.21490355973E+02 -0.10694239193E+02  0.26548248683E+02  0.00000000000E+00 0. -1.
         -2    1    1    2    0  502 -0.11340518348E+02  0.21490355973E+02  0.28137404731E+01  0.24461395947E+02  0.00000000000E+00 0. -1.
<mgrwt>
<rscale>  2 0.24299028E+02</rscale>
<asrwt>0</asrwt>
<pdfrwt beam="2">  1        2 0.45300110E-02 0.24299028E+02</pdfrwt>
<pdfrwt beam="1">  1       -2 0.33176266E-02 0.24299028E+02</pdfrwt>
<totfact> 0.37627872E+05</totfact>
</mgrwt>
</event>
<event>
 4    1  0.1474645E+004  0.2468386E+02  0.7546771E-02  0.1665585E+00
          2   -1    0    0  501    0  0.00000000000E+00  0.00000000000E+00  0.62248173143E+03  0.62248173143E+03  0.00000000000E+00 0. -1.
         -2   -1    0    0    0  501 -0.00000000000E+00 -0.00000000000E+00 -0.56578119280E+01  0.56578119280E+01  0.00000000000E+00 0. -1.
          2    1    1    2  502    0 -0.14860869077E+02  0.19709074945E+02  0.59402522157E+03  0.59453785155E+03  0.00000000000E+00 0. -1.
         -2    1    1    2    0  502  0.14860869077E+02 -0.19709074945E+02  0.22798697931E+02  0.33601691806E+02  0.00000000000E+00 0. -1.
<mgrwt>
<rscale>  2 0.24683862E+02</rscale>
<asrwt>0</asrwt>
<pdfrwt beam="1">  1        2 0.95766366E-01 0.24683862E+02</pdfrwt>
<pdfrwt beam="2">  1       -2 0.87043310E-03 0.24683862E+02</pdfrwt>
<totfact> 0.87201418E+04</totfact>
</mgrwt>
</event>
<event>
 4    1  0.1474645E+004  0.2185085E+02  0.7546771E-02  0.1710844E+00
         -2   -1    0    0    0  501 -0.00000000000E+00  0.00000000000E+00  0.44053897326E+01  0.44053897326E+01  0.00000000000E+00 0.  1.
          2   -1    0    0  501    0  0.00000000000E+00 -0.00000000000E+00 -0.32639002402E+03  0.32639002402E+03  0.00000000000E+00 0.  1.
          2    1    1    2  502    0  0.21011286707E+02 -0.59987875058E+01 -0.29616797450E+03  0.29697294277E+03  0.00000000000E+00 0.  1.
         -2    1    1    2    0  502 -0.21011286707E+02  0.59987875058E+01 -0.25816659796E+02  0.33822470987E+02  0.00000000000E+00 0.  1.
<mgrwt>
<rscale>  2 0.21850849E+02</rscale>
<asrwt>0</asrwt>
<pdfrwt beam="2">  1        2 0.50213836E-01 0.21850849E+02</pdfrwt>
<pdfrwt beam="1">  1       -2 0.67775246E-03 0.21850849E+02</pdfrwt>
<totfact> 0.22695103E+05</totfact>
</mgrwt>
</event>
<event>
 4    1  0.1474645E+004  0.2574361E+02  0.7546771E-02  0.1650545E+00
          2   -1    0    0  501    0  0.00000000000E+00  0.00000000000E+00  0.10424126440E+04  0.10424126440E+04  0.00000000000E+00 0. -1.
         -2   -1    0    0    0  501 -0.00000000000E+00 -0.00000000000E+00 -0.14745855308E+01  0.14745855308E+01  0.00000000000E+00 0. -1.
          2    1    1    2  502    0 -0.25349796278E+02  0.44856572278E+01  0.91412984011E+03  0.91449226233E+03  0.00000000000E+00 0. -1.
         -2    1    1    2    0  502  0.25349796278E+02 -0.44856572278E+01  0.12680821837E+03  0.12939496721E+03  0.00000000000E+00 0. -1.
<mgrwt>
<rscale>  2 0.25743607E+02</rscale>
<asrwt>0</asrwt>
<pdfrwt beam="1">  1        2 0.16037059E+00 0.25743607E+02</pdfrwt>
<pdfrwt beam="2">  1       -2 0.22686015E-03 0.25743607E+02</pdfrwt>
<totfact> 0.29565484E+05</totfact>
</mgrwt>
</event>
<event>
 4    1  0.1474645E+004  0.2205010E+02  0.7546771E-02  0.1707387E+00
         -2   -1    0    0    0  501 -0.00000000000E+00  0.00000000000E+00  0.18021673662E+01  0.18021673662E+01  0.00000000000E+00 0.  1.
          2   -1    0    0  501    0  0.00000000000E+00 -0.00000000000E+00 -0.10824239752E+04  0.10824239752E+04  0.00000000000E+00 0.  1.
          2    1    1    2  502    0  0.13325338200E+02  0.17568217001E+02 -0.10100304609E+04  0.10102711215E+04  0.00000000000E+00 0.  1.
         -2    1    1    2    0  502 -0.13325338200E+02 -0.17568217001E+02 -0.70591346952E+02  0.73955021136E+02  0.00000000000E+00 0.  1.
<mgrwt>
<rscale>  2 0.22050099E+02</rscale>
<asrwt>0</asrwt>
<pdfrwt beam="2">  1        2 0.16652675E+00 0.22050099E+02</pdfrwt>
<pdfrwt beam="1">  1       -2 0.27725654E-03 0.22050099E+02</pdfrwt>
<totfact> 0.20775198E+05</totfact>
</mgrwt>
</event>
<event>
 4    1  0.1474645E+004  0.2224109E+02  0.7546771E-02  0.1704116E+00
          2   -1    0    0  501    0  0.00000000000E+00  0.00000000000E+00  0.15164981293E+04  0.15164981293E+04  0.00000000000E+00 0.  1.
         -2   -1    0    0    0  501 -0.00000000000E+00 -0.00000000000E+00 -0.10902075984E+01  0.10902075984E+01  0.00000000000E+00 0.  1.
          2    1    1    2  502    0  0.18074644034E+02  0.12960446378E+02  0.13929195903E+04  0.13930971434E+04  0.00000000000E+00 0.  1.
         -2    1    1    2    0  502 -0.18074644034E+02 -0.12960446378E+02  0.12248833138E+03  0.12449119347E+03  0.00000000000E+00 0.  1.
<mgrwt>
<rscale>  2 0.22241086E+02</rscale>
<asrwt>0</asrwt>
<pdfrwt beam="1">  1        2 0.23330572E+00 0.22241086E+02</pdfrwt>
<pdfrwt beam="2">  1       -2 0.16772546E-03 0.22241086E+02</pdfrwt>
<totfact> 0.24828851E+05</totfact>
</mgrwt>
</event>
<event>
 4    1  0.1474645E+004  0.2135486E+02  0.7546771E-02  0.1719654E+00
         -2   -1    0    0    0  501 -0.00000000000E+00  0.00000000000E+00  0.27923322420E+01  0.27923322420E+01  0.00000000000E+00 0.  1.
          2   -1    0    0  501    0  0.00000000000E+00 -0.00000000000E+00 -0.20321203571E+03  0.20321203571E+03  0.00000000000E+00 0. -1.
          2    1    1    2  502    0  0.10392027556E+02  0.18655717495E+02 -0.14584941352E+03  0.14740448249E+03  0.00000000000E+00 0. -1.
         -2    1    1    2    0  502 -0.10392027556E+02 -0.18655717495E+02 -0.54570289951E+02  0.58599885472E+02  0.00000000000E+00 0.  1.
<mgrwt>
<rscale>  2 0.21354860E+02</rscale>
<asrwt>0</asrwt>
<pdfrwt beam="2">  1        2 0.31263394E-01 0.21354860E+02</pdfrwt>
<pdfrwt beam="1">  1       -2 0.42958952E-03 0.21354860E+02</pdfrwt>
<totfact> 0.66282598E+05</totfact>
</mgrwt>
</event>
<event>
 4    1  0.1474645E+004  0.2227311E+02  0.7546771E-02  0.1703571E+00
          2   -1    0    0  501    0  0.00000000000E+00  0.00000000000E+00  0.18778586520E+03  0.18778586520E+03  0.00000000000E+00 0. -1.
         -2   -1    0    0    0  501 -0.00000000000E+00 -0.00000000000E+00 -0.28402371065E+01  0.28402371065E+01  0.00000000000E+00 0.  1.
          2    1    1    2  502    0  0.21027152576E+02 -0.73450780333E+01  0.11766666580E+03  0.11975615039E+03  0.00000000000E+00 0. -1.
         -2    1    1    2    0  502 -0.21027152576E+02  0.73450780333E+01  0.67278962295E+02  0.70869951913E+02  0.00000000000E+00 0.  1.
<mgrwt>
<rscale>  2 0.22273107E+02</rscale>
<asrwt>0</asrwt>
<pdfrwt beam="1">  1        2 0.28890123E-01 0.22273107E+02</pdfrwt>
<pdfrwt beam="2">  1       -2 0.43695970E-03 0.22273107E+02</pdfrwt>
<totfact> 0.71125789E+05</totfact>
</mgrwt>
</event>
<event>
 4    1  0.1474645E+004  0.3332190E+02  0.7546771E-02  0.1564028E+00
          2   -1    0    0  501    0  0.00000000000E+00  0.00000000000E+00  0.27423499415E+02  0.27423499415E+02  0.00000000000E+00 0.  1.
         -2   -1    0    0    0  501 -0.00000000000E+00 -0.00000000000E+00 -0.59459947753E+02  0.59459947753E+02  0.00000000000E+00 0.  1.
          2    1    1    2  502    0  0.30045439968E+02  0.14409055786E+02  0.85198005279E+01  0.34393841782E+02  0.00000000000E+00 0.  1.
         -2    1    1    2    0  502 -0.30045439968E+02 -0.14409055786E+02 -0.40556248865E+02  0.52489605386E+02  0.00000000000E+00 0.  1.
<mgrwt>
<rscale>  2 0.33321905E+02</rscale>
<asrwt>0</asrwt>
<pdfrwt beam="1">  1        2 0.42189999E-02 0.33321905E+02</pdfrwt>
<pdfrwt beam="2">  1       -2 0.91476844E-02 0.33321905E+02</pdfrwt>
<totfact> 0.10345366E+05</totfact>
</mgrwt>
</event>
<event>
 4    1  0.1474645E+004  0.2472575E+02  0.7546771E-02  0.1664973E+00
          2   -1    0    0  501    0  0.00000000000E+00  0.00000000000E+00  0.11154473813E+03  0.11154473813E+03  0.00000000000E+00 0. -1.
         -2   -1    0    0    0  501 -0.00000000000E+00 -0.00000000000E+00 -0.59672510876E+02  0.59672510876E+02  0.00000000000E+00 0.  1.
          2    1    1    2  502    0 -0.98830394392E+01 -0.22664692620E+02  0.10751851674E+03  0.11032494823E+03  0.00000000000E+00 0. -1.
         -2    1    1    2    0  502  0.98830394392E+01  0.22664692620E+02 -0.55646289486E+02  0.60892300775E+02  0.00000000000E+00 0.  1.
<mgrwt>
<rscale>  2 0.24725751E+02</rscale>
<asrwt>0</asrwt>
<pdfrwt beam="1">  1        2 0.17160729E-01 0.24725751E+02</pdfrwt>
<pdfrwt beam="2">  1       -2 0.91803863E-02 0.24725751E+02</pdfrwt>
<totfact> 0.18588305E+04</totfact>
</mgrwt>
</event>
<event>
 4    1  0.1474645E+004  0.3260386E+02  0.7546771E-02  0.1570970E+00
          2   -1    0    0  501    0  0.00000000000E+00  0.00000000000E+00  0.19084758077E+04  0.19084758077E+04  0.00000000000E+00 0.  1.
         -2   -1    0    0    0  501 -0.00000000000E+00 -0.00000000000E+00 -0.81770840860E+01  0.81770840860E+01  0.00000000000E+00 0.  1.
          2    1    1    2  502    0  0.31801945182E+02 -0.71866350227E+01  0.18752612591E+04  0.18755446679E+04  0.00000000000E+00 0.  1.
         -2    1    1    2    0  502 -0.31801945182E+02  0.71866350227E+01  0.25037464491E+02  0.41108223854E+02  0.00000000000E+00 0.  1.
<mgrwt>
<rscale>  2 0.32603856E+02</rscale>
<asrwt>0</asrwt>
<pdfrwt beam="1">  1        2 0.29361131E+00 0.32603856E+02</pdfrwt>
<pdfrwt beam="2">  1       -2 0.12580145E-02 0.32603856E+02</pdfrwt>
<totfact> 0.11418052E+04</totfact>
</mgrwt>
</event>
<event>
 4    1  0.1474645E+004  0.2960007E+02  0.7546771E-02  0.1602552E+00
          2   -1    0    0  501    0  0.00000000000E+00  0.00000000000E+00  0.10671422559E+02  0.10671422559E+02  0.00000000000E+00 0.  1.
         -2   -1    0    0    0  501 -0.00000000000E+00 -0.00000000000E+00 -0.21550399806E+03  0.21550399806E+03  0.00000000000E+00 0. -1.
          2    1    1    2  502    0 -0.24777438173E+02 -0.16193913671E+02 -0.13441698522E+02  0.32509130127E+02  0.00000000000E+00 0.  1.
         -2    1    1    2    0  502  0.24777438173E+02  0.16193913671E+02 -0.19139087697E+03  0.19366629049E+03  0.00000000000E+00 0. -1.
<mgrwt>
<rscale>  2 0.29600072E+02</rscale>
<asrwt>0</asrwt>
<pdfrwt beam="1">  1        2 0.16417573E-02 0.29600072E+02</pdfrwt>
<pdfrwt beam="2">  1       -2 0.33154461E-01 0.29600072E+02</pdfrwt>
<totfact> 0.42661946E+04</totfact>
</mgrwt>
</event>
<event>
 4    1  0.1474645E+004  0.2016198E+02  0.7546771E-02  0.1742126E+00
         -2   -1    0    0    0  501 -0.00000000000E+00  0.00000000000E+00  0.25520170975E+03  0.25520170975E+03  0.00000000000E+00 0.  1.
          2   -1    0    0  501    0  0.00000000000E+00 -0.00000000000E+00 -0.72859245604E+01  0.72859245604E+01  0.00000000000E+00 0. -1.
          2    1    1    2  502    0 -0.63918466464E+01 -0.19121966869E+02  0.79443025595E+01  0.21670654435E+02  0.00000000000E+00 0. -1.
         -2    1    1    2    0  502  0.63918466464E+01  0.19121966869E+02  0.23997148263E+03  0.24081697987E+03  0.00000000000E+00 0.  1.
<mgrwt>
<rscale>  2 0.20161977E+02</rscale>
<asrwt>0</asrwt>
<pdfrwt beam="2">  1        2 0.11209117E-02 0.20161977E+02</pdfrwt>
<pdfrwt beam="1">  1       -2 0.39261795E-01 0.20161977E+02</pdfrwt>
<totfact> 0.47256673E+04</totfact>
</mgrwt>
</event>
<event>
 4    1  0.1474645E+004  0.5959488E+02  0.7546771E-02  0.1399540E+00
         -2   -1    0    0    0  501 -0.00000000000E+00  0.00000000000E+00  0.35461165226E+01  0.35461165226E+01  0.00000000000E+00 0.  1.
          2   -1    0    0  501    0  0.00000000000E+00 -0.00000000000E+00 -0.10763834942E+04  0.10763834942E+04  0.00000000000E+00 0.  1.
          2    1    1    2  502    0  0.20870261992E+02  0.55820981108E+02 -0.67880941008E+03  0.68142040253E+03  0.00000000000E+00 0.  1.
         -2    1    1    2    0  502 -0.20870261992E+02 -0.55820981108E+02 -0.39402796760E+03  0.39850920820E+03  0.00000000000E+00 0.  1.
<mgrwt>
<rscale>  2 0.59594880E+02</rscale>
<asrwt>0</asrwt>
<pdfrwt beam="2">  1        2 0.16559753E+00 0.59594880E+02</pdfrwt>
<pdfrwt beam="1">  1       -2 0.54555615E-03 0.59594880E+02</pdfrwt>
<totfact> 0.10092218E+05</totfact>
</mgrwt>
</event>
<event>
 4    1  0.1474645E+004  0.2299837E+02  0.7546771E-02  0.1691536E+00
          2   -1    0    0  501    0  0.00000000000E+00  0.00000000000E+00  0.58368554952E+03  0.58368554952E+03  0.00000000000E+00 0. -1.
         -2   -1    0    0    0  501 -0.00000000000E+00 -0.00000000000E+00 -0.63314057331E+03  0.63314057331E+03  0.00000000000E+00 0.  1.
          2    1    1    2  502    0 -0.22800000760E+02  0.30141616220E+01  0.58324999835E+03  0.58370325147E+03  0.00000000000E+00 0. -1.
         -2    1    1    2    0  502  0.22800000760E+02 -0.30141616220E+01 -0.63270502214E+03  0.63312287136E+03  0.00000000000E+00 0.  1.
<mgrwt>
<rscale>  2 0.22998374E+02</rscale>
<asrwt>0</asrwt>
<pdfrwt beam="1">  1        2 0.89797777E-01 0.22998374E+02</pdfrwt>
<pdfrwt beam="2">  1       -2 0.97406242E-01 0.22998374E+02</pdfrwt>
<totfact> 0.53657299E+01</totfact>
</mgrwt>
</event>
<event>
 4    1  0.1474645E+004  0.2149724E+02  0.7546771E-02  0.1717095E+00
         -2   -1    0    0    0  501 -0.00000000000E+00  0.00000000000E+00  0.12631220600E+02  0.12631220600E+02  0.00000000000E+00 0. -1.
          2   -1    0    0  501    0  0.00000000000E+00 -0.00000000000E+00 -0.63708381263E+02  0.63708381263E+02  0.00000000000E+00 0. -1.
          2    1    1    2  502    0 -0.10270582094E+02 -0.18885087962E+02 -0.50443319027E+02  0.54833017776E+02  0.00000000000E+00 0. -1.
         -2    1    1    2    0  502  0.10270582094E+02  0.18885087962E+02 -0.63384163575E+00  0.21506584087E+02  0.00000000000E+00 0. -1.
<mgrwt>
<rscale>  2 0.21497242E+02</rscale>
<asrwt>0</asrwt>
<pdfrwt beam="2">  1        2 0.98012895E-02 0.21497242E+02</pdfrwt>
<pdfrwt beam="1">  1       -2 0.19432647E-02 0.21497242E+02</pdfrwt>
<totfact> 0.30202954E+05</totfact>
</mgrwt>
</event>
<event>
 4    1  0.1474645E+004  0.2235312E+02  0.7546771E-02  0.1702216E+00
          2   -1    0    0  501    0  0.00000000000E+00  0.00000000000E+00  0.16697357293E+04  0.16697357293E+04  0.00000000000E+00 0.  1.
         -2   -1    0    0    0  501 -0.00000000000E+00 -0.00000000000E+00 -0.17917105945E+01  0.17917105945E+01  0.00000000000E+00 0.  1.
          2    1    1    2  502    0  0.21304931430E+02  0.67647527791E+01  0.15967560205E+04  0.15969124744E+04  0.00000000000E+00 0.  1.
         -2    1    1    2    0  502 -0.21304931430E+02 -0.67647527791E+01  0.71187998276E+02  0.74614965536E+02  0.00000000000E+00 0.  1.
<mgrwt>
<rscale>  2 0.22353120E+02</rscale>
<asrwt>0</asrwt>
<pdfrwt beam="1">  1        2 0.25688118E+00 0.22353120E+02</pdfrwt>
<pdfrwt beam="2">  1       -2 0.27564912E-03 0.22353120E+02</pdfrwt>
<totfact> 0.10917671E+05</totfact>
</mgrwt>
</event>
<event>
 4    1  0.1474645E+004  0.2451234E+02  0.7546771E-02  0.1668107E+00
          2   -1    0    0  501    0  0.00000000000E+00  0.00000000000E+00  0.16691755813E+04  0.16691755813E+04  0.00000000000E+00 0. -1.
         -2   -1    0    0    0  501 -0.00000000000E+00 -0.00000000000E+00 -0.36303749441E+02  0.36303749441E+02  0.00000000000E+00 0. -1.
          2    1    1    2  502    0 -0.17408081802E+02  0.17257273929E+02  0.16649373652E+04  0.16651177990E+04  0.00000000000E+00 0. -1.
         -2    1    1    2    0  502  0.17408081802E+02 -0.17257273929E+02 -0.32065533294E+02  0.40361531697E+02  0.00000000000E+00 0. -1.
<mgrwt>
<rscale>  2 0.24512340E+02</rscale>
<asrwt>0</asrwt>
<pdfrwt beam="1">  1        2 0.25679618E+00 0.24512340E+02</pdfrwt>
<pdfrwt beam="2">  1       -2 0.55851935E-02 0.24512340E+02</pdfrwt>
<totfact> 0.18137633E+03</totfact>
</mgrwt>
</event>
<event>
 4    1  0.1474645E+004  0.4734546E+02  0.7546771E-02  0.1460209E+00
          2   -1    0    0  501    0  0.00000000000E+00  0.00000000000E+00  0.10535834270E+04  0.10535834270E+04  0.00000000000E+00 0.  1.
         -2   -1    0    0    0  501 -0.00000000000E+00 -0.00000000000E+00 -0.39274795618E+01  0.39274795618E+01  0.00000000000E+00 0.  1.
          2    1    1    2  502    0  0.32777863680E+02 -0.34164369758E+02  0.88277679992E+03  0.88404551409E+03  0.00000000000E+00 0.  1.
         -2    1    1    2    0  502 -0.32777863680E+02  0.34164369758E+02  0.16687914751E+03  0.17346539246E+03  0.00000000000E+00 0.  1.
<mgrwt>
<rscale>  2 0.47345459E+02</rscale>
<asrwt>0</asrwt>
<pdfrwt beam="1">  1        2 0.16208953E+00 0.47345459E+02</pdfrwt>
<pdfrwt beam="2">  1       -2 0.60422846E-03 0.47345459E+02</pdfrwt>
<totfact> 0.87128151E+04</totfact>
</mgrwt>
</event>
<event>
 4    1  0.1474645E+004  0.3176048E+02  0.7546771E-02  0.1579406E+00
          2   -1    0    0  501    0  0.00000000000E+00  0.00000000000E+00  0.88777761668E+03  0.88777761668E+03  0.00000000000E+00 0. -1.
         -2   -1    0    0    0  501 -0.00000000000E+00 -0.00000000000E+00 -0.13930012250E+01  0.13930012250E+01  0.00000000000E+00 0. -1.
          2    1    1    2  502    0  0.21070958567E+02  0.23764314438E+02  0.63406533328E+03  0.63486027975E+03  0.00000000000E+00 0. -1.
         -2    1    1    2    0  502 -0.21070958567E+02 -0.23764314438E+02  0.25231928218E+03  0.25431033816E+03  0.00000000000E+00 0. -1.
<mgrwt>
<rscale>  2 0.31760478E+02</rscale>
<asrwt>0</asrwt>
<pdfrwt beam="1">  1        2 0.13658072E+00 0.31760478E+02</pdfrwt>
<pdfrwt beam="2">  1       -2 0.21430859E-03 0.31760478E+02</pdfrwt>
<totfact> 0.40980158E+05</totfact>
</mgrwt>
</event>
<event>
 4    1  0.1474645E+004  0.2000473E+02  0.7546771E-02  0.1745234E+00
          2   -1    0    0  501    0  0.00000000000E+00  0.00000000000E+00  0.56436125162E+03  0.56436125162E+03  0.00000000000E+00 0.  1.
         -2   -1    0    0    0  501 -0.00000000000E+00 -0.00000000000E+00 -0.18209697538E+01  0.18209697538E+01  0.00000000000E+00 0.  1.
          2    1    1    2  502    0  0.20003610900E+02  0.21202560423E+00  0.50247849969E+03  0.50287655747E+03  0.00000000000E+00 0.  1.
         -2    1    1    2    0  502 -0.20003610900E+02 -0.21202560423E+00  0.60061782177E+02  0.63305663903E+02  0.00000000000E+00 0.  1.
<mgrwt>
<rscale>  2 0.20004735E+02</rscale>
<asrwt>0</asrwt>
<pdfrwt beam="1">  1        2 0.86824668E-01 0.20004735E+02</pdfrwt>
<pdfrwt beam="2">  1       -2 0.28014964E-03 0.20004735E+02</pdfrwt>
<totfact> 0.41688883E+05</totfact>
</mgrwt>
</event>
<event>
 4    1  0.1474645E+004  0.2614551E+02  0.7546771E-02  0.1645074E+00
         -2   -1    0    0    0  501 -0.00000000000E+00  0.00000000000E+00  0.16379959132E+02  0.16379959132E+02  0.00000000000E+00 0.  1.
          2   -1    0    0  501    0  0.00000000000E+00 -0.00000000000E+00 -0.15067106846E+04  0.15067106846E+04  0.00000000000E+00 0. -1.
          2    1    1    2  502    0 -0.18583313011E+02  0.18391521272E+02 -0.14960899083E+04  0.14963183490E+04  0.00000000000E+00 0. -1.
         -2    1    1    2    0  502  0.18583313011E+02 -0.18391521272E+02  0.57591829205E+01  0.26772294730E+02  0.00000000000E+00 0.  1.
<mgrwt>
<rscale>  2 0.26145508E+02</rscale>
<asrwt>0</asrwt>
<pdfrwt beam="2">  1        2 0.23180168E+00 0.26145508E+02</pdfrwt>
<pdfrwt beam="1">  1       -2 0.25199933E-02 0.26145508E+02</pdfrwt>
<totfact> 0.66558614E+03</totfact>
</mgrwt>
</event>
<event>
 4    1  0.1474645E+004  0.4617324E+02  0.7546771E-02  0.1467147E+00
          2   -1    0    0  501    0  0.00000000000E+00  0.00000000000E+00  0.34125603420E+04  0.34125603420E+04  0.00000000000E+00 0.  1.
         -2   -1    0    0    0  501 -0.00000000000E+00 -0.00000000000E+00 -0.24256817145E+01  0.24256817145E+01  0.00000000000E+00 0.  1.
          2    1    1    2  502    0  0.11768645365E+02  0.44648263051E+02  0.31763349050E+04  0.31766704892E+04  0.00000000000E+00 0.  1.
         -2    1    1    2    0  502 -0.11768645365E+02 -0.44648263051E+02  0.23379975538E+03  0.23831553458E+03  0.00000000000E+00 0.  1.
<mgrwt>
<rscale>  2 0.46173243E+02</rscale>
<asrwt>0</asrwt>
<pdfrwt beam="1">  1        2 0.52500544E+00 0.46173243E+02</pdfrwt>
<pdfrwt beam="2">  1       -2 0.37318453E-03 0.46173243E+02</pdfrwt>
<totfact> 0.10044348E+04</totfact>
</mgrwt>
</event>
<event>
 4    1  0.1474645E+004  0.5221470E+02  0.7546771E-02  0.1433749E+00
         -2   -1    0    0    0  501 -0.00000000000E+00  0.00000000000E+00  0.72463687168E+01  0.72463687168E+01  0.00000000000E+00 0. -1.
          2   -1    0    0  501    0  0.00000000000E+00 -0.00000000000E+00 -0.71019970201E+03  0.71019970201E+03  0.00000000000E+00 0.  1.
          2    1    1    2  502    0 -0.30988892485E+02 -0.42024554815E+02 -0.59746582958E+03  0.59974310516E+03  0.00000000000E+00 0.  1.
         -2    1    1    2    0  502  0.30988892485E+02  0.42024554815E+02 -0.10548750371E+03  0.11770296557E+03  0.00000000000E+00 0. -1.
<mgrwt>
<rscale>  2 0.52214698E+02</rscale>
<asrwt>0</asrwt>
<pdfrwt beam="2">  1        2 0.10926153E+00 0.52214698E+02</pdfrwt>
<pdfrwt beam="1">  1       -2 0.11148256E-02 0.52214698E+02</pdfrwt>
<totfact> 0.61448573E+04</totfact>
</mgrwt>
</event>
<event>
 4    1  0.1474645E+004  0.2430469E+02  0.7546771E-02  0.1671194E+00
          2   -1    0    0  501    0  0.00000000000E+00  0.00000000000E+00  0.21593244921E+04  0.21593244921E+04  0.00000000000E+00 0. -1.
         -2   -1    0    0    0  501 -0.00000000000E+00 -0.00000000000E+00 -0.28746414530E+00  0.28746414530E+00  0.00000000000E+00 0. -1.
          2    1    1    2  502    0  0.20410466428E+02 -0.13195866722E+02  0.13169456338E+04  0.13171698905E+04  0.00000000000E+00 0. -1.
         -2    1    1    2    0  502 -0.20410466428E+02  0.13195866722E+02  0.84209139412E+03  0.84244206572E+03  0.00000000000E+00 0. -1.
<mgrwt>
<rscale>  2 0.24304692E+02</rscale>
<asrwt>0</asrwt>
<pdfrwt beam="1">  1        2 0.33219078E+00 0.24304692E+02</pdfrwt>
<pdfrwt beam="2">  1       -2 0.44226982E-04 0.24304692E+02</pdfrwt>
<totfact> 0.73504871E+05</totfact>
</mgrwt>
</event>
<event>
 4    1  0.1474645E+004  0.2294486E+02  0.7546771E-02  0.1692405E+00
          2   -1    0    0  501    0  0.00000000000E+00  0.00000000000E+00  0.35141718615E+02  0.35141718615E+02  0.00000000000E+00 0. -1.
         -2   -1    0    0    0  501 -0.00000000000E+00 -0.00000000000E+00 -0.22699588339E+02  0.22699588339E+02  0.00000000000E+00 0. -1.
          2    1    1    2  502    0 -0.13387950878E+02  0.18634091431E+02  0.23085090294E+02  0.32548240906E+02  0.00000000000E+00 0. -1.
         -2    1    1    2    0  502  0.13387950878E+02 -0.18634091431E+02 -0.10642960018E+02  0.25293066048E+02  0.00000000000E+00 0. -1.
<mgrwt>
<rscale>  2 0.22944860E+02</rscale>
<asrwt>0</asrwt>
<pdfrwt beam="1">  1        2 0.54064182E-02 0.22944860E+02</pdfrwt>
<pdfrwt beam="2">  1       -2 0.34922444E-02 0.22944860E+02</pdfrwt>
<totfact> 0.27718511E+05</totfact>
</mgrwt>
</event>
<event>
 4    1  0.1474645E+004  0.3797263E+02  0.7546771E-02  0.1523684E+00
          2   -1    0    0  501    0  0.00000000000E+00  0.00000000000E+00  0.51890475885E+02  0.51890475885E+02  0.00000000000E+00 0.  1.
         -2   -1    0    0    0  501 -0.00000000000E+00 -0.00000000000E+00 -0.82735406997E+02  0.82735406997E+02  0.00000000000E+00 0.  1.
          2    1    1    2  502    0 -0.17484073157E+02 -0.33707980582E+02  0.39433941993E+02  0.54744465932E+02  0.00000000000E+00 0.  1.
         -2    1    1    2    0  502  0.17484073157E+02  0.33707980582E+02 -0.70278873105E+02  0.79881416950E+02  0.00000000000E+00 0.  1.
<mgrwt>
<rscale>  2 0.37972632E+02</rscale>
<asrwt>0</asrwt>
<pdfrwt beam="1">  1        2 0.79831502E-02 0.37972632E+02</pdfrwt>
<pdfrwt beam="2">  1       -2 0.12728524E-01 0.37972632E+02</pdfrwt>
<totfact> 0.29259056E+04</totfact>
</mgrwt>
</event>
<event>
 4    1  0.1474645E+004  0.2389356E+02  0.7546771E-02  0.1677422E+00
          2   -1    0    0  501    0  0.00000000000E+00  0.00000000000E+00  0.51172005627E+03  0.51172005627E+03  0.00000000000E+00 0. -1.
         -2   -1    0    0    0  501 -0.00000000000E+00 -0.00000000000E+00 -0.11278284912E+01  0.11278284912E+01  0.00000000000E+00 0.  1.
          2    1    1    2  502    0 -0.93390303637E+00  0.23875300065E+02  0.28193870010E+03  0.28294934660E+03  0.00000000000E+00 0. -1.
         -2    1    1    2    0  502  0.93390303637E+00 -0.23875300065E+02  0.22865352768E+03  0.22989853816E+03  0.00000000000E+00 0.  1.
<mgrwt>
<rscale>  2 0.23893558E+02</rscale>
<asrwt>0</asrwt>
<pdfrwt beam="1">  1        2 0.78725977E-01 0.23893558E+02</pdfrwt>
<pdfrwt beam="2">  1       -2 0.17351248E-03 0.23893558E+02</pdfrwt>
<totfact> 0.91673979E+05</totfact>
</mgrwt>
</event>
<event>
 4    1  0.1474645E+004  0.4330974E+02  0.7546771E-02  0.1485178E+00
         -2   -1    0    0    0  501 -0.00000000000E+00  0.00000000000E+00  0.15532752522E+02  0.15532752522E+02  0.00000000000E+00 0. -1.
          2   -1    0    0  501    0  0.00000000000E+00 -0.00000000000E+00 -0.52788167139E+03  0.52788167139E+03  0.00000000000E+00 0.  1.
          2    1    1    2  502    0  0.13543985906E+02 -0.41137500024E+02 -0.49478797778E+03  0.49667985305E+03  0.00000000000E+00 0.  1.
         -2    1    1    2    0  502 -0.13543985906E+02  0.41137500024E+02 -0.17560941088E+02  0.46734570869E+02  0.00000000000E+00 0. -1.
<mgrwt>
<rscale>  2 0.43309739E+02</rscale>
<asrwt>0</asrwt>
<pdfrwt beam="2">  1        2 0.81212573E-01 0.43309739E+02</pdfrwt>
<pdfrwt beam="1">  1       -2 0.23896540E-02 0.43309739E+02</pdfrwt>
<totfact> 0.28396906E+04</totfact>
</mgrwt>
</event>
<event>
 4    1  0.1474645E+004  0.4333604E+02  0.7546771E-02  0.1485005E+00
          2   -1    0    0  501    0  0.00000000000E+00  0.00000000000E+00  0.64084096626E+03  0.64084096626E+03  0.00000000000E+00 0.  1.
         -2   -1    0    0    0  501 -0.00000000000E+00 -0.00000000000E+00 -0.10988811490E+02  0.10988811490E+02  0.00000000000E+00 0. -1.
          2    1    1    2  502    0 -0.32418130059E+01  0.43214613859E+02  0.59401956182E+03  0.59559823037E+03  0.00000000000E+00 0.  1.
         -2    1    1    2    0  502  0.32418130059E+01 -0.43214613859E+02  0.35832592949E+02  0.56231547374E+02  0.00000000000E+00 0. -1.
<mgrwt>
<rscale>  2 0.43336038E+02</rscale>
<asrwt>0</asrwt>
<pdfrwt beam="1">  1        2 0.98590889E-01 0.43336038E+02</pdfrwt>
<pdfrwt beam="2">  1       -2 0.16905869E-02 0.43336038E+02</pdfrwt>
<totfact> 0.37493023E+04</totfact>
</mgrwt>
</event>
<event>
 4    1  0.1474645E+004  0.2283638E+02  0.7546771E-02  0.1694176E+00
         -2   -1    0    0    0  501 -0.00000000000E+00  0.00000000000E+00  0.13540319489E+03  0.13540319489E+03  0.00000000000E+00 0.  1.
          2   -1    0    0  501    0  0.00000000000E+00 -0.00000000000E+00 -0.77593978040E+03  0.77593978040E+03  0.00000000000E+00 0. -1.
          2    1    1    2  502    0 -0.45740238114E+01 -0.22373615045E+02 -0.77480748575E+03  0.77514394813E+03  0.00000000000E+00 0. -1.
         -2    1    1    2    0  502  0.45740238114E+01  0.22373615045E+02  0.13427090025E+03  0.13619902715E+03  0.00000000000E+00 0.  1.
<mgrwt>
<rscale>  2 0.22836382E+02</rscale>
<asrwt>0</asrwt>
<pdfrwt beam="2">  1        2 0.11937535E+00 0.22836382E+02</pdfrwt>
<pdfrwt beam="1">  1       -2 0.20831261E-01 0.22836382E+02</pdfrwt>
<totfact> 0.71432557E+02</totfact>
</mgrwt>
</event>
<event>
 4    1  0.1474645E+004  0.3255884E+02  0.7546771E-02  0.1571413E+00
          2   -1    0    0  501    0  0.00000000000E+00  0.00000000000E+00  0.10873371267E+04  0.10873371267E+04  0.00000000000E+00 0. -1.
         -2   -1    0    0    0  501 -0.00000000000E+00 -0.00000000000E+00 -0.11911055224E+02  0.11911055224E+02  0.00000000000E+00 0.  1.
          2    1    1    2  502    0  0.31144419394E+02 -0.94922606293E+01  0.10643633810E+04  0.10648612514E+04  0.00000000000E+00 0. -1.
         -2    1    1    2    0  502 -0.31144419394E+02  0.94922606293E+01  0.11062690462E+02  0.34386930533E+02  0.00000000000E+00 0.  1.
<mgrwt>
<rscale>  2 0.32558837E+02</rscale>
<asrwt>0</asrwt>
<pdfrwt beam="1">  1        2 0.16728256E+00 0.32558837E+02</pdfrwt>
<pdfrwt beam="2">  1       -2 0.18324709E-02 0.32558837E+02</pdfrwt>
<totfact> 0.17136245E+04</totfact>
</mgrwt>
</event>
<event>
 4    1  0.1474645E+004  0.2043594E+02  0.7546771E-02  0.1736795E+00
          2   -1    0    0  501    0  0.00000000000E+00  0.00000000000E+00  0.69586846199E+03  0.69586846199E+03  0.00000000000E+00 0.  1.
         -2   -1    0    0    0  501 -0.00000000000E+00 -0.00000000000E+00 -0.31694416341E+01  0.31694416341E+01  0.00000000000E+00 0.  1.
          2    1    1    2  502    0 -0.17630438605E+02 -0.10334171509E+02  0.66104158616E+03  0.66135739664E+03  0.00000000000E+00 0.  1.
         -2    1    1    2    0  502  0.17630438605E+02  0.10334171509E+02  0.31657434193E+02  0.37680506975E+02  0.00000000000E+00 0.  1.
<mgrwt>
<rscale>  2 0.20435936E+02</rscale>
<asrwt>0</asrwt>
<pdfrwt beam="1">  1        2 0.10705656E+00 0.20435936E+02</pdfrwt>
<pdfrwt beam="2">  1       -2 0.48760696E-03 0.20435936E+02</pdfrwt>
<totfact> 0.16139475E+05</totfact>
</mgrwt>
</event>
<event>
 4    1  0.1474645E+004  0.2457914E+02  0.7546771E-02  0.1667121E+00
          2   -1    0    0  501    0  0.00000000000E+00  0.00000000000E+00  0.11952212762E+04  0.11952212762E+04  0.00000000000E+00 0. -1.
         -2   -1    0    0    0  501 -0.00000000000E+00 -0.00000000000E+00 -0.52619630160E+01  0.52619630160E+01  0.00000000000E+00 0.  1.
          2    1    1    2  502    0  0.24548100761E+02 -0.12348211066E+01  0.11656643099E+04  0.11659234183E+04  0.00000000000E+00 0. -1.
         -2    1    1    2    0  502 -0.24548100761E+02  0.12348211066E+01  0.24295003234E+02  0.34559820837E+02  0.00000000000E+00 0.  1.
<mgrwt>
<rscale>  2 0.24579138E+02</rscale>
<asrwt>0</asrwt>
<pdfrwt beam="1">  1        2 0.18387998E+00 0.24579138E+02</pdfrwt>
<pdfrwt beam="2">  1       -2 0.80953372E-03 0.24579138E+02</pdfrwt>
<totfact> 0.44270730E+04</totfact>
</mgrwt>
</event>
<event>
 4    1  0.1474645E+004  0.2164849E+02  0.7546771E-02  0.1714403E+00
         -2   -1    0    0    0  501 -0.00000000000E+00  0.00000000000E+00  0.44917020054E+01  0.44917020054E+01  0.00000000000E+00 0. -1.
          2   -1    0    0  501    0  0.00000000000E+00 -0.00000000000E+00 -0.29267319135E+03  0.29267319135E+03  0.00000000000E+00 0.  1.
          2    1    1    2  502    0  0.69013375226E+01 -0.20518982692E+02 -0.26328114634E+03  0.26416967867E+03  0.00000000000E+00 0.  1.
         -2    1    1    2    0  502 -0.69013375226E+01  0.20518982692E+02 -0.24900342997E+02  0.32995214678E+02  0.00000000000E+00 0. -1.
<mgrwt>
<rscale>  2 0.21648490E+02</rscale>
<asrwt>0</asrwt>
<pdfrwt beam="2">  1        2 0.45026649E-01 0.21648490E+02</pdfrwt>
<pdfrwt beam="1">  1       -2 0.69103101E-03 0.21648490E+02</pdfrwt>
<totfact> 0.24547040E+05</totfact>
</mgrwt>
</event>
<event>
 4    1  0.1474645E+004  0.2022031E+02  0.7546771E-02  0.1740982E+00
          2   -1    0    0  501    0  0.00000000000E+00  0.00000000000E+00  0.42656479387E+03  0.42656479387E+03  0.00000000000E+00 0. -1.
         -2   -1    0    0    0  501 -0.00000000000E+00 -0.00000000000E+00 -0.13108297090E+03  0.13108297090E+03  0.00000000000E+00 0.  1.
          2    1    1    2  502    0  0.14060172957E+02  0.14531772286E+02  0.42554352445E+03  0.42602365201E+03  0.00000000000E+00 0. -1.
         -2    1    1    2    0  502 -0.14060172957E+02 -0.14531772286E+02 -0.13006170148E+03  0.13162411277E+03  0.00000000000E+00 0.  1.
<mgrwt>
<rscale>  2 0.20220308E+02</rscale>
<asrwt>0</asrwt>
<pdfrwt beam="1">  1        2 0.65625352E-01 0.20220308E+02</pdfrwt>
<pdfrwt beam="2">  1       -2 0.20166611E-01 0.20220308E+02</pdfrwt>
<totfact> 0.13914609E+03</totfact>
</mgrwt>
</event>
<event>
 4    1  0.1474645E+004  0.2048994E+02  0.7546771E-02  0.1735757E+00
         -2   -1    0    0    0  501 -0.00000000000E+00  0.00000000000E+00  0.10023838510E+02  0.10023838510E+02  0.00000000000E+00 0.  1.
          2   -1    0    0  501    0  0.00000000000E+00 -0.00000000000E+00 -0.32847088261E+03  0.32847088261E+03  0.00000000000E+00 0.  1.
          2    1    1    2  502    0 -0.20030706770E+02  0.43137564394E+01 -0.31731253075E+03  0.31797339492E+03  0.00000000000E+00 0.  1.
         -2    1    1    2    0  502  0.20030706770E+02 -0.43137564394E+01 -0.11345133501E+01  0.20521326197E+02  0.00000000000E+00 0.  1.
<mgrwt>
<rscale>  2 0.20489942E+02</rscale>
<asrwt>0</asrwt>
<pdfrwt beam="2">  1        2 0.50533982E-01 0.20489942E+02</pdfrwt>
<pdfrwt beam="1">  1       -2 0.15421290E-02 0.20489942E+02</pdfrwt>
<totfact> 0.73228691E+04</totfact>
</mgrwt>
</event>
<event>
 4    1  0.1474645E+004  0.2877995E+02  0.7546771E-02  0.1611980E+00
          2   -1    0    0  501    0  0.00000000000E+00  0.00000000000E+00  0.12890204714E+04  0.12890204714E+04  0.00000000000E+00 0. -1.
         -2   -1    0    0    0  501 -0.00000000000E+00 -0.00000000000E+00 -0.26583747812E+02  0.26583747812E+02  0.00000000000E+00 0.  1.
          2    1    1    2  502    0 -0.13379310909E+02 -0.25480959209E+02  0.12810218035E+04  0.12813450535E+04  0.00000000000E+00 0. -1.
         -2    1    1    2    0  502  0.13379310909E+02  0.25480959209E+02 -0.18585079847E+02  0.34259165716E+02  0.00000000000E+00 0.  1.
<mgrwt>
<rscale>  2 0.28779945E+02</rscale>
<asrwt>0</asrwt>
<pdfrwt beam="1">  1        2 0.19831079E+00 0.28779945E+02</pdfrwt>
<pdfrwt beam="2">  1       -2 0.40898084E-02 0.28779945E+02</pdfrwt>
<totfact> 0.43340772E+03</totfact>
</mgrwt>
</event>
<event>
 4    1  0.1474645E+004  0.7198237E+02  0.7546771E-02  0.1353479E+00
         -2   -1    0    0    0  501 -0.00000000000E+00  0.00000000000E+00  0.14687795964E+03  0.14687795964E+03  0.00000000000E+00 0. -1.
          2   -1    0    0  501    0  0.00000000000E+00 -0.00000000000E+00 -0.39012234336E+03  0.39012234336E+03  0.00000000000E+00 0. -1.
          2    1    1    2  502    0  0.71958644005E+02 -0.18478318526E+01 -0.37769501041E+03  0.38449314925E+03  0.00000000000E+00 0. -1.
         -2    1    1    2    0  502 -0.71958644005E+02  0.18478318526E+01  0.13445062669E+03  0.15250715375E+03  0.00000000000E+00 0. -1.
<mgrwt>
<rscale>  2 0.71982365E+02</rscale>
<asrwt>0</asrwt>
<pdfrwt beam="2">  1        2 0.60018821E-01 0.71982365E+02</pdfrwt>
<pdfrwt beam="1">  1       -2 0.22596610E-01 0.71982365E+02</pdfrwt>
<totfact> 0.13500569E+03</totfact>
</mgrwt>
</event>
<event>
 4    1  0.1474645E+004  0.3222609E+02  0.7546771E-02  0.1574710E+00
          2   -1    0    0  501    0  0.00000000000E+00  0.00000000000E+00  0.14119002831E+04  0.14119002831E+04  0.00000000000E+00 0. -1.
         -2   -1    0    0    0  501 -0.00000000000E+00 -0.00000000000E+00 -0.43762298096E+01  0.43762298096E+01  0.00000000000E+00 0. -1.
          2    1    1    2  502    0  0.12622882709E+02  0.29651032979E+02  0.13496531832E+04  0.13500378646E+04  0.00000000000E+00 0. -1.
         -2    1    1    2    0  502 -0.12622882709E+02 -0.29651032979E+02  0.57870870054E+02  0.66238648275E+02  0.00000000000E+00 0. -1.
<mgrwt>
<rscale>  2 0.32226091E+02</rscale>
<asrwt>0</asrwt>
<pdfrwt beam="1">  1        2 0.21721507E+00 0.32226091E+02</pdfrwt>
<pdfrwt beam="2">  1       -2 0.67326725E-03 0.32226091E+02</pdfrwt>
<totfact> 0.46320338E+04</totfact>
</mgrwt>
</event>
<event>
 4    1  0.1474645E+004  0.3687821E+02  0.7546771E-02  0.1532527E+00
         -2   -1    0    0    0  501 -0.00000000000E+00  0.00000000000E+00  0.33659721688E+03  0.33659721688E+03  0.00000000000E+00 0. -1.
          2   -1    0    0  501    0  0.00000000000E+00 -0.00000000000E+00 -0.81870221946E+02  0.81870221946E+02  0.00000000000E+00 0.  1.
          2    1    1    2  502    0  0.25852763039E+02  0.26298990321E+02 -0.76641866574E+02  0.85052795137E+02  0.00000000000E+00 0.  1.
         -2    1    1    2    0  502 -0.25852763039E+02 -0.26298990321E+02  0.33136886151E+03  0.33341464369E+03  0.00000000000E+00 0. -1.
<mgrwt>
<rscale>  2 0.36878208E+02</rscale>
<asrwt>0</asrwt>
<pdfrwt beam="2">  1        2 0.12595419E-01 0.36878208E+02</pdfrwt>
<pdfrwt beam="1">  1       -2 0.51784187E-01 0.36878208E+02</pdfrwt>
<totfact> 0.15427064E+03</totfact>
</mgrwt>
</event>
<event>
 4    1  0.1474645E+004  0.3864362E+02  0.7546771E-02  0.1518437E+00
         -2   -1    0    0    0  501 -0.00000000000E+00  0.00000000000E+00  0.15556638675E+02  0.15556638675E+02  0.00000000000E+00 0.  1.
          2   -1    0    0  501    0  0.00000000000E+00 -0.00000000000E+00 -0.63436737119E+03  0.63436737119E+03  0.00000000000E+00 0. -1.
          2    1    1    2  502    0 -0.36252685065E+02 -0.13381777467E+02 -0.60877265013E+03  0.60999792515E+03  0.00000000000E+00 0. -1.
         -2    1    1    2    0  502  0.36252685065E+02  0.13381777467E+02 -0.10038082386E+02  0.39926084714E+02  0.00000000000E+00 0.  1.
<mgrwt>
<rscale>  2 0.38643617E+02</rscale>
<asrwt>0</asrwt>
<pdfrwt beam="2">  1        2 0.97594984E-01 0.38643617E+02</pdfrwt>
<pdfrwt beam="1">  1       -2 0.23933289E-02 0.38643617E+02</pdfrwt>
<totfact> 0.22915560E+04</totfact>
</mgrwt>
</event>
<event>
 4    1  0.1474645E+004  0.2992399E+02  0.7546771E-02  0.1598930E+00
          2   -1    0    0  501    0  0.00000000000E+00  0.00000000000E+00  0.99929182245E+03  0.99929182245E+03  0.00000000000E+00 0.  1.
         -2   -1    0    0    0  501 -0.00000000000E+00 -0.00000000000E+00 -0.26815946060E+01  0.26815946060E+01  0.00000000000E+00 0.  1.
          2    1    1    2  502    0 -0.78376044370E+00 -0.29913719317E+02  0.90710560670E+03  0.90759904506E+03  0.00000000000E+00 0.  1.
         -2    1    1    2    0  502  0.78376044370E+00  0.29913719317E+02  0.89504621141E+02  0.94374371994E+02  0.00000000000E+00 0.  1.
<mgrwt>
<rscale>  2 0.29923985E+02</rscale>
<asrwt>0</asrwt>
<pdfrwt beam="1">  1        2 0.15373691E+00 0.29923985E+02</pdfrwt>
<pdfrwt beam="2">  1       -2 0.41255381E-03 0.29923985E+02</pdfrwt>
<totfact> 0.14467767E+05</totfact>
</mgrwt>
</event>
<event>
 4    1  0.1474645E+004  0.2141990E+02  0.7546771E-02  0.1718482E+00
          2   -1    0    0  501    0  0.00000000000E+00  0.00000000000E+00  0.18406296023E+04  0.18406296023E+04  0.00000000000E+00 0. -1.
         -2   -1    0    0    0  501 -0.00000000000E+00 -0.00000000000E+00 -0.24951398806E+00  0.24951398806E+00  0.00000000000E+00 0. -1.
          2    1    1    2  502    0 -0.20998545205E+02 -0.42276142251E+01  0.89133950597E+03  0.89159684080E+03  0.00000000000E+00 0. -1.
         -2    1    1    2    0  502  0.20998545205E+02  0.42276142251E+01  0.94904058236E+03  0.94928227550E+03  0.00000000000E+00 0. -1.
<mgrwt>
<rscale>  2 0.21419899E+02</rscale>
<asrwt>0</asrwt>
<pdfrwt beam="1">  1        2 0.28316291E+00 0.21419899E+02</pdfrwt>
<pdfrwt beam="2">  1       -2 0.38388241E-04 0.21419899E+02</pdfrwt>
<totfact> 0.12050433E+06</totfact>
</mgrwt>
</event>
<event>
 4    1  0.1474645E+004  0.2134546E+02  0.7546771E-02  0.1719824E+00
         -2   -1    0    0    0  501 -0.00000000000E+00  0.00000000000E+00  0.19584651362E+02  0.19584651362E+02  0.00000000000E+00 0. -1.
          2   -1    0    0  501    0  0.00000000000E+00 -0.00000000000E+00 -0.87317950742E+03  0.87317950742E+03  0.00000000000E+00 0. -1.
          2    1    1    2  502    0  0.16318840809E+02  0.13759510317E+02 -0.86719276518E+03  0.86745542863E+03  0.00000000000E+00 0. -1.
         -2    1    1    2    0  502 -0.16318840809E+02 -0.13759510317E+02  0.13597909117E+02  0.25308730151E+02  0.00000000000E+00 0. -1.
<mgrwt>
<rscale>  2 0.21345461E+02</rscale>
<asrwt>0</asrwt>
<pdfrwt beam="2">  1        2 0.13433532E+00 0.21345461E+02</pdfrwt>
<pdfrwt beam="1">  1       -2 0.30130230E-02 0.21345461E+02</pdfrwt>
<totfact> 0.10725610E+04</totfact>
</mgrwt>
</event>
<event>
 4    1  0.1474645E+004  0.2038510E+02  0.7546771E-02  0.1737777E+00
         -2   -1    0    0    0  501 -0.00000000000E+00  0.00000000000E+00  0.83419848690E+02  0.83419848690E+02  0.00000000000E+00 0.  1.
          2   -1    0    0  501    0  0.00000000000E+00 -0.00000000000E+00 -0.55837330007E+01  0.55837330007E+01  0.00000000000E+00 0. -1.
          2    1    1    2  502    0  0.37006715105E-01 -0.20385061797E+02  0.24302542435E+02  0.31720114798E+02  0.00000000000E+00 0. -1.
         -2    1    1    2    0  502 -0.37006715105E-01  0.20385061797E+02  0.53533573254E+02  0.57283466893E+02  0.00000000000E+00 0.  1.
<mgrwt>
<rscale>  2 0.20385095E+02</rscale>
<asrwt>0</asrwt>
<pdfrwt beam="2">  1        2 0.85903590E-03 0.20385095E+02</pdfrwt>
<pdfrwt beam="1">  1       -2 0.12833822E-01 0.20385095E+02</pdfrwt>
<totfact> 0.41897653E+05</totfact>
</mgrwt>
</event>
<event>
 4    1  0.1474645E+004  0.2091649E+02  0.7546771E-02  0.1727694E+00
          2   -1    0    0  501    0  0.00000000000E+00  0.00000000000E+00  0.19390659827E+03  0.19390659827E+03  0.00000000000E+00 0. -1.
         -2   -1    0    0    0  501 -0.00000000000E+00 -0.00000000000E+00 -0.24706961826E+01  0.24706961826E+01  0.00000000000E+00 0. -1.
          2    1    1    2  502    0  0.14987560250E+02  0.14590152935E+02  0.12464622011E+03  0.12638900154E+03  0.00000000000E+00 0. -1.
         -2    1    1    2    0  502 -0.14987560250E+02 -0.14590152935E+02  0.66789681985E+02  0.69988292911E+02  0.00000000000E+00 0. -1.
<mgrwt>
<rscale>  2 0.20916489E+02</rscale>
<asrwt>0</asrwt>
<pdfrwt beam="1">  1        2 0.29831772E-01 0.20916489E+02</pdfrwt>
<pdfrwt beam="2">  1       -2 0.38010726E-03 0.20916489E+02</pdfrwt>
<totfact> 0.81226786E+05</totfact>
</mgrwt>
</event>
<event>
 4    1  0.1474645E+004  0.2407465E+02  0.7546771E-02  0.1674660E+00
          2   -1    0    0  501    0  0.00000000000E+00  0.00000000000E+00  0.85978629644E+02  0.85978629644E+02  0.00000000000E+00 0. -1.
         -2   -1    0    0    0  501 -0.00000000000E+00 -0.00000000000E+00 -0.70788797134E+01  0.70788797134E+01  0.00000000000E+00 0.  1.
          2    1    1    2  502    0  0.37741773965E+01 -0.23776971520E+02  0.49613977393E+02  0.55146491661E+02  0.00000000000E+00 0. -1.
         -2    1    1    2    0  502 -0.37741773965E+01  0.23776971520E+02  0.29285772537E+02  0.37911017697E+02  0.00000000000E+00 0.  1.
<mgrwt>
<rscale>  2 0.24074650E+02</rscale>
<asrwt>0</asrwt>
<pdfrwt beam="1">  1        2 0.13227481E-01 0.24074650E+02</pdfrwt>
<pdfrwt beam="2">  1       -2 0.10890585E-02 0.24074650E+02</pdfrwt>
<totfact> 0.48953583E+05</totfact>
</mgrwt>
</event>
<event>
 4    1  0.1474645E+004  0.2108553E+02  0.7546771E-02  0.1724565E+00
         -2   -1    0    0    0  501 -0.00000000000E+00  0.00000000000E+00  0.79995499022E+01  0.79995499022E+01  0.00000000000E+00 0. -1.
          2   -1    0    0  501    0  0.00000000000E+00 -0.00000000000E+00 -0.57950567774E+03  0.57950567774E+03  0.00000000000E+00 0. -1.
          2    1    1    2  502    0  0.14830358717E+02 -0.14988658856E+02 -0.56506438540E+03  0.56545765454E+03  0.00000000000E+00 0. -1.
         -2    1    1    2    0  502 -0.14830358717E+02  0.14988658856E+02 -0.64417424396E+01  0.22047573101E+02  0.00000000000E+00 0. -1.
<mgrwt>
<rscale>  2 0.21085527E+02</rscale>
<asrwt>0</asrwt>
<pdfrwt beam="2">  1        2 0.89154715E-01 0.21085527E+02</pdfrwt>
<pdfrwt beam="1">  1       -2 0.12307001E-02 0.21085527E+02</pdfrwt>
<totfact> 0.56882311E+04</totfact>
</mgrwt>
</event>
<event>
 4    1  0.1474645E+004  0.2084282E+02  0.7546771E-02  0.1729069E+00
         -2   -1    0    0    0  501 -0.00000000000E+00  0.00000000000E+00  0.99102890962E+02  0.99102890962E+02  0.00000000000E+00 0.  1.
          2   -1    0    0  501    0  0.00000000000E+00 -0.00000000000E+00 -0.23262267029E+02  0.23262267029E+02  0.00000000000E+00 0.  1.
          2    1    1    2  502    0  0.88555733455E+01  0.18868009967E+02 -0.17196988871E+02  0.27021461945E+02  0.00000000000E+00 0.  1.
         -2    1    1    2    0  502 -0.88555733455E+01 -0.18868009967E+02  0.93037612804E+02  0.95343696046E+02  0.00000000000E+00 0.  1.
<mgrwt>
<rscale>  2 0.20842816E+02</rscale>
<asrwt>0</asrwt>
<pdfrwt beam="2">  1        2 0.35788104E-02 0.20842816E+02</pdfrwt>
<pdfrwt beam="1">  1       -2 0.15246598E-01 0.20842816E+02</pdfrwt>
<totfact> 0.52351834E+04</totfact>
</mgrwt>
</event>
<event>
 4    1  0.1474645E+004  0.2474969E+02  0.7546771E-02  0.1664623E+00
         -2   -1    0    0    0  501 -0.00000000000E+00  0.00000000000E+00  0.12130128128E+02  0.12130128128E+02  0.00000000000E+00 0. -1.
          2   -1    0    0  501    0  0.00000000000E+00 -0.00000000000E+00 -0.30086427151E+03  0.30086427151E+03  0.00000000000E+00 0. -1.
          2    1    1    2  502    0 -0.32774162868E+01 -0.24531726827E+02 -0.28712794071E+03  0.28819264636E+03  0.00000000000E+00 0. -1.
         -2    1    1    2    0  502  0.32774162868E+01  0.24531726827E+02 -0.16062026691E+01  0.24801753277E+02  0.00000000000E+00 0. -1.
<mgrwt>
<rscale>  2 0.24749688E+02</rscale>
<asrwt>0</asrwt>
<pdfrwt beam="2">  1        2 0.46286807E-01 0.24749688E+02</pdfrwt>
<pdfrwt beam="1">  1       -2 0.18661737E-02 0.24749688E+02</pdfrwt>
<totfact> 0.64162067E+04</totfact>
</mgrwt>
</event>
<event>
 4    1  0.1474645E+004  0.2003870E+02  0.7546771E-02  0.1744560E+00
         -2   -1    0    0    0  501 -0.00000000000E+00  0.00000000000E+00  0.18432823251E+01  0.18432823251E+01  0.00000000000E+00 0. -1.
          2   -1    0    0  501    0  0.00000000000E+00 -0.00000000000E+00 -0.22228278102E+03  0.22228278102E+03  0.00000000000E+00 0. -1.
          2    1    1    2  502    0  0.10795696749E+02 -0.16882017563E+02 -0.12605405783E+03  0.12763688761E+03  0.00000000000E+00 0. -1.
         -2    1    1    2    0  502 -0.10795696749E+02  0.16882017563E+02 -0.94385440865E+02  0.96489175728E+02  0.00000000000E+00 0. -1.
<mgrwt>
<rscale>  2 0.20038702E+02</rscale>
<asrwt>0</asrwt>
<pdfrwt beam="2">  1        2 0.34197337E-01 0.20038702E+02</pdfrwt>
<pdfrwt beam="1">  1       -2 0.28358201E-03 0.20038702E+02</pdfrwt>
<totfact> 0.10298526E+06</totfact>
</mgrwt>
</event>
<event>
 4    1  0.1474645E+004  0.2558321E+02  0.7546771E-02  0.1652764E+00
         -2   -1    0    0    0  501 -0.00000000000E+00  0.00000000000E+00  0.84434248073E+00  0.84434248073E+00  0.00000000000E+00 0. -1.
          2   -1    0    0  501    0  0.00000000000E+00 -0.00000000000E+00 -0.81483211647E+03  0.81483211647E+03  0.00000000000E+00 0. -1.
          2    1    1    2  502    0  0.23018824875E+02  0.11163944355E+02 -0.31700265185E+03  0.31803330208E+03  0.00000000000E+00 0. -1.
         -2    1    1    2    0  502 -0.23018824875E+02 -0.11163944355E+02 -0.49698512215E+03  0.49764315688E+03  0.00000000000E+00 0. -1.
<mgrwt>
<rscale>  2 0.25583209E+02</rscale>
<asrwt>0</asrwt>
<pdfrwt beam="2">  1        2 0.12535879E+00 0.25583209E+02</pdfrwt>
<pdfrwt beam="1">  1       -2 0.12989884E-03 0.25583209E+02</pdfrwt>
<totfact> 0.83433935E+05</totfact>
</mgrwt>
</event>
<event>
 4    1  0.1474645E+004  0.4577115E+02  0.7546771E-02  0.1469584E+00
          2   -1    0    0  501    0  0.00000000000E+00  0.00000000000E+00  0.54767639215E+03  0.54767639215E+03  0.00000000000E+00 0.  1.
         -2   -1    0    0    0  501 -0.00000000000E+00 -0.00000000000E+00 -0.25600830052E+03  0.25600830052E+03  0.00000000000E+00 0.  1.
          2    1    1    2  502    0 -0.65260171892E+01 -0.45303520385E+02  0.54466295122E+03  0.54658277350E+03  0.00000000000E+00 0.  1.
         -2    1    1    2    0  502  0.65260171892E+01  0.45303520385E+02 -0.25299485959E+03  0.25710191916E+03  0.00000000000E+00 0.  1.
<mgrwt>
<rscale>  2 0.45771147E+02</rscale>
<asrwt>0</asrwt>
<pdfrwt beam="1">  1        2 0.84257906E-01 0.45771147E+02</pdfrwt>
<pdfrwt beam="2">  1       -2 0.39385892E-01 0.45771147E+02</pdfrwt>
<totfact> 0.35184631E+02</totfact>
</mgrwt>
</event>
<event>
 4    1  0.1474645E+004  0.2581496E+02  0.7546771E-02  0.1649565E+00
          2   -1    0    0  501    0  0.00000000000E+00  0.00000000000E+00  0.74541489007E+03  0.74541489007E+03  0.00000000000E+00 0. -1.
         -2   -1    0    0    0  501 -0.00000000000E+00 -0.00000000000E+00 -0.17754097482E+02  0.17754097482E+02  0.00000000000E+00 0.  1.
          2    1    1    2  502    0  0.25483601575E+02 -0.41229032394E+01  0.73568337299E+03  0.73613615424E+03  0.00000000000E+00 0. -1.
         -2    1    1    2    0  502 -0.25483601575E+02  0.41229032394E+01 -0.80225804074E+01  0.27032833310E+02  0.00000000000E+00 0.  1.
<mgrwt>
<rscale>  2 0.25814962E+02</rscale>
<asrwt>0</asrwt>
<pdfrwt beam="1">  1        2 0.11467919E+00 0.25814962E+02</pdfrwt>
<pdfrwt beam="2">  1       -2 0.27314002E-02 0.25814962E+02</pdfrwt>
<totfact> 0.15097250E+04</totfact>
</mgrwt>
</event>
<event>
 4    1  0.1474645E+004  0.2143138E+02  0.7546771E-02  0.1718276E+00
         -2   -1    0    0    0  501 -0.00000000000E+00  0.00000000000E+00  0.80021449490E+03  0.80021449490E+03  0.00000000000E+00 0. -1.
          2   -1    0    0  501    0  0.00000000000E+00 -0.00000000000E+00 -0.36810189349E+01  0.36810189349E+01  0.00000000000E+00 0. -1.
          2    1    1    2  502    0 -0.20945045935E+02  0.45397447373E+01  0.28983850171E+02  0.36046744683E+02  0.00000000000E+00 0. -1.
         -2    1    1    2    0  502  0.20945045935E+02 -0.45397447373E+01  0.76754962580E+03  0.76784876915E+03  0.00000000000E+00 0. -1.
<mgrwt>
<rscale>  2 0.21431384E+02</rscale>
<asrwt>0</asrwt>
<pdfrwt beam="2">  1        2 0.56631124E-03 0.21431384E+02</pdfrwt>
<pdfrwt beam="1">  1       -2 0.12310978E+00 0.21431384E+02</pdfrwt>
<totfact> 0.11253627E+04</totfact>
</mgrwt>
</event>
<event>
 4    1  0.1474645E+004  0.3388200E+02  0.7546771E-02  0.1558759E+00
         -2   -1    0    0    0  501 -0.00000000000E+00  0.00000000000E+00  0.20074374444E+03  0.20074374444E+03  0.00000000000E+00 0.  1.
          2   -1    0    0  501    0  0.00000000000E+00 -0.00000000000E+00 -0.12966858220E+02  0.12966858220E+02  0.00000000000E+00 0.  1.
          2    1    1    2  502    0  0.19898981142E+02  0.27422991526E+02  0.13998332463E+02  0.36659831239E+02  0.00000000000E+00 0.  1.
         -2    1    1    2    0  502 -0.19898981142E+02 -0.27422991526E+02  0.17377855376E+03  0.17705077142E+03  0.00000000000E+00 0.  1.
<mgrwt>
<rscale>  2 0.33882000E+02</rscale>
<asrwt>0</asrwt>
<pdfrwt beam="2">  1        2 0.19949014E-02 0.33882000E+02</pdfrwt>
<pdfrwt beam="1">  1       -2 0.30883651E-01 0.33882000E+02</pdfrwt>
<totfact> 0.38568627E+04</totfact>
</mgrwt>
</event>
<event>
 4    1  0.1474645E+004  0.2244872E+02  0.7546771E-02  0.1700605E+00
          2   -1    0    0  501    0  0.00000000000E+00  0.00000000000E+00  0.50112912558E+03  0.50112912558E+03  0.00000000000E+00 0. -1.
         -2   -1    0    0    0  501 -0.00000000000E+00 -0.00000000000E+00 -0.52576764838E+02  0.52576764838E+02  0.00000000000E+00 0.  1.
          2    1    1    2  502    0  0.22022081537E+02 -0.43557831959E+01  0.49846870419E+03  0.49897394119E+03  0.00000000000E+00 0. -1.
         -2    1    1    2    0  502 -0.22022081537E+02  0.43557831959E+01 -0.49916343454E+02  0.54731949228E+02  0.00000000000E+00 0.  1.
<mgrwt>
<rscale>  2 0.22448718E+02</rscale>
<asrwt>0</asrwt>
<pdfrwt beam="1">  1        2 0.77096785E-01 0.22448718E+02</pdfrwt>
<pdfrwt beam="2">  1       -2 0.80887334E-02 0.22448718E+02</pdfrwt>
<totfact> 0.48186334E+03</totfact>
</mgrwt>
</event>
<event>
 4    1  0.1474645E+004  0.2386608E+02  0.7546771E-02  0.1677844E+00
          2   -1    0    0  501    0  0.00000000000E+00  0.00000000000E+00  0.53856871382E+01  0.53856871382E+01  0.00000000000E+00 0. -1.
         -2   -1    0    0    0  501 -0.00000000000E+00 -0.00000000000E+00 -0.12164514881E+04  0.12164514881E+04  0.00000000000E+00 0. -1.
          2    1    1    2  502    0  0.10707748321E+02  0.21329180557E+02 -0.21775122241E+02  0.32307054430E+02  0.00000000000E+00 0. -1.
         -2    1    1    2    0  502 -0.10707748321E+02 -0.21329180557E+02 -0.11892906787E+04  0.11895301208E+04  0.00000000000E+00 0. -1.
<mgrwt>
<rscale>  2 0.23866081E+02</rscale>
<asrwt>0</asrwt>
<pdfrwt beam="1">  1        2 0.82856667E-03 0.23866081E+02</pdfrwt>
<pdfrwt beam="2">  1       -2 0.18714651E+00 0.23866081E+02</pdfrwt>
<totfact> 0.24997020E+03</totfact>
</mgrwt>
</event>
<event>
 4    1  0.1474645E+004  0.2009135E+02  0.7546771E-02  0.1743518E+00
          2   -1    0    0  501    0  0.00000000000E+00  0.00000000000E+00  0.15007440324E+01  0.15007440324E+01  0.00000000000E+00 0. -1.
         -2   -1    0    0    0  501 -0.00000000000E+00 -0.00000000000E+00 -0.99243906383E+03  0.99243906383E+03  0.00000000000E+00 0. -1.
          2    1    1    2  502    0  0.96251001609E+01  0.17635747549E+02 -0.71155765074E+02  0.73937845844E+02  0.00000000000E+00 0. -1.
         -2    1    1    2    0  502 -0.96251001609E+01 -0.17635747549E+02 -0.91978255472E+03  0.92000196202E+03  0.00000000000E+00 0. -1.
<mgrwt>
<rscale>  2 0.20091345E+02</rscale>
<asrwt>0</asrwt>
<pdfrwt beam="1">  1        2 0.23088367E-03 0.20091345E+02</pdfrwt>
<pdfrwt beam="2">  1       -2 0.15268295E+00 0.20091345E+02</pdfrwt>
<totfact> 0.21442201E+04</totfact>
</mgrwt>
</event>
<event>
 4    1  0.1474645E+004  0.3199214E+02  0.7546771E-02  0.1577058E+00
          2   -1    0    0  501    0  0.00000000000E+00  0.00000000000E+00  0.24452202176E+04  0.24452202176E+04  0.00000000000E+00 0. -1.
         -2   -1    0    0    0  501 -0.00000000000E+00 -0.00000000000E+00 -0.90948052019E+00  0.90948052019E+00  0.00000000000E+00 0.  1.
          2    1    1    2  502    0  0.31449858379E+02 -0.58654302659E+01  0.21207291979E+04  0.21209704919E+04  0.00000000000E+00 0. -1.
         -2    1    1    2    0  502 -0.31449858379E+02  0.58654302659E+01  0.32358153918E+03  0.32515920618E+03  0.00000000000E+00 0.  1.
<mgrwt>
<rscale>  2 0.31992138E+02</rscale>
<asrwt>0</asrwt>
<pdfrwt beam="1">  1        2 0.37618246E+00 0.31992138E+02</pdfrwt>
<pdfrwt beam="2">  1       -2 0.13992204E-03 0.31992138E+02</pdfrwt>
<totfact> 0.12291409E+05</totfact>
</mgrwt>
</event>
<event>
 4    1  0.1474645E+004  0.2342932E+02  0.7546771E-02  0.1684644E+00
         -2   -1    0    0    0  501 -0.00000000000E+00  0.00000000000E+00  0.64568998683E+01  0.64568998683E+01  0.00000000000E+00 0. -1.
          2   -1    0    0  501    0  0.00000000000E+00 -0.00000000000E+00 -0.29955079079E+03  0.29955079079E+03  0.00000000000E+00 0. -1.
          2    1    1    2  502    0  0.16908270348E+02 -0.16218619182E+02 -0.27603121416E+03  0.27702376145E+03  0.00000000000E+00 0. -1.
         -2    1    1    2    0  502 -0.16908270348E+02  0.16218619182E+02 -0.17062676759E+02  0.28983929211E+02  0.00000000000E+00 0. -1.
<mgrwt>
<rscale>  2 0.23429324E+02</rscale>
<asrwt>0</asrwt>
<pdfrwt beam="2">  1        2 0.46084719E-01 0.23429324E+02</pdfrwt>
<pdfrwt beam="1">  1       -2 0.99336960E-03 0.23429324E+02</pdfrwt>
<totfact> 0.15024257E+05</totfact>
</mgrwt>
</event>
<event>
 4    1  0.1474645E+004  0.3012828E+02  0.7546771E-02  0.1596675E+00
         -2   -1    0    0    0  501 -0.00000000000E+00  0.00000000000E+00  0.47834200215E+01  0.47834200215E+01  0.00000000000E+00 0. -1.
          2   -1    0    0  501    0  0.00000000000E+00 -0.00000000000E+00 -0.28892325967E+03  0.28892325967E+03  0.00000000000E+00 0. -1.
          2    1    1    2  502    0  0.26554667155E+02 -0.14232426563E+02 -0.56037299317E+02  0.63623040075E+02  0.00000000000E+00 0. -1.
         -2    1    1    2    0  502 -0.26554667155E+02  0.14232426563E+02 -0.22810254034E+03  0.23008363962E+03  0.00000000000E+00 0. -1.
<mgrwt>
<rscale>  2 0.30128279E+02</rscale>
<asrwt>0</asrwt>
<pdfrwt beam="2">  1        2 0.44449738E-01 0.30128279E+02</pdfrwt>
<pdfrwt beam="1">  1       -2 0.73591069E-03 0.30128279E+02</pdfrwt>
<totfact> 0.24908471E+05</totfact>
</mgrwt>
</event>
<event>
 4    1  0.1474645E+004  0.2296621E+02  0.7546771E-02  0.1692058E+00
         -2   -1    0    0    0  501 -0.00000000000E+00  0.00000000000E+00  0.38966747667E+01  0.38966747667E+01  0.00000000000E+00 0.  1.
          2   -1    0    0  501    0  0.00000000000E+00 -0.00000000000E+00 -0.91894570425E+03  0.91894570425E+03  0.00000000000E+00 0. -1.
          2    1    1    2  502    0 -0.18675467253E+02  0.13366896568E+02 -0.88360961820E+03  0.88390802936E+03  0.00000000000E+00 0. -1.
         -2    1    1    2    0  502  0.18675467253E+02 -0.13366896568E+02 -0.31439411286E+02  0.38934349654E+02  0.00000000000E+00 0.  1.
<mgrwt>
<rscale>  2 0.22966214E+02</rscale>
<asrwt>0</asrwt>
<pdfrwt beam="2">  1        2 0.14137613E+00 0.22966214E+02</pdfrwt>
<pdfrwt beam="1">  1       -2 0.59948900E-03 0.22966214E+02</pdfrwt>
<totfact> 0.91834730E+04</totfact>
</mgrwt>
</event>
<event>
 4    1  0.1474645E+004  0.2372809E+02  0.7546771E-02  0.1679973E+00
         -2   -1    0    0    0  501 -0.00000000000E+00  0.00000000000E+00  0.26130115270E+01  0.26130115270E+01  0.00000000000E+00 0.  1.
          2   -1    0    0  501    0  0.00000000000E+00 -0.00000000000E+00 -0.80722330599E+03  0.80722330599E+03  0.00000000000E+00 0. -1.
          2    1    1    2  502    0  0.14864988349E+02  0.18494718445E+02 -0.74899504723E+03  0.74937080492E+03  0.00000000000E+00 0. -1.
         -2    1    1    2    0  502 -0.14864988349E+02 -0.18494718445E+02 -0.55615247228E+02  0.60465512593E+02  0.00000000000E+00 0.  1.
<mgrwt>
<rscale>  2 0.23728095E+02</rscale>
<asrwt>0</asrwt>
<pdfrwt beam="2">  1        2 0.12418857E+00 0.23728095E+02</pdfrwt>
<pdfrwt beam="1">  1       -2 0.40200057E-03 0.23728095E+02</pdfrwt>
<totfact> 0.18384079E+05</totfact>
</mgrwt>
</event>
<event>
 4    1  0.1474645E+004  0.2303400E+02  0.7546771E-02  0.1690960E+00
          2   -1    0    0  501    0  0.00000000000E+00  0.00000000000E+00  0.53210816249E+03  0.53210816249E+03  0.00000000000E+00 0.  1.
         -2   -1    0    0    0  501 -0.00000000000E+00 -0.00000000000E+00 -0.10387766636E+01  0.10387766636E+01  0.00000000000E+00 0.  1.
          2    1    1    2  502    0 -0.18081682808E+02 -0.14269473817E+02  0.31892979841E+03  0.31976050640E+03  0.00000000000E+00 0.  1.
         -2    1    1    2    0  502  0.18081682808E+02  0.14269473817E+02  0.21213958741E+03  0.21338643275E+03  0.00000000000E+00 0.  1.
<mgrwt>
<rscale>  2 0.23034000E+02</rscale>
<asrwt>0</asrwt>
<pdfrwt beam="1">  1        2 0.81862577E-01 0.23034000E+02</pdfrwt>
<pdfrwt beam="2">  1       -2 0.15981222E-03 0.23034000E+02</pdfrwt>
<totfact> 0.97106034E+05</totfact>
</mgrwt>
</event>
<event>
 4    1  0.1474645E+004  0.1134892E+03  0.7546771E-02  0.1254241E+00
          2   -1    0    0  501    0  0.00000000000E+00  0.00000000000E+00  0.61048358314E+03  0.61048358314E+03  0.00000000000E+00 0. -1.
         -2   -1    0    0    0  501 -0.00000000000E+00 -0.00000000000E+00 -0.26334870857E+03  0.26334870857E+03  0.00000000000E+00 0. -1.
          2    1    1    2  502    0  0.74562336699E+02 -0.85558544696E+02  0.59261689593E+03  0.60338593948E+03  0.00000000000E+00 0. -1.
         -2    1    1    2    0  502 -0.74562336699E+02  0.85558544696E+02 -0.24548202136E+03  0.27044635223E+03  0.00000000000E+00 0. -1.
<mgrwt>
<rscale>  2 0.11348924E+03</rscale>
<asrwt>0</asrwt>
<pdfrwt beam="1">  1        2 0.93920551E-01 0.11348924E+03</pdfrwt>
<pdfrwt beam="2">  1       -2 0.40515186E-01 0.11348924E+03</pdfrwt>
<totfact> 0.29454094E+02</totfact>
</mgrwt>
</event>
<event>
 4    1  0.1474645E+004  0.3339072E+02  0.7546771E-02  0.1563374E+00
          2   -1    0    0  501    0  0.00000000000E+00  0.00000000000E+00  0.12570666603E+04  0.12570666603E+04  0.00000000000E+00 0. -1.
         -2   -1    0    0    0  501 -0.00000000000E+00 -0.00000000000E+00 -0.85881416709E+01  0.85881416709E+01  0.00000000000E+00 0. -1.
          2    1    1    2  502    0  0.31731688799E+02 -0.10394229097E+02  0.12234988354E+04  0.12239543866E+04  0.00000000000E+00 0. -1.
         -2    1    1    2    0  502 -0.31731688799E+02  0.10394229097E+02  0.24979683186E+02  0.41700415402E+02  0.00000000000E+00 0. -1.
<mgrwt>
<rscale>  2 0.33390718E+02</rscale>
<asrwt>0</asrwt>
<pdfrwt beam="1">  1        2 0.19339472E+00 0.33390718E+02</pdfrwt>
<pdfrwt beam="2">  1       -2 0.13212536E-02 0.33390718E+02</pdfrwt>
<totfact> 0.22062955E+04</totfact>
</mgrwt>
</event>
<event>
 4    1  0.1474645E+004  0.2409770E+02  0.7546771E-02  0.1674311E+00
          2   -1    0    0  501    0  0.00000000000E+00  0.00000000000E+00  0.19540291158E+03  0.19540291158E+03  0.00000000000E+00 0.  1.
         -2   -1    0    0    0  501 -0.00000000000E+00 -0.00000000000E+00 -0.55746754805E+01  0.55746754805E+01  0.00000000000E+00 0.  1.
          2    1    1    2  502    0 -0.23623825405E+02  0.47554140958E+01  0.16357892867E+03  0.16534438301E+03  0.00000000000E+00 0.  1.
         -2    1    1    2    0  502  0.23623825405E+02 -0.47554140958E+01  0.26249307431E+02  0.35633204047E+02  0.00000000000E+00 0.  1.
<mgrwt>
<rscale>  2 0.24097699E+02</rscale>
<asrwt>0</asrwt>
<pdfrwt beam="1">  1        2 0.30061981E-01 0.24097699E+02</pdfrwt>
<pdfrwt beam="2">  1       -2 0.85764253E-03 0.24097699E+02</pdfrwt>
<totfact> 0.28273783E+05</totfact>
</mgrwt>
</event>
<event>
 4    1  0.1474645E+004  0.2670040E+02  0.7546771E-02  0.1637715E+00
         -2   -1    0    0    0  501 -0.00000000000E+00  0.00000000000E+00  0.81678233286E+01  0.81678233286E+01  0.00000000000E+00 0. -1.
          2   -1    0    0  501    0  0.00000000000E+00 -0.00000000000E+00 -0.46887499250E+03  0.46887499250E+03  0.00000000000E+00 0. -1.
          2    1    1    2  502    0 -0.11587159184E+02 -0.24055120846E+02 -0.44553191178E+03  0.44633126208E+03  0.00000000000E+00 0. -1.
         -2    1    1    2    0  502  0.11587159184E+02  0.24055120846E+02 -0.15175257397E+02  0.30711553753E+02  0.00000000000E+00 0. -1.
<mgrwt>
<rscale>  2 0.26700395E+02</rscale>
<asrwt>0</asrwt>
<pdfrwt beam="2">  1        2 0.72134585E-01 0.26700395E+02</pdfrwt>
<pdfrwt beam="1">  1       -2 0.12565887E-02 0.26700395E+02</pdfrwt>
<totfact> 0.72061110E+04</totfact>
</mgrwt>
</event>
<event>
 4    1  0.1474645E+004  0.2079207E+02  0.7546771E-02  0.1730021E+00
          2   -1    0    0  501    0  0.00000000000E+00  0.00000000000E+00  0.23799998426E+02  0.23799998426E+02  0.00000000000E+00 0.  1.
         -2   -1    0    0    0  501 -0.00000000000E+00 -0.00000000000E+00 -0.42513736673E+03  0.42513736673E+03  0.00000000000E+00 0. -1.
          2    1    1    2  502    0  0.20049654085E+02 -0.55064922974E+01  0.18952363034E+02  0.28133648020E+02  0.00000000000E+00 0.  1.
         -2    1    1    2    0  502 -0.20049654085E+02  0.55064922974E+01 -0.42028973133E+03  0.42080371713E+03  0.00000000000E+00 0. -1.
<mgrwt>
<rscale>  2 0.20792068E+02</rscale>
<asrwt>0</asrwt>
<pdfrwt beam="1">  1        2 0.36615387E-02 0.20792068E+02</pdfrwt>
<pdfrwt beam="2">  1       -2 0.65405740E-01 0.20792068E+02</pdfrwt>
<totfact> 0.40027080E+03</totfact>
</mgrwt>
</event>
<event>
 4    1  0.1474645E+004  0.2105532E+02  0.7546771E-02  0.1725121E+00
         -2   -1    0    0    0  501 -0.00000000000E+00  0.00000000000E+00  0.62072799745E+03  0.62072799745E+03  0.00000000000E+00 0. -1.
          2   -1    0    0  501    0  0.00000000000E+00 -0.00000000000E+00 -0.15754770359E+02  0.15754770359E+02  0.00000000000E+00 0.  1.
          2    1    1    2  502    0 -0.10649655288E+02  0.18163460022E+02 -0.84577654006E+01  0.22690531799E+02  0.00000000000E+00 0.  1.
         -2    1    1    2    0  502  0.10649655288E+02 -0.18163460022E+02  0.61343099249E+03  0.61379223601E+03  0.00000000000E+00 0. -1.
<mgrwt>
<rscale>  2 0.21055319E+02</rscale>
<asrwt>0</asrwt>
<pdfrwt beam="2">  1        2 0.24238113E-02 0.21055319E+02</pdfrwt>
<pdfrwt beam="1">  1       -2 0.95496596E-01 0.21055319E+02</pdfrwt>
<totfact> 0.30405563E+03</totfact>
</mgrwt>
</event>
<event>
 4    1  0.1474645E+004  0.2325863E+02  0.7546771E-02  0.1687352E+00
         -2   -1    0    0    0  501 -0.00000000000E+00  0.00000000000E+00  0.20621697857E+00  0.20621697857E+00  0.00000000000E+00 0.  1.
          2   -1    0    0  501    0  0.00000000000E+00 -0.00000000000E+00 -0.26778446354E+04  0.26778446354E+04  0.00000000000E+00 0.  1.
          2    1    1    2  502    0 -0.19523951894E+02 -0.12640354538E+02 -0.11476654110E+04  0.11479010667E+04  0.00000000000E+00 0.  1.
         -2    1    1    2    0  502  0.19523951894E+02  0.12640354538E+02 -0.15299730074E+04  0.15301497857E+04  0.00000000000E+00 0.  1.
<mgrwt>
<rscale>  2 0.23258629E+02</rscale>
<asrwt>0</asrwt>
<pdfrwt beam="2">  1        2 0.41197172E+00 0.23258629E+02</pdfrwt>
<pdfrwt beam="1">  1       -2 0.31726026E-04 0.23258629E+02</pdfrwt>
<totfact> 0.63067058E+05</totfact>
</mgrwt>
</event>
<event>
 4    1  0.1474645E+004  0.2238151E+02  0.7546771E-02  0.1701736E+00
          2   -1    0    0  501    0  0.00000000000E+00  0.00000000000E+00  0.12559177504E+03  0.12559177504E+03  0.00000000000E+00 0. -1.
         -2   -1    0    0    0  501 -0.00000000000E+00 -0.00000000000E+00 -0.77792155580E+01  0.77792155580E+01  0.00000000000E+00 0.  1.
          2    1    1    2  502    0  0.10842643997E+02  0.19579812181E+02  0.10545630172E+03  0.10780521113E+03  0.00000000000E+00 0. -1.
         -2    1    1    2    0  502 -0.10842643997E+02 -0.19579812181E+02  0.12356257756E+02  0.25565779464E+02  0.00000000000E+00 0.  1.
<mgrwt>
<rscale>  2 0.22381510E+02</rscale>
<asrwt>0</asrwt>
<pdfrwt beam="1">  1        2 0.19321810E-01 0.22381510E+02</pdfrwt>
<pdfrwt beam="2">  1       -2 0.11968025E-02 0.22381510E+02</pdfrwt>
<totfact> 0.27898630E+05</totfact>
</mgrwt>
</event>
<event>
 4    1  0.1474645E+004  0.2071122E+02  0.7546771E-02  0.1731543E+00
          2   -1    0    0  501    0  0.00000000000E+00  0.00000000000E+00  0.22047945403E+02  0.22047945403E+02  0.00000000000E+00 0.  1.
         -2   -1    0    0    0  501 -0.00000000000E+00 -0.00000000000E+00 -0.92683018547E+02  0.92683018547E+02  0.00000000000E+00 0.  1.
          2    1    1    2  502    0  0.10150289526E+02  0.18053433390E+02  0.15672765150E+02  0.25972878201E+02  0.00000000000E+00 0.  1.
         -2    1    1    2    0  502 -0.10150289526E+02 -0.18053433390E+02 -0.86307838295E+02  0.88758085748E+02  0.00000000000E+00 0.  1.
<mgrwt>
<rscale>  2 0.20711225E+02</rscale>
<asrwt>0</asrwt>
<pdfrwt beam="1">  1        2 0.33919917E-02 0.20711225E+02</pdfrwt>
<pdfrwt beam="2">  1       -2 0.14258926E-01 0.20711225E+02</pdfrwt>
<totfact> 0.61965721E+04</totfact>
</mgrwt>
</event>
<event>
 4    1  0.1474645E+004  0.4807328E+02  0.7546771E-02  0.1456020E+00
          2   -1    0    0  501    0  0.00000000000E+00  0.00000000000E+00  0.66553778227E+02  0.66553778227E+02  0.00000000000E+00 0.  1.
         -2   -1    0    0    0  501 -0.00000000000E+00 -0.00000000000E+00 -0.48548315669E+02  0.48548315669E+02  0.00000000000E+00 0.  1.
          2    1    1    2  502    0  0.48055651349E+02 -0.13017878286E+01  0.39712858897E+02  0.62355043420E+02  0.00000000000E+00 0.  1.
         -2    1    1    2    0  502 -0.48055651349E+02  0.13017878286E+01 -0.21707396338E+02  0.52747050476E+02  0.00000000000E+00 0.  1.
<mgrwt>
<rscale>  2 0.48073280E+02</rscale>
<asrwt>0</asrwt>
<pdfrwt beam="1">  1        2 0.10239043E-01 0.48073280E+02</pdfrwt>
<pdfrwt beam="2">  1       -2 0.74689716E-02 0.48073280E+02</pdfrwt>
<totfact> 0.50884368E+04</totfact>
</mgrwt>
</event>
<event>
 4    1  0.1474645E+004  0.2679271E+02  0.7546771E-02  0.1636512E+00
          2   -1    0    0  501    0  0.00000000000E+00  0.00000000000E+00  0.30447283819E+03  0.30447283819E+03  0.00000000000E+00 0. -1.
         -2   -1    0    0    0  501 -0.00000000000E+00 -0.00000000000E+00 -0.65541396455E+02  0.65541396455E+02  0.00000000000E+00 0.  1.
          2    1    1    2  502    0 -0.21465381318E+02  0.16033929298E+02  0.30111478939E+03  0.30230442583E+03  0.00000000000E+00 0. -1.
         -2    1    1    2    0  502  0.21465381318E+02 -0.16033929298E+02 -0.62183347659E+02  0.67709808817E+02  0.00000000000E+00 0.  1.
<mgrwt>
<rscale>  2 0.26792713E+02</rscale>
<asrwt>0</asrwt>
<pdfrwt beam="1">  1        2 0.46841974E-01 0.26792713E+02</pdfrwt>
<pdfrwt beam="2">  1       -2 0.10083292E-01 0.26792713E+02</pdfrwt>
<totfact> 0.58238777E+03</totfact>
</mgrwt>
</event>
<event>
 4    1  0.1474645E+004  0.3512308E+02  0.7546771E-02  0.1547510E+00
         -2   -1    0    0    0  501 -0.00000000000E+00  0.00000000000E+00  0.28296555399E+02  0.28296555399E+02  0.00000000000E+00 0. -1.
          2   -1    0    0  501    0  0.00000000000E+00 -0.00000000000E+00 -0.19754863545E+03  0.19754863545E+03  0.00000000000E+00 0.  1.
          2    1    1    2  502    0  0.35118797958E+02 -0.54871634824E+00 -0.18431261596E+03  0.18762934595E+03  0.00000000000E+00 0.  1.
         -2    1    1    2    0  502 -0.35118797958E+02  0.54871634824E+00  0.15060535907E+02  0.38215844901E+02  0.00000000000E+00 0. -1.
<mgrwt>
<rscale>  2 0.35123084E+02</rscale>
<asrwt>0</asrwt>
<pdfrwt beam="2">  1        2 0.30392098E-01 0.35123084E+02</pdfrwt>
<pdfrwt beam="1">  1       -2 0.43533162E-02 0.35123084E+02</pdfrwt>
<totfact> 0.31963519E+04</totfact>
</mgrwt>
</event>
<event>
 4    1  0.1474645E+004  0.2335431E+02  0.7546771E-02  0.1685830E+00
         -2   -1    0    0    0  501 -0.00000000000E+00  0.00000000000E+00  0.26259084655E+02  0.26259084655E+02  0.00000000000E+00 0. -1.
          2   -1    0    0  501    0  0.00000000000E+00 -0.00000000000E+00 -0.31535826644E+03  0.31535826644E+03  0.00000000000E+00 0. -1.
          2    1    1    2  502    0  0.18763711893E+02 -0.13904917770E+02 -0.30963736350E+03  0.31051686025E+03  0.00000000000E+00 0. -1.
         -2    1    1    2    0  502 -0.18763711893E+02  0.13904917770E+02  0.20538181721E+02  0.31100490842E+02  0.00000000000E+00 0. -1.
<mgrwt>
<rscale>  2 0.23354306E+02</rscale>
<asrwt>0</asrwt>
<pdfrwt beam="2">  1        2 0.48516657E-01 0.23354306E+02</pdfrwt>
<pdfrwt beam="1">  1       -2 0.40398591E-02 0.23354306E+02</pdfrwt>
<totfact> 0.20728291E+04</totfact>
</mgrwt>
</event>
<event>
 4    1  0.1474645E+004  0.2369932E+02  0.7546771E-02  0.1680419E+00
          2   -1    0    0  501    0  0.00000000000E+00  0.00000000000E+00  0.20677031498E+03  0.20677031498E+03  0.00000000000E+00 0.  1.
         -2   -1    0    0    0  501 -0.00000000000E+00 -0.00000000000E+00 -0.23773257251E+03  0.23773257251E+03  0.00000000000E+00 0.  1.
          2    1    1    2  502    0 -0.22388596196E+02 -0.77722876535E+01  0.20549694284E+03  0.20685901288E+03  0.00000000000E+00 0.  1.
         -2    1    1    2    0  502  0.22388596196E+02  0.77722876535E+01 -0.23645920037E+03  0.23764387460E+03  0.00000000000E+00 0.  1.
<mgrwt>
<rscale>  2 0.23699318E+02</rscale>
<asrwt>0</asrwt>
<pdfrwt beam="1">  1        2 0.31810818E-01 0.23699318E+02</pdfrwt>
<pdfrwt beam="2">  1       -2 0.36574242E-01 0.23699318E+02</pdfrwt>
<totfact> 0.10532335E+03</totfact>
</mgrwt>
</event>
<event>
 4    1  0.1474645E+004  0.2469690E+02  0.7546771E-02  0.1665394E+00
          2   -1    0    0  501    0  0.00000000000E+00  0.00000000000E+00  0.63356846755E+03  0.63356846755E+03  0.00000000000E+00 0. -1.
         -2   -1    0    0    0  501 -0.00000000000E+00 -0.00000000000E+00 -0.28769770676E+01  0.28769770676E+01  0.00000000000E+00 0.  1.
          2    1    1    2  502    0  0.23255547924E+02  0.83136105789E+01  0.57492222429E+03  0.57545243123E+03  0.00000000000E+00 0. -1.
         -2    1    1    2    0  502 -0.23255547924E+02 -0.83136105789E+01  0.55769266198E+02  0.60993013390E+02  0.00000000000E+00 0.  1.
<mgrwt>
<rscale>  2 0.24696895E+02</rscale>
<asrwt>0</asrwt>
<pdfrwt beam="1">  1        2 0.97471961E-01 0.24696895E+02</pdfrwt>
<pdfrwt beam="2">  1       -2 0.44261236E-03 0.24696895E+02</pdfrwt>
<totfact> 0.21283078E+05</totfact>
</mgrwt>
</event>
<event>
 4    1  0.1474645E+004  0.2001342E+02  0.7546771E-02  0.1745061E+00
          2   -1    0    0  501    0  0.00000000000E+00  0.00000000000E+00  0.85928784100E+03  0.85928784100E+03  0.00000000000E+00 0.  1.
         -2   -1    0    0    0  501 -0.00000000000E+00 -0.00000000000E+00 -0.26890884172E+02  0.26890884172E+02  0.00000000000E+00 0.  1.
          2    1    1    2  502    0  0.14580386744E+02 -0.13709460883E+02  0.85543079709E+03  0.85566487926E+03  0.00000000000E+00 0.  1.
         -2    1    1    2    0  502 -0.14580386744E+02  0.13709460883E+02 -0.23033840258E+02  0.30513845912E+02  0.00000000000E+00 0.  1.
<mgrwt>
<rscale>  2 0.20013420E+02</rscale>
<asrwt>0</asrwt>
<pdfrwt beam="1">  1        2 0.13219811E+00 0.20013420E+02</pdfrwt>
<pdfrwt beam="2">  1       -2 0.41370598E-02 0.20013420E+02</pdfrwt>
<totfact> 0.69721668E+03</totfact>
</mgrwt>
</event>
<event>
 4    1  0.1474645E+004  0.3205066E+02  0.7546771E-02  0.1576468E+00
          2   -1    0    0  501    0  0.00000000000E+00  0.00000000000E+00  0.60251877450E+03  0.60251877450E+03  0.00000000000E+00 0. -1.
         -2   -1    0    0    0  501 -0.00000000000E+00 -0.00000000000E+00 -0.35921036819E+01  0.35921036819E+01  0.00000000000E+00 0.  1.
          2    1    1    2  502    0 -0.25831510339E+02  0.18973077679E+02  0.51912540104E+03  0.52011385927E+03  0.00000000000E+00 0. -1.
         -2    1    1    2    0  502  0.25831510339E+02 -0.18973077679E+02  0.79801269781E+02  0.85997018912E+02  0.00000000000E+00 0.  1.
<mgrwt>
<rscale>  2 0.32050657E+02</rscale>
<asrwt>0</asrwt>
<pdfrwt beam="1">  1        2 0.92695116E-01 0.32050657E+02</pdfrwt>
<pdfrwt beam="2">  1       -2 0.55263182E-03 0.32050657E+02</pdfrwt>
<totfact> 0.17681344E+05</totfact>
</mgrwt>
</event>
<event>
 4    1  0.1474645E+004  0.4183603E+02  0.7546771E-02  0.1495119E+00
         -2   -1    0    0    0  501 -0.00000000000E+00  0.00000000000E+00  0.16788486069E+03  0.16788486069E+03  0.00000000000E+00 0. -1.
          2   -1    0    0  501    0  0.00000000000E+00 -0.00000000000E+00 -0.10534631761E+02  0.10534631761E+02  0.00000000000E+00 0. -1.
          2    1    1    2  502    0 -0.49879415646E+01  0.41537616670E+02  0.69587730799E+02  0.81195476706E+02  0.00000000000E+00 0. -1.
         -2    1    1    2    0  502  0.49879415646E+01 -0.41537616670E+02  0.87762498125E+02  0.97224015741E+02  0.00000000000E+00 0. -1.
<mgrwt>
<rscale>  2 0.41836027E+02</rscale>
<asrwt>0</asrwt>
<pdfrwt beam="2">  1        2 0.16207127E-02 0.41836027E+02</pdfrwt>
<pdfrwt beam="1">  1       -2 0.25828438E-01 0.41836027E+02</pdfrwt>
<totfact> 0.72008523E+04</totfact>
</mgrwt>
</event>
<event>
 4    1  0.1474645E+004  0.2149314E+02  0.7546771E-02  0.1717168E+00
         -2   -1    0    0    0  501 -0.00000000000E+00  0.00000000000E+00  0.49021888688E+02  0.49021888688E+02  0.00000000000E+00 0.  1.
          2   -1    0    0  501    0  0.00000000000E+00 -0.00000000000E+00 -0.10252711078E+03  0.10252711078E+03  0.00000000000E+00 0. -1.
          2    1    1    2  502    0 -0.73483056315E+01  0.20197961530E+02 -0.98960907707E+02  0.10126804284E+03  0.00000000000E+00 0. -1.
         -2    1    1    2    0  502  0.73483056315E+01 -0.20197961530E+02  0.45455685612E+02  0.50280956635E+02  0.00000000000E+00 0.  1.
<mgrwt>
<rscale>  2 0.21493144E+02</rscale>
<asrwt>0</asrwt>
<pdfrwt beam="2">  1        2 0.15773402E-01 0.21493144E+02</pdfrwt>
<pdfrwt beam="1">  1       -2 0.75418291E-02 0.21493144E+02</pdfrwt>
<totfact> 0.26477083E+04</totfact>
</mgrwt>
</event>
<event>
 4    1  0.1474645E+004  0.2133320E+02  0.7546771E-02  0.1720046E+00
         -2   -1    0    0    0  501 -0.00000000000E+00  0.00000000000E+00  0.86573917275E+02  0.86573917275E+02  0.00000000000E+00 0.  1.
          2   -1    0    0  501    0  0.00000000000E+00 -0.00000000000E+00 -0.22971204675E+03  0.22971204675E+03  0.00000000000E+00 0.  1.
          2    1    1    2  502    0  0.20791679199E+02 -0.47761364727E+01 -0.22789206376E+03  0.22888839666E+03  0.00000000000E+00 0.  1.
         -2    1    1    2    0  502 -0.20791679199E+02  0.47761364727E+01  0.84753934285E+02  0.87397567359E+02  0.00000000000E+00 0.  1.
<mgrwt>
<rscale>  2 0.21333200E+02</rscale>
<asrwt>0</asrwt>
<pdfrwt beam="2">  1        2 0.35340314E-01 0.21333200E+02</pdfrwt>
<pdfrwt beam="1">  1       -2 0.13319064E-01 0.21333200E+02</pdfrwt>
<totfact> 0.49170392E+03</totfact>
</mgrwt>
</event>
<event>
 4    1  0.1474645E+004  0.3002037E+02  0.7546771E-02  0.1597864E+00
          2   -1    0    0  501    0  0.00000000000E+00  0.00000000000E+00  0.37569700159E+02  0.37569700159E+02  0.00000000000E+00 0. -1.
         -2   -1    0    0    0  501 -0.00000000000E+00 -0.00000000000E+00 -0.48067040858E+02  0.48067040858E+02  0.00000000000E+00 0. -1.
          2    1    1    2  502    0  0.19249158738E+02  0.23036761027E+02  0.25057140865E+02  0.39103488068E+02  0.00000000000E+00 0. -1.
         -2    1    1    2    0  502 -0.19249158738E+02 -0.23036761027E+02 -0.35554481564E+02  0.46533252949E+02  0.00000000000E+00 0. -1.
<mgrwt>
<rscale>  2 0.30020368E+02</rscale>
<asrwt>0</asrwt>
<pdfrwt beam="1">  1        2 0.57799538E-02 0.30020368E+02</pdfrwt>
<pdfrwt beam="2">  1       -2 0.73949294E-02 0.30020368E+02</pdfrwt>
<totfact> 0.93699371E+04</totfact>
</mgrwt>
</event>
<event>
 4    1  0.1474645E+004  0.2204427E+02  0.7546771E-02  0.1707488E+00
         -2   -1    0    0    0  501 -0.00000000000E+00  0.00000000000E+00  0.21234442365E+02  0.21234442365E+02  0.00000000000E+00 0. -1.
          2   -1    0    0  501    0  0.00000000000E+00 -0.00000000000E+00 -0.78607708326E+03  0.78607708326E+03  0.00000000000E+00 0.  1.
          2    1    1    2  502    0  0.21908534924E+02 -0.24425070085E+01 -0.78015789037E+03  0.78046927144E+03  0.00000000000E+00 0.  1.
         -2    1    1    2    0  502 -0.21908534924E+02  0.24425070085E+01  0.15315249483E+02  0.26842254185E+02  0.00000000000E+00 0. -1.
<mgrwt>
<rscale>  2 0.22044268E+02</rscale>
<asrwt>0</asrwt>
<pdfrwt beam="2">  1        2 0.12093491E+00 0.22044268E+02</pdfrwt>
<pdfrwt beam="1">  1       -2 0.32668379E-02 0.22044268E+02</pdfrwt>
<totfact> 0.10856373E+04</totfact>
</mgrwt>
</event>
<event>
 4    1  0.1474645E+004  0.4156913E+02  0.7546771E-02  0.1496972E+00
          2   -1    0    0  501    0  0.00000000000E+00  0.00000000000E+00  0.87729934618E+02  0.87729934618E+02  0.00000000000E+00 0. -1.
         -2   -1    0    0    0  501 -0.00000000000E+00 -0.00000000000E+00 -0.19703092451E+02  0.19703092451E+02  0.00000000000E+00 0.  1.
          2    1    1    2  502    0  0.41402970297E+02  0.37130262092E+01  0.34978978457E+02  0.54327906705E+02  0.00000000000E+00 0. -1.
         -2    1    1    2    0  502 -0.41402970297E+02 -0.37130262092E+01  0.33047863710E+02  0.53105120364E+02  0.00000000000E+00 0.  1.
<mgrwt>
<rscale>  2 0.41569129E+02</rscale>
<asrwt>0</asrwt>
<pdfrwt beam="1">  1        2 0.13496913E-01 0.41569129E+02</pdfrwt>
<pdfrwt beam="2">  1       -2 0.30312450E-02 0.41569129E+02</pdfrwt>
<totfact> 0.13309298E+05</totfact>
</mgrwt>
</event>
<event>
 4    1  0.1474645E+004  0.2184455E+02  0.7546771E-02  0.1710954E+00
          2   -1    0    0  501    0  0.00000000000E+00  0.00000000000E+00  0.34059346702E+03  0.34059346702E+03  0.00000000000E+00 0.  1.
         -2   -1    0    0    0  501 -0.00000000000E+00 -0.00000000000E+00 -0.11062629317E+04  0.11062629317E+04  0.00000000000E+00 0.  1.
          2    1    1    2  502    0  0.21024542176E+02 -0.59289866249E+01  0.34013522550E+03  0.34083596623E+03  0.00000000000E+00 0.  1.
         -2    1    1    2    0  502 -0.21024542176E+02  0.59289866249E+01 -0.11058046902E+04  0.11060204325E+04  0.00000000000E+00 0.  1.
<mgrwt>
<rscale>  2 0.21844548E+02</rscale>
<asrwt>0</asrwt>
<pdfrwt beam="1">  1        2 0.52398995E-01 0.21844548E+02</pdfrwt>
<pdfrwt beam="2">  1       -2 0.17019430E+00 0.21844548E+02</pdfrwt>
<totfact> 0.24743081E+01</totfact>
</mgrwt>
</event>
<event>
 4    1  0.1474645E+004  0.5039058E+02  0.7546771E-02  0.1443246E+00
         -2   -1    0    0    0  501 -0.00000000000E+00  0.00000000000E+00  0.49913669536E+02  0.49913669536E+02  0.00000000000E+00 0.  1.
          2   -1    0    0  501    0  0.00000000000E+00 -0.00000000000E+00 -0.19045465514E+04  0.19045465514E+04  0.00000000000E+00 0. -1.
          2    1    1    2  502    0  0.45778062571E+02 -0.21061325193E+02 -0.18914068944E+04  0.18920780245E+04  0.00000000000E+00 0. -1.
         -2    1    1    2    0  502 -0.45778062571E+02  0.21061325193E+02  0.36774012578E+02  0.62382196441E+02  0.00000000000E+00 0.  1.
<mgrwt>
<rscale>  2 0.50390579E+02</rscale>
<asrwt>0</asrwt>
<pdfrwt beam="2">  1        2 0.29300712E+00 0.50390579E+02</pdfrwt>
<pdfrwt beam="1">  1       -2 0.76790270E-02 0.50390579E+02</pdfrwt>
<totfact> 0.88107683E+02</totfact>
</mgrwt>
</event>
<event>
 4    1  0.1474645E+004  0.2328146E+02  0.7546771E-02  0.1686988E+00
          2   -1    0    0  501    0  0.00000000000E+00  0.00000000000E+00  0.59543423366E+03  0.59543423366E+03  0.00000000000E+00 0. -1.
         -2   -1    0    0    0  501 -0.00000000000E+00 -0.00000000000E+00 -0.20322320088E+02  0.20322320088E+02  0.00000000000E+00 0.  1.
          2    1    1    2  502    0  0.21371190183E+02  0.92357235523E+01  0.58845979061E+03  0.58892015717E+03  0.00000000000E+00 0. -1.
         -2    1    1    2    0  502 -0.21371190183E+02 -0.92357235523E+01 -0.13347877043E+02  0.26836396571E+02  0.00000000000E+00 0.  1.
<mgrwt>
<rscale>  2 0.23281460E+02</rscale>
<asrwt>0</asrwt>
<pdfrwt beam="1">  1        2 0.91605254E-01 0.23281460E+02</pdfrwt>
<pdfrwt beam="2">  1       -2 0.31265112E-02 0.23281460E+02</pdfrwt>
<totfact> 0.15691501E+04</totfact>
</mgrwt>
</event>
<event>
 4    1  0.1474645E+004  0.2028143E+02  0.7546771E-02  0.1739789E+00
          2   -1    0    0  501    0  0.00000000000E+00  0.00000000000E+00  0.14244802360E+04  0.14244802360E+04  0.00000000000E+00 0. -1.
         -2   -1    0    0    0  501 -0.00000000000E+00 -0.00000000000E+00 -0.10757482472E+01  0.10757482472E+01  0.00000000000E+00 0.  1.
          2    1    1    2  502    0 -0.14073452258E+02  0.14603910534E+02  0.13213548478E+04  0.13215104880E+04  0.00000000000E+00 0. -1.
         -2    1    1    2    0  502  0.14073452258E+02 -0.14603910534E+02  0.10204963996E+03  0.10404549619E+03  0.00000000000E+00 0.  1.
<mgrwt>
<rscale>  2 0.20281427E+02</rscale>
<asrwt>0</asrwt>
<pdfrwt beam="1">  1        2 0.21914930E+00 0.20281427E+02</pdfrwt>
<pdfrwt beam="2">  1       -2 0.16550087E-03 0.20281427E+02</pdfrwt>
<totfact> 0.27306311E+05</totfact>
</mgrwt>
</event>
<event>
 4    1  0.1474645E+004  0.3015672E+02  0.7546771E-02  0.1596363E+00
         -2   -1    0    0    0  501 -0.00000000000E+00  0.00000000000E+00  0.15955083673E+02  0.15955083673E+02  0.00000000000E+00 0. -1.
          2   -1    0    0  501    0  0.00000000000E+00 -0.00000000000E+00 -0.46269731011E+03  0.46269731011E+03  0.00000000000E+00 0. -1.
          2    1    1    2  502    0 -0.13652070724E+02 -0.26889564693E+02 -0.44747181696E+03  0.44848685008E+03  0.00000000000E+00 0. -1.
         -2    1    1    2    0  502  0.13652070724E+02  0.26889564693E+02  0.72959052209E+00  0.30165543701E+02  0.00000000000E+00 0. -1.
<mgrwt>
<rscale>  2 0.30156719E+02</rscale>
<asrwt>0</asrwt>
<pdfrwt beam="2">  1        2 0.71184200E-01 0.30156719E+02</pdfrwt>
<pdfrwt beam="1">  1       -2 0.24546283E-02 0.30156719E+02</pdfrwt>
<totfact> 0.29666298E+04</totfact>
</mgrwt>
</event>
<event>
 4    1  0.1474645E+004  0.3763241E+02  0.7546771E-02  0.1526394E+00
         -2   -1    0    0    0  501 -0.00000000000E+00  0.00000000000E+00  0.19800638032E+02  0.19800638032E+02  0.00000000000E+00 0.  1.
          2   -1    0    0  501    0  0.00000000000E+00 -0.00000000000E+00 -0.26046723232E+03  0.26046723232E+03  0.00000000000E+00 0.  1.
          2    1    1    2  502    0 -0.20774569633E+02 -0.31378582230E+02 -0.23968641163E+03  0.24262269903E+03  0.00000000000E+00 0.  1.
         -2    1    1    2    0  502  0.20774569633E+02  0.31378582230E+02 -0.98018266610E+00  0.37645171327E+02  0.00000000000E+00 0.  1.
<mgrwt>
<rscale>  2 0.37632408E+02</rscale>
<asrwt>0</asrwt>
<pdfrwt beam="2">  1        2 0.40071880E-01 0.37632408E+02</pdfrwt>
<pdfrwt beam="1">  1       -2 0.30462522E-02 0.37632408E+02</pdfrwt>
<totfact> 0.40530100E+04</totfact>
</mgrwt>
</event>
<event>
 4    1  0.1474645E+004  0.2273565E+02  0.7546771E-02  0.1695831E+00
         -2   -1    0    0    0  501 -0.00000000000E+00  0.00000000000E+00  0.73405973655E+02  0.73405973655E+02  0.00000000000E+00 0.  1.
          2   -1    0    0  501    0  0.00000000000E+00 -0.00000000000E+00 -0.20978625034E+03  0.20978625034E+03  0.00000000000E+00 0.  1.
          2    1    1    2  502    0  0.19079235519E+02  0.12364965353E+02 -0.20738952267E+03  0.20863202945E+03  0.00000000000E+00 0.  1.
         -2    1    1    2    0  502 -0.19079235519E+02 -0.12364965353E+02  0.71009245986E+02  0.74560194552E+02  0.00000000000E+00 0.  1.
<mgrwt>
<rscale>  2 0.22735646E+02</rscale>
<asrwt>0</asrwt>
<pdfrwt beam="2">  1        2 0.32274808E-01 0.22735646E+02</pdfrwt>
<pdfrwt beam="1">  1       -2 0.11293227E-01 0.22735646E+02</pdfrwt>
<totfact> 0.69726036E+03</totfact>
</mgrwt>
</event>
<event>
 4    1  0.1474645E+004  0.2148172E+02  0.7546771E-02  0.1717373E+00
          2   -1    0    0  501    0  0.00000000000E+00  0.00000000000E+00  0.57447672306E+02  0.57447672306E+02  0.00000000000E+00 0.  1.
         -2   -1    0    0    0  501 -0.00000000000E+00 -0.00000000000E+00 -0.14570328475E+03  0.14570328475E+03  0.00000000000E+00 0.  1.
          2    1    1    2  502    0  0.19951363418E+02 -0.79628657999E+01  0.54607998111E+02  0.58681322340E+02  0.00000000000E+00 0.  1.
         -2    1    1    2    0  502 -0.19951363418E+02  0.79628657999E+01 -0.14286361055E+03  0.14446963472E+03  0.00000000000E+00 0.  1.
<mgrwt>
<rscale>  2 0.21481716E+02</rscale>
<asrwt>0</asrwt>
<pdfrwt beam="1">  1        2 0.88381033E-02 0.21481716E+02</pdfrwt>
<pdfrwt beam="2">  1       -2 0.22415890E-01 0.21481716E+02</pdfrwt>
<totfact> 0.95905181E+03</totfact>
</mgrwt>
</event>
<event>
 4    1  0.1474645E+004  0.2007479E+02  0.7546771E-02  0.1743845E+00
          2   -1    0    0  501    0  0.00000000000E+00  0.00000000000E+00  0.66547252974E+02  0.66547252974E+02  0.00000000000E+00 0.  1.
         -2   -1    0    0    0  501 -0.00000000000E+00 -0.00000000000E+00 -0.60558173806E+01  0.60558173806E+01  0.00000000000E+00 0.  1.
          2    1    1    2  502    0 -0.19612042174E+02 -0.42854519455E+01  0.30294057605E+02  0.36341810945E+02  0.00000000000E+00 0.  1.
         -2    1    1    2    0  502  0.19612042174E+02  0.42854519455E+01  0.30197377988E+02  0.36261259410E+02  0.00000000000E+00 0.  1.
<mgrwt>
<rscale>  2 0.20074793E+02</rscale>
<asrwt>0</asrwt>
<pdfrwt beam="1">  1        2 0.10238038E-01 0.20074793E+02</pdfrwt>
<pdfrwt beam="2">  1       -2 0.93166426E-03 0.20074793E+02</pdfrwt>
<totfact> 0.76093529E+05</totfact>
</mgrwt>
</event>
<event>
 4    1  0.1474645E+004  0.2327894E+02  0.7546771E-02  0.1687028E+00
         -2   -1    0    0    0  501 -0.00000000000E+00  0.00000000000E+00  0.28219569896E+01  0.28219569896E+01  0.00000000000E+00 0.  1.
          2   -1    0    0  501    0  0.00000000000E+00 -0.00000000000E+00 -0.14216057242E+04  0.14216057242E+04  0.00000000000E+00 0.  1.
          2    1    1    2  502    0 -0.12651296354E+02 -0.19541077602E+02 -0.13717577264E+04  0.13719552358E+04  0.00000000000E+00 0.  1.
         -2    1    1    2    0  502  0.12651296354E+02  0.19541077602E+02 -0.47026040726E+02  0.52472445338E+02  0.00000000000E+00 0.  1.
<mgrwt>
<rscale>  2 0.23278939E+02</rscale>
<asrwt>0</asrwt>
<pdfrwt beam="2">  1        2 0.21870765E+00 0.23278939E+02</pdfrwt>
<pdfrwt beam="1">  1       -2 0.43414907E-03 0.23278939E+02</pdfrwt>
<totfact> 0.78520643E+04</totfact>
</mgrwt>
</event>
<event>
 4    1  0.1474645E+004  0.3158561E+02  0.7546771E-02  0.1581195E+00
          2   -1    0    0  501    0  0.00000000000E+00  0.00000000000E+00  0.29975206267E+03  0.29975206267E+03  0.00000000000E+00 0.  1.
         -2   -1    0    0    0  501 -0.00000000000E+00 -0.00000000000E+00 -0.20231599958E+03  0.20231599958E+03  0.00000000000E+00 0. -1.
          2    1    1    2  502    0 -0.16500108770E+02 -0.26933201721E+02  0.29767864854E+03  0.29934967637E+03  0.00000000000E+00 0.  1.
         -2    1    1    2    0  502  0.16500108770E+02  0.26933201721E+02 -0.20024258545E+03  0.20271838588E+03  0.00000000000E+00 0. -1.
<mgrwt>
<rscale>  2 0.31585613E+02</rscale>
<asrwt>0</asrwt>
<pdfrwt beam="1">  1        2 0.46115702E-01 0.31585613E+02</pdfrwt>
<pdfrwt beam="2">  1       -2 0.31125538E-01 0.31585613E+02</pdfrwt>
<totfact> 0.98239120E+02</totfact>
</mgrwt>
</event>
<event>
 4    1  0.1474645E+004  0.3937426E+02  0.7546771E-02  0.1512867E+00
          2   -1    0    0  501    0  0.00000000000E+00  0.00000000000E+00  0.75730891933E+03  0.75730891933E+03  0.00000000000E+00 0.  1.
         -2   -1    0    0    0  501 -0.00000000000E+00 -0.00000000000E+00 -0.49626381055E+03  0.49626381055E+03  0.00000000000E+00 0. -1.
          2    1    1    2  502    0  0.27873043104E+02  0.27810533698E+02  0.75601479131E+03  0.75703942895E+03  0.00000000000E+00 0.  1.
         -2    1    1    2    0  502 -0.27873043104E+02 -0.27810533698E+02 -0.49496968253E+03  0.49653330093E+03  0.00000000000E+00 0. -1.
<mgrwt>
<rscale>  2 0.39374260E+02</rscale>
<asrwt>0</asrwt>
<pdfrwt beam="1">  1        2 0.11650907E+00 0.39374260E+02</pdfrwt>
<pdfrwt beam="2">  1       -2 0.76348278E-01 0.39374260E+02</pdfrwt>
<totfact> 0.67030423E+01</totfact>
</mgrwt>
</event>
<event>
 4    1  0.1474645E+004  0.2595239E+02  0.7546771E-02  0.1647688E+00
          2   -1    0    0  501    0  0.00000000000E+00  0.00000000000E+00  0.83414632321E+03  0.83414632321E+03  0.00000000000E+00 0.  1.
         -2   -1    0    0    0  501 -0.00000000000E+00 -0.00000000000E+00 -0.77276995563E+01  0.77276995563E+01  0.00000000000E+00 0.  1.
          2    1    1    2  502    0  0.25405388445E+02 -0.53002411154E+01  0.81154853301E+03  0.81196339065E+03  0.00000000000E+00 0.  1.
         -2    1    1    2    0  502 -0.25405388445E+02  0.53002411154E+01  0.14870090637E+02  0.29910632114E+02  0.00000000000E+00 0.  1.
<mgrwt>
<rscale>  2 0.25952386E+02</rscale>
<asrwt>0</asrwt>
<pdfrwt beam="1">  1        2 0.12833013E+00 0.25952386E+02</pdfrwt>
<pdfrwt beam="2">  1       -2 0.11888775E-02 0.25952386E+02</pdfrwt>
<totfact> 0.41751204E+04</totfact>
</mgrwt>
</event>
<event>
 4    1  0.1474645E+004  0.5759206E+02  0.7546771E-02  0.1408224E+00
          2   -1    0    0  501    0  0.00000000000E+00  0.00000000000E+00  0.70297964303E+02  0.70297964303E+02  0.00000000000E+00 0.  1.
         -2   -1    0    0    0  501 -0.00000000000E+00 -0.00000000000E+00 -0.10330121318E+03  0.10330121318E+03  0.00000000000E+00 0. -1.
          2    1    1    2  502    0 -0.44481382004E+02 -0.36582132717E+02  0.47474531805E+02  0.74636967712E+02  0.00000000000E+00 0.  1.
         -2    1    1    2    0  502  0.44481382004E+02  0.36582132717E+02 -0.80477780681E+02  0.98962209769E+02  0.00000000000E+00 0. -1.
<mgrwt>
<rscale>  2 0.57592064E+02</rscale>
<asrwt>0</asrwt>
<pdfrwt beam="1">  1        2 0.10815071E-01 0.57592064E+02</pdfrwt>
<pdfrwt beam="2">  1       -2 0.15892494E-01 0.57592064E+02</pdfrwt>
<totfact> 0.15252711E+04</totfact>
</mgrwt>
</event>
<event>
 4    1  0.1474645E+004  0.2097542E+02  0.7546771E-02  0.1726599E+00
          2   -1    0    0  501    0  0.00000000000E+00  0.00000000000E+00  0.74683603887E+03  0.74683603887E+03  0.00000000000E+00 0. -1.
         -2   -1    0    0    0  501 -0.00000000000E+00 -0.00000000000E+00 -0.24043728455E+03  0.24043728455E+03  0.00000000000E+00 0. -1.
          2    1    1    2  502    0  0.49904314374E+00  0.20969487208E+02  0.74623092359E+03  0.74652565914E+03  0.00000000000E+00 0. -1.
         -2    1    1    2    0  502 -0.49904314374E+00 -0.20969487208E+02 -0.23983216927E+03  0.24074766427E+03  0.00000000000E+00 0. -1.
<mgrwt>
<rscale>  2 0.20975425E+02</rscale>
<asrwt>0</asrwt>
<pdfrwt beam="1">  1        2 0.11489785E+00 0.20975425E+02</pdfrwt>
<pdfrwt beam="2">  1       -2 0.36990352E-01 0.20975425E+02</pdfrwt>
<totfact> 0.28127533E+02</totfact>
</mgrwt>
</event>
<event>
 4    1  0.1474645E+004  0.2019337E+02  0.7546771E-02  0.1741510E+00
         -2   -1    0    0    0  501 -0.00000000000E+00  0.00000000000E+00  0.39091736486E+00  0.39091736486E+00  0.00000000000E+00 0. -1.
          2   -1    0    0  501    0  0.00000000000E+00 -0.00000000000E+00 -0.10531972743E+04  0.10531972743E+04  0.00000000000E+00 0.  1.
          2    1    1    2  502    0  0.92385381335E+00  0.20172227143E+02 -0.57794247329E+03  0.57829514497E+03  0.00000000000E+00 0.  1.
         -2    1    1    2    0  502 -0.92385381335E+00 -0.20172227143E+02 -0.47486388364E+03  0.47529304670E+03  0.00000000000E+00 0. -1.
<mgrwt>
<rscale>  2 0.20193372E+02</rscale>
<asrwt>0</asrwt>
<pdfrwt beam="2">  1        2 0.16202735E+00 0.20193372E+02</pdfrwt>
<pdfrwt beam="1">  1       -2 0.60142246E-04 0.20193372E+02</pdfrwt>
<totfact> 0.15657464E+06</totfact>
</mgrwt>
</event>
<event>
 4    1  0.1474645E+004  0.2595993E+02  0.7546771E-02  0.1647585E+00
          2   -1    0    0  501    0  0.00000000000E+00  0.00000000000E+00  0.10437254591E+04  0.10437254591E+04  0.00000000000E+00 0.  1.
         -2   -1    0    0    0  501 -0.00000000000E+00 -0.00000000000E+00 -0.11152306367E+02  0.11152306367E+02  0.00000000000E+00 0. -1.
          2    1    1    2  502    0 -0.73341090764E+01 -0.24902387872E+02  0.10282292518E+04  0.10285569077E+04  0.00000000000E+00 0.  1.
         -2    1    1    2    0  502  0.73341090764E+01  0.24902387872E+02  0.43439008935E+01  0.26320857749E+02  0.00000000000E+00 0. -1.
<mgrwt>
<rscale>  2 0.25959932E+02</rscale>
<asrwt>0</asrwt>
<pdfrwt beam="1">  1        2 0.16057307E+00 0.25959932E+02</pdfrwt>
<pdfrwt beam="2">  1       -2 0.17157403E-02 0.25959932E+02</pdfrwt>
<totfact> 0.19236996E+04</totfact>
</mgrwt>
</event>
<event>
 4    1  0.1474645E+004  0.3064480E+02  0.7546771E-02  0.1591069E+00
          2   -1    0    0  501    0  0.00000000000E+00  0.00000000000E+00  0.14922838003E+03  0.14922838003E+03  0.00000000000E+00 0. -1.
         -2   -1    0    0    0  501 -0.00000000000E+00 -0.00000000000E+00 -0.38925572642E+03  0.38925572642E+03  0.00000000000E+00 0. -1.
          2    1    1    2  502    0 -0.19397825643E+02  0.23723995523E+02  0.14704310547E+03  0.15020245827E+03  0.00000000000E+00 0. -1.
         -2    1    1    2    0  502  0.19397825643E+02 -0.23723995523E+02 -0.38707045187E+03  0.38828164818E+03  0.00000000000E+00 0. -1.
<mgrwt>
<rscale>  2 0.30644797E+02</rscale>
<asrwt>0</asrwt>
<pdfrwt beam="1">  1        2 0.22958212E-01 0.30644797E+02</pdfrwt>
<pdfrwt beam="2">  1       -2 0.59885496E-01 0.30644797E+02</pdfrwt>
<totfact> 0.59213159E+02</totfact>
</mgrwt>
</event>
<event>
 4    1  0.1474645E+004  0.6186719E+02  0.7546771E-02  0.1390159E+00
          2   -1    0    0  501    0  0.00000000000E+00  0.00000000000E+00  0.48263583494E+02  0.48263583494E+02  0.00000000000E+00 0.  1.
         -2   -1    0    0    0  501 -0.00000000000E+00 -0.00000000000E+00 -0.95100841013E+02  0.95100841013E+02  0.00000000000E+00 0. -1.
          2    1    1    2  502    0 -0.49024919476E+02  0.37737335189E+02  0.57952331726E+01  0.62138023176E+02  0.00000000000E+00 0.  1.
         -2    1    1    2    0  502  0.49024919476E+02 -0.37737335189E+02 -0.52632490691E+02  0.81226401330E+02  0.00000000000E+00 0. -1.
<mgrwt>
<rscale>  2 0.61867190E+02</rscale>
<asrwt>0</asrwt>
<pdfrwt beam="1">  1        2 0.74251667E-02 0.61867190E+02</pdfrwt>
<pdfrwt beam="2">  1       -2 0.14630899E-01 0.61867190E+02</pdfrwt>
<totfact> 0.27702810E+04</totfact>
</mgrwt>
</event>
<event>
 4    1  0.1474645E+004  0.2035134E+02  0.7546771E-02  0.1738430E+00
          2   -1    0    0  501    0  0.00000000000E+00  0.00000000000E+00  0.40701253122E+01  0.40701253122E+01  0.00000000000E+00 0. -1.
         -2   -1    0    0    0  501 -0.00000000000E+00 -0.00000000000E+00 -0.20562820875E+03  0.20562820875E+03  0.00000000000E+00 0.  1.
          2    1    1    2  502    0  0.20350495481E+02  0.18514807468E+00 -0.26260482622E+02  0.33223333572E+02  0.00000000000E+00 0. -1.
         -2    1    1    2    0  502 -0.20350495481E+02 -0.18514807468E+00 -0.17529760081E+03  0.17647500049E+03  0.00000000000E+00 0.  1.
<mgrwt>
<rscale>  2 0.20351338E+02</rscale>
<asrwt>0</asrwt>
<pdfrwt beam="1">  1        2 0.62617302E-03 0.20351338E+02</pdfrwt>
<pdfrwt beam="2">  1       -2 0.31635114E-01 0.20351338E+02</pdfrwt>
<totfact> 0.14766252E+05</totfact>
</mgrwt>
</event>
<event>
 4    1  0.1474645E+004  0.2013832E+02  0.7546771E-02  0.1742591E+00
          2   -1    0    0  501    0  0.00000000000E+00  0.00000000000E+00  0.57687641448E+02  0.57687641448E+02  0.00000000000E+00 0. -1.
         -2   -1    0    0    0  501 -0.00000000000E+00 -0.00000000000E+00 -0.12975653104E+02  0.12975653104E+02  0.00000000000E+00 0.  1.
          2    1    1    2  502    0  0.17109624381E+02 -0.10621337197E+02  0.46272296529E+02  0.50464616082E+02  0.00000000000E+00 0. -1.
         -2    1    1    2    0  502 -0.17109624381E+02  0.10621337197E+02 -0.15603081843E+01  0.20198678470E+02  0.00000000000E+00 0.  1.
<mgrwt>
<rscale>  2 0.20138323E+02</rscale>
<asrwt>0</asrwt>
<pdfrwt beam="1">  1        2 0.88750216E-02 0.20138323E+02</pdfrwt>
<pdfrwt beam="2">  1       -2 0.19962544E-02 0.20138323E+02</pdfrwt>
<totfact> 0.32008656E+05</totfact>
</mgrwt>
</event>
<event>
 4    1  0.1474645E+004  0.6146252E+02  0.7546771E-02  0.1391795E+00
          2   -1    0    0  501    0  0.00000000000E+00  0.00000000000E+00  0.19821027697E+03  0.19821027697E+03  0.00000000000E+00 0. -1.
         -2   -1    0    0    0  501 -0.00000000000E+00 -0.00000000000E+00 -0.19558617120E+02  0.19558617120E+02  0.00000000000E+00 0. -1.
          2    1    1    2  502    0 -0.39814653194E+02 -0.46823441247E+02  0.10673273486E+03  0.12316459698E+03  0.00000000000E+00 0. -1.
         -2    1    1    2    0  502  0.39814653194E+02  0.46823441247E+02  0.71918924985E+02  0.94604297102E+02  0.00000000000E+00 0. -1.
<mgrwt>
<rscale>  2 0.61462519E+02</rscale>
<asrwt>0</asrwt>
<pdfrwt beam="1">  1        2 0.30493887E-01 0.61462519E+02</pdfrwt>
<pdfrwt beam="2">  1       -2 0.30090182E-02 0.61462519E+02</pdfrwt>
<totfact> 0.59236862E+04</totfact>
</mgrwt>
</event>
<event>
 4    1  0.1474645E+004  0.2254602E+02  0.7546771E-02  0.1698976E+00
          2   -1    0    0  501    0  0.00000000000E+00  0.00000000000E+00  0.56444426705E+00  0.56444426705E+00  0.00000000000E+00 0. -1.
         -2   -1    0    0    0  501 -0.00000000000E+00 -0.00000000000E+00 -0.90108967300E+03  0.90108967300E+03  0.00000000000E+00 0.  1.
          2    1    1    2  502    0  0.21358705684E+02 -0.72200005006E+01 -0.46106808933E+03  0.46161900493E+03  0.00000000000E+00 0. -1.
         -2    1    1    2    0  502 -0.21358705684E+02  0.72200005006E+01 -0.43945713940E+03  0.44003511234E+03  0.00000000000E+00 0.  1.
<mgrwt>
<rscale>  2 0.22546025E+02</rscale>
<asrwt>0</asrwt>
<pdfrwt beam="1">  1        2 0.86838276E-04 0.22546025E+02</pdfrwt>
<pdfrwt beam="2">  1       -2 0.13862807E+00 0.22546025E+02</pdfrwt>
<totfact> 0.10073937E+05</totfact>
</mgrwt>
</event>
<event>
 4    1  0.1474645E+004  0.2002286E+02  0.7546771E-02  0.1744874E+00
         -2   -1    0    0    0  501 -0.00000000000E+00  0.00000000000E+00  0.12232502808E+04  0.12232502808E+04  0.00000000000E+00 0.  1.
          2   -1    0    0  501    0  0.00000000000E+00 -0.00000000000E+00 -0.33699613628E+03  0.33699613628E+03  0.00000000000E+00 0.  1.
          2    1    1    2  502    0  0.79456130554E+01  0.18378849911E+02 -0.33661668959E+03  0.33721167032E+03  0.00000000000E+00 0.  1.
         -2    1    1    2    0  502 -0.79456130554E+01 -0.18378849911E+02  0.12228708341E+04  0.12230347468E+04  0.00000000000E+00 0.  1.
<mgrwt>
<rscale>  2 0.20022859E+02</rscale>
<asrwt>0</asrwt>
<pdfrwt beam="2">  1        2 0.51845560E-01 0.20022859E+02</pdfrwt>
<pdfrwt beam="1">  1       -2 0.18819235E+00 0.20022859E+02</pdfrwt>
<totfact> 0.19364379E+01</totfact>
</mgrwt>
</event>
<event>
 4    1  0.1474645E+004  0.2934981E+02  0.7546771E-02  0.1605389E+00
          2   -1    0    0  501    0  0.00000000000E+00  0.00000000000E+00  0.75769921658E+03  0.75769921658E+03  0.00000000000E+00 0. -1.
         -2   -1    0    0    0  501 -0.00000000000E+00 -0.00000000000E+00 -0.12509896452E+02  0.12509896452E+02  0.00000000000E+00 0. -1.
          2    1    1    2  502    0  0.20177539678E+02 -0.21313806225E+02  0.73978367051E+03  0.74036564656E+03  0.00000000000E+00 0. -1.
         -2    1    1    2    0  502 -0.20177539678E+02  0.21313806225E+02  0.54056496105E+01  0.29843466471E+02  0.00000000000E+00 0. -1.
<mgrwt>
<rscale>  2 0.29349812E+02</rscale>
<asrwt>0</asrwt>
<pdfrwt beam="1">  1        2 0.11656907E+00 0.29349812E+02</pdfrwt>
<pdfrwt beam="2">  1       -2 0.19246001E-02 0.29349812E+02</pdfrwt>
<totfact> 0.24537707E+04</totfact>
</mgrwt>
</event>
<event>
 4    1  0.1474645E+004  0.2542309E+02  0.7546771E-02  0.1654998E+00
          2   -1    0    0  501    0  0.00000000000E+00  0.00000000000E+00  0.63848718458E+03  0.63848718458E+03  0.00000000000E+00 0.  1.
         -2   -1    0    0    0  501 -0.00000000000E+00 -0.00000000000E+00 -0.28130809122E+01  0.28130809122E+01  0.00000000000E+00 0.  1.
          2    1    1    2  502    0 -0.12983004258E+02 -0.21858068767E+02  0.57438708479E+03  0.57494943842E+03  0.00000000000E+00 0.  1.
         -2    1    1    2    0  502  0.12983004258E+02  0.21858068767E+02  0.61287018876E+02  0.66350827067E+02  0.00000000000E+00 0.  1.
<mgrwt>
<rscale>  2 0.25423091E+02</rscale>
<asrwt>0</asrwt>
<pdfrwt beam="1">  1        2 0.98228682E-01 0.25423091E+02</pdfrwt>
<pdfrwt beam="2">  1       -2 0.43278219E-03 0.25423091E+02</pdfrwt>
<totfact> 0.21910364E+05</totfact>
</mgrwt>
</event>
<event>
 4    1  0.1474645E+004  0.2378706E+02  0.7546771E-02  0.1679061E+00
          2   -1    0    0  501    0  0.00000000000E+00  0.00000000000E+00  0.14153277111E+04  0.14153277111E+04  0.00000000000E+00 0.  1.
         -2   -1    0    0    0  501 -0.00000000000E+00 -0.00000000000E+00 -0.97729694872E+01  0.97729694872E+01  0.00000000000E+00 0. -1.
          2    1    1    2  502    0  0.12498862020E+02  0.20238642251E+02  0.14006013765E+04  0.14008033553E+04  0.00000000000E+00 0.  1.
         -2    1    1    2    0  502 -0.12498862020E+02 -0.20238642251E+02  0.49533650811E+01  0.24297325318E+02  0.00000000000E+00 0. -1.
<mgrwt>
<rscale>  2 0.23787059E+02</rscale>
<asrwt>0</asrwt>
<pdfrwt beam="1">  1        2 0.21774256E+00 0.23787059E+02</pdfrwt>
<pdfrwt beam="2">  1       -2 0.15035349E-02 0.23787059E+02</pdfrwt>
<totfact> 0.14833830E+04</totfact>
</mgrwt>
</event>
<event>
 4    1  0.1474645E+004  0.2076913E+02  0.7546771E-02  0.1730452E+00
          2   -1    0    0  501    0  0.00000000000E+00  0.00000000000E+00  0.42773940822E+03  0.42773940822E+03  0.00000000000E+00 0.  1.
         -2   -1    0    0    0  501 -0.00000000000E+00 -0.00000000000E+00 -0.68457217305E+01  0.68457217305E+01  0.00000000000E+00 0.  1.
          2    1    1    2  502    0 -0.20647081522E+02  0.22482749281E+01  0.41109720539E+03  0.41162151183E+03  0.00000000000E+00 0.  1.
         -2    1    1    2    0  502  0.20647081522E+02 -0.22482749281E+01  0.97964810973E+01  0.22963618126E+02  0.00000000000E+00 0.  1.
<mgrwt>
<rscale>  2 0.20769129E+02</rscale>
<asrwt>0</asrwt>
<pdfrwt beam="1">  1        2 0.65806042E-01 0.20769129E+02</pdfrwt>
<pdfrwt beam="2">  1       -2 0.10531883E-02 0.20769129E+02</pdfrwt>
<totfact> 0.94950963E+04</totfact>
</mgrwt>
</event>
<event>
 4    1  0.1474645E+004  0.2102220E+02  0.7546771E-02  0.1725733E+00
          2   -1    0    0  501    0  0.00000000000E+00  0.00000000000E+00  0.30037256271E+03  0.30037256271E+03  0.00000000000E+00 0.  1.
         -2   -1    0    0    0  501 -0.00000000000E+00 -0.00000000000E+00 -0.17293256824E+02  0.17293256824E+02  0.00000000000E+00 0. -1.
          2    1    1    2  502    0 -0.15728185692E+02 -0.13948371277E+02  0.29346576871E+03  0.29421775999E+03  0.00000000000E+00 0.  1.
         -2    1    1    2    0  502  0.15728185692E+02  0.13948371277E+02 -0.10386462826E+02  0.23448059546E+02  0.00000000000E+00 0. -1.
<mgrwt>
<rscale>  2 0.21022200E+02</rscale>
<asrwt>0</asrwt>
<pdfrwt beam="1">  1        2 0.46211160E-01 0.21022200E+02</pdfrwt>
<pdfrwt beam="2">  1       -2 0.26605013E-02 0.21022200E+02</pdfrwt>
<totfact> 0.38131614E+04</totfact>
</mgrwt>
</event>
<event>
 4    1  0.1474645E+004  0.2694528E+02  0.7546771E-02  0.1634537E+00
         -2   -1    0    0    0  501 -0.00000000000E+00  0.00000000000E+00  0.31731913123E+01  0.31731913123E+01  0.00000000000E+00 0. -1.
          2   -1    0    0  501    0  0.00000000000E+00 -0.00000000000E+00 -0.10719628073E+04  0.10719628073E+04  0.00000000000E+00 0. -1.
          2    1    1    2  502    0 -0.63246236114E+01 -0.26192505715E+02 -0.10111522494E+04  0.10115112059E+04  0.00000000000E+00 0. -1.
         -2    1    1    2    0  502  0.63246236114E+01  0.26192505715E+02 -0.57637366629E+02  0.63624792742E+02  0.00000000000E+00 0. -1.
<mgrwt>
<rscale>  2 0.26945282E+02</rscale>
<asrwt>0</asrwt>
<pdfrwt beam="2">  1        2 0.16491770E+00 0.26945282E+02</pdfrwt>
<pdfrwt beam="1">  1       -2 0.48818224E-03 0.26945282E+02</pdfrwt>
<totfact> 0.10313408E+05</totfact>
</mgrwt>
</event>
<event>
 4    1  0.1474645E+004  0.2655936E+02  0.7546771E-02  0.1639564E+00
         -2   -1    0    0    0  501 -0.00000000000E+00  0.00000000000E+00  0.12451421122E+03  0.12451421122E+03  0.00000000000E+00 0.  1.
          2   -1    0    0  501    0  0.00000000000E+00 -0.00000000000E+00 -0.18626439280E+02  0.18626439280E+02  0.00000000000E+00 0.  1.
          2    1    1    2  502    0 -0.14966297912E+01  0.26517159545E+02 -0.67584192176E+01  0.27405763653E+02  0.00000000000E+00 0.  1.
         -2    1    1    2    0  502  0.14966297912E+01 -0.26517159545E+02  0.11264619115E+03  0.11573488684E+03  0.00000000000E+00 0.  1.
<mgrwt>
<rscale>  2 0.26559361E+02</rscale>
<asrwt>0</asrwt>
<pdfrwt beam="2">  1        2 0.28656061E-02 0.26559361E+02</pdfrwt>
<pdfrwt beam="1">  1       -2 0.19156032E-01 0.26559361E+02</pdfrwt>
<totfact> 0.51095598E+04</totfact>
</mgrwt>
</event>
<event>
 4    1  0.1474645E+004  0.2558074E+02  0.7546771E-02  0.1652798E+00
          2   -1    0    0  501    0  0.00000000000E+00  0.00000000000E+00  0.70385120469E+03  0.70385120469E+03  0.00000000000E+00 0.  1.
         -2   -1    0    0    0  501 -0.00000000000E+00 -0.00000000000E+00 -0.21630329932E+02  0.21630329932E+02  0.00000000000E+00 0.  1.
          2    1    1    2  502    0  0.11338429137E+02 -0.22930641455E+02  0.69597000504E+03  0.69643996310E+03  0.00000000000E+00 0.  1.
         -2    1    1    2    0  502 -0.11338429137E+02  0.22930641455E+02 -0.13749130280E+02  0.29041571519E+02  0.00000000000E+00 0.  1.
<mgrwt>
<rscale>  2 0.25580741E+02</rscale>
<asrwt>0</asrwt>
<pdfrwt beam="1">  1        2 0.10828478E+00 0.25580741E+02</pdfrwt>
<pdfrwt beam="2">  1       -2 0.33277436E-02 0.25580741E+02</pdfrwt>
<totfact> 0.12194502E+04</totfact>
</mgrwt>
</event>
<event>
 4    1  0.1474645E+004  0.2507134E+02  0.7546771E-02  0.1659979E+00
          2   -1    0    0  501    0  0.00000000000E+00  0.00000000000E+00  0.89063114036E+03  0.89063114036E+03  0.00000000000E+00 0. -1.
         -2   -1    0    0    0  501 -0.00000000000E+00 -0.00000000000E+00 -0.11450242545E+01  0.11450242545E+01  0.00000000000E+00 0.  1.
          2    1    1    2  502    0  0.40722926280E+01  0.24738397180E+02  0.72091619787E+03  0.72135201962E+03  0.00000000000E+00 0. -1.
         -2    1    1    2    0  502 -0.40722926280E+01 -0.24738397180E+02  0.16856991823E+03  0.17042414499E+03  0.00000000000E+00 0.  1.
<mgrwt>
<rscale>  2 0.25071335E+02</rscale>
<asrwt>0</asrwt>
<pdfrwt beam="1">  1        2 0.13701962E+00 0.25071335E+02</pdfrwt>
<pdfrwt beam="2">  1       -2 0.17615829E-03 0.25071335E+02</pdfrwt>
<totfact> 0.49927324E+05</totfact>
</mgrwt>
</event>
<event>
 4    1  0.1474645E+004  0.7607427E+02  0.7546771E-02  0.1340576E+00
          2   -1    0    0  501    0  0.00000000000E+00  0.00000000000E+00  0.28658113549E+03  0.28658113549E+03  0.00000000000E+00 0. -1.
         -2   -1    0    0    0  501 -0.00000000000E+00 -0.00000000000E+00 -0.22183705163E+02  0.22183705163E+02  0.00000000000E+00 0. -1.
          2    1    1    2  502    0 -0.31660507345E+02 -0.69172978920E+02  0.85966066081E+02  0.11479308888E+03  0.00000000000E+00 0. -1.
         -2    1    1    2    0  502  0.31660507345E+02  0.69172978920E+02  0.17843136425E+03  0.19397175177E+03  0.00000000000E+00 0. -1.
<mgrwt>
<rscale>  2 0.76074270E+02</rscale>
<asrwt>0</asrwt>
<pdfrwt beam="1">  1        2 0.44089403E-01 0.76074270E+02</pdfrwt>
<pdfrwt beam="2">  1       -2 0.34128779E-02 0.76074270E+02</pdfrwt>
<totfact> 0.34635947E+04</totfact>
</mgrwt>
</event>
<event>
 4    1  0.1474645E+004  0.2190180E+02  0.7546771E-02  0.1709956E+00
          2   -1    0    0  501    0  0.00000000000E+00  0.00000000000E+00  0.12396521238E+04  0.12396521238E+04  0.00000000000E+00 0.  1.
         -2   -1    0    0    0  501 -0.00000000000E+00 -0.00000000000E+00 -0.22155451856E+01  0.22155451856E+01  0.00000000000E+00 0.  1.
          2    1    1    2  502    0  0.75310560758E+01  0.20566283049E+02  0.11828276242E+04  0.11830303789E+04  0.00000000000E+00 0.  1.
         -2    1    1    2    0  502 -0.75310560758E+01 -0.20566283049E+02  0.54608954464E+02  0.58837290146E+02  0.00000000000E+00 0.  1.
<mgrwt>
<rscale>  2 0.21901799E+02</rscale>
<asrwt>0</asrwt>
<pdfrwt beam="1">  1        2 0.19071516E+00 0.21901799E+02</pdfrwt>
<pdfrwt beam="2">  1       -2 0.34085410E-03 0.21901799E+02</pdfrwt>
<totfact> 0.13123174E+05</totfact>
</mgrwt>
</event>
<event>
 4    1  0.1474645E+004  0.2433254E+02  0.7546771E-02  0.1670778E+00
         -2   -1    0    0    0  501 -0.00000000000E+00  0.00000000000E+00  0.11159036785E+02  0.11159036785E+02  0.00000000000E+00 0. -1.
          2   -1    0    0  501    0  0.00000000000E+00 -0.00000000000E+00 -0.69071643064E+02  0.69071643064E+02  0.00000000000E+00 0.  1.
          2    1    1    2  502    0  0.23097844788E+02 -0.76525708398E+01 -0.48272000559E+02  0.54057916278E+02  0.00000000000E+00 0.  1.
         -2    1    1    2    0  502 -0.23097844788E+02  0.76525708398E+01 -0.96406057202E+01  0.26172763571E+02  0.00000000000E+00 0. -1.
<mgrwt>
<rscale>  2 0.24332535E+02</rscale>
<asrwt>0</asrwt>
<pdfrwt beam="2">  1        2 0.10626407E-01 0.24332535E+02</pdfrwt>
<pdfrwt beam="1">  1       -2 0.17167749E-02 0.24332535E+02</pdfrwt>
<totfact> 0.33831092E+05</totfact>
</mgrwt>
</event>
<event>
 4    1  0.1474645E+004  0.3273518E+02  0.7546771E-02  0.1569684E+00
          2   -1    0    0  501    0  0.00000000000E+00  0.00000000000E+00  0.43719407862E+03  0.43719407862E+03  0.00000000000E+00 0.  1.
         -2   -1    0    0    0  501 -0.00000000000E+00 -0.00000000000E+00 -0.41109349812E+02  0.41109349812E+02  0.00000000000E+00 0. -1.
          2    1    1    2  502    0 -0.24350630389E+02 -0.21877814806E+02  0.42995503317E+03  0.43119939996E+03  0.00000000000E+00 0.  1.
         -2    1    1    2    0  502  0.24350630389E+02  0.21877814806E+02 -0.33870304358E+02  0.47104028472E+02  0.00000000000E+00 0. -1.
<mgrwt>
<rscale>  2 0.32735180E+02</rscale>
<asrwt>0</asrwt>
<pdfrwt beam="1">  1        2 0.67260624E-01 0.32735180E+02</pdfrwt>
<pdfrwt beam="2">  1       -2 0.63245157E-02 0.32735180E+02</pdfrwt>
<totfact> 0.82684209E+03</totfact>
</mgrwt>
</event>
<event>
 4    1  0.1474645E+004  0.2578849E+02  0.7546771E-02  0.1649928E+00
         -2   -1    0    0    0  501 -0.00000000000E+00  0.00000000000E+00  0.11847825401E+03  0.11847825401E+03  0.00000000000E+00 0. -1.
          2   -1    0    0  501    0  0.00000000000E+00 -0.00000000000E+00 -0.77396578970E+02  0.77396578970E+02  0.00000000000E+00 0. -1.
          2    1    1    2  502    0 -0.15761243251E+02  0.20411508480E+02 -0.73778251890E+02  0.78155466342E+02  0.00000000000E+00 0. -1.
         -2    1    1    2    0  502  0.15761243251E+02 -0.20411508480E+02  0.11485992693E+03  0.11771936664E+03  0.00000000000E+00 0. -1.
<mgrwt>
<rscale>  2 0.25788495E+02</rscale>
<asrwt>0</asrwt>
<pdfrwt beam="2">  1        2 0.11907166E-01 0.25788495E+02</pdfrwt>
<pdfrwt beam="1">  1       -2 0.18227424E-01 0.25788495E+02</pdfrwt>
<totfact> 0.97959804E+03</totfact>
</mgrwt>
</event>
<event>
 4    1  0.1474645E+004  0.4264721E+02  0.7546771E-02  0.1489588E+00
          2   -1    0    0  501    0  0.00000000000E+00  0.00000000000E+00  0.10293399140E+04  0.10293399140E+04  0.00000000000E+00 0.  1.
         -2   -1    0    0    0  501 -0.00000000000E+00 -0.00000000000E+00 -0.18195899758E+01  0.18195899758E+01  0.00000000000E+00 0.  1.
          2    1    1    2  502    0 -0.54078559523E+01 -0.42302953653E+02  0.60145952689E+03  0.60296960726E+03  0.00000000000E+00 0.  1.
         -2    1    1    2    0  502  0.54078559523E+01  0.42302953653E+02  0.42606079709E+03  0.42818989667E+03  0.00000000000E+00 0.  1.
<mgrwt>
<rscale>  2 0.42647213E+02</rscale>
<asrwt>0</asrwt>
<pdfrwt beam="1">  1        2 0.15835952E+00 0.42647213E+02</pdfrwt>
<pdfrwt beam="2">  1       -2 0.27993774E-03 0.42647213E+02</pdfrwt>
<totfact> 0.25290772E+05</totfact>
</mgrwt>
</event>
<event>
 4    1  0.1474645E+004  0.2219990E+02  0.7546771E-02  0.1704818E+00
          2   -1    0    0  501    0  0.00000000000E+00  0.00000000000E+00  0.13482581981E+02  0.13482581981E+02  0.00000000000E+00 0.  1.
         -2   -1    0    0    0  501 -0.00000000000E+00 -0.00000000000E+00 -0.39497801799E+02  0.39497801799E+02  0.00000000000E+00 0.  1.
          2    1    1    2  502    0  0.22054607885E+02  0.25357156613E+01 -0.57750892883E+01  0.22938771527E+02  0.00000000000E+00 0.  1.
         -2    1    1    2    0  502 -0.22054607885E+02 -0.25357156613E+01 -0.20240130529E+02  0.30041612253E+02  0.00000000000E+00 0.  1.
<mgrwt>
<rscale>  2 0.22199901E+02</rscale>
<asrwt>0</asrwt>
<pdfrwt beam="1">  1        2 0.20742434E-02 0.22199901E+02</pdfrwt>
<pdfrwt beam="2">  1       -2 0.60765848E-02 0.22199901E+02</pdfrwt>
<totfact> 0.41543979E+05</totfact>
</mgrwt>
</event>
<event>
 4    1  0.1474645E+004  0.2071702E+02  0.7546771E-02  0.1731434E+00
         -2   -1    0    0    0  501 -0.00000000000E+00  0.00000000000E+00  0.15161125556E+01  0.15161125556E+01  0.00000000000E+00 0. -1.
          2   -1    0    0  501    0  0.00000000000E+00 -0.00000000000E+00 -0.80747871792E+03  0.80747871792E+03  0.00000000000E+00 0.  1.
          2    1    1    2  502    0  0.12929886679E+02 -0.16186818879E+02 -0.72895098828E+03  0.72924532113E+03  0.00000000000E+00 0.  1.
         -2    1    1    2    0  502 -0.12929886679E+02  0.16186818879E+02 -0.77011617080E+02  0.79749509342E+02  0.00000000000E+00 0. -1.
<mgrwt>
<rscale>  2 0.20717024E+02</rscale>
<asrwt>0</asrwt>
<pdfrwt beam="2">  1        2 0.12422760E+00 0.20717024E+02</pdfrwt>
<pdfrwt beam="1">  1       -2 0.23324790E-03 0.20717024E+02</pdfrwt>
<totfact> 0.36594128E+05</totfact>
</mgrwt>
</event>
<event>
 4    1  0.1474645E+004  0.2402402E+02  0.7546771E-02  0.1675429E+00
          2   -1    0    0  501    0  0.00000000000E+00  0.00000000000E+00  0.15976547675E+04  0.15976547675E+04  0.00000000000E+00 0.  1.
         -2   -1    0    0    0  501 -0.00000000000E+00 -0.00000000000E+00 -0.44093634406E+00  0.44093634406E+00  0.00000000000E+00 0.  1.
          2    1    1    2  502    0 -0.87614966757E+01  0.22369389401E+02  0.11382914163E+04  0.11385449055E+04  0.00000000000E+00 0.  1.
         -2    1    1    2    0  502  0.87614966757E+01 -0.22369389401E+02  0.45892241488E+03  0.45955079837E+03  0.00000000000E+00 0.  1.
<mgrwt>
<rscale>  2 0.24024017E+02</rscale>
<asrwt>0</asrwt>
<pdfrwt beam="1">  1        2 0.24578841E+00 0.24024017E+02</pdfrwt>
<pdfrwt beam="2">  1       -2 0.67837640E-04 0.24024017E+02</pdfrwt>
<totfact> 0.76389916E+05</totfact>
</mgrwt>
</event>
<event>
 4    1  0.1474645E+004  0.2598322E+02  0.7546771E-02  0.1647268E+00
         -2   -1    0    0    0  501 -0.00000000000E+00  0.00000000000E+00  0.21914938510E+03  0.21914938510E+03  0.00000000000E+00 0. -1.
          2   -1    0    0  501    0  0.00000000000E+00 -0.00000000000E+00 -0.38056405249E+03  0.38056405249E+03  0.00000000000E+00 0. -1.
          2    1    1    2  502    0 -0.19474507348E+02 -0.17200907881E+02 -0.37934791336E+03  0.38023672500E+03  0.00000000000E+00 0. -1.
         -2    1    1    2    0  502  0.19474507348E+02  0.17200907881E+02  0.21793324597E+03  0.21947671259E+03  0.00000000000E+00 0. -1.
<mgrwt>
<rscale>  2 0.25983219E+02</rscale>
<asrwt>0</asrwt>
<pdfrwt beam="2">  1        2 0.58548315E-01 0.25983219E+02</pdfrwt>
<pdfrwt beam="1">  1       -2 0.33715290E-01 0.25983219E+02</pdfrwt>
<totfact> 0.66691045E+02</totfact>
</mgrwt>
</event>
<event>
 4    1  0.1474645E+004  0.2264395E+02  0.7546771E-02  0.1697347E+00
         -2   -1    0    0    0  501 -0.00000000000E+00  0.00000000000E+00  0.20922976887E+01  0.20922976887E+01  0.00000000000E+00 0.  1.
          2   -1    0    0  501    0  0.00000000000E+00 -0.00000000000E+00 -0.80818919447E+03  0.80818919447E+03  0.00000000000E+00 0. -1.
          2    1    1    2  502    0 -0.74977932279E+01 -0.21366603595E+02 -0.74123127440E+03  0.74157707004E+03  0.00000000000E+00 0. -1.
         -2    1    1    2    0  502  0.74977932279E+01  0.21366603595E+02 -0.64865622377E+02  0.68704422119E+02  0.00000000000E+00 0.  1.
<mgrwt>
<rscale>  2 0.22643954E+02</rscale>
<asrwt>0</asrwt>
<pdfrwt beam="2">  1        2 0.12433702E+00 0.22643954E+02</pdfrwt>
<pdfrwt beam="1">  1       -2 0.32189138E-03 0.22643954E+02</pdfrwt>
<totfact> 0.24415505E+05</totfact>
</mgrwt>
</event>
<event>
 4    1  0.1474645E+004  0.3558161E+02  0.7546771E-02  0.1543496E+00
          2   -1    0    0  501    0  0.00000000000E+00  0.00000000000E+00  0.79920835316E+02  0.79920835316E+02  0.00000000000E+00 0.  1.
         -2   -1    0    0    0  501 -0.00000000000E+00 -0.00000000000E+00 -0.70580708858E+02  0.70580708858E+02  0.00000000000E+00 0.  1.
          2    1    1    2  502    0  0.10313701100E+02 -0.34054058276E+02  0.70940210396E+02  0.79363497696E+02  0.00000000000E+00 0.  1.
         -2    1    1    2    0  502 -0.10313701100E+02  0.34054058276E+02 -0.61600083939E+02  0.71138046478E+02  0.00000000000E+00 0.  1.
<mgrwt>
<rscale>  2 0.35581615E+02</rscale>
<asrwt>0</asrwt>
<pdfrwt beam="1">  1        2 0.12295513E-01 0.35581615E+02</pdfrwt>
<pdfrwt beam="2">  1       -2 0.10858571E-01 0.35581615E+02</pdfrwt>
<totfact> 0.22255651E+04</totfact>
</mgrwt>
</event>
<event>
 4    1  0.1474645E+004  0.3681876E+02  0.7546771E-02  0.1533018E+00
          2   -1    0    0  501    0  0.00000000000E+00  0.00000000000E+00  0.77645929690E+03  0.77645929690E+03  0.00000000000E+00 0. -1.
         -2   -1    0    0    0  501 -0.00000000000E+00 -0.00000000000E+00 -0.62413177310E+01  0.62413177310E+01  0.00000000000E+00 0. -1.
          2    1    1    2  502    0  0.19370319354E+02  0.31311527083E+02  0.71724236247E+03  0.71818676368E+03  0.00000000000E+00 0. -1.
         -2    1    1    2    0  502 -0.19370319354E+02 -0.31311527083E+02  0.52975616699E+02  0.64513850953E+02  0.00000000000E+00 0. -1.
<mgrwt>
<rscale>  2 0.36818759E+02</rscale>
<asrwt>0</asrwt>
<pdfrwt beam="1">  1        2 0.11945520E+00 0.36818759E+02</pdfrwt>
<pdfrwt beam="2">  1       -2 0.96020334E-03 0.36818759E+02</pdfrwt>
<totfact> 0.64521467E+04</totfact>
</mgrwt>
</event>
<event>
 4    1  0.1474645E+004  0.2297249E+02  0.7546771E-02  0.1691956E+00
         -2   -1    0    0    0  501 -0.00000000000E+00  0.00000000000E+00  0.39191385853E+02  0.39191385853E+02  0.00000000000E+00 0. -1.
          2   -1    0    0  501    0  0.00000000000E+00 -0.00000000000E+00 -0.31847125389E+02  0.31847125389E+02  0.00000000000E+00 0. -1.
          2    1    1    2  502    0  0.18716883414E+02 -0.13319662046E+02 -0.23312696426E+02  0.32729450597E+02  0.00000000000E+00 0. -1.
         -2    1    1    2    0  502 -0.18716883414E+02  0.13319662046E+02  0.30656956890E+02  0.38309060645E+02  0.00000000000E+00 0. -1.
<mgrwt>
<rscale>  2 0.22972486E+02</rscale>
<asrwt>0</asrwt>
<pdfrwt beam="2">  1        2 0.48995578E-02 0.22972486E+02</pdfrwt>
<pdfrwt beam="1">  1       -2 0.60294439E-02 0.22972486E+02</pdfrwt>
<totfact> 0.14439514E+05</totfact>
</mgrwt>
</event>
<event>
 4    1  0.1474645E+004  0.2689620E+02  0.7546771E-02  0.1635171E+00
          2   -1    0    0  501    0  0.00000000000E+00  0.00000000000E+00  0.24005621798E+03  0.24005621798E+03  0.00000000000E+00 0.  1.
         -2   -1    0    0    0  501 -0.00000000000E+00 -0.00000000000E+00 -0.12653833073E+02  0.12653833073E+02  0.00000000000E+00 0.  1.
          2    1    1    2  502    0  0.24527308989E+01 -0.26784127343E+02  0.22398909274E+03  0.22559813615E+03  0.00000000000E+00 0.  1.
         -2    1    1    2    0  502 -0.24527308989E+01  0.26784127343E+02  0.34132921647E+01  0.27111914905E+02  0.00000000000E+00 0.  1.
<mgrwt>
<rscale>  2 0.26896196E+02</rscale>
<asrwt>0</asrwt>
<pdfrwt beam="1">  1        2 0.36931722E-01 0.26896196E+02</pdfrwt>
<pdfrwt beam="2">  1       -2 0.19467437E-02 0.26896196E+02</pdfrwt>
<totfact> 0.77127824E+04</totfact>
</mgrwt>
</event>
<event>
 4    1  0.1474645E+004  0.2173349E+02  0.7546771E-02  0.1712902E+00
          2   -1    0    0  501    0  0.00000000000E+00  0.00000000000E+00  0.91562618446E+01  0.91562618446E+01  0.00000000000E+00 0.  1.
         -2   -1    0    0    0  501 -0.00000000000E+00 -0.00000000000E+00 -0.61681772023E+02  0.61681772023E+02  0.00000000000E+00 0.  1.
          2    1    1    2  502    0 -0.20293932940E+02 -0.77782168139E+01 -0.11934092512E+02  0.24794494047E+02  0.00000000000E+00 0.  1.
         -2    1    1    2    0  502  0.20293932940E+02  0.77782168139E+01 -0.40591417667E+02  0.46043539820E+02  0.00000000000E+00 0.  1.
<mgrwt>
<rscale>  2 0.21733485E+02</rscale>
<asrwt>0</asrwt>
<pdfrwt beam="1">  1        2 0.14086557E-02 0.21733485E+02</pdfrwt>
<pdfrwt beam="2">  1       -2 0.94895033E-02 0.21733485E+02</pdfrwt>
<totfact> 0.35448241E+05</totfact>
</mgrwt>
</event>
<event>
 4    1  0.1474645E+004  0.2002528E+02  0.7546771E-02  0.1744826E+00
         -2   -1    0    0    0  501 -0.00000000000E+00  0.00000000000E+00  0.31744239392E+02  0.31744239392E+02  0.00000000000E+00 0.  1.
          2   -1    0    0  501    0  0.00000000000E+00 -0.00000000000E+00 -0.62066481669E+03  0.62066481669E+03  0.00000000000E+00 0.  1.
          2    1    1    2  502    0  0.11515190222E+02  0.16383293088E+02 -0.61732807884E+03  0.61765278986E+03  0.00000000000E+00 0.  1.
         -2    1    1    2    0  502 -0.11515190222E+02 -0.16383293088E+02  0.28407501538E+02  0.34756266225E+02  0.00000000000E+00 0.  1.
<mgrwt>
<rscale>  2 0.20025281E+02</rscale>
<asrwt>0</asrwt>
<pdfrwt beam="2">  1        2 0.95486877E-01 0.20025281E+02</pdfrwt>
<pdfrwt beam="1">  1       -2 0.48837300E-02 0.20025281E+02</pdfrwt>
<totfact> 0.78770716E+03</totfact>
</mgrwt>
</event>
<event>
 4    1  0.1474645E+004  0.2445138E+02  0.7546771E-02  0.1669009E+00
          2   -1    0    0  501    0  0.00000000000E+00  0.00000000000E+00  0.52649757805E+03  0.52649757805E+03  0.00000000000E+00 0. -1.
         -2   -1    0    0    0  501 -0.00000000000E+00 -0.00000000000E+00 -0.19257794571E+01  0.19257794571E+01  0.00000000000E+00 0.  1.
          2    1    1    2  502    0  0.23660306544E+02  0.61692515157E+01  0.43153349232E+03  0.43222566416E+03  0.00000000000E+00 0. -1.
         -2    1    1    2    0  502 -0.23660306544E+02 -0.61692515157E+01  0.93038306280E+02  0.96197693347E+02  0.00000000000E+00 0.  1.
<mgrwt>
<rscale>  2 0.24451376E+02</rscale>
<asrwt>0</asrwt>
<pdfrwt beam="1">  1        2 0.80999513E-01 0.24451376E+02</pdfrwt>
<pdfrwt beam="2">  1       -2 0.29627418E-03 0.24451376E+02</pdfrwt>
<totfact> 0.44020720E+05</totfact>
</mgrwt>
</event>
<event>
 4    1  0.1474645E+004  0.2055713E+02  0.7546771E-02  0.1734470E+00
          2   -1    0    0  501    0  0.00000000000E+00  0.00000000000E+00  0.31055120967E+01  0.31055120967E+01  0.00000000000E+00 0.  1.
         -2   -1    0    0    0  501 -0.00000000000E+00 -0.00000000000E+00 -0.32573271590E+03  0.32573271590E+03  0.00000000000E+00 0.  1.
          2    1    1    2  502    0  0.16042394165E+02 -0.12854466582E+02 -0.35854545059E+02  0.41329700254E+02  0.00000000000E+00 0.  1.
         -2    1    1    2    0  502 -0.16042394165E+02  0.12854466582E+02 -0.28677265874E+03  0.28750852774E+03  0.00000000000E+00 0.  1.
<mgrwt>
<rscale>  2 0.20557133E+02</rscale>
<asrwt>0</asrwt>
<pdfrwt beam="1">  1        2 0.47777096E-03 0.20557133E+02</pdfrwt>
<pdfrwt beam="2">  1       -2 0.50112739E-01 0.20557133E+02</pdfrwt>
<totfact> 0.91803537E+04</totfact>
</mgrwt>
</event>
<event>
 4    1  0.1474645E+004  0.2303019E+02  0.7546771E-02  0.1691021E+00
         -2   -1    0    0    0  501 -0.00000000000E+00  0.00000000000E+00  0.92400424302E+01  0.92400424302E+01  0.00000000000E+00 0. -1.
          2   -1    0    0  501    0  0.00000000000E+00 -0.00000000000E+00 -0.19744678375E+03  0.19744678375E+03  0.00000000000E+00 0. -1.
          2    1    1    2  502    0 -0.22338173050E+02 -0.56031780523E+01 -0.18113807704E+03  0.18259625553E+03  0.00000000000E+00 0. -1.
         -2    1    1    2    0  502  0.22338173050E+02  0.56031780523E+01 -0.70686642766E+01  0.24090570648E+02  0.00000000000E+00 0. -1.
<mgrwt>
<rscale>  2 0.23030188E+02</rscale>
<asrwt>0</asrwt>
<pdfrwt beam="2">  1        2 0.30376430E-01 0.23030188E+02</pdfrwt>
<pdfrwt beam="1">  1       -2 0.14215449E-02 0.23030188E+02</pdfrwt>
<totfact> 0.13930942E+05</totfact>
</mgrwt>
</event>
<event>
 4    1  0.1474645E+004  0.2363025E+02  0.7546771E-02  0.1681493E+00
          2   -1    0    0  501    0  0.00000000000E+00  0.00000000000E+00  0.41449074485E+03  0.41449074485E+03  0.00000000000E+00 0. -1.
         -2   -1    0    0    0  501 -0.00000000000E+00 -0.00000000000E+00 -0.78821242864E+01  0.78821242864E+01  0.00000000000E+00 0. -1.
          2    1    1    2  502    0  0.99906229171E+01 -0.21414393455E+02  0.39559830084E+03  0.39630342469E+03  0.00000000000E+00 0. -1.
         -2    1    1    2    0  502 -0.99906229171E+01  0.21414393455E+02  0.11010319724E+02  0.26069444447E+02  0.00000000000E+00 0. -1.
<mgrwt>
<rscale>  2 0.23630252E+02</rscale>
<asrwt>0</asrwt>
<pdfrwt beam="1">  1        2 0.63767790E-01 0.23630252E+02</pdfrwt>
<pdfrwt beam="2">  1       -2 0.12126348E-02 0.23630252E+02</pdfrwt>
<totfact> 0.83377396E+04</totfact>
</mgrwt>
</event>
<event>
 4    1  0.1474645E+004  0.2860563E+02  0.7546771E-02  0.1614033E+00
         -2   -1    0    0    0  501 -0.00000000000E+00  0.00000000000E+00  0.47024355821E+02  0.47024355821E+02  0.00000000000E+00 0. -1.
          2   -1    0    0  501    0  0.00000000000E+00 -0.00000000000E+00 -0.29319159779E+03  0.29319159779E+03  0.00000000000E+00 0.  1.
          2    1    1    2  502    0 -0.98828890367E+00 -0.28588555504E+02 -0.28806633982E+03  0.28948315730E+03  0.00000000000E+00 0.  1.
         -2    1    1    2    0  502  0.98828890367E+00  0.28588555504E+02  0.41899097853E+02  0.50732796313E+02  0.00000000000E+00 0. -1.
<mgrwt>
<rscale>  2 0.28605633E+02</rscale>
<asrwt>0</asrwt>
<pdfrwt beam="2">  1        2 0.45106400E-01 0.28605633E+02</pdfrwt>
<pdfrwt beam="1">  1       -2 0.72345162E-02 0.28605633E+02</pdfrwt>
<totfact> 0.99678064E+03</totfact>
</mgrwt>
</event>
<event>
 4    1  0.1474645E+004  0.2151262E+02  0.7546771E-02  0.1716820E+00
         -2   -1    0    0    0  501 -0.00000000000E+00  0.00000000000E+00  0.39836986639E+01  0.39836986639E+01  0.00000000000E+00 0.  1.
          2   -1    0    0  501    0  0.00000000000E+00 -0.00000000000E+00 -0.35777736158E+03  0.35777736158E+03  0.00000000000E+00 0. -1.
          2    1    1    2  502    0  0.21483001317E+02  0.11284535780E+01 -0.32553796658E+03  0.32624800450E+03  0.00000000000E+00 0. -1.
         -2    1    1    2    0  502 -0.21483001317E+02 -0.11284535780E+01 -0.28255696335E+02  0.35513055746E+02  0.00000000000E+00 0.  1.
<mgrwt>
<rscale>  2 0.21512618E+02</rscale>
<asrwt>0</asrwt>
<pdfrwt beam="2">  1        2 0.55042666E-01 0.21512618E+02</pdfrwt>
<pdfrwt beam="1">  1       -2 0.61287677E-03 0.21512618E+02</pdfrwt>
<totfact> 0.23632574E+05</totfact>
</mgrwt>
</event>
<event>
 4    1  0.1474645E+004  0.2701753E+02  0.7546771E-02  0.1633607E+00
          2   -1    0    0  501    0  0.00000000000E+00  0.00000000000E+00  0.25877229525E+03  0.25877229525E+03  0.00000000000E+00 0.  1.
         -2   -1    0    0    0  501 -0.00000000000E+00 -0.00000000000E+00 -0.11461327568E+02  0.11461327568E+02  0.00000000000E+00 0.  1.
          2    1    1    2  502    0 -0.24086047071E+02  0.12239668592E+02  0.24097272350E+03  0.24248257797E+03  0.00000000000E+00 0.  1.
         -2    1    1    2    0  502  0.24086047071E+02 -0.12239668592E+02  0.63382441884E+01  0.27751044848E+02  0.00000000000E+00 0.  1.
<mgrwt>
<rscale>  2 0.27017534E+02</rscale>
<asrwt>0</asrwt>
<pdfrwt beam="1">  1        2 0.39811118E-01 0.27017534E+02</pdfrwt>
<pdfrwt beam="2">  1       -2 0.17632813E-02 0.27017534E+02</pdfrwt>
<totfact> 0.82077286E+04</totfact>
</mgrwt>
</event>
<event>
 4    1  0.1474645E+004  0.2055201E+02  0.7546771E-02  0.1734568E+00
         -2   -1    0    0    0  501 -0.00000000000E+00  0.00000000000E+00  0.36666567161E+03  0.36666567161E+03  0.00000000000E+00 0.  1.
          2   -1    0    0  501    0  0.00000000000E+00 -0.00000000000E+00 -0.19219519859E+01  0.19219519859E+01  0.00000000000E+00 0.  1.
          2    1    1    2  502    0  0.47239160731E+01 -0.20001744800E+02  0.65722643324E+02  0.68861099495E+02  0.00000000000E+00 0.  1.
         -2    1    1    2    0  502 -0.47239160731E+01  0.20001744800E+02  0.29902107630E+03  0.29972652410E+03  0.00000000000E+00 0.  1.
<mgrwt>
<rscale>  2 0.20552012E+02</rscale>
<asrwt>0</asrwt>
<pdfrwt beam="2">  1        2 0.29568521E-03 0.20552012E+02</pdfrwt>
<pdfrwt beam="1">  1       -2 0.56410048E-01 0.20552012E+02</pdfrwt>
<totfact> 0.13699842E+05</totfact>
</mgrwt>
</event>
<event>
 4    1  0.1474645E+004  0.2929619E+02  0.7546771E-02  0.1606001E+00
          2   -1    0    0  501    0  0.00000000000E+00  0.00000000000E+00  0.11576908775E+04  0.11576908775E+04  0.00000000000E+00 0.  1.
         -2   -1    0    0    0  501 -0.00000000000E+00 -0.00000000000E+00 -0.12481568935E+03  0.12481568935E+03  0.00000000000E+00 0. -1.
          2    1    1    2  502    0  0.26739482580E+02 -0.11969401531E+02  0.11557836333E+04  0.11561548657E+04  0.00000000000E+00 0.  1.
         -2    1    1    2    0  502 -0.26739482580E+02  0.11969401531E+02 -0.12290844513E+03  0.12635170116E+03  0.00000000000E+00 0. -1.
<mgrwt>
<rscale>  2 0.29296186E+02</rscale>
<asrwt>0</asrwt>
<pdfrwt beam="1">  1        2 0.17810628E+00 0.29296186E+02</pdfrwt>
<pdfrwt beam="2">  1       -2 0.19202414E-01 0.29296186E+02</pdfrwt>
<totfact> 0.49928257E+02</totfact>
</mgrwt>
</event>
<event>
 4    1  0.1474645E+004  0.3154285E+02  0.7546771E-02  0.1581635E+00
         -2   -1    0    0    0  501 -0.00000000000E+00  0.00000000000E+00  0.62501858954E+02  0.62501858954E+02  0.00000000000E+00 0. -1.
          2   -1    0    0  501    0  0.00000000000E+00 -0.00000000000E+00 -0.16628103501E+02  0.16628103501E+02  0.00000000000E+00 0. -1.
          2    1    1    2  502    0 -0.14218224386E+02 -0.28156587908E+02  0.14765005832E+02  0.34827528545E+02  0.00000000000E+00 0. -1.
         -2    1    1    2    0  502  0.14218224386E+02  0.28156587908E+02  0.31108749621E+02  0.44302433909E+02  0.00000000000E+00 0. -1.
<mgrwt>
<rscale>  2 0.31542849E+02</rscale>
<asrwt>0</asrwt>
<pdfrwt beam="2">  1        2 0.25581698E-02 0.31542849E+02</pdfrwt>
<pdfrwt beam="1">  1       -2 0.96156705E-02 0.31542849E+02</pdfrwt>
<totfact> 0.17912104E+05</totfact>
</mgrwt>
</event>
<event>
 4    1  0.1474645E+004  0.4612987E+02  0.7546771E-02  0.1467409E+00
          2   -1    0    0  501    0  0.00000000000E+00  0.00000000000E+00  0.12107834554E+03  0.12107834554E+03  0.00000000000E+00 0. -1.
         -2   -1    0    0    0  501 -0.00000000000E+00 -0.00000000000E+00 -0.20101617178E+02  0.20101617178E+02  0.00000000000E+00 0. -1.
          2    1    1    2  502    0  0.23319385799E+02 -0.39801650301E+02  0.75514161453E+02  0.88489285796E+02  0.00000000000E+00 0. -1.
         -2    1    1    2    0  502 -0.23319385799E+02  0.39801650301E+02  0.25462566907E+02  0.52690676919E+02  0.00000000000E+00 0. -1.
<mgrwt>
<rscale>  2 0.46129872E+02</rscale>
<asrwt>0</asrwt>
<pdfrwt beam="1">  1        2 0.18627437E-01 0.46129872E+02</pdfrwt>
<pdfrwt beam="2">  1       -2 0.30925566E-02 0.46129872E+02</pdfrwt>
<totfact> 0.92071894E+04</totfact>
</mgrwt>
</event>
<event>
 4    1  0.1474645E+004  0.3516154E+02  0.7546771E-02  0.1547171E+00
          2   -1    0    0  501    0  0.00000000000E+00  0.00000000000E+00  0.83728946128E+03  0.83728946128E+03  0.00000000000E+00 0.  1.
         -2   -1    0    0    0  501 -0.00000000000E+00 -0.00000000000E+00 -0.41423619386E+02  0.41423619386E+02  0.00000000000E+00 0. -1.
          2    1    1    2  502    0 -0.26241982571E+02 -0.23402829414E+02  0.82938772952E+03  0.83013272430E+03  0.00000000000E+00 0.  1.
         -2    1    1    2    0  502  0.26241982571E+02  0.23402829414E+02 -0.33521887632E+02  0.48580356362E+02  0.00000000000E+00 0. -1.
<mgrwt>
<rscale>  2 0.35161543E+02</rscale>
<asrwt>0</asrwt>
<pdfrwt beam="1">  1        2 0.12881375E+00 0.35161543E+02</pdfrwt>
<pdfrwt beam="2">  1       -2 0.63728652E-02 0.35161543E+02</pdfrwt>
<totfact> 0.40850671E+03</totfact>
</mgrwt>
</event>
<event>
 4    1  0.1474645E+004  0.2354635E+02  0.7546771E-02  0.1682804E+00
         -2   -1    0    0    0  501 -0.00000000000E+00  0.00000000000E+00  0.30623076754E+03  0.30623076754E+03  0.00000000000E+00 0. -1.
          2   -1    0    0  501    0  0.00000000000E+00 -0.00000000000E+00 -0.75964359186E+02  0.75964359186E+02  0.00000000000E+00 0.  1.
          2    1    1    2  502    0 -0.39270713607E+01 -0.23216563254E+02 -0.73673360426E+02  0.77344649041E+02  0.00000000000E+00 0.  1.
         -2    1    1    2    0  502  0.39270713607E+01  0.23216563254E+02  0.30393976878E+03  0.30485047768E+03  0.00000000000E+00 0. -1.
<mgrwt>
<rscale>  2 0.23546352E+02</rscale>
<asrwt>0</asrwt>
<pdfrwt beam="2">  1        2 0.11686825E-01 0.23546352E+02</pdfrwt>
<pdfrwt beam="1">  1       -2 0.47112425E-01 0.23546352E+02</pdfrwt>
<totfact> 0.19278164E+03</totfact>
</mgrwt>
</event>
<event>
 4    1  0.1474645E+004  0.2776645E+02  0.7546771E-02  0.1624176E+00
          2   -1    0    0  501    0  0.00000000000E+00  0.00000000000E+00  0.20735394247E+02  0.20735394247E+02  0.00000000000E+00 0.  1.
         -2   -1    0    0    0  501 -0.00000000000E+00 -0.00000000000E+00 -0.28402461672E+03  0.28402461672E+03  0.00000000000E+00 0.  1.
          2    1    1    2  502    0  0.16834320710E+02  0.22081245630E+02  0.10411653064E+02  0.29654313040E+02  0.00000000000E+00 0.  1.
         -2    1    1    2    0  502 -0.16834320710E+02 -0.22081245630E+02 -0.27370087554E+03  0.27510569793E+03  0.00000000000E+00 0.  1.
<mgrwt>
<rscale>  2 0.27766450E+02</rscale>
<asrwt>0</asrwt>
<pdfrwt beam="1">  1        2 0.31900608E-02 0.27766450E+02</pdfrwt>
<pdfrwt beam="2">  1       -2 0.43696093E-01 0.27766450E+02</pdfrwt>
<totfact> 0.10883199E+04</totfact>
</mgrwt>
</event>
<event>
 4    1  0.1474645E+004  0.2411051E+02  0.7546771E-02  0.1674117E+00
          2   -1    0    0  501    0  0.00000000000E+00  0.00000000000E+00  0.48320160189E+03  0.48320160189E+03  0.00000000000E+00 0. -1.
         -2   -1    0    0    0  501 -0.00000000000E+00 -0.00000000000E+00 -0.12299695277E+01  0.12299695277E+01  0.00000000000E+00 0. -1.
          2    1    1    2  502    0  0.21300755557E+02 -0.11295783527E+02  0.27681760787E+03  0.27786562389E+03  0.00000000000E+00 0. -1.
         -2    1    1    2    0  502 -0.21300755557E+02  0.11295783527E+02  0.20515402449E+03  0.20656594753E+03  0.00000000000E+00 0. -1.
<mgrwt>
<rscale>  2 0.24110515E+02</rscale>
<asrwt>0</asrwt>
<pdfrwt beam="1">  1        2 0.74338556E-01 0.24110515E+02</pdfrwt>
<pdfrwt beam="2">  1       -2 0.18922647E-03 0.24110515E+02</pdfrwt>
<totfact> 0.86849032E+05</totfact>
</mgrwt>
</event>
<event>
 4    1  0.1474645E+004  0.2376547E+02  0.7546771E-02  0.1679394E+00
          2   -1    0    0  501    0  0.00000000000E+00  0.00000000000E+00  0.14349006614E+04  0.14349006614E+04  0.00000000000E+00 0. -1.
         -2   -1    0    0    0  501 -0.00000000000E+00 -0.00000000000E+00 -0.47670297348E+00  0.47670297348E+00  0.00000000000E+00 0. -1.
          2    1    1    2  502    0  0.94172074435E+01 -0.21820030146E+02  0.10168403356E+04  0.10171180196E+04  0.00000000000E+00 0. -1.
         -2    1    1    2    0  502 -0.94172074435E+01  0.21820030146E+02  0.41758362283E+03  0.41825934487E+03  0.00000000000E+00 0. -1.
<mgrwt>
<rscale>  2 0.23765469E+02</rscale>
<asrwt>0</asrwt>
<pdfrwt beam="1">  1        2 0.22075049E+00 0.23765469E+02</pdfrwt>
<pdfrwt beam="2">  1       -2 0.73340068E-04 0.23765469E+02</pdfrwt>
<totfact> 0.82053720E+05</totfact>
</mgrwt>
</event>
<event>
 4    1  0.1474645E+004  0.3874329E+02  0.7546771E-02  0.1517669E+00
         -2   -1    0    0    0  501 -0.00000000000E+00  0.00000000000E+00  0.33468972894E+02  0.33468972894E+02  0.00000000000E+00 0.  1.
          2   -1    0    0  501    0  0.00000000000E+00 -0.00000000000E+00 -0.11793378168E+04  0.11793378168E+04  0.00000000000E+00 0.  1.
          2    1    1    2  502    0  0.13954346802E+02 -0.36143031387E+02 -0.11676956695E+04  0.11683382297E+04  0.00000000000E+00 0.  1.
         -2    1    1    2    0  502 -0.13954346802E+02  0.36143031387E+02  0.21826825563E+02  0.44468559980E+02  0.00000000000E+00 0.  1.
<mgrwt>
<rscale>  2 0.38743290E+02</rscale>
<asrwt>0</asrwt>
<pdfrwt beam="2">  1        2 0.18143659E+00 0.38743290E+02</pdfrwt>
<pdfrwt beam="1">  1       -2 0.51490725E-02 0.38743290E+02</pdfrwt>
<totfact> 0.36066281E+03</totfact>
</mgrwt>
</event>
<event>
 4    1  0.1474645E+004  0.3195215E+02  0.7546771E-02  0.1577461E+00
          2   -1    0    0  501    0  0.00000000000E+00  0.00000000000E+00  0.19017602441E+03  0.19017602441E+03  0.00000000000E+00 0.  1.
         -2   -1    0    0    0  501 -0.00000000000E+00 -0.00000000000E+00 -0.74725186919E+01  0.74725186919E+01  0.00000000000E+00 0. -1.
          2    1    1    2  502    0  0.26532895962E+02  0.17802961064E+02  0.14379212500E+03  0.14729940667E+03  0.00000000000E+00 0.  1.
         -2    1    1    2    0  502 -0.26532895962E+02 -0.17802961064E+02  0.38911380711E+02  0.50349136433E+02  0.00000000000E+00 0. -1.
<mgrwt>
<rscale>  2 0.31952152E+02</rscale>
<asrwt>0</asrwt>
<pdfrwt beam="1">  1        2 0.29257846E-01 0.31952152E+02</pdfrwt>
<pdfrwt beam="2">  1       -2 0.11496184E-02 0.31952152E+02</pdfrwt>
<totfact> 0.20977112E+05</totfact>
</mgrwt>
</event>
<event>
 4    1  0.1474645E+004  0.6362823E+02  0.7546771E-02  0.1383207E+00
          2   -1    0    0  501    0  0.00000000000E+00  0.00000000000E+00  0.43933791087E+03  0.43933791087E+03  0.00000000000E+00 0. -1.
         -2   -1    0    0    0  501 -0.00000000000E+00 -0.00000000000E+00 -0.99486306805E+01  0.99486306805E+01  0.00000000000E+00 0.  1.
          2    1    1    2  502    0  0.31249133430E+01  0.63551444250E+02  0.27569259336E+03  0.28293984729E+03  0.00000000000E+00 0. -1.
         -2    1    1    2    0  502 -0.31249133430E+01 -0.63551444250E+02  0.15369668682E+03  0.16634669426E+03  0.00000000000E+00 0.  1.
<mgrwt>
<rscale>  2 0.63628226E+02</rscale>
<asrwt>0</asrwt>
<pdfrwt beam="1">  1        2 0.67590433E-01 0.63628226E+02</pdfrwt>
<pdfrwt beam="2">  1       -2 0.15305589E-02 0.63628226E+02</pdfrwt>
<totfact> 0.68311471E+04</totfact>
</mgrwt>
</event>
<event>
 4    1  0.1474645E+004  0.4595075E+02  0.7546771E-02  0.1468492E+00
         -2   -1    0    0    0  501 -0.00000000000E+00  0.00000000000E+00  0.29721226921E+03  0.29721226921E+03  0.00000000000E+00 0.  1.
          2   -1    0    0  501    0  0.00000000000E+00 -0.00000000000E+00 -0.28232536295E+03  0.28232536295E+03  0.00000000000E+00 0.  1.
          2    1    1    2  502    0 -0.27335884455E+02 -0.36935364625E+02 -0.27865635613E+03  0.28241961077E+03  0.00000000000E+00 0.  1.
         -2    1    1    2    0  502  0.27335884455E+02  0.36935364625E+02  0.29354326239E+03  0.29711802139E+03  0.00000000000E+00 0.  1.
<mgrwt>
<rscale>  2 0.45950753E+02</rscale>
<asrwt>0</asrwt>
<pdfrwt beam="2">  1        2 0.43434671E-01 0.45950753E+02</pdfrwt>
<pdfrwt beam="1">  1       -2 0.45724965E-01 0.45950753E+02</pdfrwt>
<totfact> 0.52638898E+02</totfact>
</mgrwt>
</event>
<event>
 4    1  0.1474645E+004  0.5063861E+02  0.7546771E-02  0.1441927E+00
          2   -1    0    0  501    0  0.00000000000E+00  0.00000000000E+00  0.11951479579E+02  0.11951479579E+02  0.00000000000E+00 0.  1.
         -2   -1    0    0    0  501 -0.00000000000E+00 -0.00000000000E+00 -0.76626982858E+03  0.76626982858E+03  0.00000000000E+00 0.  1.
          2    1    1    2  502    0  0.32540352650E+02  0.38799411778E+02 -0.46988151571E+02  0.69080788161E+02  0.00000000000E+00 0.  1.
         -2    1    1    2    0  502 -0.32540352650E+02 -0.38799411778E+02 -0.70733019743E+03  0.70914052000E+03  0.00000000000E+00 0.  1.
<mgrwt>
<rscale>  2 0.50638611E+02</rscale>
<asrwt>0</asrwt>
<pdfrwt beam="1">  1        2 0.18386894E-02 0.50638611E+02</pdfrwt>
<pdfrwt beam="2">  1       -2 0.11788765E+00 0.50638611E+02</pdfrwt>
<totfact> 0.30630712E+03</totfact>
</mgrwt>
</event>
<event>
 4    1  0.1474645E+004  0.4537484E+02  0.7546771E-02  0.1472015E+00
          2   -1    0    0  501    0  0.00000000000E+00  0.00000000000E+00  0.28214229247E+04  0.28214229247E+04  0.00000000000E+00 0.  1.
         -2   -1    0    0    0  501 -0.00000000000E+00 -0.00000000000E+00 -0.12579720234E+01  0.12579720234E+01  0.00000000000E+00 0. -1.
          2    1    1    2  502    0  0.45374706299E+02  0.10947730676E+00  0.23246439777E+04  0.23250867723E+04  0.00000000000E+00 0.  1.
         -2    1    1    2    0  502 -0.45374706299E+02 -0.10947730676E+00  0.49552097498E+03  0.49759412437E+03  0.00000000000E+00 0. -1.
<mgrwt>
<rscale>  2 0.45374838E+02</rscale>
<asrwt>0</asrwt>
<pdfrwt beam="1">  1        2 0.43406000E+00 0.45374838E+02</pdfrwt>
<pdfrwt beam="2">  1       -2 0.19353642E-03 0.45374838E+02</pdfrwt>
<totfact> 0.53143213E+04</totfact>
</mgrwt>
</event>
<event>
 4    1  0.1474645E+004  0.2181121E+02  0.7546771E-02  0.1711538E+00
         -2   -1    0    0    0  501 -0.00000000000E+00  0.00000000000E+00  0.66400674805E+02  0.66400674805E+02  0.00000000000E+00 0. -1.
          2   -1    0    0  501    0  0.00000000000E+00 -0.00000000000E+00 -0.30119447571E+02  0.30119447571E+02  0.00000000000E+00 0.  1.
          2    1    1    2  502    0 -0.18841577697E+02  0.10987433366E+02 -0.23990444060E+02  0.32423296382E+02  0.00000000000E+00 0.  1.
         -2    1    1    2    0  502  0.18841577697E+02 -0.10987433366E+02  0.60271671293E+02  0.64096825994E+02  0.00000000000E+00 0. -1.
<mgrwt>
<rscale>  2 0.21811207E+02</rscale>
<asrwt>0</asrwt>
<pdfrwt beam="2">  1        2 0.46337612E-02 0.21811207E+02</pdfrwt>
<pdfrwt beam="1">  1       -2 0.10215488E-01 0.21811207E+02</pdfrwt>
<totfact> 0.70641080E+04</totfact>
</mgrwt>
</event>
<event>
 4    1  0.1474645E+004  0.3431492E+02  0.7546771E-02  0.1554770E+00
         -2   -1    0    0    0  501 -0.00000000000E+00  0.00000000000E+00  0.17217113477E+02  0.17217113477E+02  0.00000000000E+00 0.  1.
          2   -1    0    0  501    0  0.00000000000E+00 -0.00000000000E+00 -0.91098740575E+02  0.91098740575E+02  0.00000000000E+00 0.  1.
          2    1    1    2  502    0  0.33036328325E+02 -0.92798039066E+01 -0.63979322067E+02  0.72600739679E+02  0.00000000000E+00 0.  1.
         -2    1    1    2    0  502 -0.33036328325E+02  0.92798039066E+01 -0.99023050315E+01  0.35715114373E+02  0.00000000000E+00 0.  1.
<mgrwt>
<rscale>  2 0.34314920E+02</rscale>
<asrwt>0</asrwt>
<pdfrwt beam="2">  1        2 0.14015191E-01 0.34314920E+02</pdfrwt>
<pdfrwt beam="1">  1       -2 0.26487866E-02 0.34314920E+02</pdfrwt>
<totfact> 0.14794242E+05</totfact>
</mgrwt>
</event>
<event>
 4    1  0.1474645E+004  0.2105631E+02  0.7546771E-02  0.1725103E+00
          2   -1    0    0  501    0  0.00000000000E+00  0.00000000000E+00  0.91144919295E+01  0.91144919295E+01  0.00000000000E+00 0. -1.
         -2   -1    0    0    0  501 -0.00000000000E+00 -0.00000000000E+00 -0.99407513318E+02  0.99407513318E+02  0.00000000000E+00 0. -1.
          2    1    1    2  502    0 -0.88376979755E+00 -0.21037752655E+02 -0.63714256483E+01  0.21999162498E+02  0.00000000000E+00 0. -1.
         -2    1    1    2    0  502  0.88376979755E+00  0.21037752655E+02 -0.83921595741E+02  0.86522842750E+02  0.00000000000E+00 0. -1.
<mgrwt>
<rscale>  2 0.21056308E+02</rscale>
<asrwt>0</asrwt>
<pdfrwt beam="1">  1        2 0.14022297E-02 0.21056308E+02</pdfrwt>
<pdfrwt beam="2">  1       -2 0.15293462E-01 0.21056308E+02</pdfrwt>
<totfact> 0.17154223E+05</totfact>
</mgrwt>
</event>
<event>
 4    1  0.1474645E+004  0.2039233E+02  0.7546771E-02  0.1737637E+00
         -2   -1    0    0    0  501 -0.00000000000E+00  0.00000000000E+00  0.89093650799E+01  0.89093650799E+01  0.00000000000E+00 0. -1.
          2   -1    0    0  501    0  0.00000000000E+00 -0.00000000000E+00 -0.51798414451E+03  0.51798414451E+03  0.00000000000E+00 0.  1.
          2    1    1    2  502    0 -0.12809811354E+00 -0.20391925338E+02 -0.50583446170E+03  0.50624534534E+03  0.00000000000E+00 0.  1.
         -2    1    1    2    0  502  0.12809811354E+00  0.20391925338E+02 -0.32403177280E+01  0.20648164255E+02  0.00000000000E+00 0. -1.
<mgrwt>
<rscale>  2 0.20392328E+02</rscale>
<asrwt>0</asrwt>
<pdfrwt beam="2">  1        2 0.79689878E-01 0.20392328E+02</pdfrwt>
<pdfrwt beam="1">  1       -2 0.13706714E-02 0.20392328E+02</pdfrwt>
<totfact> 0.54736282E+04</totfact>
</mgrwt>
</event>
<event>
 4    1  0.1474645E+004  0.2302614E+02  0.7546771E-02  0.1691087E+00
         -2   -1    0    0    0  501 -0.00000000000E+00  0.00000000000E+00  0.33903542042E+02  0.33903542042E+02  0.00000000000E+00 0.  1.
          2   -1    0    0  501    0  0.00000000000E+00 -0.00000000000E+00 -0.71796145496E+03  0.71796145496E+03  0.00000000000E+00 0.  1.
          2    1    1    2  502    0 -0.22938137183E+02 -0.20112446895E+01 -0.71384464756E+03  0.71421592260E+03  0.00000000000E+00 0.  1.
         -2    1    1    2    0  502  0.22938137183E+02  0.20112446895E+01  0.29786734644E+02  0.37649074403E+02  0.00000000000E+00 0.  1.
<mgrwt>
<rscale>  2 0.23026143E+02</rscale>
<asrwt>0</asrwt>
<pdfrwt beam="2">  1        2 0.11045560E+00 0.23026143E+02</pdfrwt>
<pdfrwt beam="1">  1       -2 0.52159297E-02 0.23026143E+02</pdfrwt>
<totfact> 0.62481171E+03</totfact>
</mgrwt>
</event>
<event>
 4    1  0.1474645E+004  0.2392111E+02  0.7546771E-02  0.1677000E+00
         -2   -1    0    0    0  501 -0.00000000000E+00  0.00000000000E+00  0.15993072370E+02  0.15993072370E+02  0.00000000000E+00 0. -1.
          2   -1    0    0  501    0  0.00000000000E+00 -0.00000000000E+00 -0.16809887998E+04  0.16809887998E+04  0.00000000000E+00 0.  1.
          2    1    1    2  502    0 -0.23841605940E+02  0.19486287035E+01 -0.16719103305E+04  0.16720814492E+04  0.00000000000E+00 0.  1.
         -2    1    1    2    0  502  0.23841605940E+02 -0.19486287035E+01  0.69146031289E+01  0.24900422970E+02  0.00000000000E+00 0. -1.
<mgrwt>
<rscale>  2 0.23921106E+02</rscale>
<asrwt>0</asrwt>
<pdfrwt beam="2">  1        2 0.25861365E+00 0.23921106E+02</pdfrwt>
<pdfrwt beam="1">  1       -2 0.24604727E-02 0.23921106E+02</pdfrwt>
<totfact> 0.56580579E+03</totfact>
</mgrwt>
</event>
<event>
 4    1  0.1474645E+004  0.2641924E+02  0.7546771E-02  0.1641416E+00
         -2   -1    0    0    0  501 -0.00000000000E+00  0.00000000000E+00  0.28960484600E+03  0.28960484600E+03  0.00000000000E+00 0. -1.
          2   -1    0    0  501    0  0.00000000000E+00 -0.00000000000E+00 -0.78530357951E+01  0.78530357951E+01  0.00000000000E+00 0. -1.
          2    1    1    2  502    0 -0.26378695975E+02  0.14630668129E+01  0.17055172928E+02  0.31446066359E+02  0.00000000000E+00 0. -1.
         -2    1    1    2    0  502  0.26378695975E+02 -0.14630668129E+01  0.26469663728E+03  0.26601181544E+03  0.00000000000E+00 0. -1.
<mgrwt>
<rscale>  2 0.26419239E+02</rscale>
<asrwt>0</asrwt>
<pdfrwt beam="2">  1        2 0.12081596E-02 0.26419239E+02</pdfrwt>
<pdfrwt beam="1">  1       -2 0.44554584E-01 0.26419239E+02</pdfrwt>
<totfact> 0.36338325E+04</totfact>
</mgrwt>
</event>
<event>
 4    1  0.1474645E+004  0.2025296E+02  0.7546771E-02  0.1740344E+00
          2   -1    0    0  501    0  0.00000000000E+00  0.00000000000E+00  0.10089678720E+02  0.10089678720E+02  0.00000000000E+00 0.  1.
         -2   -1    0    0    0  501 -0.00000000000E+00 -0.00000000000E+00 -0.13982512372E+03  0.13982512372E+03  0.00000000000E+00 0. -1.
          2    1    1    2  502    0 -0.12665058549E+02 -0.15804382104E+02 -0.17406989551E+01  0.20327622453E+02  0.00000000000E+00 0.  1.
         -2    1    1    2    0  502  0.12665058549E+02  0.15804382104E+02 -0.12799474604E+03  0.12958717998E+03  0.00000000000E+00 0. -1.
<mgrwt>
<rscale>  2 0.20252955E+02</rscale>
<asrwt>0</asrwt>
<pdfrwt beam="1">  1        2 0.15522582E-02 0.20252955E+02</pdfrwt>
<pdfrwt beam="2">  1       -2 0.21511559E-01 0.20252955E+02</pdfrwt>
<totfact> 0.86723478E+04</totfact>
</mgrwt>
</event>
<event>
 4    1  0.1474645E+004  0.2183181E+02  0.7546771E-02  0.1711177E+00
         -2   -1    0    0    0  501 -0.00000000000E+00  0.00000000000E+00  0.13333642888E+01  0.13333642888E+01  0.00000000000E+00 0.  1.
          2   -1    0    0  501    0  0.00000000000E+00 -0.00000000000E+00 -0.39919748850E+03  0.39919748850E+03  0.00000000000E+00 0. -1.
          2    1    1    2  502    0  0.60942365225E+01  0.20963973572E+02 -0.26368530857E+03  0.26458754669E+03  0.00000000000E+00 0. -1.
         -2    1    1    2    0  502 -0.60942365225E+01 -0.20963973572E+02 -0.13417881564E+03  0.13594330610E+03  0.00000000000E+00 0.  1.
<mgrwt>
<rscale>  2 0.21831810E+02</rscale>
<asrwt>0</asrwt>
<pdfrwt beam="2">  1        2 0.61414993E-01 0.21831810E+02</pdfrwt>
<pdfrwt beam="1">  1       -2 0.20513298E-03 0.21831810E+02</pdfrwt>
<totfact> 0.91464899E+05</totfact>
</mgrwt>
</event>
<event>
 4    1  0.1474645E+004  0.2718527E+02  0.7546771E-02  0.1631463E+00
          2   -1    0    0  501    0  0.00000000000E+00  0.00000000000E+00  0.12367373598E+02  0.12367373598E+02  0.00000000000E+00 0.  1.
         -2   -1    0    0    0  501 -0.00000000000E+00 -0.00000000000E+00 -0.23524035485E+03  0.23524035485E+03  0.00000000000E+00 0.  1.
          2    1    1    2  502    0  0.12711817629E+02 -0.24030160612E+02 -0.45073507774E+01  0.27556399211E+02  0.00000000000E+00 0.  1.
         -2    1    1    2    0  502 -0.12711817629E+02  0.24030160612E+02 -0.21836563048E+03  0.22005132924E+03  0.00000000000E+00 0.  1.
<mgrwt>
<rscale>  2 0.27185270E+02</rscale>
<asrwt>0</asrwt>
<pdfrwt beam="1">  1        2 0.19026730E-02 0.27185270E+02</pdfrwt>
<pdfrwt beam="2">  1       -2 0.36190821E-01 0.27185270E+02</pdfrwt>
<totfact> 0.29606733E+04</totfact>
</mgrwt>
</event>
<event>
 4    1  0.1474645E+004  0.4287642E+02  0.7546771E-02  0.1488051E+00
         -2   -1    0    0    0  501 -0.00000000000E+00  0.00000000000E+00  0.25273903622E+02  0.25273903622E+02  0.00000000000E+00 0.  1.
          2   -1    0    0  501    0  0.00000000000E+00 -0.00000000000E+00 -0.54552549626E+03  0.54552549626E+03  0.00000000000E+00 0.  1.
          2    1    1    2  502    0 -0.89588818334E+01  0.41930015965E+02 -0.52581793917E+03  0.52756316489E+03  0.00000000000E+00 0.  1.
         -2    1    1    2    0  502  0.89588818334E+01 -0.41930015965E+02  0.55663465265E+01  0.43236234991E+02  0.00000000000E+00 0.  1.
<mgrwt>
<rscale>  2 0.42876425E+02</rscale>
<asrwt>0</asrwt>
<pdfrwt beam="2">  1        2 0.83927008E-01 0.42876425E+02</pdfrwt>
<pdfrwt beam="1">  1       -2 0.38882925E-02 0.42876425E+02</pdfrwt>
<totfact> 0.13705491E+04</totfact>
</mgrwt>
</event>
<event>
 4    1  0.1474645E+004  0.3177958E+02  0.7546771E-02  0.1579212E+00
         -2   -1    0    0    0  501 -0.00000000000E+00  0.00000000000E+00  0.12184801609E+03  0.12184801609E+03  0.00000000000E+00 0. -1.
          2   -1    0    0  501    0  0.00000000000E+00 -0.00000000000E+00 -0.22003888351E+04  0.22003888351E+04  0.00000000000E+00 0.  1.
          2    1    1    2  502    0 -0.21103825096E+02  0.23760693526E+02 -0.21981998913E+04  0.21984295995E+04  0.00000000000E+00 0.  1.
         -2    1    1    2    0  502  0.21103825096E+02 -0.23760693526E+02  0.11965907227E+03  0.12380725167E+03  0.00000000000E+00 0. -1.
<mgrwt>
<rscale>  2 0.31779584E+02</rscale>
<asrwt>0</asrwt>
<pdfrwt beam="2">  1        2 0.33852138E+00 0.31779584E+02</pdfrwt>
<pdfrwt beam="1">  1       -2 0.18745847E-01 0.31779584E+02</pdfrwt>
<totfact> 0.16270428E+02</totfact>
</mgrwt>
</event>
<event>
 4    1  0.1474645E+004  0.3254800E+02  0.7546771E-02  0.1571519E+00
          2   -1    0    0  501    0  0.00000000000E+00  0.00000000000E+00  0.19914001893E+04  0.19914001893E+04  0.00000000000E+00 0. -1.
         -2   -1    0    0    0  501 -0.00000000000E+00 -0.00000000000E+00 -0.52098658607E+02  0.52098658607E+02  0.00000000000E+00 0.  1.
          2    1    1    2  502    0 -0.31705441938E+02 -0.73578230310E+01  0.19861703185E+04  0.19864369878E+04  0.00000000000E+00 0. -1.
         -2    1    1    2    0  502  0.31705441938E+02  0.73578230310E+01 -0.46868787780E+02  0.57061860084E+02  0.00000000000E+00 0.  1.
<mgrwt>
<rscale>  2 0.32548005E+02</rscale>
<asrwt>0</asrwt>
<pdfrwt beam="1">  1        2 0.30636920E+00 0.32548005E+02</pdfrwt>
<pdfrwt beam="2">  1       -2 0.80151798E-02 0.32548005E+02</pdfrwt>
<totfact> 0.75693736E+02</totfact>
</mgrwt>
</event>
<event>
 4    1  0.1474645E+004  0.7239297E+02  0.7546771E-02  0.1352140E+00
         -2   -1    0    0    0  501 -0.00000000000E+00  0.00000000000E+00  0.14841084118E+02  0.14841084118E+02  0.00000000000E+00 0. -1.
          2   -1    0    0  501    0  0.00000000000E+00 -0.00000000000E+00 -0.12753316441E+04  0.12753316441E+04  0.00000000000E+00 0. -1.
          2    1    1    2  502    0  0.70767917404E+02 -0.15252660106E+02 -0.11788009042E+04  0.11810217244E+04  0.00000000000E+00 0. -1.
         -2    1    1    2    0  502 -0.70767917404E+02  0.15252660106E+02 -0.81689655823E+02  0.10915100385E+03  0.00000000000E+00 0. -1.
<mgrwt>
<rscale>  2 0.72392968E+02</rscale>
<asrwt>0</asrwt>
<pdfrwt beam="2">  1        2 0.19620482E+00 0.72392968E+02</pdfrwt>
<pdfrwt beam="1">  1       -2 0.22832443E-02 0.72392968E+02</pdfrwt>
<totfact> 0.10752672E+04</totfact>
</mgrwt>
</event>
<event>
 4    1  0.1474645E+004  0.2477279E+02  0.7546771E-02  0.1664287E+00
          2   -1    0    0  501    0  0.00000000000E+00  0.00000000000E+00  0.61793395844E+02  0.61793395844E+02  0.00000000000E+00 0. -1.
         -2   -1    0    0    0  501 -0.00000000000E+00 -0.00000000000E+00 -0.61896771676E+02  0.61896771676E+02  0.00000000000E+00 0. -1.
          2    1    1    2  502    0  0.93812399101E+01  0.22927782945E+02  0.56615084213E+02  0.61797723692E+02  0.00000000000E+00 0. -1.
         -2    1    1    2    0  502 -0.93812399101E+01 -0.22927782945E+02 -0.56718460045E+02  0.61892443827E+02  0.00000000000E+00 0. -1.
<mgrwt>
<rscale>  2 0.24772785E+02</rscale>
<asrwt>0</asrwt>
<pdfrwt beam="1">  1        2 0.95066763E-02 0.24772785E+02</pdfrwt>
<pdfrwt beam="2">  1       -2 0.95225802E-02 0.24772785E+02</pdfrwt>
<totfact> 0.34166148E+04</totfact>
</mgrwt>
</event>
<event>
 4    1  0.1474645E+004  0.4156033E+02  0.7546771E-02  0.1497033E+00
          2   -1    0    0  501    0  0.00000000000E+00  0.00000000000E+00  0.57909257859E+02  0.57909257859E+02  0.00000000000E+00 0. -1.
         -2   -1    0    0    0  501 -0.00000000000E+00 -0.00000000000E+00 -0.26083780869E+03  0.26083780869E+03  0.00000000000E+00 0.  1.
          2    1    1    2  502    0 -0.22126558356E+02  0.35180625859E+02  0.48520457444E+02  0.63886585533E+02  0.00000000000E+00 0. -1.
         -2    1    1    2    0  502  0.22126558356E+02 -0.35180625859E+02 -0.25144900828E+03  0.25486048101E+03  0.00000000000E+00 0.  1.
<mgrwt>
<rscale>  2 0.41560330E+02</rscale>
<asrwt>0</asrwt>
<pdfrwt beam="1">  1        2 0.89091166E-02 0.41560330E+02</pdfrwt>
<pdfrwt beam="2">  1       -2 0.40128894E-01 0.41560330E+02</pdfrwt>
<totfact> 0.37852603E+03</totfact>
</mgrwt>
</event>
<event>
 4    1  0.1474645E+004  0.2196259E+02  0.7546771E-02  0.1708900E+00
          2   -1    0    0  501    0  0.00000000000E+00  0.00000000000E+00  0.48865193607E+02  0.48865193607E+02  0.00000000000E+00 0. -1.
         -2   -1    0    0    0  501 -0.00000000000E+00 -0.00000000000E+00 -0.98869589037E+01  0.98869589037E+01  0.00000000000E+00 0.  1.
          2    1    1    2  502    0 -0.19191059215E+02 -0.10679816022E+02  0.20664108636E+02  0.30155606606E+02  0.00000000000E+00 0. -1.
         -2    1    1    2    0  502  0.19191059215E+02  0.10679816022E+02  0.18314126067E+02  0.28596545904E+02  0.00000000000E+00 0.  1.
<mgrwt>
<rscale>  2 0.21962587E+02</rscale>
<asrwt>0</asrwt>
<pdfrwt beam="1">  1        2 0.75177220E-02 0.21962587E+02</pdfrwt>
<pdfrwt beam="2">  1       -2 0.15210706E-02 0.21962587E+02</pdfrwt>
<totfact> 0.57844362E+05</totfact>
</mgrwt>
</event>
<event>
 4    1  0.1474645E+004  0.2056011E+02  0.7546771E-02  0.1734414E+00
          2   -1    0    0  501    0  0.00000000000E+00  0.00000000000E+00  0.12253929070E+03  0.12253929070E+03  0.00000000000E+00 0. -1.
         -2   -1    0    0    0  501 -0.00000000000E+00 -0.00000000000E+00 -0.24864585494E+02  0.24864585494E+02  0.00000000000E+00 0.  1.
          2    1    1    2  502    0 -0.16479456892E+02 -0.12294130417E+02  0.11723586278E+03  0.11902506318E+03  0.00000000000E+00 0. -1.
         -2    1    1    2    0  502  0.16479456892E+02  0.12294130417E+02 -0.19561157579E+02  0.28378813013E+02  0.00000000000E+00 0.  1.
<mgrwt>
<rscale>  2 0.20560110E+02</rscale>
<asrwt>0</asrwt>
<pdfrwt beam="1">  1        2 0.18852198E-01 0.20560110E+02</pdfrwt>
<pdfrwt beam="2">  1       -2 0.38253209E-02 0.20560110E+02</pdfrwt>
<totfact> 0.56866103E+04</totfact>
</mgrwt>
</event>
<event>
 4    1  0.1474645E+004  0.3116513E+02  0.7546771E-02  0.1585556E+00
         -2   -1    0    0    0  501 -0.00000000000E+00  0.00000000000E+00  0.43247771598E+02  0.43247771598E+02  0.00000000000E+00 0. -1.
          2   -1    0    0  501    0  0.00000000000E+00 -0.00000000000E+00 -0.42534306811E+02  0.42534306811E+02  0.00000000000E+00 0. -1.
          2    1    1    2  502    0 -0.17092870085E+02  0.26059527652E+02 -0.29110348604E+02  0.42645956257E+02  0.00000000000E+00 0. -1.
         -2    1    1    2    0  502  0.17092870085E+02 -0.26059527652E+02  0.29823813391E+02  0.43136122152E+02  0.00000000000E+00 0. -1.
<mgrwt>
<rscale>  2 0.31165128E+02</rscale>
<asrwt>0</asrwt>
<pdfrwt beam="2">  1        2 0.65437395E-02 0.31165128E+02</pdfrwt>
<pdfrwt beam="1">  1       -2 0.66535033E-02 0.31165128E+02</pdfrwt>
<totfact> 0.94806245E+04</totfact>
</mgrwt>
</event>
<event>
 4    1  0.1474645E+004  0.4218289E+02  0.7546771E-02  0.1492736E+00
         -2   -1    0    0    0  501 -0.00000000000E+00  0.00000000000E+00  0.12821704999E+03  0.12821704999E+03  0.00000000000E+00 0. -1.
          2   -1    0    0  501    0  0.00000000000E+00 -0.00000000000E+00 -0.39912037504E+02  0.39912037504E+02  0.00000000000E+00 0. -1.
          2    1    1    2  502    0  0.34921110762E+02 -0.23662465614E+02 -0.23741536811E+02  0.48405132227E+02  0.00000000000E+00 0. -1.
         -2    1    1    2    0  502 -0.34921110762E+02  0.23662465614E+02  0.11204654930E+03  0.11972395527E+03  0.00000000000E+00 0. -1.
<mgrwt>
<rscale>  2 0.42182891E+02</rscale>
<asrwt>0</asrwt>
<pdfrwt beam="2">  1        2 0.61403135E-02 0.42182891E+02</pdfrwt>
<pdfrwt beam="1">  1       -2 0.19725700E-01 0.42182891E+02</pdfrwt>
<totfact> 0.20409193E+04</totfact>
</mgrwt>
</event>
<event>
 4    1  0.1474645E+004  0.2524124E+02  0.7546771E-02  0.1657561E+00
          2   -1    0    0  501    0  0.00000000000E+00  0.00000000000E+00  0.50191728621E+02  0.50191728621E+02  0.00000000000E+00 0.  1.
         -2   -1    0    0    0  501 -0.00000000000E+00 -0.00000000000E+00 -0.15092900883E+03  0.15092900883E+03  0.00000000000E+00 0.  1.
          2    1    1    2  502    0 -0.24516385239E+02  0.60055920462E+01  0.45870103048E+02  0.52356342832E+02  0.00000000000E+00 0.  1.
         -2    1    1    2    0  502  0.24516385239E+02 -0.60055920462E+01 -0.14660738326E+03  0.14876439462E+03  0.00000000000E+00 0.  1.
<mgrwt>
<rscale>  2 0.25241242E+02</rscale>
<asrwt>0</asrwt>
<pdfrwt beam="1">  1        2 0.77218044E-02 0.25241242E+02</pdfrwt>
<pdfrwt beam="2">  1       -2 0.23219848E-01 0.25241242E+02</pdfrwt>
<totfact> 0.10893767E+04</totfact>
</mgrwt>
</event>
<event>
 4    1  0.1474645E+004  0.3598830E+02  0.7546771E-02  0.1539995E+00
         -2   -1    0    0    0  501 -0.00000000000E+00  0.00000000000E+00  0.21835877407E+01  0.21835877407E+01  0.00000000000E+00 0. -1.
          2   -1    0    0  501    0  0.00000000000E+00 -0.00000000000E+00 -0.65929161367E+03  0.65929161367E+03  0.00000000000E+00 0. -1.
          2    1    1    2  502    0  0.32750436293E+02  0.14918677411E+02 -0.43332424246E+03  0.43481611874E+03  0.00000000000E+00 0. -1.
         -2    1    1    2    0  502 -0.32750436293E+02 -0.14918677411E+02 -0.22378378347E+03  0.22665908267E+03  0.00000000000E+00 0. -1.
<mgrwt>
<rscale>  2 0.35988304E+02</rscale>
<asrwt>0</asrwt>
<pdfrwt beam="2">  1        2 0.10142959E+00 0.35988304E+02</pdfrwt>
<pdfrwt beam="1">  1       -2 0.33593622E-03 0.35988304E+02</pdfrwt>
<totfact> 0.32355449E+05</totfact>
</mgrwt>
</event>
<event>
 4    1  0.1474645E+004  0.3279053E+02  0.7546771E-02  0.1569145E+00
          2   -1    0    0  501    0  0.00000000000E+00  0.00000000000E+00  0.17064290837E+04  0.17064290837E+04  0.00000000000E+00 0. -1.
         -2   -1    0    0    0  501 -0.00000000000E+00 -0.00000000000E+00 -0.13509320751E+01  0.13509320751E+01  0.00000000000E+00 0. -1.
          2    1    1    2  502    0  0.30172907357E+02 -0.12838012965E+02  0.14762776290E+04  0.14766417496E+04  0.00000000000E+00 0. -1.
         -2    1    1    2    0  502 -0.30172907357E+02  0.12838012965E+02  0.22880052265E+03  0.23113826615E+03  0.00000000000E+00 0. -1.
<mgrwt>
<rscale>  2 0.32790531E+02</rscale>
<asrwt>0</asrwt>
<pdfrwt beam="1">  1        2 0.26252583E+00 0.32790531E+02</pdfrwt>
<pdfrwt beam="2">  1       -2 0.20783707E-03 0.32790531E+02</pdfrwt>
<totfact> 0.16439103E+05</totfact>
</mgrwt>
</event>
<event>
 4    1  0.1474645E+004  0.4326633E+02  0.7546771E-02  0.1485464E+00
          2   -1    0    0  501    0  0.00000000000E+00  0.00000000000E+00  0.13235691059E+04  0.13235691059E+04  0.00000000000E+00 0.  1.
         -2   -1    0    0    0  501 -0.00000000000E+00 -0.00000000000E+00 -0.17103290873E+01  0.17103290873E+01  0.00000000000E+00 0. -1.
          2    1    1    2  502    0 -0.13704680675E+02  0.41038478426E+02  0.93659109439E+03  0.93758991732E+03  0.00000000000E+00 0.  1.
         -2    1    1    2    0  502  0.13704680675E+02 -0.41038478426E+02  0.38526768246E+03  0.38768951770E+03  0.00000000000E+00 0. -1.
<mgrwt>
<rscale>  2 0.43266326E+02</rscale>
<asrwt>0</asrwt>
<pdfrwt beam="1">  1        2 0.20362520E+00 0.43266326E+02</pdfrwt>
<pdfrwt beam="2">  1       -2 0.26312861E-03 0.43266326E+02</pdfrwt>
<totfact> 0.19303561E+05</totfact>
</mgrwt>
</event>
<event>
 4    1  0.1474645E+004  0.3977113E+02  0.7546771E-02  0.1509902E+00
         -2   -1    0    0    0  501 -0.00000000000E+00  0.00000000000E+00  0.34590217016E+02  0.34590217016E+02  0.00000000000E+00 0. -1.
          2   -1    0    0  501    0  0.00000000000E+00 -0.00000000000E+00 -0.10895351391E+03  0.10895351391E+03  0.00000000000E+00 0. -1.
          2    1    1    2  502    0  0.39742436521E+02 -0.15105257156E+01 -0.91855497357E+02  0.10009583080E+03  0.00000000000E+00 0. -1.
         -2    1    1    2    0  502 -0.39742436521E+02  0.15105257156E+01  0.17492200461E+02  0.43447900128E+02  0.00000000000E+00 0. -1.
<mgrwt>
<rscale>  2 0.39771132E+02</rscale>
<asrwt>0</asrwt>
<pdfrwt beam="2">  1        2 0.16762079E-01 0.39771132E+02</pdfrwt>
<pdfrwt beam="1">  1       -2 0.53215719E-02 0.39771132E+02</pdfrwt>
<totfact> 0.46114557E+04</totfact>
</mgrwt>
</event>
<event>
 4    1  0.1474645E+004  0.2255659E+02  0.7546771E-02  0.1698800E+00
         -2   -1    0    0    0  501 -0.00000000000E+00  0.00000000000E+00  0.10072783738E+02  0.10072783738E+02  0.00000000000E+00 0. -1.
          2   -1    0    0  501    0  0.00000000000E+00 -0.00000000000E+00 -0.51221291992E+02  0.51221291992E+02  0.00000000000E+00 0. -1.
          2    1    1    2  502    0 -0.12075567697E+02  0.19052043443E+02 -0.24179851257E+02  0.33067580821E+02  0.00000000000E+00 0. -1.
         -2    1    1    2    0  502  0.12075567697E+02 -0.19052043443E+02 -0.16968656998E+02  0.28226494909E+02  0.00000000000E+00 0. -1.
<mgrwt>
<rscale>  2 0.22556589E+02</rscale>
<asrwt>0</asrwt>
<pdfrwt beam="2">  1        2 0.78801988E-02 0.22556589E+02</pdfrwt>
<pdfrwt beam="1">  1       -2 0.15496590E-02 0.22556589E+02</pdfrwt>
<totfact> 0.53809012E+05</totfact>
</mgrwt>
</event>
<event>
 4    1  0.1474645E+004  0.2308195E+02  0.7546771E-02  0.1690185E+00
          2   -1    0    0  501    0  0.00000000000E+00  0.00000000000E+00  0.71464319135E+01  0.71464319135E+01  0.00000000000E+00 0.  1.
         -2   -1    0    0    0  501 -0.00000000000E+00 -0.00000000000E+00 -0.21099770415E+03  0.21099770415E+03  0.00000000000E+00 0.  1.
          2    1    1    2  502    0 -0.15942576176E+02 -0.16691634120E+02 -0.14214326085E+02  0.27107627170E+02  0.00000000000E+00 0.  1.
         -2    1    1    2    0  502  0.15942576176E+02  0.16691634120E+02 -0.18963694615E+03  0.19103650889E+03  0.00000000000E+00 0.  1.
<mgrwt>
<rscale>  2 0.23081949E+02</rscale>
<asrwt>0</asrwt>
<pdfrwt beam="1">  1        2 0.10994512E-02 0.23081949E+02</pdfrwt>
<pdfrwt beam="2">  1       -2 0.32461182E-01 0.23081949E+02</pdfrwt>
<totfact> 0.70285466E+04</totfact>
</mgrwt>
</event>
<event>
 4    1  0.1474645E+004  0.2481543E+02  0.7546771E-02  0.1663667E+00
         -2   -1    0    0    0  501 -0.00000000000E+00  0.00000000000E+00  0.44821674288E+02  0.44821674288E+02  0.00000000000E+00 0. -1.
          2   -1    0    0  501    0  0.00000000000E+00 -0.00000000000E+00 -0.21509975496E+03  0.21509975496E+03  0.00000000000E+00 0.  1.
          2    1    1    2  502    0  0.16853509756E+02 -0.18214407356E+02 -0.21088080116E+03  0.21233586067E+03  0.00000000000E+00 0.  1.
         -2    1    1    2    0  502 -0.16853509756E+02  0.18214407356E+02  0.40602720487E+02  0.47585568583E+02  0.00000000000E+00 0. -1.
<mgrwt>
<rscale>  2 0.24815427E+02</rscale>
<asrwt>0</asrwt>
<pdfrwt beam="2">  1        2 0.33092271E-01 0.24815427E+02</pdfrwt>
<pdfrwt beam="1">  1       -2 0.68956420E-02 0.24815427E+02</pdfrwt>
<totfact> 0.14273030E+04</totfact>
</mgrwt>
</event>
<event>
 4    1  0.1474645E+004  0.3289328E+02  0.7546771E-02  0.1568146E+00
          2   -1    0    0  501    0  0.00000000000E+00  0.00000000000E+00  0.17557856176E+04  0.17557856176E+04  0.00000000000E+00 0. -1.
         -2   -1    0    0    0  501 -0.00000000000E+00 -0.00000000000E+00 -0.20966461560E+01  0.20966461560E+01  0.00000000000E+00 0. -1.
          2    1    1    2  502    0 -0.29546745936E+02  0.14455374011E+02  0.16154101331E+04  0.16157449880E+04  0.00000000000E+00 0. -1.
         -2    1    1    2    0  502  0.29546745936E+02 -0.14455374011E+02  0.13827883829E+03  0.14213727573E+03  0.00000000000E+00 0. -1.
<mgrwt>
<rscale>  2 0.32893282E+02</rscale>
<asrwt>0</asrwt>
<pdfrwt beam="1">  1        2 0.27011969E+00 0.32893282E+02</pdfrwt>
<pdfrwt beam="2">  1       -2 0.32256235E-03 0.32893282E+02</pdfrwt>
<totfact> 0.86204710E+04</totfact>
</mgrwt>
</event>
<event>
 4    1  0.1474645E+004  0.2100744E+02  0.7546771E-02  0.1726005E+00
          2   -1    0    0  501    0  0.00000000000E+00  0.00000000000E+00  0.11981619175E+04  0.11981619175E+04  0.00000000000E+00 0.  1.
         -2   -1    0    0    0  501 -0.00000000000E+00 -0.00000000000E+00 -0.75087184230E+02  0.75087184230E+02  0.00000000000E+00 0.  1.
          2    1    1    2  502    0  0.19117569858E+02 -0.87081075460E+01  0.11965985828E+04  0.11967829716E+04  0.00000000000E+00 0.  1.
         -2    1    1    2    0  502 -0.19117569858E+02  0.87081075460E+01 -0.73523849536E+02  0.76466130181E+02  0.00000000000E+00 0.  1.
<mgrwt>
<rscale>  2 0.21007442E+02</rscale>
<asrwt>0</asrwt>
<pdfrwt beam="1">  1        2 0.18433259E+00 0.21007442E+02</pdfrwt>
<pdfrwt beam="2">  1       -2 0.11551875E-01 0.21007442E+02</pdfrwt>
<totfact> 0.10460745E+03</totfact>
</mgrwt>
</event>
<event>
 4    1  0.1474645E+004  0.2194869E+02  0.7546771E-02  0.1709141E+00
          2   -1    0    0  501    0  0.00000000000E+00  0.00000000000E+00  0.12388725559E+04  0.12388725559E+04  0.00000000000E+00 0.  1.
         -2   -1    0    0    0  501 -0.00000000000E+00 -0.00000000000E+00 -0.51921509856E+01  0.51921509856E+01  0.00000000000E+00 0. -1.
          2    1    1    2  502    0 -0.91518038901E+01 -0.19949669728E+02  0.12151262582E+04  0.12153244703E+04  0.00000000000E+00 0.  1.
         -2    1    1    2    0  502  0.91518038901E+01  0.19949669728E+02  0.18554146725E+02  0.28740236557E+02  0.00000000000E+00 0. -1.
<mgrwt>
<rscale>  2 0.21948686E+02</rscale>
<asrwt>0</asrwt>
<pdfrwt beam="1">  1        2 0.19059554E+00 0.21948686E+02</pdfrwt>
<pdfrwt beam="2">  1       -2 0.79879345E-03 0.21948686E+02</pdfrwt>
<totfact> 0.42058599E+04</totfact>
</mgrwt>
</event>
<event>
 4    1  0.1474645E+004  0.1851647E+03  0.7546771E-02  0.1162896E+00
          2   -1    0    0  501    0  0.00000000000E+00  0.00000000000E+00  0.94824481715E+03  0.94824481715E+03  0.00000000000E+00 0.  1.
         -2   -1    0    0    0  501 -0.00000000000E+00 -0.00000000000E+00 -0.28485690996E+03  0.28485690996E+03  0.00000000000E+00 0. -1.
          2    1    1    2  502    0 -0.12239645162E+03  0.13894267703E+03  0.90778761311E+03  0.92647952453E+03  0.00000000000E+00 0.  1.
         -2    1    1    2    0  502  0.12239645162E+03 -0.13894267703E+03 -0.24439970591E+03  0.30662220259E+03  0.00000000000E+00 0. -1.
<mgrwt>
<rscale>  2 0.18516468E+03</rscale>
<asrwt>0</asrwt>
<pdfrwt beam="1">  1        2 0.14588382E+00 0.18516468E+03</pdfrwt>
<pdfrwt beam="2">  1       -2 0.43824141E-01 0.18516468E+03</pdfrwt>
<totfact> 0.14524881E+02</totfact>
</mgrwt>
</event>
<event>
 4    1  0.1474645E+004  0.4577159E+02  0.7546771E-02  0.1469581E+00
         -2   -1    0    0    0  501 -0.00000000000E+00  0.00000000000E+00  0.63457123907E+01  0.63457123907E+01  0.00000000000E+00 0.  1.
          2   -1    0    0  501    0  0.00000000000E+00 -0.00000000000E+00 -0.49700825741E+03  0.49700825741E+03  0.00000000000E+00 0.  1.
          2    1    1    2  502    0  0.35814520789E+02 -0.28501904715E+02 -0.39115736516E+03  0.39382625965E+03  0.00000000000E+00 0.  1.
         -2    1    1    2    0  502 -0.35814520789E+02  0.28501904715E+02 -0.99505179857E+02  0.10952771015E+03  0.00000000000E+00 0.  1.
<mgrwt>
<rscale>  2 0.45771590E+02</rscale>
<asrwt>0</asrwt>
<pdfrwt beam="2">  1        2 0.76462827E-01 0.45771590E+02</pdfrwt>
<pdfrwt beam="1">  1       -2 0.97626322E-03 0.45771590E+02</pdfrwt>
<totfact> 0.10659853E+05</totfact>
</mgrwt>
</event>
<event>
 4    1  0.1474645E+004  0.2015103E+02  0.7546771E-02  0.1742341E+00
         -2   -1    0    0    0  501 -0.00000000000E+00  0.00000000000E+00  0.63956899398E+02  0.63956899398E+02  0.00000000000E+00 0. -1.
          2   -1    0    0  501    0  0.00000000000E+00 -0.00000000000E+00 -0.74594001861E+03  0.74594001861E+03  0.00000000000E+00 0.  1.
          2    1    1    2  502    0 -0.18950623923E+02  0.68511211433E+01 -0.74421298803E+03  0.74448575243E+03  0.00000000000E+00 0.  1.
         -2    1    1    2    0  502  0.18950623923E+02 -0.68511211433E+01  0.62229868827E+02  0.65411165577E+02  0.00000000000E+00 0. -1.
<mgrwt>
<rscale>  2 0.20151030E+02</rscale>
<asrwt>0</asrwt>
<pdfrwt beam="2">  1        2 0.11476000E+00 0.20151030E+02</pdfrwt>
<pdfrwt beam="1">  1       -2 0.98395231E-02 0.20151030E+02</pdfrwt>
<totfact> 0.23586775E+03</totfact>
</mgrwt>
</event>
<event>
 4    1  0.1474645E+004  0.3164489E+02  0.7546771E-02  0.1580587E+00
         -2   -1    0    0    0  501 -0.00000000000E+00  0.00000000000E+00  0.15467192480E+02  0.15467192480E+02  0.00000000000E+00 0. -1.
          2   -1    0    0  501    0  0.00000000000E+00 -0.00000000000E+00 -0.82461811495E+02  0.82461811495E+02  0.00000000000E+00 0.  1.
          2    1    1    2  502    0  0.22012195357E+02  0.22734612926E+02 -0.56194218270E+02  0.64491778827E+02  0.00000000000E+00 0.  1.
         -2    1    1    2    0  502 -0.22012195357E+02 -0.22734612926E+02 -0.10800400744E+02  0.33437225148E+02  0.00000000000E+00 0. -1.
<mgrwt>
<rscale>  2 0.31644895E+02</rscale>
<asrwt>0</asrwt>
<pdfrwt beam="2">  1        2 0.12686433E-01 0.31644895E+02</pdfrwt>
<pdfrwt beam="1">  1       -2 0.23795681E-02 0.31644895E+02</pdfrwt>
<totfact> 0.18872985E+05</totfact>
</mgrwt>
</event>
<event>
 4    1  0.1474645E+004  0.2029858E+02  0.7546771E-02  0.1739455E+00
          2   -1    0    0  501    0  0.00000000000E+00  0.00000000000E+00  0.14383269146E+04  0.14383269146E+04  0.00000000000E+00 0.  1.
         -2   -1    0    0    0  501 -0.00000000000E+00 -0.00000000000E+00 -0.17677214255E+01  0.17677214255E+01  0.00000000000E+00 0.  1.
          2    1    1    2  502    0  0.18323285194E+02 -0.87343870515E+01  0.13774065118E+04  0.13775560718E+04  0.00000000000E+00 0.  1.
         -2    1    1    2    0  502 -0.18323285194E+02  0.87343870515E+01  0.59152681394E+02  0.62538564211E+02  0.00000000000E+00 0.  1.
<mgrwt>
<rscale>  2 0.20298579E+02</rscale>
<asrwt>0</asrwt>
<pdfrwt beam="1">  1        2 0.22128013E+00 0.20298579E+02</pdfrwt>
<pdfrwt beam="2">  1       -2 0.27195829E-03 0.20298579E+02</pdfrwt>
<totfact> 0.13971833E+05</totfact>
</mgrwt>
</event>
<event>
 4    1  0.1474645E+004  0.2321368E+03  0.7546771E-02  0.1125145E+00
         -2   -1    0    0    0  501 -0.00000000000E+00  0.00000000000E+00  0.10492498818E+03  0.10492498818E+03  0.00000000000E+00 0.  1.
          2   -1    0    0  501    0  0.00000000000E+00 -0.00000000000E+00 -0.10525411026E+04  0.10525411026E+04  0.00000000000E+00 0. -1.
          2    1    1    2  502    0  0.21657186685E+03  0.83571014541E+02 -0.88793837735E+03  0.91778104685E+03  0.00000000000E+00 0. -1.
         -2    1    1    2    0  502 -0.21657186685E+03 -0.83571014541E+02 -0.59677737085E+02  0.23968504394E+03  0.00000000000E+00 0.  1.
<mgrwt>
<rscale>  2 0.23213679E+03</rscale>
<asrwt>0</asrwt>
<pdfrwt beam="2">  1        2 0.16192940E+00 0.23213679E+03</pdfrwt>
<pdfrwt beam="1">  1       -2 0.16142306E-01 0.23213679E+03</pdfrwt>
<totfact> 0.74261007E+02</totfact>
</mgrwt>
</event>
<event>
 4    1  0.1474645E+004  0.2260372E+02  0.7546771E-02  0.1698015E+00
         -2   -1    0    0    0  501 -0.00000000000E+00  0.00000000000E+00  0.15028322993E+02  0.15028322993E+02  0.00000000000E+00 0.  1.
          2   -1    0    0  501    0  0.00000000000E+00 -0.00000000000E+00 -0.52231474531E+03  0.52231474531E+03  0.00000000000E+00 0.  1.
          2    1    1    2  502    0  0.77570295877E+01 -0.21231035332E+02 -0.51342365559E+03  0.51392098468E+03  0.00000000000E+00 0.  1.
         -2    1    1    2    0  502 -0.77570295877E+01  0.21231035332E+02  0.61372332733E+01  0.23422083629E+02  0.00000000000E+00 0.  1.
<mgrwt>
<rscale>  2 0.22603725E+02</rscale>
<asrwt>0</asrwt>
<pdfrwt beam="2">  1        2 0.80356121E-01 0.22603725E+02</pdfrwt>
<pdfrwt beam="1">  1       -2 0.23120495E-02 0.22603725E+02</pdfrwt>
<totfact> 0.27129692E+04</totfact>
</mgrwt>
</event>
<event>
 4    1  0.1474645E+004  0.2042043E+02  0.7546771E-02  0.1737094E+00
          2   -1    0    0  501    0  0.00000000000E+00  0.00000000000E+00  0.54868280996E+02  0.54868280996E+02  0.00000000000E+00 0.  1.
         -2   -1    0    0    0  501 -0.00000000000E+00 -0.00000000000E+00 -0.17602863820E+02  0.17602863820E+02  0.00000000000E+00 0.  1.
          2    1    1    2  502    0 -0.18883121847E+02 -0.77731424172E+01  0.45948109504E+02  0.50281435945E+02  0.00000000000E+00 0.  1.
         -2    1    1    2    0  502  0.18883121847E+02  0.77731424172E+01 -0.86826923283E+01  0.22189708871E+02  0.00000000000E+00 0.  1.
<mgrwt>
<rscale>  2 0.20420432E+02</rscale>
<asrwt>0</asrwt>
<pdfrwt beam="1">  1        2 0.84412739E-02 0.20420432E+02</pdfrwt>
<pdfrwt beam="2">  1       -2 0.27081329E-02 0.20420432E+02</pdfrwt>
<totfact> 0.22425106E+05</totfact>
</mgrwt>
</event>
<event>
 4    1  0.1474645E+004  0.2581052E+02  0.7546771E-02  0.1649626E+00
          2   -1    0    0  501    0  0.00000000000E+00  0.00000000000E+00  0.17649015197E+03  0.17649015197E+03  0.00000000000E+00 0.  1.
         -2   -1    0    0    0  501 -0.00000000000E+00 -0.00000000000E+00 -0.52813368868E+01  0.52813368868E+01  0.00000000000E+00 0.  1.
          2    1    1    2  502    0  0.25799409642E+02  0.75682747966E+00  0.37059863995E+02  0.45162106296E+02  0.00000000000E+00 0.  1.
         -2    1    1    2    0  502 -0.25799409642E+02 -0.75682747966E+00  0.13414895109E+03  0.13660938256E+03  0.00000000000E+00 0.  1.
<mgrwt>
<rscale>  2 0.25810521E+02</rscale>
<asrwt>0</asrwt>
<pdfrwt beam="1">  1        2 0.27152327E-01 0.25810521E+02</pdfrwt>
<pdfrwt beam="2">  1       -2 0.81251350E-03 0.25810521E+02</pdfrwt>
<totfact> 0.34396410E+05</totfact>
</mgrwt>
</event>
<event>
 4    1  0.1474645E+004  0.2063275E+02  0.7546771E-02  0.1733030E+00
         -2   -1    0    0    0  501 -0.00000000000E+00  0.00000000000E+00  0.19937126866E+02  0.19937126866E+02  0.00000000000E+00 0.  1.
          2   -1    0    0  501    0  0.00000000000E+00 -0.00000000000E+00 -0.15426733921E+03  0.15426733921E+03  0.00000000000E+00 0. -1.
          2    1    1    2  502    0  0.12361588499E+02  0.16519733958E+02 -0.14801487560E+03  0.14944602330E+03  0.00000000000E+00 0. -1.
         -2    1    1    2    0  502 -0.12361588499E+02 -0.16519733958E+02  0.13684663258E+02  0.24758442777E+02  0.00000000000E+00 0.  1.
<mgrwt>
<rscale>  2 0.20632753E+02</rscale>
<asrwt>0</asrwt>
<pdfrwt beam="2">  1        2 0.23733437E-01 0.20632753E+02</pdfrwt>
<pdfrwt beam="1">  1       -2 0.30672503E-02 0.20632753E+02</pdfrwt>
<totfact> 0.60798463E+04</totfact>
</mgrwt>
</event>
<event>
 4    1  0.1474645E+004  0.2033099E+02  0.7546771E-02  0.1738825E+00
         -2   -1    0    0    0  501 -0.00000000000E+00  0.00000000000E+00  0.46964164756E+00  0.46964164756E+00  0.00000000000E+00 0. -1.
          2   -1    0    0  501    0  0.00000000000E+00 -0.00000000000E+00 -0.11324316592E+04  0.11324316592E+04  0.00000000000E+00 0.  1.
          2    1    1    2  502    0  0.19064316892E+02 -0.70640623943E+01 -0.83334924073E+03  0.83359720860E+03  0.00000000000E+00 0.  1.
         -2    1    1    2    0  502 -0.19064316892E+02  0.70640623943E+01 -0.29861277678E+03  0.29930409221E+03  0.00000000000E+00 0. -1.
<mgrwt>
<rscale>  2 0.20330990E+02</rscale>
<asrwt>0</asrwt>
<pdfrwt beam="2">  1        2 0.17421932E+00 0.20330990E+02</pdfrwt>
<pdfrwt beam="1">  1       -2 0.72252951E-04 0.20330990E+02</pdfrwt>
<totfact> 0.11238537E+06</totfact>
</mgrwt>
</event>
<event>
 4    1  0.1474645E+004  0.2755825E+02  0.7546771E-02  0.1626761E+00
         -2   -1    0    0    0  501 -0.00000000000E+00  0.00000000000E+00  0.89306532121E+00  0.89306532121E+00  0.00000000000E+00 0.  1.
          2   -1    0    0  501    0  0.00000000000E+00 -0.00000000000E+00 -0.86487385060E+03  0.86487385060E+03  0.00000000000E+00 0.  1.
          2    1    1    2  502    0 -0.27178566031E+02  0.45587743055E+01 -0.48800293863E+03  0.48878044661E+03  0.00000000000E+00 0.  1.
         -2    1    1    2    0  502  0.27178566031E+02 -0.45587743055E+01 -0.37597784666E+03  0.37698646932E+03  0.00000000000E+00 0.  1.
<mgrwt>
<rscale>  2 0.27558245E+02</rscale>
<asrwt>0</asrwt>
<pdfrwt beam="2">  1        2 0.13305719E+00 0.27558245E+02</pdfrwt>
<pdfrwt beam="1">  1       -2 0.13739500E-03 0.27558245E+02</pdfrwt>
<totfact> 0.73796031E+05</totfact>
</mgrwt>
</event>
<event>
 4    1  0.1474645E+004  0.2079097E+02  0.7546771E-02  0.1730041E+00
          2   -1    0    0  501    0  0.00000000000E+00  0.00000000000E+00  0.17022102537E+02  0.17022102537E+02  0.00000000000E+00 0. -1.
         -2   -1    0    0    0  501 -0.00000000000E+00 -0.00000000000E+00 -0.83057186151E+02  0.83057186151E+02  0.00000000000E+00 0. -1.
          2    1    1    2  502    0 -0.72666933802E+00 -0.20778263927E+02  0.86764822546E+01  0.22528773701E+02  0.00000000000E+00 0. -1.
         -2    1    1    2    0  502  0.72666933802E+00  0.20778263927E+02 -0.74711565869E+02  0.77550514987E+02  0.00000000000E+00 0. -1.
<mgrwt>
<rscale>  2 0.20790967E+02</rscale>
<asrwt>0</asrwt>
<pdfrwt beam="1">  1        2 0.26187850E-02 0.20790967E+02</pdfrwt>
<pdfrwt beam="2">  1       -2 0.12778029E-01 0.20790967E+02</pdfrwt>
<totfact> 0.10146935E+05</totfact>
</mgrwt>
</event>
<event>
 4    1  0.1474645E+004  0.4163061E+02  0.7546771E-02  0.1496544E+00
         -2   -1    0    0    0  501 -0.00000000000E+00  0.00000000000E+00  0.24994462142E+02  0.24994462142E+02  0.00000000000E+00 0. -1.
          2   -1    0    0  501    0  0.00000000000E+00 -0.00000000000E+00 -0.85973986706E+02  0.85973986706E+02  0.00000000000E+00 0. -1.
          2    1    1    2  502    0 -0.12218870072E+01  0.41612655750E+02 -0.60841717144E+01  0.42072832944E+02  0.00000000000E+00 0. -1.
         -2    1    1    2    0  502  0.12218870072E+01 -0.41612655750E+02 -0.54895352849E+02  0.68895615904E+02  0.00000000000E+00 0. -1.
<mgrwt>
<rscale>  2 0.41630612E+02</rscale>
<asrwt>0</asrwt>
<pdfrwt beam="2">  1        2 0.13226767E-01 0.41630612E+02</pdfrwt>
<pdfrwt beam="1">  1       -2 0.38453019E-02 0.41630612E+02</pdfrwt>
<totfact> 0.97036531E+04</totfact>
</mgrwt>
</event>
<event>
 4    1  0.1474645E+004  0.4210557E+02  0.7546771E-02  0.1493265E+00
          2   -1    0    0  501    0  0.00000000000E+00  0.00000000000E+00  0.12705120138E+02  0.12705120138E+02  0.00000000000E+00 0. -1.
         -2   -1    0    0    0  501 -0.00000000000E+00 -0.00000000000E+00 -0.67953482120E+03  0.67953482120E+03  0.00000000000E+00 0. -1.
          2    1    1    2  502    0  0.33661600414E+02 -0.25293783511E+02 -0.24872064874E+02  0.48902949172E+02  0.00000000000E+00 0. -1.
         -2    1    1    2    0  502 -0.33661600414E+02  0.25293783511E+02 -0.64195763619E+03  0.64333699217E+03  0.00000000000E+00 0. -1.
<mgrwt>
<rscale>  2 0.42105568E+02</rscale>
<asrwt>0</asrwt>
<pdfrwt beam="1">  1        2 0.19546336E-02 0.42105568E+02</pdfrwt>
<pdfrwt beam="2">  1       -2 0.10454384E+00 0.42105568E+02</pdfrwt>
<totfact> 0.36398004E+03</totfact>
</mgrwt>
</event>
<event>
 4    1  0.1474645E+004  0.3978105E+02  0.7546771E-02  0.1509829E+00
         -2   -1    0    0    0  501 -0.00000000000E+00  0.00000000000E+00  0.13745561428E+02  0.13745561428E+02  0.00000000000E+00 0. -1.
          2   -1    0    0  501    0  0.00000000000E+00 -0.00000000000E+00 -0.11520336918E+03  0.11520336918E+03  0.00000000000E+00 0. -1.
          2    1    1    2  502    0 -0.59245703043E+00 -0.39776619775E+02 -0.49105041436E+02  0.63196800398E+02  0.00000000000E+00 0. -1.
         -2    1    1    2    0  502  0.59245703043E+00  0.39776619775E+02 -0.52352766312E+02  0.65752130206E+02  0.00000000000E+00 0. -1.
<mgrwt>
<rscale>  2 0.39781052E+02</rscale>
<asrwt>0</asrwt>
<pdfrwt beam="2">  1        2 0.17723596E-01 0.39781052E+02</pdfrwt>
<pdfrwt beam="1">  1       -2 0.21147017E-02 0.39781052E+02</pdfrwt>
<totfact> 0.16148633E+05</totfact>
</mgrwt>
</event>
<event>
 4    1  0.1474645E+004  0.3309397E+02  0.7546771E-02  0.1566209E+00
         -2   -1    0    0    0  501 -0.00000000000E+00  0.00000000000E+00  0.18592773795E+01  0.18592773795E+01  0.00000000000E+00 0.  1.
          2   -1    0    0  501    0  0.00000000000E+00 -0.00000000000E+00 -0.81678413421E+03  0.81678413421E+03  0.00000000000E+00 0. -1.
          2    1    1    2  502    0  0.18963600432E+02 -0.27121817178E+02 -0.62359651325E+03  0.62447403665E+03  0.00000000000E+00 0. -1.
         -2    1    1    2    0  502 -0.18963600432E+02  0.27121817178E+02 -0.19132834357E+03  0.19416937493E+03  0.00000000000E+00 0.  1.
<mgrwt>
<rscale>  2 0.33093974E+02</rscale>
<asrwt>0</asrwt>
<pdfrwt beam="2">  1        2 0.12565913E+00 0.33093974E+02</pdfrwt>
<pdfrwt beam="1">  1       -2 0.28604261E-03 0.33093974E+02</pdfrwt>
<totfact> 0.30971972E+05</totfact>
</mgrwt>
</event>
<event>
 4    1  0.1474645E+004  0.2313281E+02  0.7546771E-02  0.1689366E+00
         -2   -1    0    0    0  501 -0.00000000000E+00  0.00000000000E+00  0.66619492271E+01  0.66619492271E+01  0.00000000000E+00 0. -1.
          2   -1    0    0  501    0  0.00000000000E+00 -0.00000000000E+00 -0.80332664595E+02  0.80332664595E+02  0.00000000000E+00 0. -1.
          2    1    1    2  502    0 -0.22867239637E+02 -0.34951422846E+01 -0.37236272803E+02  0.43836818776E+02  0.00000000000E+00 0. -1.
         -2    1    1    2    0  502  0.22867239637E+02  0.34951422846E+01 -0.36434442566E+02  0.43157795046E+02  0.00000000000E+00 0. -1.
<mgrwt>
<rscale>  2 0.23132805E+02</rscale>
<asrwt>0</asrwt>
<pdfrwt beam="2">  1        2 0.12358872E-01 0.23132805E+02</pdfrwt>
<pdfrwt beam="1">  1       -2 0.10249152E-02 0.23132805E+02</pdfrwt>
<totfact> 0.56642941E+05</totfact>
</mgrwt>
</event>
<event>
 4    1  0.1474645E+004  0.2289594E+02  0.7546771E-02  0.1693203E+00
          2   -1    0    0  501    0  0.00000000000E+00  0.00000000000E+00  0.26472080880E+02  0.26472080880E+02  0.00000000000E+00 0.  1.
         -2   -1    0    0    0  501 -0.00000000000E+00 -0.00000000000E+00 -0.22206155004E+02  0.22206155004E+02  0.00000000000E+00 0.  1.
          2    1    1    2  502    0 -0.98807404439E+01  0.20654174895E+02  0.10139930574E+02  0.25040809978E+02  0.00000000000E+00 0.  1.
         -2    1    1    2    0  502  0.98807404439E+01 -0.20654174895E+02 -0.58740046971E+01  0.23637425907E+02  0.00000000000E+00 0.  1.
<mgrwt>
<rscale>  2 0.22895938E+02</rscale>
<asrwt>0</asrwt>
<pdfrwt beam="1">  1        2 0.40726278E-02 0.22895938E+02</pdfrwt>
<pdfrwt beam="2">  1       -2 0.34163315E-02 0.22895938E+02</pdfrwt>
<totfact> 0.40455703E+05</totfact>
</mgrwt>
</event>
<event>
 4    1  0.1474645E+004  0.2023182E+02  0.7546771E-02  0.1740757E+00
          2   -1    0    0  501    0  0.00000000000E+00  0.00000000000E+00  0.11120415945E+04  0.11120415945E+04  0.00000000000E+00 0.  1.
         -2   -1    0    0    0  501 -0.00000000000E+00 -0.00000000000E+00 -0.45054778992E+02  0.45054778992E+02  0.00000000000E+00 0.  1.
          2    1    1    2  502    0  0.20033902051E+02 -0.28229664030E+01  0.11096734559E+04  0.11098578761E+04  0.00000000000E+00 0.  1.
         -2    1    1    2    0  502 -0.20033902051E+02  0.28229664030E+01 -0.42686640387E+02  0.47238497417E+02  0.00000000000E+00 0.  1.
<mgrwt>
<rscale>  2 0.20231816E+02</rscale>
<asrwt>0</asrwt>
<pdfrwt beam="1">  1        2 0.17108330E+00 0.20231816E+02</pdfrwt>
<pdfrwt beam="2">  1       -2 0.69315053E-02 0.20231816E+02</pdfrwt>
<totfact> 0.24462573E+03</totfact>
</mgrwt>
</event>
<event>
 4    1  0.1474645E+004  0.2471016E+02  0.7546771E-02  0.1665200E+00
         -2   -1    0    0    0  501 -0.00000000000E+00  0.00000000000E+00  0.44630366273E+01  0.44630366273E+01  0.00000000000E+00 0. -1.
          2   -1    0    0  501    0  0.00000000000E+00 -0.00000000000E+00 -0.14124144150E+03  0.14124144150E+03  0.00000000000E+00 0. -1.
          2    1    1    2  502    0 -0.24613198881E+02  0.21869168343E+01 -0.81292153976E+02  0.84964736582E+02  0.00000000000E+00 0. -1.
         -2    1    1    2    0  502  0.24613198881E+02 -0.21869168343E+01 -0.55486250896E+02  0.60739741545E+02  0.00000000000E+00 0. -1.
<mgrwt>
<rscale>  2 0.24710163E+02</rscale>
<asrwt>0</asrwt>
<pdfrwt beam="2">  1        2 0.21729451E-01 0.24710163E+02</pdfrwt>
<pdfrwt beam="1">  1       -2 0.68662107E-03 0.24710163E+02</pdfrwt>
<totfact> 0.53763854E+05</totfact>
</mgrwt>
</event>
<event>
 4    1  0.1474645E+004  0.2024912E+02  0.7546771E-02  0.1740419E+00
         -2   -1    0    0    0  501 -0.00000000000E+00  0.00000000000E+00  0.10211163317E+02  0.10211163317E+02  0.00000000000E+00 0.  1.
          2   -1    0    0  501    0  0.00000000000E+00 -0.00000000000E+00 -0.99054793485E+03  0.99054793485E+03  0.00000000000E+00 0. -1.
          2    1    1    2  502    0 -0.10693009067E+02  0.17195535588E+02 -0.98030083474E+03  0.98050994563E+03  0.00000000000E+00 0. -1.
         -2    1    1    2    0  502  0.10693009067E+02 -0.17195535588E+02 -0.35936794907E-01  0.20249152539E+02  0.00000000000E+00 0.  1.
<mgrwt>
<rscale>  2 0.20249121E+02</rscale>
<asrwt>0</asrwt>
<pdfrwt beam="2">  1        2 0.15239199E+00 0.20249121E+02</pdfrwt>
<pdfrwt beam="1">  1       -2 0.15709482E-02 0.20249121E+02</pdfrwt>
<totfact> 0.22339958E+04</totfact>
</mgrwt>
</event>
<event>
 4    1  0.1474645E+004  0.2034758E+02  0.7546771E-02  0.1738503E+00
         -2   -1    0    0    0  501 -0.00000000000E+00  0.00000000000E+00  0.68170304482E+02  0.68170304482E+02  0.00000000000E+00 0.  1.
          2   -1    0    0  501    0  0.00000000000E+00 -0.00000000000E+00 -0.48236238540E+03  0.48236238540E+03  0.00000000000E+00 0. -1.
          2    1    1    2  502    0 -0.19412982446E+02  0.60959050001E+01 -0.48062397043E+03  0.48105449265E+03  0.00000000000E+00 0. -1.
         -2    1    1    2    0  502  0.19412982446E+02 -0.60959050001E+01  0.66431889518E+02  0.69478197228E+02  0.00000000000E+00 0.  1.
<mgrwt>
<rscale>  2 0.20347578E+02</rscale>
<asrwt>0</asrwt>
<pdfrwt beam="2">  1        2 0.74209599E-01 0.20347578E+02</pdfrwt>
<pdfrwt beam="1">  1       -2 0.10487739E-01 0.20347578E+02</pdfrwt>
<totfact> 0.33777886E+03</totfact>
</mgrwt>
</event>
<event>
 4    1  0.1474645E+004  0.2322044E+02  0.7546771E-02  0.1687962E+00
          2   -1    0    0  501    0  0.00000000000E+00  0.00000000000E+00  0.15870650040E+04  0.15870650040E+04  0.00000000000E+00 0. -1.
         -2   -1    0    0    0  501 -0.00000000000E+00 -0.00000000000E+00 -0.17337044248E+01  0.17337044248E+01  0.00000000000E+00 0.  1.
          2    1    1    2  502    0  0.67053304529E+01 -0.22231229487E+02  0.15049891007E+04  0.15051682239E+04  0.00000000000E+00 0. -1.
         -2    1    1    2    0  502 -0.67053304529E+01  0.22231229487E+02  0.80342198827E+02  0.83630484474E+02  0.00000000000E+00 0.  1.
<mgrwt>
<rscale>  2 0.23220444E+02</rscale>
<asrwt>0</asrwt>
<pdfrwt beam="1">  1        2 0.24416268E+00 0.23220444E+02</pdfrwt>
<pdfrwt beam="2">  1       -2 0.26672503E-03 0.23220444E+02</pdfrwt>
<totfact> 0.12557045E+05</totfact>
</mgrwt>
</event>
<event>
 4    1  0.1474645E+004  0.2912907E+02  0.7546771E-02  0.1607920E+00
         -2   -1    0    0    0  501 -0.00000000000E+00  0.00000000000E+00  0.20743786656E+01  0.20743786656E+01  0.00000000000E+00 0.  1.
          2   -1    0    0  501    0  0.00000000000E+00 -0.00000000000E+00 -0.91851224569E+03  0.91851224569E+03  0.00000000000E+00 0.  1.
          2    1    1    2  502    0  0.28037292138E+02  0.79001883209E+01 -0.80102830463E+03  0.80155776307E+03  0.00000000000E+00 0.  1.
         -2    1    1    2    0  502 -0.28037292138E+02 -0.79001883209E+01 -0.11540956240E+03  0.11902886129E+03  0.00000000000E+00 0.  1.
<mgrwt>
<rscale>  2 0.29129070E+02</rscale>
<asrwt>0</asrwt>
<pdfrwt beam="2">  1        2 0.14130976E+00 0.29129070E+02</pdfrwt>
<pdfrwt beam="1">  1       -2 0.31913477E-03 0.29129070E+02</pdfrwt>
<totfact> 0.22571814E+05</totfact>
</mgrwt>
</event>
<event>
 4    1  0.1474645E+004  0.2668574E+02  0.7546771E-02  0.1637906E+00
          2   -1    0    0  501    0  0.00000000000E+00  0.00000000000E+00  0.46309345885E+03  0.46309345885E+03  0.00000000000E+00 0.  1.
         -2   -1    0    0    0  501 -0.00000000000E+00 -0.00000000000E+00 -0.33417050876E+01  0.33417050876E+01  0.00000000000E+00 0.  1.
          2    1    1    2  502    0  0.25751120891E+02 -0.70005954086E+01  0.40122755972E+03  0.40211401772E+03  0.00000000000E+00 0.  1.
         -2    1    1    2    0  502 -0.25751120891E+02  0.70005954086E+01  0.58524194045E+02  0.64321146227E+02  0.00000000000E+00 0.  1.
<mgrwt>
<rscale>  2 0.26685737E+02</rscale>
<asrwt>0</asrwt>
<pdfrwt beam="1">  1        2 0.71245097E-01 0.26685737E+02</pdfrwt>
<pdfrwt beam="2">  1       -2 0.51410884E-03 0.26685737E+02</pdfrwt>
<totfact> 0.24511673E+05</totfact>
</mgrwt>
</event>
<event>
 4    1  0.1474645E+004  0.2106719E+02  0.7546771E-02  0.1724902E+00
          2   -1    0    0  501    0  0.00000000000E+00  0.00000000000E+00  0.70808429085E+01  0.70808429085E+01  0.00000000000E+00 0. -1.
         -2   -1    0    0    0  501 -0.00000000000E+00 -0.00000000000E+00 -0.12329553196E+03  0.12329553196E+03  0.00000000000E+00 0.  1.
          2    1    1    2  502    0  0.20940723320E+02  0.23048806685E+01 -0.12399826993E+02  0.24445491967E+02  0.00000000000E+00 0. -1.
         -2    1    1    2    0  502 -0.20940723320E+02 -0.23048806685E+01 -0.10381486206E+03  0.10593088290E+03  0.00000000000E+00 0.  1.
<mgrwt>
<rscale>  2 0.21067187E+02</rscale>
<asrwt>0</asrwt>
<pdfrwt beam="1">  1        2 0.10893605E-02 0.21067187E+02</pdfrwt>
<pdfrwt beam="2">  1       -2 0.18968542E-01 0.21067187E+02</pdfrwt>
<totfact> 0.16948382E+05</totfact>
</mgrwt>
</event>
<event>
 4    1  0.1474645E+004  0.3384578E+02  0.7546771E-02  0.1559096E+00
          2   -1    0    0  501    0  0.00000000000E+00  0.00000000000E+00  0.39796720083E+03  0.39796720083E+03  0.00000000000E+00 0.  1.
         -2   -1    0    0    0  501 -0.00000000000E+00 -0.00000000000E+00 -0.45575214745E+01  0.45575214745E+01  0.00000000000E+00 0.  1.
          2    1    1    2  502    0  0.14059505706E+02  0.30787447772E+02  0.31886517305E+03  0.32065641305E+03  0.00000000000E+00 0.  1.
         -2    1    1    2    0  502 -0.14059505706E+02 -0.30787447772E+02  0.74544506300E+02  0.81868309256E+02  0.00000000000E+00 0.  1.
<mgrwt>
<rscale>  2 0.33845777E+02</rscale>
<asrwt>0</asrwt>
<pdfrwt beam="1">  1        2 0.61225696E-01 0.33845777E+02</pdfrwt>
<pdfrwt beam="2">  1       -2 0.70115747E-03 0.33845777E+02</pdfrwt>
<totfact> 0.19846823E+05</totfact>
</mgrwt>
</event>
<event>
 4    1  0.1474645E+004  0.2087580E+02  0.7546771E-02  0.1728452E+00
          2   -1    0    0  501    0  0.00000000000E+00  0.00000000000E+00  0.67546812639E+03  0.67546812639E+03  0.00000000000E+00 0. -1.
         -2   -1    0    0    0  501 -0.00000000000E+00 -0.00000000000E+00 -0.27138098279E+01  0.27138098279E+01  0.00000000000E+00 0.  1.
          2    1    1    2  502    0 -0.66541592994E+01 -0.19786894197E+02  0.63242904392E+03  0.63277349393E+03  0.00000000000E+00 0. -1.
         -2    1    1    2    0  502  0.66541592994E+01  0.19786894197E+02  0.40325272639E+02  0.45408442292E+02  0.00000000000E+00 0.  1.
<mgrwt>
<rscale>  2 0.20875800E+02</rscale>
<asrwt>0</asrwt>
<pdfrwt beam="1">  1        2 0.10391804E+00 0.20875800E+02</pdfrwt>
<pdfrwt beam="2">  1       -2 0.41750974E-03 0.20875800E+02</pdfrwt>
<totfact> 0.20599449E+05</totfact>
</mgrwt>
</event>
<event>
 4    1  0.1474645E+004  0.2235204E+02  0.7546771E-02  0.1702234E+00
         -2   -1    0    0    0  501 -0.00000000000E+00  0.00000000000E+00  0.17908534757E+02  0.17908534757E+02  0.00000000000E+00 0. -1.
          2   -1    0    0  501    0  0.00000000000E+00 -0.00000000000E+00 -0.37335820335E+02  0.37335820335E+02  0.00000000000E+00 0. -1.
          2    1    1    2  502    0  0.12883387623E+02 -0.18265597846E+02 -0.23601302545E+02  0.32505925969E+02  0.00000000000E+00 0. -1.
         -2    1    1    2    0  502 -0.12883387623E+02  0.18265597846E+02  0.41740169673E+01  0.22738429123E+02  0.00000000000E+00 0. -1.
<mgrwt>
<rscale>  2 0.22352041E+02</rscale>
<asrwt>0</asrwt>
<pdfrwt beam="2">  1        2 0.57439723E-02 0.22352041E+02</pdfrwt>
<pdfrwt beam="1">  1       -2 0.27551592E-02 0.22352041E+02</pdfrwt>
<totfact> 0.35530154E+05</totfact>
</mgrwt>
</event>
<event>
 4    1  0.1474645E+004  0.2343693E+02  0.7546771E-02  0.1684524E+00
         -2   -1    0    0    0  501 -0.00000000000E+00  0.00000000000E+00  0.91725463699E+00  0.91725463699E+00  0.00000000000E+00 0. -1.
          2   -1    0    0  501    0  0.00000000000E+00 -0.00000000000E+00 -0.75044763901E+03  0.75044763901E+03  0.00000000000E+00 0. -1.
          2    1    1    2  502    0  0.23165020573E+02  0.35596031365E+01 -0.20590745772E+03  0.20723699018E+03  0.00000000000E+00 0. -1.
         -2    1    1    2    0  502 -0.23165020573E+02 -0.35596031365E+01 -0.54362292665E+03  0.54412790347E+03  0.00000000000E+00 0. -1.
<mgrwt>
<rscale>  2 0.23436926E+02</rscale>
<asrwt>0</asrwt>
<pdfrwt beam="2">  1        2 0.11545347E+00 0.23436926E+02</pdfrwt>
<pdfrwt beam="1">  1       -2 0.14111611E-03 0.23436926E+02</pdfrwt>
<totfact> 0.79961741E+05</totfact>
</mgrwt>
</event>
<event>
 4    1  0.1474645E+004  0.2553625E+02  0.7546771E-02  0.1653417E+00
          2   -1    0    0  501    0  0.00000000000E+00  0.00000000000E+00  0.17172810980E+03  0.17172810980E+03  0.00000000000E+00 0. -1.
         -2   -1    0    0    0  501 -0.00000000000E+00 -0.00000000000E+00 -0.35818372962E+02  0.35818372962E+02  0.00000000000E+00 0. -1.
          2    1    1    2  502    0  0.21161939155E+02  0.14292390369E+02  0.16607328162E+03  0.16802510217E+03  0.00000000000E+00 0. -1.
         -2    1    1    2    0  502 -0.21161939155E+02 -0.14292390369E+02 -0.30163544774E+02  0.39521380601E+02  0.00000000000E+00 0. -1.
<mgrwt>
<rscale>  2 0.25536251E+02</rscale>
<asrwt>0</asrwt>
<pdfrwt beam="1">  1        2 0.26419709E-01 0.25536251E+02</pdfrwt>
<pdfrwt beam="2">  1       -2 0.55105190E-02 0.25536251E+02</pdfrwt>
<totfact> 0.24924088E+04</totfact>
</mgrwt>
</event>
<event>
 4    1  0.1474645E+004  0.2970132E+02  0.7546771E-02  0.1601414E+00
         -2   -1    0    0    0  501 -0.00000000000E+00  0.00000000000E+00  0.56362988682E+01  0.56362988682E+01  0.00000000000E+00 0. -1.
          2   -1    0    0  501    0  0.00000000000E+00 -0.00000000000E+00 -0.14921360211E+04  0.14921360211E+04  0.00000000000E+00 0.  1.
          2    1    1    2  502    0  0.53258188720E+01 -0.29219922067E+02 -0.14517715304E+04  0.14520753233E+04  0.00000000000E+00 0.  1.
         -2    1    1    2    0  502 -0.53258188720E+01  0.29219922067E+02 -0.34728191829E+02  0.45696996619E+02  0.00000000000E+00 0. -1.
<mgrwt>
<rscale>  2 0.29701316E+02</rscale>
<asrwt>0</asrwt>
<pdfrwt beam="2">  1        2 0.22955938E+00 0.29701316E+02</pdfrwt>
<pdfrwt beam="1">  1       -2 0.86712294E-03 0.29701316E+02</pdfrwt>
<totfact> 0.29671537E+04</totfact>
</mgrwt>
</event>
<event>
 4    1  0.1474645E+004  0.2289610E+02  0.7546771E-02  0.1693200E+00
         -2   -1    0    0    0  501 -0.00000000000E+00  0.00000000000E+00  0.32630314524E+02  0.32630314524E+02  0.00000000000E+00 0.  1.
          2   -1    0    0  501    0  0.00000000000E+00 -0.00000000000E+00 -0.20409277828E+02  0.20409277828E+02  0.00000000000E+00 0. -1.
          2    1    1    2  502    0 -0.71382327582E+01 -0.21754917447E+02  0.18344763255E+02  0.29338731038E+02  0.00000000000E+00 0.  1.
         -2    1    1    2    0  502  0.71382327582E+01  0.21754917447E+02 -0.61237265593E+01  0.23700861313E+02  0.00000000000E+00 0. -1.
<mgrwt>
<rscale>  2 0.22896098E+02</rscale>
<asrwt>0</asrwt>
<pdfrwt beam="2">  1        2 0.31398889E-02 0.22896098E+02</pdfrwt>
<pdfrwt beam="1">  1       -2 0.50200484E-02 0.22896098E+02</pdfrwt>
<totfact> 0.32567960E+05</totfact>
</mgrwt>
</event>
<event>
 4    1  0.1474645E+004  0.2687474E+02  0.7546771E-02  0.1635448E+00
         -2   -1    0    0    0  501 -0.00000000000E+00  0.00000000000E+00  0.87120488775E+03  0.87120488775E+03  0.00000000000E+00 0. -1.
          2   -1    0    0  501    0  0.00000000000E+00 -0.00000000000E+00 -0.48715956423E+03  0.48715956423E+03  0.00000000000E+00 0.  1.
          2    1    1    2  502    0 -0.26246214950E+02  0.57782168554E+01 -0.48658141737E+03  0.48732302154E+03  0.00000000000E+00 0.  1.
         -2    1    1    2    0  502  0.26246214950E+02 -0.57782168554E+01  0.87062674090E+03  0.87104143045E+03  0.00000000000E+00 0. -1.
<mgrwt>
<rscale>  2 0.26874739E+02</rscale>
<asrwt>0</asrwt>
<pdfrwt beam="2">  1        2 0.74947625E-01 0.26874739E+02</pdfrwt>
<pdfrwt beam="1">  1       -2 0.13403152E+00 0.26874739E+02</pdfrwt>
<totfact> 0.30904557E+01</totfact>
</mgrwt>
</event>
<event>
 4    1  0.1474645E+004  0.2639660E+02  0.7546771E-02  0.1641716E+00
         -2   -1    0    0    0  501 -0.00000000000E+00  0.00000000000E+00  0.33080590203E+03  0.33080590203E+03  0.00000000000E+00 0.  1.
          2   -1    0    0  501    0  0.00000000000E+00 -0.00000000000E+00 -0.11211522571E+03  0.11211522571E+03  0.00000000000E+00 0.  1.
          2    1    1    2  502    0 -0.25434458716E+02 -0.70617923488E+01 -0.11002506870E+03  0.11314723303E+03  0.00000000000E+00 0.  1.
         -2    1    1    2    0  502  0.25434458716E+02  0.70617923488E+01  0.32871574502E+03  0.32977389470E+03  0.00000000000E+00 0.  1.
<mgrwt>
<rscale>  2 0.26396602E+02</rscale>
<asrwt>0</asrwt>
<pdfrwt beam="2">  1        2 0.17248496E-01 0.26396602E+02</pdfrwt>
<pdfrwt beam="1">  1       -2 0.50893215E-01 0.26396602E+02</pdfrwt>
<totfact> 0.10934821E+03</totfact>
</mgrwt>
</event>
<event>
 4    1  0.1474645E+004  0.4360236E+02  0.7546771E-02  0.1483260E+00
          2   -1    0    0  501    0  0.00000000000E+00  0.00000000000E+00  0.14534642390E+04  0.14534642390E+04  0.00000000000E+00 0.  1.
         -2   -1    0    0    0  501 -0.00000000000E+00 -0.00000000000E+00 -0.13082596116E+01  0.13082596116E+01  0.00000000000E+00 0.  1.
          2    1    1    2  502    0 -0.48121337620E+01 -0.43335999463E+02  0.73584841885E+03  0.73713910560E+03  0.00000000000E+00 0.  1.
         -2    1    1    2    0  502  0.48121337620E+01  0.43335999463E+02  0.71630756059E+03  0.71763339306E+03  0.00000000000E+00 0.  1.
<mgrwt>
<rscale>  2 0.43602356E+02</rscale>
<asrwt>0</asrwt>
<pdfrwt beam="1">  1        2 0.22360859E+00 0.43602356E+02</pdfrwt>
<pdfrwt beam="2">  1       -2 0.20127187E-03 0.43602356E+02</pdfrwt>
<totfact> 0.23956404E+05</totfact>
</mgrwt>
</event>
<event>
 4    1  0.1474645E+004  0.3769834E+02  0.7546771E-02  0.1525866E+00
         -2   -1    0    0    0  501 -0.00000000000E+00  0.00000000000E+00  0.13622905644E+03  0.13622905644E+03  0.00000000000E+00 0.  1.
          2   -1    0    0  501    0  0.00000000000E+00 -0.00000000000E+00 -0.56641882595E+02  0.56641882595E+02  0.00000000000E+00 0. -1.
          2    1    1    2  502    0 -0.37446002180E+02  0.43545465070E+01 -0.47309706600E+02  0.60492755708E+02  0.00000000000E+00 0. -1.
         -2    1    1    2    0  502  0.37446002180E+02 -0.43545465070E+01  0.12689688045E+03  0.13237818333E+03  0.00000000000E+00 0.  1.
<mgrwt>
<rscale>  2 0.37698344E+02</rscale>
<asrwt>0</asrwt>
<pdfrwt beam="2">  1        2 0.87141358E-02 0.37698344E+02</pdfrwt>
<pdfrwt beam="1">  1       -2 0.20958316E-01 0.37698344E+02</pdfrwt>
<totfact> 0.11876309E+04</totfact>
</mgrwt>
</event>
<event>
 4    1  0.1474645E+004  0.2021388E+02  0.7546771E-02  0.1741108E+00
         -2   -1    0    0    0  501 -0.00000000000E+00  0.00000000000E+00  0.48678869152E+03  0.48678869152E+03  0.00000000000E+00 0.  1.
          2   -1    0    0  501    0  0.00000000000E+00 -0.00000000000E+00 -0.72647301672E+01  0.72647301672E+01  0.00000000000E+00 0. -1.
          2    1    1    2  502    0 -0.75021836262E+01  0.18770135654E+02  0.74441370041E+01  0.21541028930E+02  0.00000000000E+00 0. -1.
         -2    1    1    2    0  502  0.75021836262E+01 -0.18770135654E+02  0.47207982435E+03  0.47251239275E+03  0.00000000000E+00 0.  1.
<mgrwt>
<rscale>  2 0.20213875E+02</rscale>
<asrwt>0</asrwt>
<pdfrwt beam="2">  1        2 0.11176512E-02 0.20213875E+02</pdfrwt>
<pdfrwt beam="1">  1       -2 0.74890542E-01 0.20213875E+02</pdfrwt>
<totfact> 0.13650512E+04</totfact>
</mgrwt>
</event>
<event>
 4    1  0.1474645E+004  0.2644174E+02  0.7546771E-02  0.1641117E+00
          2   -1    0    0  501    0  0.00000000000E+00  0.00000000000E+00  0.84607662188E+02  0.84607662188E+02  0.00000000000E+00 0.  1.
         -2   -1    0    0    0  501 -0.00000000000E+00 -0.00000000000E+00 -0.11555052270E+02  0.11555052270E+02  0.00000000000E+00 0.  1.
          2    1    1    2  502    0  0.15243828435E+02 -0.21605352494E+02  0.62187875258E+02  0.67575863967E+02  0.00000000000E+00 0.  1.
         -2    1    1    2    0  502 -0.15243828435E+02  0.21605352494E+02  0.10864734660E+02  0.28586850491E+02  0.00000000000E+00 0.  1.
<mgrwt>
<rscale>  2 0.26441739E+02</rscale>
<asrwt>0</asrwt>
<pdfrwt beam="1">  1        2 0.13016563E-01 0.26441739E+02</pdfrwt>
<pdfrwt beam="2">  1       -2 0.17777004E-02 0.26441739E+02</pdfrwt>
<totfact> 0.26219776E+05</totfact>
</mgrwt>
</event>
<event>
 4    1  0.1474645E+004  0.2876737E+02  0.7546771E-02  0.1612127E+00
         -2   -1    0    0    0  501 -0.00000000000E+00  0.00000000000E+00  0.46417291686E+02  0.46417291686E+02  0.00000000000E+00 0.  1.
          2   -1    0    0  501    0  0.00000000000E+00 -0.00000000000E+00 -0.17861566406E+04  0.17861566406E+04  0.00000000000E+00 0.  1.
          2    1    1    2  502    0  0.87480641689E+01 -0.27404980876E+02 -0.17815721581E+04  0.17818043989E+04  0.00000000000E+00 0.  1.
         -2    1    1    2    0  502 -0.87480641689E+01  0.27404980876E+02  0.41832809116E+02  0.50769533404E+02  0.00000000000E+00 0.  1.
<mgrwt>
<rscale>  2 0.28767370E+02</rscale>
<asrwt>0</asrwt>
<pdfrwt beam="2">  1        2 0.27479338E+00 0.28767370E+02</pdfrwt>
<pdfrwt beam="1">  1       -2 0.71411205E-02 0.28767370E+02</pdfrwt>
<totfact> 0.11228999E+03</totfact>
</mgrwt>
</event>
<event>
 4    1  0.1474645E+004  0.3195231E+02  0.7546771E-02  0.1577460E+00
          2   -1    0    0  501    0  0.00000000000E+00  0.00000000000E+00  0.30939790711E+03  0.30939790711E+03  0.00000000000E+00 0. -1.
         -2   -1    0    0    0  501 -0.00000000000E+00 -0.00000000000E+00 -0.64846598370E+01  0.64846598370E+01  0.00000000000E+00 0. -1.
          2    1    1    2  502    0  0.24538140014E+02  0.20465336842E+02  0.26214382851E+03  0.26408395854E+03  0.00000000000E+00 0. -1.
         -2    1    1    2    0  502 -0.24538140014E+02 -0.20465336842E+02  0.40769418755E+02  0.51798608408E+02  0.00000000000E+00 0. -1.
<mgrwt>
<rscale>  2 0.31952313E+02</rscale>
<asrwt>0</asrwt>
<pdfrwt beam="1">  1        2 0.47599667E-01 0.31952313E+02</pdfrwt>
<pdfrwt beam="2">  1       -2 0.99764021E-03 0.31952313E+02</pdfrwt>
<totfact> 0.15572052E+05</totfact>
</mgrwt>
</event>
<event>
 4    1  0.1474645E+004  0.3287430E+02  0.7546771E-02  0.1568330E+00
          2   -1    0    0  501    0  0.00000000000E+00  0.00000000000E+00  0.17382378087E+04  0.17382378087E+04  0.00000000000E+00 0. -1.
         -2   -1    0    0    0  501 -0.00000000000E+00 -0.00000000000E+00 -0.80773373902E+00  0.80773373902E+00  0.00000000000E+00 0.  1.
          2    1    1    2  502    0  0.13822248960E+02  0.29827251597E+02  0.12859727632E+04  0.12863928899E+04  0.00000000000E+00 0. -1.
         -2    1    1    2    0  502 -0.13822248960E+02 -0.29827251597E+02  0.45145731172E+03  0.45265265250E+03  0.00000000000E+00 0.  1.
<mgrwt>
<rscale>  2 0.32874299E+02</rscale>
<asrwt>0</asrwt>
<pdfrwt beam="1">  1        2 0.26741821E+00 0.32874299E+02</pdfrwt>
<pdfrwt beam="2">  1       -2 0.12426812E-03 0.32874299E+02</pdfrwt>
<totfact> 0.31638776E+05</totfact>
</mgrwt>
</event>
<event>
 4    1  0.1474645E+004  0.2589986E+02  0.7546771E-02  0.1648403E+00
         -2   -1    0    0    0  501 -0.00000000000E+00  0.00000000000E+00  0.41289954438E+01  0.41289954438E+01  0.00000000000E+00 0.  1.
          2   -1    0    0  501    0  0.00000000000E+00 -0.00000000000E+00 -0.16487702943E+03  0.16487702943E+03  0.00000000000E+00 0.  1.
          2    1    1    2  502    0  0.19624715135E+02 -0.16901870019E+02 -0.90602266364E+02  0.94231487968E+02  0.00000000000E+00 0.  1.
         -2    1    1    2    0  502 -0.19624715135E+02  0.16901870019E+02 -0.70145767624E+02  0.74774536908E+02  0.00000000000E+00 0.  1.
<mgrwt>
<rscale>  2 0.25899858E+02</rscale>
<asrwt>0</asrwt>
<pdfrwt beam="2">  1        2 0.25365693E-01 0.25899858E+02</pdfrwt>
<pdfrwt beam="1">  1       -2 0.63523017E-03 0.25899858E+02</pdfrwt>
<totfact> 0.51518940E+05</totfact>
</mgrwt>
</event>
<event>
 4    1  0.1474645E+004  0.2681642E+02  0.7546771E-02  0.1636204E+00
         -2   -1    0    0    0  501 -0.00000000000E+00  0.00000000000E+00  0.19113351554E+04  0.19113351554E+04  0.00000000000E+00 0.  1.
          2   -1    0    0  501    0  0.00000000000E+00 -0.00000000000E+00 -0.44956616815E+03  0.44956616815E+03  0.00000000000E+00 0. -1.
          2    1    1    2  502    0 -0.10150927282E+02 -0.24820940288E+02 -0.44907210794E+03  0.44987206907E+03  0.00000000000E+00 0. -1.
         -2    1    1    2    0  502  0.10150927282E+02  0.24820940288E+02  0.19108410952E+04  0.19110292545E+04  0.00000000000E+00 0.  1.
<mgrwt>
<rscale>  2 0.26816420E+02</rscale>
<asrwt>0</asrwt>
<pdfrwt beam="2">  1        2 0.69164027E-01 0.26816420E+02</pdfrwt>
<pdfrwt beam="1">  1       -2 0.29405156E+00 0.26816420E+02</pdfrwt>
<totfact> 0.37135376E+00</totfact>
</mgrwt>
</event>
<event>
 4    1  0.1474645E+004  0.2011361E+02  0.7546771E-02  0.1743078E+00
         -2   -1    0    0    0  501 -0.00000000000E+00  0.00000000000E+00  0.83878998319E+01  0.83878998319E+01  0.00000000000E+00 0.  1.
          2   -1    0    0  501    0  0.00000000000E+00 -0.00000000000E+00 -0.12709478661E+03  0.12709478661E+03  0.00000000000E+00 0. -1.
          2    1    1    2  502    0 -0.48071255112E+01 -0.19530717518E+02 -0.11271500817E+03  0.11449554772E+03  0.00000000000E+00 0. -1.
         -2    1    1    2    0  502  0.48071255112E+01  0.19530717518E+02 -0.59918786158E+01  0.20987138723E+02  0.00000000000E+00 0.  1.
<mgrwt>
<rscale>  2 0.20113612E+02</rscale>
<asrwt>0</asrwt>
<pdfrwt beam="2">  1        2 0.19553041E-01 0.20113612E+02</pdfrwt>
<pdfrwt beam="1">  1       -2 0.12904463E-02 0.20113612E+02</pdfrwt>
<totfact> 0.24126917E+05</totfact>
</mgrwt>
</event>
<event>
 4    1  0.1474645E+004  0.3273934E+02  0.7546771E-02  0.1569644E+00
         -2   -1    0    0    0  501 -0.00000000000E+00  0.00000000000E+00  0.26400417727E+01  0.26400417727E+01  0.00000000000E+00 0. -1.
          2   -1    0    0  501    0  0.00000000000E+00 -0.00000000000E+00 -0.70667084063E+03  0.70667084063E+03  0.00000000000E+00 0.  1.
          2    1    1    2  502    0 -0.28574081398E+02  0.15980811143E+02 -0.58335056089E+03  0.58426855242E+03  0.00000000000E+00 0.  1.
         -2    1    1    2    0  502  0.28574081398E+02 -0.15980811143E+02 -0.12068023797E+03  0.12504232999E+03  0.00000000000E+00 0. -1.
<mgrwt>
<rscale>  2 0.32739341E+02</rscale>
<asrwt>0</asrwt>
<pdfrwt beam="2">  1        2 0.10871851E+00 0.32739341E+02</pdfrwt>
<pdfrwt beam="1">  1       -2 0.40616057E-03 0.32739341E+02</pdfrwt>
<totfact> 0.22682412E+05</totfact>
</mgrwt>
</event>
<event>
 4    1  0.1474645E+004  0.2058746E+02  0.7546771E-02  0.1733892E+00
          2   -1    0    0  501    0  0.00000000000E+00  0.00000000000E+00  0.13171104728E+04  0.13171104728E+04  0.00000000000E+00 0.  1.
         -2   -1    0    0    0  501 -0.00000000000E+00 -0.00000000000E+00 -0.21929085457E+01  0.21929085457E+01  0.00000000000E+00 0.  1.
          2    1    1    2  502    0  0.20369123195E+02  0.29903876956E+01  0.12667909918E+04  0.12669582711E+04  0.00000000000E+00 0.  1.
         -2    1    1    2    0  502 -0.20369123195E+02 -0.29903876956E+01  0.48126572382E+02  0.52345110254E+02  0.00000000000E+00 0.  1.
<mgrwt>
<rscale>  2 0.20587462E+02</rscale>
<asrwt>0</asrwt>
<pdfrwt beam="1">  1        2 0.20263175E+00 0.20587462E+02</pdfrwt>
<pdfrwt beam="2">  1       -2 0.33737160E-03 0.20587462E+02</pdfrwt>
<totfact> 0.12031803E+05</totfact>
</mgrwt>
</event>
<event>
 4    1  0.1474645E+004  0.2667195E+02  0.7546771E-02  0.1638087E+00
         -2   -1    0    0    0  501 -0.00000000000E+00  0.00000000000E+00  0.52177551725E+01  0.52177551725E+01  0.00000000000E+00 0.  1.
          2   -1    0    0  501    0  0.00000000000E+00 -0.00000000000E+00 -0.10505302971E+04  0.10505302971E+04  0.00000000000E+00 0.  1.
          2    1    1    2  502    0  0.19051609302E+02  0.18666257037E+02 -0.10150858291E+04  0.10154361788E+04  0.00000000000E+00 0.  1.
         -2    1    1    2    0  502 -0.19051609302E+02 -0.18666257037E+02 -0.30226712921E+02  0.40311873471E+02  0.00000000000E+00 0.  1.
<mgrwt>
<rscale>  2 0.26671951E+02</rscale>
<asrwt>0</asrwt>
<pdfrwt beam="2">  1        2 0.16162022E+00 0.26671951E+02</pdfrwt>
<pdfrwt beam="1">  1       -2 0.80273070E-03 0.26671951E+02</pdfrwt>
<totfact> 0.53969511E+04</totfact>
</mgrwt>
</event>
<event>
 4    1  0.1474645E+004  0.3017551E+02  0.7546771E-02  0.1596157E+00
         -2   -1    0    0    0  501 -0.00000000000E+00  0.00000000000E+00  0.13139822095E+02  0.13139822095E+02  0.00000000000E+00 0. -1.
          2   -1    0    0  501    0  0.00000000000E+00 -0.00000000000E+00 -0.13328611256E+04  0.13328611256E+04  0.00000000000E+00 0.  1.
          2    1    1    2  502    0  0.29731678784E+02  0.51564371288E+01 -0.13151323561E+04  0.13154784968E+04  0.00000000000E+00 0.  1.
         -2    1    1    2    0  502 -0.29731678784E+02 -0.51564371288E+01 -0.45889473812E+01  0.30522450840E+02  0.00000000000E+00 0. -1.
<mgrwt>
<rscale>  2 0.30175513E+02</rscale>
<asrwt>0</asrwt>
<pdfrwt beam="2">  1        2 0.20505557E+00 0.30175513E+02</pdfrwt>
<pdfrwt beam="1">  1       -2 0.20215109E-02 0.30175513E+02</pdfrwt>
<totfact> 0.11109414E+04</totfact>
</mgrwt>
</event>
<event>
 4    1  0.1474645E+004  0.2280478E+02  0.7546771E-02  0.1694694E+00
          2   -1    0    0  501    0  0.00000000000E+00  0.00000000000E+00  0.33785399248E+02  0.33785399248E+02  0.00000000000E+00 0.  1.
         -2   -1    0    0    0  501 -0.00000000000E+00 -0.00000000000E+00 -0.17965520803E+02  0.17965520803E+02  0.00000000000E+00 0.  1.
          2    1    1    2  502    0  0.22790089399E+02  0.81803803250E+00 -0.18815971927E+01  0.22882258827E+02  0.00000000000E+00 0.  1.
         -2    1    1    2    0  502 -0.22790089399E+02 -0.81803803250E+00  0.17701475638E+02  0.28868661223E+02  0.00000000000E+00 0.  1.
<mgrwt>
<rscale>  2 0.22804778E+02</rscale>
<asrwt>0</asrwt>
<pdfrwt beam="1">  1        2 0.51977537E-02 0.22804778E+02</pdfrwt>
<pdfrwt beam="2">  1       -2 0.27639263E-02 0.22804778E+02</pdfrwt>
<totfact> 0.40186016E+05</totfact>
</mgrwt>
</event>
<event>
 4    1  0.1474645E+004  0.4286853E+02  0.7546771E-02  0.1488104E+00
         -2   -1    0    0    0  501 -0.00000000000E+00  0.00000000000E+00  0.80392365262E+02  0.80392365262E+02  0.00000000000E+00 0. -1.
          2   -1    0    0  501    0  0.00000000000E+00 -0.00000000000E+00 -0.26232440353E+03  0.26232440353E+03  0.00000000000E+00 0. -1.
          2    1    1    2  502    0 -0.40578196623E+02 -0.13824658345E+02 -0.25468806056E+03  0.25827063212E+03  0.00000000000E+00 0. -1.
         -2    1    1    2    0  502  0.40578196623E+02  0.13824658345E+02  0.72756022295E+02  0.84446136677E+02  0.00000000000E+00 0. -1.
<mgrwt>
<rscale>  2 0.42868534E+02</rscale>
<asrwt>0</asrwt>
<pdfrwt beam="2">  1        2 0.40357601E-01 0.42868534E+02</pdfrwt>
<pdfrwt beam="1">  1       -2 0.12368056E-01 0.42868534E+02</pdfrwt>
<totfact> 0.52070263E+03</totfact>
</mgrwt>
</event>
<event>
 4    1  0.1474645E+004  0.2292371E+02  0.7546771E-02  0.1692750E+00
          2   -1    0    0  501    0  0.00000000000E+00  0.00000000000E+00  0.27051735078E+02  0.27051735078E+02  0.00000000000E+00 0.  1.
         -2   -1    0    0    0  501 -0.00000000000E+00 -0.00000000000E+00 -0.43346430813E+02  0.43346430813E+02  0.00000000000E+00 0. -1.
          2    1    1    2  502    0 -0.16401276808E+02 -0.16015451536E+02  0.18000905119E+02  0.29146683412E+02  0.00000000000E+00 0.  1.
         -2    1    1    2    0  502  0.16401276808E+02  0.16015451536E+02 -0.34295600854E+02  0.41251482479E+02  0.00000000000E+00 0. -1.
<mgrwt>
<rscale>  2 0.22923712E+02</rscale>
<asrwt>0</asrwt>
<pdfrwt beam="1">  1        2 0.41618054E-02 0.22923712E+02</pdfrwt>
<pdfrwt beam="2">  1       -2 0.66686817E-02 0.22923712E+02</pdfrwt>
<totfact> 0.15261781E+05</totfact>
</mgrwt>
</event>
<event>
 4    1  0.1474645E+004  0.2538924E+02  0.7546771E-02  0.1655473E+00
          2   -1    0    0  501    0  0.00000000000E+00  0.00000000000E+00  0.42244026055E+03  0.42244026055E+03  0.00000000000E+00 0. -1.
         -2   -1    0    0    0  501 -0.00000000000E+00 -0.00000000000E+00 -0.18990574910E+01  0.18990574910E+01  0.00000000000E+00 0. -1.
          2    1    1    2  502    0 -0.10347940309E+02 -0.23184768971E+02  0.30431741094E+03  0.30537468786E+03  0.00000000000E+00 0. -1.
         -2    1    1    2    0  502  0.10347940309E+02  0.23184768971E+02  0.11622379211E+03  0.11896463018E+03  0.00000000000E+00 0. -1.
<mgrwt>
<rscale>  2 0.25389238E+02</rscale>
<asrwt>0</asrwt>
<pdfrwt beam="1">  1        2 0.64990735E-01 0.25389238E+02</pdfrwt>
<pdfrwt beam="2">  1       -2 0.29216303E-03 0.25389238E+02</pdfrwt>
<totfact> 0.56605802E+05</totfact>
</mgrwt>
</event>
<event>
 4    1  0.1474645E+004  0.2451702E+02  0.7546771E-02  0.1668038E+00
          2   -1    0    0  501    0  0.00000000000E+00  0.00000000000E+00  0.63892745970E+01  0.63892745970E+01  0.00000000000E+00 0. -1.
         -2   -1    0    0    0  501 -0.00000000000E+00 -0.00000000000E+00 -0.13760900028E+03  0.13760900028E+03  0.00000000000E+00 0. -1.
          2    1    1    2  502    0 -0.21088836922E+02 -0.12503801405E+02 -0.25114252737E+02  0.35097147787E+02  0.00000000000E+00 0. -1.
         -2    1    1    2    0  502  0.21088836922E+02  0.12503801405E+02 -0.10610547294E+03  0.10890112709E+03  0.00000000000E+00 0. -1.
<mgrwt>
<rscale>  2 0.24517016E+02</rscale>
<asrwt>0</asrwt>
<pdfrwt beam="1">  1        2 0.98296541E-03 0.24517016E+02</pdfrwt>
<pdfrwt beam="2">  1       -2 0.21170614E-01 0.24517016E+02</pdfrwt>
<totfact> 0.16968685E+05</totfact>
</mgrwt>
</event>
<event>
 4    1  0.1474645E+004  0.2089050E+02  0.7546771E-02  0.1728178E+00
          2   -1    0    0  501    0  0.00000000000E+00  0.00000000000E+00  0.17439008289E+03  0.17439008289E+03  0.00000000000E+00 0.  1.
         -2   -1    0    0    0  501 -0.00000000000E+00 -0.00000000000E+00 -0.72815676992E+01  0.72815676992E+01  0.00000000000E+00 0.  1.
          2    1    1    2  502    0  0.10824356867E+02  0.17867469324E+02  0.15714374811E+03  0.15852624619E+03  0.00000000000E+00 0.  1.
         -2    1    1    2    0  502 -0.10824356867E+02 -0.17867469324E+02  0.99647670759E+01  0.23145404393E+02  0.00000000000E+00 0.  1.
<mgrwt>
<rscale>  2 0.20890504E+02</rscale>
<asrwt>0</asrwt>
<pdfrwt beam="1">  1        2 0.26829240E-01 0.20890504E+02</pdfrwt>
<pdfrwt beam="2">  1       -2 0.11202413E-02 0.20890504E+02</pdfrwt>
<totfact> 0.21264441E+05</totfact>
</mgrwt>
</event>
<event>
 4    1  0.1474645E+004  0.3635103E+02  0.7546771E-02  0.1536920E+00
         -2   -1    0    0    0  501 -0.00000000000E+00  0.00000000000E+00  0.32904153807E+03  0.32904153807E+03  0.00000000000E+00 0. -1.
          2   -1    0    0  501    0  0.00000000000E+00 -0.00000000000E+00 -0.16377836716E+03  0.16377836716E+03  0.00000000000E+00 0.  1.
          2    1    1    2  502    0  0.35612479201E+02  0.72903407568E+01 -0.16073859085E+03  0.16479773157E+03  0.00000000000E+00 0.  1.
         -2    1    1    2    0  502 -0.35612479201E+02 -0.72903407568E+01  0.32600176176E+03  0.32802217366E+03  0.00000000000E+00 0. -1.
<mgrwt>
<rscale>  2 0.36351035E+02</rscale>
<asrwt>0</asrwt>
<pdfrwt beam="2">  1        2 0.25196672E-01 0.36351035E+02</pdfrwt>
<pdfrwt beam="1">  1       -2 0.50621775E-01 0.36351035E+02</pdfrwt>
<totfact> 0.75286503E+02</totfact>
</mgrwt>
</event>
<event>
 4    1  0.1474645E+004  0.2169834E+02  0.7546771E-02  0.1713522E+00
         -2   -1    0    0    0  501 -0.00000000000E+00  0.00000000000E+00  0.80554368460E+01  0.80554368460E+01  0.00000000000E+00 0.  1.
          2   -1    0    0  501    0  0.00000000000E+00 -0.00000000000E+00 -0.95293368125E+02  0.95293368125E+02  0.00000000000E+00 0. -1.
          2    1    1    2  502    0 -0.20394051903E+02  0.74095026161E+01 -0.75751133784E+02  0.78797540263E+02  0.00000000000E+00 0. -1.
         -2    1    1    2    0  502  0.20394051903E+02 -0.74095026161E+01 -0.11486797495E+02  0.24551264707E+02  0.00000000000E+00 0.  1.
<mgrwt>
<rscale>  2 0.21698343E+02</rscale>
<asrwt>0</asrwt>
<pdfrwt beam="2">  1        2 0.14660518E-01 0.21698343E+02</pdfrwt>
<pdfrwt beam="1">  1       -2 0.12392980E-02 0.21698343E+02</pdfrwt>
<totfact> 0.35528376E+05</totfact>
</mgrwt>
</event>
<event>
 4    1  0.1474645E+004  0.2216275E+02  0.7546771E-02  0.1705452E+00
          2   -1    0    0  501    0  0.00000000000E+00  0.00000000000E+00  0.28656752776E+01  0.28656752776E+01  0.00000000000E+00 0. -1.
         -2   -1    0    0    0  501 -0.00000000000E+00 -0.00000000000E+00 -0.50998334428E+03  0.50998334428E+03  0.00000000000E+00 0. -1.
          2    1    1    2  502    0 -0.94866003040E+01 -0.20029776331E+02 -0.44623487064E+02  0.49824121899E+02  0.00000000000E+00 0. -1.
         -2    1    1    2    0  502  0.94866003040E+01  0.20029776331E+02 -0.46249418194E+03  0.46302489766E+03  0.00000000000E+00 0. -1.
<mgrwt>
<rscale>  2 0.22162751E+02</rscale>
<asrwt>0</asrwt>
<pdfrwt beam="1">  1        2 0.44087336E-03 0.22162751E+02</pdfrwt>
<pdfrwt beam="2">  1       -2 0.78458933E-01 0.22162751E+02</pdfrwt>
<totfact> 0.42611157E+04</totfact>
</mgrwt>
</event>
<event>
 4    1  0.1474645E+004  0.3426313E+02  0.7546771E-02  0.1555243E+00
         -2   -1    0    0    0  501 -0.00000000000E+00  0.00000000000E+00  0.44699928644E+01  0.44699928644E+01  0.00000000000E+00 0.  1.
          2   -1    0    0  501    0  0.00000000000E+00 -0.00000000000E+00 -0.31663480930E+03  0.31663480930E+03  0.00000000000E+00 0. -1.
          2    1    1    2  502    0  0.30373757646E+02 -0.15855469378E+02 -0.89777215051E+02  0.96093232879E+02  0.00000000000E+00 0.  1.
         -2    1    1    2    0  502 -0.30373757646E+02  0.15855469378E+02 -0.22238760138E+03  0.22501156928E+03  0.00000000000E+00 0. -1.
<mgrwt>
<rscale>  2 0.34263132E+02</rscale>
<asrwt>0</asrwt>
<pdfrwt beam="2">  1        2 0.48713043E-01 0.34263132E+02</pdfrwt>
<pdfrwt beam="1">  1       -2 0.68769127E-03 0.34263132E+02</pdfrwt>
<totfact> 0.25717168E+05</totfact>
</mgrwt>
</event>
<event>
 4    1  0.1474645E+004  0.2080546E+02  0.7546771E-02  0.1729769E+00
          2   -1    0    0  501    0  0.00000000000E+00  0.00000000000E+00  0.33562740477E+03  0.33562740477E+03  0.00000000000E+00 0. -1.
         -2   -1    0    0    0  501 -0.00000000000E+00 -0.00000000000E+00 -0.33680682229E+01  0.33680682229E+01  0.00000000000E+00 0. -1.
          2    1    1    2  502    0  0.16294246939E+02  0.12936956217E+02  0.29927686135E+03  0.29999917843E+03  0.00000000000E+00 0. -1.
         -2    1    1    2    0  502 -0.16294246939E+02 -0.12936956217E+02  0.32982475198E+02  0.38996294563E+02  0.00000000000E+00 0. -1.
<mgrwt>
<rscale>  2 0.20805464E+02</rscale>
<asrwt>0</asrwt>
<pdfrwt beam="1">  1        2 0.51634959E-01 0.20805464E+02</pdfrwt>
<pdfrwt beam="2">  1       -2 0.51816461E-03 0.20805464E+02</pdfrwt>
<totfact> 0.31197253E+05</totfact>
</mgrwt>
</event>
<event>
 4    1  0.1474645E+004  0.2758815E+02  0.7546771E-02  0.1626388E+00
          2   -1    0    0  501    0  0.00000000000E+00  0.00000000000E+00  0.25551473575E+03  0.25551473575E+03  0.00000000000E+00 0. -1.
         -2   -1    0    0    0  501 -0.00000000000E+00 -0.00000000000E+00 -0.62203369643E+01  0.62203369643E+01  0.00000000000E+00 0. -1.
          2    1    1    2  502    0  0.18253368759E+02 -0.20686239656E+02  0.21911983849E+03  0.22084974440E+03  0.00000000000E+00 0. -1.
         -2    1    1    2    0  502 -0.18253368759E+02  0.20686239656E+02  0.30174560291E+02  0.40885328309E+02  0.00000000000E+00 0. -1.
<mgrwt>
<rscale>  2 0.27588149E+02</rscale>
<asrwt>0</asrwt>
<pdfrwt beam="1">  1        2 0.39309951E-01 0.27588149E+02</pdfrwt>
<pdfrwt beam="2">  1       -2 0.95697511E-03 0.27588149E+02</pdfrwt>
<totfact> 0.19272336E+05</totfact>
</mgrwt>
</event>
<event>
 4    1  0.1474645E+004  0.3573252E+02  0.7546771E-02  0.1542190E+00
         -2   -1    0    0    0  501 -0.00000000000E+00  0.00000000000E+00  0.10189861953E+03  0.10189861953E+03  0.00000000000E+00 0. -1.
          2   -1    0    0  501    0  0.00000000000E+00 -0.00000000000E+00 -0.50279095394E+03  0.50279095394E+03  0.00000000000E+00 0. -1.
          2    1    1    2  502    0  0.12307532154E+02 -0.33546053566E+02 -0.49899976444E+03  0.50027750096E+03  0.00000000000E+00 0. -1.
         -2    1    1    2    0  502 -0.12307532154E+02  0.33546053566E+02  0.98107430028E+02  0.10441207250E+03  0.00000000000E+00 0. -1.
<mgrwt>
<rscale>  2 0.35732521E+02</rscale>
<asrwt>0</asrwt>
<pdfrwt beam="2">  1        2 0.77352454E-01 0.35732521E+02</pdfrwt>
<pdfrwt beam="1">  1       -2 0.15676711E-01 0.35732521E+02</pdfrwt>
<totfact> 0.18277221E+03</totfact>
</mgrwt>
</event>
<event>
 4    1  0.1474645E+004  0.2152882E+02  0.7546771E-02  0.1716530E+00
          2   -1    0    0  501    0  0.00000000000E+00  0.00000000000E+00  0.12696422155E+04  0.12696422155E+04  0.00000000000E+00 0. -1.
         -2   -1    0    0    0  501 -0.00000000000E+00 -0.00000000000E+00 -0.19813852520E+02  0.19813852520E+02  0.00000000000E+00 0.  1.
          2    1    1    2  502    0  0.21295971420E+02  0.31578133969E+01  0.12636752823E+04  0.12638586587E+04  0.00000000000E+00 0. -1.
         -2    1    1    2    0  502 -0.21295971420E+02 -0.31578133969E+01 -0.13846919357E+02  0.25597409241E+02  0.00000000000E+00 0.  1.
<mgrwt>
<rscale>  2 0.21528822E+02</rscale>
<asrwt>0</asrwt>
<pdfrwt beam="1">  1        2 0.19532951E+00 0.21528822E+02</pdfrwt>
<pdfrwt beam="2">  1       -2 0.30482860E-02 0.21528822E+02</pdfrwt>
<totfact> 0.65338940E+03</totfact>
</mgrwt>
</event>
<event>
 4    1  0.1474645E+004  0.2212717E+02  0.7546771E-02  0.1706062E+00
         -2   -1    0    0    0  501 -0.00000000000E+00  0.00000000000E+00  0.22366451964E+03  0.22366451964E+03  0.00000000000E+00 0.  1.
          2   -1    0    0  501    0  0.00000000000E+00 -0.00000000000E+00 -0.33523275412E+01  0.33523275412E+01  0.00000000000E+00 0.  1.
          2    1    1    2  502    0 -0.22110913159E+02  0.84793061640E+00  0.43291277892E+02  0.48618373158E+02  0.00000000000E+00 0.  1.
         -2    1    1    2    0  502  0.22110913159E+02 -0.84793061640E+00  0.17702091420E+03  0.17839847402E+03  0.00000000000E+00 0.  1.
<mgrwt>
<rscale>  2 0.22127166E+02</rscale>
<asrwt>0</asrwt>
<pdfrwt beam="2">  1        2 0.51574287E-03 0.22127166E+02</pdfrwt>
<pdfrwt beam="1">  1       -2 0.34409914E-01 0.22127166E+02</pdfrwt>
<totfact> 0.16858162E+05</totfact>
</mgrwt>
</event>
<event>
 4    1  0.1474645E+004  0.2095072E+02  0.7546771E-02  0.1727057E+00
          2   -1    0    0  501    0  0.00000000000E+00  0.00000000000E+00  0.27178567836E+03  0.27178567836E+03  0.00000000000E+00 0.  1.
         -2   -1    0    0    0  501 -0.00000000000E+00 -0.00000000000E+00 -0.13470277656E+03  0.13470277656E+03  0.00000000000E+00 0.  1.
          2    1    1    2  502    0 -0.20145641137E+02  0.57520310255E+01  0.27056362357E+03  0.27137355640E+03  0.00000000000E+00 0.  1.
         -2    1    1    2    0  502  0.20145641137E+02 -0.57520310255E+01 -0.13348072177E+03  0.13511489852E+03  0.00000000000E+00 0.  1.
<mgrwt>
<rscale>  2 0.20950721E+02</rscale>
<asrwt>0</asrwt>
<pdfrwt beam="1">  1        2 0.41813181E-01 0.20950721E+02</pdfrwt>
<pdfrwt beam="2">  1       -2 0.20723504E-01 0.20950721E+02</pdfrwt>
<totfact> 0.20777093E+03</totfact>
</mgrwt>
</event>
<event>
 4    1  0.1474645E+004  0.2754566E+02  0.7546771E-02  0.1626919E+00
         -2   -1    0    0    0  501 -0.00000000000E+00  0.00000000000E+00  0.14882253217E+02  0.14882253217E+02  0.00000000000E+00 0. -1.
          2   -1    0    0  501    0  0.00000000000E+00 -0.00000000000E+00 -0.16107467350E+03  0.16107467350E+03  0.00000000000E+00 0. -1.
          2    1    1    2  502    0  0.25299045872E+02 -0.10895938270E+02 -0.14583015772E+03  0.14840888819E+03  0.00000000000E+00 0. -1.
         -2    1    1    2    0  502 -0.25299045872E+02  0.10895938270E+02 -0.36226256725E+00  0.27548038532E+02  0.00000000000E+00 0. -1.
<mgrwt>
<rscale>  2 0.27545657E+02</rscale>
<asrwt>0</asrwt>
<pdfrwt beam="2">  1        2 0.24780719E-01 0.27545657E+02</pdfrwt>
<pdfrwt beam="1">  1       -2 0.22895774E-02 0.27545657E+02</pdfrwt>
<totfact> 0.93086131E+04</totfact>
</mgrwt>
</event>
<event>
 4    1  0.1474645E+004  0.2353671E+02  0.7546771E-02  0.1682955E+00
          2   -1    0    0  501    0  0.00000000000E+00  0.00000000000E+00  0.11050116092E+03  0.11050116092E+03  0.00000000000E+00 0. -1.
         -2   -1    0    0    0  501 -0.00000000000E+00 -0.00000000000E+00 -0.22052002088E+03  0.22052002088E+03  0.00000000000E+00 0.  1.
          2    1    1    2  502    0 -0.11320954157E+02  0.20635231237E+02  0.10860898238E+03  0.11113004915E+03  0.00000000000E+00 0. -1.
         -2    1    1    2    0  502  0.11320954157E+02 -0.20635231237E+02 -0.21862784234E+03  0.21989113265E+03  0.00000000000E+00 0.  1.
<mgrwt>
<rscale>  2 0.23536711E+02</rscale>
<asrwt>0</asrwt>
<pdfrwt beam="1">  1        2 0.17000179E-01 0.23536711E+02</pdfrwt>
<pdfrwt beam="2">  1       -2 0.33926157E-01 0.23536711E+02</pdfrwt>
<totfact> 0.23108749E+03</totfact>
</mgrwt>
</event>
<event>
 4    1  0.1474645E+004  0.2271886E+02  0.7546771E-02  0.1696108E+00
          2   -1    0    0  501    0  0.00000000000E+00  0.00000000000E+00  0.26320477096E+03  0.26320477096E+03  0.00000000000E+00 0. -1.
         -2   -1    0    0    0  501 -0.00000000000E+00 -0.00000000000E+00 -0.47903519201E+02  0.47903519201E+02  0.00000000000E+00 0. -1.
          2    1    1    2  502    0 -0.21029738809E+02  0.85963133430E+01  0.25998757231E+03  0.26097832146E+03  0.00000000000E+00 0. -1.
         -2    1    1    2    0  502  0.21029738809E+02 -0.85963133430E+01 -0.44686320550E+02  0.50129968699E+02  0.00000000000E+00 0. -1.
<mgrwt>
<rscale>  2 0.22718858E+02</rscale>
<asrwt>0</asrwt>
<pdfrwt beam="1">  1        2 0.40493041E-01 0.22718858E+02</pdfrwt>
<pdfrwt beam="2">  1       -2 0.73697724E-02 0.22718858E+02</pdfrwt>
<totfact> 0.10450336E+04</totfact>
</mgrwt>
</event>
<event>
 4    1  0.1474645E+004  0.2555804E+02  0.7546771E-02  0.1653114E+00
         -2   -1    0    0    0  501 -0.00000000000E+00  0.00000000000E+00  0.15663114137E+01  0.15663114137E+01  0.00000000000E+00 0. -1.
          2   -1    0    0  501    0  0.00000000000E+00 -0.00000000000E+00 -0.41754991089E+03  0.41754991089E+03  0.00000000000E+00 0. -1.
          2    1    1    2  502    0  0.20512340652E+02 -0.15246550137E+02 -0.21531999099E+03  0.21683152892E+03  0.00000000000E+00 0. -1.
         -2    1    1    2    0  502 -0.20512340652E+02  0.15246550137E+02 -0.20066360849E+03  0.20228469339E+03  0.00000000000E+00 0. -1.
<mgrwt>
<rscale>  2 0.25558040E+02</rscale>
<asrwt>0</asrwt>
<pdfrwt beam="2">  1        2 0.64238488E-01 0.25558040E+02</pdfrwt>
<pdfrwt beam="1">  1       -2 0.24097084E-03 0.25558040E+02</pdfrwt>
<totfact> 0.74202737E+05</totfact>
</mgrwt>
</event>
<event>
 4    1  0.1474645E+004  0.3328799E+02  0.7546771E-02  0.1564351E+00
         -2   -1    0    0    0  501 -0.00000000000E+00  0.00000000000E+00  0.14791238774E+02  0.14791238774E+02  0.00000000000E+00 0. -1.
          2   -1    0    0  501    0  0.00000000000E+00 -0.00000000000E+00 -0.10885229299E+03  0.10885229299E+03  0.00000000000E+00 0.  1.
          2    1    1    2  502    0  0.13510587106E+02 -0.30422919995E+02 -0.81549615874E+02  0.88081949764E+02  0.00000000000E+00 0.  1.
         -2    1    1    2    0  502 -0.13510587106E+02  0.30422919995E+02 -0.12511438343E+02  0.35561582000E+02  0.00000000000E+00 0. -1.
<mgrwt>
<rscale>  2 0.33287986E+02</rscale>
<asrwt>0</asrwt>
<pdfrwt beam="2">  1        2 0.16746506E-01 0.33287986E+02</pdfrwt>
<pdfrwt beam="1">  1       -2 0.22755753E-02 0.33287986E+02</pdfrwt>
<totfact> 0.14905982E+05</totfact>
</mgrwt>
</event>
<event>
 4    1  0.1474645E+004  0.2132095E+02  0.7546771E-02  0.1720268E+00
         -2   -1    0    0    0  501 -0.00000000000E+00  0.00000000000E+00  0.85501525003E+02  0.85501525003E+02  0.00000000000E+00 0.  1.
          2   -1    0    0  501    0  0.00000000000E+00 -0.00000000000E+00 -0.57130010131E+02  0.57130010131E+02  0.00000000000E+00 0. -1.
          2    1    1    2  502    0 -0.15451082470E+02  0.14691724369E+02 -0.53730577041E+02  0.57806207483E+02  0.00000000000E+00 0. -1.
         -2    1    1    2    0  502  0.15451082470E+02 -0.14691724369E+02  0.82102091913E+02  0.84825327650E+02  0.00000000000E+00 0.  1.
<mgrwt>
<rscale>  2 0.21320945E+02</rscale>
<asrwt>0</asrwt>
<pdfrwt beam="2">  1        2 0.87892324E-02 0.21320945E+02</pdfrwt>
<pdfrwt beam="1">  1       -2 0.13154081E-01 0.21320945E+02</pdfrwt>
<totfact> 0.22328216E+04</totfact>
</mgrwt>
</event>
<event>
 4    1  0.1474645E+004  0.3423529E+02  0.7546771E-02  0.1555498E+00
          2   -1    0    0  501    0  0.00000000000E+00  0.00000000000E+00  0.30293149469E+04  0.30293149469E+04  0.00000000000E+00 0. -1.
         -2   -1    0    0    0  501 -0.00000000000E+00 -0.00000000000E+00 -0.39111281099E+00  0.39111281099E+00  0.00000000000E+00 0. -1.
          2    1    1    2  502    0 -0.21484716505E+02 -0.26654495631E+02  0.16715995756E+04  0.16719501177E+04  0.00000000000E+00 0. -1.
         -2    1    1    2    0  502  0.21484716505E+02  0.26654495631E+02  0.13573242586E+04  0.13577559420E+04  0.00000000000E+00 0. -1.
<mgrwt>
<rscale>  2 0.34235291E+02</rscale>
<asrwt>0</asrwt>
<pdfrwt beam="1">  1        2 0.46602966E+00 0.34235291E+02</pdfrwt>
<pdfrwt beam="2">  1       -2 0.60173628E-04 0.34235291E+02</pdfrwt>
<totfact> 0.19035484E+05</totfact>
</mgrwt>
</event>
<event>
 4    1  0.1474645E+004  0.2016700E+02  0.7546771E-02  0.1742027E+00
         -2   -1    0    0    0  501 -0.00000000000E+00  0.00000000000E+00  0.19225980027E+01  0.19225980027E+01  0.00000000000E+00 0.  1.
          2   -1    0    0  501    0  0.00000000000E+00 -0.00000000000E+00 -0.11714357107E+04  0.11714357107E+04  0.00000000000E+00 0. -1.
          2    1    1    2  502    0  0.78048410227E+01  0.18595497044E+02 -0.11158283754E+04  0.11160106054E+04  0.00000000000E+00 0. -1.
         -2    1    1    2    0  502 -0.78048410227E+01 -0.18595497044E+02 -0.53684737321E+02  0.57347703310E+02  0.00000000000E+00 0.  1.
<mgrwt>
<rscale>  2 0.20167004E+02</rscale>
<asrwt>0</asrwt>
<pdfrwt beam="2">  1        2 0.18022059E+00 0.20167004E+02</pdfrwt>
<pdfrwt beam="1">  1       -2 0.29578478E-03 0.20167004E+02</pdfrwt>
<totfact> 0.16810348E+05</totfact>
</mgrwt>
</event>
<event>
 4    1  0.1474645E+004  0.4882487E+02  0.7546771E-02  0.1451785E+00
          2   -1    0    0  501    0  0.00000000000E+00  0.00000000000E+00  0.78372496088E+03  0.78372496088E+03  0.00000000000E+00 0.  1.
         -2   -1    0    0    0  501 -0.00000000000E+00 -0.00000000000E+00 -0.32115676474E+01  0.32115676474E+01  0.00000000000E+00 0.  1.
          2    1    1    2  502    0 -0.34690240763E+02 -0.34357757796E+02  0.48074381384E+03  0.48321680732E+03  0.00000000000E+00 0.  1.
         -2    1    1    2    0  502  0.34690240763E+02  0.34357757796E+02  0.29976957939E+03  0.30371972121E+03  0.00000000000E+00 0.  1.
<mgrwt>
<rscale>  2 0.48824874E+02</rscale>
<asrwt>0</asrwt>
<pdfrwt beam="1">  1        2 0.12057292E+00 0.48824874E+02</pdfrwt>
<pdfrwt beam="2">  1       -2 0.49408795E-03 0.48824874E+02</pdfrwt>
<totfact> 0.16729036E+05</totfact>
</mgrwt>
</event>
<event>
 4    1  0.1474645E+004  0.3361127E+02  0.7546771E-02  0.1561290E+00
          2   -1    0    0  501    0  0.00000000000E+00  0.00000000000E+00  0.19117311994E+04  0.19117311994E+04  0.00000000000E+00 0.  1.
         -2   -1    0    0    0  501 -0.00000000000E+00 -0.00000000000E+00 -0.25150935916E+03  0.25150935916E+03  0.00000000000E+00 0. -1.
          2    1    1    2  502    0 -0.81694819577E+01  0.32603326940E+02  0.19104597796E+04  0.19107554230E+04  0.00000000000E+00 0.  1.
         -2    1    1    2    0  502  0.81694819577E+01 -0.32603326940E+02 -0.25023793934E+03  0.25248513549E+03  0.00000000000E+00 0. -1.
<mgrwt>
<rscale>  2 0.33611268E+02</rscale>
<asrwt>0</asrwt>
<pdfrwt beam="1">  1        2 0.29411248E+00 0.33611268E+02</pdfrwt>
<pdfrwt beam="2">  1       -2 0.38693749E-01 0.33611268E+02</pdfrwt>
<totfact> 0.64501162E+01</totfact>
</mgrwt>
</event>
<event>
 4    1  0.1474645E+004  0.2196182E+02  0.7546771E-02  0.1708913E+00
         -2   -1    0    0    0  501 -0.00000000000E+00  0.00000000000E+00  0.36758549758E+01  0.36758549758E+01  0.00000000000E+00 0. -1.
          2   -1    0    0  501    0  0.00000000000E+00 -0.00000000000E+00 -0.59474674156E+03  0.59474674156E+03  0.00000000000E+00 0. -1.
          2    1    1    2  502    0 -0.21809103689E+02  0.25854650101E+01 -0.55968653865E+03  0.56011725841E+03  0.00000000000E+00 0. -1.
         -2    1    1    2    0  502  0.21809103689E+02 -0.25854650101E+01 -0.31384347940E+02  0.38305338122E+02  0.00000000000E+00 0. -1.
<mgrwt>
<rscale>  2 0.21961822E+02</rscale>
<asrwt>0</asrwt>
<pdfrwt beam="2">  1        2 0.91499432E-01 0.21961822E+02</pdfrwt>
<pdfrwt beam="1">  1       -2 0.56551656E-03 0.21961822E+02</pdfrwt>
<totfact> 0.15908459E+05</totfact>
</mgrwt>
</event>
<event>
 4    1  0.1474645E+004  0.2141389E+02  0.7546771E-02  0.1718590E+00
         -2   -1    0    0    0  501 -0.00000000000E+00  0.00000000000E+00  0.49477973046E+01  0.49477973046E+01  0.00000000000E+00 0.  1.
          2   -1    0    0  501    0  0.00000000000E+00 -0.00000000000E+00 -0.70985983074E+03  0.70985983074E+03  0.00000000000E+00 0. -1.
          2    1    1    2  502    0  0.20629698452E+02 -0.57419846890E+01 -0.68571298796E+03  0.68604727002E+03  0.00000000000E+00 0. -1.
         -2    1    1    2    0  502 -0.20629698452E+02  0.57419846890E+01 -0.19199045470E+02  0.28760358019E+02  0.00000000000E+00 0.  1.
<mgrwt>
<rscale>  2 0.21413894E+02</rscale>
<asrwt>0</asrwt>
<pdfrwt beam="2">  1        2 0.10920923E+00 0.21413894E+02</pdfrwt>
<pdfrwt beam="1">  1       -2 0.76119938E-03 0.21413894E+02</pdfrwt>
<totfact> 0.88027080E+04</totfact>
</mgrwt>
</event>
<event>
 4    1  0.1474645E+004  0.3352909E+02  0.7546771E-02  0.1562064E+00
          2   -1    0    0  501    0  0.00000000000E+00  0.00000000000E+00  0.40531070943E+02  0.40531070943E+02  0.00000000000E+00 0.  1.
         -2   -1    0    0    0  501 -0.00000000000E+00 -0.00000000000E+00 -0.15654801240E+03  0.15654801240E+03  0.00000000000E+00 0. -1.
          2    1    1    2  502    0 -0.20983697431E+02  0.26151175645E+02  0.31376335638E+02  0.45920300343E+02  0.00000000000E+00 0.  1.
         -2    1    1    2    0  502  0.20983697431E+02 -0.26151175645E+02 -0.14739327710E+03  0.15115878300E+03  0.00000000000E+00 0. -1.
<mgrwt>
<rscale>  2 0.33529085E+02</rscale>
<asrwt>0</asrwt>
<pdfrwt beam="1">  1        2 0.62355495E-02 0.33529085E+02</pdfrwt>
<pdfrwt beam="2">  1       -2 0.24084309E-01 0.33529085E+02</pdfrwt>
<totfact> 0.13879073E+04</totfact>
</mgrwt>
</event>
<event>
 4    1  0.1474645E+004  0.6027145E+02  0.7546771E-02  0.1396696E+00
          2   -1    0    0  501    0  0.00000000000E+00  0.00000000000E+00  0.10323730853E+03  0.10323730853E+03  0.00000000000E+00 0.  1.
         -2   -1    0    0    0  501 -0.00000000000E+00 -0.00000000000E+00 -0.39177695683E+02  0.39177695683E+02  0.00000000000E+00 0.  1.
          2    1    1    2  502    0 -0.51564284069E+02  0.31205270197E+02  0.93043212560E+01  0.60985364422E+02  0.00000000000E+00 0.  1.
         -2    1    1    2    0  502  0.51564284069E+02 -0.31205270197E+02  0.54755291595E+02  0.81429639796E+02  0.00000000000E+00 0.  1.
<mgrwt>
<rscale>  2 0.60271452E+02</rscale>
<asrwt>0</asrwt>
<pdfrwt beam="1">  1        2 0.15882663E-01 0.60271452E+02</pdfrwt>
<pdfrwt beam="2">  1       -2 0.60273378E-02 0.60271452E+02</pdfrwt>
<totfact> 0.43679923E+04</totfact>
</mgrwt>
</event>
<event>
 4    1  0.1474645E+004  0.3606086E+02  0.7546771E-02  0.1539377E+00
          2   -1    0    0  501    0  0.00000000000E+00  0.00000000000E+00  0.18406213647E+04  0.18406213647E+04  0.00000000000E+00 0.  1.
         -2   -1    0    0    0  501 -0.00000000000E+00 -0.00000000000E+00 -0.75812384767E+02  0.75812384767E+02  0.00000000000E+00 0.  1.
          2    1    1    2  502    0  0.32009621843E+02 -0.16606323808E+02  0.18361461199E+04  0.18365001932E+04  0.00000000000E+00 0.  1.
         -2    1    1    2    0  502 -0.32009621843E+02  0.16606323808E+02 -0.71337139977E+02  0.79933556290E+02  0.00000000000E+00 0.  1.
<mgrwt>
<rscale>  2 0.36060864E+02</rscale>
<asrwt>0</asrwt>
<pdfrwt beam="1">  1        2 0.28317248E+00 0.36060864E+02</pdfrwt>
<pdfrwt beam="2">  1       -2 0.11663445E-01 0.36060864E+02</pdfrwt>
<totfact> 0.50616325E+02</totfact>
</mgrwt>
</event>
<event>
 4    1  0.1474645E+004  0.2499539E+02  0.7546771E-02  0.1661068E+00
         -2   -1    0    0    0  501 -0.00000000000E+00  0.00000000000E+00  0.20893691614E+02  0.20893691614E+02  0.00000000000E+00 0. -1.
          2   -1    0    0  501    0  0.00000000000E+00 -0.00000000000E+00 -0.30680305943E+02  0.30680305943E+02  0.00000000000E+00 0.  1.
          2    1    1    2  502    0  0.11897936819E+02 -0.21982004928E+02 -0.89997173397E+01  0.26566225803E+02  0.00000000000E+00 0. -1.
         -2    1    1    2    0  502 -0.11897936819E+02  0.21982004928E+02 -0.78689698981E+00  0.25007771754E+02  0.00000000000E+00 0.  1.
<mgrwt>
<rscale>  2 0.24995388E+02</rscale>
<asrwt>0</asrwt>
<pdfrwt beam="2">  1        2 0.47200471E-02 0.24995388E+02</pdfrwt>
<pdfrwt beam="1">  1       -2 0.32144141E-02 0.24995388E+02</pdfrwt>
<totfact> 0.37696778E+05</totfact>
</mgrwt>
</event>
<event>
 4    1  0.1474645E+004  0.4421840E+02  0.7546771E-02  0.1479281E+00
          2   -1    0    0  501    0  0.00000000000E+00  0.00000000000E+00  0.18175471175E+02  0.18175471175E+02  0.00000000000E+00 0.  1.
         -2   -1    0    0    0  501 -0.00000000000E+00 -0.00000000000E+00 -0.15001226364E+03  0.15001226364E+03  0.00000000000E+00 0. -1.
          2    1    1    2  502    0  0.31998860803E+02 -0.30517859879E+02 -0.21192071472E+02  0.49034383422E+02  0.00000000000E+00 0.  1.
         -2    1    1    2    0  502 -0.31998860803E+02  0.30517859879E+02 -0.11064472099E+03  0.11915335139E+03  0.00000000000E+00 0. -1.
<mgrwt>
<rscale>  2 0.44218400E+02</rscale>
<asrwt>0</asrwt>
<pdfrwt beam="1">  1        2 0.27962262E-02 0.44218400E+02</pdfrwt>
<pdfrwt beam="2">  1       -2 0.23078811E-01 0.44218400E+02</pdfrwt>
<totfact> 0.43076342E+04</totfact>
</mgrwt>
</event>
<event>
 4    1  0.1474645E+004  0.2146363E+02  0.7546771E-02  0.1717697E+00
         -2   -1    0    0    0  501 -0.00000000000E+00  0.00000000000E+00  0.17570218917E+02  0.17570218917E+02  0.00000000000E+00 0. -1.
          2   -1    0    0  501    0  0.00000000000E+00 -0.00000000000E+00 -0.83086265481E+02  0.83086265481E+02  0.00000000000E+00 0.  1.
          2    1    1    2  502    0 -0.13188815850E+02  0.16933478199E+02 -0.74394625134E+02  0.77428985504E+02  0.00000000000E+00 0.  1.
         -2    1    1    2    0  502  0.13188815850E+02 -0.16933478199E+02  0.88785785703E+01  0.23227498894E+02  0.00000000000E+00 0. -1.
<mgrwt>
<rscale>  2 0.21463633E+02</rscale>
<asrwt>0</asrwt>
<pdfrwt beam="2">  1        2 0.12782502E-01 0.21463633E+02</pdfrwt>
<pdfrwt beam="1">  1       -2 0.27031106E-02 0.21463633E+02</pdfrwt>
<totfact> 0.14203202E+05</totfact>
</mgrwt>
</event>
<event>
 4    1  0.1474645E+004  0.3439499E+02  0.7546771E-02  0.1554040E+00
          2   -1    0    0  501    0  0.00000000000E+00  0.00000000000E+00  0.12329822199E+03  0.12329822199E+03  0.00000000000E+00 0. -1.
         -2   -1    0    0    0  501 -0.00000000000E+00 -0.00000000000E+00 -0.23982410887E+02  0.23982410887E+02  0.00000000000E+00 0.  1.
          2    1    1    2  502    0  0.21047168147E+02  0.27203531520E+02  0.10669591325E+03  0.11210278015E+03  0.00000000000E+00 0. -1.
         -2    1    1    2    0  502 -0.21047168147E+02 -0.27203531520E+02 -0.73801021498E+01  0.35177852719E+02  0.00000000000E+00 0.  1.
<mgrwt>
<rscale>  2 0.34394991E+02</rscale>
<asrwt>0</asrwt>
<pdfrwt beam="1">  1        2 0.18968957E-01 0.34394991E+02</pdfrwt>
<pdfrwt beam="2">  1       -2 0.36896018E-02 0.34394991E+02</pdfrwt>
<totfact> 0.66332357E+04</totfact>
</mgrwt>
</event>
<event>
 4    1  0.1474645E+004  0.2288094E+02  0.7546771E-02  0.1693447E+00
         -2   -1    0    0    0  501 -0.00000000000E+00  0.00000000000E+00  0.37030951160E+02  0.37030951160E+02  0.00000000000E+00 0.  1.
          2   -1    0    0  501    0  0.00000000000E+00 -0.00000000000E+00 -0.34407443264E+02  0.34407443264E+02  0.00000000000E+00 0.  1.
          2    1    1    2  502    0  0.22798469186E+02  0.19408756858E+01 -0.26103877148E+02  0.34712383926E+02  0.00000000000E+00 0.  1.
         -2    1    1    2    0  502 -0.22798469186E+02 -0.19408756858E+01  0.28727385044E+02  0.36726010498E+02  0.00000000000E+00 0.  1.
<mgrwt>
<rscale>  2 0.22880935E+02</rscale>
<asrwt>0</asrwt>
<pdfrwt beam="2">  1        2 0.52934528E-02 0.22880935E+02</pdfrwt>
<pdfrwt beam="1">  1       -2 0.56970694E-02 0.22880935E+02</pdfrwt>
<totfact> 0.14234290E+05</totfact>
</mgrwt>
</event>
<event>
 4    1  0.1474645E+004  0.3678298E+02  0.7546771E-02  0.1533314E+00
          2   -1    0    0  501    0  0.00000000000E+00  0.00000000000E+00  0.35357995750E+04  0.35357995750E+04  0.00000000000E+00 0.  1.
         -2   -1    0    0    0  501 -0.00000000000E+00 -0.00000000000E+00 -0.38313044373E+00  0.38313044373E+00  0.00000000000E+00 0.  1.
          2    1    1    2  502    0  0.27635392959E+02 -0.24274940283E+02  0.18300616715E+04  0.18304312905E+04  0.00000000000E+00 0.  1.
         -2    1    1    2    0  502 -0.27635392959E+02  0.24274940283E+02  0.17053547730E+04  0.17057514149E+04  0.00000000000E+00 0.  1.
<mgrwt>
<rscale>  2 0.36782981E+02</rscale>
<asrwt>0</asrwt>
<pdfrwt beam="1">  1        2 0.54394303E+00 0.36782981E+02</pdfrwt>
<pdfrwt beam="2">  1       -2 0.58945977E-04 0.36782981E+02</pdfrwt>
<totfact> 0.10025302E+05</totfact>
</mgrwt>
</event>
<event>
 4    1  0.1474645E+004  0.2041845E+02  0.7546771E-02  0.1737132E+00
          2   -1    0    0  501    0  0.00000000000E+00  0.00000000000E+00  0.14513577362E+04  0.14513577362E+04  0.00000000000E+00 0. -1.
         -2   -1    0    0    0  501 -0.00000000000E+00 -0.00000000000E+00 -0.25305445889E+02  0.25305445889E+02  0.00000000000E+00 0.  1.
          2    1    1    2  502    0  0.15975711769E+02  0.12715731227E+02  0.14471551524E+04  0.14472991910E+04  0.00000000000E+00 0. -1.
         -2    1    1    2    0  502 -0.15975711769E+02 -0.12715731227E+02 -0.21102862054E+02  0.29363991112E+02  0.00000000000E+00 0.  1.
<mgrwt>
<rscale>  2 0.20418452E+02</rscale>
<asrwt>0</asrwt>
<pdfrwt beam="1">  1        2 0.22328574E+00 0.20418452E+02</pdfrwt>
<pdfrwt beam="2">  1       -2 0.38931466E-02 0.20418452E+02</pdfrwt>
<totfact> 0.37873261E+03</totfact>
</mgrwt>
</event>
<event>
 4    1  0.1474645E+004  0.2245058E+02  0.7546771E-02  0.1700574E+00
          2   -1    0    0  501    0  0.00000000000E+00  0.00000000000E+00  0.42034257870E+01  0.42034257870E+01  0.00000000000E+00 0. -1.
         -2   -1    0    0    0  501 -0.00000000000E+00 -0.00000000000E+00 -0.23297729982E+03  0.23297729982E+03  0.00000000000E+00 0.  1.
          2    1    1    2  502    0  0.14304274972E+02 -0.17303646780E+02 -0.31771144303E+02  0.38902880159E+02  0.00000000000E+00 0. -1.
         -2    1    1    2    0  502 -0.14304274972E+02  0.17303646780E+02 -0.19700272973E+03  0.19827784545E+03  0.00000000000E+00 0.  1.
<mgrwt>
<rscale>  2 0.22450578E+02</rscale>
<asrwt>0</asrwt>
<pdfrwt beam="1">  1        2 0.64668071E-03 0.22450578E+02</pdfrwt>
<pdfrwt beam="2">  1       -2 0.35842671E-01 0.22450578E+02</pdfrwt>
<totfact> 0.11714282E+05</totfact>
</mgrwt>
</event>
<event>
 4    1  0.1474645E+004  0.2418532E+02  0.7546771E-02  0.1672987E+00
         -2   -1    0    0    0  501 -0.00000000000E+00  0.00000000000E+00  0.71541281726E+02  0.71541281726E+02  0.00000000000E+00 0. -1.
          2   -1    0    0  501    0  0.00000000000E+00 -0.00000000000E+00 -0.54653610067E+02  0.54653610067E+02  0.00000000000E+00 0.  1.
          2    1    1    2  502    0 -0.96363157344E+01 -0.22182673632E+02 -0.49742863173E+02  0.55310776772E+02  0.00000000000E+00 0.  1.
         -2    1    1    2    0  502  0.96363157344E+01  0.22182673632E+02  0.66630534832E+02  0.70884115021E+02  0.00000000000E+00 0. -1.
<mgrwt>
<rscale>  2 0.24185318E+02</rscale>
<asrwt>0</asrwt>
<pdfrwt beam="2">  1        2 0.84082477E-02 0.24185318E+02</pdfrwt>
<pdfrwt beam="1">  1       -2 0.11006351E-01 0.24185318E+02</pdfrwt>
<totfact> 0.31595704E+04</totfact>
</mgrwt>
</event>
<event>
 4    1  0.1474645E+004  0.2165815E+02  0.7546771E-02  0.1714232E+00
         -2   -1    0    0    0  501 -0.00000000000E+00  0.00000000000E+00  0.41017800321E+01  0.41017800321E+01  0.00000000000E+00 0. -1.
          2   -1    0    0  501    0  0.00000000000E+00 -0.00000000000E+00 -0.89677449558E+03  0.89677449558E+03  0.00000000000E+00 0. -1.
          2    1    1    2  502    0  0.21606011977E+02  0.15019476081E+01 -0.86707484622E+03  0.86734529718E+03  0.00000000000E+00 0. -1.
         -2    1    1    2    0  502 -0.21606011977E+02 -0.15019476081E+01 -0.25597869327E+02  0.33530978427E+02  0.00000000000E+00 0. -1.
<mgrwt>
<rscale>  2 0.21658153E+02</rscale>
<asrwt>0</asrwt>
<pdfrwt beam="2">  1        2 0.13796519E+00 0.21658153E+02</pdfrwt>
<pdfrwt beam="1">  1       -2 0.63104361E-03 0.21658153E+02</pdfrwt>
<totfact> 0.87167946E+04</totfact>
</mgrwt>
</event>
<event>
 4    1  0.1474645E+004  0.2657178E+02  0.7546771E-02  0.1639401E+00
          2   -1    0    0  501    0  0.00000000000E+00  0.00000000000E+00  0.15804484834E+04  0.15804484834E+04  0.00000000000E+00 0. -1.
         -2   -1    0    0    0  501 -0.00000000000E+00 -0.00000000000E+00 -0.17336491893E+02  0.17336491893E+02  0.00000000000E+00 0.  1.
          2    1    1    2  502    0  0.79258852218E+01  0.25362177582E+02  0.15700879173E+04  0.15703127484E+04  0.00000000000E+00 0. -1.
         -2    1    1    2    0  502 -0.79258852218E+01 -0.25362177582E+02 -0.69759258216E+01  0.27472226873E+02  0.00000000000E+00 0.  1.
<mgrwt>
<rscale>  2 0.26571784E+02</rscale>
<asrwt>0</asrwt>
<pdfrwt beam="1">  1        2 0.24314581E+00 0.26571784E+02</pdfrwt>
<pdfrwt beam="2">  1       -2 0.26671538E-02 0.26571784E+02</pdfrwt>
<totfact> 0.56825279E+03</totfact>
</mgrwt>
</event>
<event>
 4    1  0.1474645E+004  0.2970300E+02  0.7546771E-02  0.1601395E+00
          2   -1    0    0  501    0  0.00000000000E+00  0.00000000000E+00  0.62793251402E+03  0.62793251402E+03  0.00000000000E+00 0. -1.
         -2   -1    0    0    0  501 -0.00000000000E+00 -0.00000000000E+00 -0.20474476329E+01  0.20474476329E+01  0.00000000000E+00 0.  1.
          2    1    1    2  502    0  0.29254917886E+02  0.51398236431E+01  0.48938248019E+03  0.49028306102E+03  0.00000000000E+00 0. -1.
         -2    1    1    2    0  502 -0.29254917886E+02 -0.51398236431E+01  0.13650258620E+03  0.13969690064E+03  0.00000000000E+00 0.  1.
<mgrwt>
<rscale>  2 0.29702997E+02</rscale>
<asrwt>0</asrwt>
<pdfrwt beam="1">  1        2 0.96604849E-01 0.29702997E+02</pdfrwt>
<pdfrwt beam="2">  1       -2 0.31499244E-03 0.29702997E+02</pdfrwt>
<totfact> 0.35525775E+05</totfact>
</mgrwt>
</event>
<event>
 4    1  0.1474645E+004  0.2060348E+02  0.7546771E-02  0.1733587E+00
          2   -1    0    0  501    0  0.00000000000E+00  0.00000000000E+00  0.17065595516E+02  0.17065595516E+02  0.00000000000E+00 0. -1.
         -2   -1    0    0    0  501 -0.00000000000E+00 -0.00000000000E+00 -0.86547819013E+02  0.86547819013E+02  0.00000000000E+00 0.  1.
          2    1    1    2  502    0 -0.20086311854E+02  0.45872942323E+01  0.89915133892E+01  0.22480002342E+02  0.00000000000E+00 0. -1.
         -2    1    1    2    0  502  0.20086311854E+02 -0.45872942323E+01 -0.78473736886E+02  0.81133412187E+02  0.00000000000E+00 0.  1.
<mgrwt>
<rscale>  2 0.20603475E+02</rscale>
<asrwt>0</asrwt>
<pdfrwt beam="1">  1        2 0.26254761E-02 0.20603475E+02</pdfrwt>
<pdfrwt beam="2">  1       -2 0.13315050E-01 0.20603475E+02</pdfrwt>
<totfact> 0.94769098E+04</totfact>
</mgrwt>
</event>
<event>
 4    1  0.1474645E+004  0.2691038E+02  0.7546771E-02  0.1634987E+00
         -2   -1    0    0    0  501 -0.00000000000E+00  0.00000000000E+00  0.25637338699E+01  0.25637338699E+01  0.00000000000E+00 0.  1.
          2   -1    0    0  501    0  0.00000000000E+00 -0.00000000000E+00 -0.28549993741E+03  0.28549993741E+03  0.00000000000E+00 0. -1.
          2    1    1    2  502    0  0.51287058975E+01  0.26417133401E+02 -0.15631491994E+03  0.15861438383E+03  0.00000000000E+00 0. -1.
         -2    1    1    2    0  502 -0.51287058975E+01 -0.26417133401E+02 -0.12662128360E+03  0.12944928745E+03  0.00000000000E+00 0.  1.
<mgrwt>
<rscale>  2 0.26910380E+02</rscale>
<asrwt>0</asrwt>
<pdfrwt beam="2">  1        2 0.43923036E-01 0.26910380E+02</pdfrwt>
<pdfrwt beam="1">  1       -2 0.39442088E-03 0.26910380E+02</pdfrwt>
<totfact> 0.56809324E+05</totfact>
</mgrwt>
</event>
<event>
 4    1  0.1474645E+004  0.2345186E+02  0.7546771E-02  0.1684289E+00
         -2   -1    0    0    0  501 -0.00000000000E+00  0.00000000000E+00  0.44577165046E+01  0.44577165046E+01  0.00000000000E+00 0.  1.
          2   -1    0    0  501    0  0.00000000000E+00 -0.00000000000E+00 -0.51674187188E+03  0.51674187188E+03  0.00000000000E+00 0. -1.
          2    1    1    2  502    0 -0.95285852302E+01  0.21428858961E+02 -0.48351239080E+03  0.48408080110E+03  0.00000000000E+00 0. -1.
         -2    1    1    2    0  502  0.95285852302E+01 -0.21428858961E+02 -0.28771764569E+02  0.37118787282E+02  0.00000000000E+00 0.  1.
<mgrwt>
<rscale>  2 0.23451864E+02</rscale>
<asrwt>0</asrwt>
<pdfrwt beam="2">  1        2 0.79498765E-01 0.23451864E+02</pdfrwt>
<pdfrwt beam="1">  1       -2 0.68580241E-03 0.23451864E+02</pdfrwt>
<totfact> 0.14415199E+05</totfact>
</mgrwt>
</event>
<event>
 4    1  0.1474645E+004  0.2021827E+02  0.7546771E-02  0.1741022E+00
          2   -1    0    0  501    0  0.00000000000E+00  0.00000000000E+00  0.30621594319E+02  0.30621594319E+02  0.00000000000E+00 0.  1.
         -2   -1    0    0    0  501 -0.00000000000E+00 -0.00000000000E+00 -0.13876296847E+02  0.13876296847E+02  0.00000000000E+00 0.  1.
          2    1    1    2  502    0  0.48907511994E+01 -0.19617824117E+02  0.12708304899E+02  0.23880525199E+02  0.00000000000E+00 0.  1.
         -2    1    1    2    0  502 -0.48907511994E+01  0.19617824117E+02  0.40369925732E+01  0.20617365967E+02  0.00000000000E+00 0.  1.
<mgrwt>
<rscale>  2 0.20218271E+02</rscale>
<asrwt>0</asrwt>
<pdfrwt beam="1">  1        2 0.47110145E-02 0.20218271E+02</pdfrwt>
<pdfrwt beam="2">  1       -2 0.21348149E-02 0.20218271E+02</pdfrwt>
<totfact> 0.62184860E+05</totfact>
</mgrwt>
</event>
<event>
 4    1  0.1474645E+004  0.2473216E+02  0.7546771E-02  0.1664879E+00
          2   -1    0    0  501    0  0.00000000000E+00  0.00000000000E+00  0.79032545699E+02  0.79032545699E+02  0.00000000000E+00 0. -1.
         -2   -1    0    0    0  501 -0.00000000000E+00 -0.00000000000E+00 -0.10550537181E+02  0.10550537181E+02  0.00000000000E+00 0. -1.
          2    1    1    2  502    0  0.14477247856E+02  0.20052157983E+02  0.57360844320E+02  0.62465560162E+02  0.00000000000E+00 0. -1.
         -2    1    1    2    0  502 -0.14477247856E+02 -0.20052157983E+02  0.11121164198E+02  0.27117522718E+02  0.00000000000E+00 0. -1.
<mgrwt>
<rscale>  2 0.24732160E+02</rscale>
<asrwt>0</asrwt>
<pdfrwt beam="1">  1        2 0.12158853E-01 0.24732160E+02</pdfrwt>
<pdfrwt beam="2">  1       -2 0.16231596E-02 0.24732160E+02</pdfrwt>
<totfact> 0.31488520E+05</totfact>
</mgrwt>
</event>
<event>
 4    1  0.1474645E+004  0.2343472E+02  0.7546771E-02  0.1684559E+00
         -2   -1    0    0    0  501 -0.00000000000E+00  0.00000000000E+00  0.60587590530E+01  0.60587590530E+01  0.00000000000E+00 0.  1.
          2   -1    0    0  501    0  0.00000000000E+00 -0.00000000000E+00 -0.80893581749E+03  0.80893581749E+03  0.00000000000E+00 0. -1.
          2    1    1    2  502    0 -0.16256677878E+02 -0.16879179929E+02 -0.78542713963E+03  0.78577667181E+03  0.00000000000E+00 0. -1.
         -2    1    1    2    0  502  0.16256677878E+02  0.16879179929E+02 -0.17449918807E+02  0.29217904735E+02  0.00000000000E+00 0.  1.
<mgrwt>
<rscale>  2 0.23434724E+02</rscale>
<asrwt>0</asrwt>
<pdfrwt beam="2">  1        2 0.12445152E+00 0.23434724E+02</pdfrwt>
<pdfrwt beam="1">  1       -2 0.93211784E-03 0.23434724E+02</pdfrwt>
<totfact> 0.59053982E+04</totfact>
</mgrwt>
</event>
<event>
 4    1  0.1474645E+004  0.2278998E+02  0.7546771E-02  0.1694937E+00
          2   -1    0    0  501    0  0.00000000000E+00  0.00000000000E+00  0.36990008439E+02  0.36990008439E+02  0.00000000000E+00 0.  1.
         -2   -1    0    0    0  501 -0.00000000000E+00 -0.00000000000E+00 -0.11282119707E+03  0.11282119707E+03  0.00000000000E+00 0.  1.
          2    1    1    2  502    0  0.22466344140E+02  0.38271129759E+01  0.32173992060E+02  0.39427771657E+02  0.00000000000E+00 0.  1.
         -2    1    1    2    0  502 -0.22466344140E+02 -0.38271129759E+01 -0.10800518069E+03  0.11038343385E+03  0.00000000000E+00 0.  1.
<mgrwt>
<rscale>  2 0.22789985E+02</rscale>
<asrwt>0</asrwt>
<pdfrwt beam="1">  1        2 0.56907706E-02 0.22789985E+02</pdfrwt>
<pdfrwt beam="2">  1       -2 0.17357107E-01 0.22789985E+02</pdfrwt>
<totfact> 0.24658462E+04</totfact>
</mgrwt>
</event>
<event>
 4    1  0.1474645E+004  0.3578723E+02  0.7546771E-02  0.1541719E+00
          2   -1    0    0  501    0  0.00000000000E+00  0.00000000000E+00  0.32167502736E+03  0.32167502736E+03  0.00000000000E+00 0.  1.
         -2   -1    0    0    0  501 -0.00000000000E+00 -0.00000000000E+00 -0.49010803948E+01  0.49010803948E+01  0.00000000000E+00 0. -1.
          2    1    1    2  502    0  0.18174982874E+02 -0.30828490972E+02  0.22911970475E+03  0.23189774678E+03  0.00000000000E+00 0.  1.
         -2    1    1    2    0  502 -0.18174982874E+02  0.30828490972E+02  0.87654242216E+02  0.94678360973E+02  0.00000000000E+00 0. -1.
<mgrwt>
<rscale>  2 0.35787230E+02</rscale>
<asrwt>0</asrwt>
<pdfrwt beam="1">  1        2 0.49488449E-01 0.35787230E+02</pdfrwt>
<pdfrwt beam="2">  1       -2 0.75401262E-03 0.35787230E+02</pdfrwt>
<totfact> 0.22548676E+05</totfact>
</mgrwt>
</event>
<event>
 4    1  0.1474645E+004  0.2396334E+02  0.7546771E-02  0.1676354E+00
         -2   -1    0    0    0  501 -0.00000000000E+00  0.00000000000E+00  0.17469852539E+01  0.17469852539E+01  0.00000000000E+00 0.  1.
          2   -1    0    0  501    0  0.00000000000E+00 -0.00000000000E+00 -0.75859665378E+03  0.75859665378E+03  0.00000000000E+00 0.  1.
          2    1    1    2  502    0  0.89703794468E+01  0.22221022439E+02 -0.66461474946E+03  0.66504661998E+03  0.00000000000E+00 0.  1.
         -2    1    1    2    0  502 -0.89703794468E+01 -0.22221022439E+02 -0.92234919070E+02  0.95297019059E+02  0.00000000000E+00 0.  1.
<mgrwt>
<rscale>  2 0.23963338E+02</rscale>
<asrwt>0</asrwt>
<pdfrwt beam="2">  1        2 0.11670759E+00 0.23963338E+02</pdfrwt>
<pdfrwt beam="1">  1       -2 0.26876600E-03 0.23963338E+02</pdfrwt>
<totfact> 0.33828418E+05</totfact>
</mgrwt>
</event>
<event>
 4    1  0.1474645E+004  0.2435318E+02  0.7546771E-02  0.1670470E+00
         -2   -1    0    0    0  501 -0.00000000000E+00  0.00000000000E+00  0.20071436025E+03  0.20071436025E+03  0.00000000000E+00 0.  1.
          2   -1    0    0  501    0  0.00000000000E+00 -0.00000000000E+00 -0.13910705757E+02  0.13910705757E+02  0.00000000000E+00 0.  1.
          2    1    1    2  502    0  0.23779911904E+02 -0.52529424392E+01 -0.18337753331E+01  0.24422128212E+02  0.00000000000E+00 0.  1.
         -2    1    1    2    0  502 -0.23779911904E+02  0.52529424392E+01  0.18863742982E+03  0.19020293779E+03  0.00000000000E+00 0.  1.
<mgrwt>
<rscale>  2 0.24353185E+02</rscale>
<asrwt>0</asrwt>
<pdfrwt beam="2">  1        2 0.21401087E-02 0.24353185E+02</pdfrwt>
<pdfrwt beam="1">  1       -2 0.30879130E-01 0.24353185E+02</pdfrwt>
<totfact> 0.32849101E+04</totfact>
</mgrwt>
</event>
<event>
 4    1  0.1474645E+004  0.3127244E+02  0.7546771E-02  0.1584435E+00
         -2   -1    0    0    0  501 -0.00000000000E+00  0.00000000000E+00  0.53032781681E+01  0.53032781681E+01  0.00000000000E+00 0. -1.
          2   -1    0    0  501    0  0.00000000000E+00 -0.00000000000E+00 -0.20652067273E+03  0.20652067273E+03  0.00000000000E+00 0. -1.
          2    1    1    2  502    0  0.10217560315E+02 -0.29556164874E+02 -0.13526535674E+03  0.13883328907E+03  0.00000000000E+00 0. -1.
         -2    1    1    2    0  502 -0.10217560315E+02  0.29556164874E+02 -0.65952037826E+02  0.72990661829E+02  0.00000000000E+00 0. -1.
<mgrwt>
<rscale>  2 0.31272439E+02</rscale>
<asrwt>0</asrwt>
<pdfrwt beam="2">  1        2 0.31772409E-01 0.31272439E+02</pdfrwt>
<pdfrwt beam="1">  1       -2 0.81588902E-03 0.31272439E+02</pdfrwt>
<totfact> 0.30651773E+05</totfact>
</mgrwt>
</event>
<event>
 4    1  0.1474645E+004  0.2642899E+02  0.7546771E-02  0.1641286E+00
          2   -1    0    0  501    0  0.00000000000E+00  0.00000000000E+00  0.18817872498E+04  0.18817872498E+04  0.00000000000E+00 0. -1.
         -2   -1    0    0    0  501 -0.00000000000E+00 -0.00000000000E+00 -0.41421034388E+01  0.41421034388E+01  0.00000000000E+00 0. -1.
          2    1    1    2  502    0  0.23934601629E+02 -0.11208326440E+02  0.18385449203E+04  0.18387348682E+04  0.00000000000E+00 0. -1.
         -2    1    1    2    0  502 -0.23934601629E+02  0.11208326440E+02  0.39100226115E+02  0.47194485048E+02  0.00000000000E+00 0. -1.
<mgrwt>
<rscale>  2 0.26428994E+02</rscale>
<asrwt>0</asrwt>
<pdfrwt beam="1">  1        2 0.28950505E+00 0.26428994E+02</pdfrwt>
<pdfrwt beam="2">  1       -2 0.63724818E-03 0.26428994E+02</pdfrwt>
<totfact> 0.29068588E+04</totfact>
</mgrwt>
</event>
<event>
 4    1  0.1474645E+004  0.3118096E+02  0.7546771E-02  0.1585390E+00
         -2   -1    0    0    0  501 -0.00000000000E+00  0.00000000000E+00  0.23512770489E+02  0.23512770489E+02  0.00000000000E+00 0. -1.
          2   -1    0    0  501    0  0.00000000000E+00 -0.00000000000E+00 -0.40140151277E+03  0.40140151277E+03  0.00000000000E+00 0.  1.
          2    1    1    2  502    0 -0.23639895061E+02  0.20332421552E+02 -0.39016114372E+03  0.39140512269E+03  0.00000000000E+00 0.  1.
         -2    1    1    2    0  502  0.23639895061E+02 -0.20332421552E+02  0.12272401437E+02  0.33509160564E+02  0.00000000000E+00 0. -1.
<mgrwt>
<rscale>  2 0.31180956E+02</rscale>
<asrwt>0</asrwt>
<pdfrwt beam="2">  1        2 0.61754071E-01 0.31180956E+02</pdfrwt>
<pdfrwt beam="1">  1       -2 0.36173498E-02 0.31180956E+02</pdfrwt>
<totfact> 0.19967125E+04</totfact>
</mgrwt>
</event>
<event>
 4    1  0.1474645E+004  0.2253331E+02  0.7546771E-02  0.1699189E+00
          2   -1    0    0  501    0  0.00000000000E+00  0.00000000000E+00  0.10549052564E+04  0.10549052564E+04  0.00000000000E+00 0.  1.
         -2   -1    0    0    0  501 -0.00000000000E+00 -0.00000000000E+00 -0.79581413494E+00  0.79581413494E+00  0.00000000000E+00 0. -1.
          2    1    1    2  502    0 -0.19728406489E+02  0.10887614157E+02  0.85887990572E+03  0.85917544344E+03  0.00000000000E+00 0.  1.
         -2    1    1    2    0  502  0.19728406489E+02 -0.10887614157E+02  0.19522953657E+03  0.19652562712E+03  0.00000000000E+00 0. -1.
<mgrwt>
<rscale>  2 0.22533312E+02</rscale>
<asrwt>0</asrwt>
<pdfrwt beam="1">  1        2 0.16229200E+00 0.22533312E+02</pdfrwt>
<pdfrwt beam="2">  1       -2 0.12243379E-03 0.22533312E+02</pdfrwt>
<totfact> 0.63654119E+05</totfact>
</mgrwt>
</event>
<event>
 4    1  0.1474645E+004  0.2634615E+02  0.7546771E-02  0.1642387E+00
         -2   -1    0    0    0  501 -0.00000000000E+00  0.00000000000E+00  0.18871490308E+02  0.18871490308E+02  0.00000000000E+00 0.  1.
          2   -1    0    0  501    0  0.00000000000E+00 -0.00000000000E+00 -0.46069834018E+02  0.46069834018E+02  0.00000000000E+00 0.  1.
          2    1    1    2  502    0 -0.22502145781E+02 -0.13703022952E+02 -0.28179073870E+02  0.38576931020E+02  0.00000000000E+00 0.  1.
         -2    1    1    2    0  502  0.22502145781E+02  0.13703022952E+02  0.98073016035E+00  0.26364393306E+02  0.00000000000E+00 0.  1.
<mgrwt>
<rscale>  2 0.26346146E+02</rscale>
<asrwt>0</asrwt>
<pdfrwt beam="2">  1        2 0.70876667E-02 0.26346146E+02</pdfrwt>
<pdfrwt beam="1">  1       -2 0.29033062E-02 0.26346146E+02</pdfrwt>
<totfact> 0.26905912E+05</totfact>
</mgrwt>
</event>
<event>
 4    1  0.1474645E+004  0.2063232E+02  0.7546771E-02  0.1733038E+00
          2   -1    0    0  501    0  0.00000000000E+00  0.00000000000E+00  0.91669466054E+03  0.91669466054E+03  0.00000000000E+00 0. -1.
         -2   -1    0    0    0  501 -0.00000000000E+00 -0.00000000000E+00 -0.58464505214E+00  0.58464505214E+00  0.00000000000E+00 0.  1.
          2    1    1    2  502    0 -0.17607732446E+01  0.20557038271E+02  0.25003737526E+03  0.25088718814E+03  0.00000000000E+00 0. -1.
         -2    1    1    2    0  502  0.17607732446E+01 -0.20557038271E+02  0.66607264023E+03  0.66639211745E+03  0.00000000000E+00 0.  1.
<mgrwt>
<rscale>  2 0.20632319E+02</rscale>
<asrwt>0</asrwt>
<pdfrwt beam="1">  1        2 0.14102880E+00 0.20632319E+02</pdfrwt>
<pdfrwt beam="2">  1       -2 0.89946126E-04 0.20632319E+02</pdfrwt>
<totfact> 0.11047601E+06</totfact>
</mgrwt>
</event>
<event>
 4    1  0.1474645E+004  0.2719773E+02  0.7546771E-02  0.1631304E+00
         -2   -1    0    0    0  501 -0.00000000000E+00  0.00000000000E+00  0.40093826267E+01  0.40093826267E+01  0.00000000000E+00 0.  1.
          2   -1    0    0  501    0  0.00000000000E+00 -0.00000000000E+00 -0.19103287031E+03  0.19103287031E+03  0.00000000000E+00 0.  1.
          2    1    1    2  502    0  0.25495049358E+02 -0.94719844659E+01 -0.75472367470E+02  0.80223402340E+02  0.00000000000E+00 0.  1.
         -2    1    1    2    0  502 -0.25495049358E+02  0.94719844659E+01 -0.11155112021E+03  0.11481885059E+03  0.00000000000E+00 0.  1.
<mgrwt>
<rscale>  2 0.27197735E+02</rscale>
<asrwt>0</asrwt>
<pdfrwt beam="2">  1        2 0.29389672E-01 0.27197735E+02</pdfrwt>
<pdfrwt beam="1">  1       -2 0.61682811E-03 0.27197735E+02</pdfrwt>
<totfact> 0.46726303E+05</totfact>
</mgrwt>
</event>
<event>
 4    1  0.1474645E+004  0.2851210E+02  0.7546771E-02  0.1615143E+00
          2   -1    0    0  501    0  0.00000000000E+00  0.00000000000E+00  0.98734856131E+03  0.98734856131E+03  0.00000000000E+00 0. -1.
         -2   -1    0    0    0  501 -0.00000000000E+00 -0.00000000000E+00 -0.11148943177E+02  0.11148943177E+02  0.00000000000E+00 0. -1.
          2    1    1    2  502    0 -0.16707684113E+02  0.23103968546E+02  0.96856010105E+03  0.96897967441E+03  0.00000000000E+00 0. -1.
         -2    1    1    2    0  502  0.16707684113E+02 -0.23103968546E+02  0.76395170762E+01  0.29517830072E+02  0.00000000000E+00 0. -1.
<mgrwt>
<rscale>  2 0.28512104E+02</rscale>
<asrwt>0</asrwt>
<pdfrwt beam="1">  1        2 0.15189971E+00 0.28512104E+02</pdfrwt>
<pdfrwt beam="2">  1       -2 0.17152228E-02 0.28512104E+02</pdfrwt>
<totfact> 0.20919303E+04</totfact>
</mgrwt>
</event>
<event>
 4    1  0.1474645E+004  0.2215911E+02  0.7546771E-02  0.1705515E+00
          2   -1    0    0  501    0  0.00000000000E+00  0.00000000000E+00  0.65703931834E+03  0.65703931834E+03  0.00000000000E+00 0.  1.
         -2   -1    0    0    0  501 -0.00000000000E+00 -0.00000000000E+00 -0.84827944691E+00  0.84827944691E+00  0.00000000000E+00 0.  1.
          2    1    1    2  502    0  0.86772816893E+01  0.20389469915E+02  0.21461990502E+03  0.21576081510E+03  0.00000000000E+00 0.  1.
         -2    1    1    2    0  502 -0.86772816893E+01 -0.20389469915E+02  0.44157113387E+03  0.44212678269E+03  0.00000000000E+00 0.  1.
<mgrwt>
<rscale>  2 0.22159111E+02</rscale>
<asrwt>0</asrwt>
<pdfrwt beam="1">  1        2 0.10108257E+00 0.22159111E+02</pdfrwt>
<pdfrwt beam="2">  1       -2 0.13050506E-03 0.22159111E+02</pdfrwt>
<totfact> 0.10064583E+06</totfact>
</mgrwt>
</event>
<event>
 4    1  0.1474645E+004  0.2412543E+02  0.7546771E-02  0.1673891E+00
         -2   -1    0    0    0  501 -0.00000000000E+00  0.00000000000E+00  0.24413895586E+01  0.24413895586E+01  0.00000000000E+00 0. -1.
          2   -1    0    0  501    0  0.00000000000E+00 -0.00000000000E+00 -0.61394581439E+03  0.61394581439E+03  0.00000000000E+00 0. -1.
          2    1    1    2  502    0  0.13779687953E+02 -0.19802946008E+02 -0.54679152563E+03  0.54732349572E+03  0.00000000000E+00 0. -1.
         -2    1    1    2    0  502 -0.13779687953E+02  0.19802946008E+02 -0.64712899202E+02  0.69063708225E+02  0.00000000000E+00 0. -1.
<mgrwt>
<rscale>  2 0.24125432E+02</rscale>
<asrwt>0</asrwt>
<pdfrwt beam="2">  1        2 0.94453132E-01 0.24125432E+02</pdfrwt>
<pdfrwt beam="1">  1       -2 0.37559867E-03 0.24125432E+02</pdfrwt>
<totfact> 0.27250311E+05</totfact>
</mgrwt>
</event>
<event>
 4    1  0.1474645E+004  0.3515240E+02  0.7546771E-02  0.1547251E+00
         -2   -1    0    0    0  501 -0.00000000000E+00  0.00000000000E+00  0.38939212129E+02  0.38939212129E+02  0.00000000000E+00 0.  1.
          2   -1    0    0  501    0  0.00000000000E+00 -0.00000000000E+00 -0.40901003570E+03  0.40901003570E+03  0.00000000000E+00 0. -1.
          2    1    1    2  502    0 -0.13135275434E+02 -0.32606064527E+02 -0.40014587397E+03  0.40168695692E+03  0.00000000000E+00 0. -1.
         -2    1    1    2    0  502  0.13135275434E+02  0.32606064527E+02  0.30075050392E+02  0.46262290915E+02  0.00000000000E+00 0.  1.
<mgrwt>
<rscale>  2 0.35152395E+02</rscale>
<asrwt>0</asrwt>
<pdfrwt beam="2">  1        2 0.62924624E-01 0.35152395E+02</pdfrwt>
<pdfrwt beam="1">  1       -2 0.59906477E-02 0.35152395E+02</pdfrwt>
<totfact> 0.96539187E+03</totfact>
</mgrwt>
</event>
<event>
 4    1  0.1474645E+004  0.2498364E+02  0.7546771E-02  0.1661237E+00
          2   -1    0    0  501    0  0.00000000000E+00  0.00000000000E+00  0.20575558259E+02  0.20575558259E+02  0.00000000000E+00 0. -1.
         -2   -1    0    0    0  501 -0.00000000000E+00 -0.00000000000E+00 -0.31574972673E+02  0.31574972673E+02  0.00000000000E+00 0. -1.
          2    1    1    2  502    0 -0.57386346788E+01 -0.24315628516E+02 -0.10664758374E+02  0.27164660669E+02  0.00000000000E+00 0. -1.
         -2    1    1    2    0  502  0.57386346788E+01  0.24315628516E+02 -0.33465604079E+00  0.24985870263E+02  0.00000000000E+00 0. -1.
<mgrwt>
<rscale>  2 0.24983641E+02</rscale>
<asrwt>0</asrwt>
<pdfrwt beam="1">  1        2 0.31654705E-02 0.24983641E+02</pdfrwt>
<pdfrwt beam="2">  1       -2 0.48576881E-02 0.24983641E+02</pdfrwt>
<totfact> 0.34679718E+05</totfact>
</mgrwt>
</event>
<event>
 4    1  0.1474645E+004  0.3477029E+02  0.7546771E-02  0.1550650E+00
         -2   -1    0    0    0  501 -0.00000000000E+00  0.00000000000E+00  0.33412416728E+01  0.33412416728E+01  0.00000000000E+00 0.  1.
          2   -1    0    0  501    0  0.00000000000E+00 -0.00000000000E+00 -0.87128179722E+03  0.87128179722E+03  0.00000000000E+00 0.  1.
          2    1    1    2  502    0 -0.28480466754E+02 -0.19945829511E+02 -0.76836673153E+03  0.76915304538E+03  0.00000000000E+00 0.  1.
         -2    1    1    2    0  502  0.28480466754E+02  0.19945829511E+02 -0.99573824022E+02  0.10546999351E+03  0.00000000000E+00 0.  1.
<mgrwt>
<rscale>  2 0.34770290E+02</rscale>
<asrwt>0</asrwt>
<pdfrwt beam="2">  1        2 0.13404340E+00 0.34770290E+02</pdfrwt>
<pdfrwt beam="1">  1       -2 0.51403699E-03 0.34770290E+02</pdfrwt>
<totfact> 0.13105142E+05</totfact>
</mgrwt>
</event>
<event>
 4    1  0.1474645E+004  0.2722243E+02  0.7546771E-02  0.1630990E+00
         -2   -1    0    0    0  501 -0.00000000000E+00  0.00000000000E+00  0.37216240072E+03  0.37216240072E+03  0.00000000000E+00 0.  1.
          2   -1    0    0  501    0  0.00000000000E+00 -0.00000000000E+00 -0.55236735458E+03  0.55236735458E+03  0.00000000000E+00 0.  1.
          2    1    1    2  502    0 -0.10492436358E+02  0.25119101889E+02 -0.55153339309E+03  0.55220480276E+03  0.00000000000E+00 0.  1.
         -2    1    1    2    0  502  0.10492436358E+02 -0.25119101889E+02  0.37132843923E+03  0.37232495253E+03  0.00000000000E+00 0.  1.
<mgrwt>
<rscale>  2 0.27222426E+02</rscale>
<asrwt>0</asrwt>
<pdfrwt beam="2">  1        2 0.84979593E-01 0.27222426E+02</pdfrwt>
<pdfrwt beam="1">  1       -2 0.57255754E-01 0.27222426E+02</pdfrwt>
<totfact> 0.17127654E+02</totfact>
</mgrwt>
</event>
<event>
 4    1  0.1548609E+004  0.2484604E+02  0.7546771E-02  0.1663223E+00
         -2   -1    0    0    0  501 -0.00000000000E+00  0.00000000000E+00  0.20152690184E+03  0.20152690184E+03  0.00000000000E+00 0. -1.
          2   -1    0    0  501    0  0.00000000000E+00 -0.00000000000E+00 -0.12146340818E+04  0.12146340818E+04  0.00000000000E+00 0.  1.
          2    1    1    2  502    0 -0.16439599421E+02  0.18629691174E+02 -0.12137406474E+04  0.12139949279E+04  0.00000000000E+00 0.  1.
         -2    1    1    2    0  502  0.16439599421E+02 -0.18629691174E+02  0.20063346745E+03  0.20216605572E+03  0.00000000000E+00 0. -1.
<mgrwt>
<rscale>  2 0.24846042E+02</rscale>
<asrwt>0</asrwt>
<pdfrwt beam="2">  1        2 0.18686678E+00 0.24846042E+02</pdfrwt>
<pdfrwt beam="1">  1       -2 0.31004139E-01 0.24846042E+02</pdfrwt>
<totfact> 0.21048825E+02</totfact>
</mgrwt>
</event>
<event>
 4    1  0.1474645E+004  0.1104530E+03  0.7546771E-02  0.1259733E+00
          2   -1    0    0  501    0  0.00000000000E+00  0.00000000000E+00  0.16511286905E+04  0.16511286905E+04  0.00000000000E+00 0. -1.
         -2   -1    0    0    0  501 -0.00000000000E+00 -0.00000000000E+00 -0.64564072029E+03  0.64564072029E+03  0.00000000000E+00 0.  1.
          2    1    1    2  502    0 -0.86005566360E+02 -0.69302978244E+02  0.16445386465E+04  0.16482436774E+04  0.00000000000E+00 0. -1.
         -2    1    1    2    0  502  0.86005566360E+02  0.69302978244E+02 -0.63905067620E+03  0.64852573348E+03  0.00000000000E+00 0.  1.
<mgrwt>
<rscale>  2 0.11045298E+03</rscale>
<asrwt>0</asrwt>
<pdfrwt beam="1">  1        2 0.25401980E+00 0.11045298E+03</pdfrwt>
<pdfrwt beam="2">  1       -2 0.99329342E-01 0.11045298E+03</pdfrwt>
<totfact> 0.11144927E+01</totfact>
</mgrwt>
</event>
<event>
 4    1  0.1474645E+004  0.4075933E+02  0.7546771E-02  0.1502697E+00
         -2   -1    0    0    0  501 -0.00000000000E+00  0.00000000000E+00  0.13487680273E+03  0.13487680273E+03  0.00000000000E+00 0. -1.
          2   -1    0    0  501    0  0.00000000000E+00 -0.00000000000E+00 -0.16806407811E+02  0.16806407811E+02  0.00000000000E+00 0. -1.
          2    1    1    2  502    0 -0.34730475971E+01 -0.40611095025E+02  0.19838608712E+02  0.45330933085E+02  0.00000000000E+00 0. -1.
         -2    1    1    2    0  502  0.34730475971E+01  0.40611095025E+02  0.98231786205E+02  0.10635227745E+03  0.00000000000E+00 0. -1.
<mgrwt>
<rscale>  2 0.40759331E+02</rscale>
<asrwt>0</asrwt>
<pdfrwt beam="2">  1        2 0.25856013E-02 0.40759331E+02</pdfrwt>
<pdfrwt beam="1">  1       -2 0.20750277E-01 0.40759331E+02</pdfrwt>
<totfact> 0.56035916E+04</totfact>
</mgrwt>
</event>
<event>
 4    1  0.1474645E+004  0.3744412E+02  0.7546771E-02  0.1527909E+00
          2   -1    0    0  501    0  0.00000000000E+00  0.00000000000E+00  0.45278540873E+02  0.45278540873E+02  0.00000000000E+00 0.  1.
         -2   -1    0    0    0  501 -0.00000000000E+00 -0.00000000000E+00 -0.73828217464E+02  0.73828217464E+02  0.00000000000E+00 0.  1.
          2    1    1    2  502    0 -0.34869631593E+01  0.37281402603E+02  0.31102213213E+02  0.48676581216E+02  0.00000000000E+00 0.  1.
         -2    1    1    2    0  502  0.34869631593E+01 -0.37281402603E+02 -0.59651889804E+02  0.70430177121E+02  0.00000000000E+00 0.  1.
<mgrwt>
<rscale>  2 0.37444117E+02</rscale>
<asrwt>0</asrwt>
<pdfrwt beam="1">  1        2 0.69659294E-02 0.37444117E+02</pdfrwt>
<pdfrwt beam="2">  1       -2 0.11358187E-01 0.37444117E+02</pdfrwt>
<totfact> 0.41023402E+04</totfact>
</mgrwt>
</event>
<event>
 4    1  0.1474645E+004  0.3031357E+02  0.7546771E-02  0.1594648E+00
          2   -1    0    0  501    0  0.00000000000E+00  0.00000000000E+00  0.44274664137E+01  0.44274664137E+01  0.00000000000E+00 0. -1.
         -2   -1    0    0    0  501 -0.00000000000E+00 -0.00000000000E+00 -0.44751037372E+03  0.44751037372E+03  0.00000000000E+00 0.  1.
          2    1    1    2  502    0  0.24548194954E+02  0.17784782089E+02 -0.56071700616E+02  0.63741257906E+02  0.00000000000E+00 0. -1.
         -2    1    1    2    0  502 -0.24548194954E+02 -0.17784782089E+02 -0.38701120669E+03  0.38819658223E+03  0.00000000000E+00 0.  1.
<mgrwt>
<rscale>  2 0.30313567E+02</rscale>
<asrwt>0</asrwt>
<pdfrwt beam="1">  1        2 0.68114848E-03 0.30313567E+02</pdfrwt>
<pdfrwt beam="2">  1       -2 0.68847770E-01 0.30313567E+02</pdfrwt>
<totfact> 0.34059119E+04</totfact>
</mgrwt>
</event>
<event>
 4    1  0.1474645E+004  0.2040257E+02  0.7546771E-02  0.1737439E+00
         -2   -1    0    0    0  501 -0.00000000000E+00  0.00000000000E+00  0.56561504081E+02  0.56561504081E+02  0.00000000000E+00 0.  1.
          2   -1    0    0  501    0  0.00000000000E+00 -0.00000000000E+00 -0.41564517208E+03  0.41564517208E+03  0.00000000000E+00 0. -1.
          2    1    1    2  502    0 -0.17657110455E+01  0.20326018254E+02 -0.41354558737E+03  0.41404856911E+03  0.00000000000E+00 0. -1.
         -2    1    1    2    0  502  0.17657110455E+01 -0.20326018254E+02  0.54461919371E+02  0.58158107045E+02  0.00000000000E+00 0.  1.
<mgrwt>
<rscale>  2 0.20402567E+02</rscale>
<asrwt>0</asrwt>
<pdfrwt beam="2">  1        2 0.63945411E-01 0.20402567E+02</pdfrwt>
<pdfrwt beam="1">  1       -2 0.87017699E-02 0.20402567E+02</pdfrwt>
<totfact> 0.51592073E+03</totfact>
</mgrwt>
</event>
<event>
 4    1  0.1474645E+004  0.3463462E+02  0.7546771E-02  0.1551869E+00
          2   -1    0    0  501    0  0.00000000000E+00  0.00000000000E+00  0.10575188006E+03  0.10575188006E+03  0.00000000000E+00 0.  1.
         -2   -1    0    0    0  501 -0.00000000000E+00 -0.00000000000E+00 -0.15429957235E+02  0.15429957235E+02  0.00000000000E+00 0.  1.
          2    1    1    2  502    0  0.23182045427E+02  0.25732266190E+02  0.76344012173E+02  0.83832958603E+02  0.00000000000E+00 0.  1.
         -2    1    1    2    0  502 -0.23182045427E+02 -0.25732266190E+02  0.13977910652E+02  0.37348878693E+02  0.00000000000E+00 0.  1.
<mgrwt>
<rscale>  2 0.34634618E+02</rscale>
<asrwt>0</asrwt>
<pdfrwt beam="1">  1        2 0.16269520E-01 0.34634618E+02</pdfrwt>
<pdfrwt beam="2">  1       -2 0.23738396E-02 0.34634618E+02</pdfrwt>
<totfact> 0.14637986E+05</totfact>
</mgrwt>
</event>
<event>
 4    1  0.1474645E+004  0.2018688E+02  0.7546771E-02  0.1741637E+00
          2   -1    0    0  501    0  0.00000000000E+00  0.00000000000E+00  0.77601986563E+03  0.77601986563E+03  0.00000000000E+00 0. -1.
         -2   -1    0    0    0  501 -0.00000000000E+00 -0.00000000000E+00 -0.13072914819E+01  0.13072914819E+01  0.00000000000E+00 0. -1.
          2    1    1    2  502    0  0.16742763231E+02  0.11277856141E+02  0.68798901254E+03  0.68828510919E+03  0.00000000000E+00 0. -1.
         -2    1    1    2    0  502 -0.16742763231E+02 -0.11277856141E+02  0.86723561607E+02  0.89042047919E+02  0.00000000000E+00 0. -1.
<mgrwt>
<rscale>  2 0.20186881E+02</rscale>
<asrwt>0</asrwt>
<pdfrwt beam="1">  1        2 0.11938730E+00 0.20186881E+02</pdfrwt>
<pdfrwt beam="2">  1       -2 0.20112239E-03 0.20186881E+02</pdfrwt>
<totfact> 0.46181347E+05</totfact>
</mgrwt>
</event>
<event>
 4    1  0.1474645E+004  0.2049605E+02  0.7546771E-02  0.1735640E+00
         -2   -1    0    0    0  501 -0.00000000000E+00  0.00000000000E+00  0.15331513725E+03  0.15331513725E+03  0.00000000000E+00 0. -1.
          2   -1    0    0  501    0  0.00000000000E+00 -0.00000000000E+00 -0.56132913479E+01  0.56132913479E+01  0.00000000000E+00 0. -1.
          2    1    1    2  502    0 -0.12667631049E+02 -0.16112707970E+02  0.16998328476E+02  0.26627643634E+02  0.00000000000E+00 0. -1.
         -2    1    1    2    0  502  0.12667631049E+02  0.16112707970E+02  0.13070351743E+03  0.13230078497E+03  0.00000000000E+00 0. -1.
<mgrwt>
<rscale>  2 0.20496054E+02</rscale>
<asrwt>0</asrwt>
<pdfrwt beam="2">  1        2 0.86358340E-03 0.20496054E+02</pdfrwt>
<pdfrwt beam="1">  1       -2 0.23586941E-01 0.20496054E+02</pdfrwt>
<totfact> 0.15968015E+05</totfact>
</mgrwt>
</event>
<event>
 4    1  0.1474645E+004  0.2064673E+02  0.7546771E-02  0.1732765E+00
          2   -1    0    0  501    0  0.00000000000E+00  0.00000000000E+00  0.14748913851E+03  0.14748913851E+03  0.00000000000E+00 0. -1.
         -2   -1    0    0    0  501 -0.00000000000E+00 -0.00000000000E+00 -0.78036061408E+01  0.78036061408E+01  0.00000000000E+00 0.  1.
          2    1    1    2  502    0  0.89763477551E+01 -0.18593351037E+02  0.13145408601E+03  0.13306563888E+03  0.00000000000E+00 0. -1.
         -2    1    1    2    0  502 -0.89763477551E+01  0.18593351037E+02  0.82314463594E+01  0.22227105771E+02  0.00000000000E+00 0.  1.
<mgrwt>
<rscale>  2 0.20646732E+02</rscale>
<asrwt>0</asrwt>
<pdfrwt beam="1">  1        2 0.22690635E-01 0.20646732E+02</pdfrwt>
<pdfrwt beam="2">  1       -2 0.12005549E-02 0.20646732E+02</pdfrwt>
<totfact> 0.22934210E+05</totfact>
</mgrwt>
</event>
<event>
 4    1  0.1474645E+004  0.2156170E+02  0.7546771E-02  0.1715944E+00
         -2   -1    0    0    0  501 -0.00000000000E+00  0.00000000000E+00  0.86403606748E+02  0.86403606748E+02  0.00000000000E+00 0. -1.
          2   -1    0    0  501    0  0.00000000000E+00 -0.00000000000E+00 -0.21423495544E+02  0.21423495544E+02  0.00000000000E+00 0. -1.
          2    1    1    2  502    0  0.20937490489E+02  0.51505588418E+01 -0.14164450764E+02  0.25798031510E+02  0.00000000000E+00 0. -1.
         -2    1    1    2    0  502 -0.20937490489E+02 -0.51505588418E+01  0.79144561968E+02  0.82029070782E+02  0.00000000000E+00 0. -1.
<mgrwt>
<rscale>  2 0.21561697E+02</rscale>
<asrwt>0</asrwt>
<pdfrwt beam="2">  1        2 0.32959225E-02 0.21561697E+02</pdfrwt>
<pdfrwt beam="1">  1       -2 0.13292862E-01 0.21561697E+02</pdfrwt>
<totfact> 0.72240308E+04</totfact>
</mgrwt>
</event>
<event>
 4    1  0.1474645E+004  0.2492710E+02  0.7546771E-02  0.1662051E+00
          2   -1    0    0  501    0  0.00000000000E+00  0.00000000000E+00  0.17522843922E+03  0.17522843922E+03  0.00000000000E+00 0. -1.
         -2   -1    0    0    0  501 -0.00000000000E+00 -0.00000000000E+00 -0.72501203289E+01  0.72501203289E+01  0.00000000000E+00 0.  1.
          2    1    1    2  502    0  0.15045116753E+02 -0.19874724246E+02  0.14920479514E+03  0.15127270439E+03  0.00000000000E+00 0. -1.
         -2    1    1    2    0  502 -0.15045116753E+02  0.19874724246E+02  0.18773523754E+02  0.31205855158E+02  0.00000000000E+00 0.  1.
<mgrwt>
<rscale>  2 0.24927098E+02</rscale>
<asrwt>0</asrwt>
<pdfrwt beam="1">  1        2 0.26958218E-01 0.24927098E+02</pdfrwt>
<pdfrwt beam="2">  1       -2 0.11154033E-02 0.24927098E+02</pdfrwt>
<totfact> 0.22334551E+05</totfact>
</mgrwt>
</event>
<event>
 4    1  0.1474645E+004  0.8554631E+02  0.7546771E-02  0.1314010E+00
         -2   -1    0    0    0  501 -0.00000000000E+00  0.00000000000E+00  0.16726086028E+02  0.16726086028E+02  0.00000000000E+00 0.  1.
          2   -1    0    0  501    0  0.00000000000E+00 -0.00000000000E+00 -0.50386294559E+03  0.50386294559E+03  0.00000000000E+00 0.  1.
          2    1    1    2  502    0  0.60526163602E+02 -0.60454573945E+02 -0.33801190667E+03  0.34866921436E+03  0.00000000000E+00 0.  1.
         -2    1    1    2    0  502 -0.60526163602E+02  0.60454573945E+02 -0.14912495289E+03  0.17191981726E+03  0.00000000000E+00 0.  1.
<mgrwt>
<rscale>  2 0.85546315E+02</rscale>
<asrwt>0</asrwt>
<pdfrwt beam="2">  1        2 0.77517379E-01 0.85546315E+02</pdfrwt>
<pdfrwt beam="1">  1       -2 0.25732439E-02 0.85546315E+02</pdfrwt>
<totfact> 0.29242489E+04</totfact>
</mgrwt>
</event>
<event>
 4    1  0.1474645E+004  0.4306514E+02  0.7546771E-02  0.1486795E+00
         -2   -1    0    0    0  501 -0.00000000000E+00  0.00000000000E+00  0.35535853179E+02  0.35535853179E+02  0.00000000000E+00 0.  1.
          2   -1    0    0  501    0  0.00000000000E+00 -0.00000000000E+00 -0.35383725733E+03  0.35383725733E+03  0.00000000000E+00 0.  1.
          2    1    1    2  502    0  0.23671922990E+01  0.43000029748E+02 -0.33890698305E+03  0.34163218425E+03  0.00000000000E+00 0.  1.
         -2    1    1    2    0  502 -0.23671922990E+01 -0.43000029748E+02  0.20605578901E+02  0.47740926254E+02  0.00000000000E+00 0.  1.
<mgrwt>
<rscale>  2 0.43065139E+02</rscale>
<asrwt>0</asrwt>
<pdfrwt beam="2">  1        2 0.54436502E-01 0.43065139E+02</pdfrwt>
<pdfrwt beam="1">  1       -2 0.54670543E-02 0.43065139E+02</pdfrwt>
<totfact> 0.13088620E+04</totfact>
</mgrwt>
</event>
<event>
 4    1  0.1474645E+004  0.2494462E+02  0.7546771E-02  0.1661799E+00
          2   -1    0    0  501    0  0.00000000000E+00  0.00000000000E+00  0.10237567174E+03  0.10237567174E+03  0.00000000000E+00 0.  1.
         -2   -1    0    0    0  501 -0.00000000000E+00 -0.00000000000E+00 -0.33414973789E+02  0.33414973789E+02  0.00000000000E+00 0.  1.
          2    1    1    2  502    0  0.60998711578E+01 -0.24187300660E+02  0.95891173916E+02  0.99082547285E+02  0.00000000000E+00 0.  1.
         -2    1    1    2    0  502 -0.60998711578E+01  0.24187300660E+02 -0.26930475962E+02  0.36708098247E+02  0.00000000000E+00 0.  1.
<mgrwt>
<rscale>  2 0.24944617E+02</rscale>
<asrwt>0</asrwt>
<pdfrwt beam="1">  1        2 0.15750103E-01 0.24944617E+02</pdfrwt>
<pdfrwt beam="2">  1       -2 0.51407652E-02 0.24944617E+02</pdfrwt>
<totfact> 0.47459807E+04</totfact>
</mgrwt>
</event>
<event>
 4    1  0.1474645E+004  0.2075109E+02  0.7546771E-02  0.1730791E+00
          2   -1    0    0  501    0  0.00000000000E+00  0.00000000000E+00  0.74365091676E+02  0.74365091676E+02  0.00000000000E+00 0. -1.
         -2   -1    0    0    0  501 -0.00000000000E+00 -0.00000000000E+00 -0.70482160416E+03  0.70482160416E+03  0.00000000000E+00 0. -1.
          2    1    1    2  502    0  0.18574241590E+02  0.92523186900E+01  0.72761440515E+02  0.75662639906E+02  0.00000000000E+00 0. -1.
         -2    1    1    2    0  502 -0.18574241590E+02 -0.92523186900E+01 -0.70321795300E+03  0.70352405593E+03  0.00000000000E+00 0. -1.
<mgrwt>
<rscale>  2 0.20751093E+02</rscale>
<asrwt>0</asrwt>
<pdfrwt beam="1">  1        2 0.11440783E-01 0.20751093E+02</pdfrwt>
<pdfrwt beam="2">  1       -2 0.10843410E+00 0.20751093E+02</pdfrwt>
<totfact> 0.35095340E+02</totfact>
</mgrwt>
</event>
<event>
 4    1  0.1474645E+004  0.2280122E+02  0.7546771E-02  0.1694753E+00
          2   -1    0    0  501    0  0.00000000000E+00  0.00000000000E+00  0.18067116926E+03  0.18067116926E+03  0.00000000000E+00 0. -1.
         -2   -1    0    0    0  501 -0.00000000000E+00 -0.00000000000E+00 -0.10478704409E+03  0.10478704409E+03  0.00000000000E+00 0. -1.
          2    1    1    2  502    0  0.22796567176E+02 -0.46040210706E+00  0.17869777044E+03  0.18014657534E+03  0.00000000000E+00 0. -1.
         -2    1    1    2    0  502 -0.22796567176E+02  0.46040210706E+00 -0.10281364528E+03  0.10531163801E+03  0.00000000000E+00 0. -1.
<mgrwt>
<rscale>  2 0.22801216E+02</rscale>
<asrwt>0</asrwt>
<pdfrwt beam="1">  1        2 0.27795565E-01 0.22801216E+02</pdfrwt>
<pdfrwt beam="2">  1       -2 0.16121084E-01 0.22801216E+02</pdfrwt>
<totfact> 0.47000939E+03</totfact>
</mgrwt>
</event>
<event>
 4    1  0.1474645E+004  0.2307969E+02  0.7546771E-02  0.1690222E+00
         -2   -1    0    0    0  501 -0.00000000000E+00  0.00000000000E+00  0.13621566572E+03  0.13621566572E+03  0.00000000000E+00 0.  1.
          2   -1    0    0  501    0  0.00000000000E+00 -0.00000000000E+00 -0.12880724864E+03  0.12880724864E+03  0.00000000000E+00 0. -1.
          2    1    1    2  502    0 -0.16756439463E+02  0.15871158338E+02 -0.12678026482E+03  0.12886391069E+03  0.00000000000E+00 0. -1.
         -2    1    1    2    0  502  0.16756439463E+02 -0.15871158338E+02  0.13418868190E+03  0.13615900367E+03  0.00000000000E+00 0.  1.
<mgrwt>
<rscale>  2 0.23079687E+02</rscale>
<asrwt>0</asrwt>
<pdfrwt beam="2">  1        2 0.19816500E-01 0.23079687E+02</pdfrwt>
<pdfrwt beam="1">  1       -2 0.20956256E-01 0.23079687E+02</pdfrwt>
<totfact> 0.44070360E+03</totfact>
</mgrwt>
</event>
<event>
 4    1  0.1474645E+004  0.2474160E+02  0.7546771E-02  0.1664741E+00
          2   -1    0    0  501    0  0.00000000000E+00  0.00000000000E+00  0.84707834834E+01  0.84707834834E+01  0.00000000000E+00 0.  1.
         -2   -1    0    0    0  501 -0.00000000000E+00 -0.00000000000E+00 -0.79044854560E+02  0.79044854560E+02  0.00000000000E+00 0. -1.
          2    1    1    2  502    0 -0.12357174827E+02  0.21434716757E+02 -0.22472361528E+02  0.33423852034E+02  0.00000000000E+00 0.  1.
         -2    1    1    2    0  502  0.12357174827E+02 -0.21434716757E+02 -0.48101709549E+02  0.54091786009E+02  0.00000000000E+00 0. -1.
<mgrwt>
<rscale>  2 0.24741602E+02</rscale>
<asrwt>0</asrwt>
<pdfrwt beam="1">  1        2 0.13031975E-02 0.24741602E+02</pdfrwt>
<pdfrwt beam="2">  1       -2 0.12160747E-01 0.24741602E+02</pdfrwt>
<totfact> 0.28135581E+05</totfact>
</mgrwt>
</event>
<event>
 4    1  0.1474645E+004  0.2859631E+02  0.7546771E-02  0.1614144E+00
          2   -1    0    0  501    0  0.00000000000E+00  0.00000000000E+00  0.94054486575E+02  0.94054486575E+02  0.00000000000E+00 0. -1.
         -2   -1    0    0    0  501 -0.00000000000E+00 -0.00000000000E+00 -0.41008052092E+03  0.41008052092E+03  0.00000000000E+00 0.  1.
          2    1    1    2  502    0  0.28582892758E+02  0.87575461773E+00  0.91368037942E+02  0.95738534885E+02  0.00000000000E+00 0. -1.
         -2    1    1    2    0  502 -0.28582892758E+02 -0.87575461773E+00 -0.40739407229E+03  0.40839647261E+03  0.00000000000E+00 0.  1.
<mgrwt>
<rscale>  2 0.28596306E+02</rscale>
<asrwt>0</asrwt>
<pdfrwt beam="1">  1        2 0.14469921E-01 0.28596306E+02</pdfrwt>
<pdfrwt beam="2">  1       -2 0.63089312E-01 0.28596306E+02</pdfrwt>
<totfact> 0.87587480E+02</totfact>
</mgrwt>
</event>
<event>
 4    1  0.1474645E+004  0.5440491E+02  0.7546771E-02  0.1422934E+00
         -2   -1    0    0    0  501 -0.00000000000E+00  0.00000000000E+00  0.15328062936E+03  0.15328062936E+03  0.00000000000E+00 0.  1.
          2   -1    0    0  501    0  0.00000000000E+00 -0.00000000000E+00 -0.10171002910E+03  0.10171002910E+03  0.00000000000E+00 0. -1.
          2    1    1    2  502    0  0.54402441357E+02 -0.51799662841E+00 -0.88970671505E+02  0.10428650121E+03  0.00000000000E+00 0. -1.
         -2    1    1    2    0  502 -0.54402441357E+02  0.51799662841E+00  0.14054127176E+03  0.15070415725E+03  0.00000000000E+00 0.  1.
<mgrwt>
<rscale>  2 0.54404907E+02</rscale>
<asrwt>0</asrwt>
<pdfrwt beam="2">  1        2 0.15647697E-01 0.54404907E+02</pdfrwt>
<pdfrwt beam="1">  1       -2 0.23581635E-01 0.54404907E+02</pdfrwt>
<totfact> 0.51579504E+03</totfact>
</mgrwt>
</event>
<event>
 4    1  0.1474645E+004  0.2289940E+02  0.7546771E-02  0.1693146E+00
         -2   -1    0    0    0  501 -0.00000000000E+00  0.00000000000E+00  0.14893524474E+01  0.14893524474E+01  0.00000000000E+00 0. -1.
          2   -1    0    0  501    0  0.00000000000E+00 -0.00000000000E+00 -0.36334996331E+03  0.36334996331E+03  0.00000000000E+00 0.  1.
          2    1    1    2  502    0  0.13405885340E+02 -0.18565153562E+02 -0.21304632953E+03  0.21427347296E+03  0.00000000000E+00 0. -1.
         -2    1    1    2    0  502 -0.13405885340E+02  0.18565153562E+02 -0.14881428133E+03  0.15056584280E+03  0.00000000000E+00 0.  1.
<mgrwt>
<rscale>  2 0.22899404E+02</rscale>
<asrwt>0</asrwt>
<pdfrwt beam="2">  1        2 0.55900043E-01 0.22899404E+02</pdfrwt>
<pdfrwt beam="1">  1       -2 0.22913095E-03 0.22899404E+02</pdfrwt>
<totfact> 0.88009240E+05</totfact>
</mgrwt>
</event>
<event>
 4    1  0.1474645E+004  0.2103235E+02  0.7546771E-02  0.1725545E+00
          2   -1    0    0  501    0  0.00000000000E+00  0.00000000000E+00  0.51410680442E+03  0.51410680442E+03  0.00000000000E+00 0. -1.
         -2   -1    0    0    0  501 -0.00000000000E+00 -0.00000000000E+00 -0.19861632165E+02  0.19861632165E+02  0.00000000000E+00 0. -1.
          2    1    1    2  502    0  0.14543279555E+02  0.15193835699E+02  0.50825964807E+03  0.50869463284E+03  0.00000000000E+00 0. -1.
         -2    1    1    2    0  502 -0.14543279555E+02 -0.15193835699E+02 -0.14014475815E+02  0.25273803747E+02  0.00000000000E+00 0. -1.
<mgrwt>
<rscale>  2 0.21032347E+02</rscale>
<asrwt>0</asrwt>
<pdfrwt beam="1">  1        2 0.79093344E-01 0.21032347E+02</pdfrwt>
<pdfrwt beam="2">  1       -2 0.30556361E-02 0.21032347E+02</pdfrwt>
<totfact> 0.18528102E+04</totfact>
</mgrwt>
</event>
<event>
 4    1  0.1474645E+004  0.2729286E+02  0.7546771E-02  0.1630097E+00
         -2   -1    0    0    0  501 -0.00000000000E+00  0.00000000000E+00  0.10181387591E+03  0.10181387591E+03  0.00000000000E+00 0. -1.
          2   -1    0    0  501    0  0.00000000000E+00 -0.00000000000E+00 -0.29992627009E+03  0.29992627009E+03  0.00000000000E+00 0.  1.
          2    1    1    2  502    0 -0.13084083254E+02  0.23952181940E+02 -0.29746116775E+03  0.29871064021E+03  0.00000000000E+00 0.  1.
         -2    1    1    2    0  502  0.13084083254E+02 -0.23952181940E+02  0.99348773572E+02  0.10302950580E+03  0.00000000000E+00 0. -1.
<mgrwt>
<rscale>  2 0.27292861E+02</rscale>
<asrwt>0</asrwt>
<pdfrwt beam="2">  1        2 0.46142503E-01 0.27292861E+02</pdfrwt>
<pdfrwt beam="1">  1       -2 0.15663673E-01 0.27292861E+02</pdfrwt>
<totfact> 0.30163948E+03</totfact>
</mgrwt>
</event>
<event>
 4    1  0.1474645E+004  0.3051410E+02  0.7546771E-02  0.1592475E+00
          2   -1    0    0  501    0  0.00000000000E+00  0.00000000000E+00  0.42153287264E+01  0.42153287264E+01  0.00000000000E+00 0. -1.
         -2   -1    0    0    0  501 -0.00000000000E+00 -0.00000000000E+00 -0.22663791550E+03  0.22663791550E+03  0.00000000000E+00 0. -1.
          2    1    1    2  502    0  0.23145818101E+02  0.19884171893E+02 -0.12959898728E+03  0.13314280563E+03  0.00000000000E+00 0. -1.
         -2    1    1    2    0  502 -0.23145818101E+02 -0.19884171893E+02 -0.92823599496E+02  0.97710438598E+02  0.00000000000E+00 0. -1.
<mgrwt>
<rscale>  2 0.30514097E+02</rscale>
<asrwt>0</asrwt>
<pdfrwt beam="1">  1        2 0.64851205E-03 0.30514097E+02</pdfrwt>
<pdfrwt beam="2">  1       -2 0.34867375E-01 0.30514097E+02</pdfrwt>
<totfact> 0.13340282E+05</totfact>
</mgrwt>
</event>
<event>
 4    1  0.1474645E+004  0.4825708E+02  0.7546771E-02  0.1454976E+00
         -2   -1    0    0    0  501 -0.00000000000E+00  0.00000000000E+00  0.68943659765E+02  0.68943659765E+02  0.00000000000E+00 0. -1.
          2   -1    0    0  501    0  0.00000000000E+00 -0.00000000000E+00 -0.95245660315E+02  0.95245660315E+02  0.00000000000E+00 0. -1.
          2    1    1    2  502    0 -0.31384269130E+02 -0.36657513167E+02 -0.79101388867E+02  0.92659458994E+02  0.00000000000E+00 0. -1.
         -2    1    1    2    0  502  0.31384269130E+02  0.36657513167E+02  0.52799388317E+02  0.71529861087E+02  0.00000000000E+00 0. -1.
<mgrwt>
<rscale>  2 0.48257078E+02</rscale>
<asrwt>0</asrwt>
<pdfrwt beam="2">  1        2 0.14653179E-01 0.48257078E+02</pdfrwt>
<pdfrwt beam="1">  1       -2 0.10606717E-01 0.48257078E+02</pdfrwt>
<totfact> 0.19769292E+04</totfact>
</mgrwt>
</event>
<event>
 4    1  0.1474645E+004  0.2082635E+02  0.7546771E-02  0.1729377E+00
          2   -1    0    0  501    0  0.00000000000E+00  0.00000000000E+00  0.24208230961E+03  0.24208230961E+03  0.00000000000E+00 0.  1.
         -2   -1    0    0    0  501 -0.00000000000E+00 -0.00000000000E+00 -0.20500801147E+01  0.20500801147E+01  0.00000000000E+00 0.  1.
          2    1    1    2  502    0 -0.20063359807E+02 -0.55855514218E+01  0.16335190930E+03  0.16467417242E+03  0.00000000000E+00 0.  1.
         -2    1    1    2    0  502  0.20063359807E+02  0.55855514218E+01  0.76680320195E+02  0.79458217301E+02  0.00000000000E+00 0.  1.
<mgrwt>
<rscale>  2 0.20826348E+02</rscale>
<asrwt>0</asrwt>
<pdfrwt beam="1">  1        2 0.37243410E-01 0.20826348E+02</pdfrwt>
<pdfrwt beam="2">  1       -2 0.31539713E-03 0.20826348E+02</pdfrwt>
<totfact> 0.83273013E+05</totfact>
</mgrwt>
</event>
<event>
 4    1  0.1474645E+004  0.2121379E+02  0.7546771E-02  0.1722215E+00
         -2   -1    0    0    0  501 -0.00000000000E+00  0.00000000000E+00  0.10647675652E+02  0.10647675652E+02  0.00000000000E+00 0. -1.
          2   -1    0    0  501    0  0.00000000000E+00 -0.00000000000E+00 -0.91856529975E+02  0.91856529975E+02  0.00000000000E+00 0.  1.
          2    1    1    2  502    0 -0.14837206332E+02 -0.15161871915E+02 -0.78262665248E+02  0.81086804250E+02  0.00000000000E+00 0.  1.
         -2    1    1    2    0  502  0.14837206332E+02  0.15161871915E+02 -0.29461890754E+01  0.21417401378E+02  0.00000000000E+00 0. -1.
<mgrwt>
<rscale>  2 0.21213794E+02</rscale>
<asrwt>0</asrwt>
<pdfrwt beam="2">  1        2 0.14131774E-01 0.21213794E+02</pdfrwt>
<pdfrwt beam="1">  1       -2 0.16381039E-02 0.21213794E+02</pdfrwt>
<totfact> 0.25161811E+05</totfact>
</mgrwt>
</event>
<event>
 4    1  0.1474645E+004  0.7617618E+02  0.7546771E-02  0.1340267E+00
          2   -1    0    0  501    0  0.00000000000E+00  0.00000000000E+00  0.18654822284E+03  0.18654822284E+03  0.00000000000E+00 0. -1.
         -2   -1    0    0    0  501 -0.00000000000E+00 -0.00000000000E+00 -0.12441152590E+03  0.12441152590E+03  0.00000000000E+00 0. -1.
          2    1    1    2  502    0 -0.72544006239E+02  0.23241730775E+02  0.16571545738E+03  0.18238537141E+03  0.00000000000E+00 0. -1.
         -2    1    1    2    0  502  0.72544006239E+02 -0.23241730775E+02 -0.10357876044E+03  0.12857437733E+03  0.00000000000E+00 0. -1.
<mgrwt>
<rscale>  2 0.76176183E+02</rscale>
<asrwt>0</asrwt>
<pdfrwt beam="1">  1        2 0.28699727E-01 0.76176183E+02</pdfrwt>
<pdfrwt beam="2">  1       -2 0.19140235E-01 0.76176183E+02</pdfrwt>
<totfact> 0.38663617E+03</totfact>
</mgrwt>
</event>
<event>
 4    1  0.1474645E+004  0.2302464E+02  0.7546771E-02  0.1691111E+00
         -2   -1    0    0    0  501 -0.00000000000E+00  0.00000000000E+00  0.47670701567E+01  0.47670701567E+01  0.00000000000E+00 0.  1.
          2   -1    0    0  501    0  0.00000000000E+00 -0.00000000000E+00 -0.26676474812E+03  0.26676474812E+03  0.00000000000E+00 0.  1.
          2    1    1    2  502    0  0.21460680782E+02  0.83410550459E+01 -0.23467326025E+03  0.23580007017E+03  0.00000000000E+00 0.  1.
         -2    1    1    2    0  502 -0.21460680782E+02 -0.83410550459E+01 -0.27324417713E+02  0.35731748100E+02  0.00000000000E+00 0.  1.
<mgrwt>
<rscale>  2 0.23024639E+02</rscale>
<asrwt>0</asrwt>
<pdfrwt beam="2">  1        2 0.41040735E-01 0.23024639E+02</pdfrwt>
<pdfrwt beam="1">  1       -2 0.73339533E-03 0.23024639E+02</pdfrwt>
<totfact> 0.25251941E+05</totfact>
</mgrwt>
</event>
<event>
 4    1  0.1474645E+004  0.5933184E+02  0.7546771E-02  0.1400657E+00
         -2   -1    0    0    0  501 -0.00000000000E+00  0.00000000000E+00  0.12465984658E+02  0.12465984658E+02  0.00000000000E+00 0. -1.
          2   -1    0    0  501    0  0.00000000000E+00 -0.00000000000E+00 -0.31517305418E+04  0.31517305418E+04  0.00000000000E+00 0.  1.
          2    1    1    2  502    0 -0.45462747868E+02  0.38123557068E+02 -0.30791908738E+04  0.30797624429E+04  0.00000000000E+00 0.  1.
         -2    1    1    2    0  502  0.45462747868E+02 -0.38123557068E+02 -0.60073683373E+02  0.84434083647E+02  0.00000000000E+00 0. -1.
<mgrwt>
<rscale>  2 0.59331838E+02</rscale>
<asrwt>0</asrwt>
<pdfrwt beam="2">  1        2 0.48488187E+00 0.59331838E+02</pdfrwt>
<pdfrwt beam="1">  1       -2 0.19178428E-02 0.59331838E+02</pdfrwt>
<totfact> 0.14720420E+03</totfact>
</mgrwt>
</event>
<event>
 4    1  0.1474645E+004  0.2069443E+02  0.7546771E-02  0.1731861E+00
          2   -1    0    0  501    0  0.00000000000E+00  0.00000000000E+00  0.59727240944E+03  0.59727240944E+03  0.00000000000E+00 0. -1.
         -2   -1    0    0    0  501 -0.00000000000E+00 -0.00000000000E+00 -0.14622568667E+01  0.14622568667E+01  0.00000000000E+00 0. -1.
          2    1    1    2  502    0  0.70048874997E+01  0.19472824343E+02  0.51162166816E+03  0.51204002838E+03  0.00000000000E+00 0. -1.
         -2    1    1    2    0  502 -0.70048874997E+01 -0.19472824343E+02  0.84188484417E+02  0.86694637927E+02  0.00000000000E+00 0. -1.
<mgrwt>
<rscale>  2 0.20694428E+02</rscale>
<asrwt>0</asrwt>
<pdfrwt beam="1">  1        2 0.91887868E-01 0.20694428E+02</pdfrwt>
<pdfrwt beam="2">  1       -2 0.22496307E-03 0.20694428E+02</pdfrwt>
<totfact> 0.53099151E+05</totfact>
</mgrwt>
</event>
<event>
 4    1  0.1474645E+004  0.2250247E+02  0.7546771E-02  0.1699704E+00
         -2   -1    0    0    0  501 -0.00000000000E+00  0.00000000000E+00  0.31338750590E+02  0.31338750590E+02  0.00000000000E+00 0. -1.
          2   -1    0    0  501    0  0.00000000000E+00 -0.00000000000E+00 -0.85344603381E+03  0.85344603381E+03  0.00000000000E+00 0. -1.
          2    1    1    2  502    0  0.20172900617E+02  0.99707270913E+01 -0.84923827607E+03  0.84953635052E+03  0.00000000000E+00 0. -1.
         -2    1    1    2    0  502 -0.20172900617E+02 -0.99707270913E+01  0.27130992847E+02  0.35248433879E+02  0.00000000000E+00 0. -1.
<mgrwt>
<rscale>  2 0.22502474E+02</rscale>
<asrwt>0</asrwt>
<pdfrwt beam="2">  1        2 0.13129936E+00 0.22502474E+02</pdfrwt>
<pdfrwt beam="1">  1       -2 0.48213472E-02 0.22502474E+02</pdfrwt>
<totfact> 0.57383287E+03</totfact>
</mgrwt>
</event>
<event>
 4    1  0.1474645E+004  0.2169863E+02  0.7546771E-02  0.1713517E+00
          2   -1    0    0  501    0  0.00000000000E+00  0.00000000000E+00  0.15365941252E+04  0.15365941252E+04  0.00000000000E+00 0.  1.
         -2   -1    0    0    0  501 -0.00000000000E+00 -0.00000000000E+00 -0.31927906664E+00  0.31927906664E+00  0.00000000000E+00 0. -1.
          2    1    1    2  502    0 -0.13716534179E+02  0.16813310106E+02  0.92240542324E+03  0.92266060691E+03  0.00000000000E+00 0.  1.
         -2    1    1    2    0  502  0.13716534179E+02 -0.16813310106E+02  0.61386942291E+03  0.61425279738E+03  0.00000000000E+00 0. -1.
<mgrwt>
<rscale>  2 0.21698634E+02</rscale>
<asrwt>0</asrwt>
<pdfrwt beam="1">  1        2 0.23639317E+00 0.21698634E+02</pdfrwt>
<pdfrwt beam="2">  1       -2 0.49121087E-04 0.21698634E+02</pdfrwt>
<totfact> 0.12113417E+06</totfact>
</mgrwt>
</event>
<event>
 4    1  0.1665009E+004  0.2421039E+02  0.7546771E-02  0.1672609E+00
          2   -1    0    0  501    0  0.00000000000E+00  0.00000000000E+00  0.11009830434E+04  0.11009830434E+04  0.00000000000E+00 0. -1.
         -2   -1    0    0    0  501 -0.00000000000E+00 -0.00000000000E+00 -0.15475270597E+03  0.15475270597E+03  0.00000000000E+00 0.  1.
          2    1    1    2  502    0 -0.89286735228E+01  0.22503816780E+02  0.10999021150E+04  0.11001685351E+04  0.00000000000E+00 0. -1.
         -2    1    1    2    0  502  0.89286735228E+01 -0.22503816780E+02 -0.15367177751E+03  0.15556721436E+03  0.00000000000E+00 0.  1.
<mgrwt>
<rscale>  2 0.24210390E+02</rscale>
<asrwt>0</asrwt>
<pdfrwt beam="1">  1        2 0.16938200E+00 0.24210390E+02</pdfrwt>
<pdfrwt beam="2">  1       -2 0.23808109E-01 0.24210390E+02</pdfrwt>
<totfact> 0.37632986E+02</totfact>
</mgrwt>
</event>
<event>
 4    1  0.1474645E+004  0.2481415E+02  0.7546771E-02  0.1663686E+00
          2   -1    0    0  501    0  0.00000000000E+00  0.00000000000E+00  0.51104064806E+02  0.51104064806E+02  0.00000000000E+00 0. -1.
         -2   -1    0    0    0  501 -0.00000000000E+00 -0.00000000000E+00 -0.21688728045E+02  0.21688728045E+02  0.00000000000E+00 0.  1.
          2    1    1    2  502    0 -0.24809187542E+02 -0.49641174104E+00  0.38972564551E+02  0.46201764023E+02  0.00000000000E+00 0. -1.
         -2    1    1    2    0  502  0.24809187542E+02  0.49641174104E+00 -0.95572277895E+01  0.26591028828E+02  0.00000000000E+00 0.  1.
<mgrwt>
<rscale>  2 0.24814153E+02</rscale>
<asrwt>0</asrwt>
<pdfrwt beam="1">  1        2 0.78621638E-02 0.24814153E+02</pdfrwt>
<pdfrwt beam="2">  1       -2 0.33367274E-02 0.24814153E+02</pdfrwt>
<totfact> 0.19266742E+05</totfact>
</mgrwt>
</event>
<event>
 4    1  0.1474645E+004  0.6008397E+02  0.7546771E-02  0.1397480E+00
         -2   -1    0    0    0  501 -0.00000000000E+00  0.00000000000E+00  0.13021337884E+03  0.13021337884E+03  0.00000000000E+00 0. -1.
          2   -1    0    0  501    0  0.00000000000E+00 -0.00000000000E+00 -0.23066072145E+03  0.23066072145E+03  0.00000000000E+00 0. -1.
          2    1    1    2  502    0  0.41738905736E+02 -0.43219755628E+02 -0.21946983077E+03  0.22754579791E+03  0.00000000000E+00 0. -1.
         -2    1    1    2    0  502 -0.41738905736E+02  0.43219755628E+02  0.11902248816E+03  0.13332830238E+03  0.00000000000E+00 0. -1.
<mgrwt>
<rscale>  2 0.60083971E+02</rscale>
<asrwt>0</asrwt>
<pdfrwt beam="2">  1        2 0.35486264E-01 0.60083971E+02</pdfrwt>
<pdfrwt beam="1">  1       -2 0.20032828E-01 0.60083971E+02</pdfrwt>
<totfact> 0.28202266E+03</totfact>
</mgrwt>
</event>
<event>
 4    1  0.1474645E+004  0.4153976E+02  0.7546771E-02  0.1497177E+00
         -2   -1    0    0    0  501 -0.00000000000E+00  0.00000000000E+00  0.51982892954E+02  0.51982892954E+02  0.00000000000E+00 0. -1.
          2   -1    0    0  501    0  0.00000000000E+00 -0.00000000000E+00 -0.85846715194E+03  0.85846715194E+03  0.00000000000E+00 0. -1.
          2    1    1    2  502    0 -0.41302397527E+02 -0.44343842019E+01 -0.84957922508E+03  0.85059415205E+03  0.00000000000E+00 0. -1.
         -2    1    1    2    0  502  0.41302397527E+02  0.44343842019E+01  0.43094966101E+02  0.59855892843E+02  0.00000000000E+00 0. -1.
<mgrwt>
<rscale>  2 0.41539762E+02</rscale>
<asrwt>0</asrwt>
<pdfrwt beam="2">  1        2 0.13207185E+00 0.41539762E+02</pdfrwt>
<pdfrwt beam="1">  1       -2 0.79973691E-02 0.41539762E+02</pdfrwt>
<totfact> 0.28651266E+03</totfact>
</mgrwt>
</event>
<event>
 4    1  0.1474645E+004  0.3078159E+02  0.7546771E-02  0.1589607E+00
         -2   -1    0    0    0  501 -0.00000000000E+00  0.00000000000E+00  0.77504967432E+00  0.77504967432E+00  0.00000000000E+00 0.  1.
          2   -1    0    0  501    0  0.00000000000E+00 -0.00000000000E+00 -0.18590341077E+04  0.18590341077E+04  0.00000000000E+00 0.  1.
          2    1    1    2  502    0  0.11121375331E+02  0.28702281949E+02 -0.14732588577E+04  0.14735803907E+04  0.00000000000E+00 0.  1.
         -2    1    1    2    0  502 -0.11121375331E+02 -0.28702281949E+02 -0.38500020029E+03  0.38622876667E+03  0.00000000000E+00 0.  1.
<mgrwt>
<rscale>  2 0.30781585E+02</rscale>
<asrwt>0</asrwt>
<pdfrwt beam="2">  1        2 0.28600300E+00 0.30781585E+02</pdfrwt>
<pdfrwt beam="1">  1       -2 0.11923935E-03 0.30781585E+02</pdfrwt>
<totfact> 0.28917971E+05</totfact>
</mgrwt>
</event>
<event>
 4    1  0.1474645E+004  0.4658691E+02  0.7546771E-02  0.1464671E+00
          2   -1    0    0  501    0  0.00000000000E+00  0.00000000000E+00  0.19706975782E+04  0.19706975782E+04  0.00000000000E+00 0. -1.
         -2   -1    0    0    0  501 -0.00000000000E+00 -0.00000000000E+00 -0.58697644433E+02  0.58697644433E+02  0.00000000000E+00 0.  1.
          2    1    1    2  502    0  0.41223235602E+02 -0.21702197210E+02  0.19611334487E+04  0.19616867090E+04  0.00000000000E+00 0. -1.
         -2    1    1    2    0  502 -0.41223235602E+02  0.21702197210E+02 -0.49133515002E+02  0.67708513599E+02  0.00000000000E+00 0.  1.
<mgrwt>
<rscale>  2 0.46586914E+02</rscale>
<asrwt>0</asrwt>
<pdfrwt beam="1">  1        2 0.30318419E+00 0.46586914E+02</pdfrwt>
<pdfrwt beam="2">  1       -2 0.90304084E-02 0.46586914E+02</pdfrwt>
<totfact> 0.64227028E+02</totfact>
</mgrwt>
</event>
<event>
 4    1  0.1474645E+004  0.2751512E+02  0.7546771E-02  0.1627300E+00
         -2   -1    0    0    0  501 -0.00000000000E+00  0.00000000000E+00  0.47466925051E+01  0.47466925051E+01  0.00000000000E+00 0.  1.
          2   -1    0    0  501    0  0.00000000000E+00 -0.00000000000E+00 -0.62940449594E+03  0.62940449594E+03  0.00000000000E+00 0.  1.
          2    1    1    2  502    0  0.84086562790E+01 -0.26198784798E+02 -0.58629966288E+03  0.58694495186E+03  0.00000000000E+00 0.  1.
         -2    1    1    2    0  502 -0.84086562790E+01  0.26198784798E+02 -0.38358140556E+02  0.47206236582E+02  0.00000000000E+00 0.  1.
<mgrwt>
<rscale>  2 0.27515120E+02</rscale>
<asrwt>0</asrwt>
<pdfrwt beam="2">  1        2 0.96831456E-01 0.27515120E+02</pdfrwt>
<pdfrwt beam="1">  1       -2 0.73026042E-03 0.27515120E+02</pdfrwt>
<totfact> 0.11187647E+05</totfact>
</mgrwt>
</event>
<event>
 4    1  0.1474645E+004  0.2118932E+02  0.7546771E-02  0.1722661E+00
         -2   -1    0    0    0  501 -0.00000000000E+00  0.00000000000E+00  0.76729200871E+02  0.76729200871E+02  0.00000000000E+00 0. -1.
          2   -1    0    0  501    0  0.00000000000E+00 -0.00000000000E+00 -0.59639716631E+01  0.59639716631E+01  0.00000000000E+00 0.  1.
          2    1    1    2  502    0  0.83943965821E+01  0.19455626270E+02  0.29706735685E+02  0.36489415350E+02  0.00000000000E+00 0.  1.
         -2    1    1    2    0  502 -0.83943965821E+01 -0.19455626270E+02  0.41058493524E+02  0.46203757185E+02  0.00000000000E+00 0. -1.
<mgrwt>
<rscale>  2 0.21189320E+02</rscale>
<asrwt>0</asrwt>
<pdfrwt beam="2">  1        2 0.91753415E-03 0.21189320E+02</pdfrwt>
<pdfrwt beam="1">  1       -2 0.11804492E-01 0.21189320E+02</pdfrwt>
<totfact> 0.44215879E+05</totfact>
</mgrwt>
</event>
<event>
 4    1  0.1474645E+004  0.2396030E+02  0.7546771E-02  0.1676401E+00
          2   -1    0    0  501    0  0.00000000000E+00  0.00000000000E+00  0.32129751124E+02  0.32129751124E+02  0.00000000000E+00 0.  1.
         -2   -1    0    0    0  501 -0.00000000000E+00 -0.00000000000E+00 -0.44224941242E+02  0.44224941242E+02  0.00000000000E+00 0.  1.
          2    1    1    2  502    0  0.32836007531E+01  0.23734233598E+02  0.23425057682E+02  0.33508643748E+02  0.00000000000E+00 0.  1.
         -2    1    1    2    0  502 -0.32836007531E+01 -0.23734233598E+02 -0.35520247801E+02  0.42846048619E+02  0.00000000000E+00 0.  1.
<mgrwt>
<rscale>  2 0.23960298E+02</rscale>
<asrwt>0</asrwt>
<pdfrwt beam="1">  1        2 0.49430386E-02 0.23960298E+02</pdfrwt>
<pdfrwt beam="2">  1       -2 0.68038372E-02 0.23960298E+02</pdfrwt>
<totfact> 0.12134801E+05</totfact>
</mgrwt>
</event>
<event>
 4    1  0.1474645E+004  0.9645885E+02  0.7546771E-02  0.1287924E+00
         -2   -1    0    0    0  501 -0.00000000000E+00  0.00000000000E+00  0.19004987069E+03  0.19004987069E+03  0.00000000000E+00 0. -1.
          2   -1    0    0  501    0  0.00000000000E+00 -0.00000000000E+00 -0.10932845260E+03  0.10932845260E+03  0.00000000000E+00 0.  1.
          2    1    1    2  502    0  0.73608616630E+02  0.62338447104E+02 -0.70873618021E+02  0.11969703489E+03  0.00000000000E+00 0.  1.
         -2    1    1    2    0  502 -0.73608616630E+02 -0.62338447104E+02  0.15159503611E+03  0.17968128841E+03  0.00000000000E+00 0. -1.
<mgrwt>
<rscale>  2 0.96458854E+02</rscale>
<asrwt>0</asrwt>
<pdfrwt beam="2">  1        2 0.16819762E-01 0.96458854E+02</pdfrwt>
<pdfrwt beam="1">  1       -2 0.29238442E-01 0.96458854E+02</pdfrwt>
<totfact> 0.34255889E+03</totfact>
</mgrwt>
</event>
<event>
 4    1  0.1474645E+004  0.2578918E+02  0.7546771E-02  0.1649919E+00
          2   -1    0    0  501    0  0.00000000000E+00  0.00000000000E+00  0.80583537783E+03  0.80583537783E+03  0.00000000000E+00 0.  1.
         -2   -1    0    0    0  501 -0.00000000000E+00 -0.00000000000E+00 -0.16177437019E+01  0.16177437019E+01  0.00000000000E+00 0. -1.
          2    1    1    2  502    0 -0.24724198550E+02  0.73345796444E+01  0.68466693669E+03  0.68515246205E+03  0.00000000000E+00 0.  1.
         -2    1    1    2    0  502  0.24724198550E+02 -0.73345796444E+01  0.11955069744E+03  0.12230065948E+03  0.00000000000E+00 0. -1.
<mgrwt>
<rscale>  2 0.25789185E+02</rscale>
<asrwt>0</asrwt>
<pdfrwt beam="1">  1        2 0.12397435E+00 0.25789185E+02</pdfrwt>
<pdfrwt beam="2">  1       -2 0.24888429E-03 0.25789185E+02</pdfrwt>
<totfact> 0.35682604E+05</totfact>
</mgrwt>
</event>
<event>
 4    1  0.1474645E+004  0.2578394E+02  0.7546771E-02  0.1649991E+00
          2   -1    0    0  501    0  0.00000000000E+00  0.00000000000E+00  0.22861579539E+01  0.22861579539E+01  0.00000000000E+00 0. -1.
         -2   -1    0    0    0  501 -0.00000000000E+00 -0.00000000000E+00 -0.32141340553E+03  0.32141340553E+03  0.00000000000E+00 0. -1.
          2    1    1    2  502    0 -0.23354597118E+02  0.10925819601E+02 -0.20951510078E+03  0.21109568493E+03  0.00000000000E+00 0. -1.
         -2    1    1    2    0  502  0.23354597118E+02 -0.10925819601E+02 -0.10961214679E+03  0.11260387855E+03  0.00000000000E+00 0. -1.
<mgrwt>
<rscale>  2 0.25783937E+02</rscale>
<asrwt>0</asrwt>
<pdfrwt beam="1">  1        2 0.35171691E-03 0.25783937E+02</pdfrwt>
<pdfrwt beam="2">  1       -2 0.49448174E-01 0.25783937E+02</pdfrwt>
<totfact> 0.15052753E+05</totfact>
</mgrwt>
</event>
<event>
 4    1  0.1474645E+004  0.2222904E+02  0.7546771E-02  0.1704321E+00
          2   -1    0    0  501    0  0.00000000000E+00  0.00000000000E+00  0.43161245137E+02  0.43161245137E+02  0.00000000000E+00 0.  1.
         -2   -1    0    0    0  501 -0.00000000000E+00 -0.00000000000E+00 -0.16810121554E+02  0.16810121554E+02  0.00000000000E+00 0. -1.
          2    1    1    2  502    0 -0.19914971995E+02  0.98754232097E+01  0.30110278497E+02  0.37426714580E+02  0.00000000000E+00 0.  1.
         -2    1    1    2    0  502  0.19914971995E+02 -0.98754232097E+01 -0.37591549136E+01  0.22544652110E+02  0.00000000000E+00 0. -1.
<mgrwt>
<rscale>  2 0.22229037E+02</rscale>
<asrwt>0</asrwt>
<pdfrwt beam="1">  1        2 0.66401915E-02 0.22229037E+02</pdfrwt>
<pdfrwt beam="2">  1       -2 0.25861726E-02 0.22229037E+02</pdfrwt>
<totfact> 0.32520471E+05</totfact>
</mgrwt>
</event>
<event>
 4    1  0.1474645E+004  0.2479875E+02  0.7546771E-02  0.1663909E+00
          2   -1    0    0  501    0  0.00000000000E+00  0.00000000000E+00  0.25997555683E+02  0.25997555683E+02  0.00000000000E+00 0.  1.
         -2   -1    0    0    0  501 -0.00000000000E+00 -0.00000000000E+00 -0.22250474594E+03  0.22250474594E+03  0.00000000000E+00 0. -1.
          2    1    1    2  502    0 -0.17741757927E+02  0.17326512847E+02  0.19207232161E+02  0.31367113177E+02  0.00000000000E+00 0.  1.
         -2    1    1    2    0  502  0.17741757927E+02 -0.17326512847E+02 -0.21571442242E+03  0.21713518844E+03  0.00000000000E+00 0. -1.
<mgrwt>
<rscale>  2 0.24798750E+02</rscale>
<asrwt>0</asrwt>
<pdfrwt beam="1">  1        2 0.39996239E-02 0.24798750E+02</pdfrwt>
<pdfrwt beam="2">  1       -2 0.34231500E-01 0.24798750E+02</pdfrwt>
<totfact> 0.12485897E+04</totfact>
</mgrwt>
</event>
<event>
 4    1  0.1474645E+004  0.3758899E+02  0.7546771E-02  0.1526742E+00
          2   -1    0    0  501    0  0.00000000000E+00  0.00000000000E+00  0.13263766039E+04  0.13263766039E+04  0.00000000000E+00 0. -1.
         -2   -1    0    0    0  501 -0.00000000000E+00 -0.00000000000E+00 -0.24516230223E+01  0.24516230223E+01  0.00000000000E+00 0. -1.
          2    1    1    2  502    0 -0.37588937919E+02  0.65200874559E-01  0.11615952343E+04  0.11622032614E+04  0.00000000000E+00 0. -1.
         -2    1    1    2    0  502  0.37588937919E+02 -0.65200874559E-01  0.16232974659E+03  0.16662496552E+03  0.00000000000E+00 0. -1.
<mgrwt>
<rscale>  2 0.37588994E+02</rscale>
<asrwt>0</asrwt>
<pdfrwt beam="1">  1        2 0.20405737E+00 0.37588994E+02</pdfrwt>
<pdfrwt beam="2">  1       -2 0.37717383E-03 0.37588994E+02</pdfrwt>
<totfact> 0.11506678E+05</totfact>
</mgrwt>
</event>
<event>
 4    1  0.1474645E+004  0.2405052E+02  0.7546771E-02  0.1675026E+00
         -2   -1    0    0    0  501 -0.00000000000E+00  0.00000000000E+00  0.17224584271E+01  0.17224584271E+01  0.00000000000E+00 0.  1.
          2   -1    0    0  501    0  0.00000000000E+00 -0.00000000000E+00 -0.40637743719E+03  0.40637743719E+03  0.00000000000E+00 0.  1.
          2    1    1    2  502    0 -0.14655532593E+02  0.19069428108E+02 -0.28735468598E+03  0.28835939950E+03  0.00000000000E+00 0.  1.
         -2    1    1    2    0  502  0.14655532593E+02 -0.19069428108E+02 -0.11730029278E+03  0.11974049612E+03  0.00000000000E+00 0.  1.
<mgrwt>
<rscale>  2 0.24050524E+02</rscale>
<asrwt>0</asrwt>
<pdfrwt beam="2">  1        2 0.62519733E-01 0.24050524E+02</pdfrwt>
<pdfrwt beam="1">  1       -2 0.26499307E-03 0.24050524E+02</pdfrwt>
<totfact> 0.65946350E+05</totfact>
</mgrwt>
</event>
<event>
 4    1  0.1474645E+004  0.2008162E+02  0.7546771E-02  0.1743710E+00
          2   -1    0    0  501    0  0.00000000000E+00  0.00000000000E+00  0.45497741472E+03  0.45497741472E+03  0.00000000000E+00 0. -1.
         -2   -1    0    0    0  501 -0.00000000000E+00 -0.00000000000E+00 -0.11601485523E+02  0.11601485523E+02  0.00000000000E+00 0.  1.
          2    1    1    2  502    0 -0.34910816356E+01 -0.19775842403E+02  0.44588869709E+03  0.44634067907E+03  0.00000000000E+00 0. -1.
         -2    1    1    2    0  502  0.34910816356E+01  0.19775842403E+02 -0.25127679002E+01  0.20238221173E+02  0.00000000000E+00 0.  1.
<mgrwt>
<rscale>  2 0.20081623E+02</rscale>
<asrwt>0</asrwt>
<pdfrwt beam="1">  1        2 0.69996512E-01 0.20081623E+02</pdfrwt>
<pdfrwt beam="2">  1       -2 0.17848443E-02 0.20081623E+02</pdfrwt>
<totfact> 0.43409570E+04</totfact>
</mgrwt>
</event>
<event>
 4    1  0.1474645E+004  0.2648281E+02  0.7546771E-02  0.1640574E+00
         -2   -1    0    0    0  501 -0.00000000000E+00  0.00000000000E+00  0.50379426986E+01  0.50379426986E+01  0.00000000000E+00 0. -1.
          2   -1    0    0  501    0  0.00000000000E+00 -0.00000000000E+00 -0.78503873299E+03  0.78503873299E+03  0.00000000000E+00 0.  1.
          2    1    1    2  502    0 -0.18534449056E+02 -0.18915959697E+02 -0.74830459194E+03  0.74877306419E+03  0.00000000000E+00 0.  1.
         -2    1    1    2    0  502  0.18534449056E+02  0.18915959697E+02 -0.31696198346E+02  0.41303611497E+02  0.00000000000E+00 0. -1.
<mgrwt>
<rscale>  2 0.26482812E+02</rscale>
<asrwt>0</asrwt>
<pdfrwt beam="2">  1        2 0.12077509E+00 0.26482812E+02</pdfrwt>
<pdfrwt beam="1">  1       -2 0.77506874E-03 0.26482812E+02</pdfrwt>
<totfact> 0.80338778E+04</totfact>
</mgrwt>
</event>
<event>
 4    1  0.1474645E+004  0.2261061E+02  0.7546771E-02  0.1697901E+00
         -2   -1    0    0    0  501 -0.00000000000E+00  0.00000000000E+00  0.18609297438E+03  0.18609297438E+03  0.00000000000E+00 0.  1.
          2   -1    0    0  501    0  0.00000000000E+00 -0.00000000000E+00 -0.29016764103E+01  0.29016764103E+01  0.00000000000E+00 0.  1.
          2    1    1    2  502    0  0.21149771717E+02 -0.79954355247E+01  0.69794131421E+02  0.73365254812E+02  0.00000000000E+00 0.  1.
         -2    1    1    2    0  502 -0.21149771717E+02  0.79954355247E+01  0.11339716655E+03  0.11562939598E+03  0.00000000000E+00 0.  1.
<mgrwt>
<rscale>  2 0.22610613E+02</rscale>
<asrwt>0</asrwt>
<pdfrwt beam="2">  1        2 0.44641190E-03 0.22610613E+02</pdfrwt>
<pdfrwt beam="1">  1       -2 0.28629679E-01 0.22610613E+02</pdfrwt>
<totfact> 0.28195079E+05</totfact>
</mgrwt>
</event>
<event>
 4    1  0.1474645E+004  0.5413279E+02  0.7546771E-02  0.1424245E+00
         -2   -1    0    0    0  501 -0.00000000000E+00  0.00000000000E+00  0.15870654033E+01  0.15870654033E+01  0.00000000000E+00 0. -1.
          2   -1    0    0  501    0  0.00000000000E+00 -0.00000000000E+00 -0.29063599524E+04  0.29063599524E+04  0.00000000000E+00 0.  1.
          2    1    1    2  502    0 -0.53960512706E+02  0.43153133217E+01 -0.23304508124E+04  0.23310794384E+04  0.00000000000E+00 0.  1.
         -2    1    1    2    0  502  0.53960512706E+02 -0.43153133217E+01 -0.57432207459E+03  0.57686757945E+03  0.00000000000E+00 0. -1.
<mgrwt>
<rscale>  2 0.54132789E+02</rscale>
<asrwt>0</asrwt>
<pdfrwt beam="2">  1        2 0.44713261E+00 0.54132789E+02</pdfrwt>
<pdfrwt beam="1">  1       -2 0.24416374E-03 0.54132789E+02</pdfrwt>
<totfact> 0.35361287E+04</totfact>
</mgrwt>
</event>
<event>
 4    1  0.1474645E+004  0.2106742E+02  0.7546771E-02  0.1724898E+00
         -2   -1    0    0    0  501 -0.00000000000E+00  0.00000000000E+00  0.58737396795E+01  0.58737396795E+01  0.00000000000E+00 0. -1.
          2   -1    0    0  501    0  0.00000000000E+00 -0.00000000000E+00 -0.23514120331E+03  0.23514120331E+03  0.00000000000E+00 0.  1.
          2    1    1    2  502    0 -0.73234631020E+01  0.19753562122E+02 -0.21390798708E+03  0.21494293025E+03  0.00000000000E+00 0.  1.
         -2    1    1    2    0  502  0.73234631020E+01 -0.19753562122E+02 -0.15359476549E+02  0.26072012737E+02  0.00000000000E+00 0. -1.
<mgrwt>
<rscale>  2 0.21067423E+02</rscale>
<asrwt>0</asrwt>
<pdfrwt beam="2">  1        2 0.36175577E-01 0.21067423E+02</pdfrwt>
<pdfrwt beam="1">  1       -2 0.90365207E-03 0.21067423E+02</pdfrwt>
<totfact> 0.21085542E+05</totfact>
</mgrwt>
</event>
<event>
 4    1  0.1474645E+004  0.3499790E+02  0.7546771E-02  0.1548619E+00
          2   -1    0    0  501    0  0.00000000000E+00  0.00000000000E+00  0.11009452769E+04  0.11009452769E+04  0.00000000000E+00 0.  1.
         -2   -1    0    0    0  501 -0.00000000000E+00 -0.00000000000E+00 -0.53313073980E+01  0.53313073980E+01  0.00000000000E+00 0.  1.
          2    1    1    2  502    0 -0.32727230850E+02  0.12400853231E+02  0.10398570787E+04  0.10404458644E+04  0.00000000000E+00 0.  1.
         -2    1    1    2    0  502  0.32727230850E+02 -0.12400853231E+02  0.55756890835E+02  0.65830719847E+02  0.00000000000E+00 0.  1.
<mgrwt>
<rscale>  2 0.34997897E+02</rscale>
<asrwt>0</asrwt>
<pdfrwt beam="1">  1        2 0.16937602E+00 0.34997897E+02</pdfrwt>
<pdfrwt beam="2">  1       -2 0.82020201E-03 0.34997897E+02</pdfrwt>
<totfact> 0.51501316E+04</totfact>
</mgrwt>
</event>
<event>
 4    1  0.1474645E+004  0.2546440E+02  0.7546771E-02  0.1654420E+00
         -2   -1    0    0    0  501 -0.00000000000E+00  0.00000000000E+00  0.36077210380E+02  0.36077210380E+02  0.00000000000E+00 0.  1.
          2   -1    0    0  501    0  0.00000000000E+00 -0.00000000000E+00 -0.49571084103E+02  0.49571084103E+02  0.00000000000E+00 0. -1.
          2    1    1    2  502    0 -0.97230224250E+01  0.23535050208E+02 -0.40937091969E+02  0.48210800161E+02  0.00000000000E+00 0. -1.
         -2    1    1    2    0  502  0.97230224250E+01 -0.23535050208E+02  0.27443218246E+02  0.37437494321E+02  0.00000000000E+00 0.  1.
<mgrwt>
<rscale>  2 0.25464402E+02</rscale>
<asrwt>0</asrwt>
<pdfrwt beam="2">  1        2 0.76263206E-02 0.25464402E+02</pdfrwt>
<pdfrwt beam="1">  1       -2 0.55503401E-02 0.25464402E+02</pdfrwt>
<totfact> 0.97841922E+04</totfact>
</mgrwt>
</event>
<event>
 4    1  0.1474645E+004  0.3370765E+02  0.7546771E-02  0.1560386E+00
         -2   -1    0    0    0  501 -0.00000000000E+00  0.00000000000E+00  0.35167426853E+01  0.35167426853E+01  0.00000000000E+00 0.  1.
          2   -1    0    0  501    0  0.00000000000E+00 -0.00000000000E+00 -0.11562097521E+04  0.11562097521E+04  0.00000000000E+00 0.  1.
          2    1    1    2  502    0 -0.32113392136E+02  0.10243801498E+02 -0.10685700577E+04  0.10691015731E+04  0.00000000000E+00 0.  1.
         -2    1    1    2    0  502  0.32113392136E+02 -0.10243801498E+02 -0.84122951793E+02  0.90624921748E+02  0.00000000000E+00 0.  1.
<mgrwt>
<rscale>  2 0.33707646E+02</rscale>
<asrwt>0</asrwt>
<pdfrwt beam="2">  1        2 0.17787850E+00 0.33707646E+02</pdfrwt>
<pdfrwt beam="1">  1       -2 0.54103710E-03 0.33707646E+02</pdfrwt>
<totfact> 0.84454665E+04</totfact>
</mgrwt>
</event>
<event>
 4    1  0.1474645E+004  0.2123784E+02  0.7546771E-02  0.1721776E+00
          2   -1    0    0  501    0  0.00000000000E+00  0.00000000000E+00  0.47532970725E+00  0.47532970725E+00  0.00000000000E+00 0.  1.
         -2   -1    0    0    0  501 -0.00000000000E+00 -0.00000000000E+00 -0.96863085227E+03  0.96863085227E+03  0.00000000000E+00 0.  1.
          2    1    1    2  502    0  0.14151114651E+02  0.15836411015E+02 -0.41494157284E+03  0.41548472274E+03  0.00000000000E+00 0.  1.
         -2    1    1    2    0  502 -0.14151114651E+02 -0.15836411015E+02 -0.55321394972E+03  0.55362145923E+03  0.00000000000E+00 0.  1.
<mgrwt>
<rscale>  2 0.21237843E+02</rscale>
<asrwt>0</asrwt>
<pdfrwt beam="1">  1        2 0.73128789E-04 0.21237843E+02</pdfrwt>
<pdfrwt beam="2">  1       -2 0.14901781E+00 0.21237843E+02</pdfrwt>
<totfact> 0.10382706E+05</totfact>
</mgrwt>
</event>
<event>
 4    1  0.1474645E+004  0.2614544E+02  0.7546771E-02  0.1645074E+00
          2   -1    0    0  501    0  0.00000000000E+00  0.00000000000E+00  0.12446934500E+01  0.12446934500E+01  0.00000000000E+00 0. -1.
         -2   -1    0    0    0  501 -0.00000000000E+00 -0.00000000000E+00 -0.91682663314E+03  0.91682663314E+03  0.00000000000E+00 0.  1.
          2    1    1    2  502    0  0.22552686702E+02 -0.13227256369E+02 -0.16711636816E+03  0.16914923735E+03  0.00000000000E+00 0. -1.
         -2    1    1    2    0  502 -0.22552686702E+02  0.13227256369E+02 -0.74846557152E+03  0.74892208923E+03  0.00000000000E+00 0.  1.
<mgrwt>
<rscale>  2 0.26145439E+02</rscale>
<asrwt>0</asrwt>
<pdfrwt beam="1">  1        2 0.19149152E-03 0.26145439E+02</pdfrwt>
<pdfrwt beam="2">  1       -2 0.14105009E+00 0.26145439E+02</pdfrwt>
<totfact> 0.35728470E+04</totfact>
</mgrwt>
</event>
<event>
 4    1  0.1474645E+004  0.2192523E+02  0.7546771E-02  0.1709548E+00
          2   -1    0    0  501    0  0.00000000000E+00  0.00000000000E+00  0.54756402543E+02  0.54756402543E+02  0.00000000000E+00 0. -1.
         -2   -1    0    0    0  501 -0.00000000000E+00 -0.00000000000E+00 -0.88659645370E+01  0.88659645370E+01  0.00000000000E+00 0.  1.
          2    1    1    2  502    0  0.16127065014E+02  0.14853722960E+02  0.19797588066E+02  0.29540815916E+02  0.00000000000E+00 0.  1.
         -2    1    1    2    0  502 -0.16127065014E+02 -0.14853722960E+02  0.26092849941E+02  0.34081551164E+02  0.00000000000E+00 0. -1.
<mgrwt>
<rscale>  2 0.21925232E+02</rscale>
<asrwt>0</asrwt>
<pdfrwt beam="1">  1        2 0.84240617E-02 0.21925232E+02</pdfrwt>
<pdfrwt beam="2">  1       -2 0.13639946E-02 0.21925232E+02</pdfrwt>
<totfact> 0.58652020E+05</totfact>
</mgrwt>
</event>
<event>
 4    1  0.1474645E+004  0.2047305E+02  0.7546771E-02  0.1736081E+00
          2   -1    0    0  501    0  0.00000000000E+00  0.00000000000E+00  0.49145517001E+03  0.49145517001E+03  0.00000000000E+00 0.  1.
         -2   -1    0    0    0  501 -0.00000000000E+00 -0.00000000000E+00 -0.18841648420E+01  0.18841648420E+01  0.00000000000E+00 0.  1.
          2    1    1    2  502    0 -0.13641509788E+02  0.15266138973E+02  0.42727942309E+03  0.42776962396E+03  0.00000000000E+00 0.  1.
         -2    1    1    2    0  502  0.13641509788E+02 -0.15266138973E+02  0.62291582077E+02  0.65569710889E+02  0.00000000000E+00 0.  1.
<mgrwt>
<rscale>  2 0.20473050E+02</rscale>
<asrwt>0</asrwt>
<pdfrwt beam="1">  1        2 0.75608385E-01 0.20473050E+02</pdfrwt>
<pdfrwt beam="2">  1       -2 0.28987191E-03 0.20473050E+02</pdfrwt>
<totfact> 0.46146200E+05</totfact>
</mgrwt>
</event>
<event>
 4    1  0.1474645E+004  0.3267340E+02  0.7546771E-02  0.1570288E+00
         -2   -1    0    0    0  501 -0.00000000000E+00  0.00000000000E+00  0.88773802883E+00  0.88773802883E+00  0.00000000000E+00 0. -1.
          2   -1    0    0  501    0  0.00000000000E+00 -0.00000000000E+00 -0.18484856608E+04  0.18484856608E+04  0.00000000000E+00 0.  1.
          2    1    1    2  502    0 -0.17842355960E+01 -0.32624644666E+02 -0.14704127771E+04  0.14707757429E+04  0.00000000000E+00 0.  1.
         -2    1    1    2    0  502  0.17842355960E+01  0.32624644666E+02 -0.37718514571E+03  0.37859765594E+03  0.00000000000E+00 0. -1.
<mgrwt>
<rscale>  2 0.32673398E+02</rscale>
<asrwt>0</asrwt>
<pdfrwt beam="2">  1        2 0.28438125E+00 0.32673398E+02</pdfrwt>
<pdfrwt beam="1">  1       -2 0.13657564E-03 0.32673398E+02</pdfrwt>
<totfact> 0.24693038E+05</totfact>
</mgrwt>
</event>
<event>
 4    1  0.1474645E+004  0.2496579E+02  0.7546771E-02  0.1661494E+00
          2   -1    0    0  501    0  0.00000000000E+00  0.00000000000E+00  0.23738199399E+03  0.23738199399E+03  0.00000000000E+00 0. -1.
         -2   -1    0    0    0  501 -0.00000000000E+00 -0.00000000000E+00 -0.24736104688E+03  0.24736104688E+03  0.00000000000E+00 0. -1.
          2    1    1    2  502    0  0.16896804942E+02 -0.18379026100E+02  0.23609220044E+03  0.23740854603E+03  0.00000000000E+00 0. -1.
         -2    1    1    2    0  502 -0.16896804942E+02  0.18379026100E+02 -0.24607125334E+03  0.24733449484E+03  0.00000000000E+00 0. -1.
<mgrwt>
<rscale>  2 0.24965789E+02</rscale>
<asrwt>0</asrwt>
<pdfrwt beam="1">  1        2 0.36520307E-01 0.24965789E+02</pdfrwt>
<pdfrwt beam="2">  1       -2 0.38055546E-01 0.24965789E+02</pdfrwt>
<totfact> 0.85696574E+02</totfact>
</mgrwt>
</event>
<event>
 4    1  0.1474645E+004  0.2300829E+02  0.7546771E-02  0.1691376E+00
          2   -1    0    0  501    0  0.00000000000E+00  0.00000000000E+00  0.69082453712E+02  0.69082453712E+02  0.00000000000E+00 0.  1.
         -2   -1    0    0    0  501 -0.00000000000E+00 -0.00000000000E+00 -0.54749953909E+02  0.54749953909E+02  0.00000000000E+00 0. -1.
          2    1    1    2  502    0  0.22748682570E+02 -0.34465863309E+01  0.64586167113E+02  0.68562048528E+02  0.00000000000E+00 0.  1.
         -2    1    1    2    0  502 -0.22748682570E+02  0.34465863309E+01 -0.50253667311E+02  0.55270359092E+02  0.00000000000E+00 0. -1.
<mgrwt>
<rscale>  2 0.23008292E+02</rscale>
<asrwt>0</asrwt>
<pdfrwt beam="1">  1        2 0.10628070E-01 0.23008292E+02</pdfrwt>
<pdfrwt beam="2">  1       -2 0.84230699E-02 0.23008292E+02</pdfrwt>
<totfact> 0.35478264E+04</totfact>
</mgrwt>
</event>
<event>
 4    1  0.1474645E+004  0.2803254E+02  0.7546771E-02  0.1620913E+00
         -2   -1    0    0    0  501 -0.00000000000E+00  0.00000000000E+00  0.28879756663E+00  0.28879756663E+00  0.00000000000E+00 0.  1.
          2   -1    0    0  501    0  0.00000000000E+00 -0.00000000000E+00 -0.27267927848E+04  0.27267927848E+04  0.00000000000E+00 0.  1.
          2    1    1    2  502    0  0.60583118238E+01 -0.27370042682E+02 -0.13004837536E+04  0.13007858454E+04  0.00000000000E+00 0.  1.
         -2    1    1    2    0  502 -0.60583118238E+01  0.27370042682E+02 -0.14260202337E+04  0.14262957370E+04  0.00000000000E+00 0.  1.
<mgrwt>
<rscale>  2 0.28032538E+02</rscale>
<asrwt>0</asrwt>
<pdfrwt beam="2">  1        2 0.41950253E+00 0.28032538E+02</pdfrwt>
<pdfrwt beam="1">  1       -2 0.44430824E-04 0.28032538E+02</pdfrwt>
<totfact> 0.39756659E+05</totfact>
</mgrwt>
</event>
<event>
 4    1  0.1474645E+004  0.4399887E+02  0.7546771E-02  0.1480690E+00
         -2   -1    0    0    0  501 -0.00000000000E+00  0.00000000000E+00  0.15813752340E+02  0.15813752340E+02  0.00000000000E+00 0.  1.
          2   -1    0    0  501    0  0.00000000000E+00 -0.00000000000E+00 -0.35234662885E+03  0.35234662885E+03  0.00000000000E+00 0. -1.
          2    1    1    2  502    0  0.81959717210E+01 -0.43228771786E+02 -0.31696876349E+03  0.32000796505E+03  0.00000000000E+00 0. -1.
         -2    1    1    2    0  502 -0.81959717210E+01  0.43228771786E+02 -0.19564113019E+02  0.48152416147E+02  0.00000000000E+00 0.  1.
<mgrwt>
<rscale>  2 0.43998871E+02</rscale>
<asrwt>0</asrwt>
<pdfrwt beam="2">  1        2 0.54207170E-01 0.43998871E+02</pdfrwt>
<pdfrwt beam="1">  1       -2 0.24328852E-02 0.43998871E+02</pdfrwt>
<totfact> 0.42081978E+04</totfact>
</mgrwt>
</event>
<event>
 4    1  0.1474645E+004  0.2449255E+02  0.7546771E-02  0.1668399E+00
          2   -1    0    0  501    0  0.00000000000E+00  0.00000000000E+00  0.48733807041E+03  0.48733807041E+03  0.00000000000E+00 0.  1.
         -2   -1    0    0    0  501 -0.00000000000E+00 -0.00000000000E+00 -0.12936364305E+01  0.12936364305E+01  0.00000000000E+00 0. -1.
          2    1    1    2  502    0  0.13718613572E+02 -0.20290015459E+02  0.29680690888E+03  0.29781575889E+03  0.00000000000E+00 0.  1.
         -2    1    1    2    0  502 -0.13718613572E+02  0.20290015459E+02  0.18923752510E+03  0.19081594795E+03  0.00000000000E+00 0. -1.
<mgrwt>
<rscale>  2 0.24492552E+02</rscale>
<asrwt>0</asrwt>
<pdfrwt beam="1">  1        2 0.74974941E-01 0.24492552E+02</pdfrwt>
<pdfrwt beam="2">  1       -2 0.19902138E-03 0.24492552E+02</pdfrwt>
<totfact> 0.80914749E+05</totfact>
</mgrwt>
</event>
<event>
 4    1  0.1474645E+004  0.2329708E+02  0.7546771E-02  0.1686739E+00
          2   -1    0    0  501    0  0.00000000000E+00  0.00000000000E+00  0.29252178329E+02  0.29252178329E+02  0.00000000000E+00 0. -1.
         -2   -1    0    0    0  501 -0.00000000000E+00 -0.00000000000E+00 -0.12735485233E+03  0.12735485233E+03  0.00000000000E+00 0.  1.
          2    1    1    2  502    0  0.12912979538E+02 -0.19390954571E+02  0.23323738437E+02  0.32965905636E+02  0.00000000000E+00 0. -1.
         -2    1    1    2    0  502 -0.12912979538E+02  0.19390954571E+02 -0.12142641244E+03  0.12364112502E+03  0.00000000000E+00 0.  1.
<mgrwt>
<rscale>  2 0.23297085E+02</rscale>
<asrwt>0</asrwt>
<pdfrwt beam="1">  1        2 0.45003351E-02 0.23297085E+02</pdfrwt>
<pdfrwt beam="2">  1       -2 0.19593054E-01 0.23297085E+02</pdfrwt>
<totfact> 0.27210138E+04</totfact>
</mgrwt>
</event>
<event>
 4    1  0.1474645E+004  0.4596346E+02  0.7546771E-02  0.1468415E+00
         -2   -1    0    0    0  501 -0.00000000000E+00  0.00000000000E+00  0.40882888264E+02  0.40882888264E+02  0.00000000000E+00 0.  1.
          2   -1    0    0  501    0  0.00000000000E+00 -0.00000000000E+00 -0.59418910645E+02  0.59418910645E+02  0.00000000000E+00 0. -1.
          2    1    1    2  502    0 -0.27206039916E+02 -0.37046879953E+02 -0.27372452008E+02  0.53496645232E+02  0.00000000000E+00 0. -1.
         -2    1    1    2    0  502  0.27206039916E+02  0.37046879953E+02  0.88364296262E+01  0.46805153677E+02  0.00000000000E+00 0.  1.
<mgrwt>
<rscale>  2 0.45963463E+02</rscale>
<asrwt>0</asrwt>
<pdfrwt beam="2">  1        2 0.91413708E-02 0.45963463E+02</pdfrwt>
<pdfrwt beam="1">  1       -2 0.62896751E-02 0.45963463E+02</pdfrwt>
<totfact> 0.74532751E+04</totfact>
</mgrwt>
</event>
<event>
 4    1  0.1474645E+004  0.2137500E+02  0.7546771E-02  0.1719291E+00
         -2   -1    0    0    0  501 -0.00000000000E+00  0.00000000000E+00  0.53821803023E+01  0.53821803023E+01  0.00000000000E+00 0. -1.
          2   -1    0    0  501    0  0.00000000000E+00 -0.00000000000E+00 -0.56131236986E+03  0.56131236986E+03  0.00000000000E+00 0.  1.
          2    1    1    2  502    0  0.18159011515E+02 -0.11275675212E+02 -0.53900868756E+03  0.53943234591E+03  0.00000000000E+00 0.  1.
         -2    1    1    2    0  502 -0.18159011515E+02  0.11275675212E+02 -0.16921501996E+02  0.27262204249E+02  0.00000000000E+00 0. -1.
<mgrwt>
<rscale>  2 0.21374998E+02</rscale>
<asrwt>0</asrwt>
<pdfrwt beam="2">  1        2 0.86355705E-01 0.21374998E+02</pdfrwt>
<pdfrwt beam="1">  1       -2 0.82802816E-03 0.21374998E+02</pdfrwt>
<totfact> 0.10058903E+05</totfact>
</mgrwt>
</event>
<event>
 4    1  0.1474645E+004  0.2057904E+02  0.7546771E-02  0.1734052E+00
         -2   -1    0    0    0  501 -0.00000000000E+00  0.00000000000E+00  0.25186334111E+01  0.25186334111E+01  0.00000000000E+00 0. -1.
          2   -1    0    0  501    0  0.00000000000E+00 -0.00000000000E+00 -0.12159272465E+04  0.12159272465E+04  0.00000000000E+00 0.  1.
          2    1    1    2  502    0 -0.13028281597E+02 -0.15929874754E+02 -0.11722371793E+04  0.11724178016E+04  0.00000000000E+00 0.  1.
         -2    1    1    2    0  502  0.13028281597E+02  0.15929874754E+02 -0.41171433835E+02  0.46028078333E+02  0.00000000000E+00 0. -1.
<mgrwt>
<rscale>  2 0.20579043E+02</rscale>
<asrwt>0</asrwt>
<pdfrwt beam="2">  1        2 0.18706571E+00 0.20579043E+02</pdfrwt>
<pdfrwt beam="1">  1       -2 0.38748210E-03 0.20579043E+02</pdfrwt>
<totfact> 0.11215707E+05</totfact>
</mgrwt>
</event>
<event>
 4    1  0.1474645E+004  0.2172718E+02  0.7546771E-02  0.1713013E+00
         -2   -1    0    0    0  501 -0.00000000000E+00  0.00000000000E+00  0.13285924206E+03  0.13285924206E+03  0.00000000000E+00 0.  1.
          2   -1    0    0  501    0  0.00000000000E+00 -0.00000000000E+00 -0.18875178049E+03  0.18875178049E+03  0.00000000000E+00 0. -1.
          2    1    1    2  502    0  0.21052834921E+02 -0.53710928004E+01 -0.18723104601E+03  0.18848749318E+03  0.00000000000E+00 0. -1.
         -2    1    1    2    0  502 -0.21052834921E+02  0.53710928004E+01  0.13133850758E+03  0.13312352937E+03  0.00000000000E+00 0.  1.
<mgrwt>
<rscale>  2 0.21727183E+02</rscale>
<asrwt>0</asrwt>
<pdfrwt beam="2">  1        2 0.29038735E-01 0.21727183E+02</pdfrwt>
<pdfrwt beam="1">  1       -2 0.20439883E-01 0.21727183E+02</pdfrwt>
<totfact> 0.30664503E+03</totfact>
</mgrwt>
</event>
<event>
 4    1  0.1474645E+004  0.3591686E+02  0.7546771E-02  0.1540606E+00
          2   -1    0    0  501    0  0.00000000000E+00  0.00000000000E+00  0.26720390100E+04  0.26720390100E+04  0.00000000000E+00 0. -1.
         -2   -1    0    0    0  501 -0.00000000000E+00 -0.00000000000E+00 -0.30817787216E+02  0.30817787216E+02  0.00000000000E+00 0. -1.
          2    1    1    2  502    0 -0.29815974621E+02  0.20025702176E+02  0.26614116209E+04  0.26616539664E+04  0.00000000000E+00 0. -1.
         -2    1    1    2    0  502  0.29815974621E+02 -0.20025702176E+02 -0.20190398110E+02  0.41202830802E+02  0.00000000000E+00 0. -1.
<mgrwt>
<rscale>  2 0.35916864E+02</rscale>
<asrwt>0</asrwt>
<pdfrwt beam="1">  1        2 0.41108274E+00 0.35916864E+02</pdfrwt>
<pdfrwt beam="2">  1       -2 0.47412001E-02 0.35916864E+02</pdfrwt>
<totfact> 0.75122137E+02</totfact>
</mgrwt>
</event>
<event>
 4    1  0.1474645E+004  0.2525311E+02  0.7546771E-02  0.1657393E+00
         -2   -1    0    0    0  501 -0.00000000000E+00  0.00000000000E+00  0.18141055544E+02  0.18141055544E+02  0.00000000000E+00 0.  1.
          2   -1    0    0  501    0  0.00000000000E+00 -0.00000000000E+00 -0.15526620833E+03  0.15526620833E+03  0.00000000000E+00 0. -1.
          2    1    1    2  502    0 -0.10689268378E+02  0.22879223320E+02 -0.14482200083E+03  0.14700724895E+03  0.00000000000E+00 0. -1.
         -2    1    1    2    0  502  0.10689268378E+02 -0.22879223320E+02  0.76968480473E+01  0.26400014925E+02  0.00000000000E+00 0.  1.
<mgrwt>
<rscale>  2 0.25253105E+02</rscale>
<asrwt>0</asrwt>
<pdfrwt beam="2">  1        2 0.23887110E-01 0.25253105E+02</pdfrwt>
<pdfrwt beam="1">  1       -2 0.27909315E-02 0.25253105E+02</pdfrwt>
<totfact> 0.72061057E+04</totfact>
</mgrwt>
</event>
<event>
 4    1  0.1474645E+004  0.2386972E+02  0.7546771E-02  0.1677788E+00
         -2   -1    0    0    0  501 -0.00000000000E+00  0.00000000000E+00  0.50626027279E+01  0.50626027279E+01  0.00000000000E+00 0.  1.
          2   -1    0    0  501    0  0.00000000000E+00 -0.00000000000E+00 -0.13044585964E+04  0.13044585964E+04  0.00000000000E+00 0. -1.
          2    1    1    2  502    0 -0.20806709955E+01 -0.23778867727E+02 -0.12755764820E+04  0.12757997983E+04  0.00000000000E+00 0. -1.
         -2    1    1    2    0  502  0.20806709955E+01  0.23778867727E+02 -0.23819511681E+02  0.33721400903E+02  0.00000000000E+00 0.  1.
<mgrwt>
<rscale>  2 0.23869724E+02</rscale>
<asrwt>0</asrwt>
<pdfrwt beam="2">  1        2 0.20068581E+00 0.23869724E+02</pdfrwt>
<pdfrwt beam="1">  1       -2 0.77886245E-03 0.23869724E+02</pdfrwt>
<totfact> 0.40970649E+04</totfact>
</mgrwt>
</event>
<event>
 4    1  0.1474645E+004  0.2314862E+02  0.7546771E-02  0.1689112E+00
         -2   -1    0    0    0  501 -0.00000000000E+00  0.00000000000E+00  0.12471989979E+01  0.12471989979E+01  0.00000000000E+00 0.  1.
          2   -1    0    0  501    0  0.00000000000E+00 -0.00000000000E+00 -0.46654269795E+03  0.46654269795E+03  0.00000000000E+00 0.  1.
          2    1    1    2  502    0  0.23143625254E+02  0.48077047764E+00 -0.29842077244E+03  0.29931724968E+03  0.00000000000E+00 0.  1.
         -2    1    1    2    0  502 -0.23143625254E+02 -0.48077047764E+00 -0.16687472650E+03  0.16847264726E+03  0.00000000000E+00 0.  1.
<mgrwt>
<rscale>  2 0.23148618E+02</rscale>
<asrwt>0</asrwt>
<pdfrwt beam="2">  1        2 0.71775940E-01 0.23148618E+02</pdfrwt>
<pdfrwt beam="1">  1       -2 0.19187639E-03 0.23148618E+02</pdfrwt>
<totfact> 0.87210288E+05</totfact>
</mgrwt>
</event>
<event>
 4    1  0.1474645E+004  0.3221008E+02  0.7546771E-02  0.1574870E+00
         -2   -1    0    0    0  501 -0.00000000000E+00  0.00000000000E+00  0.10207903494E+04  0.10207903494E+04  0.00000000000E+00 0. -1.
          2   -1    0    0  501    0  0.00000000000E+00 -0.00000000000E+00 -0.10800109498E+03  0.10800109498E+03  0.00000000000E+00 0.  1.
          2    1    1    2  502    0 -0.31985595263E+02  0.37961729575E+01 -0.10533915675E+03  0.11015365259E+03  0.00000000000E+00 0.  1.
         -2    1    1    2    0  502  0.31985595263E+02 -0.37961729575E+01  0.10181284111E+04  0.10186377918E+04  0.00000000000E+00 0. -1.
<mgrwt>
<rscale>  2 0.32210080E+02</rscale>
<asrwt>0</asrwt>
<pdfrwt beam="2">  1        2 0.16615554E-01 0.32210080E+02</pdfrwt>
<pdfrwt beam="1">  1       -2 0.15704466E+00 0.32210080E+02</pdfrwt>
<totfact> 0.98303619E+01</totfact>
</mgrwt>
</event>
<event>
 4    1  0.1474645E+004  0.3046277E+02  0.7546771E-02  0.1593029E+00
          2   -1    0    0  501    0  0.00000000000E+00  0.00000000000E+00  0.11817388162E+04  0.11817388162E+04  0.00000000000E+00 0.  1.
         -2   -1    0    0    0  501 -0.00000000000E+00 -0.00000000000E+00 -0.68366533381E+02  0.68366533381E+02  0.00000000000E+00 0.  1.
          2    1    1    2  502    0 -0.15388233344E+02 -0.26290356182E+02  0.11781387297E+04  0.11785324972E+04  0.00000000000E+00 0.  1.
         -2    1    1    2    0  502  0.15388233344E+02  0.26290356182E+02 -0.64766446888E+02  0.71572852368E+02  0.00000000000E+00 0.  1.
<mgrwt>
<rscale>  2 0.30462773E+02</rscale>
<asrwt>0</asrwt>
<pdfrwt beam="1">  1        2 0.18180596E+00 0.30462773E+02</pdfrwt>
<pdfrwt beam="2">  1       -2 0.10517929E-01 0.30462773E+02</pdfrwt>
<totfact> 0.12404231E+03</totfact>
</mgrwt>
</event>
<event>
 4    1  0.1474645E+004  0.4112990E+02  0.7546771E-02  0.1500057E+00
         -2   -1    0    0    0  501 -0.00000000000E+00  0.00000000000E+00  0.40336804971E+00  0.40336804971E+00  0.00000000000E+00 0.  1.
          2   -1    0    0  501    0  0.00000000000E+00 -0.00000000000E+00 -0.44572781715E+04  0.44572781715E+04  0.00000000000E+00 0.  1.
          2    1    1    2  502    0 -0.33605381486E+02 -0.23713857914E+02 -0.27702734200E+04  0.27705787284E+04  0.00000000000E+00 0.  1.
         -2    1    1    2    0  502  0.33605381486E+02  0.23713857914E+02 -0.16866013835E+04  0.16871028112E+04  0.00000000000E+00 0.  1.
<mgrwt>
<rscale>  2 0.41129901E+02</rscale>
<asrwt>0</asrwt>
<pdfrwt beam="2">  1        2 0.68569586E+00 0.41129901E+02</pdfrwt>
<pdfrwt beam="1">  1       -2 0.62060175E-04 0.41129901E+02</pdfrwt>
<totfact> 0.20410041E+04</totfact>
</mgrwt>
</event>
<event>
 4    1  0.1474645E+004  0.2504795E+02  0.7546771E-02  0.1660314E+00
          2   -1    0    0  501    0  0.00000000000E+00  0.00000000000E+00  0.11492546574E+04  0.11492546574E+04  0.00000000000E+00 0.  1.
         -2   -1    0    0    0  501 -0.00000000000E+00 -0.00000000000E+00 -0.41352077597E+01  0.41352077597E+01  0.00000000000E+00 0.  1.
          2    1    1    2  502    0 -0.92970184247E+01 -0.23258663398E+02  0.11098409522E+04  0.11101235693E+04  0.00000000000E+00 0.  1.
         -2    1    1    2    0  502  0.92970184247E+01  0.23258663398E+02  0.35278497466E+02  0.43266295868E+02  0.00000000000E+00 0.  1.
<mgrwt>
<rscale>  2 0.25047954E+02</rscale>
<asrwt>0</asrwt>
<pdfrwt beam="1">  1        2 0.17680815E+00 0.25047954E+02</pdfrwt>
<pdfrwt beam="2">  1       -2 0.63618673E-03 0.25047954E+02</pdfrwt>
<totfact> 0.64885481E+04</totfact>
</mgrwt>
</event>
<event>
 4    1  0.1474645E+004  0.2160757E+02  0.7546771E-02  0.1715129E+00
         -2   -1    0    0    0  501 -0.00000000000E+00  0.00000000000E+00  0.17552287017E+01  0.17552287017E+01  0.00000000000E+00 0.  1.
          2   -1    0    0  501    0  0.00000000000E+00 -0.00000000000E+00 -0.49028519947E+03  0.49028519947E+03  0.00000000000E+00 0.  1.
          2    1    1    2  502    0 -0.20364599543E+02  0.72228930775E+01 -0.41066324087E+03  0.41123130292E+03  0.00000000000E+00 0.  1.
         -2    1    1    2    0  502  0.20364599543E+02 -0.72228930775E+01 -0.77866729895E+02  0.80809125249E+02  0.00000000000E+00 0.  1.
<mgrwt>
<rscale>  2 0.21607570E+02</rscale>
<asrwt>0</asrwt>
<pdfrwt beam="2">  1        2 0.75428470E-01 0.21607570E+02</pdfrwt>
<pdfrwt beam="1">  1       -2 0.27003526E-03 0.21607570E+02</pdfrwt>
<totfact> 0.51644332E+05</totfact>
</mgrwt>
</event>
<event>
 4    1  0.1474645E+004  0.2137075E+02  0.7546771E-02  0.1719367E+00
          2   -1    0    0  501    0  0.00000000000E+00  0.00000000000E+00  0.14898242355E+03  0.14898242355E+03  0.00000000000E+00 0. -1.
         -2   -1    0    0    0  501 -0.00000000000E+00 -0.00000000000E+00 -0.84086765769E+01  0.84086765769E+01  0.00000000000E+00 0. -1.
          2    1    1    2  502    0  0.10077292466E+02 -0.18845616198E+02  0.13301830125E+03  0.13472407929E+03  0.00000000000E+00 0. -1.
         -2    1    1    2    0  502 -0.10077292466E+02  0.18845616198E+02  0.75554457164E+01  0.22667020829E+02  0.00000000000E+00 0. -1.
<mgrwt>
<rscale>  2 0.21370753E+02</rscale>
<asrwt>0</asrwt>
<pdfrwt beam="1">  1        2 0.22920371E-01 0.21370753E+02</pdfrwt>
<pdfrwt beam="2">  1       -2 0.12936427E-02 0.21370753E+02</pdfrwt>
<totfact> 0.20713736E+05</totfact>
</mgrwt>
</event>
<event>
 4    1  0.1474645E+004  0.2152907E+02  0.7546771E-02  0.1716526E+00
          2   -1    0    0  501    0  0.00000000000E+00  0.00000000000E+00  0.94856357958E+03  0.94856357958E+03  0.00000000000E+00 0.  1.
         -2   -1    0    0    0  501 -0.00000000000E+00 -0.00000000000E+00 -0.31071012406E+01  0.31071012406E+01  0.00000000000E+00 0.  1.
          2    1    1    2  502    0  0.52212407120E+01  0.20886345239E+02  0.90954825794E+03  0.90980301950E+03  0.00000000000E+00 0.  1.
         -2    1    1    2    0  502 -0.52212407120E+01 -0.20886345239E+02  0.35908220395E+02  0.41867661315E+02  0.00000000000E+00 0.  1.
<mgrwt>
<rscale>  2 0.21529068E+02</rscale>
<asrwt>0</asrwt>
<pdfrwt beam="1">  1        2 0.14593263E+00 0.21529068E+02</pdfrwt>
<pdfrwt beam="2">  1       -2 0.47801633E-03 0.21529068E+02</pdfrwt>
<totfact> 0.11802325E+05</totfact>
</mgrwt>
</event>
<event>
 4    1  0.1474645E+004  0.2040890E+02  0.7546771E-02  0.1737317E+00
         -2   -1    0    0    0  501 -0.00000000000E+00  0.00000000000E+00  0.58542821706E+00  0.58542821706E+00  0.00000000000E+00 0.  1.
          2   -1    0    0  501    0  0.00000000000E+00 -0.00000000000E+00 -0.16993783515E+04  0.16993783515E+04  0.00000000000E+00 0. -1.
          2    1    1    2  502    0  0.15971025542E+02 -0.12706273452E+02 -0.14974632949E+04  0.14976023646E+04  0.00000000000E+00 0. -1.
         -2    1    1    2    0  502 -0.15971025542E+02  0.12706273452E+02 -0.20132962840E+03  0.20236141508E+03  0.00000000000E+00 0.  1.
<mgrwt>
<rscale>  2 0.20408896E+02</rscale>
<asrwt>0</asrwt>
<pdfrwt beam="2">  1        2 0.26143991E+00 0.20408896E+02</pdfrwt>
<pdfrwt beam="1">  1       -2 0.90066883E-04 0.20408896E+02</pdfrwt>
<totfact> 0.45252718E+05</totfact>
</mgrwt>
</event>
<event>
 4    1  0.1474645E+004  0.2383704E+02  0.7546771E-02  0.1678290E+00
         -2   -1    0    0    0  501 -0.00000000000E+00  0.00000000000E+00  0.48848820917E+02  0.48848820917E+02  0.00000000000E+00 0. -1.
          2   -1    0    0  501    0  0.00000000000E+00 -0.00000000000E+00 -0.20671706161E+02  0.20671706161E+02  0.00000000000E+00 0.  1.
          2    1    1    2  502    0 -0.10942521559E+02 -0.21177012876E+02 -0.88980264064E+01  0.25443653951E+02  0.00000000000E+00 0.  1.
         -2    1    1    2    0  502  0.10942521559E+02  0.21177012876E+02  0.37075141162E+02  0.44076873127E+02  0.00000000000E+00 0. -1.
<mgrwt>
<rscale>  2 0.23837044E+02</rscale>
<asrwt>0</asrwt>
<pdfrwt beam="2">  1        2 0.31802625E-02 0.23837044E+02</pdfrwt>
<pdfrwt beam="1">  1       -2 0.75152032E-02 0.23837044E+02</pdfrwt>
<totfact> 0.18150176E+05</totfact>
</mgrwt>
</event>
<event>
 4    1  0.1474645E+004  0.2081269E+02  0.7546771E-02  0.1729633E+00
          2   -1    0    0  501    0  0.00000000000E+00  0.00000000000E+00  0.30020078129E+02  0.30020078129E+02  0.00000000000E+00 0. -1.
         -2   -1    0    0    0  501 -0.00000000000E+00 -0.00000000000E+00 -0.15499828600E+03  0.15499828600E+03  0.00000000000E+00 0. -1.
          2    1    1    2  502    0  0.19152064324E+02 -0.81465670517E+01  0.25608922535E+02  0.32999773272E+02  0.00000000000E+00 0. -1.
         -2    1    1    2    0  502 -0.19152064324E+02  0.81465670517E+01 -0.15058713041E+03  0.15201859086E+03  0.00000000000E+00 0. -1.
<mgrwt>
<rscale>  2 0.20812691E+02</rscale>
<asrwt>0</asrwt>
<pdfrwt beam="1">  1        2 0.46184736E-02 0.20812691E+02</pdfrwt>
<pdfrwt beam="2">  1       -2 0.23845890E-01 0.20812691E+02</pdfrwt>
<totfact> 0.18711201E+04</totfact>
</mgrwt>
</event>
<event>
 4    1  0.1474645E+004  0.2140861E+02  0.7546771E-02  0.1718685E+00
         -2   -1    0    0    0  501 -0.00000000000E+00  0.00000000000E+00  0.11456354317E+01  0.11456354317E+01  0.00000000000E+00 0.  1.
          2   -1    0    0  501    0  0.00000000000E+00 -0.00000000000E+00 -0.65607448456E+03  0.65607448456E+03  0.00000000000E+00 0.  1.
          2    1    1    2  502    0 -0.52666255872E+01 -0.20750687942E+02 -0.53273773625E+03  0.53316772597E+03  0.00000000000E+00 0.  1.
         -2    1    1    2    0  502  0.52666255872E+01  0.20750687942E+02 -0.12219111288E+03  0.12405239402E+03  0.00000000000E+00 0.  1.
<mgrwt>
<rscale>  2 0.21408606E+02</rscale>
<asrwt>0</asrwt>
<pdfrwt beam="2">  1        2 0.10093461E+00 0.21408606E+02</pdfrwt>
<pdfrwt beam="1">  1       -2 0.17625148E-03 0.21408606E+02</pdfrwt>
<totfact> 0.67108457E+05</totfact>
</mgrwt>
</event>
<event>
 4    1  0.1474645E+004  0.4049787E+02  0.7546771E-02  0.1504579E+00
         -2   -1    0    0    0  501 -0.00000000000E+00  0.00000000000E+00  0.58511853813E+01  0.58511853813E+01  0.00000000000E+00 0.  1.
          2   -1    0    0  501    0  0.00000000000E+00 -0.00000000000E+00 -0.66692149053E+03  0.66692149053E+03  0.00000000000E+00 0.  1.
          2    1    1    2  502    0  0.40080501592E+02  0.57992380541E+01 -0.58665598195E+03  0.58805213964E+03  0.00000000000E+00 0.  1.
         -2    1    1    2    0  502 -0.40080501592E+02 -0.57992380541E+01 -0.74414323191E+02  0.84720536270E+02  0.00000000000E+00 0.  1.
<mgrwt>
<rscale>  2 0.40497874E+02</rscale>
<asrwt>0</asrwt>
<pdfrwt beam="2">  1        2 0.10260336E+00 0.40497874E+02</pdfrwt>
<pdfrwt beam="1">  1       -2 0.90018190E-03 0.40497874E+02</pdfrwt>
<totfact> 0.85103543E+04</totfact>
</mgrwt>
</event>
<event>
 4    1  0.1474645E+004  0.2029028E+02  0.7546771E-02  0.1739616E+00
         -2   -1    0    0    0  501 -0.00000000000E+00  0.00000000000E+00  0.24748791891E+01  0.24748791891E+01  0.00000000000E+00 0.  1.
          2   -1    0    0  501    0  0.00000000000E+00 -0.00000000000E+00 -0.33571050473E+03  0.33571050473E+03  0.00000000000E+00 0. -1.
          2    1    1    2  502    0 -0.16375459031E+02 -0.11980804747E+02 -0.28671943212E+03  0.28743647663E+03  0.00000000000E+00 0. -1.
         -2    1    1    2    0  502  0.16375459031E+02  0.11980804747E+02 -0.46516193416E+02  0.50748907287E+02  0.00000000000E+00 0.  1.
<mgrwt>
<rscale>  2 0.20290277E+02</rscale>
<asrwt>0</asrwt>
<pdfrwt beam="2">  1        2 0.51647741E-01 0.20290277E+02</pdfrwt>
<pdfrwt beam="1">  1       -2 0.38075086E-03 0.20290277E+02</pdfrwt>
<totfact> 0.46659488E+05</totfact>
</mgrwt>
</event>
<event>
 4    1  0.1474645E+004  0.4122056E+02  0.7546771E-02  0.1499417E+00
         -2   -1    0    0    0  501 -0.00000000000E+00  0.00000000000E+00  0.56200495640E+03  0.56200495640E+03  0.00000000000E+00 0.  1.
          2   -1    0    0  501    0  0.00000000000E+00 -0.00000000000E+00 -0.30551850916E+01  0.30551850916E+01  0.00000000000E+00 0.  1.
          2    1    1    2  502    0 -0.26281890571E+02 -0.31755234394E+02  0.30831916296E+03  0.31106243575E+03  0.00000000000E+00 0.  1.
         -2    1    1    2    0  502  0.26281890571E+02  0.31755234394E+02  0.25063060835E+03  0.25399770575E+03  0.00000000000E+00 0.  1.
<mgrwt>
<rscale>  2 0.41220558E+02</rscale>
<asrwt>0</asrwt>
<pdfrwt beam="2">  1        2 0.47002892E-03 0.41220558E+02</pdfrwt>
<pdfrwt beam="1">  1       -2 0.86462219E-01 0.41220558E+02</pdfrwt>
<totfact> 0.36955301E+04</totfact>
</mgrwt>
</event>
<event>
 4    1  0.1474645E+004  0.5497086E+02  0.7546771E-02  0.1420237E+00
         -2   -1    0    0    0  501 -0.00000000000E+00  0.00000000000E+00  0.10046601504E+03  0.10046601504E+03  0.00000000000E+00 0. -1.
          2   -1    0    0  501    0  0.00000000000E+00 -0.00000000000E+00 -0.14233829586E+03  0.14233829586E+03  0.00000000000E+00 0.  1.
          2    1    1    2  502    0 -0.46561188236E+02 -0.29220734444E+02 -0.12875109803E+03  0.13999514569E+03  0.00000000000E+00 0.  1.
         -2    1    1    2    0  502  0.46561188236E+02  0.29220734444E+02  0.86878817211E+02  0.10280916521E+03  0.00000000000E+00 0. -1.
<mgrwt>
<rscale>  2 0.54970861E+02</rscale>
<asrwt>0</asrwt>
<pdfrwt beam="2">  1        2 0.21898199E-01 0.54970861E+02</pdfrwt>
<pdfrwt beam="1">  1       -2 0.15456310E-01 0.54970861E+02</pdfrwt>
<totfact> 0.71273243E+03</totfact>
</mgrwt>
</event>
<event>
 4    1  0.1474645E+004  0.2161088E+02  0.7546771E-02  0.1715070E+00
          2   -1    0    0  501    0  0.00000000000E+00  0.00000000000E+00  0.31591387339E+02  0.31591387339E+02  0.00000000000E+00 0.  1.
         -2   -1    0    0    0  501 -0.00000000000E+00 -0.00000000000E+00 -0.16041093533E+02  0.16041093533E+02  0.00000000000E+00 0. -1.
          2    1    1    2  502    0  0.19700867902E+02 -0.88829124331E+01  0.14443698794E+02  0.25993283060E+02  0.00000000000E+00 0.  1.
         -2    1    1    2    0  502 -0.19700867902E+02  0.88829124331E+01  0.11065950122E+01  0.21639197811E+02  0.00000000000E+00 0. -1.
<mgrwt>
<rscale>  2 0.21610885E+02</rscale>
<asrwt>0</asrwt>
<pdfrwt beam="1">  1        2 0.48602134E-02 0.21610885E+02</pdfrwt>
<pdfrwt beam="2">  1       -2 0.24678606E-02 0.21610885E+02</pdfrwt>
<totfact> 0.50148984E+05</totfact>
</mgrwt>
</event>
<event>
 4    1  0.1474645E+004  0.2515249E+02  0.7546771E-02  0.1658821E+00
          2   -1    0    0  501    0  0.00000000000E+00  0.00000000000E+00  0.16959392708E+03  0.16959392708E+03  0.00000000000E+00 0. -1.
         -2   -1    0    0    0  501 -0.00000000000E+00 -0.00000000000E+00 -0.88400454567E+02  0.88400454567E+02  0.00000000000E+00 0. -1.
          2    1    1    2  502    0 -0.20016974416E+02  0.15230508692E+02  0.16684284681E+03  0.16872813396E+03  0.00000000000E+00 0. -1.
         -2    1    1    2    0  502  0.20016974416E+02 -0.15230508692E+02 -0.85649374291E+02  0.89266247688E+02  0.00000000000E+00 0. -1.
<mgrwt>
<rscale>  2 0.25152488E+02</rscale>
<asrwt>0</asrwt>
<pdfrwt beam="1">  1        2 0.26091373E-01 0.25152488E+02</pdfrwt>
<pdfrwt beam="2">  1       -2 0.13600070E-01 0.25152488E+02</pdfrwt>
<totfact> 0.66136913E+03</totfact>
</mgrwt>
</event>
<event>
 4    1  0.1474645E+004  0.2113051E+02  0.7546771E-02  0.1723738E+00
         -2   -1    0    0    0  501 -0.00000000000E+00  0.00000000000E+00  0.29297832588E+03  0.29297832588E+03  0.00000000000E+00 0. -1.
          2   -1    0    0  501    0  0.00000000000E+00 -0.00000000000E+00 -0.35525033478E+02  0.35525033478E+02  0.00000000000E+00 0. -1.
          2    1    1    2  502    0 -0.20473763782E+02  0.52272037006E+01 -0.31963274758E+02  0.38316440273E+02  0.00000000000E+00 0. -1.
         -2    1    1    2    0  502  0.20473763782E+02 -0.52272037006E+01  0.28941656716E+03  0.29018691908E+03  0.00000000000E+00 0. -1.
<mgrwt>
<rscale>  2 0.21130515E+02</rscale>
<asrwt>0</asrwt>
<pdfrwt beam="2">  1        2 0.54653900E-02 0.21130515E+02</pdfrwt>
<pdfrwt beam="1">  1       -2 0.45073587E-01 0.21130515E+02</pdfrwt>
<totfact> 0.50357619E+03</totfact>
</mgrwt>
</event>
<event>
 4    1  0.1474645E+004  0.2928261E+02  0.7546771E-02  0.1606156E+00
         -2   -1    0    0    0  501 -0.00000000000E+00  0.00000000000E+00  0.46036474283E+03  0.46036474283E+03  0.00000000000E+00 0.  1.
          2   -1    0    0  501    0  0.00000000000E+00 -0.00000000000E+00 -0.11392809511E+02  0.11392809511E+02  0.00000000000E+00 0.  1.
          2    1    1    2  502    0  0.33958560375E+01  0.29085042475E+02  0.87488541043E+01  0.30561642334E+02  0.00000000000E+00 0.  1.
         -2    1    1    2    0  502 -0.33958560375E+01 -0.29085042475E+02  0.44022307921E+03  0.44119591000E+03  0.00000000000E+00 0.  1.
<mgrwt>
<rscale>  2 0.29282615E+02</rscale>
<asrwt>0</asrwt>
<pdfrwt beam="2">  1        2 0.17527403E-02 0.29282615E+02</pdfrwt>
<pdfrwt beam="1">  1       -2 0.70825331E-01 0.29282615E+02</pdfrwt>
<totfact> 0.92172644E+03</totfact>
</mgrwt>
</event>
<event>
 4    1  0.1474645E+004  0.2240231E+02  0.7546771E-02  0.1701386E+00
          2   -1    0    0  501    0  0.00000000000E+00  0.00000000000E+00  0.26325395566E+02  0.26325395566E+02  0.00000000000E+00 0.  1.
         -2   -1    0    0    0  501 -0.00000000000E+00 -0.00000000000E+00 -0.19066223236E+02  0.19066223236E+02  0.00000000000E+00 0.  1.
          2    1    1    2  502    0  0.22259526259E+02 -0.25252012835E+01  0.33758856104E+01  0.22655236800E+02  0.00000000000E+00 0.  1.
         -2    1    1    2    0  502 -0.22259526259E+02  0.25252012835E+01  0.38832867193E+01  0.22736382002E+02  0.00000000000E+00 0.  1.
<mgrwt>
<rscale>  2 0.22402314E+02</rscale>
<asrwt>0</asrwt>
<pdfrwt beam="1">  1        2 0.40500609E-02 0.22402314E+02</pdfrwt>
<pdfrwt beam="2">  1       -2 0.29332651E-02 0.22402314E+02</pdfrwt>
<totfact> 0.50014142E+05</totfact>
</mgrwt>
</event>
<event>
 4    1  0.1474645E+004  0.2337004E+02  0.7546771E-02  0.1685581E+00
         -2   -1    0    0    0  501 -0.00000000000E+00  0.00000000000E+00  0.11463345017E+02  0.11463345017E+02  0.00000000000E+00 0. -1.
          2   -1    0    0  501    0  0.00000000000E+00 -0.00000000000E+00 -0.14699201304E+03  0.14699201304E+03  0.00000000000E+00 0. -1.
          2    1    1    2  502    0 -0.33543830328E+01 -0.23128053972E+02 -0.13289864426E+03  0.13493779460E+03  0.00000000000E+00 0. -1.
         -2    1    1    2    0  502  0.33543830328E+01  0.23128053972E+02 -0.26300237685E+01  0.23517563459E+02  0.00000000000E+00 0. -1.
<mgrwt>
<rscale>  2 0.23370040E+02</rscale>
<asrwt>0</asrwt>
<pdfrwt beam="2">  1        2 0.22614155E-01 0.23370040E+02</pdfrwt>
<pdfrwt beam="1">  1       -2 0.17635916E-02 0.23370040E+02</pdfrwt>
<totfact> 0.14107572E+05</totfact>
</mgrwt>
</event>
<event>
 4    1  0.1474645E+004  0.3718717E+02  0.7546771E-02  0.1529994E+00
         -2   -1    0    0    0  501 -0.00000000000E+00  0.00000000000E+00  0.72422867711E+02  0.72422867711E+02  0.00000000000E+00 0. -1.
          2   -1    0    0  501    0  0.00000000000E+00 -0.00000000000E+00 -0.20380063654E+02  0.20380063654E+02  0.00000000000E+00 0. -1.
          2    1    1    2  502    0  0.37092967962E+02 -0.26452376517E+01  0.14367827790E+02  0.39866276850E+02  0.00000000000E+00 0. -1.
         -2    1    1    2    0  502 -0.37092967962E+02  0.26452376517E+01  0.37674976267E+02  0.52936654515E+02  0.00000000000E+00 0. -1.
<mgrwt>
<rscale>  2 0.37187169E+02</rscale>
<asrwt>0</asrwt>
<pdfrwt beam="2">  1        2 0.31353945E-02 0.37187169E+02</pdfrwt>
<pdfrwt beam="1">  1       -2 0.11141979E-01 0.37187169E+02</pdfrwt>
<totfact> 0.11474521E+05</totfact>
</mgrwt>
</event>
<event>
 4    1  0.1474645E+004  0.2738483E+02  0.7546771E-02  0.1628936E+00
         -2   -1    0    0    0  501 -0.00000000000E+00  0.00000000000E+00  0.86493719663E+03  0.86493719663E+03  0.00000000000E+00 0. -1.
          2   -1    0    0  501    0  0.00000000000E+00 -0.00000000000E+00 -0.21785335333E+01  0.21785335333E+01  0.00000000000E+00 0.  1.
          2    1    1    2  502    0 -0.25024329289E+02 -0.11122583598E+02  0.94984578840E+02  0.98853422498E+02  0.00000000000E+00 0.  1.
         -2    1    1    2    0  502  0.25024329289E+02  0.11122583598E+02  0.76777408425E+03  0.76826230766E+03  0.00000000000E+00 0. -1.
<mgrwt>
<rscale>  2 0.27384830E+02</rscale>
<asrwt>0</asrwt>
<pdfrwt beam="2">  1        2 0.33515970E-03 0.27384830E+02</pdfrwt>
<pdfrwt beam="1">  1       -2 0.13306699E+00 0.27384830E+02</pdfrwt>
<totfact> 0.19826421E+04</totfact>
</mgrwt>
</event>
<event>
 4    1  0.1474645E+004  0.3002766E+02  0.7546771E-02  0.1597783E+00
         -2   -1    0    0    0  501 -0.00000000000E+00  0.00000000000E+00  0.12748183150E+01  0.12748183150E+01  0.00000000000E+00 0. -1.
          2   -1    0    0  501    0  0.00000000000E+00 -0.00000000000E+00 -0.13636620668E+04  0.13636620668E+04  0.00000000000E+00 0.  1.
          2    1    1    2  502    0  0.16309967456E+02 -0.25212005828E+02 -0.11546781486E+04  0.11550685206E+04  0.00000000000E+00 0.  1.
         -2    1    1    2    0  502 -0.16309967456E+02  0.25212005828E+02 -0.20770909983E+03  0.20986836453E+03  0.00000000000E+00 0. -1.
<mgrwt>
<rscale>  2 0.30027659E+02</rscale>
<asrwt>0</asrwt>
<pdfrwt beam="2">  1        2 0.20979406E+00 0.30027659E+02</pdfrwt>
<pdfrwt beam="1">  1       -2 0.19612599E-03 0.30027659E+02</pdfrwt>
<totfact> 0.25518458E+05</totfact>
</mgrwt>
</event>
<event>
 4    1  0.1474645E+004  0.3060038E+02  0.7546771E-02  0.1591546E+00
         -2   -1    0    0    0  501 -0.00000000000E+00  0.00000000000E+00  0.43113949808E+02  0.43113949808E+02  0.00000000000E+00 0.  1.
          2   -1    0    0  501    0  0.00000000000E+00 -0.00000000000E+00 -0.62972925839E+02  0.62972925839E+02  0.00000000000E+00 0. -1.
          2    1    1    2  502    0 -0.20885233633E+02 -0.22364933398E+02 -0.52862210083E+02  0.61080246272E+02  0.00000000000E+00 0. -1.
         -2    1    1    2    0  502  0.20885233633E+02  0.22364933398E+02  0.33003234052E+02  0.45006629375E+02  0.00000000000E+00 0.  1.
<mgrwt>
<rscale>  2 0.30600380E+02</rscale>
<asrwt>0</asrwt>
<pdfrwt beam="2">  1        2 0.96881423E-02 0.30600380E+02</pdfrwt>
<pdfrwt beam="1">  1       -2 0.66329154E-02 0.30600380E+02</pdfrwt>
<totfact> 0.59424434E+04</totfact>
</mgrwt>
</event>
<event>
 4    1  0.1474645E+004  0.3453048E+02  0.7546771E-02  0.1552810E+00
         -2   -1    0    0    0  501 -0.00000000000E+00  0.00000000000E+00  0.15875479096E+03  0.15875479096E+03  0.00000000000E+00 0. -1.
          2   -1    0    0  501    0  0.00000000000E+00 -0.00000000000E+00 -0.33988147101E+02  0.33988147101E+02  0.00000000000E+00 0. -1.
          2    1    1    2  502    0 -0.33917509280E+02  0.64773716169E+01 -0.22676229921E+02  0.41310594068E+02  0.00000000000E+00 0. -1.
         -2    1    1    2    0  502  0.33917509280E+02 -0.64773716169E+01  0.14744287378E+03  0.15143234399E+03  0.00000000000E+00 0. -1.
<mgrwt>
<rscale>  2 0.34530476E+02</rscale>
<asrwt>0</asrwt>
<pdfrwt beam="2">  1        2 0.52289458E-02 0.34530476E+02</pdfrwt>
<pdfrwt beam="1">  1       -2 0.24423814E-01 0.34530476E+02</pdfrwt>
<totfact> 0.16922141E+04</totfact>
</mgrwt>
</event>
<event>
 4    1  0.1474645E+004  0.4954374E+02  0.7546771E-02  0.1447818E+00
          2   -1    0    0  501    0  0.00000000000E+00  0.00000000000E+00  0.11525694794E+04  0.11525694794E+04  0.00000000000E+00 0.  1.
         -2   -1    0    0    0  501 -0.00000000000E+00 -0.00000000000E+00 -0.22531138848E+01  0.22531138848E+01  0.00000000000E+00 0.  1.
          2    1    1    2  502    0  0.42246412940E+02  0.25880886504E+02  0.43999815901E+03  0.44277868019E+03  0.00000000000E+00 0.  1.
         -2    1    1    2    0  502 -0.42246412940E+02 -0.25880886504E+02  0.71031820649E+03  0.71204391308E+03  0.00000000000E+00 0.  1.
<mgrwt>
<rscale>  2 0.49543740E+02</rscale>
<asrwt>0</asrwt>
<pdfrwt beam="1">  1        2 0.17731791E+00 0.49543740E+02</pdfrwt>
<pdfrwt beam="2">  1       -2 0.34663383E-03 0.49543740E+02</pdfrwt>
<totfact> 0.16642381E+05</totfact>
</mgrwt>
</event>
<event>
 4    1  0.1474645E+004  0.2886871E+02  0.7546771E-02  0.1610941E+00
         -2   -1    0    0    0  501 -0.00000000000E+00  0.00000000000E+00  0.16591413114E+02  0.16591413114E+02  0.00000000000E+00 0.  1.
          2   -1    0    0  501    0  0.00000000000E+00 -0.00000000000E+00 -0.17651883356E+04  0.17651883356E+04  0.00000000000E+00 0. -1.
          2    1    1    2  502    0 -0.58939686902E+00 -0.28862697057E+02 -0.17524210784E+04  0.17526588484E+04  0.00000000000E+00 0. -1.
         -2    1    1    2    0  502  0.58939686902E+00  0.28862697057E+02  0.38241559096E+01  0.29120900372E+02  0.00000000000E+00 0.  1.
<mgrwt>
<rscale>  2 0.28868714E+02</rscale>
<asrwt>0</asrwt>
<pdfrwt beam="2">  1        2 0.27156728E+00 0.28868714E+02</pdfrwt>
<pdfrwt beam="1">  1       -2 0.25525265E-02 0.28868714E+02</pdfrwt>
<totfact> 0.49703932E+03</totfact>
</mgrwt>
</event>
<event>
 4    1  0.1474645E+004  0.1176109E+03  0.7546771E-02  0.1247091E+00
         -2   -1    0    0    0  501 -0.00000000000E+00  0.00000000000E+00  0.84094849882E+02  0.84094849882E+02  0.00000000000E+00 0.  1.
          2   -1    0    0  501    0  0.00000000000E+00 -0.00000000000E+00 -0.13236816017E+04  0.13236816017E+04  0.00000000000E+00 0. -1.
          2    1    1    2  502    0 -0.92334028697E+02 -0.72847385340E+02 -0.12784977451E+04  0.12838959454E+04  0.00000000000E+00 0. -1.
         -2    1    1    2    0  502  0.92334028697E+02  0.72847385340E+02  0.38910993300E+02  0.12388050616E+03  0.00000000000E+00 0.  1.
<mgrwt>
<rscale>  2 0.11761086E+03</rscale>
<asrwt>0</asrwt>
<pdfrwt beam="2">  1        2 0.20364330E+00 0.11761086E+03</pdfrwt>
<pdfrwt beam="1">  1       -2 0.12937671E-01 0.11761086E+03</pdfrwt>
<totfact> 0.75923186E+02</totfact>
</mgrwt>
</event>
<event>
 4    1  0.1474645E+004  0.2571657E+02  0.7546771E-02  0.1650918E+00
         -2   -1    0    0    0  501 -0.00000000000E+00  0.00000000000E+00  0.33261598715E+01  0.33261598715E+01  0.00000000000E+00 0. -1.
          2   -1    0    0  501    0  0.00000000000E+00 -0.00000000000E+00 -0.65326947527E+03  0.65326947527E+03  0.00000000000E+00 0.  1.
          2    1    1    2  502    0 -0.46278710227E+01 -0.25296739086E+02 -0.59878813227E+03  0.59934011174E+03  0.00000000000E+00 0.  1.
         -2    1    1    2    0  502  0.46278710227E+01  0.25296739086E+02 -0.51155183130E+02  0.57255523399E+02  0.00000000000E+00 0. -1.
<mgrwt>
<rscale>  2 0.25716574E+02</rscale>
<asrwt>0</asrwt>
<pdfrwt beam="2">  1        2 0.10050288E+00 0.25716574E+02</pdfrwt>
<pdfrwt beam="1">  1       -2 0.51171751E-03 0.25716574E+02</pdfrwt>
<totfact> 0.17117726E+05</totfact>
</mgrwt>
</event>
<event>
 4    1  0.1474645E+004  0.2407390E+02  0.7546771E-02  0.1674671E+00
          2   -1    0    0  501    0  0.00000000000E+00  0.00000000000E+00  0.14861736286E+03  0.14861736286E+03  0.00000000000E+00 0. -1.
         -2   -1    0    0    0  501 -0.00000000000E+00 -0.00000000000E+00 -0.39766198353E+01  0.39766198353E+01  0.00000000000E+00 0. -1.
          2    1    1    2  502    0  0.23909616201E+02  0.28076437668E+01  0.82936576063E+02  0.86359876444E+02  0.00000000000E+00 0. -1.
         -2    1    1    2    0  502 -0.23909616201E+02 -0.28076437668E+01  0.61704166958E+02  0.66234106248E+02  0.00000000000E+00 0. -1.
<mgrwt>
<rscale>  2 0.24073899E+02</rscale>
<asrwt>0</asrwt>
<pdfrwt beam="1">  1        2 0.22864205E-01 0.24073899E+02</pdfrwt>
<pdfrwt beam="2">  1       -2 0.61178778E-03 0.24073899E+02</pdfrwt>
<totfact> 0.59068514E+05</totfact>
</mgrwt>
</event>
<event>
 4    1  0.1474645E+004  0.2534347E+02  0.7546771E-02  0.1656117E+00
         -2   -1    0    0    0  501 -0.00000000000E+00  0.00000000000E+00  0.40687677933E+02  0.40687677933E+02  0.00000000000E+00 0. -1.
          2   -1    0    0  501    0  0.00000000000E+00 -0.00000000000E+00 -0.61601845024E+02  0.61601845024E+02  0.00000000000E+00 0. -1.
          2    1    1    2  502    0  0.36736754596E+01  0.25075799582E+02 -0.54564601747E+02  0.60163006739E+02  0.00000000000E+00 0. -1.
         -2    1    1    2    0  502 -0.36736754596E+01 -0.25075799582E+02  0.33650434656E+02  0.42126516217E+02  0.00000000000E+00 0. -1.
<mgrwt>
<rscale>  2 0.25343473E+02</rscale>
<asrwt>0</asrwt>
<pdfrwt beam="2">  1        2 0.94772069E-02 0.25343473E+02</pdfrwt>
<pdfrwt beam="1">  1       -2 0.62596428E-02 0.25343473E+02</pdfrwt>
<totfact> 0.63686351E+04</totfact>
</mgrwt>
</event>
<event>
 4    1  0.1474645E+004  0.2976530E+02  0.7546771E-02  0.1600698E+00
          2   -1    0    0  501    0  0.00000000000E+00  0.00000000000E+00  0.39087844281E+03  0.39087844281E+03  0.00000000000E+00 0.  1.
         -2   -1    0    0    0  501 -0.00000000000E+00 -0.00000000000E+00 -0.49912215927E+02  0.49912215927E+02  0.00000000000E+00 0.  1.
          2    1    1    2  502    0 -0.17298922541E+02 -0.24222313347E+02  0.38581598861E+03  0.38696246620E+03  0.00000000000E+00 0.  1.
         -2    1    1    2    0  502  0.17298922541E+02  0.24222313347E+02 -0.44849761723E+02  0.53828192535E+02  0.00000000000E+00 0.  1.
<mgrwt>
<rscale>  2 0.29765302E+02</rscale>
<asrwt>0</asrwt>
<pdfrwt beam="1">  1        2 0.60135143E-01 0.29765302E+02</pdfrwt>
<pdfrwt beam="2">  1       -2 0.76788027E-02 0.29765302E+02</pdfrwt>
<totfact> 0.68903208E+03</totfact>
</mgrwt>
</event>
<event>
 4    1  0.1522250E+004  0.2237844E+02  0.7546771E-02  0.1701788E+00
          2   -1    0    0  501    0  0.00000000000E+00  0.00000000000E+00  0.12391653488E+04  0.12391653488E+04  0.00000000000E+00 0. -1.
         -2   -1    0    0    0  501 -0.00000000000E+00 -0.00000000000E+00 -0.20425171682E+03  0.20425171682E+03  0.00000000000E+00 0. -1.
          2    1    1    2  502    0  0.22198408293E+02  0.28328559409E+01  0.12384509983E+04  0.12386531676E+04  0.00000000000E+00 0. -1.
         -2    1    1    2    0  502 -0.22198408293E+02 -0.28328559409E+01 -0.20353736637E+03  0.20476389798E+03  0.00000000000E+00 0. -1.
<mgrwt>
<rscale>  2 0.22378436E+02</rscale>
<asrwt>0</asrwt>
<pdfrwt beam="1">  1        2 0.19064082E+00 0.22378436E+02</pdfrwt>
<pdfrwt beam="2">  1       -2 0.31423342E-01 0.22378436E+02</pdfrwt>
<totfact> 0.20058245E+02</totfact>
</mgrwt>
</event>
<event>
 4    1  0.1474645E+004  0.3216006E+02  0.7546771E-02  0.1575370E+00
          2   -1    0    0  501    0  0.00000000000E+00  0.00000000000E+00  0.51312169834E+02  0.51312169834E+02  0.00000000000E+00 0.  1.
         -2   -1    0    0    0  501 -0.00000000000E+00 -0.00000000000E+00 -0.22986878360E+02  0.22986878360E+02  0.00000000000E+00 0. -1.
          2    1    1    2  502    0 -0.85101685881E+01 -0.31013647191E+02  0.27198580738E+02  0.42119260151E+02  0.00000000000E+00 0.  1.
         -2    1    1    2    0  502  0.85101685881E+01  0.31013647191E+02  0.11267107360E+01  0.32179788044E+02  0.00000000000E+00 0. -1.
<mgrwt>
<rscale>  2 0.32160057E+02</rscale>
<asrwt>0</asrwt>
<pdfrwt beam="1">  1        2 0.78941799E-02 0.32160057E+02</pdfrwt>
<pdfrwt beam="2">  1       -2 0.35364429E-02 0.32160057E+02</pdfrwt>
<totfact> 0.18880719E+05</totfact>
</mgrwt>
</event>
<event>
 4    1  0.1474645E+004  0.2322552E+02  0.7546771E-02  0.1687880E+00
         -2   -1    0    0    0  501 -0.00000000000E+00  0.00000000000E+00  0.22184511328E+02  0.22184511328E+02  0.00000000000E+00 0.  1.
          2   -1    0    0  501    0  0.00000000000E+00 -0.00000000000E+00 -0.31529712635E+03  0.31529712635E+03  0.00000000000E+00 0.  1.
          2    1    1    2  502    0  0.16391303201E+02 -0.16454480286E+02 -0.30866004260E+03  0.30953262613E+03  0.00000000000E+00 0.  1.
         -2    1    1    2    0  502 -0.16391303201E+02  0.16454480286E+02  0.15547427578E+02  0.27949011546E+02  0.00000000000E+00 0.  1.
<mgrwt>
<rscale>  2 0.23225519E+02</rscale>
<asrwt>0</asrwt>
<pdfrwt beam="2">  1        2 0.48507250E-01 0.23225519E+02</pdfrwt>
<pdfrwt beam="1">  1       -2 0.34130018E-02 0.23225519E+02</pdfrwt>
<totfact> 0.26233163E+04</totfact>
</mgrwt>
</event>
<event>
 4    1  0.1474645E+004  0.4325875E+02  0.7546771E-02  0.1485514E+00
         -2   -1    0    0    0  501 -0.00000000000E+00  0.00000000000E+00  0.36438352632E+02  0.36438352632E+02  0.00000000000E+00 0. -1.
          2   -1    0    0  501    0  0.00000000000E+00 -0.00000000000E+00 -0.58063923383E+02  0.58063923383E+02  0.00000000000E+00 0.  1.
          2    1    1    2  502    0 -0.31978890913E+02 -0.29131940221E+02 -0.26873349644E+02  0.50926381436E+02  0.00000000000E+00 0.  1.
         -2    1    1    2    0  502  0.31978890913E+02  0.29131940221E+02  0.52477788935E+01  0.43575894579E+02  0.00000000000E+00 0. -1.
<mgrwt>
<rscale>  2 0.43258749E+02</rscale>
<asrwt>0</asrwt>
<pdfrwt beam="2">  1        2 0.89329113E-02 0.43258749E+02</pdfrwt>
<pdfrwt beam="1">  1       -2 0.56059004E-02 0.43258749E+02</pdfrwt>
<totfact> 0.89675763E+04</totfact>
</mgrwt>
</event>
<event>
 4    1  0.1474645E+004  0.4383262E+02  0.7546771E-02  0.1481764E+00
          2   -1    0    0  501    0  0.00000000000E+00  0.00000000000E+00  0.36131289256E+03  0.36131289256E+03  0.00000000000E+00 0. -1.
         -2   -1    0    0    0  501 -0.00000000000E+00 -0.00000000000E+00 -0.12509791419E+02  0.12509791419E+02  0.00000000000E+00 0.  1.
          2    1    1    2  502    0  0.35954556393E+02  0.25071262516E+02  0.31612536636E+03  0.31914972284E+03  0.00000000000E+00 0. -1.
         -2    1    1    2    0  502 -0.35954556393E+02 -0.25071262516E+02  0.32677734775E+02  0.54672961138E+02  0.00000000000E+00 0.  1.
<mgrwt>
<rscale>  2 0.43832617E+02</rscale>
<asrwt>0</asrwt>
<pdfrwt beam="1">  1        2 0.55586591E-01 0.43832617E+02</pdfrwt>
<pdfrwt beam="2">  1       -2 0.19245836E-02 0.43832617E+02</pdfrwt>
<totfact> 0.57019257E+04</totfact>
</mgrwt>
</event>
<event>
 4    1  0.1474645E+004  0.2503452E+02  0.7546771E-02  0.1660507E+00
         -2   -1    0    0    0  501 -0.00000000000E+00  0.00000000000E+00  0.14101405225E+03  0.14101405225E+03  0.00000000000E+00 0.  1.
          2   -1    0    0  501    0  0.00000000000E+00 -0.00000000000E+00 -0.47987413306E+01  0.47987413306E+01  0.00000000000E+00 0. -1.
          2    1    1    2  502    0  0.82770490378E+01 -0.23626633691E+02  0.48297253612E+02  0.54399927084E+02  0.00000000000E+00 0. -1.
         -2    1    1    2    0  502 -0.82770490378E+01  0.23626633691E+02  0.87918057304E+02  0.91412866493E+02  0.00000000000E+00 0.  1.
<mgrwt>
<rscale>  2 0.25034523E+02</rscale>
<asrwt>0</asrwt>
<pdfrwt beam="2">  1        2 0.73826800E-03 0.25034523E+02</pdfrwt>
<pdfrwt beam="1">  1       -2 0.21694466E-01 0.25034523E+02</pdfrwt>
<totfact> 0.23867055E+05</totfact>
</mgrwt>
</event>
<event>
 4    1  0.1474645E+004  0.2959382E+02  0.7546771E-02  0.1602622E+00
         -2   -1    0    0    0  501 -0.00000000000E+00  0.00000000000E+00  0.31869684699E+02  0.31869684699E+02  0.00000000000E+00 0.  1.
          2   -1    0    0  501    0  0.00000000000E+00 -0.00000000000E+00 -0.49929449360E+02  0.49929449360E+02  0.00000000000E+00 0.  1.
          2    1    1    2  502    0  0.22443729316E+02  0.19289201132E+02 -0.36454369545E+02  0.46954396225E+02  0.00000000000E+00 0.  1.
         -2    1    1    2    0  502 -0.22443729316E+02 -0.19289201132E+02  0.18394604884E+02  0.34844737835E+02  0.00000000000E+00 0.  1.
<mgrwt>
<rscale>  2 0.29593821E+02</rscale>
<asrwt>0</asrwt>
<pdfrwt beam="2">  1        2 0.76814538E-02 0.29593821E+02</pdfrwt>
<pdfrwt beam="1">  1       -2 0.49030284E-02 0.29593821E+02</pdfrwt>
<totfact> 0.12010965E+05</totfact>
</mgrwt>
</event>
<event>
 4    1  0.1474645E+004  0.2018760E+02  0.7546771E-02  0.1741623E+00
          2   -1    0    0  501    0  0.00000000000E+00  0.00000000000E+00  0.91347105810E+01  0.91347105810E+01  0.00000000000E+00 0. -1.
         -2   -1    0    0    0  501 -0.00000000000E+00 -0.00000000000E+00 -0.14427640612E+03  0.14427640612E+03  0.00000000000E+00 0. -1.
          2    1    1    2  502    0 -0.15866172285E+02 -0.12482142591E+02 -0.38188104921E+01  0.20545622897E+02  0.00000000000E+00 0. -1.
         -2    1    1    2    0  502  0.15866172285E+02  0.12482142591E+02 -0.13132288505E+03  0.13286549381E+03  0.00000000000E+00 0. -1.
<mgrwt>
<rscale>  2 0.20187603E+02</rscale>
<asrwt>0</asrwt>
<pdfrwt beam="1">  1        2 0.14053402E-02 0.20187603E+02</pdfrwt>
<pdfrwt beam="2">  1       -2 0.22196369E-01 0.20187603E+02</pdfrwt>
<totfact> 0.93563165E+04</totfact>
</mgrwt>
</event>
<event>
 4    1  0.1474645E+004  0.3313170E+02  0.7546771E-02  0.1565846E+00
         -2   -1    0    0    0  501 -0.00000000000E+00  0.00000000000E+00  0.39007994053E+01  0.39007994053E+01  0.00000000000E+00 0. -1.
          2   -1    0    0  501    0  0.00000000000E+00 -0.00000000000E+00 -0.71044273134E+03  0.71044273134E+03  0.00000000000E+00 0. -1.
          2    1    1    2  502    0 -0.31844540132E+02 -0.91451949728E+01 -0.63083276549E+03  0.63170221414E+03  0.00000000000E+00 0. -1.
         -2    1    1    2    0  502  0.31844540132E+02  0.91451949728E+01 -0.75709166444E+02  0.82641316610E+02  0.00000000000E+00 0. -1.
<mgrwt>
<rscale>  2 0.33131697E+02</rscale>
<asrwt>0</asrwt>
<pdfrwt beam="2">  1        2 0.10929890E+00 0.33131697E+02</pdfrwt>
<pdfrwt beam="1">  1       -2 0.60012288E-03 0.33131697E+02</pdfrwt>
<totfact> 0.13307366E+05</totfact>
</mgrwt>
</event>
<event>
 4    1  0.1474645E+004  0.2793502E+02  0.7546771E-02  0.1622104E+00
          2   -1    0    0  501    0  0.00000000000E+00  0.00000000000E+00  0.72356458838E+03  0.72356458838E+03  0.00000000000E+00 0.  1.
         -2   -1    0    0    0  501 -0.00000000000E+00 -0.00000000000E+00 -0.37531546612E+01  0.37531546612E+01  0.00000000000E+00 0. -1.
          2    1    1    2  502    0  0.77159444107E+01  0.26848264682E+02  0.66689960888E+03  0.66748442187E+03  0.00000000000E+00 0.  1.
         -2    1    1    2    0  502 -0.77159444107E+01 -0.26848264682E+02  0.52911824838E+02  0.59833321170E+02  0.00000000000E+00 0. -1.
<mgrwt>
<rscale>  2 0.27935016E+02</rscale>
<asrwt>0</asrwt>
<pdfrwt beam="1">  1        2 0.11131752E+00 0.27935016E+02</pdfrwt>
<pdfrwt beam="2">  1       -2 0.57740899E-03 0.27935016E+02</pdfrwt>
<totfact> 0.13257135E+05</totfact>
</mgrwt>
</event>
<event>
 4    1  0.1474645E+004  0.2008361E+02  0.7546771E-02  0.1743671E+00
         -2   -1    0    0    0  501 -0.00000000000E+00  0.00000000000E+00  0.87766945014E+00  0.87766945014E+00  0.00000000000E+00 0.  1.
          2   -1    0    0  501    0  0.00000000000E+00 -0.00000000000E+00 -0.75703289226E+03  0.75703289226E+03  0.00000000000E+00 0.  1.
          2    1    1    2  502    0 -0.17401613954E+02 -0.10026720054E+02 -0.61562287547E+03  0.61595038444E+03  0.00000000000E+00 0.  1.
         -2    1    1    2    0  502  0.17401613954E+02  0.10026720054E+02 -0.14053234734E+03  0.14196017727E+03  0.00000000000E+00 0.  1.
<mgrwt>
<rscale>  2 0.20083607E+02</rscale>
<asrwt>0</asrwt>
<pdfrwt beam="2">  1        2 0.11646730E+00 0.20083607E+02</pdfrwt>
<pdfrwt beam="1">  1       -2 0.13502526E-03 0.20083607E+02</pdfrwt>
<totfact> 0.80028560E+05</totfact>
</mgrwt>
</event>
<event>
 4    1  0.1474645E+004  0.3087234E+02  0.7546771E-02  0.1588642E+00
          2   -1    0    0  501    0  0.00000000000E+00  0.00000000000E+00  0.16871918036E+04  0.16871918036E+04  0.00000000000E+00 0.  1.
         -2   -1    0    0    0  501 -0.00000000000E+00 -0.00000000000E+00 -0.25813597476E+01  0.25813597476E+01  0.00000000000E+00 0.  1.
          2    1    1    2  502    0 -0.99114509541E+01 -0.29238068961E+02  0.15890436221E+04  0.15893434916E+04  0.00000000000E+00 0.  1.
         -2    1    1    2    0  502  0.99114509541E+01  0.29238068961E+02  0.95566821814E+02  0.10042967175E+03  0.00000000000E+00 0.  1.
<mgrwt>
<rscale>  2 0.30872343E+02</rscale>
<asrwt>0</asrwt>
<pdfrwt beam="1">  1        2 0.25956709E+00 0.30872343E+02</pdfrwt>
<pdfrwt beam="2">  1       -2 0.39713362E-03 0.30872343E+02</pdfrwt>
<totfact> 0.69468745E+04</totfact>
</mgrwt>
</event>
<event>
 4    1  0.1474645E+004  0.2635370E+02  0.7546771E-02  0.1642286E+00
         -2   -1    0    0    0  501 -0.00000000000E+00  0.00000000000E+00  0.92291421177E+02  0.92291421177E+02  0.00000000000E+00 0.  1.
          2   -1    0    0  501    0  0.00000000000E+00 -0.00000000000E+00 -0.19561263415E+02  0.19561263415E+02  0.00000000000E+00 0. -1.
          2    1    1    2  502    0  0.90503721694E+01  0.24750924752E+02 -0.75040494358E+01  0.27401245782E+02  0.00000000000E+00 0. -1.
         -2    1    1    2    0  502 -0.90503721694E+01 -0.24750924752E+02  0.80234207198E+02  0.84451438811E+02  0.00000000000E+00 0.  1.
<mgrwt>
<rscale>  2 0.26353700E+02</rscale>
<asrwt>0</asrwt>
<pdfrwt beam="2">  1        2 0.30094252E-02 0.26353700E+02</pdfrwt>
<pdfrwt beam="1">  1       -2 0.14198680E-01 0.26353700E+02</pdfrwt>
<totfact> 0.76882692E+04</totfact>
</mgrwt>
</event>
<event>
 4    1  0.1474645E+004  0.2328098E+02  0.7546771E-02  0.1686996E+00
         -2   -1    0    0    0  501 -0.00000000000E+00  0.00000000000E+00  0.33790441018E+01  0.33790441018E+01  0.00000000000E+00 0.  1.
          2   -1    0    0  501    0  0.00000000000E+00 -0.00000000000E+00 -0.58337692108E+03  0.58337692108E+03  0.00000000000E+00 0.  1.
          2    1    1    2  502    0 -0.32819591884E+01 -0.23048488993E+02 -0.53980927653E+03  0.54031107626E+03  0.00000000000E+00 0.  1.
         -2    1    1    2    0  502  0.32819591884E+01  0.23048488993E+02 -0.40188600447E+02  0.46444888921E+02  0.00000000000E+00 0.  1.
<mgrwt>
<rscale>  2 0.23280982E+02</rscale>
<asrwt>0</asrwt>
<pdfrwt beam="2">  1        2 0.89750389E-01 0.23280982E+02</pdfrwt>
<pdfrwt beam="1">  1       -2 0.51985240E-03 0.23280982E+02</pdfrwt>
<totfact> 0.18432963E+05</totfact>
</mgrwt>
</event>
<event>
 4    1  0.1498967E+004  0.2608228E+02  0.7546771E-02  0.1645926E+00
         -2   -1    0    0    0  501 -0.00000000000E+00  0.00000000000E+00  0.13301445490E+03  0.13301445490E+03  0.00000000000E+00 0.  1.
          2   -1    0    0  501    0  0.00000000000E+00 -0.00000000000E+00 -0.12358742258E+04  0.12358742258E+04  0.00000000000E+00 0. -1.
          2    1    1    2  502    0 -0.75858625557E+00 -0.26071242188E+02 -0.12344565530E+04  0.12347320626E+04  0.00000000000E+00 0. -1.
         -2    1    1    2    0  502  0.75858625557E+00  0.26071242188E+02  0.13159678211E+03  0.13415661811E+03  0.00000000000E+00 0.  1.
<mgrwt>
<rscale>  2 0.26082276E+02</rscale>
<asrwt>0</asrwt>
<pdfrwt beam="2">  1        2 0.19013450E+00 0.26082276E+02</pdfrwt>
<pdfrwt beam="1">  1       -2 0.20463762E-01 0.26082276E+02</pdfrwt>
<totfact> 0.41138307E+02</totfact>
</mgrwt>
</event>
<event>
 4    1  0.1474645E+004  0.2370840E+02  0.7546771E-02  0.1680278E+00
         -2   -1    0    0    0  501 -0.00000000000E+00  0.00000000000E+00  0.39733879637E+01  0.39733879637E+01  0.00000000000E+00 0. -1.
          2   -1    0    0  501    0  0.00000000000E+00 -0.00000000000E+00 -0.84284363013E+03  0.84284363013E+03  0.00000000000E+00 0.  1.
          2    1    1    2  502    0  0.12868618684E+02  0.19911974524E+02 -0.80568015351E+03  0.80602890633E+03  0.00000000000E+00 0.  1.
         -2    1    1    2    0  502 -0.12868618684E+02 -0.19911974524E+02 -0.33190088649E+02  0.40788111758E+02  0.00000000000E+00 0. -1.
<mgrwt>
<rscale>  2 0.23708397E+02</rscale>
<asrwt>0</asrwt>
<pdfrwt beam="2">  1        2 0.12966844E+00 0.23708397E+02</pdfrwt>
<pdfrwt beam="1">  1       -2 0.61128958E-03 0.23708397E+02</pdfrwt>
<totfact> 0.99716476E+04</totfact>
</mgrwt>
</event>
<event>
 4    1  0.1474645E+004  0.2768338E+02  0.7546771E-02  0.1625204E+00
          2   -1    0    0  501    0  0.00000000000E+00  0.00000000000E+00  0.81977115965E+02  0.81977115965E+02  0.00000000000E+00 0. -1.
         -2   -1    0    0    0  501 -0.00000000000E+00 -0.00000000000E+00 -0.89339574957E+03  0.89339574957E+03  0.00000000000E+00 0.  1.
          2    1    1    2  502    0 -0.27300741939E+02 -0.45868313033E+01  0.79418806955E+02  0.84105388828E+02  0.00000000000E+00 0. -1.
         -2    1    1    2    0  502  0.27300741939E+02  0.45868313033E+01 -0.89083744056E+03  0.89126747670E+03  0.00000000000E+00 0.  1.
<mgrwt>
<rscale>  2 0.27683380E+02</rscale>
<asrwt>0</asrwt>
<pdfrwt beam="1">  1        2 0.12611865E-01 0.27683380E+02</pdfrwt>
<pdfrwt beam="2">  1       -2 0.13744549E+00 0.27683380E+02</pdfrwt>
<totfact> 0.18435144E+02</totfact>
</mgrwt>
</event>
<event>
 4    1  0.1474645E+004  0.2075819E+02  0.7546771E-02  0.1730658E+00
         -2   -1    0    0    0  501 -0.00000000000E+00  0.00000000000E+00  0.84052858451E+02  0.84052858451E+02  0.00000000000E+00 0.  1.
          2   -1    0    0  501    0  0.00000000000E+00 -0.00000000000E+00 -0.98497355047E+01  0.98497355047E+01  0.00000000000E+00 0.  1.
          2    1    1    2  502    0 -0.18147477830E+02 -0.10078264811E+02  0.45889271794E+01  0.21259365603E+02  0.00000000000E+00 0.  1.
         -2    1    1    2    0  502  0.18147477830E+02  0.10078264811E+02  0.69614195767E+02  0.72643228352E+02  0.00000000000E+00 0.  1.
<mgrwt>
<rscale>  2 0.20758188E+02</rscale>
<asrwt>0</asrwt>
<pdfrwt beam="2">  1        2 0.15153440E-02 0.20758188E+02</pdfrwt>
<pdfrwt beam="1">  1       -2 0.12931208E-01 0.20758188E+02</pdfrwt>
<totfact> 0.20002415E+05</totfact>
</mgrwt>
</event>
<event>
 4    1  0.1474645E+004  0.2859878E+02  0.7546771E-02  0.1614115E+00
         -2   -1    0    0    0  501 -0.00000000000E+00  0.00000000000E+00  0.49236995087E+01  0.49236995087E+01  0.00000000000E+00 0.  1.
          2   -1    0    0  501    0  0.00000000000E+00 -0.00000000000E+00 -0.11126405829E+04  0.11126405829E+04  0.00000000000E+00 0.  1.
          2    1    1    2  502    0 -0.10992884845E+02 -0.26401638939E+02 -0.10692433853E+04  0.10696257790E+04  0.00000000000E+00 0.  1.
         -2    1    1    2    0  502  0.10992884845E+02  0.26401638939E+02 -0.38473498117E+02  0.47938503452E+02  0.00000000000E+00 0.  1.
<mgrwt>
<rscale>  2 0.28598777E+02</rscale>
<asrwt>0</asrwt>
<pdfrwt beam="2">  1        2 0.17117544E+00 0.28598777E+02</pdfrwt>
<pdfrwt beam="1">  1       -2 0.75749241E-03 0.28598777E+02</pdfrwt>
<totfact> 0.54783091E+04</totfact>
</mgrwt>
</event>
<event>
 4    1  0.1474645E+004  0.2597255E+02  0.7546771E-02  0.1647413E+00
          2   -1    0    0  501    0  0.00000000000E+00  0.00000000000E+00  0.74045045048E+02  0.74045045048E+02  0.00000000000E+00 0. -1.
         -2   -1    0    0    0  501 -0.00000000000E+00 -0.00000000000E+00 -0.27413869760E+02  0.27413869760E+02  0.00000000000E+00 0. -1.
          2    1    1    2  502    0 -0.25776745079E+02  0.31831660491E+01  0.64767336137E+02  0.69780949859E+02  0.00000000000E+00 0. -1.
         -2    1    1    2    0  502  0.25776745079E+02 -0.31831660491E+01 -0.18136160849E+02  0.31677964949E+02  0.00000000000E+00 0. -1.
<mgrwt>
<rscale>  2 0.25972546E+02</rscale>
<asrwt>0</asrwt>
<pdfrwt beam="1">  1        2 0.11391545E-01 0.25972546E+02</pdfrwt>
<pdfrwt beam="2">  1       -2 0.42175185E-02 0.25972546E+02</pdfrwt>
<totfact> 0.91102167E+04</totfact>
</mgrwt>
</event>
<event>
 4    1  0.1474645E+004  0.2994594E+02  0.7546771E-02  0.1598687E+00
          2   -1    0    0  501    0  0.00000000000E+00  0.00000000000E+00  0.17003249855E+04  0.17003249855E+04  0.00000000000E+00 0.  1.
         -2   -1    0    0    0  501 -0.00000000000E+00 -0.00000000000E+00 -0.24725625455E+02  0.24725625455E+02  0.00000000000E+00 0.  1.
          2    1    1    2  502    0  0.53697348059E+01 -0.29460576326E+02  0.16910764425E+04  0.16913415663E+04  0.00000000000E+00 0.  1.
         -2    1    1    2    0  502 -0.53697348059E+01  0.29460576326E+02 -0.15477082445E+02  0.33709044637E+02  0.00000000000E+00 0.  1.
<mgrwt>
<rscale>  2 0.29945945E+02</rscale>
<asrwt>0</asrwt>
<pdfrwt beam="1">  1        2 0.26158837E+00 0.29945945E+02</pdfrwt>
<pdfrwt beam="2">  1       -2 0.38039437E-02 0.29945945E+02</pdfrwt>
<totfact> 0.30508141E+03</totfact>
</mgrwt>
</event>
<event>
 4    1  0.1474645E+004  0.2113597E+02  0.7546771E-02  0.1723638E+00
         -2   -1    0    0    0  501 -0.00000000000E+00  0.00000000000E+00  0.27618655701E+01  0.27618655701E+01  0.00000000000E+00 0. -1.
          2   -1    0    0  501    0  0.00000000000E+00 -0.00000000000E+00 -0.22445382833E+03  0.22445382833E+03  0.00000000000E+00 0. -1.
          2    1    1    2  502    0  0.78274490433E+01  0.19633140046E+02 -0.17089350769E+03  0.17219558681E+03  0.00000000000E+00 0. -1.
         -2    1    1    2    0  502 -0.78274490433E+01 -0.19633140046E+02 -0.50798455069E+02  0.55020107088E+02  0.00000000000E+00 0. -1.
<mgrwt>
<rscale>  2 0.21135968E+02</rscale>
<asrwt>0</asrwt>
<pdfrwt beam="2">  1        2 0.34531353E-01 0.21135968E+02</pdfrwt>
<pdfrwt beam="1">  1       -2 0.42490246E-03 0.21135968E+02</pdfrwt>
<totfact> 0.60690927E+05</totfact>
</mgrwt>
</event>
<event>
 4    1  0.1474645E+004  0.2150574E+02  0.7546771E-02  0.1716943E+00
          2   -1    0    0  501    0  0.00000000000E+00  0.00000000000E+00  0.36696022615E+03  0.36696022615E+03  0.00000000000E+00 0. -1.
         -2   -1    0    0    0  501 -0.00000000000E+00 -0.00000000000E+00 -0.25331743380E+01  0.25331743380E+01  0.00000000000E+00 0.  1.
          2    1    1    2  502    0  0.91691830059E+01  0.19453091927E+02  0.31317065276E+03  0.31390819430E+03  0.00000000000E+00 0. -1.
         -2    1    1    2    0  502 -0.91691830059E+01 -0.19453091927E+02  0.51256399056E+02  0.55585206186E+02  0.00000000000E+00 0.  1.
<mgrwt>
<rscale>  2 0.21505737E+02</rscale>
<asrwt>0</asrwt>
<pdfrwt beam="1">  1        2 0.56455377E-01 0.21505737E+02</pdfrwt>
<pdfrwt beam="2">  1       -2 0.38971942E-03 0.21505737E+02</pdfrwt>
<totfact> 0.42192113E+05</totfact>
</mgrwt>
</event>
<event>
 4    1  0.1474645E+004  0.2681541E+02  0.7546771E-02  0.1636217E+00
          2   -1    0    0  501    0  0.00000000000E+00  0.00000000000E+00  0.25439072696E+03  0.25439072696E+03  0.00000000000E+00 0. -1.
         -2   -1    0    0    0  501 -0.00000000000E+00 -0.00000000000E+00 -0.31974090112E+01  0.31974090112E+01  0.00000000000E+00 0.  1.
          2    1    1    2  502    0 -0.90363440325E+01 -0.25246988909E+02  0.16945579632E+03  0.17156436946E+03  0.00000000000E+00 0. -1.
         -2    1    1    2    0  502  0.90363440325E+01  0.25246988909E+02  0.81737521634E+02  0.86023766514E+02  0.00000000000E+00 0.  1.
<mgrwt>
<rscale>  2 0.26815405E+02</rscale>
<asrwt>0</asrwt>
<pdfrwt beam="1">  1        2 0.39137019E-01 0.26815405E+02</pdfrwt>
<pdfrwt beam="2">  1       -2 0.49190928E-03 0.26815405E+02</pdfrwt>
<totfact> 0.47293053E+05</totfact>
</mgrwt>
</event>
<event>
 4    1  0.1474645E+004  0.6729310E+02  0.7546771E-02  0.1369548E+00
          2   -1    0    0  501    0  0.00000000000E+00  0.00000000000E+00  0.23826464396E+04  0.23826464396E+04  0.00000000000E+00 0. -1.
         -2   -1    0    0    0  501 -0.00000000000E+00 -0.00000000000E+00 -0.22086965235E+01  0.22086965235E+01  0.00000000000E+00 0.  1.
          2    1    1    2  502    0 -0.63722381608E+02 -0.21629146344E+02  0.16356040487E+04  0.16369877721E+04  0.00000000000E+00 0. -1.
         -2    1    1    2    0  502  0.63722381608E+02  0.21629146344E+02  0.74483369443E+03  0.74786736407E+03  0.00000000000E+00 0.  1.
<mgrwt>
<rscale>  2 0.67293104E+02</rscale>
<asrwt>0</asrwt>
<pdfrwt beam="1">  1        2 0.36655893E+00 0.67293104E+02</pdfrwt>
<pdfrwt beam="2">  1       -2 0.33980137E-03 0.67293104E+02</pdfrwt>
<totfact> 0.43091073E+04</totfact>
</mgrwt>
</event>
<event>
 4    1  0.1474645E+004  0.3436556E+02  0.7546771E-02  0.1554308E+00
         -2   -1    0    0    0  501 -0.00000000000E+00  0.00000000000E+00  0.39343434360E+02  0.39343434360E+02  0.00000000000E+00 0.  1.
          2   -1    0    0  501    0  0.00000000000E+00 -0.00000000000E+00 -0.14796147441E+03  0.14796147441E+03  0.00000000000E+00 0. -1.
          2    1    1    2  502    0 -0.31977833380E+02 -0.12586102609E+02 -0.13792373335E+03  0.14214059247E+03  0.00000000000E+00 0. -1.
         -2    1    1    2    0  502  0.31977833380E+02  0.12586102609E+02  0.29305693303E+02  0.45164316297E+02  0.00000000000E+00 0.  1.
<mgrwt>
<rscale>  2 0.34365561E+02</rscale>
<asrwt>0</asrwt>
<pdfrwt beam="2">  1        2 0.22763304E-01 0.34365561E+02</pdfrwt>
<pdfrwt beam="1">  1       -2 0.60528361E-02 0.34365561E+02</pdfrwt>
<totfact> 0.26764827E+04</totfact>
</mgrwt>
</event>
<event>
 4    1  0.1474645E+004  0.2692776E+02  0.7546771E-02  0.1634763E+00
          2   -1    0    0  501    0  0.00000000000E+00  0.00000000000E+00  0.18037735722E+04  0.18037735722E+04  0.00000000000E+00 0.  1.
         -2   -1    0    0    0  501 -0.00000000000E+00 -0.00000000000E+00 -0.45857362099E+00  0.45857362099E+00  0.00000000000E+00 0. -1.
          2    1    1    2  502    0 -0.24588293261E+02 -0.10978160772E+02  0.12185355102E+04  0.12188330048E+04  0.00000000000E+00 0.  1.
         -2    1    1    2    0  502  0.24588293261E+02  0.10978160772E+02  0.58477948841E+03  0.58539914097E+03  0.00000000000E+00 0. -1.
<mgrwt>
<rscale>  2 0.26927759E+02</rscale>
<asrwt>0</asrwt>
<pdfrwt beam="1">  1        2 0.27749795E+00 0.26927759E+02</pdfrwt>
<pdfrwt beam="2">  1       -2 0.70551232E-04 0.26927759E+02</pdfrwt>
<totfact> 0.59806385E+05</totfact>
</mgrwt>
</event>
<event>
 4    1  0.1474645E+004  0.2106674E+02  0.7546771E-02  0.1724911E+00
          2   -1    0    0  501    0  0.00000000000E+00  0.00000000000E+00  0.47069215407E+03  0.47069215407E+03  0.00000000000E+00 0.  1.
         -2   -1    0    0    0  501 -0.00000000000E+00 -0.00000000000E+00 -0.23874306942E+01  0.23874306942E+01  0.00000000000E+00 0.  1.
          2    1    1    2  502    0 -0.32858617015E+01 -0.20808910981E+02  0.41814682597E+03  0.41867717365E+03  0.00000000000E+00 0.  1.
         -2    1    1    2    0  502  0.32858617015E+01  0.20808910981E+02  0.50157897410E+02  0.54402411122E+02  0.00000000000E+00 0.  1.
<mgrwt>
<rscale>  2 0.21066743E+02</rscale>
<asrwt>0</asrwt>
<pdfrwt beam="1">  1        2 0.72414104E-01 0.21066743E+02</pdfrwt>
<pdfrwt beam="2">  1       -2 0.36729740E-03 0.21066743E+02</pdfrwt>
<totfact> 0.35488346E+05</totfact>
</mgrwt>
</event>
<event>
 4    1  0.1474645E+004  0.2161753E+02  0.7546771E-02  0.1714952E+00
         -2   -1    0    0    0  501 -0.00000000000E+00  0.00000000000E+00  0.26235936481E+03  0.26235936481E+03  0.00000000000E+00 0. -1.
          2   -1    0    0  501    0  0.00000000000E+00 -0.00000000000E+00 -0.30355769425E+01  0.30355769425E+01  0.00000000000E+00 0. -1.
          2    1    1    2  502    0  0.17437853060E+02 -0.12776504092E+02  0.44360939056E+02  0.49347853956E+02  0.00000000000E+00 0. -1.
         -2    1    1    2    0  502 -0.17437853060E+02  0.12776504092E+02  0.21496284881E+03  0.21604708779E+03  0.00000000000E+00 0. -1.
<mgrwt>
<rscale>  2 0.21617534E+02</rscale>
<asrwt>0</asrwt>
<pdfrwt beam="2">  1        2 0.46701205E-03 0.21617534E+02</pdfrwt>
<pdfrwt beam="1">  1       -2 0.40362961E-01 0.21617534E+02</pdfrwt>
<totfact> 0.14337625E+05</totfact>
</mgrwt>
</event>
<event>
 4    1  0.1474645E+004  0.2816692E+02  0.7546771E-02  0.1619282E+00
         -2   -1    0    0    0  501 -0.00000000000E+00  0.00000000000E+00  0.16117705992E+01  0.16117705992E+01  0.00000000000E+00 0.  1.
          2   -1    0    0  501    0  0.00000000000E+00 -0.00000000000E+00 -0.52765892966E+03  0.52765892966E+03  0.00000000000E+00 0. -1.
          2    1    1    2  502    0 -0.11639881637E+02 -0.25649333835E+02 -0.33158811471E+03  0.33278229068E+03  0.00000000000E+00 0. -1.
         -2    1    1    2    0  502  0.11639881637E+02  0.25649333835E+02 -0.19445904435E+03  0.19648840959E+03  0.00000000000E+00 0.  1.
<mgrwt>
<rscale>  2 0.28166916E+02</rscale>
<asrwt>0</asrwt>
<pdfrwt beam="2">  1        2 0.81178332E-01 0.28166916E+02</pdfrwt>
<pdfrwt beam="1">  1       -2 0.24796460E-03 0.28166916E+02</pdfrwt>
<totfact> 0.57958577E+05</totfact>
</mgrwt>
</event>
<event>
 4    1  0.1474645E+004  0.3025933E+02  0.7546771E-02  0.1595240E+00
         -2   -1    0    0    0  501 -0.00000000000E+00  0.00000000000E+00  0.11640336832E+02  0.11640336832E+02  0.00000000000E+00 0. -1.
          2   -1    0    0  501    0  0.00000000000E+00 -0.00000000000E+00 -0.58723698829E+03  0.58723698829E+03  0.00000000000E+00 0. -1.
          2    1    1    2  502    0  0.15562885289E+01 -0.30219278391E+02 -0.56646151415E+03  0.56726913703E+03  0.00000000000E+00 0. -1.
         -2    1    1    2    0  502 -0.15562885289E+01  0.30219278391E+02 -0.91351373077E+01  0.31608188087E+02  0.00000000000E+00 0. -1.
<mgrwt>
<rscale>  2 0.30259326E+02</rscale>
<asrwt>0</asrwt>
<pdfrwt beam="2">  1        2 0.90344131E-01 0.30259326E+02</pdfrwt>
<pdfrwt beam="1">  1       -2 0.17908215E-02 0.30259326E+02</pdfrwt>
<totfact> 0.35945344E+04</totfact>
</mgrwt>
</event>
<event>
 4    1  0.1474645E+004  0.2438275E+02  0.7546771E-02  0.1670029E+00
         -2   -1    0    0    0  501 -0.00000000000E+00  0.00000000000E+00  0.39146582309E+01  0.39146582309E+01  0.00000000000E+00 0.  1.
          2   -1    0    0  501    0  0.00000000000E+00 -0.00000000000E+00 -0.17615833952E+03  0.17615833952E+03  0.00000000000E+00 0. -1.
          2    1    1    2  502    0  0.23847247789E+02  0.50820671773E+01 -0.11955420382E+03  0.12201527071E+03  0.00000000000E+00 0. -1.
         -2    1    1    2    0  502 -0.23847247789E+02 -0.50820671773E+01 -0.52689477466E+02  0.58057727044E+02  0.00000000000E+00 0.  1.
<mgrwt>
<rscale>  2 0.24382753E+02</rscale>
<asrwt>0</asrwt>
<pdfrwt beam="2">  1        2 0.27101288E-01 0.24382753E+02</pdfrwt>
<pdfrwt beam="1">  1       -2 0.60225500E-03 0.24382753E+02</pdfrwt>
<totfact> 0.50789882E+05</totfact>
</mgrwt>
</event>
<event>
 4    1  0.1474645E+004  0.2671976E+02  0.7546771E-02  0.1637462E+00
          2   -1    0    0  501    0  0.00000000000E+00  0.00000000000E+00  0.31194866424E+03  0.31194866424E+03  0.00000000000E+00 0. -1.
         -2   -1    0    0    0  501 -0.00000000000E+00 -0.00000000000E+00 -0.15852774520E+02  0.15852774520E+02  0.00000000000E+00 0.  1.
          2    1    1    2  502    0 -0.39438644293E+01  0.26427094523E+02  0.29965656430E+03  0.30084547847E+03  0.00000000000E+00 0. -1.
         -2    1    1    2    0  502  0.39438644293E+01 -0.26427094523E+02 -0.35606745764E+01  0.26955960287E+02  0.00000000000E+00 0.  1.
<mgrwt>
<rscale>  2 0.26719757E+02</rscale>
<asrwt>0</asrwt>
<pdfrwt beam="1">  1        2 0.47992098E-01 0.26719757E+02</pdfrwt>
<pdfrwt beam="2">  1       -2 0.24388886E-02 0.26719757E+02</pdfrwt>
<totfact> 0.43442844E+04</totfact>
</mgrwt>
</event>
<event>
 4    1  0.1474645E+004  0.2211337E+02  0.7546771E-02  0.1706299E+00
          2   -1    0    0  501    0  0.00000000000E+00  0.00000000000E+00  0.47634613989E+03  0.47634613989E+03  0.00000000000E+00 0. -1.
         -2   -1    0    0    0  501 -0.00000000000E+00 -0.00000000000E+00 -0.15445820482E+01  0.15445820482E+01  0.00000000000E+00 0. -1.
          2    1    1    2  502    0  0.20167337559E+02  0.90708006238E+01  0.37577798684E+03  0.37642807590E+03  0.00000000000E+00 0. -1.
         -2    1    1    2    0  502 -0.20167337559E+02 -0.90708006238E+01  0.99023570994E+02  0.10146264604E+03  0.00000000000E+00 0. -1.
<mgrwt>
<rscale>  2 0.22113365E+02</rscale>
<asrwt>0</asrwt>
<pdfrwt beam="1">  1        2 0.73283904E-01 0.22113365E+02</pdfrwt>
<pdfrwt beam="2">  1       -2 0.23762839E-03 0.22113365E+02</pdfrwt>
<totfact> 0.63425809E+05</totfact>
</mgrwt>
</event>
<event>
 4    1  0.1474645E+004  0.2444955E+02  0.7546771E-02  0.1669036E+00
          2   -1    0    0  501    0  0.00000000000E+00  0.00000000000E+00  0.64457487169E+03  0.64457487169E+03  0.00000000000E+00 0. -1.
         -2   -1    0    0    0  501 -0.00000000000E+00 -0.00000000000E+00 -0.15756889102E+01  0.15756889102E+01  0.00000000000E+00 0. -1.
          2    1    1    2  502    0 -0.76742521839E+01  0.23213921889E+02  0.52872927586E+03  0.52929427304E+03  0.00000000000E+00 0. -1.
         -2    1    1    2    0  502  0.76742521839E+01 -0.23213921889E+02  0.11426990691E+03  0.11685628756E+03  0.00000000000E+00 0. -1.
<mgrwt>
<rscale>  2 0.24449546E+02</rscale>
<asrwt>0</asrwt>
<pdfrwt beam="1">  1        2 0.99165155E-01 0.24449546E+02</pdfrwt>
<pdfrwt beam="2">  1       -2 0.24241419E-03 0.24449546E+02</pdfrwt>
<totfact> 0.46590186E+05</totfact>
</mgrwt>
</event>
<event>
 4    1  0.1474645E+004  0.2163301E+02  0.7546771E-02  0.1714677E+00
         -2   -1    0    0    0  501 -0.00000000000E+00  0.00000000000E+00  0.76680076542E+03  0.76680076542E+03  0.00000000000E+00 0. -1.
          2   -1    0    0  501    0  0.00000000000E+00 -0.00000000000E+00 -0.10055411670E+01  0.10055411670E+01  0.00000000000E+00 0. -1.
          2    1    1    2  502    0  0.14559377956E+02  0.16000362083E+02  0.14221390034E+03  0.14384985410E+03  0.00000000000E+00 0. -1.
         -2    1    1    2    0  502 -0.14559377956E+02 -0.16000362083E+02  0.62358132391E+03  0.62395645249E+03  0.00000000000E+00 0. -1.
<mgrwt>
<rscale>  2 0.21633009E+02</rscale>
<asrwt>0</asrwt>
<pdfrwt beam="2">  1        2 0.15469925E-03 0.21633009E+02</pdfrwt>
<pdfrwt beam="1">  1       -2 0.11796888E+00 0.21633009E+02</pdfrwt>
<totfact> 0.68179048E+04</totfact>
</mgrwt>
</event>
<event>
 4    1  0.1474645E+004  0.2229860E+02  0.7546771E-02  0.1703138E+00
         -2   -1    0    0    0  501 -0.00000000000E+00  0.00000000000E+00  0.41613416897E+02  0.41613416897E+02  0.00000000000E+00 0. -1.
          2   -1    0    0  501    0  0.00000000000E+00 -0.00000000000E+00 -0.89385784270E+02  0.89385784270E+02  0.00000000000E+00 0. -1.
          2    1    1    2  502    0  0.20684368577E+02  0.83297450637E+01 -0.84850936564E+02  0.87732030593E+02  0.00000000000E+00 0. -1.
         -2    1    1    2    0  502 -0.20684368577E+02 -0.83297450637E+01  0.37078569191E+02  0.43267170574E+02  0.00000000000E+00 0. -1.
<mgrwt>
<rscale>  2 0.22298604E+02</rscale>
<asrwt>0</asrwt>
<pdfrwt beam="2">  1        2 0.13751659E-01 0.22298604E+02</pdfrwt>
<pdfrwt beam="1">  1       -2 0.64020642E-02 0.22298604E+02</pdfrwt>
<totfact> 0.39297896E+04</totfact>
</mgrwt>
</event>
<event>
 4    1  0.1474645E+004  0.2494878E+02  0.7546771E-02  0.1661739E+00
         -2   -1    0    0    0  501 -0.00000000000E+00  0.00000000000E+00  0.58360302231E+01  0.58360302231E+01  0.00000000000E+00 0.  1.
          2   -1    0    0  501    0  0.00000000000E+00 -0.00000000000E+00 -0.12926577893E+03  0.12926577893E+03  0.00000000000E+00 0.  1.
          2    1    1    2  502    0 -0.15489839547E+02 -0.19557771387E+02 -0.89966768012E+02  0.93361988504E+02  0.00000000000E+00 0.  1.
         -2    1    1    2    0  502  0.15489839547E+02  0.19557771387E+02 -0.33462980691E+02  0.41739820646E+02  0.00000000000E+00 0.  1.
<mgrwt>
<rscale>  2 0.24948779E+02</rscale>
<asrwt>0</asrwt>
<pdfrwt beam="2">  1        2 0.19887041E-01 0.24948779E+02</pdfrwt>
<pdfrwt beam="1">  1       -2 0.89785088E-03 0.24948779E+02</pdfrwt>
<totfact> 0.41210491E+05</totfact>
</mgrwt>
</event>
<event>
 4    1  0.1474645E+004  0.2136892E+02  0.7546771E-02  0.1719400E+00
         -2   -1    0    0    0  501 -0.00000000000E+00  0.00000000000E+00  0.27150432011E+02  0.27150432011E+02  0.00000000000E+00 0. -1.
          2   -1    0    0  501    0  0.00000000000E+00 -0.00000000000E+00 -0.11600068200E+03  0.11600068200E+03  0.00000000000E+00 0.  1.
          2    1    1    2  502    0  0.21246767258E+02  0.22816016434E+01 -0.11060884757E+03  0.11265410771E+03  0.00000000000E+00 0.  1.
         -2    1    1    2    0  502 -0.21246767258E+02 -0.22816016434E+01  0.21758597573E+02  0.30497006301E+02  0.00000000000E+00 0. -1.
<mgrwt>
<rscale>  2 0.21368922E+02</rscale>
<asrwt>0</asrwt>
<pdfrwt beam="2">  1        2 0.17846259E-01 0.21368922E+02</pdfrwt>
<pdfrwt beam="1">  1       -2 0.41769895E-02 0.21368922E+02</pdfrwt>
<totfact> 0.53770272E+04</totfact>
</mgrwt>
</event>
<event>
 4    1  0.1474645E+004  0.2302110E+02  0.7546771E-02  0.1691168E+00
         -2   -1    0    0    0  501 -0.00000000000E+00  0.00000000000E+00  0.31248412055E+02  0.31248412055E+02  0.00000000000E+00 0. -1.
          2   -1    0    0  501    0  0.00000000000E+00 -0.00000000000E+00 -0.24520191016E+02  0.24520191016E+02  0.00000000000E+00 0.  1.
          2    1    1    2  502    0  0.22649035657E+02  0.41221443294E+01 -0.12119285877E+02  0.26016302201E+02  0.00000000000E+00 0.  1.
         -2    1    1    2    0  502 -0.22649035657E+02 -0.41221443294E+01  0.18847506917E+02  0.29752300870E+02  0.00000000000E+00 0. -1.
<mgrwt>
<rscale>  2 0.23021097E+02</rscale>
<asrwt>0</asrwt>
<pdfrwt beam="2">  1        2 0.37723371E-02 0.23021097E+02</pdfrwt>
<pdfrwt beam="1">  1       -2 0.48074480E-02 0.23021097E+02</pdfrwt>
<totfact> 0.27568650E+05</totfact>
</mgrwt>
</event>
<event>
 4    1  0.1474645E+004  0.2978195E+02  0.7546771E-02  0.1600511E+00
          2   -1    0    0  501    0  0.00000000000E+00  0.00000000000E+00  0.23858229735E+03  0.23858229735E+03  0.00000000000E+00 0.  1.
         -2   -1    0    0    0  501 -0.00000000000E+00 -0.00000000000E+00 -0.88299369612E+02  0.88299369612E+02  0.00000000000E+00 0. -1.
          2    1    1    2  502    0  0.93839713069E+01 -0.28264921165E+02  0.23510464440E+03  0.23698345618E+03  0.00000000000E+00 0.  1.
         -2    1    1    2    0  502 -0.93839713069E+01  0.28264921165E+02 -0.84821716655E+02  0.89898210785E+02  0.00000000000E+00 0. -1.
<mgrwt>
<rscale>  2 0.29781952E+02</rscale>
<asrwt>0</asrwt>
<pdfrwt beam="1">  1        2 0.36704968E-01 0.29781952E+02</pdfrwt>
<pdfrwt beam="2">  1       -2 0.13584519E-01 0.29781952E+02</pdfrwt>
<totfact> 0.47766446E+03</totfact>
</mgrwt>
</event>
<event>
 4    1  0.1474645E+004  0.2305083E+02  0.7546771E-02  0.1690688E+00
          2   -1    0    0  501    0  0.00000000000E+00  0.00000000000E+00  0.17622790663E+03  0.17622790663E+03  0.00000000000E+00 0.  1.
         -2   -1    0    0    0  501 -0.00000000000E+00 -0.00000000000E+00 -0.47847198039E+03  0.47847198039E+03  0.00000000000E+00 0.  1.
          2    1    1    2  502    0 -0.20709696924E+02  0.10121709731E+02  0.17519488398E+03  0.17670480449E+03  0.00000000000E+00 0.  1.
         -2    1    1    2    0  502  0.20709696924E+02 -0.10121709731E+02 -0.47743895774E+03  0.47799508253E+03  0.00000000000E+00 0.  1.
<mgrwt>
<rscale>  2 0.23050825E+02</rscale>
<asrwt>0</asrwt>
<pdfrwt beam="1">  1        2 0.27111986E-01 0.23050825E+02</pdfrwt>
<pdfrwt beam="2">  1       -2 0.73611073E-01 0.23050825E+02</pdfrwt>
<totfact> 0.32300227E+02</totfact>
</mgrwt>
</event>
<event>
 4    1  0.1474645E+004  0.2408258E+02  0.7546771E-02  0.1674540E+00
         -2   -1    0    0    0  501 -0.00000000000E+00  0.00000000000E+00  0.80223768826E+02  0.80223768826E+02  0.00000000000E+00 0.  1.
          2   -1    0    0  501    0  0.00000000000E+00 -0.00000000000E+00 -0.10296415952E+02  0.10296415952E+02  0.00000000000E+00 0.  1.
          2    1    1    2  502    0  0.12615336604E+02  0.20513988602E+02  0.10261810039E+02  0.26177761388E+02  0.00000000000E+00 0.  1.
         -2    1    1    2    0  502 -0.12615336604E+02 -0.20513988602E+02  0.59665542834E+02  0.64342423390E+02  0.00000000000E+00 0.  1.
<mgrwt>
<rscale>  2 0.24082576E+02</rscale>
<asrwt>0</asrwt>
<pdfrwt beam="2">  1        2 0.15840640E-02 0.24082576E+02</pdfrwt>
<pdfrwt beam="1">  1       -2 0.12342118E-01 0.24082576E+02</pdfrwt>
<totfact> 0.21191445E+05</totfact>
</mgrwt>
</event>
<event>
 4    1  0.1474645E+004  0.2727838E+02  0.7546771E-02  0.1630280E+00
          2   -1    0    0  501    0  0.00000000000E+00  0.00000000000E+00  0.63940988266E+03  0.63940988266E+03  0.00000000000E+00 0.  1.
         -2   -1    0    0    0  501 -0.00000000000E+00 -0.00000000000E+00 -0.51559751616E+02  0.51559751616E+02  0.00000000000E+00 0. -1.
          2    1    1    2  502    0 -0.26939505174E+02 -0.42863865096E+01  0.63548869544E+03  0.63607388885E+03  0.00000000000E+00 0.  1.
         -2    1    1    2    0  502  0.26939505174E+02  0.42863865096E+01 -0.47638564394E+02  0.54895745426E+02  0.00000000000E+00 0. -1.
<mgrwt>
<rscale>  2 0.27278381E+02</rscale>
<asrwt>0</asrwt>
<pdfrwt beam="1">  1        2 0.98370745E-01 0.27278381E+02</pdfrwt>
<pdfrwt beam="2">  1       -2 0.79322699E-02 0.27278381E+02</pdfrwt>
<totfact> 0.39276604E+03</totfact>
</mgrwt>
</event>
<event>
 4    1  0.1474645E+004  0.2501908E+02  0.7546771E-02  0.1660728E+00
         -2   -1    0    0    0  501 -0.00000000000E+00  0.00000000000E+00  0.24756685295E+02  0.24756685295E+02  0.00000000000E+00 0. -1.
          2   -1    0    0  501    0  0.00000000000E+00 -0.00000000000E+00 -0.49508359482E+02  0.49508359482E+02  0.00000000000E+00 0.  1.
          2    1    1    2  502    0  0.20101596143E+02  0.14895648364E+02 -0.38349846288E+02  0.45789357039E+02  0.00000000000E+00 0.  1.
         -2    1    1    2    0  502 -0.20101596143E+02 -0.14895648364E+02  0.13598172101E+02  0.28475687738E+02  0.00000000000E+00 0. -1.
<mgrwt>
<rscale>  2 0.25019083E+02</rscale>
<asrwt>0</asrwt>
<pdfrwt beam="2">  1        2 0.76166707E-02 0.25019083E+02</pdfrwt>
<pdfrwt beam="1">  1       -2 0.38087208E-02 0.25019083E+02</pdfrwt>
<totfact> 0.16651820E+05</totfact>
</mgrwt>
</event>
<event>
 4    1  0.1474645E+004  0.2902252E+02  0.7546771E-02  0.1609152E+00
          2   -1    0    0  501    0  0.00000000000E+00  0.00000000000E+00  0.40341053998E+02  0.40341053998E+02  0.00000000000E+00 0. -1.
         -2   -1    0    0    0  501 -0.00000000000E+00 -0.00000000000E+00 -0.19007030601E+03  0.19007030601E+03  0.00000000000E+00 0. -1.
          2    1    1    2  502    0 -0.28716254212E+02 -0.42051880632E+01  0.33829218261E+02  0.44572669549E+02  0.00000000000E+00 0. -1.
         -2    1    1    2    0  502  0.28716254212E+02  0.42051880632E+01 -0.18355847028E+03  0.18583869046E+03  0.00000000000E+00 0. -1.
<mgrwt>
<rscale>  2 0.29022523E+02</rscale>
<asrwt>0</asrwt>
<pdfrwt beam="1">  1        2 0.62063161E-02 0.29022523E+02</pdfrwt>
<pdfrwt beam="2">  1       -2 0.29241585E-01 0.29022523E+02</pdfrwt>
<totfact> 0.98180111E+03</totfact>
</mgrwt>
</event>
<event>
 4    1  0.1474645E+004  0.2233943E+02  0.7546771E-02  0.1702447E+00
          2   -1    0    0  501    0  0.00000000000E+00  0.00000000000E+00  0.95572721234E+03  0.95572721234E+03  0.00000000000E+00 0.  1.
         -2   -1    0    0    0  501 -0.00000000000E+00 -0.00000000000E+00 -0.91712098935E+01  0.91712098935E+01  0.00000000000E+00 0.  1.
          2    1    1    2  502    0  0.12139509388E+02  0.18753195923E+02  0.94179169358E+03  0.94205660347E+03  0.00000000000E+00 0.  1.
         -2    1    1    2    0  502 -0.12139509388E+02 -0.18753195923E+02  0.47643088689E+01  0.22841818766E+02  0.00000000000E+00 0.  1.
<mgrwt>
<rscale>  2 0.22339428E+02</rscale>
<asrwt>0</asrwt>
<pdfrwt beam="1">  1        2 0.14703488E+00 0.22339428E+02</pdfrwt>
<pdfrwt beam="2">  1       -2 0.14109561E-02 0.22339428E+02</pdfrwt>
<totfact> 0.27435819E+04</totfact>
</mgrwt>
</event>
<event>
 4    1  0.1474645E+004  0.2099992E+02  0.7546771E-02  0.1726145E+00
          2   -1    0    0  501    0  0.00000000000E+00  0.00000000000E+00  0.61547976725E+03  0.61547976725E+03  0.00000000000E+00 0.  1.
         -2   -1    0    0    0  501 -0.00000000000E+00 -0.00000000000E+00 -0.13180160126E+02  0.13180160126E+02  0.00000000000E+00 0. -1.
          2    1    1    2  502    0 -0.16519499935E+02 -0.12965449935E+02  0.60681647079E+03  0.60717973121E+03  0.00000000000E+00 0.  1.
         -2    1    1    2    0  502  0.16519499935E+02  0.12965449935E+02 -0.45168636621E+01  0.21480196170E+02  0.00000000000E+00 0. -1.
<mgrwt>
<rscale>  2 0.20999923E+02</rscale>
<asrwt>0</asrwt>
<pdfrwt beam="1">  1        2 0.94689173E-01 0.20999923E+02</pdfrwt>
<pdfrwt beam="2">  1       -2 0.20277174E-02 0.20999923E+02</pdfrwt>
<totfact> 0.27083240E+04</totfact>
</mgrwt>
</event>
<event>
 4    1  0.1474645E+004  0.2032415E+02  0.7546771E-02  0.1738958E+00
         -2   -1    0    0    0  501 -0.00000000000E+00  0.00000000000E+00  0.10329861989E+03  0.10329861989E+03  0.00000000000E+00 0. -1.
          2   -1    0    0  501    0  0.00000000000E+00 -0.00000000000E+00 -0.71023069645E+01  0.71023069645E+01  0.00000000000E+00 0. -1.
          2    1    1    2  502    0 -0.28727609510E+01  0.20120100887E+02  0.11608573782E+02  0.23405772802E+02  0.00000000000E+00 0. -1.
         -2    1    1    2    0  502  0.28727609510E+01 -0.20120100887E+02  0.84587739141E+02  0.86995154050E+02  0.00000000000E+00 0. -1.
<mgrwt>
<rscale>  2 0.20324153E+02</rscale>
<asrwt>0</asrwt>
<pdfrwt beam="2">  1        2 0.10926627E-02 0.20324153E+02</pdfrwt>
<pdfrwt beam="1">  1       -2 0.15892094E-01 0.20324153E+02</pdfrwt>
<totfact> 0.22064407E+05</totfact>
</mgrwt>
</event>
<event>
 4    1  0.1474645E+004  0.4606688E+02  0.7546771E-02  0.1467789E+00
         -2   -1    0    0    0  501 -0.00000000000E+00  0.00000000000E+00  0.48173859555E+03  0.48173859555E+03  0.00000000000E+00 0.  1.
          2   -1    0    0  501    0  0.00000000000E+00 -0.00000000000E+00 -0.68902205606E+01  0.68902205606E+01  0.00000000000E+00 0. -1.
          2    1    1    2  502    0 -0.41978131712E+02  0.18973503116E+02  0.90701573101E+02  0.10172970424E+03  0.00000000000E+00 0. -1.
         -2    1    1    2    0  502  0.41978131712E+02 -0.18973503116E+02  0.38414680189E+03  0.38689911186E+03  0.00000000000E+00 0.  1.
<mgrwt>
<rscale>  2 0.46066879E+02</rscale>
<asrwt>0</asrwt>
<pdfrwt beam="2">  1        2 0.10600343E-02 0.46066879E+02</pdfrwt>
<pdfrwt beam="1">  1       -2 0.74113604E-01 0.46066879E+02</pdfrwt>
<totfact> 0.17641739E+04</totfact>
</mgrwt>
</event>
<event>
 4    1  0.1474645E+004  0.2627559E+02  0.7546771E-02  0.1643328E+00
          2   -1    0    0  501    0  0.00000000000E+00  0.00000000000E+00  0.50561282663E+03  0.50561282663E+03  0.00000000000E+00 0. -1.
         -2   -1    0    0    0  501 -0.00000000000E+00 -0.00000000000E+00 -0.46240921059E+01  0.46240921059E+01  0.00000000000E+00 0.  1.
          2    1    1    2  502    0  0.24670649982E+02 -0.90424415402E+01  0.46465746850E+03  0.46539979560E+03  0.00000000000E+00 0. -1.
         -2    1    1    2    0  502 -0.24670649982E+02  0.90424415402E+01  0.36331266032E+02  0.44837123136E+02  0.00000000000E+00 0.  1.
<mgrwt>
<rscale>  2 0.26275592E+02</rscale>
<asrwt>0</asrwt>
<pdfrwt beam="1">  1        2 0.77786545E-01 0.26275592E+02</pdfrwt>
<pdfrwt beam="2">  1       -2 0.71139919E-03 0.26275592E+02</pdfrwt>
<totfact> 0.14408743E+05</totfact>
</mgrwt>
</event>
<event>
 4    1  0.1474645E+004  0.2314478E+02  0.7546771E-02  0.1689174E+00
         -2   -1    0    0    0  501 -0.00000000000E+00  0.00000000000E+00  0.22863229347E+02  0.22863229347E+02  0.00000000000E+00 0.  1.
          2   -1    0    0  501    0  0.00000000000E+00 -0.00000000000E+00 -0.40026030604E+03  0.40026030604E+03  0.00000000000E+00 0.  1.
          2    1    1    2  502    0 -0.12649566278E+02 -0.19382194662E+02 -0.39397490380E+03  0.39465415977E+03  0.00000000000E+00 0.  1.
         -2    1    1    2    0  502  0.12649566278E+02  0.19382194662E+02  0.16577827103E+02  0.28469375624E+02  0.00000000000E+00 0.  1.
<mgrwt>
<rscale>  2 0.23144783E+02</rscale>
<asrwt>0</asrwt>
<pdfrwt beam="2">  1        2 0.61578508E-01 0.23144783E+02</pdfrwt>
<pdfrwt beam="1">  1       -2 0.35174199E-02 0.23144783E+02</pdfrwt>
<totfact> 0.19867301E+04</totfact>
</mgrwt>
</event>
<event>
 4    1  0.1474645E+004  0.2241059E+02  0.7546771E-02  0.1701246E+00
         -2   -1    0    0    0  501 -0.00000000000E+00  0.00000000000E+00  0.75000995388E+00  0.75000995388E+00  0.00000000000E+00 0. -1.
          2   -1    0    0  501    0  0.00000000000E+00 -0.00000000000E+00 -0.16917582701E+04  0.16917582701E+04  0.00000000000E+00 0.  1.
          2    1    1    2  502    0 -0.16612167320E+02  0.15042286562E+02 -0.15032874321E+04  0.15034544682E+04  0.00000000000E+00 0.  1.
         -2    1    1    2    0  502  0.16612167320E+02 -0.15042286562E+02 -0.18772082801E+03  0.18905381180E+03  0.00000000000E+00 0. -1.
<mgrwt>
<rscale>  2 0.22410589E+02</rscale>
<asrwt>0</asrwt>
<pdfrwt beam="2">  1        2 0.26027185E+00 0.22410589E+02</pdfrwt>
<pdfrwt beam="1">  1       -2 0.11538555E-03 0.22410589E+02</pdfrwt>
<totfact> 0.33740220E+05</totfact>
</mgrwt>
</event>
<event>
 4    1  0.1474645E+004  0.2093834E+02  0.7546771E-02  0.1727287E+00
          2   -1    0    0  501    0  0.00000000000E+00  0.00000000000E+00  0.18874164079E+01  0.18874164079E+01  0.00000000000E+00 0.  1.
         -2   -1    0    0    0  501 -0.00000000000E+00 -0.00000000000E+00 -0.23420259824E+03  0.23420259824E+03  0.00000000000E+00 0.  1.
          2    1    1    2  502    0  0.16971070090E+02 -0.12263643286E+02 -0.10546970943E+03  0.10752801390E+03  0.00000000000E+00 0.  1.
         -2    1    1    2    0  502 -0.16971070090E+02  0.12263643286E+02 -0.12684547240E+03  0.12856200074E+03  0.00000000000E+00 0.  1.
<mgrwt>
<rscale>  2 0.20938342E+02</rscale>
<asrwt>0</asrwt>
<pdfrwt beam="1">  1        2 0.29037166E-03 0.20938342E+02</pdfrwt>
<pdfrwt beam="2">  1       -2 0.36031181E-01 0.20938342E+02</pdfrwt>
<totfact> 0.32413168E+05</totfact>
</mgrwt>
</event>
<event>
 4    1  0.1474645E+004  0.2231100E+02  0.7546771E-02  0.1702928E+00
         -2   -1    0    0    0  501 -0.00000000000E+00  0.00000000000E+00  0.42475129279E+00  0.42475129279E+00  0.00000000000E+00 0. -1.
          2   -1    0    0  501    0  0.00000000000E+00 -0.00000000000E+00 -0.19470302358E+04  0.19470302358E+04  0.00000000000E+00 0. -1.
          2    1    1    2  502    0 -0.18886832803E+02 -0.11877222270E+02 -0.15876708280E+04  0.15878275848E+04  0.00000000000E+00 0. -1.
         -2    1    1    2    0  502  0.18886832803E+02  0.11877222270E+02 -0.35893465648E+03  0.35962740230E+03  0.00000000000E+00 0. -1.
<mgrwt>
<rscale>  2 0.22311003E+02</rscale>
<asrwt>0</asrwt>
<pdfrwt beam="2">  1        2 0.29954154E+00 0.22311003E+02</pdfrwt>
<pdfrwt beam="1">  1       -2 0.65346696E-04 0.22311003E+02</pdfrwt>
<totfact> 0.54176691E+05</totfact>
</mgrwt>
</event>
<event>
 4    1  0.1474645E+004  0.2039234E+02  0.7546771E-02  0.1737637E+00
          2   -1    0    0  501    0  0.00000000000E+00  0.00000000000E+00  0.10812392282E+04  0.10812392282E+04  0.00000000000E+00 0. -1.
         -2   -1    0    0    0  501 -0.00000000000E+00 -0.00000000000E+00 -0.41996026448E+00  0.41996026448E+00  0.00000000000E+00 0. -1.
          2    1    1    2  502    0 -0.92142387884E+01 -0.18191904014E+02  0.69733649319E+03  0.69763459799E+03  0.00000000000E+00 0. -1.
         -2    1    1    2    0  502  0.92142387884E+01  0.18191904014E+02  0.38348277473E+03  0.38402459047E+03  0.00000000000E+00 0. -1.
<mgrwt>
<rscale>  2 0.20392341E+02</rscale>
<asrwt>0</asrwt>
<pdfrwt beam="1">  1        2 0.16634227E+00 0.20392341E+02</pdfrwt>
<pdfrwt beam="2">  1       -2 0.64610137E-04 0.20392341E+02</pdfrwt>
<totfact> 0.13831171E+06</totfact>
</mgrwt>
</event>
<event>
 4    1  0.1474645E+004  0.4467131E+02  0.7546771E-02  0.1476404E+00
          2   -1    0    0  501    0  0.00000000000E+00  0.00000000000E+00  0.15073781060E+03  0.15073781060E+03  0.00000000000E+00 0.  1.
         -2   -1    0    0    0  501 -0.00000000000E+00 -0.00000000000E+00 -0.14018485775E+02  0.14018485775E+02  0.00000000000E+00 0. -1.
          2    1    1    2  502    0 -0.24688020947E+02  0.37229391589E+02  0.87792460554E+02  0.98504020763E+02  0.00000000000E+00 0.  1.
         -2    1    1    2    0  502  0.24688020947E+02 -0.37229391589E+02  0.48926864273E+02  0.66252275614E+02  0.00000000000E+00 0. -1.
<mgrwt>
<rscale>  2 0.44671310E+02</rscale>
<asrwt>0</asrwt>
<pdfrwt beam="1">  1        2 0.23190431E-01 0.44671310E+02</pdfrwt>
<pdfrwt beam="2">  1       -2 0.21566902E-02 0.44671310E+02</pdfrwt>
<totfact> 0.12021975E+05</totfact>
</mgrwt>
</event>
<event>
 4    1  0.1474645E+004  0.3279208E+02  0.7546771E-02  0.1569130E+00
         -2   -1    0    0    0  501 -0.00000000000E+00  0.00000000000E+00  0.30580238150E+02  0.30580238150E+02  0.00000000000E+00 0. -1.
          2   -1    0    0  501    0  0.00000000000E+00 -0.00000000000E+00 -0.66852641705E+02  0.66852641705E+02  0.00000000000E+00 0.  1.
          2    1    1    2  502    0  0.82309757358E+01 -0.31742263885E+02 -0.51676644417E+02  0.61202907254E+02  0.00000000000E+00 0.  1.
         -2    1    1    2    0  502 -0.82309757358E+01  0.31742263885E+02  0.15404240862E+02  0.36229972601E+02  0.00000000000E+00 0. -1.
<mgrwt>
<rscale>  2 0.32792076E+02</rscale>
<asrwt>0</asrwt>
<pdfrwt beam="2">  1        2 0.10285022E-01 0.32792076E+02</pdfrwt>
<pdfrwt beam="1">  1       -2 0.47046521E-02 0.32792076E+02</pdfrwt>
<totfact> 0.92418020E+04</totfact>
</mgrwt>
</event>
<event>
 4    1  0.1474645E+004  0.2930584E+02  0.7546771E-02  0.1605891E+00
          2   -1    0    0  501    0  0.00000000000E+00  0.00000000000E+00  0.15706267048E+04  0.15706267048E+04  0.00000000000E+00 0. -1.
         -2   -1    0    0    0  501 -0.00000000000E+00 -0.00000000000E+00 -0.50128305473E+01  0.50128305473E+01  0.00000000000E+00 0.  1.
          2    1    1    2  502    0 -0.28955207923E+02  0.45197879743E+01  0.15264178884E+04  0.15266991854E+04  0.00000000000E+00 0. -1.
         -2    1    1    2    0  502  0.28955207923E+02 -0.45197879743E+01  0.39195985810E+02  0.48940349946E+02  0.00000000000E+00 0.  1.
<mgrwt>
<rscale>  2 0.29305845E+02</rscale>
<asrwt>0</asrwt>
<pdfrwt beam="1">  1        2 0.24163449E+00 0.29305845E+02</pdfrwt>
<pdfrwt beam="2">  1       -2 0.77120595E-03 0.29305845E+02</pdfrwt>
<totfact> 0.31867292E+04</totfact>
</mgrwt>
</event>
<event>
 4    1  0.1474645E+004  0.3087966E+02  0.7546771E-02  0.1588564E+00
          2   -1    0    0  501    0  0.00000000000E+00  0.00000000000E+00  0.10997843678E+03  0.10997843678E+03  0.00000000000E+00 0. -1.
         -2   -1    0    0    0  501 -0.00000000000E+00 -0.00000000000E+00 -0.34234587953E+02  0.34234587953E+02  0.00000000000E+00 0.  1.
          2    1    1    2  502    0 -0.30800768747E+02  0.22058419347E+01  0.10018199501E+03  0.10483313034E+03  0.00000000000E+00 0. -1.
         -2    1    1    2    0  502  0.30800768747E+02 -0.22058419347E+01 -0.24438146175E+02  0.39379894395E+02  0.00000000000E+00 0.  1.
<mgrwt>
<rscale>  2 0.30879655E+02</rscale>
<asrwt>0</asrwt>
<pdfrwt beam="1">  1        2 0.16919759E-01 0.30879655E+02</pdfrwt>
<pdfrwt beam="2">  1       -2 0.52668597E-02 0.30879655E+02</pdfrwt>
<totfact> 0.44227048E+04</totfact>
</mgrwt>
</event>
<event>
 4    1  0.1474645E+004  0.2642496E+02  0.7546771E-02  0.1641340E+00
          2   -1    0    0  501    0  0.00000000000E+00  0.00000000000E+00  0.64101403778E+00  0.64101403778E+00  0.00000000000E+00 0. -1.
         -2   -1    0    0    0  501 -0.00000000000E+00 -0.00000000000E+00 -0.10917563275E+04  0.10917563275E+04  0.00000000000E+00 0.  1.
          2    1    1    2  502    0  0.15556538585E+02  0.21360517084E+02 -0.57129220066E+03  0.57190301286E+03  0.00000000000E+00 0. -1.
         -2    1    1    2    0  502 -0.15556538585E+02 -0.21360517084E+02 -0.51982311278E+03  0.52049432866E+03  0.00000000000E+00 0.  1.
<mgrwt>
<rscale>  2 0.26424956E+02</rscale>
<asrwt>0</asrwt>
<pdfrwt beam="1">  1        2 0.98617960E-04 0.26424956E+02</pdfrwt>
<pdfrwt beam="2">  1       -2 0.16796180E+00 0.26424956E+02</pdfrwt>
<totfact> 0.55843942E+04</totfact>
</mgrwt>
</event>
<event>
 4    1  0.1474645E+004  0.2302191E+02  0.7546771E-02  0.1691155E+00
          2   -1    0    0  501    0  0.00000000000E+00  0.00000000000E+00  0.11193188231E+04  0.11193188231E+04  0.00000000000E+00 0. -1.
         -2   -1    0    0    0  501 -0.00000000000E+00 -0.00000000000E+00 -0.56599898703E+00  0.56599898703E+00  0.00000000000E+00 0. -1.
          2    1    1    2  502    0  0.15365121697E+02 -0.17144130837E+02  0.78572695015E+03  0.78606415029E+03  0.00000000000E+00 0. -1.
         -2    1    1    2    0  502 -0.15365121697E+02  0.17144130837E+02  0.33302587395E+03  0.33382067178E+03  0.00000000000E+00 0. -1.
<mgrwt>
<rscale>  2 0.23021907E+02</rscale>
<asrwt>0</asrwt>
<pdfrwt beam="1">  1        2 0.17220112E+00 0.23021907E+02</pdfrwt>
<pdfrwt beam="2">  1       -2 0.87077663E-04 0.23021907E+02</pdfrwt>
<totfact> 0.92828569E+05</totfact>
</mgrwt>
</event>
<event>
 4    1  0.1474645E+004  0.2029009E+02  0.7546771E-02  0.1739620E+00
         -2   -1    0    0    0  501 -0.00000000000E+00  0.00000000000E+00  0.10502283818E+03  0.10502283818E+03  0.00000000000E+00 0.  1.
          2   -1    0    0  501    0  0.00000000000E+00 -0.00000000000E+00 -0.12953769271E+02  0.12953769271E+02  0.00000000000E+00 0. -1.
          2    1    1    2  502    0 -0.15913630228E+02  0.12587459819E+02 -0.32264092663E+01  0.20545011280E+02  0.00000000000E+00 0. -1.
         -2    1    1    2    0  502  0.15913630228E+02 -0.12587459819E+02  0.95295478171E+02  0.97431596167E+02  0.00000000000E+00 0.  1.
<mgrwt>
<rscale>  2 0.20290090E+02</rscale>
<asrwt>0</asrwt>
<pdfrwt beam="2">  1        2 0.19928877E-02 0.20290090E+02</pdfrwt>
<pdfrwt beam="1">  1       -2 0.16157359E-01 0.20290090E+02</pdfrwt>
<totfact> 0.99333340E+04</totfact>
</mgrwt>
</event>
<event>
 4    1  0.1474645E+004  0.2581527E+02  0.7546771E-02  0.1649561E+00
         -2   -1    0    0    0  501 -0.00000000000E+00  0.00000000000E+00  0.14021750822E+02  0.14021750822E+02  0.00000000000E+00 0. -1.
          2   -1    0    0  501    0  0.00000000000E+00 -0.00000000000E+00 -0.49305687818E+02  0.49305687818E+02  0.00000000000E+00 0. -1.
          2    1    1    2  502    0 -0.22920090667E+02  0.11878412969E+02 -0.11629839499E+02  0.28313961532E+02  0.00000000000E+00 0. -1.
         -2    1    1    2    0  502  0.22920090667E+02 -0.11878412969E+02 -0.23654097496E+02  0.35013477108E+02  0.00000000000E+00 0. -1.
<mgrwt>
<rscale>  2 0.25815265E+02</rscale>
<asrwt>0</asrwt>
<pdfrwt beam="2">  1        2 0.75854905E-02 0.25815265E+02</pdfrwt>
<pdfrwt beam="1">  1       -2 0.21571924E-02 0.25815265E+02</pdfrwt>
<totfact> 0.37257903E+05</totfact>
</mgrwt>
</event>
<event>
 4    1  0.1474645E+004  0.2524139E+02  0.7546771E-02  0.1657559E+00
         -2   -1    0    0    0  501 -0.00000000000E+00  0.00000000000E+00  0.15403711373E+03  0.15403711373E+03  0.00000000000E+00 0.  1.
          2   -1    0    0  501    0  0.00000000000E+00 -0.00000000000E+00 -0.12520130855E+03  0.12520130855E+03  0.00000000000E+00 0.  1.
          2    1    1    2  502    0 -0.16487978660E+02 -0.19112152374E+02 -0.12287568373E+03  0.12544146627E+03  0.00000000000E+00 0.  1.
         -2    1    1    2    0  502  0.16487978660E+02  0.19112152374E+02  0.15171148892E+03  0.15379695601E+03  0.00000000000E+00 0.  1.
<mgrwt>
<rscale>  2 0.25241391E+02</rscale>
<asrwt>0</asrwt>
<pdfrwt beam="2">  1        2 0.19261740E-01 0.25241391E+02</pdfrwt>
<pdfrwt beam="1">  1       -2 0.23698018E-01 0.25241391E+02</pdfrwt>
<totfact> 0.37541803E+03</totfact>
</mgrwt>
</event>
<event>
 4    1  0.1474645E+004  0.3061048E+02  0.7546771E-02  0.1591437E+00
         -2   -1    0    0    0  501 -0.00000000000E+00  0.00000000000E+00  0.51960466468E+03  0.51960466468E+03  0.00000000000E+00 0. -1.
          2   -1    0    0  501    0  0.00000000000E+00 -0.00000000000E+00 -0.21008126567E+01  0.21008126567E+01  0.00000000000E+00 0. -1.
          2    1    1    2  502    0  0.21876006844E+02  0.21411256763E+02  0.16058694918E+03  0.16347834669E+03  0.00000000000E+00 0. -1.
         -2    1    1    2    0  502 -0.21876006844E+02 -0.21411256763E+02  0.35691690285E+03  0.35822713064E+03  0.00000000000E+00 0. -1.
<mgrwt>
<rscale>  2 0.30610482E+02</rscale>
<asrwt>0</asrwt>
<pdfrwt beam="2">  1        2 0.32320236E-03 0.30610482E+02</pdfrwt>
<pdfrwt beam="1">  1       -2 0.79939077E-01 0.30610482E+02</pdfrwt>
<totfact> 0.67252145E+04</totfact>
</mgrwt>
</event>
<event>
 4    1  0.1474645E+004  0.2122914E+02  0.7546771E-02  0.1721935E+00
         -2   -1    0    0    0  501 -0.00000000000E+00  0.00000000000E+00  0.83486044989E+01  0.83486044989E+01  0.00000000000E+00 0. -1.
          2   -1    0    0  501    0  0.00000000000E+00 -0.00000000000E+00 -0.58334717973E+02  0.58334717973E+02  0.00000000000E+00 0. -1.
          2    1    1    2  502    0  0.31210716228E+01  0.20998456417E+02 -0.34100419637E+02  0.40168580749E+02  0.00000000000E+00 0. -1.
         -2    1    1    2    0  502 -0.31210716228E+01 -0.20998456417E+02 -0.15885693837E+02  0.26514741723E+02  0.00000000000E+00 0. -1.
<mgrwt>
<rscale>  2 0.21229137E+02</rscale>
<asrwt>0</asrwt>
<pdfrwt beam="2">  1        2 0.89745721E-02 0.21229137E+02</pdfrwt>
<pdfrwt beam="1">  1       -2 0.12844007E-02 0.21229137E+02</pdfrwt>
<totfact> 0.58499077E+05</totfact>
</mgrwt>
</event>
<event>
 4    1  0.1474645E+004  0.2017419E+02  0.7546771E-02  0.1741886E+00
         -2   -1    0    0    0  501 -0.00000000000E+00  0.00000000000E+00  0.11362383330E+02  0.11362383330E+02  0.00000000000E+00 0. -1.
          2   -1    0    0  501    0  0.00000000000E+00 -0.00000000000E+00 -0.14528572953E+03  0.14528572953E+03  0.00000000000E+00 0.  1.
          2    1    1    2  502    0  0.16126382724E+02  0.12121795390E+02 -0.13494825453E+03  0.13644790048E+03  0.00000000000E+00 0.  1.
         -2    1    1    2    0  502 -0.16126382724E+02 -0.12121795390E+02  0.10249083312E+01  0.20200212383E+02  0.00000000000E+00 0. -1.
<mgrwt>
<rscale>  2 0.20174195E+02</rscale>
<asrwt>0</asrwt>
<pdfrwt beam="2">  1        2 0.22351649E-01 0.20174195E+02</pdfrwt>
<pdfrwt beam="1">  1       -2 0.17480591E-02 0.20174195E+02</pdfrwt>
<totfact> 0.13911608E+05</totfact>
</mgrwt>
</event>
<event>
 4    1  0.1474645E+004  0.2323563E+02  0.7546771E-02  0.1687719E+00
          2   -1    0    0  501    0  0.00000000000E+00  0.00000000000E+00  0.12117548291E+04  0.12117548291E+04  0.00000000000E+00 0.  1.
         -2   -1    0    0    0  501 -0.00000000000E+00 -0.00000000000E+00 -0.46600007044E+00  0.46600007044E+00  0.00000000000E+00 0. -1.
          2    1    1    2  502    0 -0.54191215019E+01  0.22594855207E+02  0.73262358471E+03  0.73299195850E+03  0.00000000000E+00 0.  1.
         -2    1    1    2    0  502  0.54191215019E+01 -0.22594855207E+02  0.47866524427E+03  0.47922887062E+03  0.00000000000E+00 0. -1.
<mgrwt>
<rscale>  2 0.23235627E+02</rscale>
<asrwt>0</asrwt>
<pdfrwt beam="1">  1        2 0.18642130E+00 0.23235627E+02</pdfrwt>
<pdfrwt beam="2">  1       -2 0.71693288E-04 0.23235627E+02</pdfrwt>
<totfact> 0.10788595E+06</totfact>
</mgrwt>
</event>
<event>
 4    1  0.1474645E+004  0.2188202E+02  0.7546771E-02  0.1710300E+00
          2   -1    0    0  501    0  0.00000000000E+00  0.00000000000E+00  0.91444640209E+02  0.91444640209E+02  0.00000000000E+00 0. -1.
         -2   -1    0    0    0  501 -0.00000000000E+00 -0.00000000000E+00 -0.77380068273E+01  0.77380068273E+01  0.00000000000E+00 0. -1.
          2    1    1    2  502    0  0.17702578955E+02  0.12862400701E+02  0.70051284782E+02  0.73389407635E+02  0.00000000000E+00 0. -1.
         -2    1    1    2    0  502 -0.17702578955E+02 -0.12862400701E+02  0.13655348601E+02  0.25793239402E+02  0.00000000000E+00 0. -1.
<mgrwt>
<rscale>  2 0.21882017E+02</rscale>
<asrwt>0</asrwt>
<pdfrwt beam="1">  1        2 0.14068405E-01 0.21882017E+02</pdfrwt>
<pdfrwt beam="2">  1       -2 0.11904627E-02 0.21882017E+02</pdfrwt>
<totfact> 0.39356846E+05</totfact>
</mgrwt>
</event>
<event>
 4    1  0.1474645E+004  0.2043983E+02  0.7546771E-02  0.1736720E+00
         -2   -1    0    0    0  501 -0.00000000000E+00  0.00000000000E+00  0.43293131990E+03  0.43293131990E+03  0.00000000000E+00 0.  1.
          2   -1    0    0  501    0  0.00000000000E+00 -0.00000000000E+00 -0.13153925748E+01  0.13153925748E+01  0.00000000000E+00 0.  1.
          2    1    1    2  502    0  0.19740300785E+02 -0.53016227734E+01  0.10374943662E+03  0.10574371034E+03  0.00000000000E+00 0.  1.
         -2    1    1    2    0  502 -0.19740300785E+02  0.53016227734E+01  0.32786649071E+03  0.32850300213E+03  0.00000000000E+00 0.  1.
<mgrwt>
<rscale>  2 0.20439831E+02</rscale>
<asrwt>0</asrwt>
<pdfrwt beam="2">  1        2 0.20236843E-03 0.20439831E+02</pdfrwt>
<pdfrwt beam="1">  1       -2 0.66604705E-01 0.20439831E+02</pdfrwt>
<totfact> 0.16160300E+05</totfact>
</mgrwt>
</event>
<event>
 4    1  0.1474645E+004  0.3096902E+02  0.7546771E-02  0.1587618E+00
          2   -1    0    0  501    0  0.00000000000E+00  0.00000000000E+00  0.24615061915E+04  0.24615061915E+04  0.00000000000E+00 0. -1.
         -2   -1    0    0    0  501 -0.00000000000E+00 -0.00000000000E+00 -0.14374177924E+01  0.14374177924E+01  0.00000000000E+00 0.  1.
          2    1    1    2  502    0  0.30434420288E+02  0.57294434104E+01  0.22814376284E+04  0.22816478109E+04  0.00000000000E+00 0. -1.
         -2    1    1    2    0  502 -0.30434420288E+02 -0.57294434104E+01  0.17863114527E+03  0.18129579841E+03  0.00000000000E+00 0.  1.
<mgrwt>
<rscale>  2 0.30969024E+02</rscale>
<asrwt>0</asrwt>
<pdfrwt beam="1">  1        2 0.37868989E+00 0.30969024E+02</pdfrwt>
<pdfrwt beam="2">  1       -2 0.22114317E-03 0.30969024E+02</pdfrwt>
<totfact> 0.65063312E+04</totfact>
</mgrwt>
</event>
<event>
 4    1  0.1474645E+004  0.2110042E+02  0.7546771E-02  0.1724291E+00
         -2   -1    0    0    0  501 -0.00000000000E+00  0.00000000000E+00  0.63012696700E+02  0.63012696700E+02  0.00000000000E+00 0. -1.
          2   -1    0    0  501    0  0.00000000000E+00 -0.00000000000E+00 -0.99200647172E+02  0.99200647172E+02  0.00000000000E+00 0.  1.
          2    1    1    2  502    0 -0.89966527816E+01 -0.19086326062E+02 -0.96258837925E+02  0.98544363017E+02  0.00000000000E+00 0.  1.
         -2    1    1    2    0  502  0.89966527816E+01  0.19086326062E+02  0.60070887452E+02  0.63668980855E+02  0.00000000000E+00 0. -1.
<mgrwt>
<rscale>  2 0.21100417E+02</rscale>
<asrwt>0</asrwt>
<pdfrwt beam="2">  1        2 0.15261638E-01 0.21100417E+02</pdfrwt>
<pdfrwt beam="1">  1       -2 0.96942610E-02 0.21100417E+02</pdfrwt>
<totfact> 0.18925957E+04</totfact>
</mgrwt>
</event>
<event>
 4    1  0.1474645E+004  0.2079701E+02  0.7546771E-02  0.1729928E+00
         -2   -1    0    0    0  501 -0.00000000000E+00  0.00000000000E+00  0.12084410937E+02  0.12084410937E+02  0.00000000000E+00 0.  1.
          2   -1    0    0  501    0  0.00000000000E+00 -0.00000000000E+00 -0.53659730598E+02  0.53659730598E+02  0.00000000000E+00 0. -1.
          2    1    1    2  502    0  0.17900999534E+02 -0.10586298577E+02 -0.39756785188E+02  0.44867777640E+02  0.00000000000E+00 0. -1.
         -2    1    1    2    0  502 -0.17900999534E+02  0.10586298577E+02 -0.18185344727E+01  0.20876363896E+02  0.00000000000E+00 0.  1.
<mgrwt>
<rscale>  2 0.20797007E+02</rscale>
<asrwt>0</asrwt>
<pdfrwt beam="2">  1        2 0.82553432E-02 0.20797007E+02</pdfrwt>
<pdfrwt beam="1">  1       -2 0.18591401E-02 0.20797007E+02</pdfrwt>
<totfact> 0.38750976E+05</totfact>
</mgrwt>
</event>
<event>
 4    1  0.1474645E+004  0.2017421E+02  0.7546771E-02  0.1741886E+00
          2   -1    0    0  501    0  0.00000000000E+00  0.00000000000E+00  0.23298639966E+02  0.23298639966E+02  0.00000000000E+00 0.  1.
         -2   -1    0    0    0  501 -0.00000000000E+00 -0.00000000000E+00 -0.17787920529E+02  0.17787920529E+02  0.00000000000E+00 0.  1.
          2    1    1    2  502    0 -0.14007462858E+02 -0.14518600965E+02  0.55070461662E+01  0.20912349155E+02  0.00000000000E+00 0.  1.
         -2    1    1    2    0  502  0.14007462858E+02  0.14518600965E+02  0.36732701583E-02  0.20174211340E+02  0.00000000000E+00 0.  1.
<mgrwt>
<rscale>  2 0.20174211E+02</rscale>
<asrwt>0</asrwt>
<pdfrwt beam="1">  1        2 0.35844062E-02 0.20174211E+02</pdfrwt>
<pdfrwt beam="2">  1       -2 0.27366031E-02 0.20174211E+02</pdfrwt>
<totfact> 0.61880712E+05</totfact>
</mgrwt>
</event>
<event>
 4    1  0.1474645E+004  0.3096810E+02  0.7546771E-02  0.1587628E+00
          2   -1    0    0  501    0  0.00000000000E+00  0.00000000000E+00  0.19511795128E+02  0.19511795128E+02  0.00000000000E+00 0. -1.
         -2   -1    0    0    0  501 -0.00000000000E+00 -0.00000000000E+00 -0.17330958164E+03  0.17330958164E+03  0.00000000000E+00 0.  1.
          2    1    1    2  502    0 -0.28880649639E+02 -0.11177256661E+02  0.47034031167E+01  0.31323234043E+02  0.00000000000E+00 0. -1.
         -2    1    1    2    0  502  0.28880649639E+02  0.11177256661E+02 -0.15850118962E+03  0.16149814272E+03  0.00000000000E+00 0.  1.
<mgrwt>
<rscale>  2 0.30968096E+02</rscale>
<asrwt>0</asrwt>
<pdfrwt beam="1">  1        2 0.30018147E-02 0.30968096E+02</pdfrwt>
<pdfrwt beam="2">  1       -2 0.26663012E-01 0.30968096E+02</pdfrwt>
<totfact> 0.28803739E+04</totfact>
</mgrwt>
</event>
<event>
 4    1  0.1474645E+004  0.4567475E+02  0.7546771E-02  0.1470173E+00
          2   -1    0    0  501    0  0.00000000000E+00  0.00000000000E+00  0.82384480676E+03  0.82384480676E+03  0.00000000000E+00 0.  1.
         -2   -1    0    0    0  501 -0.00000000000E+00 -0.00000000000E+00 -0.54780767859E+01  0.54780767859E+01  0.00000000000E+00 0.  1.
          2    1    1    2  502    0 -0.12567958367E+02 -0.43911610368E+02  0.71325997298E+03  0.71472090508E+03  0.00000000000E+00 0.  1.
         -2    1    1    2    0  502  0.12567958367E+02  0.43911610368E+02  0.10510675700E+03  0.11460197847E+03  0.00000000000E+00 0.  1.
<mgrwt>
<rscale>  2 0.45674753E+02</rscale>
<asrwt>0</asrwt>
<pdfrwt beam="1">  1        2 0.12674526E+00 0.45674753E+02</pdfrwt>
<pdfrwt beam="2">  1       -2 0.84278170E-03 0.45674753E+02</pdfrwt>
<totfact> 0.74651908E+04</totfact>
</mgrwt>
</event>
<event>
 4    1  0.1474645E+004  0.4125000E+02  0.7546771E-02  0.1499209E+00
         -2   -1    0    0    0  501 -0.00000000000E+00  0.00000000000E+00  0.12927038534E+03  0.12927038534E+03  0.00000000000E+00 0.  1.
          2   -1    0    0  501    0  0.00000000000E+00 -0.00000000000E+00 -0.11580496533E+04  0.11580496533E+04  0.00000000000E+00 0.  1.
          2    1    1    2  502    0  0.31085766752E+02 -0.27115271954E+02 -0.11543811603E+04  0.11551179274E+04  0.00000000000E+00 0.  1.
         -2    1    1    2    0  502 -0.31085766752E+02  0.27115271954E+02  0.12560189234E+03  0.13220211128E+03  0.00000000000E+00 0.  1.
<mgrwt>
<rscale>  2 0.41250004E+02</rscale>
<asrwt>0</asrwt>
<pdfrwt beam="2">  1        2 0.17816148E+00 0.41250004E+02</pdfrwt>
<pdfrwt beam="1">  1       -2 0.19887753E-01 0.41250004E+02</pdfrwt>
<totfact> 0.47013533E+02</totfact>
</mgrwt>
</event>
<event>
 4    1  0.1474645E+004  0.4013083E+02  0.7546771E-02  0.1507251E+00
          2   -1    0    0  501    0  0.00000000000E+00  0.00000000000E+00  0.96803232334E+02  0.96803232334E+02  0.00000000000E+00 0.  1.
         -2   -1    0    0    0  501 -0.00000000000E+00 -0.00000000000E+00 -0.51340679568E+02  0.51340679568E+02  0.00000000000E+00 0.  1.
          2    1    1    2  502    0  0.15955619591E+02  0.36822575254E+02  0.83630647356E+02  0.92760816200E+02  0.00000000000E+00 0.  1.
         -2    1    1    2    0  502 -0.15955619591E+02 -0.36822575254E+02 -0.38168094590E+02  0.55383095702E+02  0.00000000000E+00 0.  1.
<mgrwt>
<rscale>  2 0.40130834E+02</rscale>
<asrwt>0</asrwt>
<pdfrwt beam="1">  1        2 0.14892805E-01 0.40130834E+02</pdfrwt>
<pdfrwt beam="2">  1       -2 0.78985661E-02 0.40130834E+02</pdfrwt>
<totfact> 0.29481688E+04</totfact>
</mgrwt>
</event>
<event>
 4    1  0.1474645E+004  0.2670871E+02  0.7546771E-02  0.1637606E+00
         -2   -1    0    0    0  501 -0.00000000000E+00  0.00000000000E+00  0.22858257335E+01  0.22858257335E+01  0.00000000000E+00 0.  1.
          2   -1    0    0  501    0  0.00000000000E+00 -0.00000000000E+00 -0.55962031951E+03  0.55962031951E+03  0.00000000000E+00 0.  1.
          2    1    1    2  502    0 -0.12860437086E+01 -0.26677731801E+02 -0.46552538729E+03  0.46629094083E+03  0.00000000000E+00 0.  1.
         -2    1    1    2    0  502  0.12860437086E+01  0.26677731801E+02 -0.91809106484E+02  0.95615204418E+02  0.00000000000E+00 0.  1.
<mgrwt>
<rscale>  2 0.26708712E+02</rscale>
<asrwt>0</asrwt>
<pdfrwt beam="2">  1        2 0.86095632E-01 0.26708712E+02</pdfrwt>
<pdfrwt beam="1">  1       -2 0.35166469E-03 0.26708712E+02</pdfrwt>
<totfact> 0.33662934E+05</totfact>
</mgrwt>
</event>
<event>
 4    1  0.1474645E+004  0.3082601E+02  0.7546771E-02  0.1589134E+00
         -2   -1    0    0    0  501 -0.00000000000E+00  0.00000000000E+00  0.20841737487E+01  0.20841737487E+01  0.00000000000E+00 0.  1.
          2   -1    0    0  501    0  0.00000000000E+00 -0.00000000000E+00 -0.20594043597E+04  0.20594043597E+04  0.00000000000E+00 0. -1.
          2    1    1    2  502    0  0.92199055496E+01  0.29414897120E+02 -0.19381769795E+04  0.19384221023E+04  0.00000000000E+00 0. -1.
         -2    1    1    2    0  502 -0.92199055496E+01 -0.29414897120E+02 -0.11914320637E+03  0.12306643106E+03  0.00000000000E+00 0.  1.
<mgrwt>
<rscale>  2 0.30826009E+02</rscale>
<asrwt>0</asrwt>
<pdfrwt beam="2">  1        2 0.31683068E+00 0.30826009E+02</pdfrwt>
<pdfrwt beam="1">  1       -2 0.32064288E-03 0.30826009E+02</pdfrwt>
<totfact> 0.61777679E+04</totfact>
</mgrwt>
</event>
<event>
 4    1  0.1474645E+004  0.2050385E+02  0.7546771E-02  0.1735490E+00
          2   -1    0    0  501    0  0.00000000000E+00  0.00000000000E+00  0.26073949819E+03  0.26073949819E+03  0.00000000000E+00 0.  1.
         -2   -1    0    0    0  501 -0.00000000000E+00 -0.00000000000E+00 -0.12689047267E+03  0.12689047267E+03  0.00000000000E+00 0.  1.
          2    1    1    2  502    0 -0.44530120484E-01  0.20503798527E+02  0.25950418108E+03  0.26031294193E+03  0.00000000000E+00 0.  1.
         -2    1    1    2    0  502  0.44530120484E-01 -0.20503798527E+02 -0.12565515556E+03  0.12731702893E+03  0.00000000000E+00 0.  1.
<mgrwt>
<rscale>  2 0.20503847E+02</rscale>
<asrwt>0</asrwt>
<pdfrwt beam="1">  1        2 0.40113769E-01 0.20503847E+02</pdfrwt>
<pdfrwt beam="2">  1       -2 0.19521611E-01 0.20503847E+02</pdfrwt>
<totfact> 0.23773048E+03</totfact>
</mgrwt>
</event>
<event>
 4    1  0.1474645E+004  0.3277557E+02  0.7546771E-02  0.1569290E+00
         -2   -1    0    0    0  501 -0.00000000000E+00  0.00000000000E+00  0.71232588108E+01  0.71232588108E+01  0.00000000000E+00 0.  1.
          2   -1    0    0  501    0  0.00000000000E+00 -0.00000000000E+00 -0.18378821519E+03  0.18378821519E+03  0.00000000000E+00 0.  1.
          2    1    1    2  502    0  0.31907263449E+02  0.74942820892E+01 -0.12876921776E+03  0.13287493807E+03  0.00000000000E+00 0.  1.
         -2    1    1    2    0  502 -0.31907263449E+02 -0.74942820892E+01 -0.47895738618E+02  0.58036535929E+02  0.00000000000E+00 0.  1.
<mgrwt>
<rscale>  2 0.32775566E+02</rscale>
<asrwt>0</asrwt>
<pdfrwt beam="2">  1        2 0.28275108E-01 0.32775566E+02</pdfrwt>
<pdfrwt beam="1">  1       -2 0.10958861E-02 0.32775566E+02</pdfrwt>
<totfact> 0.23348942E+05</totfact>
</mgrwt>
</event>
<event>
 4    1  0.1474645E+004  0.2144473E+02  0.7546771E-02  0.1718036E+00
         -2   -1    0    0    0  501 -0.00000000000E+00  0.00000000000E+00  0.74478301796E+02  0.74478301796E+02  0.00000000000E+00 0.  1.
          2   -1    0    0  501    0  0.00000000000E+00 -0.00000000000E+00 -0.69845952999E+02  0.69845952999E+02  0.00000000000E+00 0.  1.
          2    1    1    2  502    0  0.28160095108E+01  0.21259036373E+02 -0.66582460113E+02  0.69950700724E+02  0.00000000000E+00 0.  1.
         -2    1    1    2    0  502 -0.28160095108E+01 -0.21259036373E+02  0.71214808910E+02  0.74373554071E+02  0.00000000000E+00 0.  1.
<mgrwt>
<rscale>  2 0.21444732E+02</rscale>
<asrwt>0</asrwt>
<pdfrwt beam="2">  1        2 0.10745531E-01 0.21444732E+02</pdfrwt>
<pdfrwt beam="1">  1       -2 0.11458200E-01 0.21444732E+02</pdfrwt>
<totfact> 0.21867708E+04</totfact>
</mgrwt>
</event>
<event>
 4    1  0.1474645E+004  0.2535572E+02  0.7546771E-02  0.1655944E+00
         -2   -1    0    0    0  501 -0.00000000000E+00  0.00000000000E+00  0.60098364157E+00  0.60098364157E+00  0.00000000000E+00 0.  1.
          2   -1    0    0  501    0  0.00000000000E+00 -0.00000000000E+00 -0.10771362903E+04  0.10771362903E+04  0.00000000000E+00 0. -1.
          2    1    1    2  502    0  0.99619325644E+01 -0.23316773907E+02 -0.49369370827E+03  0.49434440386E+03  0.00000000000E+00 0. -1.
         -2    1    1    2    0  502 -0.99619325644E+01  0.23316773907E+02 -0.58284159840E+03  0.58339287009E+03  0.00000000000E+00 0.  1.
<mgrwt>
<rscale>  2 0.25355723E+02</rscale>
<asrwt>0</asrwt>
<pdfrwt beam="2">  1        2 0.16571156E+00 0.25355723E+02</pdfrwt>
<pdfrwt beam="1">  1       -2 0.92459980E-04 0.25355723E+02</pdfrwt>
<totfact> 0.92786872E+05</totfact>
</mgrwt>
</event>
<event>
 4    1  0.1474645E+004  0.3062757E+02  0.7546771E-02  0.1591254E+00
         -2   -1    0    0    0  501 -0.00000000000E+00  0.00000000000E+00  0.19612362040E+01  0.19612362040E+01  0.00000000000E+00 0. -1.
          2   -1    0    0  501    0  0.00000000000E+00 -0.00000000000E+00 -0.54955987058E+03  0.54955987058E+03  0.00000000000E+00 0.  1.
          2    1    1    2  502    0 -0.52918750970E+00  0.30622999236E+02 -0.37310280015E+03  0.37435778020E+03  0.00000000000E+00 0. -1.
         -2    1    1    2    0  502  0.52918750970E+00 -0.30622999236E+02 -0.17449583423E+03  0.17716332658E+03  0.00000000000E+00 0.  1.
<mgrwt>
<rscale>  2 0.30627571E+02</rscale>
<asrwt>0</asrwt>
<pdfrwt beam="2">  1        2 0.84547649E-01 0.30627571E+02</pdfrwt>
<pdfrwt beam="1">  1       -2 0.30172873E-03 0.30627571E+02</pdfrwt>
<totfact> 0.43666364E+05</totfact>
</mgrwt>
</event>
<event>
 4    1  0.1474645E+004  0.5065915E+02  0.7546771E-02  0.1441818E+00
          2   -1    0    0  501    0  0.00000000000E+00  0.00000000000E+00  0.41942115994E+03  0.41942115994E+03  0.00000000000E+00 0.  1.
         -2   -1    0    0    0  501 -0.00000000000E+00 -0.00000000000E+00 -0.44757939413E+02  0.44757939413E+02  0.00000000000E+00 0. -1.
          2    1    1    2  502    0  0.95307563432E+01  0.49754538784E+02  0.40297409631E+03  0.40614587496E+03  0.00000000000E+00 0.  1.
         -2    1    1    2    0  502 -0.95307563432E+01 -0.49754538784E+02 -0.28310875785E+02  0.58033224396E+02  0.00000000000E+00 0. -1.
<mgrwt>
<rscale>  2 0.50659150E+02</rscale>
<asrwt>0</asrwt>
<pdfrwt beam="1">  1        2 0.64526330E-01 0.50659150E+02</pdfrwt>
<pdfrwt beam="2">  1       -2 0.68858371E-02 0.50659150E+02</pdfrwt>
<totfact> 0.79686661E+03</totfact>
</mgrwt>
</event>
<event>
 4    1  0.1474645E+004  0.2572013E+02  0.7546771E-02  0.1650869E+00
         -2   -1    0    0    0  501 -0.00000000000E+00  0.00000000000E+00  0.87518811674E+00  0.87518811674E+00  0.00000000000E+00 0. -1.
          2   -1    0    0  501    0  0.00000000000E+00 -0.00000000000E+00 -0.85229142652E+03  0.85229142652E+03  0.00000000000E+00 0. -1.
          2    1    1    2  502    0 -0.25265317267E+02  0.48154720562E+01 -0.56919274137E+03  0.56977355314E+03  0.00000000000E+00 0. -1.
         -2    1    1    2    0  502  0.25265317267E+02 -0.48154720562E+01 -0.28222349704E+03  0.28339306150E+03  0.00000000000E+00 0. -1.
<mgrwt>
<rscale>  2 0.25720129E+02</rscale>
<asrwt>0</asrwt>
<pdfrwt beam="2">  1        2 0.13112205E+00 0.25720129E+02</pdfrwt>
<pdfrwt beam="1">  1       -2 0.13464403E-03 0.25720129E+02</pdfrwt>
<totfact> 0.75640283E+05</totfact>
</mgrwt>
</event>
<event>
 4    1  0.1474645E+004  0.2272355E+02  0.7546771E-02  0.1696031E+00
          2   -1    0    0  501    0  0.00000000000E+00  0.00000000000E+00  0.15170639587E+02  0.15170639587E+02  0.00000000000E+00 0.  1.
         -2   -1    0    0    0  501 -0.00000000000E+00 -0.00000000000E+00 -0.41477901450E+02  0.41477901450E+02  0.00000000000E+00 0. -1.
          2    1    1    2  502    0  0.86169001093E+01  0.21026382666E+02 -0.11567177367E+01  0.22752971925E+02  0.00000000000E+00 0.  1.
         -2    1    1    2    0  502 -0.86169001093E+01 -0.21026382666E+02 -0.25150544127E+02  0.33895569112E+02  0.00000000000E+00 0. -1.
<mgrwt>
<rscale>  2 0.22723550E+02</rscale>
<asrwt>0</asrwt>
<pdfrwt beam="1">  1        2 0.23339446E-02 0.22723550E+02</pdfrwt>
<pdfrwt beam="2">  1       -2 0.63812156E-02 0.22723550E+02</pdfrwt>
<totfact> 0.33561185E+05</totfact>
</mgrwt>
</event>
<event>
 4    1  0.1474645E+004  0.2099786E+02  0.7546771E-02  0.1726183E+00
         -2   -1    0    0    0  501 -0.00000000000E+00  0.00000000000E+00  0.20677371260E+01  0.20677371260E+01  0.00000000000E+00 0.  1.
          2   -1    0    0  501    0  0.00000000000E+00 -0.00000000000E+00 -0.21807372093E+03  0.21807372093E+03  0.00000000000E+00 0. -1.
          2    1    1    2  502    0 -0.14336487174E+01 -0.20948860102E+02 -0.12440204385E+03  0.12616171607E+03  0.00000000000E+00 0. -1.
         -2    1    1    2    0  502  0.14336487174E+01  0.20948860102E+02 -0.91603939947E+02  0.93979741976E+02  0.00000000000E+00 0.  1.
<mgrwt>
<rscale>  2 0.20997859E+02</rscale>
<asrwt>0</asrwt>
<pdfrwt beam="2">  1        2 0.33549805E-01 0.20997859E+02</pdfrwt>
<pdfrwt beam="1">  1       -2 0.31811339E-03 0.20997859E+02</pdfrwt>
<totfact> 0.91589837E+05</totfact>
</mgrwt>
</event>
<event>
 4    1  0.1474645E+004  0.2090528E+02  0.7546771E-02  0.1727903E+00
          2   -1    0    0  501    0  0.00000000000E+00  0.00000000000E+00  0.60493180234E+02  0.60493180234E+02  0.00000000000E+00 0.  1.
         -2   -1    0    0    0  501 -0.00000000000E+00 -0.00000000000E+00 -0.12924054184E+02  0.12924054184E+02  0.00000000000E+00 0.  1.
          2    1    1    2  502    0  0.20904790760E+02 -0.14234621515E+00  0.48162144752E+02  0.52503549655E+02  0.00000000000E+00 0.  1.
         -2    1    1    2    0  502 -0.20904790760E+02  0.14234621515E+00 -0.59301870278E+00  0.20913684763E+02  0.00000000000E+00 0.  1.
<mgrwt>
<rscale>  2 0.20905275E+02</rscale>
<asrwt>0</asrwt>
<pdfrwt beam="1">  1        2 0.93066430E-02 0.20905275E+02</pdfrwt>
<pdfrwt beam="2">  1       -2 0.19883161E-02 0.20905275E+02</pdfrwt>
<totfact> 0.30811816E+05</totfact>
</mgrwt>
</event>
<event>
 4    1  0.1474645E+004  0.2060539E+02  0.7546771E-02  0.1733550E+00
          2   -1    0    0  501    0  0.00000000000E+00  0.00000000000E+00  0.72927483297E+03  0.72927483297E+03  0.00000000000E+00 0.  1.
         -2   -1    0    0    0  501 -0.00000000000E+00 -0.00000000000E+00 -0.88411514214E+02  0.88411514214E+02  0.00000000000E+00 0.  1.
          2    1    1    2  502    0 -0.10111714478E+02 -0.17953704709E+02  0.72792647469E+03  0.72821805446E+03  0.00000000000E+00 0.  1.
         -2    1    1    2    0  502  0.10111714478E+02  0.17953704709E+02 -0.87063155934E+02  0.89468292728E+02  0.00000000000E+00 0.  1.
<mgrwt>
<rscale>  2 0.20605394E+02</rscale>
<asrwt>0</asrwt>
<pdfrwt beam="1">  1        2 0.11219612E+00 0.20605394E+02</pdfrwt>
<pdfrwt beam="2">  1       -2 0.13601772E-01 0.20605394E+02</pdfrwt>
<totfact> 0.14881428E+03</totfact>
</mgrwt>
</event>
<event>
 4    1  0.1474645E+004  0.2044846E+02  0.7546771E-02  0.1736554E+00
         -2   -1    0    0    0  501 -0.00000000000E+00  0.00000000000E+00  0.72412125942E+02  0.72412125942E+02  0.00000000000E+00 0. -1.
          2   -1    0    0  501    0  0.00000000000E+00 -0.00000000000E+00 -0.10166523281E+02  0.10166523281E+02  0.00000000000E+00 0.  1.
          2    1    1    2  502    0 -0.20347015488E+02  0.20343726383E+01  0.39842493086E+01  0.20833001556E+02  0.00000000000E+00 0.  1.
         -2    1    1    2    0  502  0.20347015488E+02 -0.20343726383E+01  0.58261353352E+02  0.61745647666E+02  0.00000000000E+00 0. -1.
<mgrwt>
<rscale>  2 0.20448465E+02</rscale>
<asrwt>0</asrwt>
<pdfrwt beam="2">  1        2 0.15640806E-02 0.20448465E+02</pdfrwt>
<pdfrwt beam="1">  1       -2 0.11140327E-01 0.20448465E+02</pdfrwt>
<totfact> 0.23940967E+05</totfact>
</mgrwt>
</event>
<event>
 4    1  0.1474645E+004  0.4733101E+02  0.7546771E-02  0.1460293E+00
          2   -1    0    0  501    0  0.00000000000E+00  0.00000000000E+00  0.43773467089E+03  0.43773467089E+03  0.00000000000E+00 0. -1.
         -2   -1    0    0    0  501 -0.00000000000E+00 -0.00000000000E+00 -0.20530028100E+02  0.20530028100E+02  0.00000000000E+00 0.  1.
          2    1    1    2  502    0  0.32422609832E+02 -0.34481868506E+02  0.40713170244E+03  0.40987369764E+03  0.00000000000E+00 0. -1.
         -2    1    1    2    0  502 -0.32422609832E+02  0.34481868506E+02  0.10072940342E+02  0.48391001344E+02  0.00000000000E+00 0.  1.
<mgrwt>
<rscale>  2 0.47331014E+02</rscale>
<asrwt>0</asrwt>
<pdfrwt beam="1">  1        2 0.67343788E-01 0.47331014E+02</pdfrwt>
<pdfrwt beam="2">  1       -2 0.31584662E-02 0.47331014E+02</pdfrwt>
<totfact> 0.23513232E+04</totfact>
</mgrwt>
</event>
<event>
 4    1  0.1474645E+004  0.2229662E+02  0.7546771E-02  0.1703172E+00
         -2   -1    0    0    0  501 -0.00000000000E+00  0.00000000000E+00  0.11593337463E+02  0.11593337463E+02  0.00000000000E+00 0.  1.
          2   -1    0    0  501    0  0.00000000000E+00 -0.00000000000E+00 -0.33099888991E+03  0.33099888991E+03  0.00000000000E+00 0. -1.
          2    1    1    2  502    0  0.17571712936E+02 -0.13724942789E+02 -0.31951831859E+03  0.32029532476E+03  0.00000000000E+00 0. -1.
         -2    1    1    2    0  502 -0.17571712936E+02  0.13724942789E+02  0.11276613656E+00  0.22296902616E+02  0.00000000000E+00 0.  1.
<mgrwt>
<rscale>  2 0.22296617E+02</rscale>
<asrwt>0</asrwt>
<pdfrwt beam="2">  1        2 0.50922902E-01 0.22296617E+02</pdfrwt>
<pdfrwt beam="1">  1       -2 0.17835905E-02 0.22296617E+02</pdfrwt>
<totfact> 0.60754864E+04</totfact>
</mgrwt>
</event>
<event>
 4    1  0.1474645E+004  0.2081209E+02  0.7546771E-02  0.1729645E+00
          2   -1    0    0  501    0  0.00000000000E+00  0.00000000000E+00  0.11421940252E+04  0.11421940252E+04  0.00000000000E+00 0. -1.
         -2   -1    0    0    0  501 -0.00000000000E+00 -0.00000000000E+00 -0.77498475185E+02  0.77498475185E+02  0.00000000000E+00 0.  1.
          2    1    1    2  502    0  0.18352813293E+02  0.98141346133E+01  0.11407001274E+04  0.11408899700E+04  0.00000000000E+00 0. -1.
         -2    1    1    2    0  502 -0.18352813293E+02 -0.98141346133E+01 -0.76004577442E+02  0.78802530329E+02  0.00000000000E+00 0.  1.
<mgrwt>
<rscale>  2 0.20812088E+02</rscale>
<asrwt>0</asrwt>
<pdfrwt beam="1">  1        2 0.17572215E+00 0.20812088E+02</pdfrwt>
<pdfrwt beam="2">  1       -2 0.11922843E-01 0.20812088E+02</pdfrwt>
<totfact> 0.10638928E+03</totfact>
</mgrwt>
</event>
<event>
 4    1  0.1474645E+004  0.2213287E+02  0.7546771E-02  0.1705964E+00
          2   -1    0    0  501    0  0.00000000000E+00  0.00000000000E+00  0.17262658604E+04  0.17262658604E+04  0.00000000000E+00 0.  1.
         -2   -1    0    0    0  501 -0.00000000000E+00 -0.00000000000E+00 -0.48096708319E+00  0.48096708319E+00  0.00000000000E+00 0.  1.
          2    1    1    2  502    0 -0.15923089828E+02 -0.15372669507E+02  0.14157209306E+04  0.14158939287E+04  0.00000000000E+00 0.  1.
         -2    1    1    2    0  502  0.15923089828E+02  0.15372669507E+02  0.31006396269E+03  0.31085289884E+03  0.00000000000E+00 0.  1.
<mgrwt>
<rscale>  2 0.22132866E+02</rscale>
<asrwt>0</asrwt>
<pdfrwt beam="1">  1        2 0.26557440E+00 0.22132866E+02</pdfrwt>
<pdfrwt beam="2">  1       -2 0.73996318E-04 0.22132866E+02</pdfrwt>
<totfact> 0.58115920E+05</totfact>
</mgrwt>
</event>
<event>
 4    1  0.1474645E+004  0.4593335E+02  0.7546771E-02  0.1468598E+00
         -2   -1    0    0    0  501 -0.00000000000E+00  0.00000000000E+00  0.44906823522E+02  0.44906823522E+02  0.00000000000E+00 0. -1.
          2   -1    0    0  501    0  0.00000000000E+00 -0.00000000000E+00 -0.23339564854E+03  0.23339564854E+03  0.00000000000E+00 0. -1.
          2    1    1    2  502    0 -0.16859722896E+02 -0.42727298619E+02 -0.21860363268E+03  0.22337730530E+03  0.00000000000E+00 0. -1.
         -2    1    1    2    0  502  0.16859722896E+02  0.42727298619E+02  0.30114807660E+02  0.54925166761E+02  0.00000000000E+00 0. -1.
<mgrwt>
<rscale>  2 0.45933346E+02</rscale>
<asrwt>0</asrwt>
<pdfrwt beam="2">  1        2 0.35907023E-01 0.45933346E+02</pdfrwt>
<pdfrwt beam="1">  1       -2 0.69087421E-02 0.45933346E+02</pdfrwt>
<totfact> 0.14283165E+04</totfact>
</mgrwt>
</event>
<event>
 4    1  0.1474645E+004  0.4260321E+02  0.7546771E-02  0.1489884E+00
          2   -1    0    0  501    0  0.00000000000E+00  0.00000000000E+00  0.10750714428E+02  0.10750714428E+02  0.00000000000E+00 0.  1.
         -2   -1    0    0    0  501 -0.00000000000E+00 -0.00000000000E+00 -0.35679255197E+03  0.35679255197E+03  0.00000000000E+00 0. -1.
          2    1    1    2  502    0 -0.15977136899E+02 -0.39493853984E+02 -0.39635826074E+02  0.58189622052E+02  0.00000000000E+00 0.  1.
         -2    1    1    2    0  502  0.15977136899E+02  0.39493853984E+02 -0.30640601147E+03  0.30935364435E+03  0.00000000000E+00 0. -1.
<mgrwt>
<rscale>  2 0.42603209E+02</rscale>
<asrwt>0</asrwt>
<pdfrwt beam="1">  1        2 0.16539561E-02 0.42603209E+02</pdfrwt>
<pdfrwt beam="2">  1       -2 0.54891160E-01 0.42603209E+02</pdfrwt>
<totfact> 0.17750015E+04</totfact>
</mgrwt>
</event>
<event>
 4    1  0.1474645E+004  0.5196895E+02  0.7546771E-02  0.1435002E+00
          2   -1    0    0  501    0  0.00000000000E+00  0.00000000000E+00  0.18049869521E+03  0.18049869521E+03  0.00000000000E+00 0. -1.
         -2   -1    0    0    0  501 -0.00000000000E+00 -0.00000000000E+00 -0.35567968820E+02  0.35567968820E+02  0.00000000000E+00 0.  1.
          2    1    1    2  502    0  0.61901279839E+01  0.51598978116E+02  0.15469264926E+03  0.16318881077E+03  0.00000000000E+00 0. -1.
         -2    1    1    2    0  502 -0.61901279839E+01 -0.51598978116E+02 -0.97619228667E+01  0.52877853257E+02  0.00000000000E+00 0.  1.
<mgrwt>
<rscale>  2 0.51968954E+02</rscale>
<asrwt>0</asrwt>
<pdfrwt beam="1">  1        2 0.27769030E-01 0.51968954E+02</pdfrwt>
<pdfrwt beam="2">  1       -2 0.54719953E-02 0.51968954E+02</pdfrwt>
<totfact> 0.26768634E+04</totfact>
</mgrwt>
</event>
<event>
 4    1  0.1474645E+004  0.2008235E+02  0.7546771E-02  0.1743695E+00
          2   -1    0    0  501    0  0.00000000000E+00  0.00000000000E+00  0.43955521671E+01  0.43955521671E+01  0.00000000000E+00 0.  1.
         -2   -1    0    0    0  501 -0.00000000000E+00 -0.00000000000E+00 -0.24420187829E+03  0.24420187829E+03  0.00000000000E+00 0.  1.
          2    1    1    2  502    0 -0.19923183734E+02 -0.25234308496E+01 -0.21693188309E+02  0.29561721404E+02  0.00000000000E+00 0.  1.
         -2    1    1    2    0  502  0.19923183734E+02  0.25234308496E+01 -0.21811313782E+03  0.21903570906E+03  0.00000000000E+00 0.  1.
<mgrwt>
<rscale>  2 0.20082354E+02</rscale>
<asrwt>0</asrwt>
<pdfrwt beam="1">  1        2 0.67623888E-03 0.20082354E+02</pdfrwt>
<pdfrwt beam="2">  1       -2 0.37569515E-01 0.20082354E+02</pdfrwt>
<totfact> 0.98399484E+04</totfact>
</mgrwt>
</event>
<event>
 4    1  0.1474645E+004  0.2109425E+02  0.7546771E-02  0.1724404E+00
         -2   -1    0    0    0  501 -0.00000000000E+00  0.00000000000E+00  0.29352453908E+02  0.29352453908E+02  0.00000000000E+00 0.  1.
          2   -1    0    0  501    0  0.00000000000E+00 -0.00000000000E+00 -0.19691306876E+03  0.19691306876E+03  0.00000000000E+00 0.  1.
          2    1    1    2  502    0 -0.16547606658E+02 -0.13082201201E+02 -0.19247107149E+03  0.19362355392E+03  0.00000000000E+00 0.  1.
         -2    1    1    2    0  502  0.16547606658E+02  0.13082201201E+02  0.24910456630E+02  0.32641968750E+02  0.00000000000E+00 0.  1.
<mgrwt>
<rscale>  2 0.21094247E+02</rscale>
<asrwt>0</asrwt>
<pdfrwt beam="2">  1        2 0.30294319E-01 0.21094247E+02</pdfrwt>
<pdfrwt beam="1">  1       -2 0.45157620E-02 0.21094247E+02</pdfrwt>
<totfact> 0.27757500E+04</totfact>
</mgrwt>
</event>
<event>
 4    1  0.1474645E+004  0.2518635E+02  0.7546771E-02  0.1658340E+00
         -2   -1    0    0    0  501 -0.00000000000E+00  0.00000000000E+00  0.26298950977E+01  0.26298950977E+01  0.00000000000E+00 0. -1.
          2   -1    0    0  501    0  0.00000000000E+00 -0.00000000000E+00 -0.69490592172E+03  0.69490592172E+03  0.00000000000E+00 0. -1.
          2    1    1    2  502    0  0.17844811625E+02  0.17774002008E+02 -0.62794825721E+03  0.62845315353E+03  0.00000000000E+00 0. -1.
         -2    1    1    2    0  502 -0.17844811625E+02 -0.17774002008E+02 -0.64327769414E+02  0.69082663289E+02  0.00000000000E+00 0. -1.
<mgrwt>
<rscale>  2 0.25186354E+02</rscale>
<asrwt>0</asrwt>
<pdfrwt beam="2">  1        2 0.10690860E+00 0.25186354E+02</pdfrwt>
<pdfrwt beam="1">  1       -2 0.40459927E-03 0.25186354E+02</pdfrwt>
<totfact> 0.21843367E+05</totfact>
</mgrwt>
</event>
<event>
 4    1  0.1474645E+004  0.2412148E+02  0.7546771E-02  0.1673951E+00
         -2   -1    0    0    0  501 -0.00000000000E+00  0.00000000000E+00  0.74722144468E+02  0.74722144468E+02  0.00000000000E+00 0.  1.
          2   -1    0    0  501    0  0.00000000000E+00 -0.00000000000E+00 -0.97474067795E+01  0.97474067795E+01  0.00000000000E+00 0.  1.
          2    1    1    2  502    0  0.18026896366E+02  0.16027370944E+02  0.13545533547E+02  0.27664545741E+02  0.00000000000E+00 0.  1.
         -2    1    1    2    0  502 -0.18026896366E+02 -0.16027370944E+02  0.51429204142E+02  0.56805005507E+02  0.00000000000E+00 0.  1.
<mgrwt>
<rscale>  2 0.24121476E+02</rscale>
<asrwt>0</asrwt>
<pdfrwt beam="2">  1        2 0.14996011E-02 0.24121476E+02</pdfrwt>
<pdfrwt beam="1">  1       -2 0.11495714E-01 0.24121476E+02</pdfrwt>
<totfact> 0.25347235E+05</totfact>
</mgrwt>
</event>
<event>
 4    1  0.1474645E+004  0.2647632E+02  0.7546771E-02  0.1640660E+00
         -2   -1    0    0    0  501 -0.00000000000E+00  0.00000000000E+00  0.26557567701E+03  0.26557567701E+03  0.00000000000E+00 0. -1.
          2   -1    0    0  501    0  0.00000000000E+00 -0.00000000000E+00 -0.22544477468E+02  0.22544477468E+02  0.00000000000E+00 0.  1.
          2    1    1    2  502    0  0.47857394410E+01 -0.26040205681E+02 -0.13848670911E+02  0.29879446111E+02  0.00000000000E+00 0.  1.
         -2    1    1    2    0  502 -0.47857394410E+01  0.26040205681E+02  0.25687987046E+03  0.25824070837E+03  0.00000000000E+00 0. -1.
<mgrwt>
<rscale>  2 0.26476322E+02</rscale>
<asrwt>0</asrwt>
<pdfrwt beam="2">  1        2 0.34683813E-02 0.26476322E+02</pdfrwt>
<pdfrwt beam="1">  1       -2 0.40857794E-01 0.26476322E+02</pdfrwt>
<totfact> 0.10989779E+04</totfact>
</mgrwt>
</event>
<event>
 4    1  0.1474645E+004  0.2110049E+02  0.7546771E-02  0.1724289E+00
         -2   -1    0    0    0  501 -0.00000000000E+00  0.00000000000E+00  0.57205114399E+01  0.57205114399E+01  0.00000000000E+00 0.  1.
          2   -1    0    0  501    0  0.00000000000E+00 -0.00000000000E+00 -0.46611192829E+03  0.46611192829E+03  0.00000000000E+00 0.  1.
          2    1    1    2  502    0 -0.19014659063E+02  0.91473104953E+01 -0.44551650303E+03  0.44601590220E+03  0.00000000000E+00 0.  1.
         -2    1    1    2    0  502  0.19014659063E+02 -0.91473104953E+01 -0.14874913821E+02  0.25816537525E+02  0.00000000000E+00 0.  1.
<mgrwt>
<rscale>  2 0.21100487E+02</rscale>
<asrwt>0</asrwt>
<pdfrwt beam="2">  1        2 0.71709539E-01 0.21100487E+02</pdfrwt>
<pdfrwt beam="1">  1       -2 0.88007854E-03 0.21100487E+02</pdfrwt>
<totfact> 0.11146037E+05</totfact>
</mgrwt>
</event>
<event>
 4    1  0.1474645E+004  0.3071941E+02  0.7546771E-02  0.1590270E+00
          2   -1    0    0  501    0  0.00000000000E+00  0.00000000000E+00  0.44175343188E+03  0.44175343188E+03  0.00000000000E+00 0. -1.
         -2   -1    0    0    0  501 -0.00000000000E+00 -0.00000000000E+00 -0.55081429637E+01  0.55081429637E+01  0.00000000000E+00 0.  1.
          2    1    1    2  502    0  0.30719411140E+02 -0.94025907832E-02  0.39309435730E+03  0.39429285569E+03  0.00000000000E+00 0. -1.
         -2    1    1    2    0  502 -0.30719411140E+02  0.94025907832E-02  0.43150931617E+02  0.52968719152E+02  0.00000000000E+00 0.  1.
<mgrwt>
<rscale>  2 0.30719413E+02</rscale>
<asrwt>0</asrwt>
<pdfrwt beam="1">  1        2 0.67962039E-01 0.30719413E+02</pdfrwt>
<pdfrwt beam="2">  1       -2 0.84740696E-03 0.30719413E+02</pdfrwt>
<totfact> 0.13498507E+05</totfact>
</mgrwt>
</event>
<event>
 4    1  0.1474645E+004  0.2404669E+02  0.7546771E-02  0.1675085E+00
          2   -1    0    0  501    0  0.00000000000E+00  0.00000000000E+00  0.85623658713E+02  0.85623658713E+02  0.00000000000E+00 0.  1.
         -2   -1    0    0    0  501 -0.00000000000E+00 -0.00000000000E+00 -0.27462222090E+02  0.27462222090E+02  0.00000000000E+00 0. -1.
          2    1    1    2  502    0  0.12374683239E+02  0.20618213206E+02  0.78181583675E+02  0.81796109486E+02  0.00000000000E+00 0.  1.
         -2    1    1    2    0  502 -0.12374683239E+02 -0.20618213206E+02 -0.20020147052E+02  0.31289771317E+02  0.00000000000E+00 0. -1.
<mgrwt>
<rscale>  2 0.24046694E+02</rscale>
<asrwt>0</asrwt>
<pdfrwt beam="1">  1        2 0.13172870E-01 0.24046694E+02</pdfrwt>
<pdfrwt beam="2">  1       -2 0.42249573E-02 0.24046694E+02</pdfrwt>
<totfact> 0.75774798E+04</totfact>
</mgrwt>
</event>
<event>
 4    1  0.1474645E+004  0.2105552E+02  0.7546771E-02  0.1725117E+00
         -2   -1    0    0    0  501 -0.00000000000E+00  0.00000000000E+00  0.11545337243E+02  0.11545337243E+02  0.00000000000E+00 0.  1.
          2   -1    0    0  501    0  0.00000000000E+00 -0.00000000000E+00 -0.87382471020E+03  0.87382471020E+03  0.00000000000E+00 0. -1.
          2    1    1    2  502    0 -0.14598078758E+02  0.15173371892E+02 -0.86398872647E+03  0.86424525141E+03  0.00000000000E+00 0. -1.
         -2    1    1    2    0  502  0.14598078758E+02 -0.15173371892E+02  0.17093535125E+01  0.21124796033E+02  0.00000000000E+00 0.  1.
<mgrwt>
<rscale>  2 0.21055525E+02</rscale>
<asrwt>0</asrwt>
<pdfrwt beam="2">  1        2 0.13443460E+00 0.21055525E+02</pdfrwt>
<pdfrwt beam="1">  1       -2 0.17762053E-02 0.21055525E+02</pdfrwt>
<totfact> 0.22102078E+04</totfact>
</mgrwt>
</event>
<event>
 4    1  0.1474645E+004  0.2254091E+02  0.7546771E-02  0.1699062E+00
          2   -1    0    0  501    0  0.00000000000E+00  0.00000000000E+00  0.35754921371E+02  0.35754921371E+02  0.00000000000E+00 0.  1.
         -2   -1    0    0    0  501 -0.00000000000E+00 -0.00000000000E+00 -0.15321289000E+02  0.15321289000E+02  0.00000000000E+00 0.  1.
          2    1    1    2  502    0 -0.19856488355E+02  0.10668303672E+02  0.17093362103E+02  0.28289147407E+02  0.00000000000E+00 0.  1.
         -2    1    1    2    0  502  0.19856488355E+02 -0.10668303672E+02  0.33402702670E+01  0.22787062963E+02  0.00000000000E+00 0.  1.
<mgrwt>
<rscale>  2 0.22540915E+02</rscale>
<asrwt>0</asrwt>
<pdfrwt beam="1">  1        2 0.55007571E-02 0.22540915E+02</pdfrwt>
<pdfrwt beam="2">  1       -2 0.23571214E-02 0.22540915E+02</pdfrwt>
<totfact> 0.46563389E+05</totfact>
</mgrwt>
</event>
<event>
 4    1  0.1474645E+004  0.2214644E+02  0.7546771E-02  0.1705732E+00
          2   -1    0    0  501    0  0.00000000000E+00  0.00000000000E+00  0.75875961562E+03  0.75875961562E+03  0.00000000000E+00 0. -1.
         -2   -1    0    0    0  501 -0.00000000000E+00 -0.00000000000E+00 -0.34193004399E+01  0.34193004399E+01  0.00000000000E+00 0. -1.
          2    1    1    2  502    0  0.11593019947E+02 -0.18869724387E+02  0.72085270632E+03  0.72119282360E+03  0.00000000000E+00 0. -1.
         -2    1    1    2    0  502 -0.11593019947E+02  0.18869724387E+02  0.34487608865E+02  0.40986092460E+02  0.00000000000E+00 0. -1.
<mgrwt>
<rscale>  2 0.22146436E+02</rscale>
<asrwt>0</asrwt>
<pdfrwt beam="1">  1        2 0.11673211E+00 0.22146436E+02</pdfrwt>
<pdfrwt beam="2">  1       -2 0.52604683E-03 0.22146436E+02</pdfrwt>
<totfact> 0.13530882E+05</totfact>
</mgrwt>
</event>
<event>
 4    1  0.1474645E+004  0.2188514E+02  0.7546771E-02  0.1710246E+00
         -2   -1    0    0    0  501 -0.00000000000E+00  0.00000000000E+00  0.21056166666E+01  0.21056166666E+01  0.00000000000E+00 0. -1.
          2   -1    0    0  501    0  0.00000000000E+00 -0.00000000000E+00 -0.23333530121E+03  0.23333530121E+03  0.00000000000E+00 0. -1.
          2    1    1    2  502    0 -0.82020435051E+01 -0.20290045813E+02 -0.13428282333E+03  0.13605453362E+03  0.00000000000E+00 0. -1.
         -2    1    1    2    0  502  0.82020435051E+01  0.20290045813E+02 -0.96946861219E+02  0.99386384263E+02  0.00000000000E+00 0. -1.
<mgrwt>
<rscale>  2 0.21885143E+02</rscale>
<asrwt>0</asrwt>
<pdfrwt beam="2">  1        2 0.35897724E-01 0.21885143E+02</pdfrwt>
<pdfrwt beam="1">  1       -2 0.32394115E-03 0.21885143E+02</pdfrwt>
<totfact> 0.84735771E+05</totfact>
</mgrwt>
</event>
<event>
 4    1  0.1474645E+004  0.2868382E+02  0.7546771E-02  0.1613110E+00
         -2   -1    0    0    0  501 -0.00000000000E+00  0.00000000000E+00  0.35283869801E+02  0.35283869801E+02  0.00000000000E+00 0.  1.
          2   -1    0    0  501    0  0.00000000000E+00 -0.00000000000E+00 -0.14229045945E+04  0.14229045945E+04  0.00000000000E+00 0.  1.
          2    1    1    2  502    0  0.23461045782E+02 -0.16502760100E+02 -0.14169057708E+04  0.14171960786E+04  0.00000000000E+00 0.  1.
         -2    1    1    2    0  502 -0.23461045782E+02  0.16502760100E+02  0.29285046126E+02  0.40992385716E+02  0.00000000000E+00 0.  1.
<mgrwt>
<rscale>  2 0.28683824E+02</rscale>
<asrwt>0</asrwt>
<pdfrwt beam="2">  1        2 0.21890841E+00 0.28683824E+02</pdfrwt>
<pdfrwt beam="1">  1       -2 0.54282874E-02 0.28683824E+02</pdfrwt>
<totfact> 0.24866676E+03</totfact>
</mgrwt>
</event>
<event>
 4    1  0.1474645E+004  0.5561322E+02  0.7546771E-02  0.1417221E+00
         -2   -1    0    0    0  501 -0.00000000000E+00  0.00000000000E+00  0.51419911777E+02  0.51419911777E+02  0.00000000000E+00 0. -1.
          2   -1    0    0  501    0  0.00000000000E+00 -0.00000000000E+00 -0.10359266641E+03  0.10359266641E+03  0.00000000000E+00 0. -1.
          2    1    1    2  502    0 -0.14836114129E+02 -0.53597764867E+02 -0.76278800253E+02  0.94399608311E+02  0.00000000000E+00 0. -1.
         -2    1    1    2    0  502  0.14836114129E+02  0.53597764867E+02  0.24106045623E+02  0.60612969873E+02  0.00000000000E+00 0. -1.
<mgrwt>
<rscale>  2 0.55613224E+02</rscale>
<asrwt>0</asrwt>
<pdfrwt beam="2">  1        2 0.15937333E-01 0.55613224E+02</pdfrwt>
<pdfrwt beam="1">  1       -2 0.79107558E-02 0.55613224E+02</pdfrwt>
<totfact> 0.28640470E+04</totfact>
</mgrwt>
</event>
<event>
 4    1  0.1474645E+004  0.2503589E+02  0.7546771E-02  0.1660487E+00
         -2   -1    0    0    0  501 -0.00000000000E+00  0.00000000000E+00  0.49348559856E+00  0.49348559856E+00  0.00000000000E+00 0.  1.
          2   -1    0    0  501    0  0.00000000000E+00 -0.00000000000E+00 -0.13975614059E+04  0.13975614059E+04  0.00000000000E+00 0. -1.
          2    1    1    2  502    0 -0.24157471572E+01  0.24919069277E+02 -0.90960556026E+03  0.90995003770E+03  0.00000000000E+00 0. -1.
         -2    1    1    2    0  502  0.24157471572E+01 -0.24919069277E+02 -0.48746236007E+03  0.48810485383E+03  0.00000000000E+00 0.  1.
<mgrwt>
<rscale>  2 0.25035891E+02</rscale>
<asrwt>0</asrwt>
<pdfrwt beam="2">  1        2 0.21500525E+00 0.25035891E+02</pdfrwt>
<pdfrwt beam="1">  1       -2 0.75922345E-04 0.25035891E+02</pdfrwt>
<totfact> 0.82869099E+05</totfact>
</mgrwt>
</event>
<event>
 4    1  0.1474645E+004  0.3989048E+02  0.7546771E-02  0.1509019E+00
         -2   -1    0    0    0  501 -0.00000000000E+00  0.00000000000E+00  0.35691790827E+02  0.35691790827E+02  0.00000000000E+00 0.  1.
          2   -1    0    0  501    0  0.00000000000E+00 -0.00000000000E+00 -0.14507177198E+04  0.14507177198E+04  0.00000000000E+00 0. -1.
          2    1    1    2  502    0  0.20521825983E+02 -0.34206793545E+02 -0.14392086176E+04  0.14397613327E+04  0.00000000000E+00 0. -1.
         -2    1    1    2    0  502 -0.20521825983E+02  0.34206793545E+02  0.24182688709E+02  0.46648177880E+02  0.00000000000E+00 0.  1.
<mgrwt>
<rscale>  2 0.39890476E+02</rscale>
<asrwt>0</asrwt>
<pdfrwt beam="2">  1        2 0.22318727E+00 0.39890476E+02</pdfrwt>
<pdfrwt beam="1">  1       -2 0.54910465E-02 0.39890476E+02</pdfrwt>
<totfact> 0.23995342E+03</totfact>
</mgrwt>
</event>
<event>
 4    1  0.1474645E+004  0.2058301E+02  0.7546771E-02  0.1733977E+00
          2   -1    0    0  501    0  0.00000000000E+00  0.00000000000E+00  0.27610932856E+01  0.27610932856E+01  0.00000000000E+00 0.  1.
         -2   -1    0    0    0  501 -0.00000000000E+00 -0.00000000000E+00 -0.10738605725E+04  0.10738605725E+04  0.00000000000E+00 0.  1.
          2    1    1    2  502    0  0.15922468508E+02 -0.13043586803E+02 -0.37179041544E+02  0.42496367965E+02  0.00000000000E+00 0.  1.
         -2    1    1    2    0  502 -0.15922468508E+02  0.13043586803E+02 -0.10339204377E+04  0.10341252978E+04  0.00000000000E+00 0.  1.
<mgrwt>
<rscale>  2 0.20583007E+02</rscale>
<asrwt>0</asrwt>
<pdfrwt beam="1">  1        2 0.42478394E-03 0.20583007E+02</pdfrwt>
<pdfrwt beam="2">  1       -2 0.16520918E+00 0.20583007E+02</pdfrwt>
<totfact> 0.79991213E+03</totfact>
</mgrwt>
</event>
<event>
 4    1  0.1474645E+004  0.2837322E+02  0.7546771E-02  0.1616800E+00
         -2   -1    0    0    0  501 -0.00000000000E+00  0.00000000000E+00  0.26949216757E+02  0.26949216757E+02  0.00000000000E+00 0.  1.
          2   -1    0    0  501    0  0.00000000000E+00 -0.00000000000E+00 -0.11480549749E+04  0.11480549749E+04  0.00000000000E+00 0.  1.
          2    1    1    2  502    0 -0.19540878865E+02  0.20571664767E+02 -0.11403611773E+04  0.11407140983E+04  0.00000000000E+00 0.  1.
         -2    1    1    2    0  502  0.19540878865E+02 -0.20571664767E+02  0.19255419142E+02  0.34290093386E+02  0.00000000000E+00 0.  1.
<mgrwt>
<rscale>  2 0.28373215E+02</rscale>
<asrwt>0</asrwt>
<pdfrwt beam="2">  1        2 0.17662385E+00 0.28373215E+02</pdfrwt>
<pdfrwt beam="1">  1       -2 0.41460332E-02 0.28373215E+02</pdfrwt>
<totfact> 0.50047590E+03</totfact>
</mgrwt>
</event>
<event>
 4    1  0.1474645E+004  0.2396689E+02  0.7546771E-02  0.1676300E+00
         -2   -1    0    0    0  501 -0.00000000000E+00  0.00000000000E+00  0.12444040107E+02  0.12444040107E+02  0.00000000000E+00 0. -1.
          2   -1    0    0  501    0  0.00000000000E+00 -0.00000000000E+00 -0.16235764986E+04  0.16235764986E+04  0.00000000000E+00 0.  1.
          2    1    1    2  502    0  0.22789007099E+01 -0.23858294666E+02 -0.16118643092E+04  0.16120424817E+04  0.00000000000E+00 0.  1.
         -2    1    1    2    0  502 -0.22789007099E+01  0.23858294666E+02  0.73185067458E+00  0.23978057015E+02  0.00000000000E+00 0. -1.
<mgrwt>
<rscale>  2 0.23966886E+02</rscale>
<asrwt>0</asrwt>
<pdfrwt beam="2">  1        2 0.24978071E+00 0.23966886E+02</pdfrwt>
<pdfrwt beam="1">  1       -2 0.19144699E-02 0.23966886E+02</pdfrwt>
<totfact> 0.85042818E+03</totfact>
</mgrwt>
</event>
<event>
 4    1  0.1474645E+004  0.2538092E+02  0.7546771E-02  0.1655590E+00
         -2   -1    0    0    0  501 -0.00000000000E+00  0.00000000000E+00  0.39708882684E+02  0.39708882684E+02  0.00000000000E+00 0.  1.
          2   -1    0    0  501    0  0.00000000000E+00 -0.00000000000E+00 -0.75957299807E+02  0.75957299807E+02  0.00000000000E+00 0. -1.
          2    1    1    2  502    0  0.24944316797E+02 -0.46874441623E+01 -0.69410830843E+02  0.73905713660E+02  0.00000000000E+00 0. -1.
         -2    1    1    2    0  502 -0.24944316797E+02  0.46874441623E+01  0.33162413721E+02  0.41760468831E+02  0.00000000000E+00 0.  1.
<mgrwt>
<rscale>  2 0.25380919E+02</rscale>
<asrwt>0</asrwt>
<pdfrwt beam="2">  1        2 0.11685738E-01 0.25380919E+02</pdfrwt>
<pdfrwt beam="1">  1       -2 0.61090590E-02 0.25380919E+02</pdfrwt>
<totfact> 0.51874159E+04</totfact>
</mgrwt>
</event>
<event>
 4    1  0.1474645E+004  0.2747397E+02  0.7546771E-02  0.1627816E+00
          2   -1    0    0  501    0  0.00000000000E+00  0.00000000000E+00  0.60180567855E+02  0.60180567855E+02  0.00000000000E+00 0. -1.
         -2   -1    0    0    0  501 -0.00000000000E+00 -0.00000000000E+00 -0.75203163611E+02  0.75203163611E+02  0.00000000000E+00 0. -1.
          2    1    1    2  502    0  0.20601037230E+02  0.18177355126E+02  0.54278344557E+02  0.60835496728E+02  0.00000000000E+00 0. -1.
         -2    1    1    2    0  502 -0.20601037230E+02 -0.18177355126E+02 -0.69300940312E+02  0.74548234738E+02  0.00000000000E+00 0. -1.
<mgrwt>
<rscale>  2 0.27473969E+02</rscale>
<asrwt>0</asrwt>
<pdfrwt beam="1">  1        2 0.92585489E-02 0.27473969E+02</pdfrwt>
<pdfrwt beam="2">  1       -2 0.11569717E-01 0.27473969E+02</pdfrwt>
<totfact> 0.26824753E+04</totfact>
</mgrwt>
</event>
<event>
 4    1  0.1474645E+004  0.2893822E+02  0.7546771E-02  0.1610131E+00
         -2   -1    0    0    0  501 -0.00000000000E+00  0.00000000000E+00  0.14927328915E+02  0.14927328915E+02  0.00000000000E+00 0. -1.
          2   -1    0    0  501    0  0.00000000000E+00 -0.00000000000E+00 -0.27114573207E+03  0.27114573207E+03  0.00000000000E+00 0. -1.
          2    1    1    2  502    0  0.94110955362E+01  0.27365158196E+02 -0.25549211196E+03  0.25712572776E+03  0.00000000000E+00 0. -1.
         -2    1    1    2    0  502 -0.94110955362E+01 -0.27365158196E+02 -0.72629119962E+00  0.28947333231E+02  0.00000000000E+00 0. -1.
<mgrwt>
<rscale>  2 0.28938220E+02</rscale>
<asrwt>0</asrwt>
<pdfrwt beam="2">  1        2 0.41714729E-01 0.28938220E+02</pdfrwt>
<pdfrwt beam="1">  1       -2 0.22965121E-02 0.28938220E+02</pdfrwt>
<totfact> 0.55145847E+04</totfact>
</mgrwt>
</event>
<event>
 4    1  0.1474645E+004  0.2031416E+02  0.7546771E-02  0.1739152E+00
         -2   -1    0    0    0  501 -0.00000000000E+00  0.00000000000E+00  0.15902355712E+02  0.15902355712E+02  0.00000000000E+00 0. -1.
          2   -1    0    0  501    0  0.00000000000E+00 -0.00000000000E+00 -0.70909435918E+02  0.70909435918E+02  0.00000000000E+00 0.  1.
          2    1    1    2  502    0 -0.71614621695E+01 -0.19009955839E+02 -0.62066226465E+02  0.65306059665E+02  0.00000000000E+00 0.  1.
         -2    1    1    2    0  502  0.71614621695E+01  0.19009955839E+02  0.70591462588E+01  0.21505731964E+02  0.00000000000E+00 0. -1.
<mgrwt>
<rscale>  2 0.20314157E+02</rscale>
<asrwt>0</asrwt>
<pdfrwt beam="2">  1        2 0.10909144E-01 0.20314157E+02</pdfrwt>
<pdfrwt beam="1">  1       -2 0.24465163E-02 0.20314157E+02</pdfrwt>
<totfact> 0.19180369E+05</totfact>
</mgrwt>
</event>
<event>
 4    1  0.1474645E+004  0.4785167E+02  0.7546771E-02  0.1457286E+00
         -2   -1    0    0    0  501 -0.00000000000E+00  0.00000000000E+00  0.69228111770E+02  0.69228111770E+02  0.00000000000E+00 0.  1.
          2   -1    0    0  501    0  0.00000000000E+00 -0.00000000000E+00 -0.15542863224E+03  0.15542863224E+03  0.00000000000E+00 0. -1.
          2    1    1    2  502    0  0.39400908539E+02 -0.27154200447E+02 -0.14276253270E+03  0.15056866519E+03  0.00000000000E+00 0. -1.
         -2    1    1    2    0  502 -0.39400908539E+02  0.27154200447E+02  0.56562012228E+02  0.74088078818E+02  0.00000000000E+00 0.  1.
<mgrwt>
<rscale>  2 0.47851669E+02</rscale>
<asrwt>0</asrwt>
<pdfrwt beam="2">  1        2 0.23912097E-01 0.47851669E+02</pdfrwt>
<pdfrwt beam="1">  1       -2 0.10650479E-01 0.47851669E+02</pdfrwt>
<totfact> 0.11442298E+04</totfact>
</mgrwt>
</event>
<event>
 4    1  0.1474645E+004  0.2655866E+02  0.7546771E-02  0.1639573E+00
          2   -1    0    0  501    0  0.00000000000E+00  0.00000000000E+00  0.68215468075E+03  0.68215468075E+03  0.00000000000E+00 0.  1.
         -2   -1    0    0    0  501 -0.00000000000E+00 -0.00000000000E+00 -0.21963223041E+02  0.21963223041E+02  0.00000000000E+00 0.  1.
          2    1    1    2  502    0 -0.25958309239E+02 -0.56150297365E+01  0.67376736404E+03  0.67429060740E+03  0.00000000000E+00 0.  1.
         -2    1    1    2    0  502  0.25958309239E+02  0.56150297365E+01 -0.13575906331E+02  0.29827296394E+02  0.00000000000E+00 0.  1.
<mgrwt>
<rscale>  2 0.26558659E+02</rscale>
<asrwt>0</asrwt>
<pdfrwt beam="1">  1        2 0.10494686E+00 0.26558659E+02</pdfrwt>
<pdfrwt beam="2">  1       -2 0.33789579E-02 0.26558659E+02</pdfrwt>
<totfact> 0.12411128E+04</totfact>
</mgrwt>
</event>
<event>
 4    1  0.1474645E+004  0.3331432E+02  0.7546771E-02  0.1564100E+00
          2   -1    0    0  501    0  0.00000000000E+00  0.00000000000E+00  0.56605117901E+03  0.56605117901E+03  0.00000000000E+00 0.  1.
         -2   -1    0    0    0  501 -0.00000000000E+00 -0.00000000000E+00 -0.78841466387E+01  0.78841466387E+01  0.00000000000E+00 0. -1.
          2    1    1    2  502    0  0.33030884915E+02 -0.43364293006E+01  0.52782239265E+03  0.52887268994E+03  0.00000000000E+00 0.  1.
         -2    1    1    2    0  502 -0.33030884915E+02  0.43364293006E+01  0.30344639713E+02  0.45062635704E+02  0.00000000000E+00 0. -1.
<mgrwt>
<rscale>  2 0.33314321E+02</rscale>
<asrwt>0</asrwt>
<pdfrwt beam="1">  1        2 0.87084765E-01 0.33314321E+02</pdfrwt>
<pdfrwt beam="2">  1       -2 0.12129461E-02 0.33314321E+02</pdfrwt>
<totfact> 0.65026606E+04</totfact>
</mgrwt>
</event>
<event>
 4    1  0.1474645E+004  0.2792694E+02  0.7546771E-02  0.1622203E+00
          2   -1    0    0  501    0  0.00000000000E+00  0.00000000000E+00  0.20551289396E+03  0.20551289396E+03  0.00000000000E+00 0.  1.
         -2   -1    0    0    0  501 -0.00000000000E+00 -0.00000000000E+00 -0.66760064007E+01  0.66760064007E+01  0.00000000000E+00 0.  1.
          2    1    1    2  502    0 -0.25445410119E+01  0.27810778127E+02  0.16911464482E+03  0.17140500915E+03  0.00000000000E+00 0.  1.
         -2    1    1    2    0  502  0.25445410119E+01 -0.27810778127E+02  0.29722242746E+02  0.40783891218E+02  0.00000000000E+00 0.  1.
<mgrwt>
<rscale>  2 0.27926942E+02</rscale>
<asrwt>0</asrwt>
<pdfrwt beam="1">  1        2 0.31617363E-01 0.27926942E+02</pdfrwt>
<pdfrwt beam="2">  1       -2 0.10270781E-02 0.27926942E+02</pdfrwt>
<totfact> 0.21867672E+05</totfact>
</mgrwt>
</event>
<event>
 4    1  0.1474645E+004  0.2193285E+02  0.7546771E-02  0.1709416E+00
          2   -1    0    0  501    0  0.00000000000E+00  0.00000000000E+00  0.11976237000E+04  0.11976237000E+04  0.00000000000E+00 0. -1.
         -2   -1    0    0    0  501 -0.00000000000E+00 -0.00000000000E+00 -0.15097063518E+03  0.15097063518E+03  0.00000000000E+00 0.  1.
          2    1    1    2  502    0  0.11290130851E+02 -0.18803796126E+02  0.11967260900E+04  0.11969270589E+04  0.00000000000E+00 0. -1.
         -2    1    1    2    0  502 -0.11290130851E+02  0.18803796126E+02 -0.15007302520E+03  0.15166727628E+03  0.00000000000E+00 0.  1.
<mgrwt>
<rscale>  2 0.21932848E+02</rscale>
<asrwt>0</asrwt>
<pdfrwt beam="1">  1        2 0.18424979E+00 0.21932848E+02</pdfrwt>
<pdfrwt beam="2">  1       -2 0.23226252E-01 0.21932848E+02</pdfrwt>
<totfact> 0.35026387E+02</totfact>
</mgrwt>
</event>
<event>
 4    1  0.1474645E+004  0.2472194E+02  0.7546771E-02  0.1665028E+00
          2   -1    0    0  501    0  0.00000000000E+00  0.00000000000E+00  0.69765680771E+02  0.69765680771E+02  0.00000000000E+00 0.  1.
         -2   -1    0    0    0  501 -0.00000000000E+00 -0.00000000000E+00 -0.95247348656E+01  0.95247348656E+01  0.00000000000E+00 0. -1.
          2    1    1    2  502    0  0.24524849677E+02  0.31154873318E+01  0.41351233516E+02  0.48177785610E+02  0.00000000000E+00 0.  1.
         -2    1    1    2    0  502 -0.24524849677E+02 -0.31154873318E+01  0.18889712389E+02  0.31112630026E+02  0.00000000000E+00 0. -1.
<mgrwt>
<rscale>  2 0.24721944E+02</rscale>
<asrwt>0</asrwt>
<pdfrwt beam="1">  1        2 0.10733181E-01 0.24721944E+02</pdfrwt>
<pdfrwt beam="2">  1       -2 0.14653439E-02 0.24721944E+02</pdfrwt>
<totfact> 0.41727619E+05</totfact>
</mgrwt>
</event>
<event>
 4    1  0.1474645E+004  0.2572302E+02  0.7546771E-02  0.1650829E+00
         -2   -1    0    0    0  501 -0.00000000000E+00  0.00000000000E+00  0.73267401624E+02  0.73267401624E+02  0.00000000000E+00 0. -1.
          2   -1    0    0  501    0  0.00000000000E+00 -0.00000000000E+00 -0.10759465184E+02  0.10759465184E+02  0.00000000000E+00 0. -1.
          2    1    1    2  502    0 -0.24042989134E+02  0.91437757458E+01  0.14414440377E+02  0.29486438456E+02  0.00000000000E+00 0. -1.
         -2    1    1    2    0  502  0.24042989134E+02 -0.91437757458E+01  0.48093496062E+02  0.54540428352E+02  0.00000000000E+00 0. -1.
<mgrwt>
<rscale>  2 0.25723024E+02</rscale>
<asrwt>0</asrwt>
<pdfrwt beam="2">  1        2 0.16553024E-02 0.25723024E+02</pdfrwt>
<pdfrwt beam="1">  1       -2 0.11271908E-01 0.25723024E+02</pdfrwt>
<totfact> 0.23409260E+05</totfact>
</mgrwt>
</event>
<event>
 4    1  0.1474645E+004  0.2160936E+02  0.7546771E-02  0.1715097E+00
         -2   -1    0    0    0  501 -0.00000000000E+00  0.00000000000E+00  0.18390251545E+01  0.18390251545E+01  0.00000000000E+00 0. -1.
          2   -1    0    0  501    0  0.00000000000E+00 -0.00000000000E+00 -0.27622689353E+03  0.27622689353E+03  0.00000000000E+00 0. -1.
          2    1    1    2  502    0 -0.12742765932E+02 -0.17452402203E+02 -0.17670409397E+03  0.17802050795E+03  0.00000000000E+00 0. -1.
         -2    1    1    2    0  502  0.12742765932E+02  0.17452402203E+02 -0.97683774406E+02  0.10004541073E+03  0.00000000000E+00 0. -1.
<mgrwt>
<rscale>  2 0.21609360E+02</rscale>
<asrwt>0</asrwt>
<pdfrwt beam="2">  1        2 0.42496463E-01 0.21609360E+02</pdfrwt>
<pdfrwt beam="1">  1       -2 0.28292683E-03 0.21609360E+02</pdfrwt>
<totfact> 0.85482924E+05</totfact>
</mgrwt>
</event>
<event>
 4    1  0.1474645E+004  0.2145150E+02  0.7546771E-02  0.1717914E+00
          2   -1    0    0  501    0  0.00000000000E+00  0.00000000000E+00  0.64022619054E+02  0.64022619054E+02  0.00000000000E+00 0. -1.
         -2   -1    0    0    0  501 -0.00000000000E+00 -0.00000000000E+00 -0.12393618603E+03  0.12393618603E+03  0.00000000000E+00 0.  1.
          2    1    1    2  502    0 -0.15910211430E+02 -0.14388602991E+02  0.61256795425E+02  0.64904250320E+02  0.00000000000E+00 0. -1.
         -2    1    1    2    0  502  0.15910211430E+02  0.14388602991E+02 -0.12117036241E+03  0.12305455477E+03  0.00000000000E+00 0.  1.
<mgrwt>
<rscale>  2 0.21451497E+02</rscale>
<asrwt>0</asrwt>
<pdfrwt beam="1">  1        2 0.98496339E-02 0.21451497E+02</pdfrwt>
<pdfrwt beam="2">  1       -2 0.19067105E-01 0.21451497E+02</pdfrwt>
<totfact> 0.10986674E+04</totfact>
</mgrwt>
</event>
<event>
 4    1  0.1474645E+004  0.2268592E+02  0.7546771E-02  0.1696652E+00
          2   -1    0    0  501    0  0.00000000000E+00  0.00000000000E+00  0.15476618797E+03  0.15476618797E+03  0.00000000000E+00 0. -1.
         -2   -1    0    0    0  501 -0.00000000000E+00 -0.00000000000E+00 -0.80613126323E+01  0.80613126323E+01  0.00000000000E+00 0. -1.
          2    1    1    2  502    0  0.14763279786E+02  0.17224880757E+02  0.13575454385E+03  0.13763701218E+03  0.00000000000E+00 0. -1.
         -2    1    1    2    0  502 -0.14763279786E+02 -0.17224880757E+02  0.10950331491E+02  0.25190488421E+02  0.00000000000E+00 0. -1.
<mgrwt>
<rscale>  2 0.22685920E+02</rscale>
<asrwt>0</asrwt>
<pdfrwt beam="1">  1        2 0.23810181E-01 0.22685920E+02</pdfrwt>
<pdfrwt beam="2">  1       -2 0.12402021E-02 0.22685920E+02</pdfrwt>
<totfact> 0.21432085E+05</totfact>
</mgrwt>
</event>
<event>
 4    1  0.1474645E+004  0.2552452E+02  0.7546771E-02  0.1653580E+00
         -2   -1    0    0    0  501 -0.00000000000E+00  0.00000000000E+00  0.14736289974E+03  0.14736289974E+03  0.00000000000E+00 0. -1.
          2   -1    0    0  501    0  0.00000000000E+00 -0.00000000000E+00 -0.55327654705E+01  0.55327654705E+01  0.00000000000E+00 0. -1.
          2    1    1    2  502    0  0.11591193305E+02 -0.22740825710E+02  0.36647127189E+02  0.44659969183E+02  0.00000000000E+00 0. -1.
         -2    1    1    2    0  502 -0.11591193305E+02  0.22740825710E+02  0.10518300708E+03  0.10823569603E+03  0.00000000000E+00 0. -1.
<mgrwt>
<rscale>  2 0.25524516E+02</rscale>
<asrwt>0</asrwt>
<pdfrwt beam="2">  1        2 0.85119480E-03 0.25524516E+02</pdfrwt>
<pdfrwt beam="1">  1       -2 0.22671212E-01 0.25524516E+02</pdfrwt>
<totfact> 0.18525119E+05</totfact>
</mgrwt>
</event>
<event>
 4    1  0.1474645E+004  0.2107942E+02  0.7546771E-02  0.1724677E+00
         -2   -1    0    0    0  501 -0.00000000000E+00  0.00000000000E+00  0.31667900946E+02  0.31667900946E+02  0.00000000000E+00 0.  1.
          2   -1    0    0  501    0  0.00000000000E+00 -0.00000000000E+00 -0.21961085532E+02  0.21961085532E+02  0.00000000000E+00 0.  1.
          2    1    1    2  502    0  0.75390078134E+01 -0.19685158142E+02 -0.11259472497E+02  0.23898071278E+02  0.00000000000E+00 0.  1.
         -2    1    1    2    0  502 -0.75390078134E+01  0.19685158142E+02  0.20966287911E+02  0.29730915200E+02  0.00000000000E+00 0.  1.
<mgrwt>
<rscale>  2 0.21079423E+02</rscale>
<asrwt>0</asrwt>
<pdfrwt beam="2">  1        2 0.33786285E-02 0.21079423E+02</pdfrwt>
<pdfrwt beam="1">  1       -2 0.48719848E-02 0.21079423E+02</pdfrwt>
<totfact> 0.30225301E+05</totfact>
</mgrwt>
</event>
<event>
 4    1  0.1474645E+004  0.4159631E+02  0.7546771E-02  0.1496782E+00
          2   -1    0    0  501    0  0.00000000000E+00  0.00000000000E+00  0.53456989304E+03  0.53456989304E+03  0.00000000000E+00 0.  1.
         -2   -1    0    0    0  501 -0.00000000000E+00 -0.00000000000E+00 -0.39667783424E+01  0.39667783424E+01  0.00000000000E+00 0.  1.
          2    1    1    2  502    0  0.37235874914E+02  0.18540298045E+02  0.38081834974E+03  0.38308337021E+03  0.00000000000E+00 0.  1.
         -2    1    1    2    0  502 -0.37235874914E+02 -0.18540298045E+02  0.14978476496E+03  0.15545330118E+03  0.00000000000E+00 0.  1.
<mgrwt>
<rscale>  2 0.41596310E+02</rscale>
<asrwt>0</asrwt>
<pdfrwt beam="1">  1        2 0.82241465E-01 0.41596310E+02</pdfrwt>
<pdfrwt beam="2">  1       -2 0.61027401E-03 0.41596310E+02</pdfrwt>
<totfact> 0.18526202E+05</totfact>
</mgrwt>
</event>
<event>
 4    1  0.1474645E+004  0.5083123E+02  0.7546771E-02  0.1440909E+00
         -2   -1    0    0    0  501 -0.00000000000E+00  0.00000000000E+00  0.19031130896E+02  0.19031130896E+02  0.00000000000E+00 0.  1.
          2   -1    0    0  501    0  0.00000000000E+00 -0.00000000000E+00 -0.13868633925E+03  0.13868633925E+03  0.00000000000E+00 0. -1.
          2    1    1    2  502    0 -0.18760642348E+02  0.47242480384E+02 -0.71267448347E+02  0.87537779547E+02  0.00000000000E+00 0. -1.
         -2    1    1    2    0  502  0.18760642348E+02 -0.47242480384E+02 -0.48387760012E+02  0.70179690603E+02  0.00000000000E+00 0.  1.
<mgrwt>
<rscale>  2 0.50831227E+02</rscale>
<asrwt>0</asrwt>
<pdfrwt beam="2">  1        2 0.21336359E-01 0.50831227E+02</pdfrwt>
<pdfrwt beam="1">  1       -2 0.29278664E-02 0.50831227E+02</pdfrwt>
<totfact> 0.87388626E+04</totfact>
</mgrwt>
</event>
<event>
 4    1  0.1474645E+004  0.2297379E+02  0.7546771E-02  0.1691935E+00
         -2   -1    0    0    0  501 -0.00000000000E+00  0.00000000000E+00  0.13482908431E+02  0.13482908431E+02  0.00000000000E+00 0.  1.
          2   -1    0    0  501    0  0.00000000000E+00 -0.00000000000E+00 -0.53728430734E+03  0.53728430734E+03  0.00000000000E+00 0.  1.
          2    1    1    2  502    0  0.11378837436E+02  0.19957887406E+02 -0.52706264391E+03  0.52756310127E+03  0.00000000000E+00 0.  1.
         -2    1    1    2    0  502 -0.11378837436E+02 -0.19957887406E+02  0.32612449988E+01  0.23204114507E+02  0.00000000000E+00 0.  1.
<mgrwt>
<rscale>  2 0.22973794E+02</rscale>
<asrwt>0</asrwt>
<pdfrwt beam="2">  1        2 0.82659121E-01 0.22973794E+02</pdfrwt>
<pdfrwt beam="1">  1       -2 0.20742937E-02 0.22973794E+02</pdfrwt>
<totfact> 0.30690505E+04</totfact>
</mgrwt>
</event>
<event>
 4    1  0.1474645E+004  0.2655596E+02  0.7546771E-02  0.1639609E+00
          2   -1    0    0  501    0  0.00000000000E+00  0.00000000000E+00  0.16458557968E+04  0.16458557968E+04  0.00000000000E+00 0. -1.
         -2   -1    0    0    0  501 -0.00000000000E+00 -0.00000000000E+00 -0.19823284628E+02  0.19823284628E+02  0.00000000000E+00 0. -1.
          2    1    1    2  502    0  0.23314714141E+02  0.12713903014E+02  0.16368056804E+04  0.16370210917E+04  0.00000000000E+00 0. -1.
         -2    1    1    2    0  502 -0.23314714141E+02 -0.12713903014E+02 -0.10773168193E+02  0.28657989780E+02  0.00000000000E+00 0. -1.
<mgrwt>
<rscale>  2 0.26555964E+02</rscale>
<asrwt>0</asrwt>
<pdfrwt beam="1">  1        2 0.25320848E+00 0.26555964E+02</pdfrwt>
<pdfrwt beam="2">  1       -2 0.30497374E-02 0.26555964E+02</pdfrwt>
<totfact> 0.43904803E+03</totfact>
</mgrwt>
</event>
<event>
 4    1  0.1474645E+004  0.2291673E+02  0.7546771E-02  0.1692864E+00
         -2   -1    0    0    0  501 -0.00000000000E+00  0.00000000000E+00  0.17600756399E+03  0.17600756399E+03  0.00000000000E+00 0.  1.
          2   -1    0    0  501    0  0.00000000000E+00 -0.00000000000E+00 -0.30722238568E+02  0.30722238568E+02  0.00000000000E+00 0.  1.
          2    1    1    2  502    0 -0.20273138697E+02  0.10685327258E+02 -0.25574514517E+02  0.34339949971E+02  0.00000000000E+00 0.  1.
         -2    1    1    2    0  502  0.20273138697E+02 -0.10685327258E+02  0.17085983994E+03  0.17238985258E+03  0.00000000000E+00 0.  1.
<mgrwt>
<rscale>  2 0.22916727E+02</rscale>
<asrwt>0</asrwt>
<pdfrwt beam="2">  1        2 0.47264983E-02 0.22916727E+02</pdfrwt>
<pdfrwt beam="1">  1       -2 0.27078086E-01 0.22916727E+02</pdfrwt>
<totfact> 0.14994112E+04</totfact>
</mgrwt>
</event>
<event>
 4    1  0.1474645E+004  0.3933607E+02  0.7546771E-02  0.1513155E+00
         -2   -1    0    0    0  501 -0.00000000000E+00  0.00000000000E+00  0.23564812022E+02  0.23564812022E+02  0.00000000000E+00 0.  1.
          2   -1    0    0  501    0  0.00000000000E+00 -0.00000000000E+00 -0.79866900450E+02  0.79866900450E+02  0.00000000000E+00 0. -1.
          2    1    1    2  502    0 -0.30541985781E+02  0.24789382879E+02 -0.49960785121E+02  0.63587785374E+02  0.00000000000E+00 0. -1.
         -2    1    1    2    0  502  0.30541985781E+02 -0.24789382879E+02 -0.63413033071E+01  0.39843927098E+02  0.00000000000E+00 0.  1.
<mgrwt>
<rscale>  2 0.39336070E+02</rscale>
<asrwt>0</asrwt>
<pdfrwt beam="2">  1        2 0.12287215E-01 0.39336070E+02</pdfrwt>
<pdfrwt beam="1">  1       -2 0.36253557E-02 0.39336070E+02</pdfrwt>
<totfact> 0.11353064E+05</totfact>
</mgrwt>
</event>
<event>
 4    1  0.1474645E+004  0.2198647E+02  0.7546771E-02  0.1708486E+00
          2   -1    0    0  501    0  0.00000000000E+00  0.00000000000E+00  0.17373216906E+03  0.17373216906E+03  0.00000000000E+00 0. -1.
         -2   -1    0    0    0  501 -0.00000000000E+00 -0.00000000000E+00 -0.65801503426E+02  0.65801503426E+02  0.00000000000E+00 0.  1.
          2    1    1    2  502    0  0.14230105620E+02 -0.16760337606E+02  0.17117259801E+03  0.17257886061E+03  0.00000000000E+00 0. -1.
         -2    1    1    2    0  502 -0.14230105620E+02  0.16760337606E+02 -0.63241932372E+02  0.66954811872E+02  0.00000000000E+00 0.  1.
<mgrwt>
<rscale>  2 0.21986469E+02</rscale>
<asrwt>0</asrwt>
<pdfrwt beam="1">  1        2 0.26728026E-01 0.21986469E+02</pdfrwt>
<pdfrwt beam="2">  1       -2 0.10123308E-01 0.21986469E+02</pdfrwt>
<totfact> 0.98928296E+03</totfact>
</mgrwt>
</event>
<event>
 4    1  0.1474645E+004  0.5097802E+02  0.7546771E-02  0.1440137E+00
         -2   -1    0    0    0  501 -0.00000000000E+00  0.00000000000E+00  0.62110379194E+01  0.62110379194E+01  0.00000000000E+00 0. -1.
          2   -1    0    0  501    0  0.00000000000E+00 -0.00000000000E+00 -0.78343669148E+03  0.78343669148E+03  0.00000000000E+00 0.  1.
          2    1    1    2  502    0 -0.50487706479E+02 -0.70533446194E+01 -0.65811604977E+03  0.66008748901E+03  0.00000000000E+00 0.  1.
         -2    1    1    2    0  502  0.50487706479E+02  0.70533446194E+01 -0.11910960379E+03  0.12956024039E+03  0.00000000000E+00 0. -1.
<mgrwt>
<rscale>  2 0.50978017E+02</rscale>
<asrwt>0</asrwt>
<pdfrwt beam="2">  1        2 0.12052873E+00 0.50978017E+02</pdfrwt>
<pdfrwt beam="1">  1       -2 0.95554423E-03 0.50978017E+02</pdfrwt>
<totfact> 0.67730481E+04</totfact>
</mgrwt>
</event>
<event>
 4    1  0.1474645E+004  0.3160483E+02  0.7546771E-02  0.1580998E+00
          2   -1    0    0  501    0  0.00000000000E+00  0.00000000000E+00  0.99490357849E+01  0.99490357849E+01  0.00000000000E+00 0. -1.
         -2   -1    0    0    0  501 -0.00000000000E+00 -0.00000000000E+00 -0.11385563669E+03  0.11385563669E+03  0.00000000000E+00 0.  1.
          2    1    1    2  502    0 -0.30685030936E+02 -0.75692892447E+01 -0.30671371986E+02  0.44040871048E+02  0.00000000000E+00 0. -1.
         -2    1    1    2    0  502  0.30685030936E+02  0.75692892447E+01 -0.73235228918E+02  0.79763801425E+02  0.00000000000E+00 0.  1.
<mgrwt>
<rscale>  2 0.31604830E+02</rscale>
<asrwt>0</asrwt>
<pdfrwt beam="1">  1        2 0.15306209E-02 0.31604830E+02</pdfrwt>
<pdfrwt beam="2">  1       -2 0.17516252E-01 0.31604830E+02</pdfrwt>
<totfact> 0.13812345E+05</totfact>
</mgrwt>
</event>
<event>
 4    1  0.1474645E+004  0.3976138E+02  0.7546771E-02  0.1509975E+00
         -2   -1    0    0    0  501 -0.00000000000E+00  0.00000000000E+00  0.29318090563E+02  0.29318090563E+02  0.00000000000E+00 0. -1.
          2   -1    0    0  501    0  0.00000000000E+00 -0.00000000000E+00 -0.12195243591E+04  0.12195243591E+04  0.00000000000E+00 0.  1.
          2    1    1    2  502    0 -0.31483396590E+02 -0.24285039680E+02 -0.12055630250E+04  0.12062185435E+04  0.00000000000E+00 0.  1.
         -2    1    1    2    0  502  0.31483396590E+02  0.24285039680E+02  0.15356756422E+02  0.42623906214E+02  0.00000000000E+00 0. -1.
<mgrwt>
<rscale>  2 0.39761381E+02</rscale>
<asrwt>0</asrwt>
<pdfrwt beam="2">  1        2 0.18761913E+00 0.39761381E+02</pdfrwt>
<pdfrwt beam="1">  1       -2 0.45104756E-02 0.39761381E+02</pdfrwt>
<totfact> 0.41686811E+03</totfact>
</mgrwt>
</event>
<event>
 4    1  0.1474645E+004  0.2143525E+02  0.7546771E-02  0.1718206E+00
          2   -1    0    0  501    0  0.00000000000E+00  0.00000000000E+00  0.15165525219E+01  0.15165525219E+01  0.00000000000E+00 0. -1.
         -2   -1    0    0    0  501 -0.00000000000E+00 -0.00000000000E+00 -0.13955879390E+04  0.13955879390E+04  0.00000000000E+00 0. -1.
          2    1    1    2  502    0 -0.20923866126E+02 -0.46542114155E+01 -0.78941788848E+02  0.81800219340E+02  0.00000000000E+00 0. -1.
         -2    1    1    2    0  502  0.20923866126E+02  0.46542114155E+01 -0.13151295976E+04  0.13153042722E+04  0.00000000000E+00 0. -1.
<mgrwt>
<rscale>  2 0.21435248E+02</rscale>
<asrwt>0</asrwt>
<pdfrwt beam="1">  1        2 0.23331579E-03 0.21435248E+02</pdfrwt>
<pdfrwt beam="2">  1       -2 0.21470582E+00 0.21435248E+02</pdfrwt>
<totfact> 0.88860802E+03</totfact>
</mgrwt>
</event>
<event>
 4    1  0.1474645E+004  0.5380647E+02  0.7546771E-02  0.1425829E+00
          2   -1    0    0  501    0  0.00000000000E+00  0.00000000000E+00  0.32744248427E+03  0.32744248427E+03  0.00000000000E+00 0. -1.
         -2   -1    0    0    0  501 -0.00000000000E+00 -0.00000000000E+00 -0.10113008507E+02  0.10113008507E+02  0.00000000000E+00 0. -1.
          2    1    1    2  502    0  0.10171904832E+02  0.52836243258E+02  0.21850682258E+03  0.22503414800E+03  0.00000000000E+00 0. -1.
         -2    1    1    2    0  502 -0.10171904832E+02 -0.52836243258E+02  0.98822653181E+02  0.11252134478E+03  0.00000000000E+00 0. -1.
<mgrwt>
<rscale>  2 0.53806470E+02</rscale>
<asrwt>0</asrwt>
<pdfrwt beam="1">  1        2 0.50375759E-01 0.53806470E+02</pdfrwt>
<pdfrwt beam="2">  1       -2 0.15558477E-02 0.53806470E+02</pdfrwt>
<totfact> 0.88005956E+04</totfact>
</mgrwt>
</event>
<event>
 4    1  0.1474645E+004  0.2498589E+02  0.7546771E-02  0.1661205E+00
         -2   -1    0    0    0  501 -0.00000000000E+00  0.00000000000E+00  0.46973124556E+03  0.46973124556E+03  0.00000000000E+00 0.  1.
          2   -1    0    0  501    0  0.00000000000E+00 -0.00000000000E+00 -0.61768553760E+01  0.61768553760E+01  0.00000000000E+00 0. -1.
          2    1    1    2  502    0  0.23346472002E+02  0.89015064119E+01  0.20971597205E+02  0.32620583389E+02  0.00000000000E+00 0. -1.
         -2    1    1    2    0  502 -0.23346472002E+02 -0.89015064119E+01  0.44258279298E+03  0.44328751755E+03  0.00000000000E+00 0.  1.
<mgrwt>
<rscale>  2 0.24985887E+02</rscale>
<asrwt>0</asrwt>
<pdfrwt beam="2">  1        2 0.95028581E-03 0.24985887E+02</pdfrwt>
<pdfrwt beam="1">  1       -2 0.72266317E-01 0.24985887E+02</pdfrwt>
<totfact> 0.19035196E+04</totfact>
</mgrwt>
</event>
<event>
 4    1  0.1474645E+004  0.3314148E+02  0.7546771E-02  0.1565752E+00
         -2   -1    0    0    0  501 -0.00000000000E+00  0.00000000000E+00  0.23906323324E+02  0.23906323324E+02  0.00000000000E+00 0.  1.
          2   -1    0    0  501    0  0.00000000000E+00 -0.00000000000E+00 -0.36953112105E+03  0.36953112105E+03  0.00000000000E+00 0. -1.
          2    1    1    2  502    0 -0.32938925730E+02  0.36585288228E+01 -0.35689622965E+03  0.35843169001E+03  0.00000000000E+00 0. -1.
         -2    1    1    2    0  502  0.32938925730E+02 -0.36585288228E+01  0.11271431923E+02  0.35005754369E+02  0.00000000000E+00 0.  1.
<mgrwt>
<rscale>  2 0.33141479E+02</rscale>
<asrwt>0</asrwt>
<pdfrwt beam="2">  1        2 0.56850940E-01 0.33141479E+02</pdfrwt>
<pdfrwt beam="1">  1       -2 0.36778960E-02 0.33141479E+02</pdfrwt>
<totfact> 0.21385526E+04</totfact>
</mgrwt>
</event>
<event>
 4    1  0.1474645E+004  0.3534266E+02  0.7546771E-02  0.1545579E+00
         -2   -1    0    0    0  501 -0.00000000000E+00  0.00000000000E+00  0.10643593021E+03  0.10643593021E+03  0.00000000000E+00 0.  1.
          2   -1    0    0  501    0  0.00000000000E+00 -0.00000000000E+00 -0.28970123077E+02  0.28970123077E+02  0.00000000000E+00 0.  1.
          2    1    1    2  502    0 -0.29981835266E+02 -0.18713446691E+02 -0.13486377465E+02  0.37828374405E+02  0.00000000000E+00 0.  1.
         -2    1    1    2    0  502  0.29981835266E+02  0.18713446691E+02  0.90952184595E+02  0.97577678880E+02  0.00000000000E+00 0.  1.
<mgrwt>
<rscale>  2 0.35342659E+02</rscale>
<asrwt>0</asrwt>
<pdfrwt beam="2">  1        2 0.44569421E-02 0.35342659E+02</pdfrwt>
<pdfrwt beam="1">  1       -2 0.16374758E-01 0.35342659E+02</pdfrwt>
<totfact> 0.39859919E+04</totfact>
</mgrwt>
</event>
<event>
 4    1  0.1474645E+004  0.2017988E+02  0.7546771E-02  0.1741774E+00
         -2   -1    0    0    0  501 -0.00000000000E+00  0.00000000000E+00  0.20211447452E+03  0.20211447452E+03  0.00000000000E+00 0. -1.
          2   -1    0    0  501    0  0.00000000000E+00 -0.00000000000E+00 -0.36532527048E+01  0.36532527048E+01  0.00000000000E+00 0. -1.
          2    1    1    2  502    0 -0.16506986734E+02 -0.11608060554E+02  0.30330569090E+02  0.36430359622E+02  0.00000000000E+00 0. -1.
         -2    1    1    2    0  502  0.16506986734E+02  0.11608060554E+02  0.16813065273E+03  0.16933736760E+03  0.00000000000E+00 0. -1.
<mgrwt>
<rscale>  2 0.20179883E+02</rscale>
<asrwt>0</asrwt>
<pdfrwt beam="2">  1        2 0.56203903E-03 0.20179883E+02</pdfrwt>
<pdfrwt beam="1">  1       -2 0.31094526E-01 0.20179883E+02</pdfrwt>
<totfact> 0.17467478E+05</totfact>
</mgrwt>
</event>
<event>
 4    1  0.1474645E+004  0.3728134E+02  0.7546771E-02  0.1529227E+00
         -2   -1    0    0    0  501 -0.00000000000E+00  0.00000000000E+00  0.33306020997E+03  0.33306020997E+03  0.00000000000E+00 0. -1.
          2   -1    0    0  501    0  0.00000000000E+00 -0.00000000000E+00 -0.14200004208E+04  0.14200004208E+04  0.00000000000E+00 0. -1.
          2    1    1    2  502    0 -0.60398482758E+01 -0.36788841503E+02 -0.14187114939E+04  0.14192012548E+04  0.00000000000E+00 0. -1.
         -2    1    1    2    0  502  0.60398482758E+01  0.36788841503E+02  0.33177128310E+03  0.33385937596E+03  0.00000000000E+00 0. -1.
<mgrwt>
<rscale>  2 0.37281344E+02</rscale>
<asrwt>0</asrwt>
<pdfrwt beam="2">  1        2 0.21846160E+00 0.37281344E+02</pdfrwt>
<pdfrwt beam="1">  1       -2 0.51240032E-01 0.37281344E+02</pdfrwt>
<totfact> 0.65036665E+01</totfact>
</mgrwt>
</event>
<event>
 4    1  0.1474645E+004  0.4078211E+02  0.7546771E-02  0.1502534E+00
          2   -1    0    0  501    0  0.00000000000E+00  0.00000000000E+00  0.13026832911E+04  0.13026832911E+04  0.00000000000E+00 0. -1.
         -2   -1    0    0    0  501 -0.00000000000E+00 -0.00000000000E+00 -0.19252729175E+02  0.19252729175E+02  0.00000000000E+00 0. -1.
          2    1    1    2  502    0 -0.40779973426E+02  0.41712534986E+00  0.12803915207E+04  0.12810408372E+04  0.00000000000E+00 0. -1.
         -2    1    1    2    0  502  0.40779973426E+02 -0.41712534986E+00  0.30390411828E+01  0.40895183060E+02  0.00000000000E+00 0. -1.
<mgrwt>
<rscale>  2 0.40782107E+02</rscale>
<asrwt>0</asrwt>
<pdfrwt beam="1">  1        2 0.20041275E+00 0.40782107E+02</pdfrwt>
<pdfrwt beam="2">  1       -2 0.29619594E-02 0.40782107E+02</pdfrwt>
<totfact> 0.69057967E+03</totfact>
</mgrwt>
</event>
<event>
 4    1  0.1474645E+004  0.2392815E+02  0.7546771E-02  0.1676892E+00
          2   -1    0    0  501    0  0.00000000000E+00  0.00000000000E+00  0.64736080116E+03  0.64736080116E+03  0.00000000000E+00 0. -1.
         -2   -1    0    0    0  501 -0.00000000000E+00 -0.00000000000E+00 -0.34378890652E+01  0.34378890652E+01  0.00000000000E+00 0.  1.
          2    1    1    2  502    0 -0.22719668579E+02  0.75081885672E+01  0.60239745377E+03  0.60287249775E+03  0.00000000000E+00 0. -1.
         -2    1    1    2    0  502  0.22719668579E+02 -0.75081885672E+01  0.41525458319E+02  0.47926192468E+02  0.00000000000E+00 0.  1.
<mgrwt>
<rscale>  2 0.23928147E+02</rscale>
<asrwt>0</asrwt>
<pdfrwt beam="1">  1        2 0.99593872E-01 0.23928147E+02</pdfrwt>
<pdfrwt beam="2">  1       -2 0.52890653E-03 0.23928147E+02</pdfrwt>
<totfact> 0.16254443E+05</totfact>
</mgrwt>
</event>
<event>
 4    1  0.1474645E+004  0.2845809E+02  0.7546771E-02  0.1615786E+00
         -2   -1    0    0    0  501 -0.00000000000E+00  0.00000000000E+00  0.99745747427E+01  0.99745747427E+01  0.00000000000E+00 0. -1.
          2   -1    0    0  501    0  0.00000000000E+00 -0.00000000000E+00 -0.12626083820E+04  0.12626083820E+04  0.00000000000E+00 0. -1.
          2    1    1    2  502    0  0.12811186605E+01  0.28429237369E+02 -0.12418099288E+04  0.12421359676E+04  0.00000000000E+00 0. -1.
         -2    1    1    2    0  502 -0.12811186605E+01 -0.28429237369E+02 -0.10823878481E+02  0.30446989141E+02  0.00000000000E+00 0. -1.
<mgrwt>
<rscale>  2 0.28458089E+02</rscale>
<asrwt>0</asrwt>
<pdfrwt beam="2">  1        2 0.19424731E+00 0.28458089E+02</pdfrwt>
<pdfrwt beam="1">  1       -2 0.15345510E-02 0.28458089E+02</pdfrwt>
<totfact> 0.17499187E+04</totfact>
</mgrwt>
</event>
<event>
 4    1  0.1474645E+004  0.2373410E+02  0.7546771E-02  0.1679880E+00
          2   -1    0    0  501    0  0.00000000000E+00  0.00000000000E+00  0.42564740130E+03  0.42564740130E+03  0.00000000000E+00 0. -1.
         -2   -1    0    0    0  501 -0.00000000000E+00 -0.00000000000E+00 -0.17880761515E+03  0.17880761515E+03  0.00000000000E+00 0.  1.
          2    1    1    2  502    0 -0.38163955174E+01  0.23425253308E+02  0.42452688222E+03  0.42518981772E+03  0.00000000000E+00 0. -1.
         -2    1    1    2    0  502  0.38163955174E+01 -0.23425253308E+02 -0.17768709607E+03  0.17926519873E+03  0.00000000000E+00 0.  1.
<mgrwt>
<rscale>  2 0.23734097E+02</rscale>
<asrwt>0</asrwt>
<pdfrwt beam="1">  1        2 0.65484215E-01 0.23734097E+02</pdfrwt>
<pdfrwt beam="2">  1       -2 0.27508864E-01 0.23734097E+02</pdfrwt>
<totfact> 0.84432286E+02</totfact>
</mgrwt>
</event>
<event>
 4    1  0.1474645E+004  0.2039378E+02  0.7546771E-02  0.1737609E+00
          2   -1    0    0  501    0  0.00000000000E+00  0.00000000000E+00  0.66800562402E+03  0.66800562402E+03  0.00000000000E+00 0.  1.
         -2   -1    0    0    0  501 -0.00000000000E+00 -0.00000000000E+00 -0.26377525056E+01  0.26377525056E+01  0.00000000000E+00 0. -1.
          2    1    1    2  502    0 -0.19575653362E+02  0.57184088546E+01  0.62577163853E+03  0.62610386518E+03  0.00000000000E+00 0.  1.
         -2    1    1    2    0  502  0.19575653362E+02 -0.57184088546E+01  0.39596232985E+02  0.44539511347E+02  0.00000000000E+00 0. -1.
<mgrwt>
<rscale>  2 0.20393783E+02</rscale>
<asrwt>0</asrwt>
<pdfrwt beam="1">  1        2 0.10276996E+00 0.20393783E+02</pdfrwt>
<pdfrwt beam="2">  1       -2 0.40580861E-03 0.20393783E+02</pdfrwt>
<totfact> 0.21516133E+05</totfact>
</mgrwt>
</event>
<event>
 4    1  0.1474645E+004  0.2411300E+02  0.7546771E-02  0.1674079E+00
         -2   -1    0    0    0  501 -0.00000000000E+00  0.00000000000E+00  0.63826553970E+02  0.63826553970E+02  0.00000000000E+00 0. -1.
          2   -1    0    0  501    0  0.00000000000E+00 -0.00000000000E+00 -0.15238029010E+03  0.15238029010E+03  0.00000000000E+00 0. -1.
          2    1    1    2  502    0  0.52208038416E+01  0.23541029256E+02 -0.14909916245E+03  0.15103640983E+03  0.00000000000E+00 0. -1.
         -2    1    1    2    0  502 -0.52208038416E+01 -0.23541029256E+02  0.60545426318E+02  0.65170434241E+02  0.00000000000E+00 0. -1.
<mgrwt>
<rscale>  2 0.24113002E+02</rscale>
<asrwt>0</asrwt>
<pdfrwt beam="2">  1        2 0.23443121E-01 0.24113002E+02</pdfrwt>
<pdfrwt beam="1">  1       -2 0.98194700E-02 0.24113002E+02</pdfrwt>
<totfact> 0.12026190E+04</totfact>
</mgrwt>
</event>
<event>
 4    1  0.1474645E+004  0.3086689E+02  0.7546771E-02  0.1588699E+00
          2   -1    0    0  501    0  0.00000000000E+00  0.00000000000E+00  0.21437331060E+04  0.21437331060E+04  0.00000000000E+00 0.  1.
         -2   -1    0    0    0  501 -0.00000000000E+00 -0.00000000000E+00 -0.90929816841E+00  0.90929816841E+00  0.00000000000E+00 0. -1.
          2    1    1    2  502    0 -0.22562536412E+02 -0.21064119425E+02  0.18381216817E+04  0.18383808316E+04  0.00000000000E+00 0.  1.
         -2    1    1    2    0  502  0.22562536412E+02  0.21064119425E+02  0.30470212607E+03  0.30626157253E+03  0.00000000000E+00 0. -1.
<mgrwt>
<rscale>  2 0.30866895E+02</rscale>
<asrwt>0</asrwt>
<pdfrwt beam="1">  1        2 0.32980105E+00 0.30866895E+02</pdfrwt>
<pdfrwt beam="2">  1       -2 0.13989374E-03 0.30866895E+02</pdfrwt>
<totfact> 0.17127843E+05</totfact>
</mgrwt>
</event>
<event>
 4    1  0.1474645E+004  0.2390886E+02  0.7546771E-02  0.1677188E+00
          2   -1    0    0  501    0  0.00000000000E+00  0.00000000000E+00  0.15771777369E+04  0.15771777369E+04  0.00000000000E+00 0. -1.
         -2   -1    0    0    0  501 -0.00000000000E+00 -0.00000000000E+00 -0.60348577967E+00  0.60348577967E+00  0.00000000000E+00 0. -1.
          2    1    1    2  502    0  0.23595858730E+02  0.38560087214E+01  0.12868643451E+04  0.12870864291E+04  0.00000000000E+00 0. -1.
         -2    1    1    2    0  502 -0.23595858730E+02 -0.38560087214E+01  0.28970990600E+03  0.29069479353E+03  0.00000000000E+00 0. -1.
<mgrwt>
<rscale>  2 0.23908855E+02</rscale>
<asrwt>0</asrwt>
<pdfrwt beam="1">  1        2 0.24263943E+00 0.23908855E+02</pdfrwt>
<pdfrwt beam="2">  1       -2 0.92845229E-04 0.23908855E+02</pdfrwt>
<totfact> 0.51608168E+05</totfact>
</mgrwt>
</event>
<event>
 4    1  0.1474645E+004  0.2177532E+02  0.7546771E-02  0.1712167E+00
         -2   -1    0    0    0  501 -0.00000000000E+00  0.00000000000E+00  0.34167144319E+02  0.34167144319E+02  0.00000000000E+00 0. -1.
          2   -1    0    0  501    0  0.00000000000E+00 -0.00000000000E+00 -0.45398983956E+02  0.45398983956E+02  0.00000000000E+00 0. -1.
          2    1    1    2  502    0 -0.64491068951E+01  0.20798405386E+02 -0.38765379505E+02  0.44462560593E+02  0.00000000000E+00 0. -1.
         -2    1    1    2    0  502  0.64491068951E+01 -0.20798405386E+02  0.27533539868E+02  0.35103567682E+02  0.00000000000E+00 0. -1.
<mgrwt>
<rscale>  2 0.21775322E+02</rscale>
<asrwt>0</asrwt>
<pdfrwt beam="2">  1        2 0.69844590E-02 0.21775322E+02</pdfrwt>
<pdfrwt beam="1">  1       -2 0.52564838E-02 0.21775322E+02</pdfrwt>
<totfact> 0.11286656E+05</totfact>
</mgrwt>
</event>
<event>
 4    1  0.1474645E+004  0.2291345E+02  0.7546771E-02  0.1692917E+00
          2   -1    0    0  501    0  0.00000000000E+00  0.00000000000E+00  0.70925825487E+02  0.70925825487E+02  0.00000000000E+00 0.  1.
         -2   -1    0    0    0  501 -0.00000000000E+00 -0.00000000000E+00 -0.13462610053E+02  0.13462610053E+02  0.00000000000E+00 0.  1.
          2    1    1    2  502    0 -0.18943264775E+02 -0.12891035884E+02  0.57040947611E+02  0.61471097200E+02  0.00000000000E+00 0.  1.
         -2    1    1    2    0  502  0.18943264775E+02  0.12891035884E+02  0.42226782283E+00  0.22917338341E+02  0.00000000000E+00 0.  1.
<mgrwt>
<rscale>  2 0.22913448E+02</rscale>
<asrwt>0</asrwt>
<pdfrwt beam="1">  1        2 0.10911665E-01 0.22913448E+02</pdfrwt>
<pdfrwt beam="2">  1       -2 0.20711708E-02 0.22913448E+02</pdfrwt>
<totfact> 0.24937742E+05</totfact>
</mgrwt>
</event>
<event>
 4    1  0.1474645E+004  0.2118665E+02  0.7546771E-02  0.1722710E+00
         -2   -1    0    0    0  501 -0.00000000000E+00  0.00000000000E+00  0.47623084464E+00  0.47623084464E+00  0.00000000000E+00 0.  1.
          2   -1    0    0  501    0  0.00000000000E+00 -0.00000000000E+00 -0.15223416988E+04  0.15223416988E+04  0.00000000000E+00 0.  1.
          2    1    1    2  502    0 -0.20188314426E+02 -0.64269757811E+01 -0.12308223063E+04  0.12310046401E+04  0.00000000000E+00 0.  1.
         -2    1    1    2    0  502  0.20188314426E+02  0.64269757811E+01 -0.29104316162E+03  0.29181328959E+03  0.00000000000E+00 0.  1.
<mgrwt>
<rscale>  2 0.21186648E+02</rscale>
<asrwt>0</asrwt>
<pdfrwt beam="2">  1        2 0.23420390E+00 0.21186648E+02</pdfrwt>
<pdfrwt beam="1">  1       -2 0.73267071E-04 0.21186648E+02</pdfrwt>
<totfact> 0.72368757E+05</totfact>
</mgrwt>
</event>
<event>
 4    1  0.1474645E+004  0.2852439E+02  0.7546771E-02  0.1614997E+00
          2   -1    0    0  501    0  0.00000000000E+00  0.00000000000E+00  0.15965736892E+04  0.15965736892E+04  0.00000000000E+00 0. -1.
         -2   -1    0    0    0  501 -0.00000000000E+00 -0.00000000000E+00 -0.58324399194E+02  0.58324399194E+02  0.00000000000E+00 0.  1.
          2    1    1    2  502    0  0.85458380232E+01  0.27214138906E+02  0.15929507881E+04  0.15932061555E+04  0.00000000000E+00 0. -1.
         -2    1    1    2    0  502 -0.85458380232E+01 -0.27214138906E+02 -0.54701498021E+02  0.61691932938E+02  0.00000000000E+00 0.  1.
<mgrwt>
<rscale>  2 0.28524388E+02</rscale>
<asrwt>0</asrwt>
<pdfrwt beam="1">  1        2 0.24562669E+00 0.28524388E+02</pdfrwt>
<pdfrwt beam="2">  1       -2 0.89729857E-02 0.28524388E+02</pdfrwt>
<totfact> 0.98517628E+02</totfact>
</mgrwt>
</event>
<event>
 4    1  0.1474645E+004  0.4213587E+02  0.7546771E-02  0.1493057E+00
         -2   -1    0    0    0  501 -0.00000000000E+00  0.00000000000E+00  0.15694246362E+02  0.15694246362E+02  0.00000000000E+00 0. -1.
          2   -1    0    0  501    0  0.00000000000E+00 -0.00000000000E+00 -0.17567342458E+03  0.17567342458E+03  0.00000000000E+00 0. -1.
          2    1    1    2  502    0 -0.12304546989E+02 -0.40299252121E+02 -0.13708343655E+03  0.14341304046E+03  0.00000000000E+00 0. -1.
         -2    1    1    2    0  502  0.12304546989E+02  0.40299252121E+02 -0.22895741668E+02  0.47954630482E+02  0.00000000000E+00 0. -1.
<mgrwt>
<rscale>  2 0.42135871E+02</rscale>
<asrwt>0</asrwt>
<pdfrwt beam="2">  1        2 0.27026681E-01 0.42135871E+02</pdfrwt>
<pdfrwt beam="1">  1       -2 0.24144994E-02 0.42135871E+02</pdfrwt>
<totfact> 0.86181311E+04</totfact>
</mgrwt>
</event>
<event>
 4    1  0.1474645E+004  0.2109097E+02  0.7546771E-02  0.1724464E+00
         -2   -1    0    0    0  501 -0.00000000000E+00  0.00000000000E+00  0.15971867735E+02  0.15971867735E+02  0.00000000000E+00 0. -1.
          2   -1    0    0  501    0  0.00000000000E+00 -0.00000000000E+00 -0.87337276708E+03  0.87337276708E+03  0.00000000000E+00 0.  1.
          2    1    1    2  502    0  0.20009218130E+02 -0.66678531317E+01 -0.86622529702E+03  0.86648202189E+03  0.00000000000E+00 0.  1.
         -2    1    1    2    0  502 -0.20009218130E+02  0.66678531317E+01  0.88243976673E+01  0.22862612925E+02  0.00000000000E+00 0. -1.
<mgrwt>
<rscale>  2 0.21090971E+02</rscale>
<asrwt>0</asrwt>
<pdfrwt beam="2">  1        2 0.13436504E+00 0.21090971E+02</pdfrwt>
<pdfrwt beam="1">  1       -2 0.24572104E-02 0.21090971E+02</pdfrwt>
<totfact> 0.14185404E+04</totfact>
</mgrwt>
</event>
<event>
 4    1  0.1474645E+004  0.2762440E+02  0.7546771E-02  0.1625937E+00
         -2   -1    0    0    0  501 -0.00000000000E+00  0.00000000000E+00  0.93189827648E+00  0.93189827648E+00  0.00000000000E+00 0.  1.
          2   -1    0    0  501    0  0.00000000000E+00 -0.00000000000E+00 -0.86440754210E+03  0.86440754210E+03  0.00000000000E+00 0.  1.
          2    1    1    2  502    0  0.30425946871E+00 -0.27622721248E+02 -0.53104091459E+03  0.53175893060E+03  0.00000000000E+00 0.  1.
         -2    1    1    2    0  502 -0.30425946871E+00  0.27622721248E+02 -0.33243472923E+03  0.33358050977E+03  0.00000000000E+00 0.  1.
<mgrwt>
<rscale>  2 0.27624397E+02</rscale>
<asrwt>0</asrwt>
<pdfrwt beam="2">  1        2 0.13298607E+00 0.27624397E+02</pdfrwt>
<pdfrwt beam="1">  1       -2 0.14336865E-03 0.27624397E+02</pdfrwt>
<totfact> 0.69827590E+05</totfact>
</mgrwt>
</event>
<event>
 4    1  0.1474645E+004  0.2935386E+02  0.7546771E-02  0.1605343E+00
          2   -1    0    0  501    0  0.00000000000E+00  0.00000000000E+00  0.13920282468E+04  0.13920282468E+04  0.00000000000E+00 0.  1.
         -2   -1    0    0    0  501 -0.00000000000E+00 -0.00000000000E+00 -0.72130208136E+01  0.72130208136E+01  0.00000000000E+00 0.  1.
          2    1    1    2  502    0 -0.20806659948E+02 -0.20705849216E+02  0.13613358930E+04  0.13616523282E+04  0.00000000000E+00 0.  1.
         -2    1    1    2    0  502  0.20806659948E+02  0.20705849216E+02  0.23479332997E+02  0.37588939436E+02  0.00000000000E+00 0.  1.
<mgrwt>
<rscale>  2 0.29353863E+02</rscale>
<asrwt>0</asrwt>
<pdfrwt beam="1">  1        2 0.21415798E+00 0.29353863E+02</pdfrwt>
<pdfrwt beam="2">  1       -2 0.11096966E-02 0.29353863E+02</pdfrwt>
<totfact> 0.23652064E+04</totfact>
</mgrwt>
</event>
<event>
 4    1  0.1474645E+004  0.2230426E+02  0.7546771E-02  0.1703043E+00
         -2   -1    0    0    0  501 -0.00000000000E+00  0.00000000000E+00  0.47735635231E+01  0.47735635231E+01  0.00000000000E+00 0. -1.
          2   -1    0    0  501    0  0.00000000000E+00 -0.00000000000E+00 -0.18443554368E+03  0.18443554368E+03  0.00000000000E+00 0. -1.
          2    1    1    2  502    0 -0.20400098993E+02  0.90175328909E+01 -0.15222326500E+03  0.15384863453E+03  0.00000000000E+00 0. -1.
         -2    1    1    2    0  502  0.20400098993E+02 -0.90175328909E+01 -0.27438715152E+02  0.35360472672E+02  0.00000000000E+00 0. -1.
<mgrwt>
<rscale>  2 0.22304258E+02</rscale>
<asrwt>0</asrwt>
<pdfrwt beam="2">  1        2 0.28374696E-01 0.22304258E+02</pdfrwt>
<pdfrwt beam="1">  1       -2 0.73439447E-03 0.22304258E+02</pdfrwt>
<totfact> 0.36144196E+05</totfact>
</mgrwt>
</event>
<event>
 4    1  0.1474645E+004  0.3063100E+02  0.7546771E-02  0.1591217E+00
          2   -1    0    0  501    0  0.00000000000E+00  0.00000000000E+00  0.21128782542E+04  0.21128782542E+04  0.00000000000E+00 0. -1.
         -2   -1    0    0    0  501 -0.00000000000E+00 -0.00000000000E+00 -0.21290846256E+01  0.21290846256E+01  0.00000000000E+00 0. -1.
          2    1    1    2  502    0  0.13022259798E+02 -0.27725060137E+02  0.19961538224E+04  0.19963888251E+04  0.00000000000E+00 0. -1.
         -2    1    1    2    0  502 -0.13022259798E+02  0.27725060137E+02  0.11459534716E+03  0.11861851373E+03  0.00000000000E+00 0. -1.
<mgrwt>
<rscale>  2 0.30631001E+02</rscale>
<asrwt>0</asrwt>
<pdfrwt beam="1">  1        2 0.32505652E+00 0.30631001E+02</pdfrwt>
<pdfrwt beam="2">  1       -2 0.32755317E-03 0.30631001E+02</pdfrwt>
<totfact> 0.56557258E+04</totfact>
</mgrwt>
</event>
<event>
 4    1  0.1474645E+004  0.3337841E+02  0.7546771E-02  0.1563491E+00
         -2   -1    0    0    0  501 -0.00000000000E+00  0.00000000000E+00  0.99205387021E+01  0.99205387021E+01  0.00000000000E+00 0.  1.
          2   -1    0    0  501    0  0.00000000000E+00 -0.00000000000E+00 -0.19929153622E+03  0.19929153622E+03  0.00000000000E+00 0.  1.
          2    1    1    2  502    0  0.51331156749E+01 -0.32981353842E+02 -0.16379539407E+03  0.16716174710E+03  0.00000000000E+00 0.  1.
         -2    1    1    2    0  502 -0.51331156749E+01  0.32981353842E+02 -0.25575603457E+02  0.42050327823E+02  0.00000000000E+00 0.  1.
<mgrwt>
<rscale>  2 0.33378415E+02</rscale>
<asrwt>0</asrwt>
<pdfrwt beam="2">  1        2 0.30660236E-01 0.33378415E+02</pdfrwt>
<pdfrwt beam="1">  1       -2 0.15262368E-02 0.33378415E+02</pdfrwt>
<totfact> 0.13668282E+05</totfact>
</mgrwt>
</event>
<event>
 4    1  0.1474645E+004  0.2940699E+02  0.7546771E-02  0.1604738E+00
          2   -1    0    0  501    0  0.00000000000E+00  0.00000000000E+00  0.16340908565E+04  0.16340908565E+04  0.00000000000E+00 0.  1.
         -2   -1    0    0    0  501 -0.00000000000E+00 -0.00000000000E+00 -0.75301415784E+00  0.75301415784E+00  0.00000000000E+00 0. -1.
          2    1    1    2  502    0  0.99366570113E+01  0.27677316829E+02  0.12623071865E+04  0.12626496759E+04  0.00000000000E+00 0.  1.
         -2    1    1    2    0  502 -0.99366570113E+01 -0.27677316829E+02  0.37103065580E+03  0.37219419469E+03  0.00000000000E+00 0. -1.
<mgrwt>
<rscale>  2 0.29406989E+02</rscale>
<asrwt>0</asrwt>
<pdfrwt beam="1">  1        2 0.25139576E+00 0.29406989E+02</pdfrwt>
<pdfrwt beam="2">  1       -2 0.11584964E-03 0.29406989E+02</pdfrwt>
<totfact> 0.38009090E+05</totfact>
</mgrwt>
</event>
<event>
 4    1  0.1474645E+004  0.2383322E+02  0.7546771E-02  0.1678349E+00
          2   -1    0    0  501    0  0.00000000000E+00  0.00000000000E+00  0.89673847207E+03  0.89673847207E+03  0.00000000000E+00 0.  1.
         -2   -1    0    0    0  501 -0.00000000000E+00 -0.00000000000E+00 -0.19197645814E+02  0.19197645814E+02  0.00000000000E+00 0.  1.
          2    1    1    2  502    0 -0.88667956781E+01  0.22122439749E+02  0.88911970921E+03  0.88943908151E+03  0.00000000000E+00 0.  1.
         -2    1    1    2    0  502  0.88667956781E+01 -0.22122439749E+02 -0.11578882957E+02  0.26497036374E+02  0.00000000000E+00 0.  1.
<mgrwt>
<rscale>  2 0.23833221E+02</rscale>
<asrwt>0</asrwt>
<pdfrwt beam="1">  1        2 0.13795973E+00 0.23833221E+02</pdfrwt>
<pdfrwt beam="2">  1       -2 0.29534847E-02 0.23833221E+02</pdfrwt>
<totfact> 0.10837878E+04</totfact>
</mgrwt>
</event>
<event>
 4    1  0.1474645E+004  0.2851627E+02  0.7546771E-02  0.1615093E+00
         -2   -1    0    0    0  501 -0.00000000000E+00  0.00000000000E+00  0.12786856095E+02  0.12786856095E+02  0.00000000000E+00 0. -1.
          2   -1    0    0  501    0  0.00000000000E+00 -0.00000000000E+00 -0.19036274509E+03  0.19036274509E+03  0.00000000000E+00 0. -1.
          2    1    1    2  502    0  0.26548783384E+02 -0.10408639798E+02 -0.17167748028E+03  0.17402969551E+03  0.00000000000E+00 0. -1.
         -2    1    1    2    0  502 -0.26548783384E+02  0.10408639798E+02 -0.58984087150E+01  0.29119905683E+02  0.00000000000E+00 0. -1.
<mgrwt>
<rscale>  2 0.28516270E+02</rscale>
<asrwt>0</asrwt>
<pdfrwt beam="2">  1        2 0.29286575E-01 0.28516270E+02</pdfrwt>
<pdfrwt beam="1">  1       -2 0.19672087E-02 0.28516270E+02</pdfrwt>
<totfact> 0.97405539E+04</totfact>
</mgrwt>
</event>
<event>
 4    1  0.1474645E+004  0.3249974E+02  0.7546771E-02  0.1571995E+00
         -2   -1    0    0    0  501 -0.00000000000E+00  0.00000000000E+00  0.24543047027E+03  0.24543047027E+03  0.00000000000E+00 0.  1.
          2   -1    0    0  501    0  0.00000000000E+00 -0.00000000000E+00 -0.20281889584E+04  0.20281889584E+04  0.00000000000E+00 0.  1.
          2    1    1    2  502    0 -0.31245308709E+02 -0.89422435244E+01 -0.20269822254E+04  0.20272427519E+04  0.00000000000E+00 0.  1.
         -2    1    1    2    0  502  0.31245308709E+02  0.89422435244E+01  0.24422373724E+03  0.24637667679E+03  0.00000000000E+00 0.  1.
<mgrwt>
<rscale>  2 0.32499739E+02</rscale>
<asrwt>0</asrwt>
<pdfrwt beam="2">  1        2 0.31202907E+00 0.32499739E+02</pdfrwt>
<pdfrwt beam="1">  1       -2 0.37758534E-01 0.32499739E+02</pdfrwt>
<totfact> 0.59545470E+01</totfact>
</mgrwt>
</event>
<event>
 4    1  0.1474645E+004  0.2217654E+02  0.7546771E-02  0.1705217E+00
          2   -1    0    0  501    0  0.00000000000E+00  0.00000000000E+00  0.17817487962E+01  0.17817487962E+01  0.00000000000E+00 0.  1.
         -2   -1    0    0    0  501 -0.00000000000E+00 -0.00000000000E+00 -0.27750752564E+03  0.27750752564E+03  0.00000000000E+00 0.  1.
          2    1    1    2  502    0  0.17026322749E+02  0.14209242362E+02 -0.14808697852E+03  0.14973827648E+03  0.00000000000E+00 0.  1.
         -2    1    1    2    0  502 -0.17026322749E+02 -0.14209242362E+02 -0.12763879832E+03  0.12955099796E+03  0.00000000000E+00 0.  1.
<mgrwt>
<rscale>  2 0.22176535E+02</rscale>
<asrwt>0</asrwt>
<pdfrwt beam="1">  1        2 0.27411527E-03 0.22176535E+02</pdfrwt>
<pdfrwt beam="2">  1       -2 0.42693454E-01 0.22176535E+02</pdfrwt>
<totfact> 0.26242905E+05</totfact>
</mgrwt>
</event>
<event>
 4    1  0.1474645E+004  0.3028213E+02  0.7546771E-02  0.1594991E+00
          2   -1    0    0  501    0  0.00000000000E+00  0.00000000000E+00  0.14359986194E+04  0.14359986194E+04  0.00000000000E+00 0. -1.
         -2   -1    0    0    0  501 -0.00000000000E+00 -0.00000000000E+00 -0.49701637299E+02  0.49701637299E+02  0.00000000000E+00 0. -1.
          2    1    1    2  502    0 -0.26809936613E+02  0.14079582275E+02  0.14312109841E+04  0.14315313089E+04  0.00000000000E+00 0. -1.
         -2    1    1    2    0  502  0.26809936613E+02 -0.14079582275E+02 -0.44914001960E+02  0.54168947842E+02  0.00000000000E+00 0. -1.
<mgrwt>
<rscale>  2 0.30282129E+02</rscale>
<asrwt>0</asrwt>
<pdfrwt beam="1">  1        2 0.22092283E+00 0.30282129E+02</pdfrwt>
<pdfrwt beam="2">  1       -2 0.76464068E-02 0.30282129E+02</pdfrwt>
<totfact> 0.14913228E+03</totfact>
</mgrwt>
</event>
<event>
 4    1  0.1474645E+004  0.4654936E+02  0.7546771E-02  0.1464895E+00
         -2   -1    0    0    0  501 -0.00000000000E+00  0.00000000000E+00  0.28517728876E+03  0.28517728876E+03  0.00000000000E+00 0. -1.
          2   -1    0    0  501    0  0.00000000000E+00 -0.00000000000E+00 -0.15028087912E+02  0.15028087912E+02  0.00000000000E+00 0. -1.
          2    1    1    2  502    0 -0.18721673368E+02 -0.42618558851E+02  0.29532225335E+02  0.55127079964E+02  0.00000000000E+00 0. -1.
         -2    1    1    2    0  502  0.18721673368E+02  0.42618558851E+02  0.24061697551E+03  0.24507829671E+03  0.00000000000E+00 0. -1.
<mgrwt>
<rscale>  2 0.46549357E+02</rscale>
<asrwt>0</asrwt>
<pdfrwt beam="2">  1        2 0.23120137E-02 0.46549357E+02</pdfrwt>
<pdfrwt beam="1">  1       -2 0.43873425E-01 0.46549357E+02</pdfrwt>
<totfact> 0.17833636E+04</totfact>
</mgrwt>
</event>
<event>
 4    1  0.1474645E+004  0.3372450E+02  0.7546771E-02  0.1560228E+00
          2   -1    0    0  501    0  0.00000000000E+00  0.00000000000E+00  0.44657062507E+03  0.44657062507E+03  0.00000000000E+00 0.  1.
         -2   -1    0    0    0  501 -0.00000000000E+00 -0.00000000000E+00 -0.84316245982E+01  0.84316245982E+01  0.00000000000E+00 0. -1.
          2    1    1    2  502    0 -0.28562082125E+02  0.17931795673E+02  0.40913066047E+03  0.41051825681E+03  0.00000000000E+00 0.  1.
         -2    1    1    2    0  502  0.28562082125E+02 -0.17931795673E+02  0.29008339993E+02  0.44483992857E+02  0.00000000000E+00 0. -1.
<mgrwt>
<rscale>  2 0.33724499E+02</rscale>
<asrwt>0</asrwt>
<pdfrwt beam="1">  1        2 0.68703155E-01 0.33724499E+02</pdfrwt>
<pdfrwt beam="2">  1       -2 0.12971734E-02 0.33724499E+02</pdfrwt>
<totfact> 0.75917975E+04</totfact>
</mgrwt>
</event>
<event>
 4    1  0.1474645E+004  0.2111186E+02  0.7546771E-02  0.1724081E+00
         -2   -1    0    0    0  501 -0.00000000000E+00  0.00000000000E+00  0.69892105540E+00  0.69892105540E+00  0.00000000000E+00 0. -1.
          2   -1    0    0  501    0  0.00000000000E+00 -0.00000000000E+00 -0.17335647117E+04  0.17335647117E+04  0.00000000000E+00 0. -1.
          2    1    1    2  502    0 -0.18039751687E+02 -0.10967128584E+02 -0.15558644032E+04  0.15560076323E+04  0.00000000000E+00 0. -1.
         -2    1    1    2    0  502  0.18039751687E+02  0.10967128584E+02 -0.17700138745E+03  0.17825600049E+03  0.00000000000E+00 0. -1.
<mgrwt>
<rscale>  2 0.21111858E+02</rscale>
<asrwt>0</asrwt>
<pdfrwt beam="2">  1        2 0.26670394E+00 0.21111858E+02</pdfrwt>
<pdfrwt beam="1">  1       -2 0.10752564E-03 0.21111858E+02</pdfrwt>
<totfact> 0.34897575E+05</totfact>
</mgrwt>
</event>
<event>
 4    1  0.1474645E+004  0.3293689E+02  0.7546771E-02  0.1567724E+00
         -2   -1    0    0    0  501 -0.00000000000E+00  0.00000000000E+00  0.54621763491E+02  0.54621763491E+02  0.00000000000E+00 0. -1.
          2   -1    0    0  501    0  0.00000000000E+00 -0.00000000000E+00 -0.37829137717E+03  0.37829137717E+03  0.00000000000E+00 0. -1.
          2    1    1    2  502    0 -0.85439707987E-01 -0.32936783137E+02 -0.37253260608E+03  0.37398580398E+03  0.00000000000E+00 0. -1.
         -2    1    1    2    0  502  0.85439707987E-01  0.32936783137E+02  0.48862992396E+02  0.58927336689E+02  0.00000000000E+00 0. -1.
<mgrwt>
<rscale>  2 0.32936894E+02</rscale>
<asrwt>0</asrwt>
<pdfrwt beam="2">  1        2 0.58198671E-01 0.32936894E+02</pdfrwt>
<pdfrwt beam="1">  1       -2 0.84033486E-02 0.32936894E+02</pdfrwt>
<totfact> 0.63004832E+03</totfact>
</mgrwt>
</event>
<event>
 4    1  0.1474645E+004  0.4606906E+02  0.7546771E-02  0.1467776E+00
          2   -1    0    0  501    0  0.00000000000E+00  0.00000000000E+00  0.87148646628E+03  0.87148646628E+03  0.00000000000E+00 0. -1.
         -2   -1    0    0    0  501 -0.00000000000E+00 -0.00000000000E+00 -0.15818437307E+02  0.15818437307E+02  0.00000000000E+00 0. -1.
          2    1    1    2  502    0  0.42900673118E+02 -0.16789587606E+02  0.83590861207E+03  0.83717714119E+03  0.00000000000E+00 0. -1.
         -2    1    1    2    0  502 -0.42900673118E+02  0.16789587606E+02  0.19759416900E+02  0.50127762389E+02  0.00000000000E+00 0. -1.
<mgrwt>
<rscale>  2 0.46069057E+02</rscale>
<asrwt>0</asrwt>
<pdfrwt beam="1">  1        2 0.13407480E+00 0.46069057E+02</pdfrwt>
<pdfrwt beam="2">  1       -2 0.24336064E-02 0.46069057E+02</pdfrwt>
<totfact> 0.15878402E+04</totfact>
</mgrwt>
</event>
<event>
 4    1  0.1474645E+004  0.2222238E+02  0.7546771E-02  0.1704434E+00
         -2   -1    0    0    0  501 -0.00000000000E+00  0.00000000000E+00  0.57258014950E+01  0.57258014950E+01  0.00000000000E+00 0.  1.
          2   -1    0    0  501    0  0.00000000000E+00 -0.00000000000E+00 -0.17640146424E+03  0.17640146424E+03  0.00000000000E+00 0.  1.
          2    1    1    2  502    0  0.21773730738E+02 -0.44428519208E+01 -0.15043873883E+03  0.15207119525E+03  0.00000000000E+00 0.  1.
         -2    1    1    2    0  502 -0.21773730738E+02  0.44428519208E+01 -0.20236923909E+02  0.30056070481E+02  0.00000000000E+00 0.  1.
<mgrwt>
<rscale>  2 0.22222382E+02</rscale>
<asrwt>0</asrwt>
<pdfrwt beam="2">  1        2 0.27138688E-01 0.22222382E+02</pdfrwt>
<pdfrwt beam="1">  1       -2 0.88089250E-03 0.22222382E+02</pdfrwt>
<totfact> 0.29575964E+05</totfact>
</mgrwt>
</event>
<event>
 4    1  0.1474645E+004  0.2013934E+02  0.7546771E-02  0.1742571E+00
         -2   -1    0    0    0  501 -0.00000000000E+00  0.00000000000E+00  0.10724756362E+02  0.10724756362E+02  0.00000000000E+00 0. -1.
          2   -1    0    0  501    0  0.00000000000E+00 -0.00000000000E+00 -0.86557548686E+02  0.86557548686E+02  0.00000000000E+00 0. -1.
          2    1    1    2  502    0  0.34626507077E+01 -0.19839429998E+02 -0.74416191758E+02  0.77093206759E+02  0.00000000000E+00 0. -1.
         -2    1    1    2    0  502 -0.34626507077E+01  0.19839429998E+02 -0.14166005654E+01  0.20189098289E+02  0.00000000000E+00 0. -1.
<mgrwt>
<rscale>  2 0.20139338E+02</rscale>
<asrwt>0</asrwt>
<pdfrwt beam="2">  1        2 0.13316547E-01 0.20139338E+02</pdfrwt>
<pdfrwt beam="1">  1       -2 0.16499624E-02 0.20139338E+02</pdfrwt>
<totfact> 0.26204994E+05</totfact>
</mgrwt>
</event>
<event>
 4    1  0.1474645E+004  0.4557136E+02  0.7546771E-02  0.1470806E+00
          2   -1    0    0  501    0  0.00000000000E+00  0.00000000000E+00  0.73153084849E+02  0.73153084849E+02  0.00000000000E+00 0.  1.
         -2   -1    0    0    0  501 -0.00000000000E+00 -0.00000000000E+00 -0.19430914575E+03  0.19430914575E+03  0.00000000000E+00 0. -1.
          2    1    1    2  502    0 -0.28262153623E+02  0.35749123566E+02  0.62998299760E+02  0.77753038113E+02  0.00000000000E+00 0.  1.
         -2    1    1    2    0  502  0.28262153623E+02 -0.35749123566E+02 -0.18415436066E+03  0.18970919248E+03  0.00000000000E+00 0. -1.
<mgrwt>
<rscale>  2 0.45571363E+02</rscale>
<asrwt>0</asrwt>
<pdfrwt beam="1">  1        2 0.11254321E-01 0.45571363E+02</pdfrwt>
<pdfrwt beam="2">  1       -2 0.29893714E-01 0.45571363E+02</pdfrwt>
<totfact> 0.49209842E+03</totfact>
</mgrwt>
</event>
<event>
 4    1  0.1474645E+004  0.2187208E+02  0.7546771E-02  0.1710474E+00
         -2   -1    0    0    0  501 -0.00000000000E+00  0.00000000000E+00  0.16992331054E+03  0.16992331054E+03  0.00000000000E+00 0. -1.
          2   -1    0    0  501    0  0.00000000000E+00 -0.00000000000E+00 -0.10366019497E+02  0.10366019497E+02  0.00000000000E+00 0.  1.
          2    1    1    2  502    0  0.33492007453E+01 -0.21614132778E+02  0.28429798849E+01  0.22056074356E+02  0.00000000000E+00 0.  1.
         -2    1    1    2    0  502 -0.33492007453E+01  0.21614132778E+02  0.15671431116E+03  0.15823325568E+03  0.00000000000E+00 0. -1.
<mgrwt>
<rscale>  2 0.21872080E+02</rscale>
<asrwt>0</asrwt>
<pdfrwt beam="2">  1        2 0.15947724E-02 0.21872080E+02</pdfrwt>
<pdfrwt beam="1">  1       -2 0.26142046E-01 0.21872080E+02</pdfrwt>
<totfact> 0.62003026E+04</totfact>
</mgrwt>
</event>
<event>
 4    1  0.1474645E+004  0.2629819E+02  0.7546771E-02  0.1643026E+00
          2   -1    0    0  501    0  0.00000000000E+00  0.00000000000E+00  0.86476831055E+03  0.86476831055E+03  0.00000000000E+00 0. -1.
         -2   -1    0    0    0  501 -0.00000000000E+00 -0.00000000000E+00 -0.10013815275E+01  0.10013815275E+01  0.00000000000E+00 0. -1.
          2    1    1    2  502    0 -0.13446299078E+02  0.22600709998E+02  0.62613124069E+03  0.62668327377E+03  0.00000000000E+00 0. -1.
         -2    1    1    2    0  502  0.13446299078E+02 -0.22600709998E+02  0.23763568833E+03  0.23908641831E+03  0.00000000000E+00 0. -1.
<mgrwt>
<rscale>  2 0.26298195E+02</rscale>
<asrwt>0</asrwt>
<pdfrwt beam="1">  1        2 0.13304068E+00 0.26298195E+02</pdfrwt>
<pdfrwt beam="2">  1       -2 0.15405939E-03 0.26298195E+02</pdfrwt>
<totfact> 0.62582136E+05</totfact>
</mgrwt>
</event>
<event>
 4    1  0.1474645E+004  0.2891080E+02  0.7546771E-02  0.1610450E+00
          2   -1    0    0  501    0  0.00000000000E+00  0.00000000000E+00  0.11903107864E+04  0.11903107864E+04  0.00000000000E+00 0. -1.
         -2   -1    0    0    0  501 -0.00000000000E+00 -0.00000000000E+00 -0.11965002973E+02  0.11965002973E+02  0.00000000000E+00 0.  1.
          2    1    1    2  502    0 -0.20940592453E+02 -0.19933039253E+02  0.11724043926E+04  0.11727608001E+04  0.00000000000E+00 0. -1.
         -2    1    1    2    0  502  0.20940592453E+02  0.19933039253E+02  0.59413908147E+01  0.29514989259E+02  0.00000000000E+00 0.  1.
<mgrwt>
<rscale>  2 0.28910802E+02</rscale>
<asrwt>0</asrwt>
<pdfrwt beam="1">  1        2 0.18312464E+00 0.28910802E+02</pdfrwt>
<pdfrwt beam="2">  1       -2 0.18407706E-02 0.28910802E+02</pdfrwt>
<totfact> 0.14840859E+04</totfact>
</mgrwt>
</event>
<event>
 4    1  0.1474645E+004  0.4694545E+02  0.7546771E-02  0.1462550E+00
          2   -1    0    0  501    0  0.00000000000E+00  0.00000000000E+00  0.38317919262E+04  0.38317919262E+04  0.00000000000E+00 0.  1.
         -2   -1    0    0    0  501 -0.00000000000E+00 -0.00000000000E+00 -0.10898252759E+01  0.10898252759E+01  0.00000000000E+00 0.  1.
          2    1    1    2  502    0  0.31695152402E+02 -0.34630799343E+02  0.32323379583E+04  0.32326788507E+04  0.00000000000E+00 0.  1.
         -2    1    1    2    0  502 -0.31695152402E+02  0.34630799343E+02  0.59836414264E+03  0.60020290082E+03  0.00000000000E+00 0.  1.
<mgrwt>
<rscale>  2 0.46945447E+02</rscale>
<asrwt>0</asrwt>
<pdfrwt beam="1">  1        2 0.58949567E+00 0.46945447E+02</pdfrwt>
<pdfrwt beam="2">  1       -2 0.16766849E-03 0.46945447E+02</pdfrwt>
<totfact> 0.16080006E+04</totfact>
</mgrwt>
</event>
<event>
 4    1  0.1474645E+004  0.3168723E+02  0.7546771E-02  0.1580154E+00
         -2   -1    0    0    0  501 -0.00000000000E+00  0.00000000000E+00  0.17170149711E+02  0.17170149711E+02  0.00000000000E+00 0. -1.
          2   -1    0    0  501    0  0.00000000000E+00 -0.00000000000E+00 -0.46632696497E+03  0.46632696497E+03  0.00000000000E+00 0.  1.
          2    1    1    2  502    0 -0.49930549161E+00 -0.31683295840E+02 -0.45066154356E+03  0.45177417742E+03  0.00000000000E+00 0.  1.
         -2    1    1    2    0  502  0.49930549161E+00  0.31683295840E+02  0.15047282981E+01  0.31722937261E+02  0.00000000000E+00 0. -1.
<mgrwt>
<rscale>  2 0.31687230E+02</rscale>
<asrwt>0</asrwt>
<pdfrwt beam="2">  1        2 0.71742591E-01 0.31687230E+02</pdfrwt>
<pdfrwt beam="1">  1       -2 0.26415622E-02 0.31687230E+02</pdfrwt>
<totfact> 0.26773129E+04</totfact>
</mgrwt>
</event>
<event>
 4    1  0.1474645E+004  0.3202135E+02  0.7546771E-02  0.1576763E+00
         -2   -1    0    0    0  501 -0.00000000000E+00  0.00000000000E+00  0.67862057027E+00  0.67862057027E+00  0.00000000000E+00 0.  1.
          2   -1    0    0  501    0  0.00000000000E+00 -0.00000000000E+00 -0.19928445807E+04  0.19928445807E+04  0.00000000000E+00 0.  1.
          2    1    1    2  502    0 -0.29178698918E+02 -0.13189777557E+02 -0.14862310725E+04  0.14865759879E+04  0.00000000000E+00 0.  1.
         -2    1    1    2    0  502  0.29178698918E+02  0.13189777557E+02 -0.50593488755E+03  0.50694721337E+03  0.00000000000E+00 0.  1.
<mgrwt>
<rscale>  2 0.32021348E+02</rscale>
<asrwt>0</asrwt>
<pdfrwt beam="2">  1        2 0.30659481E+00 0.32021348E+02</pdfrwt>
<pdfrwt beam="1">  1       -2 0.10440203E-03 0.32021348E+02</pdfrwt>
<totfact> 0.30067495E+05</totfact>
</mgrwt>
</event>
<event>
 4    1  0.1474645E+004  0.2663286E+02  0.7546771E-02  0.1638599E+00
         -2   -1    0    0    0  501 -0.00000000000E+00  0.00000000000E+00  0.28931841870E+01  0.28931841870E+01  0.00000000000E+00 0. -1.
          2   -1    0    0  501    0  0.00000000000E+00 -0.00000000000E+00 -0.24736468629E+03  0.24736468629E+03  0.00000000000E+00 0.  1.
          2    1    1    2  502    0 -0.26422449921E+02 -0.33411866290E+01 -0.13403365585E+03  0.13665405332E+03  0.00000000000E+00 0.  1.
         -2    1    1    2    0  502  0.26422449921E+02  0.33411866290E+01 -0.11043784625E+03  0.11360381716E+03  0.00000000000E+00 0. -1.
<mgrwt>
<rscale>  2 0.26632863E+02</rscale>
<asrwt>0</asrwt>
<pdfrwt beam="2">  1        2 0.38056100E-01 0.26632863E+02</pdfrwt>
<pdfrwt beam="1">  1       -2 0.44510532E-03 0.26632863E+02</pdfrwt>
<totfact> 0.55534767E+05</totfact>
</mgrwt>
</event>
<event>
 4    1  0.1474645E+004  0.2037748E+02  0.7546771E-02  0.1737924E+00
          2   -1    0    0  501    0  0.00000000000E+00  0.00000000000E+00  0.20598251745E+03  0.20598251745E+03  0.00000000000E+00 0. -1.
         -2   -1    0    0    0  501 -0.00000000000E+00 -0.00000000000E+00 -0.17081895265E+02  0.17081895265E+02  0.00000000000E+00 0. -1.
          2    1    1    2  502    0  0.16836987133E+02 -0.11478566645E+02  0.19919477458E+03  0.20023436231E+03  0.00000000000E+00 0. -1.
         -2    1    1    2    0  502 -0.16836987133E+02  0.11478566645E+02 -0.10294152398E+02  0.22830050406E+02  0.00000000000E+00 0. -1.
<mgrwt>
<rscale>  2 0.20377478E+02</rscale>
<asrwt>0</asrwt>
<pdfrwt beam="1">  1        2 0.31689616E-01 0.20377478E+02</pdfrwt>
<pdfrwt beam="2">  1       -2 0.26279840E-02 0.20377478E+02</pdfrwt>
<totfact> 0.55941601E+04</totfact>
</mgrwt>
</event>
<event>
 4    1  0.1474645E+004  0.3782917E+02  0.7546771E-02  0.1524822E+00
         -2   -1    0    0    0  501 -0.00000000000E+00  0.00000000000E+00  0.20045296730E+01  0.20045296730E+01  0.00000000000E+00 0. -1.
          2   -1    0    0  501    0  0.00000000000E+00 -0.00000000000E+00 -0.19284205555E+04  0.19284205555E+04  0.00000000000E+00 0. -1.
          2    1    1    2  502    0 -0.64527435672E+01  0.37274769541E+02 -0.17291985258E+04  0.17296122652E+04  0.00000000000E+00 0. -1.
         -2    1    1    2    0  502  0.64527435672E+01 -0.37274769541E+02 -0.19721750005E+03  0.20081281999E+03  0.00000000000E+00 0. -1.
<mgrwt>
<rscale>  2 0.37829173E+02</rscale>
<asrwt>0</asrwt>
<pdfrwt beam="2">  1        2 0.29668214E+00 0.37829173E+02</pdfrwt>
<pdfrwt beam="1">  1       -2 0.30838704E-03 0.37829173E+02</pdfrwt>
<totfact> 0.77378205E+04</totfact>
</mgrwt>
</event>
<event>
 4    1  0.1474645E+004  0.2773736E+02  0.7546771E-02  0.1624536E+00
         -2   -1    0    0    0  501 -0.00000000000E+00  0.00000000000E+00  0.16817794247E+02  0.16817794247E+02  0.00000000000E+00 0. -1.
          2   -1    0    0  501    0  0.00000000000E+00 -0.00000000000E+00 -0.97206343863E+03  0.97206343863E+03  0.00000000000E+00 0. -1.
          2    1    1    2  502    0 -0.14557095062E+02 -0.23610429516E+02 -0.96028864917E+03  0.96068915427E+03  0.00000000000E+00 0. -1.
         -2    1    1    2    0  502  0.14557095062E+02  0.23610429516E+02  0.50430047957E+01  0.28192078603E+02  0.00000000000E+00 0. -1.
<mgrwt>
<rscale>  2 0.27737365E+02</rscale>
<asrwt>0</asrwt>
<pdfrwt beam="2">  1        2 0.14954826E+00 0.27737365E+02</pdfrwt>
<pdfrwt beam="1">  1       -2 0.25873523E-02 0.27737365E+02</pdfrwt>
<totfact> 0.12029622E+04</totfact>
</mgrwt>
</event>
<event>
 4    1  0.1474645E+004  0.2798920E+02  0.7546771E-02  0.1621442E+00
         -2   -1    0    0    0  501 -0.00000000000E+00  0.00000000000E+00  0.28466612683E+02  0.28466612683E+02  0.00000000000E+00 0. -1.
          2   -1    0    0  501    0  0.00000000000E+00 -0.00000000000E+00 -0.95970688723E+02  0.95970688723E+02  0.00000000000E+00 0.  1.
          2    1    1    2  502    0 -0.12340351150E+02  0.25121927701E+02 -0.86298178801E+02  0.90723597715E+02  0.00000000000E+00 0.  1.
         -2    1    1    2    0  502  0.12340351150E+02 -0.25121927701E+02  0.18794102762E+02  0.33713703691E+02  0.00000000000E+00 0. -1.
<mgrwt>
<rscale>  2 0.27989204E+02</rscale>
<asrwt>0</asrwt>
<pdfrwt beam="2">  1        2 0.14764721E-01 0.27989204E+02</pdfrwt>
<pdfrwt beam="1">  1       -2 0.43794789E-02 0.27989204E+02</pdfrwt>
<totfact> 0.65600972E+04</totfact>
</mgrwt>
</event>
<event>
 4    1  0.1474645E+004  0.2056989E+02  0.7546771E-02  0.1734227E+00
         -2   -1    0    0    0  501 -0.00000000000E+00  0.00000000000E+00  0.34707763806E+03  0.34707763806E+03  0.00000000000E+00 0. -1.
          2   -1    0    0  501    0  0.00000000000E+00 -0.00000000000E+00 -0.40661653156E+02  0.40661653156E+02  0.00000000000E+00 0. -1.
          2    1    1    2  502    0 -0.12831913187E+02  0.16076760695E+02 -0.37733293889E+02  0.42975826905E+02  0.00000000000E+00 0. -1.
         -2    1    1    2    0  502  0.12831913187E+02 -0.16076760695E+02  0.34414927879E+03  0.34476346431E+03  0.00000000000E+00 0. -1.
<mgrwt>
<rscale>  2 0.20569886E+02</rscale>
<asrwt>0</asrwt>
<pdfrwt beam="2">  1        2 0.62556392E-02 0.20569886E+02</pdfrwt>
<pdfrwt beam="1">  1       -2 0.53396558E-01 0.20569886E+02</pdfrwt>
<totfact> 0.30964351E+03</totfact>
</mgrwt>
</event>
<event>
 4    1  0.1474645E+004  0.2273708E+02  0.7546771E-02  0.1695808E+00
         -2   -1    0    0    0  501 -0.00000000000E+00  0.00000000000E+00  0.39609143257E+00  0.39609143257E+00  0.00000000000E+00 0.  1.
          2   -1    0    0  501    0  0.00000000000E+00 -0.00000000000E+00 -0.14231375252E+04  0.14231375252E+04  0.00000000000E+00 0.  1.
          2    1    1    2  502    0 -0.19262644220E+02  0.12079957760E+02 -0.91627804085E+03  0.91656010331E+03  0.00000000000E+00 0.  1.
         -2    1    1    2    0  502  0.19262644220E+02 -0.12079957760E+02 -0.50646339294E+03  0.50697351334E+03  0.00000000000E+00 0.  1.
<mgrwt>
<rscale>  2 0.22737081E+02</rscale>
<asrwt>0</asrwt>
<pdfrwt beam="2">  1        2 0.21894477E+00 0.22737081E+02</pdfrwt>
<pdfrwt beam="1">  1       -2 0.60936994E-04 0.22737081E+02</pdfrwt>
<totfact> 0.10471369E+06</totfact>
</mgrwt>
</event>
<event>
 4    1  0.1474645E+004  0.3006155E+02  0.7546771E-02  0.1597409E+00
          2   -1    0    0  501    0  0.00000000000E+00  0.00000000000E+00  0.54459659769E+01  0.54459659769E+01  0.00000000000E+00 0.  1.
         -2   -1    0    0    0  501 -0.00000000000E+00 -0.00000000000E+00 -0.31219490244E+03  0.31219490244E+03  0.00000000000E+00 0. -1.
          2    1    1    2  502    0 -0.21460236624E+02 -0.21051245194E+02 -0.44669203898E+02  0.53842682483E+02  0.00000000000E+00 0.  1.
         -2    1    1    2    0  502  0.21460236624E+02  0.21051245194E+02 -0.26207973256E+03  0.26379818593E+03  0.00000000000E+00 0. -1.
<mgrwt>
<rscale>  2 0.30061548E+02</rscale>
<asrwt>0</asrwt>
<pdfrwt beam="1">  1        2 0.83784080E-03 0.30061548E+02</pdfrwt>
<pdfrwt beam="2">  1       -2 0.48029992E-01 0.30061548E+02</pdfrwt>
<totfact> 0.52595072E+04</totfact>
</mgrwt>
</event>
<event>
 4    1  0.1474645E+004  0.2981785E+02  0.7546771E-02  0.1600111E+00
          2   -1    0    0  501    0  0.00000000000E+00  0.00000000000E+00  0.24858129284E+03  0.24858129284E+03  0.00000000000E+00 0.  1.
         -2   -1    0    0    0  501 -0.00000000000E+00 -0.00000000000E+00 -0.36893433280E+01  0.36893433280E+01  0.00000000000E+00 0.  1.
          2    1    1    2  502    0  0.29514562176E+02  0.42420092538E+01  0.14448483926E+03  0.14752956585E+03  0.00000000000E+00 0.  1.
         -2    1    1    2    0  502 -0.29514562176E+02 -0.42420092538E+01  0.10040711026E+03  0.10474107032E+03  0.00000000000E+00 0.  1.
<mgrwt>
<rscale>  2 0.29817847E+02</rscale>
<asrwt>0</asrwt>
<pdfrwt beam="1">  1        2 0.38243263E-01 0.29817847E+02</pdfrwt>
<pdfrwt beam="2">  1       -2 0.56759148E-03 0.29817847E+02</pdfrwt>
<totfact> 0.41084503E+05</totfact>
</mgrwt>
</event>
<event>
 4    1  0.1474645E+004  0.2333281E+02  0.7546771E-02  0.1686171E+00
          2   -1    0    0  501    0  0.00000000000E+00  0.00000000000E+00  0.59890387890E+02  0.59890387890E+02  0.00000000000E+00 0.  1.
         -2   -1    0    0    0  501 -0.00000000000E+00 -0.00000000000E+00 -0.34982636175E+03  0.34982636175E+03  0.00000000000E+00 0. -1.
          2    1    1    2  502    0 -0.12221817599E+02 -0.19875798654E+02  0.57211235048E+02  0.61786289849E+02  0.00000000000E+00 0.  1.
         -2    1    1    2    0  502  0.12221817599E+02  0.19875798654E+02 -0.34714720891E+03  0.34793045979E+03  0.00000000000E+00 0. -1.
<mgrwt>
<rscale>  2 0.23332814E+02</rscale>
<asrwt>0</asrwt>
<pdfrwt beam="1">  1        2 0.92139058E-02 0.23332814E+02</pdfrwt>
<pdfrwt beam="2">  1       -2 0.53819441E-01 0.23332814E+02</pdfrwt>
<totfact> 0.19630839E+03</totfact>
</mgrwt>
</event>
<event>
 4    1  0.1474645E+004  0.2663060E+02  0.7546771E-02  0.1638628E+00
         -2   -1    0    0    0  501 -0.00000000000E+00  0.00000000000E+00  0.26986883415E+02  0.26986883415E+02  0.00000000000E+00 0.  1.
          2   -1    0    0  501    0  0.00000000000E+00 -0.00000000000E+00 -0.32885357802E+02  0.32885357802E+02  0.00000000000E+00 0. -1.
          2    1    1    2  502    0 -0.14977620884E+02 -0.22019536319E+02 -0.16366820740E+02  0.31257989830E+02  0.00000000000E+00 0. -1.
         -2    1    1    2    0  502  0.14977620884E+02  0.22019536319E+02  0.10468346353E+02  0.28614251387E+02  0.00000000000E+00 0.  1.
<mgrwt>
<rscale>  2 0.26630605E+02</rscale>
<asrwt>0</asrwt>
<pdfrwt beam="2">  1        2 0.50592858E-02 0.26630605E+02</pdfrwt>
<pdfrwt beam="1">  1       -2 0.41518283E-02 0.26630605E+02</pdfrwt>
<totfact> 0.24587393E+05</totfact>
</mgrwt>
</event>
<event>
 4    1  0.1474645E+004  0.3186590E+02  0.7546771E-02  0.1578334E+00
         -2   -1    0    0    0  501 -0.00000000000E+00  0.00000000000E+00  0.17603277400E+01  0.17603277400E+01  0.00000000000E+00 0. -1.
          2   -1    0    0  501    0  0.00000000000E+00 -0.00000000000E+00 -0.67060665285E+03  0.67060665285E+03  0.00000000000E+00 0.  1.
          2    1    1    2  502    0  0.17220684363E+02  0.26812003516E+02 -0.46012918088E+03  0.46123128536E+03  0.00000000000E+00 0.  1.
         -2    1    1    2    0  502 -0.17220684363E+02 -0.26812003516E+02 -0.20871714424E+03  0.21113569523E+03  0.00000000000E+00 0. -1.
<mgrwt>
<rscale>  2 0.31865899E+02</rscale>
<asrwt>0</asrwt>
<pdfrwt beam="2">  1        2 0.10317024E+00 0.31865899E+02</pdfrwt>
<pdfrwt beam="1">  1       -2 0.27081969E-03 0.31865899E+02</pdfrwt>
<totfact> 0.41267325E+05</totfact>
</mgrwt>
</event>
<event>
 4    1  0.1474645E+004  0.2054744E+02  0.7546771E-02  0.1734656E+00
         -2   -1    0    0    0  501 -0.00000000000E+00  0.00000000000E+00  0.10724163136E+02  0.10724163136E+02  0.00000000000E+00 0. -1.
          2   -1    0    0  501    0  0.00000000000E+00 -0.00000000000E+00 -0.10924219578E+04  0.10924219578E+04  0.00000000000E+00 0. -1.
          2    1    1    2  502    0  0.19652196670E+02  0.59990523416E+01 -0.10823919427E+04  0.10825869550E+04  0.00000000000E+00 0. -1.
         -2    1    1    2    0  502 -0.19652196670E+02 -0.59990523416E+01  0.69414804908E+00  0.20559165948E+02  0.00000000000E+00 0. -1.
<mgrwt>
<rscale>  2 0.20547444E+02</rscale>
<asrwt>0</asrwt>
<pdfrwt beam="2">  1        2 0.16806485E+00 0.20547444E+02</pdfrwt>
<pdfrwt beam="1">  1       -2 0.16498719E-02 0.20547444E+02</pdfrwt>
<totfact> 0.18509793E+04</totfact>
</mgrwt>
</event>
<event>
 4    1  0.1474645E+004  0.2215632E+02  0.7546771E-02  0.1705562E+00
          2   -1    0    0  501    0  0.00000000000E+00  0.00000000000E+00  0.60894712152E+03  0.60894712152E+03  0.00000000000E+00 0. -1.
         -2   -1    0    0    0  501 -0.00000000000E+00 -0.00000000000E+00 -0.26131583822E+01  0.26131583822E+01  0.00000000000E+00 0.  1.
          2    1    1    2  502    0 -0.20498936068E+02  0.84081067824E+01  0.55744364758E+03  0.55788378975E+03  0.00000000000E+00 0. -1.
         -2    1    1    2    0  502  0.20498936068E+02 -0.84081067824E+01  0.48890315556E+02  0.53676490150E+02  0.00000000000E+00 0.  1.
<mgrwt>
<rscale>  2 0.22156323E+02</rscale>
<asrwt>0</asrwt>
<pdfrwt beam="1">  1        2 0.93684060E-01 0.22156323E+02</pdfrwt>
<pdfrwt beam="2">  1       -2 0.40202485E-03 0.22156323E+02</pdfrwt>
<totfact> 0.24546148E+05</totfact>
</mgrwt>
</event>
<event>
 4    1  0.1474645E+004  0.2138212E+02  0.7546771E-02  0.1719162E+00
          2   -1    0    0  501    0  0.00000000000E+00  0.00000000000E+00  0.13962442115E+04  0.13962442115E+04  0.00000000000E+00 0.  1.
         -2   -1    0    0    0  501 -0.00000000000E+00 -0.00000000000E+00 -0.10283048610E+01  0.10283048610E+01  0.00000000000E+00 0. -1.
          2    1    1    2  502    0  0.47687717940E+01 -0.20843554630E+02  0.12743815596E+04  0.12745609262E+04  0.00000000000E+00 0.  1.
         -2    1    1    2    0  502 -0.47687717940E+01  0.20843554630E+02  0.12083434703E+03  0.12271159022E+03  0.00000000000E+00 0. -1.
<mgrwt>
<rscale>  2 0.21382118E+02</rscale>
<asrwt>0</asrwt>
<pdfrwt beam="1">  1        2 0.21480528E+00 0.21382118E+02</pdfrwt>
<pdfrwt beam="2">  1       -2 0.15820187E-03 0.21382118E+02</pdfrwt>
<totfact> 0.30281876E+05</totfact>
</mgrwt>
</event>
<event>
 4    1  0.1474645E+004  0.2412772E+02  0.7546771E-02  0.1673856E+00
         -2   -1    0    0    0  501 -0.00000000000E+00  0.00000000000E+00  0.36422511076E+02  0.36422511076E+02  0.00000000000E+00 0.  1.
          2   -1    0    0  501    0  0.00000000000E+00 -0.00000000000E+00 -0.12494881384E+03  0.12494881384E+03  0.00000000000E+00 0.  1.
          2    1    1    2  502    0  0.19477045117E+02 -0.14240495405E+02 -0.11961173714E+03  0.12202095991E+03  0.00000000000E+00 0.  1.
         -2    1    1    2    0  502 -0.19477045117E+02  0.14240495405E+02  0.31085434375E+02  0.39350365007E+02  0.00000000000E+00 0.  1.
<mgrwt>
<rscale>  2 0.24127723E+02</rscale>
<asrwt>0</asrwt>
<pdfrwt beam="2">  1        2 0.19222895E-01 0.24127723E+02</pdfrwt>
<pdfrwt beam="1">  1       -2 0.56034632E-02 0.24127723E+02</pdfrwt>
<totfact> 0.33602824E+04</totfact>
</mgrwt>
</event>
<event>
 4    1  0.1474645E+004  0.2393235E+02  0.7546771E-02  0.1676828E+00
          2   -1    0    0  501    0  0.00000000000E+00  0.00000000000E+00  0.18216059776E+03  0.18216059776E+03  0.00000000000E+00 0.  1.
         -2   -1    0    0    0  501 -0.00000000000E+00 -0.00000000000E+00 -0.10771668213E+02  0.10771668213E+02  0.00000000000E+00 0. -1.
          2    1    1    2  502    0 -0.22994083589E+02 -0.66354595250E+01  0.16686947679E+03  0.16857692454E+03  0.00000000000E+00 0.  1.
         -2    1    1    2    0  502  0.22994083589E+02  0.66354595250E+01  0.45194527599E+01  0.24355341436E+02  0.00000000000E+00 0. -1.
<mgrwt>
<rscale>  2 0.23932346E+02</rscale>
<asrwt>0</asrwt>
<pdfrwt beam="1">  1        2 0.28024705E-01 0.23932346E+02</pdfrwt>
<pdfrwt beam="2">  1       -2 0.16571799E-02 0.23932346E+02</pdfrwt>
<totfact> 0.12382825E+05</totfact>
</mgrwt>
</event>
<event>
 4    1  0.1474645E+004  0.2567000E+02  0.7546771E-02  0.1651561E+00
         -2   -1    0    0    0  501 -0.00000000000E+00  0.00000000000E+00  0.60997603119E+01  0.60997603119E+01  0.00000000000E+00 0.  1.
          2   -1    0    0  501    0  0.00000000000E+00 -0.00000000000E+00 -0.27147553817E+03  0.27147553817E+03  0.00000000000E+00 0.  1.
          2    1    1    2  502    0  0.25561492550E+02  0.23576994351E+01 -0.24037750918E+03  0.24174427722E+03  0.00000000000E+00 0.  1.
         -2    1    1    2    0  502 -0.25561492550E+02 -0.23576994351E+01 -0.24998268681E+02  0.35831021267E+02  0.00000000000E+00 0.  1.
<mgrwt>
<rscale>  2 0.25669995E+02</rscale>
<asrwt>0</asrwt>
<pdfrwt beam="2">  1        2 0.41765471E-01 0.25669995E+02</pdfrwt>
<pdfrwt beam="1">  1       -2 0.93842458E-03 0.25669995E+02</pdfrwt>
<totfact> 0.18301350E+05</totfact>
</mgrwt>
</event>
