<event>
 4    1  0.2677450E+004  0.2025198E+02  0.7546771E-02  0.1740363E+00
         21   -1    0    0  503  502  0.00000000000E+00  0.00000000000E+00  0.76179764037E+01  0.76179764037E+01  0.00000000000E+00 0.  1.
         21   -1    0    0  501  503 -0.00000000000E+00 -0.00000000000E+00 -0.70109784352E+02  0.70109784352E+02  0.00000000000E+00 0. -1.
          2    1    1    2  501    0 -0.82092241248E+01  0.18513545250E+02 -0.49968399714E+02  0.53916451000E+02  0.00000000000E+00 0. -1.
         -2    1    1    2    0  502  0.82092241248E+01 -0.18513545250E+02 -0.12523408234E+02  0.23811309756E+02  0.00000000000E+00 0.  1.
<mgrwt>
<rscale>  2 0.20251981E+02</rscale>
<asrwt>0</asrwt>
<pdfrwt beam="1">  1       21 0.11719963E-02 0.20251981E+02</pdfrwt>
<pdfrwt beam="2">  1       21 0.10786121E-01 0.20251981E+02</pdfrwt>
<totfact> 0.13347142E+08</totfact>
</mgrwt>
</event>
<event>
 4    1  0.2677450E+004  0.2412222E+02  0.7546771E-02  0.1673939E+00
         21   -1    0    0  503  502  0.00000000000E+00  0.00000000000E+00  0.72898314188E+01  0.72898314188E+01  0.00000000000E+00 0. -1.
         21   -1    0    0  501  503 -0.00000000000E+00 -0.00000000000E+00 -0.83382546730E+02  0.83382546730E+02  0.00000000000E+00 0.  1.
          2    1    1    2  501    0 -0.94917347407E+01  0.22176306347E+02 -0.47416088354E+02  0.53199314153E+02  0.00000000000E+00 0. -1.
         -2    1    1    2    0  502  0.94917347407E+01 -0.22176306347E+02 -0.28676626958E+02  0.37473063996E+02  0.00000000000E+00 0.  1.
<mgrwt>
<rscale>  2 0.24122222E+02</rscale>
<asrwt>0</asrwt>
<pdfrwt beam="1">  1       21 0.11215125E-02 0.24122222E+02</pdfrwt>
<pdfrwt beam="2">  1       21 0.12828084E-01 0.24122222E+02</pdfrwt>
<totfact> 0.11239730E+08</totfact>
</mgrwt>
</event>
<event>
 4    1  0.2677450E+004  0.2075856E+02  0.7546771E-02  0.1730651E+00
         21   -1    0    0  501  502  0.00000000000E+00  0.00000000000E+00  0.42575316119E+01  0.42575316119E+01  0.00000000000E+00 0.  1.
         21   -1    0    0  502  503 -0.00000000000E+00 -0.00000000000E+00 -0.13971600157E+03  0.13971600157E+03  0.00000000000E+00 0. -1.
          2    1    1    2  501    0  0.15950100369E+02 -0.13285791541E+02 -0.29939282917E+02  0.36431835257E+02  0.00000000000E+00 0.  1.
         -2    1    1    2    0  503 -0.15950100369E+02  0.13285791541E+02 -0.10551918704E+03  0.10754169793E+03  0.00000000000E+00 0. -1.
<mgrwt>
<rscale>  2 0.20758564E+02</rscale>
<asrwt>0</asrwt>
<pdfrwt beam="1">  1       21 0.65500495E-03 0.20758564E+02</pdfrwt>
<pdfrwt beam="2">  1       21 0.21494767E-01 0.20758564E+02</pdfrwt>
<totfact> 0.99246773E+07</totfact>
</mgrwt>
</event>
<event>
 4    1  0.2677450E+004  0.3911350E+02  0.7546771E-02  0.1514838E+00
         21   -1    0    0  501  502  0.00000000000E+00  0.00000000000E+00  0.85532065568E+02  0.85532065568E+02  0.00000000000E+00 0. -1.
         21   -1    0    0  502  503 -0.00000000000E+00 -0.00000000000E+00 -0.18687476551E+02  0.18687476551E+02  0.00000000000E+00 0.  1.
          2    1    1    2  501    0  0.23283179128E+01 -0.39044144266E+02  0.22633738420E+02  0.45190180135E+02  0.00000000000E+00 0.  1.
         -2    1    1    2    0  503 -0.23283179128E+01  0.39044144266E+02  0.44210850597E+02  0.59029361984E+02  0.00000000000E+00 0. -1.
<mgrwt>
<rscale>  2 0.39113505E+02</rscale>
<asrwt>0</asrwt>
<pdfrwt beam="1">  1       21 0.13158779E-01 0.39113505E+02</pdfrwt>
<pdfrwt beam="2">  1       21 0.28749965E-02 0.39113505E+02</pdfrwt>
<totfact> 0.27970599E+07</totfact>
</mgrwt>
</event>
<event>
 4    1  0.2677450E+004  0.2897604E+02  0.7546771E-02  0.1609691E+00
         21   -1    0    0  501  502  0.00000000000E+00  0.00000000000E+00  0.31287970740E+02  0.31287970740E+02  0.00000000000E+00 0.  1.
         21   -1    0    0  502  503 -0.00000000000E+00 -0.00000000000E+00 -0.11655136908E+03  0.11655136908E+03  0.00000000000E+00 0. -1.
          2    1    1    2  501    0 -0.26789610290E+02 -0.11042083716E+02  0.22222383035E+02  0.36516368111E+02  0.00000000000E+00 0.  1.
         -2    1    1    2    0  503  0.26789610290E+02  0.11042083716E+02 -0.10748578138E+03  0.11132297171E+03  0.00000000000E+00 0. -1.
<mgrwt>
<rscale>  2 0.28976039E+02</rscale>
<asrwt>0</asrwt>
<pdfrwt beam="1">  1       21 0.48135339E-02 0.28976039E+02</pdfrwt>
<pdfrwt beam="2">  1       21 0.17930980E-01 0.28976039E+02</pdfrwt>
<totfact> 0.68597767E+06</totfact>
</mgrwt>
</event>
<event>
 4    1  0.2677450E+004  0.4355281E+02  0.7546771E-02  0.1483584E+00
         21   -1    0    0  501  502  0.00000000000E+00  0.00000000000E+00  0.35078687547E+01  0.35078687547E+01  0.00000000000E+00 0.  1.
         21   -1    0    0  502  503 -0.00000000000E+00 -0.00000000000E+00 -0.11096626124E+04  0.11096626124E+04  0.00000000000E+00 0. -1.
          2    1    1    2  501    0 -0.43550357719E+02 -0.46264062487E+00 -0.15454600557E+03  0.16056561130E+03  0.00000000000E+00 0.  1.
         -2    1    1    2    0  503  0.43550357719E+02  0.46264062487E+00 -0.95160873812E+03  0.95260486990E+03  0.00000000000E+00 0. -1.
<mgrwt>
<rscale>  2 0.43552815E+02</rscale>
<asrwt>0</asrwt>
<pdfrwt beam="1">  1       21 0.53967192E-03 0.43552815E+02</pdfrwt>
<pdfrwt beam="2">  1       21 0.17071739E+00 0.43552815E+02</pdfrwt>
<totfact> 0.20835376E+06</totfact>
</mgrwt>
</event>
<event>
 4    1  0.2677450E+004  0.3864367E+02  0.7546771E-02  0.1518437E+00
         21   -1    0    0  503  502  0.00000000000E+00  0.00000000000E+00  0.69341446601E+03  0.69341446601E+03  0.00000000000E+00 0. -1.
         21   -1    0    0  501  503 -0.00000000000E+00 -0.00000000000E+00 -0.23734578377E+01  0.23734578377E+01  0.00000000000E+00 0.  1.
          2    1    1    2  501    0 -0.29294325096E+02 -0.25202690313E+02  0.23963579476E+03  0.24273163620E+03  0.00000000000E+00 0.  1.
         -2    1    1    2    0  502  0.29294325096E+02  0.25202690313E+02  0.45140521341E+03  0.45305628765E+03  0.00000000000E+00 0. -1.
<mgrwt>
<rscale>  2 0.38643668E+02</rscale>
<asrwt>0</asrwt>
<pdfrwt beam="1">  1       21 0.10667899E+00 0.38643668E+02</pdfrwt>
<pdfrwt beam="2">  1       21 0.36514791E-03 0.38643668E+02</pdfrwt>
<totfact> 0.11432827E+07</totfact>
</mgrwt>
</event>
<event>
 4    1  0.2677450E+004  0.4308080E+02  0.7546771E-02  0.1486691E+00
         21   -1    0    0  503  502  0.00000000000E+00  0.00000000000E+00  0.17147210968E+03  0.17147210968E+03  0.00000000000E+00 0.  1.
         21   -1    0    0  501  503 -0.00000000000E+00 -0.00000000000E+00 -0.29624384444E+02  0.29624384444E+02  0.00000000000E+00 0. -1.
          2    1    1    2  501    0  0.41561049253E+02  0.11341712488E+02 -0.91769949485E+01  0.44047389179E+02  0.00000000000E+00 0. -1.
         -2    1    1    2    0  502 -0.41561049253E+02 -0.11341712488E+02  0.15102472018E+03  0.15704910494E+03  0.00000000000E+00 0.  1.
<mgrwt>
<rscale>  2 0.43080799E+02</rscale>
<asrwt>0</asrwt>
<pdfrwt beam="1">  1       21 0.26380324E-01 0.43080799E+02</pdfrwt>
<pdfrwt beam="2">  1       21 0.45575977E-02 0.43080799E+02</pdfrwt>
<totfact> 0.39411807E+06</totfact>
</mgrwt>
</event>
<event>
 4    1  0.2677450E+004  0.2851864E+02  0.7546771E-02  0.1615065E+00
         21   -1    0    0  501  502  0.00000000000E+00  0.00000000000E+00  0.86425572973E+03  0.86425572973E+03  0.00000000000E+00 0. -1.
         21   -1    0    0  502  503 -0.00000000000E+00 -0.00000000000E+00 -0.12582942721E+01  0.12582942721E+01  0.00000000000E+00 0.  1.
          2    1    1    2  501    0  0.12926201156E+02  0.25420974067E+02  0.64879192037E+03  0.64941840792E+03  0.00000000000E+00 0. -1.
         -2    1    1    2    0  503 -0.12926201156E+02 -0.25420974067E+02  0.21420551509E+03  0.21609561609E+03  0.00000000000E+00 0.  1.
<mgrwt>
<rscale>  2 0.28518636E+02</rscale>
<asrwt>0</asrwt>
<pdfrwt beam="1">  1       21 0.13296195E+00 0.28518636E+02</pdfrwt>
<pdfrwt beam="2">  1       21 0.19358442E-03 0.28518636E+02</pdfrwt>
<totfact> 0.16818153E+07</totfact>
</mgrwt>
</event>
<event>
 4    1  0.2677450E+004  0.2269472E+02  0.7546771E-02  0.1696507E+00
         21   -1    0    0  503  502  0.00000000000E+00  0.00000000000E+00  0.43080214131E+03  0.43080214131E+03  0.00000000000E+00 0. -1.
         21   -1    0    0  501  503 -0.00000000000E+00 -0.00000000000E+00 -0.25163941321E+01  0.25163941321E+01  0.00000000000E+00 0.  1.
          2    1    1    2  501    0 -0.64282444051E+01 -0.21765295428E+02  0.57174611297E+02  0.61514116983E+02  0.00000000000E+00 0.  1.
         -2    1    1    2    0  502  0.64282444051E+01  0.21765295428E+02  0.37111113588E+03  0.37180441846E+03  0.00000000000E+00 0. -1.
<mgrwt>
<rscale>  2 0.22694722E+02</rscale>
<asrwt>0</asrwt>
<pdfrwt beam="1">  1       21 0.66277194E-01 0.22694722E+02</pdfrwt>
<pdfrwt beam="2">  1       21 0.38713790E-03 0.22694722E+02</pdfrwt>
<totfact> 0.26694729E+07</totfact>
</mgrwt>
</event>
<event>
 4    1  0.2677450E+004  0.4660151E+02  0.7546771E-02  0.1464584E+00
         21   -1    0    0  503  502  0.00000000000E+00  0.00000000000E+00  0.19933190959E+03  0.19933190959E+03  0.00000000000E+00 0.  1.
         21   -1    0    0  501  503 -0.00000000000E+00 -0.00000000000E+00 -0.20248946689E+02  0.20248946689E+02  0.00000000000E+00 0. -1.
          2    1    1    2  501    0 -0.24396617775E+02  0.39705236368E+02  0.14920134963E+02  0.48931699145E+02  0.00000000000E+00 0. -1.
         -2    1    1    2    0  502  0.24396617775E+02 -0.39705236368E+02  0.16416282794E+03  0.17064915713E+03  0.00000000000E+00 0.  1.
<mgrwt>
<rscale>  2 0.46601510E+02</rscale>
<asrwt>0</asrwt>
<pdfrwt beam="1">  1       21 0.30666446E-01 0.46601510E+02</pdfrwt>
<pdfrwt beam="2">  1       21 0.31152227E-02 0.46601510E+02</pdfrwt>
<totfact> 0.55396717E+06</totfact>
</mgrwt>
</event>
<event>
 4    1  0.2677450E+004  0.3361114E+02  0.7546771E-02  0.1561291E+00
         21   -1    0    0  503  502  0.00000000000E+00  0.00000000000E+00  0.10633372669E+04  0.10633372669E+04  0.00000000000E+00 0. -1.
         21   -1    0    0  501  503 -0.00000000000E+00 -0.00000000000E+00 -0.15689419441E+01  0.15689419441E+01  0.00000000000E+00 0.  1.
          2    1    1    2  501    0  0.31286149397E+02 -0.12283557735E+02  0.22834764538E+03  0.23080805030E+03  0.00000000000E+00 0.  1.
         -2    1    1    2    0  502 -0.31286149397E+02  0.12283557735E+02  0.83342067954E+03  0.83409815850E+03  0.00000000000E+00 0. -1.
<mgrwt>
<rscale>  2 0.33611143E+02</rscale>
<asrwt>0</asrwt>
<pdfrwt beam="1">  1       21 0.16358977E+00 0.33611143E+02</pdfrwt>
<pdfrwt beam="2">  1       21 0.24137653E-03 0.33611143E+02</pdfrwt>
<totfact> 0.75479690E+06</totfact>
</mgrwt>
</event>
<event>
 4    1  0.2677450E+004  0.2066764E+02  0.7546771E-02  0.1732368E+00
         21   -1    0    0  503  502  0.00000000000E+00  0.00000000000E+00  0.18636655423E+02  0.18636655423E+02  0.00000000000E+00 0. -1.
         21   -1    0    0  501  503 -0.00000000000E+00 -0.00000000000E+00 -0.56877841458E+02  0.56877841458E+02  0.00000000000E+00 0.  1.
          2    1    1    2  501    0  0.17117660933E+02 -0.11581757436E+02 -0.48294800686E+02  0.52531316321E+02  0.00000000000E+00 0.  1.
         -2    1    1    2    0  502 -0.17117660933E+02  0.11581757436E+02  0.10053614651E+02  0.22983180560E+02  0.00000000000E+00 0. -1.
<mgrwt>
<rscale>  2 0.20667642E+02</rscale>
<asrwt>0</asrwt>
<pdfrwt beam="1">  1       21 0.28671778E-02 0.20667642E+02</pdfrwt>
<pdfrwt beam="2">  1       21 0.87504370E-02 0.20667642E+02</pdfrwt>
<totfact> 0.48433434E+07</totfact>
</mgrwt>
</event>
<event>
 4    1  0.2677450E+004  0.2296912E+02  0.7546771E-02  0.1692011E+00
         21   -1    0    0  503  502  0.00000000000E+00  0.00000000000E+00  0.23500827243E+03  0.23500827243E+03  0.00000000000E+00 0.  1.
         21   -1    0    0  501  503 -0.00000000000E+00 -0.00000000000E+00 -0.37075431605E+01  0.37075431605E+01  0.00000000000E+00 0. -1.
          2    1    1    2  501    0 -0.12158732375E+01 -0.22936919066E+02  0.40683278998E+02  0.46719479813E+02  0.00000000000E+00 0. -1.
         -2    1    1    2    0  502  0.12158732375E+01  0.22936919066E+02  0.19061745027E+03  0.19199633578E+03  0.00000000000E+00 0.  1.
<mgrwt>
<rscale>  2 0.22969123E+02</rscale>
<asrwt>0</asrwt>
<pdfrwt beam="1">  1       21 0.36155107E-01 0.22969123E+02</pdfrwt>
<pdfrwt beam="2">  1       21 0.57039144E-03 0.22969123E+02</pdfrwt>
<totfact> 0.49016621E+07</totfact>
</mgrwt>
</event>
<event>
 4    1  0.2677450E+004  0.2460858E+02  0.7546771E-02  0.1666688E+00
         21   -1    0    0  503  502  0.00000000000E+00  0.00000000000E+00  0.64634772081E+00  0.64634772081E+00  0.00000000000E+00 0.  1.
         21   -1    0    0  501  503 -0.00000000000E+00 -0.00000000000E+00 -0.93694960648E+03  0.93694960648E+03  0.00000000000E+00 0. -1.
          2    1    1    2  501    0 -0.90107480566E+01  0.22899532158E+02 -0.47033109113E+03  0.47097443396E+03  0.00000000000E+00 0.  1.
         -2    1    1    2    0  502  0.90107480566E+01 -0.22899532158E+02 -0.46597216763E+03  0.46662152025E+03  0.00000000000E+00 0. -1.
<mgrwt>
<rscale>  2 0.24608579E+02</rscale>
<asrwt>0</asrwt>
<pdfrwt beam="1">  1       21 0.99438177E-04 0.24608579E+02</pdfrwt>
<pdfrwt beam="2">  1       21 0.14414600E+00 0.24608579E+02</pdfrwt>
<totfact> 0.35424040E+07</totfact>
</mgrwt>
</event>
<event>
 4    1  0.2677450E+004  0.2172973E+02  0.7546771E-02  0.1712968E+00
         21   -1    0    0  501  502  0.00000000000E+00  0.00000000000E+00  0.28101746027E+02  0.28101746027E+02  0.00000000000E+00 0. -1.
         21   -1    0    0  502  503 -0.00000000000E+00 -0.00000000000E+00 -0.21711515804E+02  0.21711515804E+02  0.00000000000E+00 0.  1.
          2    1    1    2  501    0 -0.45002527616E+00 -0.21725070585E+02  0.15038192483E+02  0.26425904863E+02  0.00000000000E+00 0. -1.
         -2    1    1    2    0  503  0.45002527616E+00  0.21725070585E+02 -0.86479622598E+01  0.23387356968E+02  0.00000000000E+00 0.  1.
<mgrwt>
<rscale>  2 0.21729731E+02</rscale>
<asrwt>0</asrwt>
<pdfrwt beam="1">  1       21 0.43233456E-02 0.21729731E+02</pdfrwt>
<pdfrwt beam="2">  1       21 0.33402332E-02 0.21729731E+02</pdfrwt>
<totfact> 0.12002939E+08</totfact>
</mgrwt>
</event>
<event>
 4    1  0.2677450E+004  0.2106177E+02  0.7546771E-02  0.1725002E+00
         21   -1    0    0  501  502  0.00000000000E+00  0.00000000000E+00  0.18674429381E+02  0.18674429381E+02  0.00000000000E+00 0. -1.
         21   -1    0    0  502  503 -0.00000000000E+00 -0.00000000000E+00 -0.29204257441E+02  0.29204257441E+02  0.00000000000E+00 0.  1.
          2    1    1    2  501    0  0.28300759887E+01  0.20870767984E+02  0.50766229800E+01  0.21664957587E+02  0.00000000000E+00 0. -1.
         -2    1    1    2    0  503 -0.28300759887E+01 -0.20870767984E+02 -0.15606451040E+02  0.26213729235E+02  0.00000000000E+00 0.  1.
<mgrwt>
<rscale>  2 0.21061773E+02</rscale>
<asrwt>0</asrwt>
<pdfrwt beam="1">  1       21 0.28729891E-02 0.21061773E+02</pdfrwt>
<pdfrwt beam="2">  1       21 0.44929627E-02 0.21061773E+02</pdfrwt>
<totfact> 0.14143453E+08</totfact>
</mgrwt>
</event>
<event>
 4    1  0.2677450E+004  0.2291960E+02  0.7546771E-02  0.1692817E+00
         21   -1    0    0  503  502  0.00000000000E+00  0.00000000000E+00  0.14692851598E+02  0.14692851598E+02  0.00000000000E+00 0. -1.
         21   -1    0    0  501  503 -0.00000000000E+00 -0.00000000000E+00 -0.54094306001E+02  0.54094306001E+02  0.00000000000E+00 0.  1.
          2    1    1    2  501    0  0.21262734533E+00 -0.22918614695E+02 -0.39727966258E+02  0.45865230980E+02  0.00000000000E+00 0.  1.
         -2    1    1    2    0  502 -0.21262734533E+00  0.22918614695E+02  0.32651185512E+00  0.22921926619E+02  0.00000000000E+00 0. -1.
<mgrwt>
<rscale>  2 0.22919601E+02</rscale>
<asrwt>0</asrwt>
<pdfrwt beam="1">  1       21 0.22604387E-02 0.22919601E+02</pdfrwt>
<pdfrwt beam="2">  1       21 0.83222010E-02 0.22919601E+02</pdfrwt>
<totfact> 0.78050195E+07</totfact>
</mgrwt>
</event>
<event>
 4    1  0.2677450E+004  0.2260392E+02  0.7546771E-02  0.1698012E+00
         21   -1    0    0  503  502  0.00000000000E+00  0.00000000000E+00  0.37342925765E+03  0.37342925765E+03  0.00000000000E+00 0.  1.
         21   -1    0    0  501  503 -0.00000000000E+00 -0.00000000000E+00 -0.23154574705E+01  0.23154574705E+01  0.00000000000E+00 0. -1.
          2    1    1    2  501    0  0.49252066445E+01  0.22060813165E+02  0.65393666114E+02  0.69190091096E+02  0.00000000000E+00 0. -1.
         -2    1    1    2    0  502 -0.49252066445E+01 -0.22060813165E+02  0.30572013407E+03  0.30655462403E+03  0.00000000000E+00 0.  1.
<mgrwt>
<rscale>  2 0.22603919E+02</rscale>
<asrwt>0</asrwt>
<pdfrwt beam="1">  1       21 0.57450607E-01 0.22603919E+02</pdfrwt>
<pdfrwt beam="2">  1       21 0.35622452E-03 0.22603919E+02</pdfrwt>
<totfact> 0.40134213E+07</totfact>
</mgrwt>
</event>
<event>
 4    1  0.2677450E+004  0.2598918E+02  0.7546771E-02  0.1647187E+00
         21   -1    0    0  503  502  0.00000000000E+00  0.00000000000E+00  0.13135831761E+04  0.13135831761E+04  0.00000000000E+00 0.  1.
         21   -1    0    0  501  503 -0.00000000000E+00 -0.00000000000E+00 -0.53838194694E+00  0.53838194694E+00  0.00000000000E+00 0. -1.
          2    1    1    2  501    0 -0.61245493775E+01  0.25257224703E+02  0.79579110157E+03  0.79621536963E+03  0.00000000000E+00 0. -1.
         -2    1    1    2    0  502  0.61245493775E+01 -0.25257224703E+02  0.51725369259E+03  0.51790618842E+03  0.00000000000E+00 0.  1.
<mgrwt>
<rscale>  2 0.25989181E+02</rscale>
<asrwt>0</asrwt>
<pdfrwt beam="1">  1       21 0.20208715E+00 0.25989181E+02</pdfrwt>
<pdfrwt beam="2">  1       21 0.82829043E-04 0.25989181E+02</pdfrwt>
<totfact> 0.20102103E+07</totfact>
</mgrwt>
</event>
<event>
 4    1  0.2677450E+004  0.3873584E+02  0.7546771E-02  0.1517726E+00
         21   -1    0    0  501  502  0.00000000000E+00  0.00000000000E+00  0.97417931642E+01  0.97417931642E+01  0.00000000000E+00 0.  1.
         21   -1    0    0  502  503 -0.00000000000E+00 -0.00000000000E+00 -0.13741551741E+04  0.13741551741E+04  0.00000000000E+00 0. -1.
          2    1    1    2  501    0 -0.22210852422E+02  0.31735527158E+02 -0.30189248674E+02  0.49110654494E+02  0.00000000000E+00 0.  1.
         -2    1    1    2    0  503  0.22210852422E+02 -0.31735527158E+02 -0.13342241323E+04  0.13347863128E+04  0.00000000000E+00 0. -1.
<mgrwt>
<rscale>  2 0.38735845E+02</rscale>
<asrwt>0</asrwt>
<pdfrwt beam="1">  1       21 0.14987375E-02 0.38735845E+02</pdfrwt>
<pdfrwt beam="2">  1       21 0.21140847E+00 0.38735845E+02</pdfrwt>
<totfact> 0.24911840E+05</totfact>
</mgrwt>
</event>
<event>
 4    1  0.2677450E+004  0.2004938E+02  0.7546771E-02  0.1744348E+00
         21   -1    0    0  503  502  0.00000000000E+00  0.00000000000E+00  0.12921698388E+01  0.12921698388E+01  0.00000000000E+00 0.  1.
         21   -1    0    0  501  503 -0.00000000000E+00 -0.00000000000E+00 -0.47967040101E+03  0.47967040101E+03  0.00000000000E+00 0. -1.
          2    1    1    2  501    0 -0.16674049849E+02  0.11133451099E+02 -0.38175538924E+03  0.38228151261E+03  0.00000000000E+00 0. -1.
         -2    1    1    2    0  502  0.16674049849E+02 -0.11133451099E+02 -0.96622841930E+02  0.98681058235E+02  0.00000000000E+00 0.  1.
<mgrwt>
<rscale>  2 0.20049381E+02</rscale>
<asrwt>0</asrwt>
<pdfrwt beam="1">  1       21 0.19879541E-03 0.20049381E+02</pdfrwt>
<pdfrwt beam="2">  1       21 0.73795427E-01 0.20049381E+02</pdfrwt>
<totfact> 0.54801892E+07</totfact>
</mgrwt>
</event>
<event>
 4    1  0.2677450E+004  0.2291017E+02  0.7546771E-02  0.1692970E+00
         21   -1    0    0  503  502  0.00000000000E+00  0.00000000000E+00  0.74514776587E+01  0.74514776587E+01  0.00000000000E+00 0. -1.
         21   -1    0    0  501  503 -0.00000000000E+00 -0.00000000000E+00 -0.44979919124E+03  0.44979919124E+03  0.00000000000E+00 0.  1.
          2    1    1    2  501    0  0.22812725731E+02 -0.21108256462E+01 -0.43113589910E+03  0.43174418298E+03  0.00000000000E+00 0.  1.
         -2    1    1    2    0  502 -0.22812725731E+02  0.21108256462E+01 -0.11211814480E+02  0.25506485922E+02  0.00000000000E+00 0. -1.
<mgrwt>
<rscale>  2 0.22910173E+02</rscale>
<asrwt>0</asrwt>
<pdfrwt beam="1">  1       21 0.11463808E-02 0.22910173E+02</pdfrwt>
<pdfrwt beam="2">  1       21 0.69199901E-01 0.22910173E+02</pdfrwt>
<totfact> 0.48818353E+06</totfact>
</mgrwt>
</event>
<event>
 4    1  0.2677450E+004  0.3484930E+02  0.7546771E-02  0.1549943E+00
         21   -1    0    0  501  502  0.00000000000E+00  0.00000000000E+00  0.20968021820E+03  0.20968021820E+03  0.00000000000E+00 0. -1.
         21   -1    0    0  502  503 -0.00000000000E+00 -0.00000000000E+00 -0.82646777104E+01  0.82646777104E+01  0.00000000000E+00 0.  1.
          2    1    1    2  501    0 -0.26617328208E+02  0.22494250205E+02  0.16031310686E+03  0.16405720248E+03  0.00000000000E+00 0. -1.
         -2    1    1    2    0  503  0.26617328208E+02 -0.22494250205E+02  0.41102433623E+02  0.53887693427E+02  0.00000000000E+00 0.  1.
<mgrwt>
<rscale>  2 0.34849296E+02</rscale>
<asrwt>0</asrwt>
<pdfrwt beam="1">  1       21 0.32258491E-01 0.34849296E+02</pdfrwt>
<pdfrwt beam="2">  1       21 0.12714890E-02 0.34849296E+02</pdfrwt>
<totfact> 0.19706676E+07</totfact>
</mgrwt>
</event>
<event>
 4    1  0.2677450E+004  0.2013052E+02  0.7546771E-02  0.1742745E+00
         21   -1    0    0  503  502  0.00000000000E+00  0.00000000000E+00  0.49832498714E+02  0.49832498714E+02  0.00000000000E+00 0.  1.
         21   -1    0    0  501  503 -0.00000000000E+00 -0.00000000000E+00 -0.30028316176E+02  0.30028316176E+02  0.00000000000E+00 0. -1.
          2    1    1    2  501    0  0.10222909452E+02  0.17341562794E+02 -0.24195509349E+02  0.31474757354E+02  0.00000000000E+00 0. -1.
         -2    1    1    2    0  502 -0.10222909452E+02 -0.17341562794E+02  0.43999691887E+02  0.48386057536E+02  0.00000000000E+00 0.  1.
<mgrwt>
<rscale>  2 0.20130516E+02</rscale>
<asrwt>0</asrwt>
<pdfrwt beam="1">  1       21 0.76665382E-02 0.20130516E+02</pdfrwt>
<pdfrwt beam="2">  1       21 0.46197410E-02 0.20130516E+02</pdfrwt>
<totfact> 0.28308481E+07</totfact>
</mgrwt>
</event>
<event>
 4    1  0.2677450E+004  0.2229589E+02  0.7546771E-02  0.1703184E+00
         21   -1    0    0  501  502  0.00000000000E+00  0.00000000000E+00  0.17479905207E+03  0.17479905207E+03  0.00000000000E+00 0.  1.
         21   -1    0    0  502  503 -0.00000000000E+00 -0.00000000000E+00 -0.74426919853E+01  0.74426919853E+01  0.00000000000E+00 0. -1.
          2    1    1    2  501    0 -0.76236113033E+01  0.20952021270E+02  0.15530503960E+03  0.15689729753E+03  0.00000000000E+00 0.  1.
         -2    1    1    2    0  503  0.76236113033E+01 -0.20952021270E+02  0.12051320483E+02  0.25344446531E+02  0.00000000000E+00 0. -1.
<mgrwt>
<rscale>  2 0.22295889E+02</rscale>
<asrwt>0</asrwt>
<pdfrwt beam="1">  1       21 0.26892159E-01 0.22295889E+02</pdfrwt>
<pdfrwt beam="2">  1       21 0.11450297E-02 0.22295889E+02</pdfrwt>
<totfact> 0.29534456E+07</totfact>
</mgrwt>
</event>
<event>
 4    1  0.2677450E+004  0.2988445E+02  0.7546771E-02  0.1599369E+00
         21   -1    0    0  501  502  0.00000000000E+00  0.00000000000E+00  0.19815457099E+03  0.19815457099E+03  0.00000000000E+00 0.  1.
         21   -1    0    0  502  503 -0.00000000000E+00 -0.00000000000E+00 -0.80409091243E+01  0.80409091243E+01  0.00000000000E+00 0. -1.
          2    1    1    2  501    0 -0.22313687335E+02  0.19879131916E+02  0.16340469005E+03  0.16611493991E+03  0.00000000000E+00 0.  1.
         -2    1    1    2    0  503  0.22313687335E+02 -0.19879131916E+02  0.26708971814E+02  0.40080540211E+02  0.00000000000E+00 0. -1.
<mgrwt>
<rscale>  2 0.29884453E+02</rscale>
<asrwt>0</asrwt>
<pdfrwt beam="1">  1       21 0.30485315E-01 0.29884453E+02</pdfrwt>
<pdfrwt beam="2">  1       21 0.12370631E-02 0.29884453E+02</pdfrwt>
<totfact> 0.22222094E+07</totfact>
</mgrwt>
</event>
<event>
 4    1  0.2677450E+004  0.2600442E+02  0.7546771E-02  0.1646981E+00
         21   -1    0    0  501  502  0.00000000000E+00  0.00000000000E+00  0.31883136648E+03  0.31883136648E+03  0.00000000000E+00 0. -1.
         21   -1    0    0  502  503 -0.00000000000E+00 -0.00000000000E+00 -0.55397097681E+01  0.55397097681E+01  0.00000000000E+00 0.  1.
          2    1    1    2  501    0 -0.80818039347E+01 -0.24716678024E+02  0.28405539765E+03  0.28524322720E+03  0.00000000000E+00 0. -1.
         -2    1    1    2    0  503  0.80818039347E+01  0.24716678024E+02  0.29236259058E+02  0.39127849048E+02  0.00000000000E+00 0.  1.
<mgrwt>
<rscale>  2 0.26004417E+02</rscale>
<asrwt>0</asrwt>
<pdfrwt beam="1">  1       21 0.49050965E-01 0.26004417E+02</pdfrwt>
<pdfrwt beam="2">  1       21 0.85226329E-03 0.26004417E+02</pdfrwt>
<totfact> 0.15474630E+07</totfact>
</mgrwt>
</event>
<event>
 4    1  0.2677450E+004  0.2285760E+02  0.7546771E-02  0.1693829E+00
         21   -1    0    0  501  502  0.00000000000E+00  0.00000000000E+00  0.49925023767E+03  0.49925023767E+03  0.00000000000E+00 0. -1.
         21   -1    0    0  502  503 -0.00000000000E+00 -0.00000000000E+00 -0.41160352993E+01  0.41160352993E+01  0.00000000000E+00 0.  1.
          2    1    1    2  501    0  0.55127456799E+01  0.22182870048E+02  0.46491238465E+03  0.46547394716E+03  0.00000000000E+00 0. -1.
         -2    1    1    2    0  503 -0.55127456799E+01 -0.22182870048E+02  0.30221817721E+02  0.37892325805E+02  0.00000000000E+00 0.  1.
<mgrwt>
<rscale>  2 0.22857605E+02</rscale>
<asrwt>0</asrwt>
<pdfrwt beam="1">  1       21 0.76807681E-01 0.22857605E+02</pdfrwt>
<pdfrwt beam="2">  1       21 0.63323659E-03 0.22857605E+02</pdfrwt>
<totfact> 0.95572434E+06</totfact>
</mgrwt>
</event>
<event>
 4    1  0.2677450E+004  0.2602859E+02  0.7546771E-02  0.1646653E+00
         21   -1    0    0  503  502  0.00000000000E+00  0.00000000000E+00  0.79011695864E+01  0.79011695864E+01  0.00000000000E+00 0. -1.
         21   -1    0    0  501  503 -0.00000000000E+00 -0.00000000000E+00 -0.10559117758E+03  0.10559117758E+03  0.00000000000E+00 0.  1.
          2    1    1    2  501    0  0.24818819656E+02  0.78430528338E+01 -0.73446364433E+02  0.77922113263E+02  0.00000000000E+00 0.  1.
         -2    1    1    2    0  502 -0.24818819656E+02 -0.78430528338E+01 -0.24243643559E+02  0.35570233903E+02  0.00000000000E+00 0. -1.
<mgrwt>
<rscale>  2 0.26028586E+02</rscale>
<asrwt>0</asrwt>
<pdfrwt beam="1">  1       21 0.12155646E-02 0.26028586E+02</pdfrwt>
<pdfrwt beam="2">  1       21 0.16244796E-01 0.26028586E+02</pdfrwt>
<totfact> 0.67859892E+07</totfact>
</mgrwt>
</event>
<event>
 4    1  0.2677450E+004  0.3554645E+02  0.7546771E-02  0.1543801E+00
         21   -1    0    0  501  502  0.00000000000E+00  0.00000000000E+00  0.20348138559E+03  0.20348138559E+03  0.00000000000E+00 0. -1.
         21   -1    0    0  502  503 -0.00000000000E+00 -0.00000000000E+00 -0.63781815476E+01  0.63781815476E+01  0.00000000000E+00 0.  1.
          2    1    1    2  501    0  0.26118021205E+02 -0.24112215939E+02  0.11560769383E+03  0.12094911683E+03  0.00000000000E+00 0.  1.
         -2    1    1    2    0  503 -0.26118021205E+02  0.24112215939E+02  0.81495510211E+02  0.88910450307E+02  0.00000000000E+00 0. -1.
<mgrwt>
<rscale>  2 0.35546448E+02</rscale>
<asrwt>0</asrwt>
<pdfrwt beam="1">  1       21 0.31304824E-01 0.35546448E+02</pdfrwt>
<pdfrwt beam="2">  1       21 0.98125885E-03 0.35546448E+02</pdfrwt>
<totfact> 0.31072173E+07</totfact>
</mgrwt>
</event>
<event>
 4    1  0.2677450E+004  0.3778535E+02  0.7546771E-02  0.1525171E+00
         21   -1    0    0  501  502  0.00000000000E+00  0.00000000000E+00  0.10450829171E+03  0.10450829171E+03  0.00000000000E+00 0.  1.
         21   -1    0    0  502  503 -0.00000000000E+00 -0.00000000000E+00 -0.14297534519E+02  0.14297534519E+02  0.00000000000E+00 0. -1.
          2    1    1    2  501    0  0.23685762515E+02 -0.29440059538E+02  0.57635124279E+02  0.68916906505E+02  0.00000000000E+00 0. -1.
         -2    1    1    2    0  503 -0.23685762515E+02  0.29440059538E+02  0.32575632909E+02  0.49888919721E+02  0.00000000000E+00 0.  1.
<mgrwt>
<rscale>  2 0.37785347E+02</rscale>
<asrwt>0</asrwt>
<pdfrwt beam="1">  1       21 0.16078198E-01 0.37785347E+02</pdfrwt>
<pdfrwt beam="2">  1       21 0.21996208E-02 0.37785347E+02</pdfrwt>
<totfact> 0.29951898E+07</totfact>
</mgrwt>
</event>
<event>
 4    1  0.2677450E+004  0.2464238E+02  0.7546771E-02  0.1666192E+00
         21   -1    0    0  501  502  0.00000000000E+00  0.00000000000E+00  0.12749088708E+04  0.12749088708E+04  0.00000000000E+00 0.  1.
         21   -1    0    0  502  503 -0.00000000000E+00 -0.00000000000E+00 -0.25452459519E+01  0.25452459519E+01  0.00000000000E+00 0. -1.
          2    1    1    2  501    0  0.23088505696E+02  0.86120596606E+01  0.12120517219E+04  0.12123021997E+04  0.00000000000E+00 0.  1.
         -2    1    1    2    0  503 -0.23088505696E+02 -0.86120596606E+01  0.60311902888E+02  0.65151917062E+02  0.00000000000E+00 0. -1.
<mgrwt>
<rscale>  2 0.24642375E+02</rscale>
<asrwt>0</asrwt>
<pdfrwt beam="1">  1       21 0.19613932E+00 0.24642375E+02</pdfrwt>
<pdfrwt beam="2">  1       21 0.39157732E-03 0.24642375E+02</pdfrwt>
<totfact> 0.22872666E+06</totfact>
</mgrwt>
</event>
<event>
 4    1  0.2677450E+004  0.2108191E+02  0.7546771E-02  0.1724631E+00
         21   -1    0    0  503  502  0.00000000000E+00  0.00000000000E+00  0.11532130259E+01  0.11532130259E+01  0.00000000000E+00 0.  1.
         21   -1    0    0  501  503 -0.00000000000E+00 -0.00000000000E+00 -0.40272371531E+03  0.40272371531E+03  0.00000000000E+00 0. -1.
          2    1    1    2  501    0 -0.15650278746E+02  0.14125007053E+02 -0.24266938741E+03  0.24358341207E+03  0.00000000000E+00 0.  1.
         -2    1    1    2    0  502  0.15650278746E+02 -0.14125007053E+02 -0.15890111488E+03  0.16029351627E+03  0.00000000000E+00 0. -1.
<mgrwt>
<rscale>  2 0.21081913E+02</rscale>
<asrwt>0</asrwt>
<pdfrwt beam="1">  1       21 0.17741703E-03 0.21081913E+02</pdfrwt>
<pdfrwt beam="2">  1       21 0.61957619E-01 0.21081913E+02</pdfrwt>
<totfact> 0.93185366E+07</totfact>
</mgrwt>
</event>
<event>
 4    1  0.2677450E+004  0.2027578E+02  0.7546771E-02  0.1739899E+00
         21   -1    0    0  501  502  0.00000000000E+00  0.00000000000E+00  0.19228013892E+01  0.19228013892E+01  0.00000000000E+00 0.  1.
         21   -1    0    0  502  503 -0.00000000000E+00 -0.00000000000E+00 -0.21655027855E+03  0.21655027855E+03  0.00000000000E+00 0. -1.
          2    1    1    2  501    0 -0.11474487537E+02 -0.16716559981E+02 -0.95017534859E+02  0.97156776257E+02  0.00000000000E+00 0.  1.
         -2    1    1    2    0  503  0.11474487537E+02  0.16716559981E+02 -0.11960994230E+03  0.12131630368E+03  0.00000000000E+00 0. -1.
<mgrwt>
<rscale>  2 0.20275780E+02</rscale>
<asrwt>0</asrwt>
<pdfrwt beam="1">  1       21 0.29581583E-03 0.20275780E+02</pdfrwt>
<pdfrwt beam="2">  1       21 0.33315401E-01 0.20275780E+02</pdfrwt>
<totfact> 0.14426119E+08</totfact>
</mgrwt>
</event>
<event>
 4    1  0.2677450E+004  0.2010990E+02  0.7546771E-02  0.1743151E+00
         21   -1    0    0  503  502  0.00000000000E+00  0.00000000000E+00  0.23074145207E+02  0.23074145207E+02  0.00000000000E+00 0. -1.
         21   -1    0    0  501  503 -0.00000000000E+00 -0.00000000000E+00 -0.17634309463E+02  0.17634309463E+02  0.00000000000E+00 0.  1.
          2    1    1    2  501    0 -0.18100023397E+02 -0.87634130753E+01  0.11281881842E+01  0.20141525867E+02  0.00000000000E+00 0.  1.
         -2    1    1    2    0  502  0.18100023397E+02  0.87634130753E+01  0.43116475591E+01  0.20566928802E+02  0.00000000000E+00 0. -1.
<mgrwt>
<rscale>  2 0.20109904E+02</rscale>
<asrwt>0</asrwt>
<pdfrwt beam="1">  1       21 0.35498685E-02 0.20109904E+02</pdfrwt>
<pdfrwt beam="2">  1       21 0.27129707E-02 0.20109904E+02</pdfrwt>
<totfact> 0.22034972E+08</totfact>
</mgrwt>
</event>
<event>
 4    1  0.2677450E+004  0.6585569E+02  0.7546771E-02  0.1374781E+00
         21   -1    0    0  501  502  0.00000000000E+00  0.00000000000E+00  0.32656281329E+02  0.32656281329E+02  0.00000000000E+00 0.  1.
         21   -1    0    0  502  503 -0.00000000000E+00 -0.00000000000E+00 -0.17284985697E+03  0.17284985697E+03  0.00000000000E+00 0. -1.
          2    1    1    2  501    0  0.65559179871E+02 -0.62422472005E+01 -0.20640142839E+02  0.69014398584E+02  0.00000000000E+00 0.  1.
         -2    1    1    2    0  503 -0.65559179871E+02  0.62422472005E+01 -0.11955343280E+03  0.13649173972E+03  0.00000000000E+00 0. -1.
<mgrwt>
<rscale>  2 0.65855689E+02</rscale>
<asrwt>0</asrwt>
<pdfrwt beam="1">  1       21 0.50240433E-02 0.65855689E+02</pdfrwt>
<pdfrwt beam="2">  1       21 0.26592286E-01 0.65855689E+02</pdfrwt>
<totfact> 0.34269140E+06</totfact>
</mgrwt>
</event>
<event>
 4    1  0.2677450E+004  0.2602652E+02  0.7546771E-02  0.1646681E+00
         21   -1    0    0  501  502  0.00000000000E+00  0.00000000000E+00  0.89148141988E+02  0.89148141988E+02  0.00000000000E+00 0.  1.
         21   -1    0    0  502  503 -0.00000000000E+00 -0.00000000000E+00 -0.27998309088E+02  0.27998309088E+02  0.00000000000E+00 0. -1.
          2    1    1    2  501    0 -0.15686744640E+02  0.20767897146E+02  0.80572360205E+02  0.84671628887E+02  0.00000000000E+00 0.  1.
         -2    1    1    2    0  503  0.15686744640E+02 -0.20767897146E+02 -0.19422527305E+02  0.32474822189E+02  0.00000000000E+00 0. -1.
<mgrwt>
<rscale>  2 0.26026516E+02</rscale>
<asrwt>0</asrwt>
<pdfrwt beam="1">  1       21 0.13715099E-01 0.26026516E+02</pdfrwt>
<pdfrwt beam="2">  1       21 0.43074322E-02 0.26026516E+02</pdfrwt>
<totfact> 0.12757089E+07</totfact>
</mgrwt>
</event>
<event>
 4    1  0.2677450E+004  0.2050254E+02  0.7546771E-02  0.1735515E+00
         21   -1    0    0  501  502  0.00000000000E+00  0.00000000000E+00  0.43172038464E+01  0.43172038464E+01  0.00000000000E+00 0. -1.
         21   -1    0    0  502  503 -0.00000000000E+00 -0.00000000000E+00 -0.28274392066E+03  0.28274392066E+03  0.00000000000E+00 0.  1.
          2    1    1    2  501    0  0.18364581497E+02 -0.91157118723E+01 -0.22994837455E+02  0.30807736140E+02  0.00000000000E+00 0. -1.
         -2    1    1    2    0  503 -0.18364581497E+02  0.91157118723E+01 -0.25543187935E+03  0.25625338836E+03  0.00000000000E+00 0.  1.
<mgrwt>
<rscale>  2 0.20502538E+02</rscale>
<asrwt>0</asrwt>
<pdfrwt beam="1">  1       21 0.66418506E-03 0.20502538E+02</pdfrwt>
<pdfrwt beam="2">  1       21 0.43499074E-01 0.20502538E+02</pdfrwt>
<totfact> 0.26927552E+07</totfact>
</mgrwt>
</event>
<event>
 4    1  0.2677450E+004  0.2012007E+02  0.7546771E-02  0.1742951E+00
         21   -1    0    0  503  502  0.00000000000E+00  0.00000000000E+00  0.21386101165E+02  0.21386101165E+02  0.00000000000E+00 0. -1.
         21   -1    0    0  501  503 -0.00000000000E+00 -0.00000000000E+00 -0.25404375002E+02  0.25404375002E+02  0.00000000000E+00 0.  1.
          2    1    1    2  501    0 -0.17616583171E+02  0.97197299674E+01 -0.13820668940E+02  0.24409589165E+02  0.00000000000E+00 0.  1.
         -2    1    1    2    0  502  0.17616583171E+02 -0.97197299674E+01  0.98023951034E+01  0.22380887002E+02  0.00000000000E+00 0. -1.
<mgrwt>
<rscale>  2 0.20120068E+02</rscale>
<asrwt>0</asrwt>
<pdfrwt beam="1">  1       21 0.32901694E-02 0.20120068E+02</pdfrwt>
<pdfrwt beam="2">  1       21 0.39083654E-02 0.20120068E+02</pdfrwt>
<totfact> 0.14065223E+08</totfact>
</mgrwt>
</event>
<event>
 4    1  0.2677450E+004  0.2101213E+02  0.7546771E-02  0.1725919E+00
         21   -1    0    0  503  502  0.00000000000E+00  0.00000000000E+00  0.20496733809E+00  0.20496733809E+00  0.00000000000E+00 0. -1.
         21   -1    0    0  501  503 -0.00000000000E+00 -0.00000000000E+00 -0.23635870266E+04  0.23635870266E+04  0.00000000000E+00 0.  1.
          2    1    1    2  501    0 -0.16574539079E+02  0.12914879802E+02 -0.15335965005E+04  0.15337404395E+04  0.00000000000E+00 0.  1.
         -2    1    1    2    0  502  0.16574539079E+02 -0.12914879802E+02 -0.82978555878E+03  0.83005155444E+03  0.00000000000E+00 0. -1.
<mgrwt>
<rscale>  2 0.21012127E+02</rscale>
<asrwt>0</asrwt>
<pdfrwt beam="1">  1       21 0.31534773E-04 0.21012127E+02</pdfrwt>
<pdfrwt beam="2">  1       21 0.36361336E+00 0.21012127E+02</pdfrwt>
<totfact> 0.12067743E+07</totfact>
</mgrwt>
</event>
<event>
 4    1  0.2677450E+004  0.2113237E+02  0.7546771E-02  0.1723704E+00
         21   -1    0    0  501  502  0.00000000000E+00  0.00000000000E+00  0.82821124821E+01  0.82821124821E+01  0.00000000000E+00 0. -1.
         21   -1    0    0  502  503 -0.00000000000E+00 -0.00000000000E+00 -0.89666041462E+02  0.89666041462E+02  0.00000000000E+00 0.  1.
          2    1    1    2  501    0  0.41565032598E+01  0.20719573057E+02 -0.97703585471E+01  0.23281690943E+02  0.00000000000E+00 0. -1.
         -2    1    1    2    0  503 -0.41565032598E+01 -0.20719573057E+02 -0.71613570432E+02  0.74666463001E+02  0.00000000000E+00 0.  1.
<mgrwt>
<rscale>  2 0.21132374E+02</rscale>
<asrwt>0</asrwt>
<pdfrwt beam="1">  1       21 0.12741712E-02 0.21132374E+02</pdfrwt>
<pdfrwt beam="2">  1       21 0.13794775E-01 0.21132374E+02</pdfrwt>
<totfact> 0.79031974E+07</totfact>
</mgrwt>
</event>
<event>
 4    1  0.2677450E+004  0.2105539E+02  0.7546771E-02  0.1725120E+00
         21   -1    0    0  503  502  0.00000000000E+00  0.00000000000E+00  0.11628470169E+03  0.11628470169E+03  0.00000000000E+00 0. -1.
         21   -1    0    0  501  503 -0.00000000000E+00 -0.00000000000E+00 -0.38330657209E+01  0.38330657209E+01  0.00000000000E+00 0.  1.
          2    1    1    2  501    0  0.92729478508E+01  0.18903485697E+02  0.60630641681E+02  0.64182583650E+02  0.00000000000E+00 0.  1.
         -2    1    1    2    0  502 -0.92729478508E+01 -0.18903485697E+02  0.51820994287E+02  0.55935183760E+02  0.00000000000E+00 0. -1.
<mgrwt>
<rscale>  2 0.21055387E+02</rscale>
<asrwt>0</asrwt>
<pdfrwt beam="1">  1       21 0.17889951E-01 0.21055387E+02</pdfrwt>
<pdfrwt beam="2">  1       21 0.58970251E-03 0.21055387E+02</pdfrwt>
<totfact> 0.16003452E+08</totfact>
</mgrwt>
</event>
<event>
 4    1  0.2677450E+004  0.2711794E+02  0.7546771E-02  0.1632321E+00
         21   -1    0    0  501  502  0.00000000000E+00  0.00000000000E+00  0.89040594160E+01  0.89040594160E+01  0.00000000000E+00 0.  1.
         21   -1    0    0  502  503 -0.00000000000E+00 -0.00000000000E+00 -0.13535163336E+03  0.13535163336E+03  0.00000000000E+00 0. -1.
          2    1    1    2  501    0  0.19695120847E+01 -0.27046320137E+02 -0.18190659093E+02  0.32653981212E+02  0.00000000000E+00 0.  1.
         -2    1    1    2    0  503 -0.19695120847E+01  0.27046320137E+02 -0.10825691485E+03  0.11160171156E+03  0.00000000000E+00 0. -1.
<mgrwt>
<rscale>  2 0.27117935E+02</rscale>
<asrwt>0</asrwt>
<pdfrwt beam="1">  1       21 0.13698553E-02 0.27117935E+02</pdfrwt>
<pdfrwt beam="2">  1       21 0.20823328E-01 0.27117935E+02</pdfrwt>
<totfact> 0.37059952E+07</totfact>
</mgrwt>
</event>
<event>
 4    1  0.2677450E+004  0.2310699E+02  0.7546771E-02  0.1689782E+00
         21   -1    0    0  501  502  0.00000000000E+00  0.00000000000E+00  0.76145156323E+01  0.76145156323E+01  0.00000000000E+00 0.  1.
         21   -1    0    0  502  503 -0.00000000000E+00 -0.00000000000E+00 -0.70783342701E+02  0.70783342701E+02  0.00000000000E+00 0. -1.
          2    1    1    2  501    0 -0.23081641526E+02 -0.10821183579E+01 -0.27790958935E+02  0.36142365089E+02  0.00000000000E+00 0. -1.
         -2    1    1    2    0  503  0.23081641526E+02  0.10821183579E+01 -0.35377868133E+02  0.42255493244E+02  0.00000000000E+00 0.  1.
<mgrwt>
<rscale>  2 0.23106994E+02</rscale>
<asrwt>0</asrwt>
<pdfrwt beam="1">  1       21 0.11714640E-02 0.23106994E+02</pdfrwt>
<pdfrwt beam="2">  1       21 0.10889745E-01 0.23106994E+02</pdfrwt>
<totfact> 0.13674872E+08</totfact>
</mgrwt>
</event>
<event>
 4    1  0.2677450E+004  0.2046953E+02  0.7546771E-02  0.1736149E+00
         21   -1    0    0  503  502  0.00000000000E+00  0.00000000000E+00  0.20928328830E+02  0.20928328830E+02  0.00000000000E+00 0.  1.
         21   -1    0    0  501  503 -0.00000000000E+00 -0.00000000000E+00 -0.20110411276E+02  0.20110411276E+02  0.00000000000E+00 0. -1.
          2    1    1    2  501    0 -0.88329670473E+00 -0.20450467693E+02 -0.96078696839E+00  0.20492070504E+02  0.00000000000E+00 0. -1.
         -2    1    1    2    0  502  0.88329670473E+00  0.20450467693E+02  0.17787045232E+01  0.20546669602E+02  0.00000000000E+00 0.  1.
<mgrwt>
<rscale>  2 0.20469534E+02</rscale>
<asrwt>0</asrwt>
<pdfrwt beam="1">  1       21 0.32197429E-02 0.20469534E+02</pdfrwt>
<pdfrwt beam="2">  1       21 0.30939094E-02 0.20469534E+02</pdfrwt>
<totfact> 0.21056347E+08</totfact>
</mgrwt>
</event>
<event>
 4    1  0.2677450E+004  0.2666620E+02  0.7546771E-02  0.1638162E+00
         21   -1    0    0  501  502  0.00000000000E+00  0.00000000000E+00  0.11909037288E+02  0.11909037288E+02  0.00000000000E+00 0. -1.
         21   -1    0    0  502  503 -0.00000000000E+00 -0.00000000000E+00 -0.60295855986E+02  0.60295855986E+02  0.00000000000E+00 0.  1.
          2    1    1    2  501    0 -0.24916826314E+02  0.94993658938E+01 -0.27752704230E+02  0.38487644485E+02  0.00000000000E+00 0. -1.
         -2    1    1    2    0  503  0.24916826314E+02 -0.94993658938E+01 -0.20634114468E+02  0.33717248788E+02  0.00000000000E+00 0.  1.
<mgrwt>
<rscale>  2 0.26666199E+02</rscale>
<asrwt>0</asrwt>
<pdfrwt beam="1">  1       21 0.18321596E-02 0.26666199E+02</pdfrwt>
<pdfrwt beam="2">  1       21 0.92762856E-02 0.26666199E+02</pdfrwt>
<totfact> 0.93918787E+07</totfact>
</mgrwt>
</event>
<event>
 4    1  0.2677450E+004  0.2800419E+02  0.7546771E-02  0.1621259E+00
         21   -1    0    0  503  502  0.00000000000E+00  0.00000000000E+00  0.15452557874E+03  0.15452557874E+03  0.00000000000E+00 0. -1.
         21   -1    0    0  501  503 -0.00000000000E+00 -0.00000000000E+00 -0.18123466427E+02  0.18123466427E+02  0.00000000000E+00 0.  1.
          2    1    1    2  501    0 -0.63456017090E+01 -0.27275778491E+02 -0.50462081974E+01  0.28455209901E+02  0.00000000000E+00 0.  1.
         -2    1    1    2    0  502  0.63456017090E+01  0.27275778491E+02  0.14144832051E+03  0.14419383527E+03  0.00000000000E+00 0. -1.
<mgrwt>
<rscale>  2 0.28004192E+02</rscale>
<asrwt>0</asrwt>
<pdfrwt beam="1">  1       21 0.23773165E-01 0.28004192E+02</pdfrwt>
<pdfrwt beam="2">  1       21 0.27882257E-02 0.28004192E+02</pdfrwt>
<totfact> 0.98397558E+06</totfact>
</mgrwt>
</event>
<event>
 4    1  0.2677450E+004  0.2557916E+02  0.7546771E-02  0.1652820E+00
         21   -1    0    0  503  502  0.00000000000E+00  0.00000000000E+00  0.15333219293E+03  0.15333219293E+03  0.00000000000E+00 0.  1.
         21   -1    0    0  501  503 -0.00000000000E+00 -0.00000000000E+00 -0.81447179666E+01  0.81447179666E+01  0.00000000000E+00 0. -1.
          2    1    1    2  501    0 -0.24887923993E+02  0.59063375050E+01  0.16885252426E+02  0.30649719949E+02  0.00000000000E+00 0. -1.
         -2    1    1    2    0  502  0.24887923993E+02 -0.59063375050E+01  0.12830222254E+03  0.13082719095E+03  0.00000000000E+00 0.  1.
<mgrwt>
<rscale>  2 0.25579163E+02</rscale>
<asrwt>0</asrwt>
<pdfrwt beam="1">  1       21 0.23589566E-01 0.25579163E+02</pdfrwt>
<pdfrwt beam="2">  1       21 0.12530336E-02 0.25579163E+02</pdfrwt>
<totfact> 0.33597380E+07</totfact>
</mgrwt>
</event>
<event>
 4    1  0.2677450E+004  0.3601024E+02  0.7546771E-02  0.1539808E+00
         21   -1    0    0  503  502  0.00000000000E+00  0.00000000000E+00  0.15243938753E+03  0.15243938753E+03  0.00000000000E+00 0. -1.
         21   -1    0    0  501  503 -0.00000000000E+00 -0.00000000000E+00 -0.90814340536E+01  0.90814340536E+01  0.00000000000E+00 0.  1.
          2    1    1    2  501    0 -0.30054034813E+02  0.19836650416E+02  0.51360065143E+02  0.62726342152E+02  0.00000000000E+00 0.  1.
         -2    1    1    2    0  502  0.30054034813E+02 -0.19836650416E+02  0.91997888334E+02  0.98794479432E+02  0.00000000000E+00 0. -1.
<mgrwt>
<rscale>  2 0.36010244E+02</rscale>
<asrwt>0</asrwt>
<pdfrwt beam="1">  1       21 0.23452212E-01 0.36010244E+02</pdfrwt>
<pdfrwt beam="2">  1       21 0.13971438E-02 0.36010244E+02</pdfrwt>
<totfact> 0.30764744E+07</totfact>
</mgrwt>
</event>
<event>
 4    1  0.2677450E+004  0.3207508E+02  0.7546771E-02  0.1576223E+00
         21   -1    0    0  501  502  0.00000000000E+00  0.00000000000E+00  0.20818200566E+03  0.20818200566E+03  0.00000000000E+00 0.  1.
         21   -1    0    0  502  503 -0.00000000000E+00 -0.00000000000E+00 -0.49647988524E+01  0.49647988524E+01  0.00000000000E+00 0. -1.
          2    1    1    2  501    0  0.16696992524E+02  0.27386513493E+02  0.94367816542E+02  0.99669932676E+02  0.00000000000E+00 0.  1.
         -2    1    1    2    0  503 -0.16696992524E+02 -0.27386513493E+02  0.10884939027E+03  0.11347687184E+03  0.00000000000E+00 0. -1.
<mgrwt>
<rscale>  2 0.32075079E+02</rscale>
<asrwt>0</asrwt>
<pdfrwt beam="1">  1       21 0.32027994E-01 0.32075079E+02</pdfrwt>
<pdfrwt beam="2">  1       21 0.76381537E-03 0.32075079E+02</pdfrwt>
<totfact> 0.42689961E+07</totfact>
</mgrwt>
</event>
<event>
 4    1  0.2677450E+004  0.4321032E+02  0.7546771E-02  0.1485834E+00
         21   -1    0    0  503  502  0.00000000000E+00  0.00000000000E+00  0.61836410727E+03  0.61836410727E+03  0.00000000000E+00 0. -1.
         21   -1    0    0  501  503 -0.00000000000E+00 -0.00000000000E+00 -0.37585933817E+01  0.37585933817E+01  0.00000000000E+00 0.  1.
          2    1    1    2  501    0 -0.23940201919E+02  0.35972194016E+02  0.16936226040E+03  0.17478760613E+03  0.00000000000E+00 0. -1.
         -2    1    1    2    0  502  0.23940201919E+02 -0.35972194016E+02  0.44524325349E+03  0.44733509452E+03  0.00000000000E+00 0.  1.
<mgrwt>
<rscale>  2 0.43210323E+02</rscale>
<asrwt>0</asrwt>
<pdfrwt beam="1">  1       21 0.95132859E-01 0.43210323E+02</pdfrwt>
<pdfrwt beam="2">  1       21 0.57824563E-03 0.43210323E+02</pdfrwt>
<totfact> 0.75187881E+06</totfact>
</mgrwt>
</event>
<event>
 4    1  0.2677450E+004  0.2843438E+02  0.7546771E-02  0.1616068E+00
         21   -1    0    0  503  502  0.00000000000E+00  0.00000000000E+00  0.19103430180E+02  0.19103430180E+02  0.00000000000E+00 0. -1.
         21   -1    0    0  501  503 -0.00000000000E+00 -0.00000000000E+00 -0.48355971051E+02  0.48355971051E+02  0.00000000000E+00 0.  1.
          2    1    1    2  501    0 -0.28433804678E+02 -0.18076244317E+00 -0.26540174335E+02  0.38895948082E+02  0.00000000000E+00 0.  1.
         -2    1    1    2    0  502  0.28433804678E+02  0.18076244317E+00 -0.27123665359E+01  0.28563453148E+02  0.00000000000E+00 0. -1.
<mgrwt>
<rscale>  2 0.28434379E+02</rscale>
<asrwt>0</asrwt>
<pdfrwt beam="1">  1       21 0.29389893E-02 0.28434379E+02</pdfrwt>
<pdfrwt beam="2">  1       21 0.74393801E-02 0.28434379E+02</pdfrwt>
<totfact> 0.65908678E+07</totfact>
</mgrwt>
</event>
<event>
 4    1  0.2677450E+004  0.3624662E+02  0.7546771E-02  0.1537801E+00
         21   -1    0    0  501  502  0.00000000000E+00  0.00000000000E+00  0.69878888405E+02  0.69878888405E+02  0.00000000000E+00 0. -1.
         21   -1    0    0  502  503 -0.00000000000E+00 -0.00000000000E+00 -0.18803718677E+02  0.18803718677E+02  0.00000000000E+00 0.  1.
          2    1    1    2  501    0 -0.35551512175E+02 -0.70645368312E+01  0.26034861485E+02  0.44627701164E+02  0.00000000000E+00 0.  1.
         -2    1    1    2    0  503  0.35551512175E+02  0.70645368312E+01  0.25040308242E+02  0.44054905918E+02  0.00000000000E+00 0. -1.
<mgrwt>
<rscale>  2 0.36246623E+02</rscale>
<asrwt>0</asrwt>
<pdfrwt beam="1">  1       21 0.10750598E-01 0.36246623E+02</pdfrwt>
<pdfrwt beam="2">  1       21 0.28928798E-02 0.36246623E+02</pdfrwt>
<totfact> 0.38571544E+07</totfact>
</mgrwt>
</event>
<event>
 4    1  0.2677450E+004  0.2533172E+02  0.7546771E-02  0.1656282E+00
         21   -1    0    0  501  502  0.00000000000E+00  0.00000000000E+00  0.16180785196E+02  0.16180785196E+02  0.00000000000E+00 0.  1.
         21   -1    0    0  502  503 -0.00000000000E+00 -0.00000000000E+00 -0.69954633432E+02  0.69954633432E+02  0.00000000000E+00 0. -1.
          2    1    1    2  501    0  0.11527121683E+01 -0.25305481257E+02  0.14557850217E+01  0.25373518420E+02  0.00000000000E+00 0.  1.
         -2    1    1    2    0  503 -0.11527121683E+01  0.25305481257E+02 -0.55229633258E+02  0.60761900208E+02  0.00000000000E+00 0. -1.
<mgrwt>
<rscale>  2 0.25331722E+02</rscale>
<asrwt>0</asrwt>
<pdfrwt beam="1">  1       21 0.24893516E-02 0.25331722E+02</pdfrwt>
<pdfrwt beam="2">  1       21 0.10762251E-01 0.25331722E+02</pdfrwt>
<totfact> 0.45117509E+07</totfact>
</mgrwt>
</event>
<event>
 4    1  0.2677450E+004  0.3082052E+02  0.7546771E-02  0.1589192E+00
         21   -1    0    0  503  502  0.00000000000E+00  0.00000000000E+00  0.43434300355E+01  0.43434300355E+01  0.00000000000E+00 0. -1.
         21   -1    0    0  501  503 -0.00000000000E+00 -0.00000000000E+00 -0.35226526999E+03  0.35226526999E+03  0.00000000000E+00 0.  1.
          2    1    1    2  501    0 -0.18949581410E+02 -0.24306747989E+02 -0.28375403668E+03  0.28542294576E+03  0.00000000000E+00 0.  1.
         -2    1    1    2    0  502  0.18949581410E+02  0.24306747989E+02 -0.64167803271E+02  0.71185754263E+02  0.00000000000E+00 0. -1.
<mgrwt>
<rscale>  2 0.30820523E+02</rscale>
<asrwt>0</asrwt>
<pdfrwt beam="1">  1       21 0.66822007E-03 0.30820523E+02</pdfrwt>
<pdfrwt beam="2">  1       21 0.54194652E-01 0.30820523E+02</pdfrwt>
<totfact> 0.18867564E+07</totfact>
</mgrwt>
</event>
<event>
 4    1  0.2677450E+004  0.4434723E+02  0.7546771E-02  0.1478458E+00
         21   -1    0    0  503  502  0.00000000000E+00  0.00000000000E+00  0.13659592920E+03  0.13659592920E+03  0.00000000000E+00 0.  1.
         21   -1    0    0  501  503 -0.00000000000E+00 -0.00000000000E+00 -0.14712943354E+02  0.14712943354E+02  0.00000000000E+00 0. -1.
          2    1    1    2  501    0 -0.42983140141E+02  0.10914496699E+02  0.49868618915E+02  0.66734966300E+02  0.00000000000E+00 0.  1.
         -2    1    1    2    0  502  0.42983140141E+02 -0.10914496699E+02  0.72014366934E+02  0.84573906257E+02  0.00000000000E+00 0. -1.
<mgrwt>
<rscale>  2 0.44347227E+02</rscale>
<asrwt>0</asrwt>
<pdfrwt beam="1">  1       21 0.21014757E-01 0.44347227E+02</pdfrwt>
<pdfrwt beam="2">  1       21 0.22635298E-02 0.44347227E+02</pdfrwt>
<totfact> 0.18284444E+07</totfact>
</mgrwt>
</event>
<event>
 4    1  0.2677450E+004  0.2236300E+02  0.7546771E-02  0.1702049E+00
         21   -1    0    0  501  502  0.00000000000E+00  0.00000000000E+00  0.91593545831E+00  0.91593545831E+00  0.00000000000E+00 0.  1.
         21   -1    0    0  502  503 -0.00000000000E+00 -0.00000000000E+00 -0.83447782438E+03  0.83447782438E+03  0.00000000000E+00 0. -1.
          2    1    1    2  501    0 -0.10203421026E+02  0.19899601210E+02 -0.17119277385E+03  0.17264724077E+03  0.00000000000E+00 0.  1.
         -2    1    1    2    0  503  0.10203421026E+02 -0.19899601210E+02 -0.66236911508E+03  0.66274651907E+03  0.00000000000E+00 0. -1.
<mgrwt>
<rscale>  2 0.22363004E+02</rscale>
<asrwt>0</asrwt>
<pdfrwt beam="1">  1       21 0.14091286E-03 0.22363004E+02</pdfrwt>
<pdfrwt beam="2">  1       21 0.12838146E+00 0.22363004E+02</pdfrwt>
<totfact> 0.27674353E+07</totfact>
</mgrwt>
</event>
<event>
 4    1  0.2677450E+004  0.2048587E+02  0.7546771E-02  0.1735835E+00
         21   -1    0    0  503  502  0.00000000000E+00  0.00000000000E+00  0.44022093298E+00  0.44022093298E+00  0.00000000000E+00 0.  1.
         21   -1    0    0  501  503 -0.00000000000E+00 -0.00000000000E+00 -0.13341886288E+04  0.13341886288E+04  0.00000000000E+00 0. -1.
          2    1    1    2  501    0 -0.13258854270E+02 -0.15616453773E+02 -0.10234158302E+04  0.10236208440E+04  0.00000000000E+00 0. -1.
         -2    1    1    2    0  502  0.13258854270E+02  0.15616453773E+02 -0.31033257769E+03  0.31100800572E+03  0.00000000000E+00 0.  1.
<mgrwt>
<rscale>  2 0.20485869E+02</rscale>
<asrwt>0</asrwt>
<pdfrwt beam="1">  1       21 0.67725857E-04 0.20485869E+02</pdfrwt>
<pdfrwt beam="2">  1       21 0.20526112E+00 0.20485869E+02</pdfrwt>
<totfact> 0.24825653E+07</totfact>
</mgrwt>
</event>
<event>
 4    1  0.2677450E+004  0.2689054E+02  0.7546771E-02  0.1635244E+00
         21   -1    0    0  503  502  0.00000000000E+00  0.00000000000E+00  0.46151084058E+02  0.46151084058E+02  0.00000000000E+00 0.  1.
         21   -1    0    0  501  503 -0.00000000000E+00 -0.00000000000E+00 -0.16719764648E+02  0.16719764648E+02  0.00000000000E+00 0. -1.
          2    1    1    2  501    0  0.25870706463E+02 -0.73353727530E+01  0.68318367673E+01  0.27744821858E+02  0.00000000000E+00 0.  1.
         -2    1    1    2    0  502 -0.25870706463E+02  0.73353727530E+01  0.22599482643E+02  0.35126026847E+02  0.00000000000E+00 0. -1.
<mgrwt>
<rscale>  2 0.26890540E+02</rscale>
<asrwt>0</asrwt>
<pdfrwt beam="1">  1       21 0.71001667E-02 0.26890540E+02</pdfrwt>
<pdfrwt beam="2">  1       21 0.25722715E-02 0.26890540E+02</pdfrwt>
<totfact> 0.86387962E+07</totfact>
</mgrwt>
</event>
<event>
 4    1  0.2677450E+004  0.2020545E+02  0.7546771E-02  0.1741273E+00
         21   -1    0    0  503  502  0.00000000000E+00  0.00000000000E+00  0.91063521433E+02  0.91063521433E+02  0.00000000000E+00 0.  1.
         21   -1    0    0  501  503 -0.00000000000E+00 -0.00000000000E+00 -0.59168570757E+01  0.59168570757E+01  0.00000000000E+00 0. -1.
          2    1    1    2  501    0  0.20042510908E+02  0.25608362978E+01  0.18704889515E+02  0.27534215402E+02  0.00000000000E+00 0. -1.
         -2    1    1    2    0  502 -0.20042510908E+02 -0.25608362978E+01  0.66441774842E+02  0.69446163106E+02  0.00000000000E+00 0.  1.
<mgrwt>
<rscale>  2 0.20205448E+02</rscale>
<asrwt>0</asrwt>
<pdfrwt beam="1">  1       21 0.14009772E-01 0.20205448E+02</pdfrwt>
<pdfrwt beam="2">  1       21 0.91028577E-03 0.20205448E+02</pdfrwt>
<totfact> 0.12584383E+08</totfact>
</mgrwt>
</event>
<event>
 4    1  0.2677450E+004  0.2348501E+02  0.7546771E-02  0.1683767E+00
         21   -1    0    0  501  502  0.00000000000E+00  0.00000000000E+00  0.44526992385E+01  0.44526992385E+01  0.00000000000E+00 0. -1.
         21   -1    0    0  502  503 -0.00000000000E+00 -0.00000000000E+00 -0.14425471850E+03  0.14425471850E+03  0.00000000000E+00 0.  1.
          2    1    1    2  501    0  0.16332843508E+02  0.16875544930E+02 -0.41948934818E+02  0.48075554350E+02  0.00000000000E+00 0. -1.
         -2    1    1    2    0  503 -0.16332843508E+02 -0.16875544930E+02 -0.97853084440E+02  0.10063186338E+03  0.00000000000E+00 0.  1.
<mgrwt>
<rscale>  2 0.23485012E+02</rscale>
<asrwt>0</asrwt>
<pdfrwt beam="1">  1       21 0.68503074E-03 0.23485012E+02</pdfrwt>
<pdfrwt beam="2">  1       21 0.22193031E-01 0.23485012E+02</pdfrwt>
<totfact> 0.90834840E+07</totfact>
</mgrwt>
</event>
<event>
 4    1  0.2677450E+004  0.2407027E+02  0.7546771E-02  0.1674727E+00
         21   -1    0    0  503  502  0.00000000000E+00  0.00000000000E+00  0.97771438568E+02  0.97771438568E+02  0.00000000000E+00 0.  1.
         21   -1    0    0  501  503 -0.00000000000E+00 -0.00000000000E+00 -0.59539327906E+01  0.59539327906E+01  0.00000000000E+00 0. -1.
          2    1    1    2  501    0  0.22291802066E+02  0.90803886452E+01  0.49471219575E+02  0.55016174563E+02  0.00000000000E+00 0. -1.
         -2    1    1    2    0  502 -0.22291802066E+02 -0.90803886452E+01  0.42346286202E+02  0.48709196795E+02  0.00000000000E+00 0.  1.
<mgrwt>
<rscale>  2 0.24070270E+02</rscale>
<asrwt>0</asrwt>
<pdfrwt beam="1">  1       21 0.15041759E-01 0.24070270E+02</pdfrwt>
<pdfrwt beam="2">  1       21 0.91598973E-03 0.24070270E+02</pdfrwt>
<totfact> 0.11628896E+08</totfact>
</mgrwt>
</event>
<event>
 4    1  0.2677450E+004  0.2033213E+02  0.7546771E-02  0.1738803E+00
         21   -1    0    0  501  502  0.00000000000E+00  0.00000000000E+00  0.66825028201E+01  0.66825028201E+01  0.00000000000E+00 0. -1.
         21   -1    0    0  502  503 -0.00000000000E+00 -0.00000000000E+00 -0.12684944414E+03  0.12684944414E+03  0.00000000000E+00 0.  1.
          2    1    1    2  501    0  0.18610848995E+02 -0.81872853141E+01 -0.12294854560E+02  0.23760445909E+02  0.00000000000E+00 0. -1.
         -2    1    1    2    0  503 -0.18610848995E+02  0.81872853141E+01 -0.10787208676E+03  0.10977150105E+03  0.00000000000E+00 0.  1.
<mgrwt>
<rscale>  2 0.20332126E+02</rscale>
<asrwt>0</asrwt>
<pdfrwt beam="1">  1       21 0.10280774E-02 0.20332126E+02</pdfrwt>
<pdfrwt beam="2">  1       21 0.19515298E-01 0.20332126E+02</pdfrwt>
<totfact> 0.59698481E+07</totfact>
</mgrwt>
</event>
<event>
 4    1  0.2677450E+004  0.2716313E+02  0.7546771E-02  0.1631745E+00
         21   -1    0    0  503  502  0.00000000000E+00  0.00000000000E+00  0.11364716454E+02  0.11364716454E+02  0.00000000000E+00 0. -1.
         21   -1    0    0  501  503 -0.00000000000E+00 -0.00000000000E+00 -0.74779749149E+02  0.74779749149E+02  0.00000000000E+00 0.  1.
          2    1    1    2  501    0  0.26075661167E+02 -0.76088937692E+01 -0.47344922190E+02  0.54583669965E+02  0.00000000000E+00 0.  1.
         -2    1    1    2    0  502 -0.26075661167E+02  0.76088937692E+01 -0.16070110505E+02  0.31560795638E+02  0.00000000000E+00 0. -1.
<mgrwt>
<rscale>  2 0.27163125E+02</rscale>
<asrwt>0</asrwt>
<pdfrwt beam="1">  1       21 0.17484179E-02 0.27163125E+02</pdfrwt>
<pdfrwt beam="2">  1       21 0.11504577E-01 0.27163125E+02</pdfrwt>
<totfact> 0.70797853E+07</totfact>
</mgrwt>
</event>
<event>
 4    1  0.2677450E+004  0.2347035E+02  0.7546771E-02  0.1683997E+00
         21   -1    0    0  503  502  0.00000000000E+00  0.00000000000E+00  0.19669618905E+02  0.19669618905E+02  0.00000000000E+00 0.  1.
         21   -1    0    0  501  503 -0.00000000000E+00 -0.00000000000E+00 -0.30605931390E+02  0.30605931390E+02  0.00000000000E+00 0. -1.
          2    1    1    2  501    0 -0.18058989614E+02 -0.14991001444E+02 -0.12795523077E+02  0.26731678604E+02  0.00000000000E+00 0.  1.
         -2    1    1    2    0  502  0.18058989614E+02  0.14991001444E+02  0.18592105927E+01  0.23543871691E+02  0.00000000000E+00 0. -1.
<mgrwt>
<rscale>  2 0.23470348E+02</rscale>
<asrwt>0</asrwt>
<pdfrwt beam="1">  1       21 0.30260952E-02 0.23470348E+02</pdfrwt>
<pdfrwt beam="2">  1       21 0.47086048E-02 0.23470348E+02</pdfrwt>
<totfact> 0.12515923E+08</totfact>
</mgrwt>
</event>
<event>
 4    1  0.2677450E+004  0.2275008E+02  0.7546771E-02  0.1695594E+00
         21   -1    0    0  503  502  0.00000000000E+00  0.00000000000E+00  0.19324453109E+01  0.19324453109E+01  0.00000000000E+00 0.  1.
         21   -1    0    0  501  503 -0.00000000000E+00 -0.00000000000E+00 -0.34032350259E+03  0.34032350259E+03  0.00000000000E+00 0. -1.
          2    1    1    2  501    0 -0.16830770203E+02 -0.15306571223E+02 -0.24817713137E+03  0.24921768493E+03  0.00000000000E+00 0.  1.
         -2    1    1    2    0  502  0.16830770203E+02  0.15306571223E+02 -0.90213925915E+02  0.93038262974E+02  0.00000000000E+00 0. -1.
<mgrwt>
<rscale>  2 0.22750076E+02</rscale>
<asrwt>0</asrwt>
<pdfrwt beam="1">  1       21 0.29729898E-03 0.22750076E+02</pdfrwt>
<pdfrwt beam="2">  1       21 0.52357515E-01 0.22750076E+02</pdfrwt>
<totfact> 0.62829209E+07</totfact>
</mgrwt>
</event>
<event>
 4    1  0.2677450E+004  0.2672623E+02  0.7546771E-02  0.1637378E+00
         21   -1    0    0  503  502  0.00000000000E+00  0.00000000000E+00  0.56230440747E+02  0.56230440747E+02  0.00000000000E+00 0. -1.
         21   -1    0    0  501  503 -0.00000000000E+00 -0.00000000000E+00 -0.15486471403E+02  0.15486471403E+02  0.00000000000E+00 0.  1.
          2    1    1    2  501    0 -0.16023931024E+02 -0.21389835468E+02  0.51695169835E+01  0.27221596806E+02  0.00000000000E+00 0.  1.
         -2    1    1    2    0  502  0.16023931024E+02  0.21389835468E+02  0.35574452360E+02  0.44495315344E+02  0.00000000000E+00 0. -1.
<mgrwt>
<rscale>  2 0.26726231E+02</rscale>
<asrwt>0</asrwt>
<pdfrwt beam="1">  1       21 0.86508370E-02 0.26726231E+02</pdfrwt>
<pdfrwt beam="2">  1       21 0.23825341E-02 0.26726231E+02</pdfrwt>
<totfact> 0.70281652E+07</totfact>
</mgrwt>
</event>
<event>
 4    1  0.2677450E+004  0.5132334E+02  0.7546771E-02  0.1438332E+00
         21   -1    0    0  503  502  0.00000000000E+00  0.00000000000E+00  0.44637930280E+02  0.44637930280E+02  0.00000000000E+00 0.  1.
         21   -1    0    0  501  503 -0.00000000000E+00 -0.00000000000E+00 -0.11485580737E+03  0.11485580737E+03  0.00000000000E+00 0. -1.
          2    1    1    2  501    0 -0.46974305688E+02 -0.20676068294E+02 -0.90716309994E+02  0.10422827876E+03  0.00000000000E+00 0. -1.
         -2    1    1    2    0  502  0.46974305688E+02  0.20676068294E+02  0.20498432901E+02  0.55265458890E+02  0.00000000000E+00 0.  1.
<mgrwt>
<rscale>  2 0.51323340E+02</rscale>
<asrwt>0</asrwt>
<pdfrwt beam="1">  1       21 0.68673740E-02 0.51323340E+02</pdfrwt>
<pdfrwt beam="2">  1       21 0.17670124E-01 0.51323340E+02</pdfrwt>
<totfact> 0.42143298E+06</totfact>
</mgrwt>
</event>
<event>
 4    1  0.2677450E+004  0.2310503E+02  0.7546771E-02  0.1689813E+00
         21   -1    0    0  503  502  0.00000000000E+00  0.00000000000E+00  0.58876304502E+02  0.58876304502E+02  0.00000000000E+00 0. -1.
         21   -1    0    0  501  503 -0.00000000000E+00 -0.00000000000E+00 -0.14215387929E+02  0.14215387929E+02  0.00000000000E+00 0.  1.
          2    1    1    2  501    0  0.23008250315E+02 -0.21125371060E+01  0.33735787998E+00  0.23107492420E+02  0.00000000000E+00 0.  1.
         -2    1    1    2    0  502 -0.23008250315E+02  0.21125371060E+01  0.44323558692E+02  0.49984200011E+02  0.00000000000E+00 0. -1.
<mgrwt>
<rscale>  2 0.23105030E+02</rscale>
<asrwt>0</asrwt>
<pdfrwt beam="1">  1       21 0.90578929E-02 0.23105030E+02</pdfrwt>
<pdfrwt beam="2">  1       21 0.21869828E-02 0.23105030E+02</pdfrwt>
<totfact> 0.71633408E+07</totfact>
</mgrwt>
</event>
<event>
 4    1  0.2677450E+004  0.2167859E+02  0.7546771E-02  0.1713871E+00
         21   -1    0    0  501  502  0.00000000000E+00  0.00000000000E+00  0.94349853425E+02  0.94349853425E+02  0.00000000000E+00 0.  1.
         21   -1    0    0  502  503 -0.00000000000E+00 -0.00000000000E+00 -0.16509046700E+02  0.16509046700E+02  0.00000000000E+00 0. -1.
          2    1    1    2  501    0 -0.93679576011E+01 -0.19550000993E+02  0.85239121009E+02  0.87952651574E+02  0.00000000000E+00 0.  1.
         -2    1    1    2    0  503  0.93679576011E+01  0.19550000993E+02 -0.73983142843E+01  0.22906248551E+02  0.00000000000E+00 0. -1.
<mgrwt>
<rscale>  2 0.21678588E+02</rscale>
<asrwt>0</asrwt>
<pdfrwt beam="1">  1       21 0.14515362E-01 0.21678588E+02</pdfrwt>
<pdfrwt beam="2">  1       21 0.25398534E-02 0.21678588E+02</pdfrwt>
<totfact> 0.25489519E+07</totfact>
</mgrwt>
</event>
<event>
 4    1  0.2677450E+004  0.2197999E+02  0.7546771E-02  0.1708598E+00
         21   -1    0    0  503  502  0.00000000000E+00  0.00000000000E+00  0.82432465161E+01  0.82432465161E+01  0.00000000000E+00 0. -1.
         21   -1    0    0  501  503 -0.00000000000E+00 -0.00000000000E+00 -0.58664382530E+02  0.58664382530E+02  0.00000000000E+00 0.  1.
          2    1    1    2  501    0 -0.15564598042E+02 -0.15519775072E+02 -0.24173375654E+02  0.32672193391E+02  0.00000000000E+00 0.  1.
         -2    1    1    2    0  502  0.15564598042E+02  0.15519775072E+02 -0.26247760360E+02  0.34235435654E+02  0.00000000000E+00 0. -1.
<mgrwt>
<rscale>  2 0.21979994E+02</rscale>
<asrwt>0</asrwt>
<pdfrwt beam="1">  1       21 0.12681917E-02 0.21979994E+02</pdfrwt>
<pdfrwt beam="2">  1       21 0.90252901E-02 0.21979994E+02</pdfrwt>
<totfact> 0.16297154E+08</totfact>
</mgrwt>
</event>
<event>
 4    1  0.2677450E+004  0.2658132E+02  0.7546771E-02  0.1639275E+00
         21   -1    0    0  503  502  0.00000000000E+00  0.00000000000E+00  0.88170039191E+03  0.88170039191E+03  0.00000000000E+00 0. -1.
         21   -1    0    0  501  503 -0.00000000000E+00 -0.00000000000E+00 -0.87501507966E+00  0.87501507966E+00  0.00000000000E+00 0.  1.
          2    1    1    2  501    0  0.10300148613E+02 -0.24504566225E+02  0.31238890433E+03  0.31351777362E+03  0.00000000000E+00 0.  1.
         -2    1    1    2    0  502 -0.10300148613E+02  0.24504566225E+02  0.56843647250E+03  0.56905763337E+03  0.00000000000E+00 0. -1.
<mgrwt>
<rscale>  2 0.26581325E+02</rscale>
<asrwt>0</asrwt>
<pdfrwt beam="1">  1       21 0.13564550E+00 0.26581325E+02</pdfrwt>
<pdfrwt beam="2">  1       21 0.13461841E-03 0.26581325E+02</pdfrwt>
<totfact> 0.26840193E+07</totfact>
</mgrwt>
</event>
<event>
 4    1  0.2677450E+004  0.2864035E+02  0.7546771E-02  0.1613623E+00
         21   -1    0    0  501  502  0.00000000000E+00  0.00000000000E+00  0.16809653441E+03  0.16809653441E+03  0.00000000000E+00 0. -1.
         21   -1    0    0  502  503 -0.00000000000E+00 -0.00000000000E+00 -0.66576472754E+01  0.66576472754E+01  0.00000000000E+00 0.  1.
          2    1    1    2  501    0  0.23247836171E+02  0.16727450042E+02  0.12587281946E+03  0.12909003118E+03  0.00000000000E+00 0. -1.
         -2    1    1    2    0  503 -0.23247836171E+02 -0.16727450042E+02  0.35566067678E+02  0.45664150508E+02  0.00000000000E+00 0.  1.
<mgrwt>
<rscale>  2 0.28640347E+02</rscale>
<asrwt>0</asrwt>
<pdfrwt beam="1">  1       21 0.25861002E-01 0.28640347E+02</pdfrwt>
<pdfrwt beam="2">  1       21 0.10242536E-02 0.28640347E+02</pdfrwt>
<totfact> 0.39627670E+07</totfact>
</mgrwt>
</event>
<event>
 4    1  0.2677450E+004  0.7559003E+02  0.7546771E-02  0.1342054E+00
         21   -1    0    0  501  502  0.00000000000E+00  0.00000000000E+00  0.58652886573E+01  0.58652886573E+01  0.00000000000E+00 0.  1.
         21   -1    0    0  502  503 -0.00000000000E+00 -0.00000000000E+00 -0.13797961147E+04  0.13797961147E+04  0.00000000000E+00 0. -1.
          2    1    1    2  501    0 -0.72899641202E+02 -0.19987384724E+02 -0.31132121261E+03  0.32036658793E+03  0.00000000000E+00 0.  1.
         -2    1    1    2    0  503  0.72899641202E+02  0.19987384724E+02 -0.10626096135E+04  0.10652948155E+04  0.00000000000E+00 0. -1.
<mgrwt>
<rscale>  2 0.75590034E+02</rscale>
<asrwt>0</asrwt>
<pdfrwt beam="1">  1       21 0.90235206E-03 0.75590034E+02</pdfrwt>
<pdfrwt beam="2">  1       21 0.21227633E+00 0.75590034E+02</pdfrwt>
<totfact> 0.52422488E+05</totfact>
</mgrwt>
</event>
<event>
 4    1  0.2677450E+004  0.2890419E+02  0.7546771E-02  0.1610527E+00
         21   -1    0    0  501  502  0.00000000000E+00  0.00000000000E+00  0.46442190986E+02  0.46442190986E+02  0.00000000000E+00 0.  1.
         21   -1    0    0  502  503 -0.00000000000E+00 -0.00000000000E+00 -0.39936978342E+02  0.39936978342E+02  0.00000000000E+00 0. -1.
          2    1    1    2  501    0  0.28904006774E+02 -0.10269349651E+00  0.35270143693E+02  0.45600824440E+02  0.00000000000E+00 0.  1.
         -2    1    1    2    0  503 -0.28904006774E+02  0.10269349651E+00 -0.28764931049E+02  0.40778344888E+02  0.00000000000E+00 0. -1.
<mgrwt>
<rscale>  2 0.28904189E+02</rscale>
<asrwt>0</asrwt>
<pdfrwt beam="1">  1       21 0.71449524E-02 0.28904189E+02</pdfrwt>
<pdfrwt beam="2">  1       21 0.61441505E-02 0.28904189E+02</pdfrwt>
<totfact> 0.21814138E+07</totfact>
</mgrwt>
</event>
<event>
 4    1  0.2677450E+004  0.2331435E+02  0.7546771E-02  0.1686465E+00
         21   -1    0    0  501  502  0.00000000000E+00  0.00000000000E+00  0.82335927232E+02  0.82335927232E+02  0.00000000000E+00 0. -1.
         21   -1    0    0  502  503 -0.00000000000E+00 -0.00000000000E+00 -0.96141202940E+01  0.96141202940E+01  0.00000000000E+00 0.  1.
          2    1    1    2  501    0  0.21489220671E+02 -0.90427965222E+01  0.62095863329E+02  0.66328387713E+02  0.00000000000E+00 0. -1.
         -2    1    1    2    0  503 -0.21489220671E+02  0.90427965222E+01  0.10625943609E+02  0.25621659813E+02  0.00000000000E+00 0.  1.
<mgrwt>
<rscale>  2 0.23314347E+02</rscale>
<asrwt>0</asrwt>
<pdfrwt beam="1">  1       21 0.12667065E-01 0.23314347E+02</pdfrwt>
<pdfrwt beam="2">  1       21 0.14790955E-02 0.23314347E+02</pdfrwt>
<totfact> 0.74788680E+07</totfact>
</mgrwt>
</event>
<event>
 4    1  0.2677450E+004  0.2106013E+02  0.7546771E-02  0.1725032E+00
         21   -1    0    0  503  502  0.00000000000E+00  0.00000000000E+00  0.17118185070E+03  0.17118185070E+03  0.00000000000E+00 0.  1.
         21   -1    0    0  501  503 -0.00000000000E+00 -0.00000000000E+00 -0.55268472145E+01  0.55268472145E+01  0.00000000000E+00 0. -1.
          2    1    1    2  501    0 -0.11215425203E+00  0.21059835578E+02  0.18431754154E+02  0.27986761412E+02  0.00000000000E+00 0. -1.
         -2    1    1    2    0  502  0.11215425203E+00 -0.21059835578E+02  0.14722324934E+03  0.14872193651E+03  0.00000000000E+00 0.  1.
<mgrwt>
<rscale>  2 0.21060134E+02</rscale>
<asrwt>0</asrwt>
<pdfrwt beam="1">  1       21 0.26335665E-01 0.21060134E+02</pdfrwt>
<pdfrwt beam="2">  1       21 0.85028432E-03 0.21060134E+02</pdfrwt>
<totfact> 0.47234207E+07</totfact>
</mgrwt>
</event>
<event>
 4    1  0.2677450E+004  0.4560171E+02  0.7546771E-02  0.1470620E+00
         21   -1    0    0  503  502  0.00000000000E+00  0.00000000000E+00  0.56103942310E+01  0.56103942310E+01  0.00000000000E+00 0. -1.
         21   -1    0    0  501  503 -0.00000000000E+00 -0.00000000000E+00 -0.46907590698E+03  0.46907590698E+03  0.00000000000E+00 0.  1.
          2    1    1    2  501    0  0.44989509146E+02 -0.74471590118E+01 -0.34045054637E+03  0.34349103428E+03  0.00000000000E+00 0.  1.
         -2    1    1    2    0  502 -0.44989509146E+02  0.74471590118E+01 -0.12301496638E+03  0.13119526693E+03  0.00000000000E+00 0. -1.
<mgrwt>
<rscale>  2 0.45601712E+02</rscale>
<asrwt>0</asrwt>
<pdfrwt beam="1">  1       21 0.86313767E-03 0.45601712E+02</pdfrwt>
<pdfrwt beam="2">  1       21 0.72165516E-01 0.45601712E+02</pdfrwt>
<totfact> 0.74921726E+06</totfact>
</mgrwt>
</event>
<event>
 4    1  0.2677450E+004  0.2765006E+02  0.7546771E-02  0.1625618E+00
         21   -1    0    0  501  502  0.00000000000E+00  0.00000000000E+00  0.91082708517E+01  0.91082708517E+01  0.00000000000E+00 0. -1.
         21   -1    0    0  502  503 -0.00000000000E+00 -0.00000000000E+00 -0.11904207043E+03  0.11904207043E+03  0.00000000000E+00 0.  1.
          2    1    1    2  501    0  0.83981010093E+01 -0.26343841331E+02 -0.20171569362E+02  0.34225988476E+02  0.00000000000E+00 0. -1.
         -2    1    1    2    0  503 -0.83981010093E+01  0.26343841331E+02 -0.89762230215E+02  0.93924352805E+02  0.00000000000E+00 0.  1.
<mgrwt>
<rscale>  2 0.27650065E+02</rscale>
<asrwt>0</asrwt>
<pdfrwt beam="1">  1       21 0.14012726E-02 0.27650065E+02</pdfrwt>
<pdfrwt beam="2">  1       21 0.18314163E-01 0.27650065E+02</pdfrwt>
<totfact> 0.45034905E+07</totfact>
</mgrwt>
</event>
<event>
 4    1  0.2677450E+004  0.2368324E+02  0.7546771E-02  0.1680669E+00
         21   -1    0    0  503  502  0.00000000000E+00  0.00000000000E+00  0.11379203415E+02  0.11379203415E+02  0.00000000000E+00 0.  1.
         21   -1    0    0  501  503 -0.00000000000E+00 -0.00000000000E+00 -0.58826934410E+02  0.58826934410E+02  0.00000000000E+00 0. -1.
          2    1    1    2  501    0 -0.87943144390E+01  0.21989904895E+02 -0.37856771326E+02  0.44654574446E+02  0.00000000000E+00 0. -1.
         -2    1    1    2    0  502  0.87943144390E+01 -0.21989904895E+02 -0.95909596685E+01  0.25551563379E+02  0.00000000000E+00 0.  1.
<mgrwt>
<rscale>  2 0.23683241E+02</rscale>
<asrwt>0</asrwt>
<pdfrwt beam="1">  1       21 0.17506467E-02 0.23683241E+02</pdfrwt>
<pdfrwt beam="2">  1       21 0.90502975E-02 0.23683241E+02</pdfrwt>
<totfact> 0.10162164E+08</totfact>
</mgrwt>
</event>
<event>
 4    1  0.2677450E+004  0.2127236E+02  0.7546771E-02  0.1721149E+00
         21   -1    0    0  503  502  0.00000000000E+00  0.00000000000E+00  0.13355708137E+03  0.13355708137E+03  0.00000000000E+00 0. -1.
         21   -1    0    0  501  503 -0.00000000000E+00 -0.00000000000E+00 -0.66939749354E+02  0.66939749354E+02  0.00000000000E+00 0.  1.
          2    1    1    2  501    0  0.19753102023E+02  0.78948121972E+01 -0.64369764986E+02  0.67793655629E+02  0.00000000000E+00 0.  1.
         -2    1    1    2    0  502 -0.19753102023E+02 -0.78948121972E+01  0.13098709701E+03  0.13270317510E+03  0.00000000000E+00 0. -1.
<mgrwt>
<rscale>  2 0.21272355E+02</rscale>
<asrwt>0</asrwt>
<pdfrwt beam="1">  1       21 0.20547243E-01 0.21272355E+02</pdfrwt>
<pdfrwt beam="2">  1       21 0.10298423E-01 0.21272355E+02</pdfrwt>
<totfact> 0.15057872E+06</totfact>
</mgrwt>
</event>
<event>
 4    1  0.2677450E+004  0.2458520E+02  0.7546771E-02  0.1667032E+00
         21   -1    0    0  501  502  0.00000000000E+00  0.00000000000E+00  0.34226117842E+02  0.34226117842E+02  0.00000000000E+00 0.  1.
         21   -1    0    0  502  503 -0.00000000000E+00 -0.00000000000E+00 -0.39702008166E+02  0.39702008166E+02  0.00000000000E+00 0. -1.
          2    1    1    2  501    0 -0.86213109961E+01  0.23024012126E+02  0.24804301392E+02  0.34923996123E+02  0.00000000000E+00 0.  1.
         -2    1    1    2    0  503  0.86213109961E+01 -0.23024012126E+02 -0.30280191716E+02  0.39004129884E+02  0.00000000000E+00 0. -1.
<mgrwt>
<rscale>  2 0.24585202E+02</rscale>
<asrwt>0</asrwt>
<pdfrwt beam="1">  1       21 0.52655566E-02 0.24585202E+02</pdfrwt>
<pdfrwt beam="2">  1       21 0.61080012E-02 0.24585202E+02</pdfrwt>
<totfact> 0.34852894E+07</totfact>
</mgrwt>
</event>
<event>
 4    1  0.2677450E+004  0.2101020E+02  0.7546771E-02  0.1725954E+00
         21   -1    0    0  503  502  0.00000000000E+00  0.00000000000E+00  0.25187443446E+03  0.25187443446E+03  0.00000000000E+00 0. -1.
         21   -1    0    0  501  503 -0.00000000000E+00 -0.00000000000E+00 -0.12269947500E+02  0.12269947500E+02  0.00000000000E+00 0.  1.
          2    1    1    2  501    0 -0.14180635575E+02 -0.15502841578E+02 -0.24744493440E+01  0.21155411172E+02  0.00000000000E+00 0.  1.
         -2    1    1    2    0  502  0.14180635575E+02  0.15502841578E+02  0.24207893630E+03  0.24298897079E+03  0.00000000000E+00 0. -1.
<mgrwt>
<rscale>  2 0.21010200E+02</rscale>
<asrwt>0</asrwt>
<pdfrwt beam="1">  1       21 0.38749909E-01 0.21010200E+02</pdfrwt>
<pdfrwt beam="2">  1       21 0.18876844E-02 0.21010200E+02</pdfrwt>
<totfact> 0.70084478E+06</totfact>
</mgrwt>
</event>
<event>
 4    1  0.2677450E+004  0.2167731E+02  0.7546771E-02  0.1713893E+00
         21   -1    0    0  501  502  0.00000000000E+00  0.00000000000E+00  0.74449620332E+02  0.74449620332E+02  0.00000000000E+00 0. -1.
         21   -1    0    0  502  503 -0.00000000000E+00 -0.00000000000E+00 -0.64125599554E+01  0.64125599554E+01  0.00000000000E+00 0.  1.
          2    1    1    2  501    0  0.20632017337E+02  0.66502247864E+01  0.39088465492E+02  0.44696910000E+02  0.00000000000E+00 0.  1.
         -2    1    1    2    0  503 -0.20632017337E+02 -0.66502247864E+01  0.28948594885E+02  0.36165270287E+02  0.00000000000E+00 0. -1.
<mgrwt>
<rscale>  2 0.21677307E+02</rscale>
<asrwt>0</asrwt>
<pdfrwt beam="1">  1       21 0.11453787E-01 0.21677307E+02</pdfrwt>
<pdfrwt beam="2">  1       21 0.98654774E-03 0.21677307E+02</pdfrwt>
<totfact> 0.15969631E+08</totfact>
</mgrwt>
</event>
<event>
 4    1  0.2677450E+004  0.2040764E+02  0.7546771E-02  0.1737341E+00
         21   -1    0    0  501  502  0.00000000000E+00  0.00000000000E+00  0.25423153193E+02  0.25423153193E+02  0.00000000000E+00 0.  1.
         21   -1    0    0  502  503 -0.00000000000E+00 -0.00000000000E+00 -0.43407986674E+02  0.43407986674E+02  0.00000000000E+00 0. -1.
          2    1    1    2  501    0  0.18505772661E+02  0.86028066094E+01  0.18163479759E+02  0.27320027458E+02  0.00000000000E+00 0.  1.
         -2    1    1    2    0  503 -0.18505772661E+02 -0.86028066094E+01 -0.36148313240E+02  0.41511112409E+02  0.00000000000E+00 0. -1.
<mgrwt>
<rscale>  2 0.20407643E+02</rscale>
<asrwt>0</asrwt>
<pdfrwt beam="1">  1       21 0.39112544E-02 0.20407643E+02</pdfrwt>
<pdfrwt beam="2">  1       21 0.66781517E-02 0.20407643E+02</pdfrwt>
<totfact> 0.46112427E+07</totfact>
</mgrwt>
</event>
<event>
 4    1  0.2677450E+004  0.2793418E+02  0.7546771E-02  0.1622114E+00
         21   -1    0    0  501  502  0.00000000000E+00  0.00000000000E+00  0.26974030860E+01  0.26974030860E+01  0.00000000000E+00 0. -1.
         21   -1    0    0  502  503 -0.00000000000E+00 -0.00000000000E+00 -0.39935987264E+03  0.39935987264E+03  0.00000000000E+00 0.  1.
          2    1    1    2  501    0  0.17809489822E+02 -0.21520694643E+02 -0.92790568321E+02  0.96904116502E+02  0.00000000000E+00 0. -1.
         -2    1    1    2    0  503 -0.17809489822E+02  0.21520694643E+02 -0.30387190124E+03  0.30515315923E+03  0.00000000000E+00 0.  1.
<mgrwt>
<rscale>  2 0.27934177E+02</rscale>
<asrwt>0</asrwt>
<pdfrwt beam="1">  1       21 0.41498509E-03 0.27934177E+02</pdfrwt>
<pdfrwt beam="2">  1       21 0.61439981E-01 0.27934177E+02</pdfrwt>
<totfact> 0.29289403E+07</totfact>
</mgrwt>
</event>
<event>
 4    1  0.2677450E+004  0.2135438E+02  0.7546771E-02  0.1719663E+00
         21   -1    0    0  503  502  0.00000000000E+00  0.00000000000E+00  0.13727796916E+02  0.13727796916E+02  0.00000000000E+00 0.  1.
         21   -1    0    0  501  503 -0.00000000000E+00 -0.00000000000E+00 -0.11133326014E+03  0.11133326014E+03  0.00000000000E+00 0. -1.
          2    1    1    2  501    0 -0.20318684741E+02 -0.65696750884E+01 -0.10118058002E+03  0.10340947419E+03  0.00000000000E+00 0. -1.
         -2    1    1    2    0  502  0.20318684741E+02  0.65696750884E+01  0.35751167938E+01  0.21651582863E+02  0.00000000000E+00 0.  1.
<mgrwt>
<rscale>  2 0.21354381E+02</rscale>
<asrwt>0</asrwt>
<pdfrwt beam="1">  1       21 0.21119688E-02 0.21354381E+02</pdfrwt>
<pdfrwt beam="2">  1       21 0.17128194E-01 0.21354381E+02</pdfrwt>
<totfact> 0.25442975E+07</totfact>
</mgrwt>
</event>
<event>
 4    1  0.2677450E+004  0.2213053E+02  0.7546771E-02  0.1706004E+00
         21   -1    0    0  501  502  0.00000000000E+00  0.00000000000E+00  0.29323104142E+02  0.29323104142E+02  0.00000000000E+00 0. -1.
         21   -1    0    0  502  503 -0.00000000000E+00 -0.00000000000E+00 -0.30353153468E+02  0.30353153468E+02  0.00000000000E+00 0.  1.
          2    1    1    2  501    0  0.17146393320E+02 -0.13991483489E+02  0.19495161721E+02  0.29492740541E+02  0.00000000000E+00 0. -1.
         -2    1    1    2    0  503 -0.17146393320E+02  0.13991483489E+02 -0.20525211048E+02  0.30183517069E+02  0.00000000000E+00 0.  1.
<mgrwt>
<rscale>  2 0.22130531E+02</rscale>
<asrwt>0</asrwt>
<pdfrwt beam="1">  1       21 0.45112468E-02 0.22130531E+02</pdfrwt>
<pdfrwt beam="2">  1       21 0.46697159E-02 0.22130531E+02</pdfrwt>
<totfact> 0.66620456E+07</totfact>
</mgrwt>
</event>
<event>
 4    1  0.2677450E+004  0.2524094E+02  0.7546771E-02  0.1657565E+00
         21   -1    0    0  501  502  0.00000000000E+00  0.00000000000E+00  0.24811055135E+03  0.24811055135E+03  0.00000000000E+00 0. -1.
         21   -1    0    0  502  503 -0.00000000000E+00 -0.00000000000E+00 -0.30795454330E+01  0.30795454330E+01  0.00000000000E+00 0.  1.
          2    1    1    2  501    0 -0.11162978421E+02  0.22638308565E+02  0.17371250369E+03  0.17553671707E+03  0.00000000000E+00 0. -1.
         -2    1    1    2    0  503  0.11162978421E+02 -0.22638308565E+02  0.71318502225E+02  0.75653379710E+02  0.00000000000E+00 0.  1.
<mgrwt>
<rscale>  2 0.25240941E+02</rscale>
<asrwt>0</asrwt>
<pdfrwt beam="1">  1       21 0.38170838E-01 0.25240941E+02</pdfrwt>
<pdfrwt beam="2">  1       21 0.47377642E-03 0.25240941E+02</pdfrwt>
<totfact> 0.59591465E+07</totfact>
</mgrwt>
</event>
<event>
 4    1  0.2677450E+004  0.2055326E+02  0.7546771E-02  0.1734544E+00
         21   -1    0    0  503  502  0.00000000000E+00  0.00000000000E+00  0.11215506744E+01  0.11215506744E+01  0.00000000000E+00 0. -1.
         21   -1    0    0  501  503 -0.00000000000E+00 -0.00000000000E+00 -0.38414300058E+03  0.38414300058E+03  0.00000000000E+00 0.  1.
          2    1    1    2  501    0 -0.20538096158E+02  0.78940588276E+00 -0.16461431437E+03  0.16589246231E+03  0.00000000000E+00 0. -1.
         -2    1    1    2    0  502  0.20538096158E+02 -0.78940588276E+00 -0.21840713553E+03  0.21937208894E+03  0.00000000000E+00 0.  1.
<mgrwt>
<rscale>  2 0.20553261E+02</rscale>
<asrwt>0</asrwt>
<pdfrwt beam="1">  1       21 0.17254632E-03 0.20553261E+02</pdfrwt>
<pdfrwt beam="2">  1       21 0.59098902E-01 0.20553261E+02</pdfrwt>
<totfact> 0.10584133E+08</totfact>
</mgrwt>
</event>
<event>
 4    1  0.2677450E+004  0.2369489E+02  0.7546771E-02  0.1680488E+00
         21   -1    0    0  503  502  0.00000000000E+00  0.00000000000E+00  0.67209478003E+03  0.67209478003E+03  0.00000000000E+00 0.  1.
         21   -1    0    0  501  503 -0.00000000000E+00 -0.00000000000E+00 -0.49240759471E+01  0.49240759471E+01  0.00000000000E+00 0. -1.
          2    1    1    2  501    0  0.23584162302E+02  0.22879959837E+01  0.25123578905E+02  0.34534647154E+02  0.00000000000E+00 0. -1.
         -2    1    1    2    0  502 -0.23584162302E+02 -0.22879959837E+01  0.64204712518E+03  0.64248420883E+03  0.00000000000E+00 0.  1.
<mgrwt>
<rscale>  2 0.23694886E+02</rscale>
<asrwt>0</asrwt>
<pdfrwt beam="1">  1       21 0.10339912E+00 0.23694886E+02</pdfrwt>
<pdfrwt beam="2">  1       21 0.75755068E-03 0.23694886E+02</pdfrwt>
<totfact> 0.38944005E+06</totfact>
</mgrwt>
</event>
<event>
 4    1  0.2677450E+004  0.2415549E+02  0.7546771E-02  0.1673437E+00
         21   -1    0    0  503  502  0.00000000000E+00  0.00000000000E+00  0.22870899882E+02  0.22870899882E+02  0.00000000000E+00 0. -1.
         21   -1    0    0  501  503 -0.00000000000E+00 -0.00000000000E+00 -0.36402047529E+02  0.36402047529E+02  0.00000000000E+00 0.  1.
          2    1    1    2  501    0  0.16488550041E+01 -0.24099151934E+02 -0.22975228336E+02  0.33336900934E+02  0.00000000000E+00 0.  1.
         -2    1    1    2    0  502 -0.16488550041E+01  0.24099151934E+02  0.94440806885E+01  0.25936046477E+02  0.00000000000E+00 0. -1.
<mgrwt>
<rscale>  2 0.24155493E+02</rscale>
<asrwt>0</asrwt>
<pdfrwt beam="1">  1       21 0.35186000E-02 0.24155493E+02</pdfrwt>
<pdfrwt beam="2">  1       21 0.56003149E-02 0.24155493E+02</pdfrwt>
<totfact> 0.75569263E+07</totfact>
</mgrwt>
</event>
<event>
 4    1  0.2677450E+004  0.2428640E+02  0.7546771E-02  0.1671468E+00
         21   -1    0    0  503  502  0.00000000000E+00  0.00000000000E+00  0.99243924668E+01  0.99243924668E+01  0.00000000000E+00 0.  1.
         21   -1    0    0  501  503 -0.00000000000E+00 -0.00000000000E+00 -0.79565113075E+02  0.79565113075E+02  0.00000000000E+00 0. -1.
          2    1    1    2  501    0 -0.22750756704E+02 -0.84989450841E+01 -0.57328184512E+02  0.62260338399E+02  0.00000000000E+00 0. -1.
         -2    1    1    2    0  502  0.22750756704E+02  0.84989450841E+01 -0.12312536096E+02  0.27229167142E+02  0.00000000000E+00 0.  1.
<mgrwt>
<rscale>  2 0.24286395E+02</rscale>
<asrwt>0</asrwt>
<pdfrwt beam="1">  1       21 0.15268296E-02 0.24286395E+02</pdfrwt>
<pdfrwt beam="2">  1       21 0.12240787E-01 0.24286395E+02</pdfrwt>
<totfact> 0.76319571E+07</totfact>
</mgrwt>
</event>
<event>
 4    1  0.2677450E+004  0.2124719E+02  0.7546771E-02  0.1721606E+00
         21   -1    0    0  501  502  0.00000000000E+00  0.00000000000E+00  0.13015491393E+01  0.13015491393E+01  0.00000000000E+00 0.  1.
         21   -1    0    0  502  503 -0.00000000000E+00 -0.00000000000E+00 -0.67953293318E+03  0.67953293318E+03  0.00000000000E+00 0. -1.
          2    1    1    2  501    0 -0.16393496303E+02 -0.13516528976E+02 -0.10092703610E+03  0.10313927425E+03  0.00000000000E+00 0.  1.
         -2    1    1    2    0  503  0.16393496303E+02  0.13516528976E+02 -0.57730434794E+03  0.57769520807E+03  0.00000000000E+00 0. -1.
<mgrwt>
<rscale>  2 0.21247195E+02</rscale>
<asrwt>0</asrwt>
<pdfrwt beam="1">  1       21 0.20023799E-03 0.21247195E+02</pdfrwt>
<pdfrwt beam="2">  1       21 0.10454371E+00 0.21247195E+02</pdfrwt>
<totfact> 0.26223430E+07</totfact>
</mgrwt>
</event>
<event>
 4    1  0.2677450E+004  0.3413539E+02  0.7546771E-02  0.1556415E+00
         21   -1    0    0  501  502  0.00000000000E+00  0.00000000000E+00  0.25995604271E+03  0.25995604271E+03  0.00000000000E+00 0. -1.
         21   -1    0    0  502  503 -0.00000000000E+00 -0.00000000000E+00 -0.69589445616E+01  0.69589445616E+01  0.00000000000E+00 0.  1.
          2    1    1    2  501    0  0.34043503632E+02 -0.25028869900E+01  0.20611359561E+03  0.20892113076E+03  0.00000000000E+00 0. -1.
         -2    1    1    2    0  503 -0.34043503632E+02  0.25028869900E+01  0.46883502539E+02  0.57993856512E+02  0.00000000000E+00 0.  1.
<mgrwt>
<rscale>  2 0.34135386E+02</rscale>
<asrwt>0</asrwt>
<pdfrwt beam="1">  1       21 0.39993230E-01 0.34135386E+02</pdfrwt>
<pdfrwt beam="2">  1       21 0.10706071E-02 0.34135386E+02</pdfrwt>
<totfact> 0.17020696E+07</totfact>
</mgrwt>
</event>
<event>
 4    1  0.2677450E+004  0.2364297E+02  0.7546771E-02  0.1681295E+00
         21   -1    0    0  503  502  0.00000000000E+00  0.00000000000E+00  0.20360372591E+02  0.20360372591E+02  0.00000000000E+00 0.  1.
         21   -1    0    0  501  503 -0.00000000000E+00 -0.00000000000E+00 -0.95269850015E+02  0.95269850015E+02  0.00000000000E+00 0. -1.
          2    1    1    2  501    0 -0.18020525125E+02  0.15305253364E+02 -0.86233036992E+02  0.89415472796E+02  0.00000000000E+00 0. -1.
         -2    1    1    2    0  502  0.18020525125E+02 -0.15305253364E+02  0.11323559568E+02  0.26214749811E+02  0.00000000000E+00 0.  1.
<mgrwt>
<rscale>  2 0.23642972E+02</rscale>
<asrwt>0</asrwt>
<pdfrwt beam="1">  1       21 0.31323651E-02 0.23642972E+02</pdfrwt>
<pdfrwt beam="2">  1       21 0.14656900E-01 0.23642972E+02</pdfrwt>
<totfact> 0.18463323E+07</totfact>
</mgrwt>
</event>
<event>
 4    1  0.2677450E+004  0.2439531E+02  0.7546771E-02  0.1669842E+00
         21   -1    0    0  503  502  0.00000000000E+00  0.00000000000E+00  0.92865673013E+02  0.92865673013E+02  0.00000000000E+00 0. -1.
         21   -1    0    0  501  503 -0.00000000000E+00 -0.00000000000E+00 -0.40368673316E+03  0.40368673316E+03  0.00000000000E+00 0.  1.
          2    1    1    2  501    0  0.17876260013E+02 -0.16600320903E+02 -0.40170815970E+03  0.40244822884E+03  0.00000000000E+00 0.  1.
         -2    1    1    2    0  502 -0.17876260013E+02  0.16600320903E+02  0.90887099554E+02  0.94104177333E+02  0.00000000000E+00 0. -1.
<mgrwt>
<rscale>  2 0.24395314E+02</rscale>
<asrwt>0</asrwt>
<pdfrwt beam="1">  1       21 0.14287026E-01 0.24395314E+02</pdfrwt>
<pdfrwt beam="2">  1       21 0.62105653E-01 0.24395314E+02</pdfrwt>
<totfact> 0.11163315E+05</totfact>
</mgrwt>
</event>
<event>
 4    1  0.2677450E+004  0.2465132E+02  0.7546771E-02  0.1666061E+00
         21   -1    0    0  501  502  0.00000000000E+00  0.00000000000E+00  0.31183375797E+02  0.31183375797E+02  0.00000000000E+00 0.  1.
         21   -1    0    0  502  503 -0.00000000000E+00 -0.00000000000E+00 -0.19550531137E+02  0.19550531137E+02  0.00000000000E+00 0. -1.
          2    1    1    2  501    0  0.21666029410E+02 -0.11758863745E+02  0.72561551334E+01  0.25697071707E+02  0.00000000000E+00 0. -1.
         -2    1    1    2    0  503 -0.21666029410E+02  0.11758863745E+02  0.43766895261E+01  0.25036835227E+02  0.00000000000E+00 0.  1.
<mgrwt>
<rscale>  2 0.24651323E+02</rscale>
<asrwt>0</asrwt>
<pdfrwt beam="1">  1       21 0.47974424E-02 0.24651323E+02</pdfrwt>
<pdfrwt beam="2">  1       21 0.30077740E-02 0.24651323E+02</pdfrwt>
<totfact> 0.12441550E+08</totfact>
</mgrwt>
</event>
<event>
 4    1  0.2677450E+004  0.2808532E+02  0.7546771E-02  0.1620271E+00
         21   -1    0    0  503  502  0.00000000000E+00  0.00000000000E+00  0.31808243930E+03  0.31808243930E+03  0.00000000000E+00 0.  1.
         21   -1    0    0  501  503 -0.00000000000E+00 -0.00000000000E+00 -0.25074124088E+01  0.25074124088E+01  0.00000000000E+00 0. -1.
          2    1    1    2  501    0 -0.24824788655E+01  0.27975395260E+02  0.17460437981E+03  0.17684873448E+03  0.00000000000E+00 0.  1.
         -2    1    1    2    0  502  0.24824788655E+01 -0.27975395260E+02  0.14097064708E+03  0.14374111722E+03  0.00000000000E+00 0. -1.
<mgrwt>
<rscale>  2 0.28085324E+02</rscale>
<asrwt>0</asrwt>
<pdfrwt beam="1">  1       21 0.48935728E-01 0.28085324E+02</pdfrwt>
<pdfrwt beam="2">  1       21 0.38575601E-03 0.28085324E+02</pdfrwt>
<totfact> 0.51339725E+07</totfact>
</mgrwt>
</event>
<event>
 4    1  0.2677450E+004  0.2139816E+02  0.7546771E-02  0.1718873E+00
         21   -1    0    0  501  502  0.00000000000E+00  0.00000000000E+00  0.57912968319E+02  0.57912968319E+02  0.00000000000E+00 0.  1.
         21   -1    0    0  502  503 -0.00000000000E+00 -0.00000000000E+00 -0.16871973814E+02  0.16871973814E+02  0.00000000000E+00 0. -1.
          2    1    1    2  501    0 -0.11024918500E+02  0.18339362655E+02  0.47778317249E+02  0.52351204854E+02  0.00000000000E+00 0.  1.
         -2    1    1    2    0  503  0.11024918500E+02 -0.18339362655E+02 -0.67373227436E+01  0.22433737279E+02  0.00000000000E+00 0. -1.
<mgrwt>
<rscale>  2 0.21398155E+02</rscale>
<asrwt>0</asrwt>
<pdfrwt beam="1">  1       21 0.89096873E-02 0.21398155E+02</pdfrwt>
<pdfrwt beam="2">  1       21 0.25956883E-02 0.21398155E+02</pdfrwt>
<totfact> 0.55352707E+07</totfact>
</mgrwt>
</event>
<event>
 4    1  0.2677450E+004  0.2406083E+02  0.7546771E-02  0.1674870E+00
         21   -1    0    0  501  502  0.00000000000E+00  0.00000000000E+00  0.33959861292E+01  0.33959861292E+01  0.00000000000E+00 0.  1.
         21   -1    0    0  502  503 -0.00000000000E+00 -0.00000000000E+00 -0.17052070941E+03  0.17052070941E+03  0.00000000000E+00 0. -1.
          2    1    1    2  501    0 -0.21559664624E+02 -0.10681956465E+02 -0.85019637597E+02  0.88358712698E+02  0.00000000000E+00 0.  1.
         -2    1    1    2    0  503  0.21559664624E+02  0.10681956465E+02 -0.82105085683E+02  0.85557982840E+02  0.00000000000E+00 0. -1.
<mgrwt>
<rscale>  2 0.24060826E+02</rscale>
<asrwt>0</asrwt>
<pdfrwt beam="1">  1       21 0.52245946E-03 0.24060826E+02</pdfrwt>
<pdfrwt beam="2">  1       21 0.26233952E-01 0.24060826E+02</pdfrwt>
<totfact> 0.10147128E+08</totfact>
</mgrwt>
</event>
<event>
 4    1  0.2677450E+004  0.2043271E+02  0.7546771E-02  0.1736858E+00
         21   -1    0    0  503  502  0.00000000000E+00  0.00000000000E+00  0.30363088043E+01  0.30363088043E+01  0.00000000000E+00 0.  1.
         21   -1    0    0  501  503 -0.00000000000E+00 -0.00000000000E+00 -0.16012274707E+03  0.16012274707E+03  0.00000000000E+00 0. -1.
          2    1    1    2  501    0 -0.12882833615E+02 -0.15859640296E+02 -0.10920641672E+03  0.11110147184E+03  0.00000000000E+00 0. -1.
         -2    1    1    2    0  502  0.12882833615E+02  0.15859640296E+02 -0.47880021547E+02  0.52057584035E+02  0.00000000000E+00 0.  1.
<mgrwt>
<rscale>  2 0.20432709E+02</rscale>
<asrwt>0</asrwt>
<pdfrwt beam="1">  1       21 0.46712446E-03 0.20432709E+02</pdfrwt>
<pdfrwt beam="2">  1       21 0.24634267E-01 0.20432709E+02</pdfrwt>
<totfact> 0.12787952E+08</totfact>
</mgrwt>
</event>
<event>
 4    1  0.2677450E+004  0.2315526E+02  0.7546771E-02  0.1689006E+00
         21   -1    0    0  503  502  0.00000000000E+00  0.00000000000E+00  0.16889083400E+02  0.16889083400E+02  0.00000000000E+00 0.  1.
         21   -1    0    0  501  503 -0.00000000000E+00 -0.00000000000E+00 -0.32658864008E+02  0.32658864008E+02  0.00000000000E+00 0. -1.
          2    1    1    2  501    0  0.88808814827E+01  0.21384478696E+02 -0.37436949070E+01  0.23455942458E+02  0.00000000000E+00 0.  1.
         -2    1    1    2    0  502 -0.88808814827E+01 -0.21384478696E+02 -0.12026085701E+02  0.26092004950E+02  0.00000000000E+00 0. -1.
<mgrwt>
<rscale>  2 0.23155258E+02</rscale>
<asrwt>0</asrwt>
<pdfrwt beam="1">  1       21 0.25983205E-02 0.23155258E+02</pdfrwt>
<pdfrwt beam="2">  1       21 0.50244406E-02 0.23155258E+02</pdfrwt>
<totfact> 0.14246563E+08</totfact>
</mgrwt>
</event>
<event>
 4    1  0.2677450E+004  0.6036880E+02  0.7546771E-02  0.1396291E+00
         21   -1    0    0  501  502  0.00000000000E+00  0.00000000000E+00  0.94086448155E+02  0.94086448155E+02  0.00000000000E+00 0. -1.
         21   -1    0    0  502  503 -0.00000000000E+00 -0.00000000000E+00 -0.39121756673E+02  0.39121756673E+02  0.00000000000E+00 0.  1.
          2    1    1    2  501    0  0.37691996756E+02 -0.47156186385E+02  0.34108861804E+02  0.69338351491E+02  0.00000000000E+00 0. -1.
         -2    1    1    2    0  503 -0.37691996756E+02  0.47156186385E+02  0.20855829678E+02  0.63869853338E+02  0.00000000000E+00 0.  1.
<mgrwt>
<rscale>  2 0.60368804E+02</rscale>
<asrwt>0</asrwt>
<pdfrwt beam="1">  1       21 0.14474838E-01 0.60368804E+02</pdfrwt>
<pdfrwt beam="2">  1       21 0.60187318E-02 0.60368804E+02</pdfrwt>
<totfact> 0.75816833E+06</totfact>
</mgrwt>
</event>
<event>
 4    1  0.2677450E+004  0.2703835E+02  0.7546771E-02  0.1633340E+00
         21   -1    0    0  503  502  0.00000000000E+00  0.00000000000E+00  0.20402872390E+01  0.20402872390E+01  0.00000000000E+00 0.  1.
         21   -1    0    0  501  503 -0.00000000000E+00 -0.00000000000E+00 -0.41200754044E+03  0.41200754044E+03  0.00000000000E+00 0. -1.
          2    1    1    2  501    0  0.95187973763E+00  0.27021585794E+02 -0.27971650733E+03  0.28102027800E+03  0.00000000000E+00 0. -1.
         -2    1    1    2    0  502 -0.95187973763E+00 -0.27021585794E+02 -0.13025074587E+03  0.13302754968E+03  0.00000000000E+00 0.  1.
<mgrwt>
<rscale>  2 0.27038346E+02</rscale>
<asrwt>0</asrwt>
<pdfrwt beam="1">  1       21 0.31389041E-03 0.27038346E+02</pdfrwt>
<pdfrwt beam="2">  1       21 0.63385762E-01 0.27038346E+02</pdfrwt>
<totfact> 0.41205049E+07</totfact>
</mgrwt>
</event>
<event>
 4    1  0.2677450E+004  0.2452453E+02  0.7546771E-02  0.1667927E+00
         21   -1    0    0  501  502  0.00000000000E+00  0.00000000000E+00  0.59899000360E+02  0.59899000360E+02  0.00000000000E+00 0.  1.
         21   -1    0    0  502  503 -0.00000000000E+00 -0.00000000000E+00 -0.11356906571E+02  0.11356906571E+02  0.00000000000E+00 0. -1.
          2    1    1    2  501    0  0.23153681144E+02  0.80845344106E+01  0.36398083429E+02  0.43889328139E+02  0.00000000000E+00 0.  1.
         -2    1    1    2    0  503 -0.23153681144E+02 -0.80845344106E+01  0.12144010361E+02  0.27366578792E+02  0.00000000000E+00 0. -1.
<mgrwt>
<rscale>  2 0.24524532E+02</rscale>
<asrwt>0</asrwt>
<pdfrwt beam="1">  1       21 0.92152306E-02 0.24524532E+02</pdfrwt>
<pdfrwt beam="2">  1       21 0.17472164E-02 0.24524532E+02</pdfrwt>
<totfact> 0.99914169E+07</totfact>
</mgrwt>
</event>
<event>
 4    1  0.2677450E+004  0.2602435E+02  0.7546771E-02  0.1646710E+00
         21   -1    0    0  501  502  0.00000000000E+00  0.00000000000E+00  0.32490818635E+02  0.32490818635E+02  0.00000000000E+00 0.  1.
         21   -1    0    0  502  503 -0.00000000000E+00 -0.00000000000E+00 -0.22219833267E+02  0.22219833267E+02  0.00000000000E+00 0. -1.
          2    1    1    2  501    0  0.24990720520E+02 -0.72615894947E+01  0.11940326339E+02  0.28632816613E+02  0.00000000000E+00 0.  1.
         -2    1    1    2    0  503 -0.24990720520E+02  0.72615894947E+01 -0.16693409721E+01  0.26077835289E+02  0.00000000000E+00 0. -1.
<mgrwt>
<rscale>  2 0.26024350E+02</rscale>
<asrwt>0</asrwt>
<pdfrwt beam="1">  1       21 0.49985875E-02 0.26024350E+02</pdfrwt>
<pdfrwt beam="2">  1       21 0.34184359E-02 0.26024350E+02</pdfrwt>
<totfact> 0.96743311E+07</totfact>
</mgrwt>
</event>
<event>
 4    1  0.2677450E+004  0.3597229E+02  0.7546771E-02  0.1540132E+00
         21   -1    0    0  503  502  0.00000000000E+00  0.00000000000E+00  0.59038563716E+03  0.59038563716E+03  0.00000000000E+00 0. -1.
         21   -1    0    0  501  503 -0.00000000000E+00 -0.00000000000E+00 -0.36645832230E+01  0.36645832230E+01  0.00000000000E+00 0.  1.
          2    1    1    2  501    0 -0.23395837469E+02  0.27324719763E+02  0.10506035593E+03  0.11104811529E+03  0.00000000000E+00 0.  1.
         -2    1    1    2    0  502  0.23395837469E+02 -0.27324719763E+02  0.48166069801E+03  0.48300210510E+03  0.00000000000E+00 0. -1.
<mgrwt>
<rscale>  2 0.35972288E+02</rscale>
<asrwt>0</asrwt>
<pdfrwt beam="1">  1       21 0.90828484E-01 0.35972288E+02</pdfrwt>
<pdfrwt beam="2">  1       21 0.56378250E-03 0.35972288E+02</pdfrwt>
<totfact> 0.84803063E+06</totfact>
</mgrwt>
</event>
<event>
 4    1  0.2677450E+004  0.2154851E+02  0.7546771E-02  0.1716179E+00
         21   -1    0    0  503  502  0.00000000000E+00  0.00000000000E+00  0.43574572666E+02  0.43574572666E+02  0.00000000000E+00 0.  1.
         21   -1    0    0  501  503 -0.00000000000E+00 -0.00000000000E+00 -0.18867523089E+02  0.18867523089E+02  0.00000000000E+00 0. -1.
          2    1    1    2  501    0  0.11099898254E+02 -0.18469724933E+02 -0.82431511065E+01  0.23071367981E+02  0.00000000000E+00 0. -1.
         -2    1    1    2    0  502 -0.11099898254E+02  0.18469724933E+02  0.32950200684E+02  0.39370727774E+02  0.00000000000E+00 0.  1.
<mgrwt>
<rscale>  2 0.21548515E+02</rscale>
<asrwt>0</asrwt>
<pdfrwt beam="1">  1       21 0.67037804E-02 0.21548515E+02</pdfrwt>
<pdfrwt beam="2">  1       21 0.29026959E-02 0.21548515E+02</pdfrwt>
<totfact> 0.74038219E+07</totfact>
</mgrwt>
</event>
<event>
 4    1  0.2677450E+004  0.3121733E+02  0.7546771E-02  0.1585010E+00
         21   -1    0    0  501  502  0.00000000000E+00  0.00000000000E+00  0.45946554990E+01  0.45946554990E+01  0.00000000000E+00 0.  1.
         21   -1    0    0  502  503 -0.00000000000E+00 -0.00000000000E+00 -0.23491539782E+03  0.23491539782E+03  0.00000000000E+00 0. -1.
          2    1    1    2  501    0  0.14287839019E+02  0.27755707455E+02 -0.77838624807E+02  0.83865208233E+02  0.00000000000E+00 0.  1.
         -2    1    1    2    0  503 -0.14287839019E+02 -0.27755707455E+02 -0.15248211751E+03  0.15564484509E+03  0.00000000000E+00 0. -1.
<mgrwt>
<rscale>  2 0.31217329E+02</rscale>
<asrwt>0</asrwt>
<pdfrwt beam="1">  1       21 0.70686998E-03 0.31217329E+02</pdfrwt>
<pdfrwt beam="2">  1       21 0.36140835E-01 0.31217329E+02</pdfrwt>
<totfact> 0.38067250E+07</totfact>
</mgrwt>
</event>
<event>
 4    1  0.2677450E+004  0.2210365E+02  0.7546771E-02  0.1706466E+00
         21   -1    0    0  503  502  0.00000000000E+00  0.00000000000E+00  0.59868150670E+01  0.59868150670E+01  0.00000000000E+00 0. -1.
         21   -1    0    0  501  503 -0.00000000000E+00 -0.00000000000E+00 -0.86571568216E+02  0.86571568216E+02  0.00000000000E+00 0.  1.
          2    1    1    2  501    0 -0.12123132690E+01 -0.22070378600E+02 -0.51373917489E+02  0.55927191179E+02  0.00000000000E+00 0.  1.
         -2    1    1    2    0  502  0.12123132690E+01  0.22070378600E+02 -0.29210835660E+02  0.36631192104E+02  0.00000000000E+00 0. -1.
<mgrwt>
<rscale>  2 0.22103649E+02</rscale>
<asrwt>0</asrwt>
<pdfrwt beam="1">  1       21 0.92104850E-03 0.22103649E+02</pdfrwt>
<pdfrwt beam="2">  1       21 0.13318702E-01 0.22103649E+02</pdfrwt>
<totfact> 0.13829736E+08</totfact>
</mgrwt>
</event>
<event>
 4    1  0.2677450E+004  0.2776985E+02  0.7546771E-02  0.1624135E+00
         21   -1    0    0  503  502  0.00000000000E+00  0.00000000000E+00  0.12814386676E+03  0.12814386676E+03  0.00000000000E+00 0. -1.
         21   -1    0    0  501  503 -0.00000000000E+00 -0.00000000000E+00 -0.76446718821E+01  0.76446718821E+01  0.00000000000E+00 0.  1.
          2    1    1    2  501    0  0.26516233214E+02  0.82494774286E+01  0.28930503973E+02  0.40101602984E+02  0.00000000000E+00 0. -1.
         -2    1    1    2    0  502 -0.26516233214E+02 -0.82494774286E+01  0.91568690903E+02  0.95686935657E+02  0.00000000000E+00 0.  1.
<mgrwt>
<rscale>  2 0.27769849E+02</rscale>
<asrwt>0</asrwt>
<pdfrwt beam="1">  1       21 0.19714439E-01 0.27769849E+02</pdfrwt>
<pdfrwt beam="2">  1       21 0.11761035E-02 0.27769849E+02</pdfrwt>
<totfact> 0.51738197E+07</totfact>
</mgrwt>
</event>
<event>
 4    1  0.2677450E+004  0.6404747E+02  0.7546771E-02  0.1381591E+00
         21   -1    0    0  503  502  0.00000000000E+00  0.00000000000E+00  0.34194046263E+03  0.34194046263E+03  0.00000000000E+00 0. -1.
         21   -1    0    0  501  503 -0.00000000000E+00 -0.00000000000E+00 -0.12056648133E+02  0.12056648133E+02  0.00000000000E+00 0.  1.
          2    1    1    2  501    0 -0.10167343310E+02  0.63235304125E+02  0.15243715214E+03  0.16534558933E+03  0.00000000000E+00 0.  1.
         -2    1    1    2    0  502  0.10167343310E+02 -0.63235304125E+02  0.17744666236E+03  0.18865152144E+03  0.00000000000E+00 0. -1.
<mgrwt>
<rscale>  2 0.64047471E+02</rscale>
<asrwt>0</asrwt>
<pdfrwt beam="1">  1       21 0.52606218E-01 0.64047471E+02</pdfrwt>
<pdfrwt beam="2">  1       21 0.18548692E-02 0.64047471E+02</pdfrwt>
<totfact> 0.45300473E+06</totfact>
</mgrwt>
</event>
<event>
 4    1  0.2677450E+004  0.3582301E+02  0.7546771E-02  0.1541411E+00
         21   -1    0    0  501  502  0.00000000000E+00  0.00000000000E+00  0.84843919623E+01  0.84843919623E+01  0.00000000000E+00 0.  1.
         21   -1    0    0  502  503 -0.00000000000E+00 -0.00000000000E+00 -0.15882883177E+03  0.15882883177E+03  0.00000000000E+00 0. -1.
          2    1    1    2  501    0 -0.28153382614E+02 -0.22151181446E+02 -0.93443010239E+02  0.10007439210E+03  0.00000000000E+00 0.  1.
         -2    1    1    2    0  503  0.28153382614E+02  0.22151181446E+02 -0.56901429570E+02  0.67238831631E+02  0.00000000000E+00 0. -1.
<mgrwt>
<rscale>  2 0.35823006E+02</rscale>
<asrwt>0</asrwt>
<pdfrwt beam="1">  1       21 0.13052912E-02 0.35823006E+02</pdfrwt>
<pdfrwt beam="2">  1       21 0.24435202E-01 0.35823006E+02</pdfrwt>
<totfact> 0.31685160E+07</totfact>
</mgrwt>
</event>
<event>
 4    1  0.2677450E+004  0.2841713E+02  0.7546771E-02  0.1616274E+00
         21   -1    0    0  503  502  0.00000000000E+00  0.00000000000E+00  0.19922458734E+02  0.19922458734E+02  0.00000000000E+00 0. -1.
         21   -1    0    0  501  503 -0.00000000000E+00 -0.00000000000E+00 -0.43684839553E+02  0.43684839553E+02  0.00000000000E+00 0.  1.
          2    1    1    2  501    0 -0.81796034767E+00  0.28405359316E+02 -0.20422739544E+02  0.34994596547E+02  0.00000000000E+00 0. -1.
         -2    1    1    2    0  502  0.81796034767E+00 -0.28405359316E+02 -0.33396412751E+01  0.28612701740E+02  0.00000000000E+00 0.  1.
<mgrwt>
<rscale>  2 0.28417134E+02</rscale>
<asrwt>0</asrwt>
<pdfrwt beam="1">  1       21 0.30649937E-02 0.28417134E+02</pdfrwt>
<pdfrwt beam="2">  1       21 0.67207445E-02 0.28417134E+02</pdfrwt>
<totfact> 0.72837008E+07</totfact>
</mgrwt>
</event>
<event>
 4    1  0.2677450E+004  0.2121642E+02  0.7546771E-02  0.1722167E+00
         21   -1    0    0  503  502  0.00000000000E+00  0.00000000000E+00  0.73496146823E+02  0.73496146823E+02  0.00000000000E+00 0. -1.
         21   -1    0    0  501  503 -0.00000000000E+00 -0.00000000000E+00 -0.18704834986E+02  0.18704834986E+02  0.00000000000E+00 0.  1.
          2    1    1    2  501    0  0.15813655196E+02  0.14144424632E+02 -0.10411371388E+02  0.23633304742E+02  0.00000000000E+00 0.  1.
         -2    1    1    2    0  502 -0.15813655196E+02 -0.14144424632E+02  0.65202683224E+02  0.68567677068E+02  0.00000000000E+00 0. -1.
<mgrwt>
<rscale>  2 0.21216419E+02</rscale>
<asrwt>0</asrwt>
<pdfrwt beam="1">  1       21 0.11307099E-01 0.21216419E+02</pdfrwt>
<pdfrwt beam="2">  1       21 0.28776670E-02 0.21216419E+02</pdfrwt>
<totfact> 0.31784277E+07</totfact>
</mgrwt>
</event>
<event>
 4    1  0.2677450E+004  0.2675594E+02  0.7546771E-02  0.1636990E+00
         21   -1    0    0  503  502  0.00000000000E+00  0.00000000000E+00  0.59919904846E+02  0.59919904846E+02  0.00000000000E+00 0. -1.
         21   -1    0    0  501  503 -0.00000000000E+00 -0.00000000000E+00 -0.14037605827E+02  0.14037605827E+02  0.00000000000E+00 0.  1.
          2    1    1    2  501    0  0.26396755918E+02  0.43694144378E+01  0.86715535062E+01  0.28126079459E+02  0.00000000000E+00 0. -1.
         -2    1    1    2    0  502 -0.26396755918E+02 -0.43694144378E+01  0.37210745513E+02  0.45831431214E+02  0.00000000000E+00 0.  1.
<mgrwt>
<rscale>  2 0.26755943E+02</rscale>
<asrwt>0</asrwt>
<pdfrwt beam="1">  1       21 0.92184468E-02 0.26755943E+02</pdfrwt>
<pdfrwt beam="2">  1       21 0.21596317E-02 0.26755943E+02</pdfrwt>
<totfact> 0.73699531E+07</totfact>
</mgrwt>
</event>
<event>
 4    1  0.2677450E+004  0.4689484E+02  0.7546771E-02  0.1462848E+00
         21   -1    0    0  503  502  0.00000000000E+00  0.00000000000E+00  0.11087845385E+03  0.11087845385E+03  0.00000000000E+00 0. -1.
         21   -1    0    0  501  503 -0.00000000000E+00 -0.00000000000E+00 -0.29577799936E+02  0.29577799936E+02  0.00000000000E+00 0.  1.
          2    1    1    2  501    0 -0.89057429009E+01  0.46041439186E+02  0.34153875958E+00  0.46896087552E+02  0.00000000000E+00 0. -1.
         -2    1    1    2    0  502  0.89057429009E+01 -0.46041439186E+02  0.80959115152E+02  0.93560166231E+02  0.00000000000E+00 0.  1.
<mgrwt>
<rscale>  2 0.46894844E+02</rscale>
<asrwt>0</asrwt>
<pdfrwt beam="1">  1       21 0.17058224E-01 0.46894844E+02</pdfrwt>
<pdfrwt beam="2">  1       21 0.45504308E-02 0.46894844E+02</pdfrwt>
<totfact> 0.87432068E+06</totfact>
</mgrwt>
</event>
<event>
 4    1  0.2677450E+004  0.3149386E+02  0.7546771E-02  0.1582140E+00
         21   -1    0    0  501  502  0.00000000000E+00  0.00000000000E+00  0.12899325198E+02  0.12899325198E+02  0.00000000000E+00 0.  1.
         21   -1    0    0  502  503 -0.00000000000E+00 -0.00000000000E+00 -0.24864670661E+03  0.24864670661E+03  0.00000000000E+00 0. -1.
          2    1    1    2  501    0 -0.18834402463E+02 -0.25241407401E+02 -0.91860205716E+01  0.32806193587E+02  0.00000000000E+00 0.  1.
         -2    1    1    2    0  503  0.18834402463E+02  0.25241407401E+02 -0.22656136084E+03  0.22873983822E+03  0.00000000000E+00 0. -1.
<mgrwt>
<rscale>  2 0.31493862E+02</rscale>
<asrwt>0</asrwt>
<pdfrwt beam="1">  1       21 0.19845115E-02 0.31493862E+02</pdfrwt>
<pdfrwt beam="2">  1       21 0.38253341E-01 0.31493862E+02</pdfrwt>
<totfact> 0.70874367E+06</totfact>
</mgrwt>
</event>
<event>
 4    1  0.2677450E+004  0.2126351E+02  0.7546771E-02  0.1721310E+00
         21   -1    0    0  501  502  0.00000000000E+00  0.00000000000E+00  0.23825699407E+00  0.23825699407E+00  0.00000000000E+00 0.  1.
         21   -1    0    0  502  503 -0.00000000000E+00 -0.00000000000E+00 -0.21457429420E+04  0.21457429420E+04  0.00000000000E+00 0. -1.
          2    1    1    2  501    0 -0.15700629951E+02 -0.14339696213E+02 -0.70792797131E+03  0.70824723736E+03  0.00000000000E+00 0. -1.
         -2    1    1    2    0  503  0.15700629951E+02  0.14339696213E+02 -0.14375767137E+04  0.14377339616E+04  0.00000000000E+00 0.  1.
<mgrwt>
<rscale>  2 0.21263506E+02</rscale>
<asrwt>0</asrwt>
<pdfrwt beam="1">  1       21 0.36655454E-04 0.21263506E+02</pdfrwt>
<pdfrwt beam="2">  1       21 0.33010951E+00 0.21263506E+02</pdfrwt>
<totfact> 0.14313354E+07</totfact>
</mgrwt>
</event>
<event>
 4    1  0.2677450E+004  0.3667574E+02  0.7546771E-02  0.1534204E+00
         21   -1    0    0  503  502  0.00000000000E+00  0.00000000000E+00  0.13642079350E+01  0.13642079350E+01  0.00000000000E+00 0.  1.
         21   -1    0    0  501  503 -0.00000000000E+00 -0.00000000000E+00 -0.15459608913E+04  0.15459608913E+04  0.00000000000E+00 0. -1.
          2    1    1    2  501    0  0.32239404297E+02  0.17485159325E+02 -0.12379175602E+04  0.12384607365E+04  0.00000000000E+00 0. -1.
         -2    1    1    2    0  502 -0.32239404297E+02 -0.17485159325E+02 -0.30667912315E+03  0.30886436272E+03  0.00000000000E+00 0.  1.
<mgrwt>
<rscale>  2 0.36675741E+02</rscale>
<asrwt>0</asrwt>
<pdfrwt beam="1">  1       21 0.20987862E-03 0.36675741E+02</pdfrwt>
<pdfrwt beam="2">  1       21 0.23783960E+00 0.36675741E+02</pdfrwt>
<totfact> 0.34375350E+06</totfact>
</mgrwt>
</event>
<event>
 4    1  0.2677450E+004  0.4823108E+02  0.7546771E-02  0.1455123E+00
         21   -1    0    0  503  502  0.00000000000E+00  0.00000000000E+00  0.18270449837E+02  0.18270449837E+02  0.00000000000E+00 0.  1.
         21   -1    0    0  501  503 -0.00000000000E+00 -0.00000000000E+00 -0.13013565586E+03  0.13013565586E+03  0.00000000000E+00 0. -1.
          2    1    1    2  501    0  0.25460802362E+02 -0.40963215406E+02 -0.66842695800E+02  0.82426836984E+02  0.00000000000E+00 0. -1.
         -2    1    1    2    0  502 -0.25460802362E+02  0.40963215406E+02 -0.45022510227E+02  0.65979268717E+02  0.00000000000E+00 0.  1.
<mgrwt>
<rscale>  2 0.48231084E+02</rscale>
<asrwt>0</asrwt>
<pdfrwt beam="1">  1       21 0.28108384E-02 0.48231084E+02</pdfrwt>
<pdfrwt beam="2">  1       21 0.20020870E-01 0.48231084E+02</pdfrwt>
<totfact> 0.14317743E+07</totfact>
</mgrwt>
</event>
<event>
 4    1  0.2677450E+004  0.2460493E+02  0.7546771E-02  0.1666742E+00
         21   -1    0    0  501  502  0.00000000000E+00  0.00000000000E+00  0.15369969055E+02  0.15369969055E+02  0.00000000000E+00 0. -1.
         21   -1    0    0  502  503 -0.00000000000E+00 -0.00000000000E+00 -0.44097722991E+02  0.44097722991E+02  0.00000000000E+00 0.  1.
          2    1    1    2  501    0  0.23048353709E+02 -0.86125376579E+01 -0.46473631951E+01  0.25039976004E+02  0.00000000000E+00 0. -1.
         -2    1    1    2    0  503 -0.23048353709E+02  0.86125376579E+01 -0.24080390740E+02  0.34427716041E+02  0.00000000000E+00 0.  1.
<mgrwt>
<rscale>  2 0.24604927E+02</rscale>
<asrwt>0</asrwt>
<pdfrwt beam="1">  1       21 0.23646107E-02 0.24604927E+02</pdfrwt>
<pdfrwt beam="2">  1       21 0.67842650E-02 0.24604927E+02</pdfrwt>
<totfact> 0.10357124E+08</totfact>
</mgrwt>
</event>
<event>
 4    1  0.2677450E+004  0.2312239E+02  0.7546771E-02  0.1689534E+00
         21   -1    0    0  503  502  0.00000000000E+00  0.00000000000E+00  0.22822646390E+01  0.22822646390E+01  0.00000000000E+00 0. -1.
         21   -1    0    0  501  503 -0.00000000000E+00 -0.00000000000E+00 -0.38941313683E+03  0.38941313683E+03  0.00000000000E+00 0.  1.
          2    1    1    2  501    0 -0.14185273943E+02  0.18259875120E+02 -0.31718647880E+03  0.31802815499E+03  0.00000000000E+00 0.  1.
         -2    1    1    2    0  502  0.14185273943E+02 -0.18259875120E+02 -0.69944393397E+02  0.73667246480E+02  0.00000000000E+00 0. -1.
<mgrwt>
<rscale>  2 0.23122393E+02</rscale>
<asrwt>0</asrwt>
<pdfrwt beam="1">  1       21 0.35111783E-03 0.23122393E+02</pdfrwt>
<pdfrwt beam="2">  1       21 0.59909680E-01 0.23122393E+02</pdfrwt>
<totfact> 0.37900748E+07</totfact>
</mgrwt>
</event>
<event>
 4    1  0.2677450E+004  0.2730497E+02  0.7546771E-02  0.1629944E+00
         21   -1    0    0  501  502  0.00000000000E+00  0.00000000000E+00  0.11698890970E+02  0.11698890970E+02  0.00000000000E+00 0. -1.
         21   -1    0    0  502  503 -0.00000000000E+00 -0.00000000000E+00 -0.63812220445E+02  0.63812220445E+02  0.00000000000E+00 0.  1.
          2    1    1    2  501    0  0.27167253431E+02  0.27389400691E+01 -0.27418147214E+02  0.38695170865E+02  0.00000000000E+00 0. -1.
         -2    1    1    2    0  503 -0.27167253431E+02 -0.27389400691E+01 -0.24695182261E+02  0.36815940550E+02  0.00000000000E+00 0.  1.
<mgrwt>
<rscale>  2 0.27304971E+02</rscale>
<asrwt>0</asrwt>
<pdfrwt beam="1">  1       21 0.17998294E-02 0.27304971E+02</pdfrwt>
<pdfrwt beam="2">  1       21 0.98172646E-02 0.27304971E+02</pdfrwt>
<totfact> 0.88392889E+07</totfact>
</mgrwt>
</event>
<event>
 4    1  0.2677450E+004  0.2247475E+02  0.7546771E-02  0.1700168E+00
         21   -1    0    0  503  502  0.00000000000E+00  0.00000000000E+00  0.38083654642E+01  0.38083654642E+01  0.00000000000E+00 0.  1.
         21   -1    0    0  501  503 -0.00000000000E+00 -0.00000000000E+00 -0.21610430899E+03  0.21610430899E+03  0.00000000000E+00 0. -1.
          2    1    1    2  501    0 -0.19603588276E+02  0.10991529182E+02 -0.17448522816E+03  0.17592671552E+03  0.00000000000E+00 0. -1.
         -2    1    1    2    0  502  0.19603588276E+02 -0.10991529182E+02 -0.37810715370E+02  0.43985958940E+02  0.00000000000E+00 0.  1.
<mgrwt>
<rscale>  2 0.22474750E+02</rscale>
<asrwt>0</asrwt>
<pdfrwt beam="1">  1       21 0.58590232E-03 0.22474750E+02</pdfrwt>
<pdfrwt beam="2">  1       21 0.33246820E-01 0.22474750E+02</pdfrwt>
<totfact> 0.54717690E+07</totfact>
</mgrwt>
</event>
<event>
 4    1  0.2677450E+004  0.2535282E+02  0.7546771E-02  0.1655985E+00
         21   -1    0    0  503  502  0.00000000000E+00  0.00000000000E+00  0.17523835293E+02  0.17523835293E+02  0.00000000000E+00 0. -1.
         21   -1    0    0  501  503 -0.00000000000E+00 -0.00000000000E+00 -0.58245883077E+02  0.58245883077E+02  0.00000000000E+00 0.  1.
          2    1    1    2  501    0  0.21958461588E+02 -0.12672474551E+02 -0.43413715649E+02  0.50274410519E+02  0.00000000000E+00 0.  1.
         -2    1    1    2    0  502 -0.21958461588E+02  0.12672474551E+02  0.26916678654E+01  0.25495307852E+02  0.00000000000E+00 0. -1.
<mgrwt>
<rscale>  2 0.25352823E+02</rscale>
<asrwt>0</asrwt>
<pdfrwt beam="1">  1       21 0.26959747E-02 0.25352823E+02</pdfrwt>
<pdfrwt beam="2">  1       21 0.89609051E-02 0.25352823E+02</pdfrwt>
<totfact> 0.54023779E+07</totfact>
</mgrwt>
</event>
<event>
 4    1  0.2677450E+004  0.3100892E+02  0.7546771E-02  0.1587197E+00
         21   -1    0    0  501  502  0.00000000000E+00  0.00000000000E+00  0.51489433884E+02  0.51489433884E+02  0.00000000000E+00 0.  1.
         21   -1    0    0  502  503 -0.00000000000E+00 -0.00000000000E+00 -0.18674814058E+02  0.18674814058E+02  0.00000000000E+00 0. -1.
          2    1    1    2  501    0 -0.10746765109E+02  0.29087116962E+02  0.16461216022E+02  0.35107334937E+02  0.00000000000E+00 0. -1.
         -2    1    1    2    0  503  0.10746765109E+02 -0.29087116962E+02  0.16353403804E+02  0.35056913005E+02  0.00000000000E+00 0.  1.
<mgrwt>
<rscale>  2 0.31008923E+02</rscale>
<asrwt>0</asrwt>
<pdfrwt beam="1">  1       21 0.79214513E-02 0.31008923E+02</pdfrwt>
<pdfrwt beam="2">  1       21 0.28730483E-02 0.31008923E+02</pdfrwt>
<totfact> 0.62850583E+07</totfact>
</mgrwt>
</event>
<event>
 4    1  0.2677450E+004  0.2149990E+02  0.7546771E-02  0.1717047E+00
         21   -1    0    0  503  502  0.00000000000E+00  0.00000000000E+00  0.72800077036E+02  0.72800077036E+02  0.00000000000E+00 0. -1.
         21   -1    0    0  501  503 -0.00000000000E+00 -0.00000000000E+00 -0.71615507892E+01  0.71615507892E+01  0.00000000000E+00 0.  1.
          2    1    1    2  501    0  0.17506775697E+02  0.12480317326E+02  0.19356492430E+02  0.28929557809E+02  0.00000000000E+00 0.  1.
         -2    1    1    2    0  502 -0.17506775697E+02 -0.12480317326E+02  0.46282033817E+02  0.51032070016E+02  0.00000000000E+00 0. -1.
<mgrwt>
<rscale>  2 0.21499896E+02</rscale>
<asrwt>0</asrwt>
<pdfrwt beam="1">  1       21 0.11200011E-01 0.21499896E+02</pdfrwt>
<pdfrwt beam="2">  1       21 0.11017771E-02 0.21499896E+02</pdfrwt>
<totfact> 0.14009447E+08</totfact>
</mgrwt>
</event>
<event>
 4    1  0.2677450E+004  0.2662038E+02  0.7546771E-02  0.1638762E+00
         21   -1    0    0  503  502  0.00000000000E+00  0.00000000000E+00  0.46387240080E+02  0.46387240080E+02  0.00000000000E+00 0.  1.
         21   -1    0    0  501  503 -0.00000000000E+00 -0.00000000000E+00 -0.32048418896E+02  0.32048418896E+02  0.00000000000E+00 0. -1.
          2    1    1    2  501    0 -0.16938603556E+02 -0.20536020255E+02 -0.21201214614E+02  0.34031396085E+02  0.00000000000E+00 0. -1.
         -2    1    1    2    0  502  0.16938603556E+02  0.20536020255E+02  0.35540035798E+02  0.44404262891E+02  0.00000000000E+00 0.  1.
<mgrwt>
<rscale>  2 0.26620376E+02</rscale>
<asrwt>0</asrwt>
<pdfrwt beam="1">  1       21 0.71364985E-02 0.26620376E+02</pdfrwt>
<pdfrwt beam="2">  1       21 0.49305260E-02 0.26620376E+02</pdfrwt>
<totfact> 0.30620559E+07</totfact>
</mgrwt>
</event>
<event>
 4    1  0.2677450E+004  0.3523959E+02  0.7546771E-02  0.1546483E+00
         21   -1    0    0  501  502  0.00000000000E+00  0.00000000000E+00  0.75324131538E+01  0.75324131538E+01  0.00000000000E+00 0. -1.
         21   -1    0    0  502  503 -0.00000000000E+00 -0.00000000000E+00 -0.34803342082E+03  0.34803342082E+03  0.00000000000E+00 0.  1.
          2    1    1    2  501    0  0.99607226302E+01 -0.33802555815E+02 -0.41275589023E+02  0.54272488649E+02  0.00000000000E+00 0. -1.
         -2    1    1    2    0  503 -0.99607226302E+01  0.33802555815E+02 -0.29922541865E+03  0.30129334533E+03  0.00000000000E+00 0.  1.
<mgrwt>
<rscale>  2 0.35239591E+02</rscale>
<asrwt>0</asrwt>
<pdfrwt beam="1">  1       21 0.11588326E-02 0.35239591E+02</pdfrwt>
<pdfrwt beam="2">  1       21 0.53543611E-01 0.35239591E+02</pdfrwt>
<totfact> 0.85643086E+06</totfact>
</mgrwt>
</event>
<event>
 4    1  0.2677450E+004  0.2209253E+02  0.7546771E-02  0.1706657E+00
         21   -1    0    0  503  502  0.00000000000E+00  0.00000000000E+00  0.36038771185E+01  0.36038771185E+01  0.00000000000E+00 0.  1.
         21   -1    0    0  501  503 -0.00000000000E+00 -0.00000000000E+00 -0.13545728758E+03  0.13545728758E+03  0.00000000000E+00 0. -1.
          2    1    1    2  501    0  0.10824422143E+02  0.19259066230E+02 -0.64973888869E+02  0.68627151927E+02  0.00000000000E+00 0.  1.
         -2    1    1    2    0  502 -0.10824422143E+02 -0.19259066230E+02 -0.66879521597E+02  0.70434012777E+02  0.00000000000E+00 0. -1.
<mgrwt>
<rscale>  2 0.22092527E+02</rscale>
<asrwt>0</asrwt>
<pdfrwt beam="1">  1       21 0.55444260E-03 0.22092527E+02</pdfrwt>
<pdfrwt beam="2">  1       21 0.20839584E-01 0.22092527E+02</pdfrwt>
<totfact> 0.13644412E+08</totfact>
</mgrwt>
</event>
<event>
 4    1  0.2677450E+004  0.2791801E+02  0.7546771E-02  0.1622312E+00
         21   -1    0    0  501  502  0.00000000000E+00  0.00000000000E+00  0.60008597889E+03  0.60008597889E+03  0.00000000000E+00 0. -1.
         21   -1    0    0  502  503 -0.00000000000E+00 -0.00000000000E+00 -0.15219046612E+01  0.15219046612E+01  0.00000000000E+00 0.  1.
          2    1    1    2  501    0  0.15786195727E+02  0.23026313018E+02  0.41444323382E+03  0.41538248533E+03  0.00000000000E+00 0. -1.
         -2    1    1    2    0  503 -0.15786195727E+02 -0.23026313018E+02  0.18412084041E+03  0.18622539822E+03  0.00000000000E+00 0.  1.
<mgrwt>
<rscale>  2 0.27918006E+02</rscale>
<asrwt>0</asrwt>
<pdfrwt beam="1">  1       21 0.92320731E-01 0.27918006E+02</pdfrwt>
<pdfrwt beam="2">  1       21 0.23413966E-03 0.27918006E+02</pdfrwt>
<totfact> 0.28909287E+07</totfact>
</mgrwt>
</event>
<event>
 4    1  0.2677450E+004  0.2371508E+02  0.7546771E-02  0.1680174E+00
         21   -1    0    0  501  502  0.00000000000E+00  0.00000000000E+00  0.11706469113E+02  0.11706469113E+02  0.00000000000E+00 0.  1.
         21   -1    0    0  502  503 -0.00000000000E+00 -0.00000000000E+00 -0.57271828445E+02  0.57271828445E+02  0.00000000000E+00 0. -1.
          2    1    1    2  501    0 -0.99758204014E+01 -0.21514836350E+02 -0.89373671407E+01  0.25343277358E+02  0.00000000000E+00 0.  1.
         -2    1    1    2    0  503  0.99758204014E+01  0.21514836350E+02 -0.36627992191E+02  0.43635020199E+02  0.00000000000E+00 0. -1.
<mgrwt>
<rscale>  2 0.23715083E+02</rscale>
<asrwt>0</asrwt>
<pdfrwt beam="1">  1       21 0.18009953E-02 0.23715083E+02</pdfrwt>
<pdfrwt beam="2">  1       21 0.88110505E-02 0.23715083E+02</pdfrwt>
<totfact> 0.10172952E+08</totfact>
</mgrwt>
</event>
<event>
 4    1  0.2677450E+004  0.8356377E+02  0.7546771E-02  0.1319232E+00
         21   -1    0    0  503  502  0.00000000000E+00  0.00000000000E+00  0.55578462216E+02  0.55578462216E+02  0.00000000000E+00 0. -1.
         21   -1    0    0  501  503 -0.00000000000E+00 -0.00000000000E+00 -0.24627649774E+03  0.24627649774E+03  0.00000000000E+00 0.  1.
          2    1    1    2  501    0  0.47900824378E+02  0.68471994020E+02 -0.20098098999E+03  0.21766088597E+03  0.00000000000E+00 0.  1.
         -2    1    1    2    0  502 -0.47900824378E+02 -0.68471994020E+02  0.10282954475E+02  0.84194073983E+02  0.00000000000E+00 0. -1.
<mgrwt>
<rscale>  2 0.83563766E+02</rscale>
<asrwt>0</asrwt>
<pdfrwt beam="1">  1       21 0.85505328E-02 0.83563766E+02</pdfrwt>
<pdfrwt beam="2">  1       21 0.37888691E-01 0.83563766E+02</pdfrwt>
<totfact> 0.71966599E+05</totfact>
</mgrwt>
</event>
<event>
 4    1  0.2677450E+004  0.2006005E+02  0.7546771E-02  0.1744137E+00
         21   -1    0    0  501  502  0.00000000000E+00  0.00000000000E+00  0.80789217361E+01  0.80789217361E+01  0.00000000000E+00 0.  1.
         21   -1    0    0  502  503 -0.00000000000E+00 -0.00000000000E+00 -0.98374301092E+02  0.98374301092E+02  0.00000000000E+00 0. -1.
          2    1    1    2  501    0  0.49382824153E+01  0.19442710310E+02 -0.77495852735E+01  0.21504922444E+02  0.00000000000E+00 0.  1.
         -2    1    1    2    0  503 -0.49382824153E+01 -0.19442710310E+02 -0.82545794082E+02  0.84948300384E+02  0.00000000000E+00 0. -1.
<mgrwt>
<rscale>  2 0.20060050E+02</rscale>
<asrwt>0</asrwt>
<pdfrwt beam="1">  1       21 0.12429110E-02 0.20060050E+02</pdfrwt>
<pdfrwt beam="2">  1       21 0.15134508E-01 0.20060050E+02</pdfrwt>
<totfact> 0.69135955E+07</totfact>
</mgrwt>
</event>
<event>
 4    1  0.2677450E+004  0.2128467E+02  0.7546771E-02  0.1720925E+00
         21   -1    0    0  501  502  0.00000000000E+00  0.00000000000E+00  0.12436469644E+01  0.12436469644E+01  0.00000000000E+00 0. -1.
         21   -1    0    0  502  503 -0.00000000000E+00 -0.00000000000E+00 -0.57435086848E+03  0.57435086848E+03  0.00000000000E+00 0.  1.
          2    1    1    2  501    0 -0.15429402465E+02 -0.14661886493E+02 -0.11250139905E+03  0.11449717099E+03  0.00000000000E+00 0. -1.
         -2    1    1    2    0  503  0.15429402465E+02  0.14661886493E+02 -0.46060582246E+03  0.46109734445E+03  0.00000000000E+00 0.  1.
<mgrwt>
<rscale>  2 0.21284675E+02</rscale>
<asrwt>0</asrwt>
<pdfrwt beam="1">  1       21 0.19133011E-03 0.21284675E+02</pdfrwt>
<pdfrwt beam="2">  1       21 0.88361761E-01 0.21284675E+02</pdfrwt>
<totfact> 0.40293163E+07</totfact>
</mgrwt>
</event>
<event>
 4    1  0.2677450E+004  0.3099812E+02  0.7546771E-02  0.1587311E+00
         21   -1    0    0  501  502  0.00000000000E+00  0.00000000000E+00  0.84209513154E+01  0.84209513154E+01  0.00000000000E+00 0. -1.
         21   -1    0    0  502  503 -0.00000000000E+00 -0.00000000000E+00 -0.17761464956E+03  0.17761464956E+03  0.00000000000E+00 0.  1.
          2    1    1    2  501    0  0.88090090528E+01 -0.29720104447E+02 -0.28975409063E+02  0.42431799151E+02  0.00000000000E+00 0. -1.
         -2    1    1    2    0  503 -0.88090090528E+01  0.29720104447E+02 -0.14021828919E+03  0.14360380173E+03  0.00000000000E+00 0.  1.
<mgrwt>
<rscale>  2 0.30998117E+02</rscale>
<asrwt>0</asrwt>
<pdfrwt beam="1">  1       21 0.12955310E-02 0.30998117E+02</pdfrwt>
<pdfrwt beam="2">  1       21 0.27325330E-01 0.30998117E+02</pdfrwt>
<totfact> 0.25475624E+07</totfact>
</mgrwt>
</event>
<event>
 4    1  0.2677450E+004  0.2643144E+02  0.7546771E-02  0.1641254E+00
         21   -1    0    0  503  502  0.00000000000E+00  0.00000000000E+00  0.39633935309E+01  0.39633935309E+01  0.00000000000E+00 0.  1.
         21   -1    0    0  501  503 -0.00000000000E+00 -0.00000000000E+00 -0.19577672350E+03  0.19577672350E+03  0.00000000000E+00 0. -1.
          2    1    1    2  501    0  0.23209484246E+02 -0.12646773499E+02 -0.64380964631E+02  0.69595471446E+02  0.00000000000E+00 0.  1.
         -2    1    1    2    0  502 -0.23209484246E+02  0.12646773499E+02 -0.12743236533E+03  0.13014464558E+03  0.00000000000E+00 0. -1.
<mgrwt>
<rscale>  2 0.26431440E+02</rscale>
<asrwt>0</asrwt>
<pdfrwt beam="1">  1       21 0.60975285E-03 0.26431440E+02</pdfrwt>
<pdfrwt beam="2">  1       21 0.30119496E-01 0.26431440E+02</pdfrwt>
<totfact> 0.64279218E+07</totfact>
</mgrwt>
</event>
<event>
 4    1  0.2677450E+004  0.2119051E+02  0.7546771E-02  0.1722640E+00
         21   -1    0    0  503  502  0.00000000000E+00  0.00000000000E+00  0.33278342071E+02  0.33278342071E+02  0.00000000000E+00 0.  1.
         21   -1    0    0  501  503 -0.00000000000E+00 -0.00000000000E+00 -0.84789960420E+02  0.84789960420E+02  0.00000000000E+00 0. -1.
          2    1    1    2  501    0 -0.16979840526E+02  0.12677639856E+02 -0.79889225661E+02  0.82651835511E+02  0.00000000000E+00 0. -1.
         -2    1    1    2    0  502  0.16979840526E+02 -0.12677639856E+02  0.28377607311E+02  0.35416466980E+02  0.00000000000E+00 0.  1.
<mgrwt>
<rscale>  2 0.21190506E+02</rscale>
<asrwt>0</asrwt>
<pdfrwt beam="1">  1       21 0.51197449E-02 0.21190506E+02</pdfrwt>
<pdfrwt beam="2">  1       21 0.13044609E-01 0.21190506E+02</pdfrwt>
<totfact> 0.10139081E+07</totfact>
</mgrwt>
</event>
<event>
 4    1  0.2677450E+004  0.2308833E+02  0.7546771E-02  0.1690082E+00
         21   -1    0    0  503  502  0.00000000000E+00  0.00000000000E+00  0.30061343627E+02  0.30061343627E+02  0.00000000000E+00 0.  1.
         21   -1    0    0  501  503 -0.00000000000E+00 -0.00000000000E+00 -0.64228135064E+02  0.64228135064E+02  0.00000000000E+00 0. -1.
          2    1    1    2  501    0 -0.85493181963E+01 -0.21447143412E+02 -0.57195498366E+02  0.61679784658E+02  0.00000000000E+00 0. -1.
         -2    1    1    2    0  502  0.85493181963E+01  0.21447143412E+02  0.23028706928E+02  0.32609694033E+02  0.00000000000E+00 0.  1.
<mgrwt>
<rscale>  2 0.23088326E+02</rscale>
<asrwt>0</asrwt>
<pdfrwt beam="1">  1       21 0.46248221E-02 0.23088326E+02</pdfrwt>
<pdfrwt beam="2">  1       21 0.98812515E-02 0.23088326E+02</pdfrwt>
<totfact> 0.19266581E+07</totfact>
</mgrwt>
</event>
<event>
 4    1  0.2677450E+004  0.2129281E+02  0.7546771E-02  0.1720777E+00
         21   -1    0    0  501  502  0.00000000000E+00  0.00000000000E+00  0.13071718588E+01  0.13071718588E+01  0.00000000000E+00 0.  1.
         21   -1    0    0  502  503 -0.00000000000E+00 -0.00000000000E+00 -0.34719428655E+03  0.34719428655E+03  0.00000000000E+00 0. -1.
          2    1    1    2  501    0  0.21021247440E+02 -0.33898543802E+01 -0.17848292200E+03  0.17974853936E+03  0.00000000000E+00 0.  1.
         -2    1    1    2    0  503 -0.21021247440E+02  0.33898543802E+01 -0.16740419269E+03  0.16875291904E+03  0.00000000000E+00 0. -1.
<mgrwt>
<rscale>  2 0.21292815E+02</rscale>
<asrwt>0</asrwt>
<pdfrwt beam="1">  1       21 0.20110344E-03 0.21292815E+02</pdfrwt>
<pdfrwt beam="2">  1       21 0.53414484E-01 0.21292815E+02</pdfrwt>
<totfact> 0.10464453E+08</totfact>
</mgrwt>
</event>
<event>
 4    1  0.2677450E+004  0.2129849E+02  0.7546771E-02  0.1720674E+00
         21   -1    0    0  503  502  0.00000000000E+00  0.00000000000E+00  0.89124420325E+01  0.89124420325E+01  0.00000000000E+00 0. -1.
         21   -1    0    0  501  503 -0.00000000000E+00 -0.00000000000E+00 -0.91276188016E+02  0.91276188016E+02  0.00000000000E+00 0.  1.
          2    1    1    2  501    0 -0.10730629797E+01  0.21271444500E+02 -0.74500178248E+02  0.77484852547E+02  0.00000000000E+00 0. -1.
         -2    1    1    2    0  502  0.10730629797E+01 -0.21271444500E+02 -0.78635677352E+01  0.22703777501E+02  0.00000000000E+00 0.  1.
<mgrwt>
<rscale>  2 0.21298493E+02</rscale>
<asrwt>0</asrwt>
<pdfrwt beam="1">  1       21 0.13711449E-02 0.21298493E+02</pdfrwt>
<pdfrwt beam="2">  1       21 0.14042490E-01 0.21298493E+02</pdfrwt>
<totfact> 0.68803321E+07</totfact>
</mgrwt>
</event>
<event>
 4    1  0.2677450E+004  0.3141360E+02  0.7546771E-02  0.1582969E+00
         21   -1    0    0  501  502  0.00000000000E+00  0.00000000000E+00  0.31939322504E+02  0.31939322504E+02  0.00000000000E+00 0. -1.
         21   -1    0    0  502  503 -0.00000000000E+00 -0.00000000000E+00 -0.66716485955E+02  0.66716485955E+02  0.00000000000E+00 0.  1.
          2    1    1    2  501    0  0.18113165494E+02 -0.25665691742E+02  0.18755613285E+02  0.36586712431E+02  0.00000000000E+00 0. -1.
         -2    1    1    2    0  503 -0.18113165494E+02  0.25665691742E+02 -0.53532776735E+02  0.62069096028E+02  0.00000000000E+00 0.  1.
<mgrwt>
<rscale>  2 0.31413604E+02</rscale>
<asrwt>0</asrwt>
<pdfrwt beam="1">  1       21 0.49137420E-02 0.31413604E+02</pdfrwt>
<pdfrwt beam="2">  1       21 0.10264075E-01 0.31413604E+02</pdfrwt>
<totfact> 0.17446867E+07</totfact>
</mgrwt>
</event>
<event>
 4    1  0.2677450E+004  0.2541154E+02  0.7546771E-02  0.1655160E+00
         21   -1    0    0  503  502  0.00000000000E+00  0.00000000000E+00  0.27193534706E+02  0.27193534706E+02  0.00000000000E+00 0.  1.
         21   -1    0    0  501  503 -0.00000000000E+00 -0.00000000000E+00 -0.25302266700E+02  0.25302266700E+02  0.00000000000E+00 0. -1.
          2    1    1    2  501    0 -0.15709417381E+02 -0.19974000234E+02 -0.55633273154E+01  0.26013402134E+02  0.00000000000E+00 0. -1.
         -2    1    1    2    0  502  0.15709417381E+02  0.19974000234E+02  0.74545953212E+01  0.26482399271E+02  0.00000000000E+00 0.  1.
<mgrwt>
<rscale>  2 0.25411542E+02</rscale>
<asrwt>0</asrwt>
<pdfrwt beam="1">  1       21 0.41836207E-02 0.25411542E+02</pdfrwt>
<pdfrwt beam="2">  1       21 0.38926564E-02 0.25411542E+02</pdfrwt>
<totfact> 0.10399763E+08</totfact>
</mgrwt>
</event>
<event>
 4    1  0.2677450E+004  0.2310662E+02  0.7546771E-02  0.1689788E+00
         21   -1    0    0  503  502  0.00000000000E+00  0.00000000000E+00  0.21345169974E+01  0.21345169974E+01  0.00000000000E+00 0.  1.
         21   -1    0    0  501  503 -0.00000000000E+00 -0.00000000000E+00 -0.56768666069E+03  0.56768666069E+03  0.00000000000E+00 0. -1.
          2    1    1    2  501    0 -0.22891653933E+02  0.31445107911E+01 -0.49586553023E+03  0.49640360579E+03  0.00000000000E+00 0. -1.
         -2    1    1    2    0  502  0.22891653933E+02 -0.31445107911E+01 -0.69686613464E+02  0.73417571902E+02  0.00000000000E+00 0.  1.
<mgrwt>
<rscale>  2 0.23106617E+02</rscale>
<asrwt>0</asrwt>
<pdfrwt beam="1">  1       21 0.32838760E-03 0.23106617E+02</pdfrwt>
<pdfrwt beam="2">  1       21 0.87336312E-01 0.23106617E+02</pdfrwt>
<totfact> 0.19202792E+07</totfact>
</mgrwt>
</event>
<event>
 4    1  0.2677450E+004  0.5695312E+02  0.7546771E-02  0.1411082E+00
         21   -1    0    0  503  502  0.00000000000E+00  0.00000000000E+00  0.46392083800E+03  0.46392083800E+03  0.00000000000E+00 0.  1.
         21   -1    0    0  501  503 -0.00000000000E+00 -0.00000000000E+00 -0.72315077694E+01  0.72315077694E+01  0.00000000000E+00 0. -1.
          2    1    1    2  501    0 -0.36011159570E+02  0.44123168710E+02  0.18545754255E+03  0.19400556105E+03  0.00000000000E+00 0. -1.
         -2    1    1    2    0  502  0.36011159570E+02 -0.44123168710E+02  0.27123178769E+03  0.27714678472E+03  0.00000000000E+00 0.  1.
<mgrwt>
<rscale>  2 0.56953118E+02</rscale>
<asrwt>0</asrwt>
<pdfrwt beam="1">  1       21 0.71372414E-01 0.56953118E+02</pdfrwt>
<pdfrwt beam="2">  1       21 0.11125400E-02 0.56953118E+02</pdfrwt>
<totfact> 0.52940991E+06</totfact>
</mgrwt>
</event>
<event>
 4    1  0.2677450E+004  0.2244196E+02  0.7546771E-02  0.1700719E+00
         21   -1    0    0  501  502  0.00000000000E+00  0.00000000000E+00  0.20550463042E+02  0.20550463042E+02  0.00000000000E+00 0. -1.
         21   -1    0    0  502  503 -0.00000000000E+00 -0.00000000000E+00 -0.43416870614E+02  0.43416870614E+02  0.00000000000E+00 0.  1.
          2    1    1    2  501    0  0.21992312600E+02  0.44698728986E+01  0.96743018549E+01  0.24438365199E+02  0.00000000000E+00 0. -1.
         -2    1    1    2    0  503 -0.21992312600E+02 -0.44698728986E+01 -0.32540709427E+02  0.39528968456E+02  0.00000000000E+00 0.  1.
<mgrwt>
<rscale>  2 0.22441960E+02</rscale>
<asrwt>0</asrwt>
<pdfrwt beam="1">  1       21 0.31616097E-02 0.22441960E+02</pdfrwt>
<pdfrwt beam="2">  1       21 0.66795185E-02 0.22441960E+02</pdfrwt>
<totfact> 0.65941762E+07</totfact>
</mgrwt>
</event>
<event>
 4    1  0.2677450E+004  0.2801045E+02  0.7546771E-02  0.1621182E+00
         21   -1    0    0  501  502  0.00000000000E+00  0.00000000000E+00  0.38442295968E+01  0.38442295968E+01  0.00000000000E+00 0. -1.
         21   -1    0    0  502  503 -0.00000000000E+00 -0.00000000000E+00 -0.21743757322E+03  0.21743757322E+03  0.00000000000E+00 0.  1.
          2    1    1    2  501    0  0.10479307670E+02 -0.25976326757E+02 -0.79388554316E+02  0.84185081798E+02  0.00000000000E+00 0. -1.
         -2    1    1    2    0  503 -0.10479307670E+02  0.25976326757E+02 -0.13420478931E+03  0.13709672102E+03  0.00000000000E+00 0.  1.
<mgrwt>
<rscale>  2 0.28010452E+02</rscale>
<asrwt>0</asrwt>
<pdfrwt beam="1">  1       21 0.59142017E-03 0.28010452E+02</pdfrwt>
<pdfrwt beam="2">  1       21 0.33451921E-01 0.28010452E+02</pdfrwt>
<totfact> 0.56172809E+07</totfact>
</mgrwt>
</event>
<event>
 4    1  0.2677450E+004  0.2092769E+02  0.7546771E-02  0.1727485E+00
         21   -1    0    0  501  502  0.00000000000E+00  0.00000000000E+00  0.17672964576E+02  0.17672964576E+02  0.00000000000E+00 0. -1.
         21   -1    0    0  502  503 -0.00000000000E+00 -0.00000000000E+00 -0.10621719254E+03  0.10621719254E+03  0.00000000000E+00 0.  1.
          2    1    1    2  501    0  0.12433482275E+02 -0.16833797352E+02  0.99674193775E+01  0.23180113542E+02  0.00000000000E+00 0. -1.
         -2    1    1    2    0  503 -0.12433482275E+02  0.16833797352E+02 -0.98511647343E+02  0.10071004358E+03  0.00000000000E+00 0.  1.
<mgrwt>
<rscale>  2 0.20927690E+02</rscale>
<asrwt>0</asrwt>
<pdfrwt beam="1">  1       21 0.27189176E-02 0.20927690E+02</pdfrwt>
<pdfrwt beam="2">  1       21 0.16341107E-01 0.20927690E+02</pdfrwt>
<totfact> 0.18606957E+07</totfact>
</mgrwt>
</event>
<event>
 4    1  0.2677450E+004  0.3809902E+02  0.7546771E-02  0.1522685E+00
         21   -1    0    0  501  502  0.00000000000E+00  0.00000000000E+00  0.73038357450E+03  0.73038357450E+03  0.00000000000E+00 0. -1.
         21   -1    0    0  502  503 -0.00000000000E+00 -0.00000000000E+00 -0.46002627339E+01  0.46002627339E+01  0.00000000000E+00 0.  1.
          2    1    1    2  501    0  0.36017227733E+02  0.12421533992E+02  0.63985231580E+03  0.64098558582E+03  0.00000000000E+00 0. -1.
         -2    1    1    2    0  503 -0.36017227733E+02 -0.12421533992E+02  0.85930995968E+02  0.93998251411E+02  0.00000000000E+00 0.  1.
<mgrwt>
<rscale>  2 0.38099018E+02</rscale>
<asrwt>0</asrwt>
<pdfrwt beam="1">  1       21 0.11236661E+00 0.38099018E+02</pdfrwt>
<pdfrwt beam="2">  1       21 0.70773331E-03 0.38099018E+02</pdfrwt>
<totfact> 0.37599355E+06</totfact>
</mgrwt>
</event>
<event>
 4    1  0.2677450E+004  0.3060131E+02  0.7546771E-02  0.1591535E+00
         21   -1    0    0  501  502  0.00000000000E+00  0.00000000000E+00  0.84652316814E+02  0.84652316814E+02  0.00000000000E+00 0.  1.
         21   -1    0    0  502  503 -0.00000000000E+00 -0.00000000000E+00 -0.11355260717E+02  0.11355260717E+02  0.00000000000E+00 0. -1.
          2    1    1    2  501    0 -0.20981581288E+02 -0.22275854792E+02  0.44360390186E+02  0.53891415620E+02  0.00000000000E+00 0.  1.
         -2    1    1    2    0  503  0.20981581288E+02  0.22275854792E+02  0.28936665911E+02  0.42116161911E+02  0.00000000000E+00 0. -1.
<mgrwt>
<rscale>  2 0.30601315E+02</rscale>
<asrwt>0</asrwt>
<pdfrwt beam="1">  1       21 0.13023433E-01 0.30601315E+02</pdfrwt>
<pdfrwt beam="2">  1       21 0.17469632E-02 0.30601315E+02</pdfrwt>
<totfact> 0.59101168E+07</totfact>
</mgrwt>
</event>
<event>
 4    1  0.2677450E+004  0.2796501E+02  0.7546771E-02  0.1621737E+00
         21   -1    0    0  501  502  0.00000000000E+00  0.00000000000E+00  0.23701910317E+02  0.23701910317E+02  0.00000000000E+00 0. -1.
         21   -1    0    0  502  503 -0.00000000000E+00 -0.00000000000E+00 -0.59539917513E+02  0.59539917513E+02  0.00000000000E+00 0.  1.
          2    1    1    2  501    0 -0.27820166873E+02  0.28425691710E+01  0.98716717900E+01  0.29656226804E+02  0.00000000000E+00 0.  1.
         -2    1    1    2    0  503  0.27820166873E+02 -0.28425691710E+01 -0.45709678986E+02  0.53585601026E+02  0.00000000000E+00 0. -1.
<mgrwt>
<rscale>  2 0.27965012E+02</rscale>
<asrwt>0</asrwt>
<pdfrwt beam="1">  1       21 0.36464478E-02 0.27965012E+02</pdfrwt>
<pdfrwt beam="2">  1       21 0.91599871E-02 0.27965012E+02</pdfrwt>
<totfact> 0.33177874E+07</totfact>
</mgrwt>
</event>
<event>
 4    1  0.2677450E+004  0.2223161E+02  0.7546771E-02  0.1704277E+00
         21   -1    0    0  501  502  0.00000000000E+00  0.00000000000E+00  0.69255148536E+02  0.69255148536E+02  0.00000000000E+00 0.  1.
         21   -1    0    0  502  503 -0.00000000000E+00 -0.00000000000E+00 -0.74110591019E+01  0.74110591019E+01  0.00000000000E+00 0. -1.
          2    1    1    2  501    0  0.25184447091E+01  0.22088506147E+02  0.38299239235E+02  0.44284042200E+02  0.00000000000E+00 0. -1.
         -2    1    1    2    0  503 -0.25184447091E+01 -0.22088506147E+02  0.23544850199E+02  0.32382165438E+02  0.00000000000E+00 0.  1.
<mgrwt>
<rscale>  2 0.22231614E+02</rscale>
<asrwt>0</asrwt>
<pdfrwt beam="1">  1       21 0.10654638E-01 0.22231614E+02</pdfrwt>
<pdfrwt beam="2">  1       21 0.11401630E-02 0.22231614E+02</pdfrwt>
<totfact> 0.14601813E+08</totfact>
</mgrwt>
</event>
<event>
 4    1  0.2677450E+004  0.2194820E+02  0.7546771E-02  0.1709149E+00
         21   -1    0    0  501  502  0.00000000000E+00  0.00000000000E+00  0.66446232544E+02  0.66446232544E+02  0.00000000000E+00 0. -1.
         21   -1    0    0  502  503 -0.00000000000E+00 -0.00000000000E+00 -0.22281268779E+02  0.22281268779E+02  0.00000000000E+00 0.  1.
          2    1    1    2  501    0  0.11391511215E+02 -0.18760518955E+02  0.58520826290E+02  0.62501285658E+02  0.00000000000E+00 0. -1.
         -2    1    1    2    0  503 -0.11391511215E+02  0.18760518955E+02 -0.14355862526E+02  0.26226215664E+02  0.00000000000E+00 0.  1.
<mgrwt>
<rscale>  2 0.21948203E+02</rscale>
<asrwt>0</asrwt>
<pdfrwt beam="1">  1       21 0.10222497E-01 0.21948203E+02</pdfrwt>
<pdfrwt beam="2">  1       21 0.34278875E-02 0.21948203E+02</pdfrwt>
<totfact> 0.28847835E+07</totfact>
</mgrwt>
</event>
<event>
 4    1  0.2677450E+004  0.2383866E+02  0.7546771E-02  0.1678266E+00
         21   -1    0    0  501  502  0.00000000000E+00  0.00000000000E+00  0.41460067152E+02  0.41460067152E+02  0.00000000000E+00 0. -1.
         21   -1    0    0  502  503 -0.00000000000E+00 -0.00000000000E+00 -0.13855354158E+02  0.13855354158E+02  0.00000000000E+00 0.  1.
          2    1    1    2  501    0  0.78852861586E+01  0.22496755500E+02  0.16666924785E+02  0.29087250259E+02  0.00000000000E+00 0.  1.
         -2    1    1    2    0  503 -0.78852861586E+01 -0.22496755500E+02  0.10937788208E+02  0.26228171051E+02  0.00000000000E+00 0. -1.
<mgrwt>
<rscale>  2 0.23838661E+02</rscale>
<asrwt>0</asrwt>
<pdfrwt beam="1">  1       21 0.63784718E-02 0.23838661E+02</pdfrwt>
<pdfrwt beam="2">  1       21 0.21315930E-02 0.23838661E+02</pdfrwt>
<totfact> 0.13309887E+08</totfact>
</mgrwt>
</event>
<event>
 4    1  0.2677450E+004  0.2282289E+02  0.7546771E-02  0.1694397E+00
         21   -1    0    0  503  502  0.00000000000E+00  0.00000000000E+00  0.20088157169E+03  0.20088157169E+03  0.00000000000E+00 0. -1.
         21   -1    0    0  501  503 -0.00000000000E+00 -0.00000000000E+00 -0.83038449654E+01  0.83038449654E+01  0.00000000000E+00 0.  1.
          2    1    1    2  501    0 -0.60664871781E+01 -0.22001867766E+02  0.95502939766E+01  0.24740504581E+02  0.00000000000E+00 0.  1.
         -2    1    1    2    0  502  0.60664871781E+01  0.22001867766E+02  0.18302743274E+03  0.18444491207E+03  0.00000000000E+00 0. -1.
<mgrwt>
<rscale>  2 0.22822893E+02</rscale>
<asrwt>0</asrwt>
<pdfrwt beam="1">  1       21 0.30904854E-01 0.22822893E+02</pdfrwt>
<pdfrwt beam="2">  1       21 0.12775148E-02 0.22822893E+02</pdfrwt>
<totfact> 0.19567432E+07</totfact>
</mgrwt>
</event>
<event>
 4    1  0.2677450E+004  0.2079866E+02  0.7546771E-02  0.1729897E+00
         21   -1    0    0  501  502  0.00000000000E+00  0.00000000000E+00  0.43644291514E+01  0.43644291514E+01  0.00000000000E+00 0. -1.
         21   -1    0    0  502  503 -0.00000000000E+00 -0.00000000000E+00 -0.15488822248E+03  0.15488822248E+03  0.00000000000E+00 0.  1.
          2    1    1    2  501    0  0.16868100574E+02 -0.12167641637E+02 -0.27480719328E+02  0.34464100957E+02  0.00000000000E+00 0. -1.
         -2    1    1    2    0  503 -0.16868100574E+02  0.12167641637E+02 -0.12304307400E+03  0.12478855067E+03  0.00000000000E+00 0.  1.
<mgrwt>
<rscale>  2 0.20798661E+02</rscale>
<asrwt>0</asrwt>
<pdfrwt beam="1">  1       21 0.67145065E-03 0.20798661E+02</pdfrwt>
<pdfrwt beam="2">  1       21 0.23828957E-01 0.20798661E+02</pdfrwt>
<totfact> 0.79858484E+07</totfact>
</mgrwt>
</event>
<event>
 4    1  0.2677450E+004  0.2151954E+02  0.7546771E-02  0.1716696E+00
         21   -1    0    0  501  502  0.00000000000E+00  0.00000000000E+00  0.31735060841E+02  0.31735060841E+02  0.00000000000E+00 0. -1.
         21   -1    0    0  502  503 -0.00000000000E+00 -0.00000000000E+00 -0.14664894845E+02  0.14664894845E+02  0.00000000000E+00 0.  1.
          2    1    1    2  501    0 -0.26516205652E+01 -0.21355551944E+02  0.10166266156E+02  0.23800076849E+02  0.00000000000E+00 0. -1.
         -2    1    1    2    0  503  0.26516205652E+01  0.21355551944E+02  0.69038998395E+01  0.22599878837E+02  0.00000000000E+00 0.  1.
<mgrwt>
<rscale>  2 0.21519542E+02</rscale>
<asrwt>0</asrwt>
<pdfrwt beam="1">  1       21 0.48823170E-02 0.21519542E+02</pdfrwt>
<pdfrwt beam="2">  1       21 0.22561377E-02 0.21519542E+02</pdfrwt>
<totfact> 0.18126750E+08</totfact>
</mgrwt>
</event>
<event>
 4    1  0.2677450E+004  0.2684596E+02  0.7546771E-02  0.1635821E+00
         21   -1    0    0  501  502  0.00000000000E+00  0.00000000000E+00  0.13576549322E+02  0.13576549322E+02  0.00000000000E+00 0. -1.
         21   -1    0    0  502  503 -0.00000000000E+00 -0.00000000000E+00 -0.11065245348E+03  0.11065245348E+03  0.00000000000E+00 0.  1.
          2    1    1    2  501    0  0.22341881279E+02  0.14884410487E+02 -0.37354161880E+01  0.27104587596E+02  0.00000000000E+00 0. -1.
         -2    1    1    2    0  503 -0.22341881279E+02 -0.14884410487E+02 -0.93340487967E+02  0.97124415203E+02  0.00000000000E+00 0.  1.
<mgrwt>
<rscale>  2 0.26845956E+02</rscale>
<asrwt>0</asrwt>
<pdfrwt beam="1">  1       21 0.20886998E-02 0.26845956E+02</pdfrwt>
<pdfrwt beam="2">  1       21 0.17023455E-01 0.26845956E+02</pdfrwt>
<totfact> 0.27521414E+07</totfact>
</mgrwt>
</event>
<event>
 4    1  0.2677450E+004  0.2041440E+02  0.7546771E-02  0.1737211E+00
         21   -1    0    0  501  502  0.00000000000E+00  0.00000000000E+00  0.59546803716E+02  0.59546803716E+02  0.00000000000E+00 0. -1.
         21   -1    0    0  502  503 -0.00000000000E+00 -0.00000000000E+00 -0.23086462717E+02  0.23086462717E+02  0.00000000000E+00 0.  1.
          2    1    1    2  501    0  0.21679763426E+01 -0.20298953325E+02  0.52720285262E+02  0.56534733621E+02  0.00000000000E+00 0. -1.
         -2    1    1    2    0  503 -0.21679763426E+01  0.20298953325E+02 -0.16259944263E+02  0.26098532812E+02  0.00000000000E+00 0.  1.
<mgrwt>
<rscale>  2 0.20414398E+02</rscale>
<asrwt>0</asrwt>
<pdfrwt beam="1">  1       21 0.91610467E-02 0.20414398E+02</pdfrwt>
<pdfrwt beam="2">  1       21 0.35517635E-02 0.20414398E+02</pdfrwt>
<totfact> 0.32113798E+07</totfact>
</mgrwt>
</event>
<event>
 4    1  0.2677450E+004  0.2041601E+02  0.7546771E-02  0.1737180E+00
         21   -1    0    0  503  502  0.00000000000E+00  0.00000000000E+00  0.34389698123E+03  0.34389698123E+03  0.00000000000E+00 0. -1.
         21   -1    0    0  501  503 -0.00000000000E+00 -0.00000000000E+00 -0.12461050833E+01  0.12461050833E+01  0.00000000000E+00 0.  1.
          2    1    1    2  501    0  0.10961169064E+02 -0.17223997708E+02  0.14278814388E+03  0.14424031114E+03  0.00000000000E+00 0.  1.
         -2    1    1    2    0  502 -0.10961169064E+02  0.17223997708E+02  0.19986273226E+03  0.20090277517E+03  0.00000000000E+00 0. -1.
<mgrwt>
<rscale>  2 0.20416007E+02</rscale>
<asrwt>0</asrwt>
<pdfrwt beam="1">  1       21 0.52907152E-01 0.20416007E+02</pdfrwt>
<pdfrwt beam="2">  1       21 0.19170875E-03 0.20416007E+02</pdfrwt>
<totfact> 0.11291480E+08</totfact>
</mgrwt>
</event>
<event>
 4    1  0.2677450E+004  0.2063703E+02  0.7546771E-02  0.1732949E+00
         21   -1    0    0  501  502  0.00000000000E+00  0.00000000000E+00  0.47351615726E+02  0.47351615726E+02  0.00000000000E+00 0. -1.
         21   -1    0    0  502  503 -0.00000000000E+00 -0.00000000000E+00 -0.11820379495E+02  0.11820379495E+02  0.00000000000E+00 0.  1.
          2    1    1    2  501    0 -0.14026954733E+01 -0.20589304391E+02  0.32232504526E+02  0.38272984701E+02  0.00000000000E+00 0. -1.
         -2    1    1    2    0  503  0.14026954733E+01  0.20589304391E+02  0.32987317051E+01  0.20899010521E+02  0.00000000000E+00 0.  1.
<mgrwt>
<rscale>  2 0.20637030E+02</rscale>
<asrwt>0</asrwt>
<pdfrwt beam="1">  1       21 0.72848639E-02 0.20637030E+02</pdfrwt>
<pdfrwt beam="2">  1       21 0.18185199E-02 0.20637030E+02</pdfrwt>
<totfact> 0.13117021E+08</totfact>
</mgrwt>
</event>
<event>
 4    1  0.2677450E+004  0.2748398E+02  0.7546771E-02  0.1627690E+00
         21   -1    0    0  501  502  0.00000000000E+00  0.00000000000E+00  0.18809602137E+02  0.18809602137E+02  0.00000000000E+00 0. -1.
         21   -1    0    0  502  503 -0.00000000000E+00 -0.00000000000E+00 -0.43194649368E+02  0.43194649368E+02  0.00000000000E+00 0.  1.
          2    1    1    2  501    0  0.11117972972E+01 -0.27461479239E+02 -0.39734163272E+01  0.27769713224E+02  0.00000000000E+00 0. -1.
         -2    1    1    2    0  503 -0.11117972972E+01  0.27461479239E+02 -0.20411630904E+02  0.34234538282E+02  0.00000000000E+00 0.  1.
<mgrwt>
<rscale>  2 0.27483976E+02</rscale>
<asrwt>0</asrwt>
<pdfrwt beam="1">  1       21 0.28937850E-02 0.27483976E+02</pdfrwt>
<pdfrwt beam="2">  1       21 0.66453306E-02 0.27483976E+02</pdfrwt>
<totfact> 0.80508986E+07</totfact>
</mgrwt>
</event>
<event>
 4    1  0.2677450E+004  0.2390321E+02  0.7546771E-02  0.1677274E+00
         21   -1    0    0  501  502  0.00000000000E+00  0.00000000000E+00  0.42656540655E+01  0.42656540655E+01  0.00000000000E+00 0. -1.
         21   -1    0    0  502  503 -0.00000000000E+00 -0.00000000000E+00 -0.18044384101E+03  0.18044384101E+03  0.00000000000E+00 0.  1.
          2    1    1    2  501    0  0.20033423810E+02  0.13039383259E+02 -0.41206821045E+02  0.47637859796E+02  0.00000000000E+00 0. -1.
         -2    1    1    2    0  503 -0.20033423810E+02 -0.13039383259E+02 -0.13497136590E+03  0.13707163528E+03  0.00000000000E+00 0.  1.
<mgrwt>
<rscale>  2 0.23903213E+02</rscale>
<asrwt>0</asrwt>
<pdfrwt beam="1">  1       21 0.65625440E-03 0.23903213E+02</pdfrwt>
<pdfrwt beam="2">  1       21 0.27760594E-01 0.23903213E+02</pdfrwt>
<totfact> 0.65243597E+07</totfact>
</mgrwt>
</event>
<event>
 4    1  0.2677450E+004  0.3485998E+02  0.7546771E-02  0.1549848E+00
         21   -1    0    0  501  502  0.00000000000E+00  0.00000000000E+00  0.14780469743E+02  0.14780469743E+02  0.00000000000E+00 0.  1.
         21   -1    0    0  502  503 -0.00000000000E+00 -0.00000000000E+00 -0.19903120270E+03  0.19903120270E+03  0.00000000000E+00 0. -1.
          2    1    1    2  501    0  0.29882143019E+02 -0.17952036003E+02 -0.10224759002E+02  0.36328553023E+02  0.00000000000E+00 0.  1.
         -2    1    1    2    0  503 -0.29882143019E+02  0.17952036003E+02 -0.17402597396E+03  0.17748311942E+03  0.00000000000E+00 0. -1.
<mgrwt>
<rscale>  2 0.34859978E+02</rscale>
<asrwt>0</asrwt>
<pdfrwt beam="1">  1       21 0.22739184E-02 0.34859978E+02</pdfrwt>
<pdfrwt beam="2">  1       21 0.30620185E-01 0.34859978E+02</pdfrwt>
<totfact> 0.88273808E+06</totfact>
</mgrwt>
</event>
<event>
 4    1  0.2677450E+004  0.2792095E+02  0.7546771E-02  0.1622276E+00
         21   -1    0    0  501  502  0.00000000000E+00  0.00000000000E+00  0.14912341437E+03  0.14912341437E+03  0.00000000000E+00 0.  1.
         21   -1    0    0  502  503 -0.00000000000E+00 -0.00000000000E+00 -0.17102747776E+02  0.17102747776E+02  0.00000000000E+00 0. -1.
          2    1    1    2  501    0  0.15505613142E+02 -0.23219714985E+02  0.13526567786E+03  0.13811727919E+03  0.00000000000E+00 0.  1.
         -2    1    1    2    0  503 -0.15505613142E+02  0.23219714985E+02 -0.32450112693E+01  0.28108882956E+02  0.00000000000E+00 0. -1.
<mgrwt>
<rscale>  2 0.27920946E+02</rscale>
<asrwt>0</asrwt>
<pdfrwt beam="1">  1       21 0.22942063E-01 0.27920946E+02</pdfrwt>
<pdfrwt beam="2">  1       21 0.26311921E-02 0.27920946E+02</pdfrwt>
<totfact> 0.11473177E+07</totfact>
</mgrwt>
</event>
<event>
 4    1  0.2677450E+004  0.2289146E+02  0.7546771E-02  0.1693276E+00
         21   -1    0    0  501  502  0.00000000000E+00  0.00000000000E+00  0.10650891363E+02  0.10650891363E+02  0.00000000000E+00 0.  1.
         21   -1    0    0  502  503 -0.00000000000E+00 -0.00000000000E+00 -0.95979388082E+02  0.95979388082E+02  0.00000000000E+00 0. -1.
          2    1    1    2  501    0  0.18995322556E+02 -0.12774851957E+02 -0.54430034477E+01  0.23529670802E+02  0.00000000000E+00 0.  1.
         -2    1    1    2    0  503 -0.18995322556E+02  0.12774851957E+02 -0.79885493272E+02  0.83100608643E+02  0.00000000000E+00 0. -1.
<mgrwt>
<rscale>  2 0.22891464E+02</rscale>
<asrwt>0</asrwt>
<pdfrwt beam="1">  1       21 0.16385986E-02 0.22891464E+02</pdfrwt>
<pdfrwt beam="2">  1       21 0.14766060E-01 0.22891464E+02</pdfrwt>
<totfact> 0.49140723E+07</totfact>
</mgrwt>
</event>
<event>
 4    1  0.2677450E+004  0.2016685E+02  0.7546771E-02  0.1742030E+00
         21   -1    0    0  501  502  0.00000000000E+00  0.00000000000E+00  0.16164322107E+03  0.16164322107E+03  0.00000000000E+00 0.  1.
         21   -1    0    0  502  503 -0.00000000000E+00 -0.00000000000E+00 -0.25173704317E+01  0.25173704317E+01  0.00000000000E+00 0. -1.
          2    1    1    2  501    0  0.19504459725E+02  0.51262127081E+01  0.77681224109E+02  0.80256305578E+02  0.00000000000E+00 0.  1.
         -2    1    1    2    0  503 -0.19504459725E+02 -0.51262127081E+01  0.81444626527E+02  0.83904285921E+02  0.00000000000E+00 0. -1.
<mgrwt>
<rscale>  2 0.20166854E+02</rscale>
<asrwt>0</asrwt>
<pdfrwt beam="1">  1       21 0.24868180E-01 0.20166854E+02</pdfrwt>
<pdfrwt beam="2">  1       21 0.38728788E-03 0.20166854E+02</pdfrwt>
<totfact> 0.16477443E+08</totfact>
</mgrwt>
</event>
<event>
 4    1  0.2677450E+004  0.2457768E+02  0.7546771E-02  0.1667143E+00
         21   -1    0    0  503  502  0.00000000000E+00  0.00000000000E+00  0.83348270727E+00  0.83348270727E+00  0.00000000000E+00 0. -1.
         21   -1    0    0  501  503 -0.00000000000E+00 -0.00000000000E+00 -0.11814245485E+04  0.11814245485E+04  0.00000000000E+00 0.  1.
          2    1    1    2  501    0 -0.24694309707E+01 -0.24453312711E+02 -0.95781890954E+03  0.95813419001E+03  0.00000000000E+00 0.  1.
         -2    1    1    2    0  502  0.24694309707E+01  0.24453312711E+02 -0.22277215622E+03  0.22412384117E+03  0.00000000000E+00 0. -1.
<mgrwt>
<rscale>  2 0.24577685E+02</rscale>
<asrwt>0</asrwt>
<pdfrwt beam="1">  1       21 0.12822829E-03 0.24577685E+02</pdfrwt>
<pdfrwt beam="2">  1       21 0.18175736E+00 0.24577685E+02</pdfrwt>
<totfact> 0.14018249E+07</totfact>
</mgrwt>
</event>
<event>
 4    1  0.2677450E+004  0.2307687E+02  0.7546771E-02  0.1690267E+00
         21   -1    0    0  503  502  0.00000000000E+00  0.00000000000E+00  0.25711647004E+01  0.25711647004E+01  0.00000000000E+00 0. -1.
         21   -1    0    0  501  503 -0.00000000000E+00 -0.00000000000E+00 -0.21831655298E+03  0.21831655298E+03  0.00000000000E+00 0.  1.
          2    1    1    2  501    0 -0.17860984587E+02  0.14612575570E+02 -0.13288314569E+03  0.13487205990E+03  0.00000000000E+00 0. -1.
         -2    1    1    2    0  502  0.17860984587E+02 -0.14612575570E+02 -0.82862242598E+02  0.86015657781E+02  0.00000000000E+00 0.  1.
<mgrwt>
<rscale>  2 0.23076874E+02</rscale>
<asrwt>0</asrwt>
<pdfrwt beam="1">  1       21 0.39556368E-03 0.23076874E+02</pdfrwt>
<pdfrwt beam="2">  1       21 0.33587173E-01 0.23076874E+02</pdfrwt>
<totfact> 0.96439595E+07</totfact>
</mgrwt>
</event>
<event>
 4    1  0.2677450E+004  0.2192335E+02  0.7546771E-02  0.1709581E+00
         21   -1    0    0  501  502  0.00000000000E+00  0.00000000000E+00  0.14769987480E+03  0.14769987480E+03  0.00000000000E+00 0. -1.
         21   -1    0    0  502  503 -0.00000000000E+00 -0.00000000000E+00 -0.73392672109E+01  0.73392672109E+01  0.00000000000E+00 0.  1.
          2    1    1    2  501    0 -0.12618101945E+02  0.17928094909E+02  0.12801505586E+03  0.12987874195E+03  0.00000000000E+00 0. -1.
         -2    1    1    2    0  503  0.12618101945E+02 -0.17928094909E+02  0.12345551731E+02  0.25160400062E+02  0.00000000000E+00 0.  1.
<mgrwt>
<rscale>  2 0.21923346E+02</rscale>
<asrwt>0</asrwt>
<pdfrwt beam="1">  1       21 0.22723055E-01 0.21923346E+02</pdfrwt>
<pdfrwt beam="2">  1       21 0.11291181E-02 0.21923346E+02</pdfrwt>
<totfact> 0.40532201E+07</totfact>
</mgrwt>
</event>
<event>
 4    1  0.2677450E+004  0.3055048E+02  0.7546771E-02  0.1592082E+00
         21   -1    0    0  503  502  0.00000000000E+00  0.00000000000E+00  0.30098744695E+02  0.30098744695E+02  0.00000000000E+00 0. -1.
         21   -1    0    0  501  503 -0.00000000000E+00 -0.00000000000E+00 -0.11800846298E+03  0.11800846298E+03  0.00000000000E+00 0.  1.
          2    1    1    2  501    0  0.25390861456E+02 -0.16989293904E+02 -0.10753886847E+03  0.11179418673E+03  0.00000000000E+00 0.  1.
         -2    1    1    2    0  502 -0.25390861456E+02  0.16989293904E+02  0.19629150193E+02  0.36313020945E+02  0.00000000000E+00 0. -1.
<mgrwt>
<rscale>  2 0.30550482E+02</rscale>
<asrwt>0</asrwt>
<pdfrwt beam="1">  1       21 0.46305761E-02 0.30550482E+02</pdfrwt>
<pdfrwt beam="2">  1       21 0.18155148E-01 0.30550482E+02</pdfrwt>
<totfact> 0.71986438E+06</totfact>
</mgrwt>
</event>
<event>
 4    1  0.2677450E+004  0.2776617E+02  0.7546771E-02  0.1624180E+00
         21   -1    0    0  503  502  0.00000000000E+00  0.00000000000E+00  0.20100157349E+02  0.20100157349E+02  0.00000000000E+00 0. -1.
         21   -1    0    0  501  503 -0.00000000000E+00 -0.00000000000E+00 -0.41501267124E+02  0.41501267124E+02  0.00000000000E+00 0.  1.
          2    1    1    2  501    0  0.22695795635E+02  0.15995661627E+02 -0.19179919892E+02  0.33746550305E+02  0.00000000000E+00 0.  1.
         -2    1    1    2    0  502 -0.22695795635E+02 -0.15995661627E+02 -0.22211898835E+01  0.27854874168E+02  0.00000000000E+00 0. -1.
<mgrwt>
<rscale>  2 0.27766172E+02</rscale>
<asrwt>0</asrwt>
<pdfrwt beam="1">  1       21 0.30923320E-02 0.27766172E+02</pdfrwt>
<pdfrwt beam="2">  1       21 0.63848102E-02 0.27766172E+02</pdfrwt>
<totfact> 0.77625314E+07</totfact>
</mgrwt>
</event>
<event>
 4    1  0.2677450E+004  0.3295984E+02  0.7546771E-02  0.1567502E+00
         21   -1    0    0  501  502  0.00000000000E+00  0.00000000000E+00  0.71238249656E+03  0.71238249656E+03  0.00000000000E+00 0. -1.
         21   -1    0    0  502  503 -0.00000000000E+00 -0.00000000000E+00 -0.15383320602E+01  0.15383320602E+01  0.00000000000E+00 0.  1.
          2    1    1    2  501    0 -0.24835627798E+02  0.21668927237E+02  0.38870989407E+03  0.39010477127E+03  0.00000000000E+00 0.  1.
         -2    1    1    2    0  503  0.24835627798E+02 -0.21668927237E+02  0.32213427043E+03  0.32381605735E+03  0.00000000000E+00 0. -1.
<mgrwt>
<rscale>  2 0.32959836E+02</rscale>
<asrwt>0</asrwt>
<pdfrwt beam="1">  1       21 0.10959704E+00 0.32959836E+02</pdfrwt>
<pdfrwt beam="2">  1       21 0.23666704E-03 0.32959836E+02</pdfrwt>
<totfact> 0.19981400E+07</totfact>
</mgrwt>
</event>
<event>
 4    1  0.2677450E+004  0.2268143E+02  0.7546771E-02  0.1696727E+00
         21   -1    0    0  501  502  0.00000000000E+00  0.00000000000E+00  0.81497936745E+02  0.81497936745E+02  0.00000000000E+00 0.  1.
         21   -1    0    0  502  503 -0.00000000000E+00 -0.00000000000E+00 -0.16081680501E+02  0.16081680501E+02  0.00000000000E+00 0. -1.
          2    1    1    2  501    0 -0.22601974942E+02  0.18968819356E+01  0.70735361383E+02  0.74282829660E+02  0.00000000000E+00 0.  1.
         -2    1    1    2    0  503  0.22601974942E+02 -0.18968819356E+01 -0.53191051390E+01  0.23296787586E+02  0.00000000000E+00 0. -1.
<mgrwt>
<rscale>  2 0.22681434E+02</rscale>
<asrwt>0</asrwt>
<pdfrwt beam="1">  1       21 0.12538144E-01 0.22681434E+02</pdfrwt>
<pdfrwt beam="2">  1       21 0.24741047E-02 0.22681434E+02</pdfrwt>
<totfact> 0.34346359E+07</totfact>
</mgrwt>
</event>
<event>
 4    1  0.2677450E+004  0.2586868E+02  0.7546771E-02  0.1648829E+00
         21   -1    0    0  503  502  0.00000000000E+00  0.00000000000E+00  0.15149415552E+01  0.15149415552E+01  0.00000000000E+00 0.  1.
         21   -1    0    0  501  503 -0.00000000000E+00 -0.00000000000E+00 -0.44177203645E+03  0.44177203645E+03  0.00000000000E+00 0. -1.
          2    1    1    2  501    0  0.20929047217E+02  0.15204067654E+02 -0.21785975262E+03  0.21939020147E+03  0.00000000000E+00 0. -1.
         -2    1    1    2    0  502 -0.20929047217E+02 -0.15204067654E+02 -0.22239734228E+03  0.22389677653E+03  0.00000000000E+00 0.  1.
<mgrwt>
<rscale>  2 0.25868682E+02</rscale>
<asrwt>0</asrwt>
<pdfrwt beam="1">  1       21 0.23306772E-03 0.25868682E+02</pdfrwt>
<pdfrwt beam="2">  1       21 0.67964992E-01 0.25868682E+02</pdfrwt>
<totfact> 0.54692447E+07</totfact>
</mgrwt>
</event>
<event>
 4    1  0.2677450E+004  0.2113032E+02  0.7546771E-02  0.1723742E+00
         21   -1    0    0  503  502  0.00000000000E+00  0.00000000000E+00  0.24586979102E+02  0.24586979102E+02  0.00000000000E+00 0. -1.
         21   -1    0    0  501  503 -0.00000000000E+00 -0.00000000000E+00 -0.56504797105E+02  0.56504797105E+02  0.00000000000E+00 0.  1.
          2    1    1    2  501    0  0.19130746617E+02 -0.89724627356E+01 -0.49359907470E+02  0.53692560184E+02  0.00000000000E+00 0.  1.
         -2    1    1    2    0  502 -0.19130746617E+02  0.89724627356E+01  0.17442089467E+02  0.27399216022E+02  0.00000000000E+00 0. -1.
<mgrwt>
<rscale>  2 0.21130323E+02</rscale>
<asrwt>0</asrwt>
<pdfrwt beam="1">  1       21 0.37826122E-02 0.21130323E+02</pdfrwt>
<pdfrwt beam="2">  1       21 0.86930457E-02 0.21130323E+02</pdfrwt>
<totfact> 0.31979313E+07</totfact>
</mgrwt>
</event>
<event>
 4    1  0.2677450E+004  0.2387117E+02  0.7546771E-02  0.1677766E+00
         21   -1    0    0  501  502  0.00000000000E+00  0.00000000000E+00  0.64142183047E+02  0.64142183047E+02  0.00000000000E+00 0.  1.
         21   -1    0    0  502  503 -0.00000000000E+00 -0.00000000000E+00 -0.89752164203E+01  0.89752164203E+01  0.00000000000E+00 0. -1.
          2    1    1    2  501    0 -0.16829901854E+02  0.16928882357E+02  0.31271101036E+02  0.39341001693E+02  0.00000000000E+00 0.  1.
         -2    1    1    2    0  503  0.16829901854E+02 -0.16928882357E+02  0.23895865591E+02  0.33776397774E+02  0.00000000000E+00 0. -1.
<mgrwt>
<rscale>  2 0.23871168E+02</rscale>
<asrwt>0</asrwt>
<pdfrwt beam="1">  1       21 0.98680279E-02 0.23871168E+02</pdfrwt>
<pdfrwt beam="2">  1       21 0.13808026E-02 0.23871168E+02</pdfrwt>
<totfact> 0.12676656E+08</totfact>
</mgrwt>
</event>
<event>
 4    1  0.2677450E+004  0.3422301E+02  0.7546771E-02  0.1555611E+00
         21   -1    0    0  501  502  0.00000000000E+00  0.00000000000E+00  0.43542237815E+02  0.43542237815E+02  0.00000000000E+00 0.  1.
         21   -1    0    0  502  503 -0.00000000000E+00 -0.00000000000E+00 -0.44933268519E+02  0.44933268519E+02  0.00000000000E+00 0. -1.
          2    1    1    2  501    0 -0.27903728272E+01 -0.34109061246E+02  0.27330811272E+02  0.43797117307E+02  0.00000000000E+00 0.  1.
         -2    1    1    2    0  503  0.27903728272E+01  0.34109061246E+02 -0.28721841975E+02  0.44678389027E+02  0.00000000000E+00 0. -1.
<mgrwt>
<rscale>  2 0.34223007E+02</rscale>
<asrwt>0</asrwt>
<pdfrwt beam="1">  1       21 0.66988058E-02 0.34223007E+02</pdfrwt>
<pdfrwt beam="2">  1       21 0.69128106E-02 0.34223007E+02</pdfrwt>
<totfact> 0.20636702E+07</totfact>
</mgrwt>
</event>
<event>
 4    1  0.2677450E+004  0.5617379E+02  0.7546771E-02  0.1414628E+00
         21   -1    0    0  503  502  0.00000000000E+00  0.00000000000E+00  0.42472990247E+01  0.42472990247E+01  0.00000000000E+00 0. -1.
         21   -1    0    0  501  503 -0.00000000000E+00 -0.00000000000E+00 -0.96573553264E+03  0.96573553264E+03  0.00000000000E+00 0.  1.
          2    1    1    2  501    0 -0.52719084260E+02  0.19395677328E+02 -0.71369097268E+03  0.71589824600E+03  0.00000000000E+00 0.  1.
         -2    1    1    2    0  502  0.52719084260E+02 -0.19395677328E+02 -0.24779726093E+03  0.25408458566E+03  0.00000000000E+00 0. -1.
<mgrwt>
<rscale>  2 0.56173785E+02</rscale>
<asrwt>0</asrwt>
<pdfrwt beam="1">  1       21 0.65342984E-03 0.56173785E+02</pdfrwt>
<pdfrwt beam="2">  1       21 0.14857488E+00 0.56173785E+02</pdfrwt>
<totfact> 0.22317921E+06</totfact>
</mgrwt>
</event>
<event>
 4    1  0.2677450E+004  0.3769564E+02  0.7546771E-02  0.1525888E+00
         21   -1    0    0  501  502  0.00000000000E+00  0.00000000000E+00  0.25753392238E+02  0.25753392238E+02  0.00000000000E+00 0. -1.
         21   -1    0    0  502  503 -0.00000000000E+00 -0.00000000000E+00 -0.21455659333E+03  0.21455659333E+03  0.00000000000E+00 0.  1.
          2    1    1    2  501    0  0.58043832044E+01 -0.37246076418E+02  0.91576830036E+01  0.38792064020E+02  0.00000000000E+00 0. -1.
         -2    1    1    2    0  503 -0.58043832044E+01  0.37246076418E+02 -0.19796088409E+03  0.20151792154E+03  0.00000000000E+00 0.  1.
<mgrwt>
<rscale>  2 0.37695637E+02</rscale>
<asrwt>0</asrwt>
<pdfrwt beam="1">  1       21 0.39620603E-02 0.37695637E+02</pdfrwt>
<pdfrwt beam="2">  1       21 0.33008707E-01 0.37695637E+02</pdfrwt>
<totfact> 0.32151237E+06</totfact>
</mgrwt>
</event>
<event>
 4    1  0.2677450E+004  0.2727388E+02  0.7546771E-02  0.1630337E+00
         21   -1    0    0  503  502  0.00000000000E+00  0.00000000000E+00  0.49248731999E+03  0.49248731999E+03  0.00000000000E+00 0. -1.
         21   -1    0    0  501  503 -0.00000000000E+00 -0.00000000000E+00 -0.18070137607E+01  0.18070137607E+01  0.00000000000E+00 0.  1.
          2    1    1    2  501    0 -0.11220749356E+01 -0.27250785662E+02  0.14521264132E+03  0.14775173627E+03  0.00000000000E+00 0.  1.
         -2    1    1    2    0  502  0.11220749356E+01  0.27250785662E+02  0.34546766491E+03  0.34654259748E+03  0.00000000000E+00 0. -1.
<mgrwt>
<rscale>  2 0.27273877E+02</rscale>
<asrwt>0</asrwt>
<pdfrwt beam="1">  1       21 0.75767173E-01 0.27273877E+02</pdfrwt>
<pdfrwt beam="2">  1       21 0.27800251E-03 0.27273877E+02</pdfrwt>
<totfact> 0.34131242E+07</totfact>
</mgrwt>
</event>
<event>
 4    1  0.2677450E+004  0.3558157E+02  0.7546771E-02  0.1543496E+00
         21   -1    0    0  501  502  0.00000000000E+00  0.00000000000E+00  0.56468075309E+02  0.56468075309E+02  0.00000000000E+00 0.  1.
         21   -1    0    0  502  503 -0.00000000000E+00 -0.00000000000E+00 -0.27445695317E+02  0.27445695317E+02  0.00000000000E+00 0. -1.
          2    1    1    2  501    0 -0.34100300459E+02 -0.10159605584E+02  0.32464243027E+02  0.48166120379E+02  0.00000000000E+00 0.  1.
         -2    1    1    2    0  503  0.34100300459E+02  0.10159605584E+02 -0.34418630344E+01  0.35747650247E+02  0.00000000000E+00 0. -1.
<mgrwt>
<rscale>  2 0.35581569E+02</rscale>
<asrwt>0</asrwt>
<pdfrwt beam="1">  1       21 0.86873962E-02 0.35581569E+02</pdfrwt>
<pdfrwt beam="2">  1       21 0.42224147E-02 0.35581569E+02</pdfrwt>
<totfact> 0.30108717E+07</totfact>
</mgrwt>
</event>
<event>
 4    1  0.2677450E+004  0.2296807E+02  0.7546771E-02  0.1692028E+00
         21   -1    0    0  501  502  0.00000000000E+00  0.00000000000E+00  0.39334680767E+02  0.39334680767E+02  0.00000000000E+00 0.  1.
         21   -1    0    0  502  503 -0.00000000000E+00 -0.00000000000E+00 -0.28669542671E+02  0.28669542671E+02  0.00000000000E+00 0. -1.
          2    1    1    2  501    0 -0.22152812922E+02 -0.60650770123E+01  0.30137992974E+02  0.37892359388E+02  0.00000000000E+00 0.  1.
         -2    1    1    2    0  503  0.22152812922E+02  0.60650770123E+01 -0.19472854878E+02  0.30111864051E+02  0.00000000000E+00 0. -1.
<mgrwt>
<rscale>  2 0.22968071E+02</rscale>
<asrwt>0</asrwt>
<pdfrwt beam="1">  1       21 0.60514893E-02 0.22968071E+02</pdfrwt>
<pdfrwt beam="2">  1       21 0.44106989E-02 0.22968071E+02</pdfrwt>
<totfact> 0.46110317E+07</totfact>
</mgrwt>
</event>
<event>
 4    1  0.2677450E+004  0.2888264E+02  0.7546771E-02  0.1610778E+00
         21   -1    0    0  501  502  0.00000000000E+00  0.00000000000E+00  0.57057104797E+02  0.57057104797E+02  0.00000000000E+00 0. -1.
         21   -1    0    0  502  503 -0.00000000000E+00 -0.00000000000E+00 -0.18726196730E+02  0.18726196730E+02  0.00000000000E+00 0.  1.
          2    1    1    2  501    0  0.77432090820E+01  0.27825337319E+02  0.36907721630E+02  0.46865622792E+02  0.00000000000E+00 0. -1.
         -2    1    1    2    0  503 -0.77432090820E+01 -0.27825337319E+02  0.14231864377E+01  0.28917678735E+02  0.00000000000E+00 0.  1.
<mgrwt>
<rscale>  2 0.28882636E+02</rscale>
<asrwt>0</asrwt>
<pdfrwt beam="1">  1       21 0.87780160E-02 0.28882636E+02</pdfrwt>
<pdfrwt beam="2">  1       21 0.28809534E-02 0.28882636E+02</pdfrwt>
<totfact> 0.51975992E+07</totfact>
</mgrwt>
</event>
<event>
 4    1  0.2677450E+004  0.2573040E+02  0.7546771E-02  0.1650727E+00
         21   -1    0    0  501  502  0.00000000000E+00  0.00000000000E+00  0.27264859627E+03  0.27264859627E+03  0.00000000000E+00 0.  1.
         21   -1    0    0  502  503 -0.00000000000E+00 -0.00000000000E+00 -0.39474262851E+01  0.39474262851E+01  0.00000000000E+00 0. -1.
          2    1    1    2  501    0  0.78352481985E+01  0.24508412273E+02  0.22014636472E+03  0.22164493066E+03  0.00000000000E+00 0.  1.
         -2    1    1    2    0  503 -0.78352481985E+01 -0.24508412273E+02  0.48554805264E+02  0.54951091897E+02  0.00000000000E+00 0. -1.
<mgrwt>
<rscale>  2 0.25730398E+02</rscale>
<asrwt>0</asrwt>
<pdfrwt beam="1">  1       21 0.41945923E-01 0.25730398E+02</pdfrwt>
<pdfrwt beam="2">  1       21 0.60729657E-03 0.25730398E+02</pdfrwt>
<totfact> 0.34643894E+07</totfact>
</mgrwt>
</event>
<event>
 4    1  0.2677450E+004  0.2472666E+02  0.7546771E-02  0.1664959E+00
         21   -1    0    0  501  502  0.00000000000E+00  0.00000000000E+00  0.17000727666E+02  0.17000727666E+02  0.00000000000E+00 0.  1.
         21   -1    0    0  502  503 -0.00000000000E+00 -0.00000000000E+00 -0.84129071063E+02  0.84129071063E+02  0.00000000000E+00 0. -1.
          2    1    1    2  501    0  0.14560347597E+02 -0.19985089657E+02  0.46957400332E+01  0.25168581708E+02  0.00000000000E+00 0.  1.
         -2    1    1    2    0  503 -0.14560347597E+02  0.19985089657E+02 -0.71824083430E+02  0.75961217021E+02  0.00000000000E+00 0. -1.
<mgrwt>
<rscale>  2 0.24726656E+02</rscale>
<asrwt>0</asrwt>
<pdfrwt beam="1">  1       21 0.26154966E-02 0.24726656E+02</pdfrwt>
<pdfrwt beam="2">  1       21 0.12942934E-01 0.24726656E+02</pdfrwt>
<totfact> 0.30489727E+07</totfact>
</mgrwt>
</event>
<event>
 4    1  0.2677450E+004  0.3375273E+02  0.7546771E-02  0.1559964E+00
         21   -1    0    0  501  502  0.00000000000E+00  0.00000000000E+00  0.84228353816E+02  0.84228353816E+02  0.00000000000E+00 0.  1.
         21   -1    0    0  502  503 -0.00000000000E+00 -0.00000000000E+00 -0.46836386839E+02  0.46836386839E+02  0.00000000000E+00 0. -1.
          2    1    1    2  501    0  0.11058183114E+02  0.31889858531E+02  0.73961731475E+02  0.81299349405E+02  0.00000000000E+00 0.  1.
         -2    1    1    2    0  503 -0.11058183114E+02 -0.31889858531E+02 -0.36569764498E+02  0.49765391251E+02  0.00000000000E+00 0. -1.
<mgrwt>
<rscale>  2 0.33752726E+02</rscale>
<asrwt>0</asrwt>
<pdfrwt beam="1">  1       21 0.12958208E-01 0.33752726E+02</pdfrwt>
<pdfrwt beam="2">  1       21 0.72055980E-02 0.33752726E+02</pdfrwt>
<totfact> 0.63780593E+06</totfact>
</mgrwt>
</event>
<event>
 4    1  0.2677450E+004  0.2048660E+02  0.7546771E-02  0.1735821E+00
         21   -1    0    0  501  502  0.00000000000E+00  0.00000000000E+00  0.10664541793E+03  0.10664541793E+03  0.00000000000E+00 0.  1.
         21   -1    0    0  502  503 -0.00000000000E+00 -0.00000000000E+00 -0.41037590358E+01  0.41037590358E+01  0.00000000000E+00 0. -1.
          2    1    1    2  501    0 -0.19496905328E+02 -0.62905845551E+01  0.62484202287E+02  0.65756948734E+02  0.00000000000E+00 0.  1.
         -2    1    1    2    0  503  0.19496905328E+02  0.62905845551E+01  0.40057456610E+02  0.44992228234E+02  0.00000000000E+00 0. -1.
<mgrwt>
<rscale>  2 0.20486600E+02</rscale>
<asrwt>0</asrwt>
<pdfrwt beam="1">  1       21 0.16406985E-01 0.20486600E+02</pdfrwt>
<pdfrwt beam="2">  1       21 0.63134763E-03 0.20486600E+02</pdfrwt>
<totfact> 0.16642715E+08</totfact>
</mgrwt>
</event>
<event>
 4    1  0.2677450E+004  0.2187156E+02  0.7546771E-02  0.1710483E+00
         21   -1    0    0  501  502  0.00000000000E+00  0.00000000000E+00  0.26469697695E+02  0.26469697695E+02  0.00000000000E+00 0.  1.
         21   -1    0    0  502  503 -0.00000000000E+00 -0.00000000000E+00 -0.52980069680E+02  0.52980069680E+02  0.00000000000E+00 0. -1.
          2    1    1    2  501    0  0.21414961688E+02  0.44457266546E+01  0.18990244991E+02  0.28965401333E+02  0.00000000000E+00 0.  1.
         -2    1    1    2    0  503 -0.21414961688E+02 -0.44457266546E+01 -0.45500616975E+02  0.50484366042E+02  0.00000000000E+00 0. -1.
<mgrwt>
<rscale>  2 0.21871558E+02</rscale>
<asrwt>0</asrwt>
<pdfrwt beam="1">  1       21 0.40722613E-02 0.21871558E+02</pdfrwt>
<pdfrwt beam="2">  1       21 0.81507798E-02 0.21871558E+02</pdfrwt>
<totfact> 0.31906302E+07</totfact>
</mgrwt>
</event>
<event>
 4    1  0.2677450E+004  0.2584402E+02  0.7546771E-02  0.1649167E+00
         21   -1    0    0  503  502  0.00000000000E+00  0.00000000000E+00  0.32277894531E+02  0.32277894531E+02  0.00000000000E+00 0.  1.
         21   -1    0    0  501  503 -0.00000000000E+00 -0.00000000000E+00 -0.23283197442E+02  0.23283197442E+02  0.00000000000E+00 0. -1.
          2    1    1    2  501    0  0.39054622181E+01  0.25547223327E+02  0.13763944475E+02  0.29280700510E+02  0.00000000000E+00 0. -1.
         -2    1    1    2    0  502 -0.39054622181E+01 -0.25547223327E+02 -0.47692473851E+01  0.26280391463E+02  0.00000000000E+00 0.  1.
<mgrwt>
<rscale>  2 0.25844018E+02</rscale>
<asrwt>0</asrwt>
<pdfrwt beam="1">  1       21 0.49658299E-02 0.25844018E+02</pdfrwt>
<pdfrwt beam="2">  1       21 0.35820304E-02 0.25844018E+02</pdfrwt>
<totfact> 0.90664895E+07</totfact>
</mgrwt>
</event>
<event>
 4    1  0.2677450E+004  0.2359126E+02  0.7546771E-02  0.1682101E+00
         21   -1    0    0  501  502  0.00000000000E+00  0.00000000000E+00  0.18589732027E+03  0.18589732027E+03  0.00000000000E+00 0.  1.
         21   -1    0    0  502  503 -0.00000000000E+00 -0.00000000000E+00 -0.44849459885E+01  0.44849459885E+01  0.00000000000E+00 0. -1.
          2    1    1    2  501    0 -0.13624423308E+02  0.19259349615E+02  0.14559346036E+03  0.14749238339E+03  0.00000000000E+00 0.  1.
         -2    1    1    2    0  503  0.13624423308E+02 -0.19259349615E+02  0.35818913921E+02  0.42889882869E+02  0.00000000000E+00 0. -1.
<mgrwt>
<rscale>  2 0.23591258E+02</rscale>
<asrwt>0</asrwt>
<pdfrwt beam="1">  1       21 0.28599582E-01 0.23591258E+02</pdfrwt>
<pdfrwt beam="2">  1       21 0.68999183E-03 0.23591258E+02</pdfrwt>
<totfact> 0.57190361E+07</totfact>
</mgrwt>
</event>
<event>
 4    1  0.2677450E+004  0.2094304E+02  0.7546771E-02  0.1727200E+00
         21   -1    0    0  503  502  0.00000000000E+00  0.00000000000E+00  0.52026033089E+03  0.52026033089E+03  0.00000000000E+00 0. -1.
         21   -1    0    0  501  503 -0.00000000000E+00 -0.00000000000E+00 -0.84564358867E+00  0.84564358867E+00  0.00000000000E+00 0.  1.
          2    1    1    2  501    0  0.78030329134E+01 -0.19435109491E+02  0.24530632475E+03  0.24619870789E+03  0.00000000000E+00 0.  1.
         -2    1    1    2    0  502 -0.78030329134E+01  0.19435109491E+02  0.27410836255E+03  0.27490726659E+03  0.00000000000E+00 0. -1.
<mgrwt>
<rscale>  2 0.20943037E+02</rscale>
<asrwt>0</asrwt>
<pdfrwt beam="1">  1       21 0.80039795E-01 0.20943037E+02</pdfrwt>
<pdfrwt beam="2">  1       21 0.13009943E-03 0.20943037E+02</pdfrwt>
<totfact> 0.85908783E+07</totfact>
</mgrwt>
</event>
<event>
 4    1  0.2677450E+004  0.2833708E+02  0.7546771E-02  0.1617232E+00
         21   -1    0    0  501  502  0.00000000000E+00  0.00000000000E+00  0.17051946842E+02  0.17051946842E+02  0.00000000000E+00 0. -1.
         21   -1    0    0  502  503 -0.00000000000E+00 -0.00000000000E+00 -0.48855808260E+02  0.48855808260E+02  0.00000000000E+00 0.  1.
          2    1    1    2  501    0  0.28021193239E+02  0.42193532246E+01 -0.96384037364E+01  0.29931405559E+02  0.00000000000E+00 0.  1.
         -2    1    1    2    0  503 -0.28021193239E+02 -0.42193532246E+01 -0.22165457682E+02  0.35976349542E+02  0.00000000000E+00 0. -1.
<mgrwt>
<rscale>  2 0.28337082E+02</rscale>
<asrwt>0</asrwt>
<pdfrwt beam="1">  1       21 0.26233765E-02 0.28337082E+02</pdfrwt>
<pdfrwt beam="2">  1       21 0.75162780E-02 0.28337082E+02</pdfrwt>
<totfact> 0.77347916E+07</totfact>
</mgrwt>
</event>
<event>
 4    1  0.2677450E+004  0.2267837E+02  0.7546771E-02  0.1696777E+00
         21   -1    0    0  503  502  0.00000000000E+00  0.00000000000E+00  0.20647413381E+01  0.20647413381E+01  0.00000000000E+00 0.  1.
         21   -1    0    0  501  503 -0.00000000000E+00 -0.00000000000E+00 -0.24909108282E+03  0.24909108282E+03  0.00000000000E+00 0. -1.
          2    1    1    2  501    0  0.78184590950E+00  0.22664892833E+02 -0.12352612236E+03  0.12559065074E+03  0.00000000000E+00 0.  1.
         -2    1    1    2    0  502 -0.78184590950E+00 -0.22664892833E+02 -0.12350021912E+03  0.12556517341E+03  0.00000000000E+00 0. -1.
<mgrwt>
<rscale>  2 0.22678374E+02</rscale>
<asrwt>0</asrwt>
<pdfrwt beam="1">  1       21 0.31765257E-03 0.22678374E+02</pdfrwt>
<pdfrwt beam="2">  1       21 0.38321698E-01 0.22678374E+02</pdfrwt>
<totfact> 0.10355840E+08</totfact>
</mgrwt>
</event>
<event>
 4    1  0.2677450E+004  0.3323907E+02  0.7546771E-02  0.1564818E+00
         21   -1    0    0  501  502  0.00000000000E+00  0.00000000000E+00  0.28358746513E+02  0.28358746513E+02  0.00000000000E+00 0.  1.
         21   -1    0    0  502  503 -0.00000000000E+00 -0.00000000000E+00 -0.53133665781E+02  0.53133665781E+02  0.00000000000E+00 0. -1.
          2    1    1    2  501    0 -0.26226639220E+02  0.20420560274E+02  0.86578180599E+01  0.34348125134E+02  0.00000000000E+00 0.  1.
         -2    1    1    2    0  503  0.26226639220E+02 -0.20420560274E+02 -0.33432737328E+02  0.47144287161E+02  0.00000000000E+00 0. -1.
<mgrwt>
<rscale>  2 0.33239072E+02</rscale>
<asrwt>0</asrwt>
<pdfrwt beam="1">  1       21 0.43628841E-02 0.33239072E+02</pdfrwt>
<pdfrwt beam="2">  1       21 0.81744101E-02 0.33239072E+02</pdfrwt>
<totfact> 0.31194223E+07</totfact>
</mgrwt>
</event>
<event>
 4    1  0.2677450E+004  0.2320721E+02  0.7546771E-02  0.1688173E+00
         21   -1    0    0  501  502  0.00000000000E+00  0.00000000000E+00  0.28009367192E+03  0.28009367192E+03  0.00000000000E+00 0.  1.
         21   -1    0    0  502  503 -0.00000000000E+00 -0.00000000000E+00 -0.34996435888E+01  0.34996435888E+01  0.00000000000E+00 0. -1.
          2    1    1    2  501    0  0.90226405279E+01  0.21381458470E+02  0.23347645198E+03  0.23462699853E+03  0.00000000000E+00 0.  1.
         -2    1    1    2    0  503 -0.90226405279E+01 -0.21381458470E+02  0.43117576352E+02  0.48966316983E+02  0.00000000000E+00 0. -1.
<mgrwt>
<rscale>  2 0.23207215E+02</rscale>
<asrwt>0</asrwt>
<pdfrwt beam="1">  1       21 0.43091317E-01 0.23207215E+02</pdfrwt>
<pdfrwt beam="2">  1       21 0.53840692E-03 0.23207215E+02</pdfrwt>
<totfact> 0.38464736E+07</totfact>
</mgrwt>
</event>
<event>
 4    1  0.2677450E+004  0.2598045E+02  0.7546771E-02  0.1647306E+00
         21   -1    0    0  503  502  0.00000000000E+00  0.00000000000E+00  0.11112396330E+04  0.11112396330E+04  0.00000000000E+00 0.  1.
         21   -1    0    0  501  503 -0.00000000000E+00 -0.00000000000E+00 -0.17298023587E+01  0.17298023587E+01  0.00000000000E+00 0. -1.
          2    1    1    2  501    0 -0.15881800938E+02  0.20560937702E+02  0.10649865991E+03  0.10962184236E+03  0.00000000000E+00 0. -1.
         -2    1    1    2    0  502  0.15881800938E+02 -0.20560937702E+02  0.10030111707E+04  0.10033475930E+04  0.00000000000E+00 0.  1.
<mgrwt>
<rscale>  2 0.25980450E+02</rscale>
<asrwt>0</asrwt>
<pdfrwt beam="1">  1       21 0.17095937E+00 0.25980450E+02</pdfrwt>
<pdfrwt beam="2">  1       21 0.26612433E-03 0.25980450E+02</pdfrwt>
<totfact> 0.57195520E+06</totfact>
</mgrwt>
</event>
<event>
 4    1  0.2677450E+004  0.2255331E+02  0.7546771E-02  0.1698855E+00
         21   -1    0    0  501  502  0.00000000000E+00  0.00000000000E+00  0.53182413309E+02  0.53182413309E+02  0.00000000000E+00 0.  1.
         21   -1    0    0  502  503 -0.00000000000E+00 -0.00000000000E+00 -0.13773787555E+02  0.13773787555E+02  0.00000000000E+00 0. -1.
          2    1    1    2  501    0  0.13574617706E+02 -0.18010593527E+02  0.38211888743E+02  0.44371163680E+02  0.00000000000E+00 0.  1.
         -2    1    1    2    0  503 -0.13574617706E+02  0.18010593527E+02  0.11967370112E+01  0.22585037183E+02  0.00000000000E+00 0. -1.
<mgrwt>
<rscale>  2 0.22553309E+02</rscale>
<asrwt>0</asrwt>
<pdfrwt beam="1">  1       21 0.81819096E-02 0.22553309E+02</pdfrwt>
<pdfrwt beam="2">  1       21 0.21190443E-02 0.22553309E+02</pdfrwt>
<totfact> 0.88234318E+07</totfact>
</mgrwt>
</event>
<event>
 4    1  0.2677450E+004  0.2045874E+02  0.7546771E-02  0.1736356E+00
         21   -1    0    0  501  502  0.00000000000E+00  0.00000000000E+00  0.51302363715E+01  0.51302363715E+01  0.00000000000E+00 0.  1.
         21   -1    0    0  502  503 -0.00000000000E+00 -0.00000000000E+00 -0.17294640596E+03  0.17294640596E+03  0.00000000000E+00 0. -1.
          2    1    1    2  501    0  0.16899470429E+02  0.11531172999E+02 -0.19194109720E+02  0.28053055083E+02  0.00000000000E+00 0.  1.
         -2    1    1    2    0  503 -0.16899470429E+02 -0.11531172999E+02 -0.14862205987E+03  0.15002358725E+03  0.00000000000E+00 0. -1.
<mgrwt>
<rscale>  2 0.20458740E+02</rscale>
<asrwt>0</asrwt>
<pdfrwt beam="1">  1       21 0.78926729E-03 0.20458740E+02</pdfrwt>
<pdfrwt beam="2">  1       21 0.26607134E-01 0.20458740E+02</pdfrwt>
<totfact> 0.51432415E+07</totfact>
</mgrwt>
</event>
<event>
 4    1  0.2677450E+004  0.4090248E+02  0.7546771E-02  0.1501673E+00
         21   -1    0    0  503  502  0.00000000000E+00  0.00000000000E+00  0.25908566003E+03  0.25908566003E+03  0.00000000000E+00 0. -1.
         21   -1    0    0  501  503 -0.00000000000E+00 -0.00000000000E+00 -0.81372638698E+01  0.81372638698E+01  0.00000000000E+00 0.  1.
          2    1    1    2  501    0 -0.38184955069E+02 -0.14660224104E+02  0.64766335535E+02  0.76600856282E+02  0.00000000000E+00 0.  1.
         -2    1    1    2    0  502  0.38184955069E+02  0.14660224104E+02  0.18618206062E+03  0.19062206762E+03  0.00000000000E+00 0. -1.
<mgrwt>
<rscale>  2 0.40902481E+02</rscale>
<asrwt>0</asrwt>
<pdfrwt beam="1">  1       21 0.39859326E-01 0.40902481E+02</pdfrwt>
<pdfrwt beam="2">  1       21 0.12518869E-02 0.40902481E+02</pdfrwt>
<totfact> 0.13842339E+07</totfact>
</mgrwt>
</event>
<event>
 4    1  0.2677450E+004  0.2637599E+02  0.7546771E-02  0.1641990E+00
         21   -1    0    0  503  502  0.00000000000E+00  0.00000000000E+00  0.88463392924E+02  0.88463392924E+02  0.00000000000E+00 0.  1.
         21   -1    0    0  501  503 -0.00000000000E+00 -0.00000000000E+00 -0.98842764322E+01  0.98842764322E+01  0.00000000000E+00 0. -1.
          2    1    1    2  501    0  0.22640514810E+02  0.13531442807E+02  0.17059187687E+02  0.31411920347E+02  0.00000000000E+00 0. -1.
         -2    1    1    2    0  502 -0.22640514810E+02 -0.13531442807E+02  0.61519928804E+02  0.66935749009E+02  0.00000000000E+00 0.  1.
<mgrwt>
<rscale>  2 0.26375990E+02</rscale>
<asrwt>0</asrwt>
<pdfrwt beam="1">  1       21 0.13609752E-01 0.26375990E+02</pdfrwt>
<pdfrwt beam="2">  1       21 0.15206580E-02 0.26375990E+02</pdfrwt>
<totfact> 0.65530778E+07</totfact>
</mgrwt>
</event>
<event>
 4    1  0.2677450E+004  0.3496184E+02  0.7546771E-02  0.1548940E+00
         21   -1    0    0  501  502  0.00000000000E+00  0.00000000000E+00  0.50924791297E+02  0.50924791297E+02  0.00000000000E+00 0. -1.
         21   -1    0    0  502  503 -0.00000000000E+00 -0.00000000000E+00 -0.57254477730E+02  0.57254477730E+02  0.00000000000E+00 0.  1.
          2    1    1    2  501    0 -0.34519907075E+02  0.55413395086E+01  0.38056013789E+02  0.51677757435E+02  0.00000000000E+00 0. -1.
         -2    1    1    2    0  503  0.34519907075E+02 -0.55413395086E+01 -0.44385700222E+02  0.56501511592E+02  0.00000000000E+00 0.  1.
<mgrwt>
<rscale>  2 0.34961842E+02</rscale>
<asrwt>0</asrwt>
<pdfrwt beam="1">  1       21 0.78345833E-02 0.34961842E+02</pdfrwt>
<pdfrwt beam="2">  1       21 0.88083812E-02 0.34961842E+02</pdfrwt>
<totfact> 0.10713114E+07</totfact>
</mgrwt>
</event>
<event>
 4    1  0.2677450E+004  0.2095463E+02  0.7546771E-02  0.1726984E+00
         21   -1    0    0  503  502  0.00000000000E+00  0.00000000000E+00  0.92262270084E+01  0.92262270084E+01  0.00000000000E+00 0. -1.
         21   -1    0    0  501  503 -0.00000000000E+00 -0.00000000000E+00 -0.61831603446E+02  0.61831603446E+02  0.00000000000E+00 0.  1.
          2    1    1    2  501    0 -0.77862031629E+01  0.19454345114E+02 -0.43352613793E+02  0.48151278552E+02  0.00000000000E+00 0.  1.
         -2    1    1    2    0  502  0.77862031629E+01 -0.19454345114E+02 -0.92527626447E+01  0.22906551903E+02  0.00000000000E+00 0. -1.
<mgrwt>
<rscale>  2 0.20954630E+02</rscale>
<asrwt>0</asrwt>
<pdfrwt beam="1">  1       21 0.14194196E-02 0.20954630E+02</pdfrwt>
<pdfrwt beam="2">  1       21 0.95125540E-02 0.20954630E+02</pdfrwt>
<totfact> 0.12428453E+08</totfact>
</mgrwt>
</event>
<event>
 4    1  0.2677450E+004  0.3037446E+02  0.7546771E-02  0.1593986E+00
         21   -1    0    0  503  502  0.00000000000E+00  0.00000000000E+00  0.15278058468E+02  0.15278058468E+02  0.00000000000E+00 0.  1.
         21   -1    0    0  501  503 -0.00000000000E+00 -0.00000000000E+00 -0.87174143364E+02  0.87174143364E+02  0.00000000000E+00 0. -1.
          2    1    1    2  501    0 -0.26398104499E+02  0.15024901422E+02 -0.64343872814E+02  0.71152944792E+02  0.00000000000E+00 0. -1.
         -2    1    1    2    0  502  0.26398104499E+02 -0.15024901422E+02 -0.75522120828E+01  0.31299257040E+02  0.00000000000E+00 0.  1.
<mgrwt>
<rscale>  2 0.30374456E+02</rscale>
<asrwt>0</asrwt>
<pdfrwt beam="1">  1       21 0.23504706E-02 0.30374456E+02</pdfrwt>
<pdfrwt beam="2">  1       21 0.13411407E-01 0.30374456E+02</pdfrwt>
<totfact> 0.35427700E+07</totfact>
</mgrwt>
</event>
<event>
 4    1  0.2677450E+004  0.2108369E+02  0.7546771E-02  0.1724598E+00
         21   -1    0    0  501  502  0.00000000000E+00  0.00000000000E+00  0.17443228869E+01  0.17443228869E+01  0.00000000000E+00 0. -1.
         21   -1    0    0  502  503 -0.00000000000E+00 -0.00000000000E+00 -0.38041463743E+03  0.38041463743E+03  0.00000000000E+00 0.  1.
          2    1    1    2  501    0 -0.20274975758E+02  0.57833705042E+01 -0.79551517466E+02  0.82298031249E+02  0.00000000000E+00 0. -1.
         -2    1    1    2    0  503  0.20274975758E+02 -0.57833705042E+01 -0.29911879708E+03  0.29986092907E+03  0.00000000000E+00 0.  1.
<mgrwt>
<rscale>  2 0.21083691E+02</rscale>
<asrwt>0</asrwt>
<pdfrwt beam="1">  1       21 0.26835725E-03 0.21083691E+02</pdfrwt>
<pdfrwt beam="2">  1       21 0.58525355E-01 0.21083691E+02</pdfrwt>
<totfact> 0.57470748E+07</totfact>
</mgrwt>
</event>
<event>
 4    1  0.2677450E+004  0.2440055E+02  0.7546771E-02  0.1669764E+00
         21   -1    0    0  503  502  0.00000000000E+00  0.00000000000E+00  0.14138934821E+01  0.14138934821E+01  0.00000000000E+00 0. -1.
         21   -1    0    0  501  503 -0.00000000000E+00 -0.00000000000E+00 -0.46888454443E+03  0.46888454443E+03  0.00000000000E+00 0.  1.
          2    1    1    2  501    0  0.53639510649E+01  0.23803673533E+02 -0.30880528821E+03  0.30976780477E+03  0.00000000000E+00 0.  1.
         -2    1    1    2    0  502 -0.53639510649E+01 -0.23803673533E+02 -0.15866536274E+03  0.16053063314E+03  0.00000000000E+00 0. -1.
<mgrwt>
<rscale>  2 0.24400550E+02</rscale>
<asrwt>0</asrwt>
<pdfrwt beam="1">  1       21 0.21752247E-03 0.24400550E+02</pdfrwt>
<pdfrwt beam="2">  1       21 0.72135952E-01 0.24400550E+02</pdfrwt>
<totfact> 0.52810873E+07</totfact>
</mgrwt>
</event>
<event>
 4    1  0.2677450E+004  0.2162845E+02  0.7546771E-02  0.1714758E+00
         21   -1    0    0  503  502  0.00000000000E+00  0.00000000000E+00  0.11848886733E+03  0.11848886733E+03  0.00000000000E+00 0. -1.
         21   -1    0    0  501  503 -0.00000000000E+00 -0.00000000000E+00 -0.32539782822E+02  0.32539782822E+02  0.00000000000E+00 0.  1.
          2    1    1    2  501    0 -0.21628446667E+02 -0.12749392752E-01 -0.27810729916E+02  0.35231045489E+02  0.00000000000E+00 0.  1.
         -2    1    1    2    0  502  0.21628446667E+02  0.12749392752E-01  0.11375981442E+03  0.11579760466E+03  0.00000000000E+00 0. -1.
<mgrwt>
<rscale>  2 0.21628450E+02</rscale>
<asrwt>0</asrwt>
<pdfrwt beam="1">  1       21 0.18229056E-01 0.21628450E+02</pdfrwt>
<pdfrwt beam="2">  1       21 0.50061205E-02 0.21628450E+02</pdfrwt>
<totfact> 0.59684722E+06</totfact>
</mgrwt>
</event>
<event>
 4    1  0.2677450E+004  0.2426058E+02  0.7546771E-02  0.1671855E+00
         21   -1    0    0  501  502  0.00000000000E+00  0.00000000000E+00  0.26132301363E+02  0.26132301363E+02  0.00000000000E+00 0. -1.
         21   -1    0    0  502  503 -0.00000000000E+00 -0.00000000000E+00 -0.43184029018E+02  0.43184029018E+02  0.00000000000E+00 0.  1.
          2    1    1    2  501    0  0.17441700737E+02 -0.16863061839E+02  0.15447047772E+02  0.28760859932E+02  0.00000000000E+00 0. -1.
         -2    1    1    2    0  503 -0.17441700737E+02  0.16863061839E+02 -0.32498775426E+02  0.40555470450E+02  0.00000000000E+00 0.  1.
<mgrwt>
<rscale>  2 0.24260581E+02</rscale>
<asrwt>0</asrwt>
<pdfrwt beam="1">  1       21 0.40203541E-02 0.24260581E+02</pdfrwt>
<pdfrwt beam="2">  1       21 0.66436967E-02 0.24260581E+02</pdfrwt>
<totfact> 0.46573926E+07</totfact>
</mgrwt>
</event>
<event>
 4    1  0.2677450E+004  0.2006706E+02  0.7546771E-02  0.1743998E+00
         21   -1    0    0  503  502  0.00000000000E+00  0.00000000000E+00  0.80713252682E+01  0.80713252682E+01  0.00000000000E+00 0. -1.
         21   -1    0    0  501  503 -0.00000000000E+00 -0.00000000000E+00 -0.58425492650E+02  0.58425492650E+02  0.00000000000E+00 0.  1.
          2    1    1    2  501    0  0.16619400222E+02  0.11246448159E+02 -0.37884484566E+02  0.42870983553E+02  0.00000000000E+00 0.  1.
         -2    1    1    2    0  502 -0.16619400222E+02 -0.11246448159E+02 -0.12469682816E+02  0.23625834365E+02  0.00000000000E+00 0. -1.
<mgrwt>
<rscale>  2 0.20067064E+02</rscale>
<asrwt>0</asrwt>
<pdfrwt beam="1">  1       21 0.12417423E-02 0.20067064E+02</pdfrwt>
<pdfrwt beam="2">  1       21 0.89885377E-02 0.20067064E+02</pdfrwt>
<totfact> 0.16462126E+08</totfact>
</mgrwt>
</event>
<event>
 4    1  0.2677450E+004  0.2236322E+02  0.7546771E-02  0.1702045E+00
         21   -1    0    0  501  502  0.00000000000E+00  0.00000000000E+00  0.70317885369E+02  0.70317885369E+02  0.00000000000E+00 0. -1.
         21   -1    0    0  502  503 -0.00000000000E+00 -0.00000000000E+00 -0.75444393827E+01  0.75444393827E+01  0.00000000000E+00 0.  1.
          2    1    1    2  501    0 -0.19177278209E+02  0.11504159096E+02  0.40705406046E+02  0.46443985158E+02  0.00000000000E+00 0.  1.
         -2    1    1    2    0  503  0.19177278209E+02 -0.11504159096E+02  0.22068039941E+02  0.31418339594E+02  0.00000000000E+00 0. -1.
<mgrwt>
<rscale>  2 0.22363222E+02</rscale>
<asrwt>0</asrwt>
<pdfrwt beam="1">  1       21 0.10818136E-01 0.22363222E+02</pdfrwt>
<pdfrwt beam="2">  1       21 0.11606830E-02 0.22363222E+02</pdfrwt>
<totfact> 0.13884432E+08</totfact>
</mgrwt>
</event>
<event>
 4    1  0.2677450E+004  0.2140339E+02  0.7546771E-02  0.1718779E+00
         21   -1    0    0  501  502  0.00000000000E+00  0.00000000000E+00  0.48987812604E+01  0.48987812604E+01  0.00000000000E+00 0.  1.
         21   -1    0    0  502  503 -0.00000000000E+00 -0.00000000000E+00 -0.32328533542E+03  0.32328533542E+03  0.00000000000E+00 0. -1.
          2    1    1    2  501    0 -0.21207652222E+02  0.28879995580E+01 -0.20854987179E+02  0.29883700314E+02  0.00000000000E+00 0.  1.
         -2    1    1    2    0  503  0.21207652222E+02 -0.28879995580E+01 -0.29753156698E+03  0.29830041637E+03  0.00000000000E+00 0. -1.
<mgrwt>
<rscale>  2 0.21403389E+02</rscale>
<asrwt>0</asrwt>
<pdfrwt beam="1">  1       21 0.75365893E-03 0.21403389E+02</pdfrwt>
<pdfrwt beam="2">  1       21 0.49736187E-01 0.21403389E+02</pdfrwt>
<totfact> 0.17431558E+07</totfact>
</mgrwt>
</event>
<event>
 4    1  0.2677450E+004  0.2125291E+02  0.7546771E-02  0.1721502E+00
         21   -1    0    0  503  502  0.00000000000E+00  0.00000000000E+00  0.14097498342E+03  0.14097498342E+03  0.00000000000E+00 0. -1.
         21   -1    0    0  501  503 -0.00000000000E+00 -0.00000000000E+00 -0.12728991739E+02  0.12728991739E+02  0.00000000000E+00 0.  1.
          2    1    1    2  501    0  0.13456663596E+02 -0.16450061600E+02 -0.23568502287E+01  0.21383195851E+02  0.00000000000E+00 0.  1.
         -2    1    1    2    0  502 -0.13456663596E+02  0.16450061600E+02  0.13060284191E+03  0.13232077931E+03  0.00000000000E+00 0. -1.
<mgrwt>
<rscale>  2 0.21252913E+02</rscale>
<asrwt>0</asrwt>
<pdfrwt beam="1">  1       21 0.21688458E-01 0.21252913E+02</pdfrwt>
<pdfrwt beam="2">  1       21 0.19583065E-02 0.21252913E+02</pdfrwt>
<totfact> 0.18950700E+07</totfact>
</mgrwt>
</event>
<event>
 4    1  0.2677450E+004  0.2080092E+02  0.7546771E-02  0.1729854E+00
         21   -1    0    0  503  502  0.00000000000E+00  0.00000000000E+00  0.51878073203E+02  0.51878073203E+02  0.00000000000E+00 0. -1.
         21   -1    0    0  501  503 -0.00000000000E+00 -0.00000000000E+00 -0.11458216362E+03  0.11458216362E+03  0.00000000000E+00 0.  1.
          2    1    1    2  501    0 -0.72119235688E+01  0.19510673220E+02 -0.11149583262E+03  0.11341957019E+03  0.00000000000E+00 0.  1.
         -2    1    1    2    0  502  0.72119235688E+01 -0.19510673220E+02  0.48791742195E+02  0.53040666639E+02  0.00000000000E+00 0. -1.
<mgrwt>
<rscale>  2 0.20800919E+02</rscale>
<asrwt>0</asrwt>
<pdfrwt beam="1">  1       21 0.79812421E-02 0.20800919E+02</pdfrwt>
<pdfrwt beam="2">  1       21 0.17628025E-01 0.20800919E+02</pdfrwt>
<totfact> 0.29713507E+06</totfact>
</mgrwt>
</event>
<event>
 4    1  0.2677450E+004  0.2271122E+02  0.7546771E-02  0.1696234E+00
         21   -1    0    0  501  502  0.00000000000E+00  0.00000000000E+00  0.20291804144E+03  0.20291804144E+03  0.00000000000E+00 0. -1.
         21   -1    0    0  502  503 -0.00000000000E+00 -0.00000000000E+00 -0.25782939612E+01  0.25782939612E+01  0.00000000000E+00 0.  1.
          2    1    1    2  501    0  0.22580922257E+02  0.24293095514E+01  0.11237541636E+03  0.11464743258E+03  0.00000000000E+00 0. -1.
         -2    1    1    2    0  503 -0.22580922257E+02 -0.24293095514E+01  0.87964331118E+02  0.90848902822E+02  0.00000000000E+00 0.  1.
<mgrwt>
<rscale>  2 0.22711222E+02</rscale>
<asrwt>0</asrwt>
<pdfrwt beam="1">  1       21 0.31218148E-01 0.22711222E+02</pdfrwt>
<pdfrwt beam="2">  1       21 0.39666077E-03 0.22711222E+02</pdfrwt>
<totfact> 0.10937192E+08</totfact>
</mgrwt>
</event>
<event>
 4    1  0.2677450E+004  0.7881152E+02  0.7546771E-02  0.1332458E+00
         21   -1    0    0  501  502  0.00000000000E+00  0.00000000000E+00  0.19179217903E+03  0.19179217903E+03  0.00000000000E+00 0. -1.
         21   -1    0    0  502  503 -0.00000000000E+00 -0.00000000000E+00 -0.34598297537E+02  0.34598297537E+02  0.00000000000E+00 0.  1.
          2    1    1    2  501    0  0.12779964942E+02 -0.77768424237E+02  0.49969195968E+02  0.93317607438E+02  0.00000000000E+00 0.  1.
         -2    1    1    2    0  503 -0.12779964942E+02  0.77768424237E+02  0.10722468552E+03  0.13307286912E+03  0.00000000000E+00 0. -1.
<mgrwt>
<rscale>  2 0.78811518E+02</rscale>
<asrwt>0</asrwt>
<pdfrwt beam="1">  1       21 0.29506488E-01 0.78811518E+02</pdfrwt>
<pdfrwt beam="2">  1       21 0.53228151E-02 0.78811518E+02</pdfrwt>
<totfact> 0.25877821E+06</totfact>
</mgrwt>
</event>
<event>
 4    1  0.2677450E+004  0.2159482E+02  0.7546771E-02  0.1715355E+00
         21   -1    0    0  503  502  0.00000000000E+00  0.00000000000E+00  0.12130861309E+03  0.12130861309E+03  0.00000000000E+00 0.  1.
         21   -1    0    0  501  503 -0.00000000000E+00 -0.00000000000E+00 -0.38442551083E+01  0.38442551083E+01  0.00000000000E+00 0. -1.
          2    1    1    2  501    0  0.32168303914E+01  0.21353880605E+02  0.58937916111E+02  0.62769532181E+02  0.00000000000E+00 0. -1.
         -2    1    1    2    0  502 -0.32168303914E+01 -0.21353880605E+02  0.58526441868E+02  0.62383336015E+02  0.00000000000E+00 0.  1.
<mgrwt>
<rscale>  2 0.21594819E+02</rscale>
<asrwt>0</asrwt>
<pdfrwt beam="1">  1       21 0.18662861E-01 0.21594819E+02</pdfrwt>
<pdfrwt beam="2">  1       21 0.59142396E-03 0.21594819E+02</pdfrwt>
<totfact> 0.14925968E+08</totfact>
</mgrwt>
</event>
<event>
 4    1  0.2677450E+004  0.2634408E+02  0.7546771E-02  0.1642414E+00
         21   -1    0    0  503  502  0.00000000000E+00  0.00000000000E+00  0.93152690200E+03  0.93152690200E+03  0.00000000000E+00 0.  1.
         21   -1    0    0  501  503 -0.00000000000E+00 -0.00000000000E+00 -0.35489900575E+01  0.35489900575E+01  0.00000000000E+00 0. -1.
          2    1    1    2  501    0  0.10652135510E+02  0.24094453201E+02  0.48412643147E+02  0.55116192561E+02  0.00000000000E+00 0. -1.
         -2    1    1    2    0  502 -0.10652135510E+02 -0.24094453201E+02  0.87956526880E+03  0.87995969950E+03  0.00000000000E+00 0.  1.
<mgrwt>
<rscale>  2 0.26344082E+02</rscale>
<asrwt>0</asrwt>
<pdfrwt beam="1">  1       21 0.14331164E+00 0.26344082E+02</pdfrwt>
<pdfrwt beam="2">  1       21 0.54599921E-03 0.26344082E+02</pdfrwt>
<totfact> 0.30462711E+06</totfact>
</mgrwt>
</event>
<event>
 4    1  0.2677450E+004  0.2173764E+02  0.7546771E-02  0.1712829E+00
         21   -1    0    0  503  502  0.00000000000E+00  0.00000000000E+00  0.16500874731E+02  0.16500874731E+02  0.00000000000E+00 0.  1.
         21   -1    0    0  501  503 -0.00000000000E+00 -0.00000000000E+00 -0.28636415741E+02  0.28636415741E+02  0.00000000000E+00 0. -1.
          2    1    1    2  501    0  0.20054936970E+02 -0.83859672249E+01 -0.61000349203E+01  0.22577319796E+02  0.00000000000E+00 0.  1.
         -2    1    1    2    0  502 -0.20054936970E+02  0.83859672249E+01 -0.60355060894E+01  0.22559970676E+02  0.00000000000E+00 0. -1.
<mgrwt>
<rscale>  2 0.21737639E+02</rscale>
<asrwt>0</asrwt>
<pdfrwt beam="1">  1       21 0.25385961E-02 0.21737639E+02</pdfrwt>
<pdfrwt beam="2">  1       21 0.44056024E-02 0.21737639E+02</pdfrwt>
<totfact> 0.17840175E+08</totfact>
</mgrwt>
</event>
<event>
 4    1  0.2677450E+004  0.3223834E+02  0.7546771E-02  0.1574588E+00
         21   -1    0    0  503  502  0.00000000000E+00  0.00000000000E+00  0.68239237079E+01  0.68239237079E+01  0.00000000000E+00 0. -1.
         21   -1    0    0  501  503 -0.00000000000E+00 -0.00000000000E+00 -0.31131086579E+03  0.31131086579E+03  0.00000000000E+00 0.  1.
          2    1    1    2  501    0 -0.19980269197E+02 -0.25300181631E+02 -0.26592556722E+03  0.26787257726E+03  0.00000000000E+00 0.  1.
         -2    1    1    2    0  502  0.19980269197E+02  0.25300181631E+02 -0.38561374868E+02  0.50262212242E+02  0.00000000000E+00 0. -1.
<mgrwt>
<rscale>  2 0.32238337E+02</rscale>
<asrwt>0</asrwt>
<pdfrwt beam="1">  1       21 0.10498341E-02 0.32238337E+02</pdfrwt>
<pdfrwt beam="2">  1       21 0.47893993E-01 0.32238337E+02</pdfrwt>
<totfact> 0.12258472E+07</totfact>
</mgrwt>
</event>
<event>
 4    1  0.2677450E+004  0.2231809E+02  0.7546771E-02  0.1702808E+00
         21   -1    0    0  503  502  0.00000000000E+00  0.00000000000E+00  0.16093844286E+01  0.16093844286E+01  0.00000000000E+00 0. -1.
         21   -1    0    0  501  503 -0.00000000000E+00 -0.00000000000E+00 -0.10041644652E+04  0.10041644652E+04  0.00000000000E+00 0.  1.
          2    1    1    2  501    0  0.22131221300E+02 -0.28820811075E+01 -0.91954766603E+03  0.91981846440E+03  0.00000000000E+00 0.  1.
         -2    1    1    2    0  502 -0.22131221300E+02  0.28820811075E+01 -0.83007414708E+02  0.85955385197E+02  0.00000000000E+00 0. -1.
<mgrwt>
<rscale>  2 0.22318095E+02</rscale>
<asrwt>0</asrwt>
<pdfrwt beam="1">  1       21 0.24759809E-03 0.22318095E+02</pdfrwt>
<pdfrwt beam="2">  1       21 0.15448654E+00 0.22318095E+02</pdfrwt>
<totfact> 0.79737699E+06</totfact>
</mgrwt>
</event>
<event>
 4    1  0.2677450E+004  0.6141364E+02  0.7546771E-02  0.1391993E+00
         21   -1    0    0  501  502  0.00000000000E+00  0.00000000000E+00  0.30811177912E+02  0.30811177912E+02  0.00000000000E+00 0. -1.
         21   -1    0    0  502  503 -0.00000000000E+00 -0.00000000000E+00 -0.12268165965E+03  0.12268165965E+03  0.00000000000E+00 0.  1.
          2    1    1    2  501    0  0.33784218587E+02  0.51286083277E+02 -0.49538158516E+02  0.78902882790E+02  0.00000000000E+00 0. -1.
         -2    1    1    2    0  503 -0.33784218587E+02 -0.51286083277E+02 -0.42332323218E+02  0.74589954769E+02  0.00000000000E+00 0.  1.
<mgrwt>
<rscale>  2 0.61413645E+02</rscale>
<asrwt>0</asrwt>
<pdfrwt beam="1">  1       21 0.47401812E-02 0.61413645E+02</pdfrwt>
<pdfrwt beam="2">  1       21 0.18874101E-01 0.61413645E+02</pdfrwt>
<totfact> 0.70273535E+06</totfact>
</mgrwt>
</event>
<event>
 4    1  0.2677450E+004  0.3089210E+02  0.7546771E-02  0.1588432E+00
         21   -1    0    0  503  502  0.00000000000E+00  0.00000000000E+00  0.74903267911E+02  0.74903267911E+02  0.00000000000E+00 0. -1.
         21   -1    0    0  501  503 -0.00000000000E+00 -0.00000000000E+00 -0.17175286679E+02  0.17175286679E+02  0.00000000000E+00 0.  1.
          2    1    1    2  501    0  0.68135297512E+01  0.30131342331E+02  0.54701339974E+01  0.31372668747E+02  0.00000000000E+00 0.  1.
         -2    1    1    2    0  502 -0.68135297512E+01 -0.30131342331E+02  0.52257847235E+02  0.60705885843E+02  0.00000000000E+00 0. -1.
<mgrwt>
<rscale>  2 0.30892102E+02</rscale>
<asrwt>0</asrwt>
<pdfrwt beam="1">  1       21 0.11523580E-01 0.30892102E+02</pdfrwt>
<pdfrwt beam="2">  1       21 0.26423518E-02 0.30892102E+02</pdfrwt>
<totfact> 0.38307815E+07</totfact>
</mgrwt>
</event>
<event>
 4    1  0.2677450E+004  0.2932256E+02  0.7546771E-02  0.1605700E+00
         21   -1    0    0  501  502  0.00000000000E+00  0.00000000000E+00  0.76911320074E+01  0.76911320074E+01  0.00000000000E+00 0. -1.
         21   -1    0    0  502  503 -0.00000000000E+00 -0.00000000000E+00 -0.12487346492E+03  0.12487346492E+03  0.00000000000E+00 0.  1.
          2    1    1    2  501    0  0.18733805484E+01 -0.29262649894E+02 -0.37138591065E+02  0.47318993859E+02  0.00000000000E+00 0. -1.
         -2    1    1    2    0  503 -0.18733805484E+01  0.29262649894E+02 -0.80043741844E+02  0.85245603064E+02  0.00000000000E+00 0.  1.
<mgrwt>
<rscale>  2 0.29322555E+02</rscale>
<asrwt>0</asrwt>
<pdfrwt beam="1">  1       21 0.11832510E-02 0.29322555E+02</pdfrwt>
<pdfrwt beam="2">  1       21 0.19211303E-01 0.29322555E+02</pdfrwt>
<totfact> 0.54315169E+07</totfact>
</mgrwt>
</event>
<event>
 4    1  0.2677450E+004  0.2161711E+02  0.7546771E-02  0.1714959E+00
         21   -1    0    0  501  502  0.00000000000E+00  0.00000000000E+00  0.27691231697E+01  0.27691231697E+01  0.00000000000E+00 0.  1.
         21   -1    0    0  502  503 -0.00000000000E+00 -0.00000000000E+00 -0.19238576280E+03  0.19238576280E+03  0.00000000000E+00 0. -1.
          2    1    1    2  501    0 -0.19607798020E+02  0.91012909902E+01 -0.60609149067E+02  0.64348801011E+02  0.00000000000E+00 0.  1.
         -2    1    1    2    0  503  0.19607798020E+02 -0.91012909902E+01 -0.12900749057E+03  0.13080608496E+03  0.00000000000E+00 0. -1.
<mgrwt>
<rscale>  2 0.21617105E+02</rscale>
<asrwt>0</asrwt>
<pdfrwt beam="1">  1       21 0.42601898E-03 0.21617105E+02</pdfrwt>
<pdfrwt beam="2">  1       21 0.29597808E-01 0.21617105E+02</pdfrwt>
<totfact> 0.10706576E+08</totfact>
</mgrwt>
</event>
<event>
 4    1  0.2677450E+004  0.2153166E+02  0.7546771E-02  0.1716480E+00
         21   -1    0    0  503  502  0.00000000000E+00  0.00000000000E+00  0.29064916630E+02  0.29064916630E+02  0.00000000000E+00 0. -1.
         21   -1    0    0  501  503 -0.00000000000E+00 -0.00000000000E+00 -0.23141328272E+02  0.23141328272E+02  0.00000000000E+00 0.  1.
          2    1    1    2  501    0 -0.19024382253E+02  0.10083910273E+02 -0.11588604052E+02  0.24452159626E+02  0.00000000000E+00 0.  1.
         -2    1    1    2    0  502  0.19024382253E+02 -0.10083910273E+02  0.17512192410E+02  0.27754085276E+02  0.00000000000E+00 0. -1.
<mgrwt>
<rscale>  2 0.21531660E+02</rscale>
<asrwt>0</asrwt>
<pdfrwt beam="1">  1       21 0.44715256E-02 0.21531660E+02</pdfrwt>
<pdfrwt beam="2">  1       21 0.35602043E-02 0.21531660E+02</pdfrwt>
<totfact> 0.10273836E+08</totfact>
</mgrwt>
</event>
<event>
 4    1  0.2677450E+004  0.2087349E+02  0.7546771E-02  0.1728495E+00
         21   -1    0    0  503  502  0.00000000000E+00  0.00000000000E+00  0.52053647646E+02  0.52053647646E+02  0.00000000000E+00 0.  1.
         21   -1    0    0  501  503 -0.00000000000E+00 -0.00000000000E+00 -0.84335409211E+01  0.84335409211E+01  0.00000000000E+00 0. -1.
          2    1    1    2  501    0 -0.17920730199E+02  0.10702809022E+02  0.24429782818E+02  0.32132802249E+02  0.00000000000E+00 0.  1.
         -2    1    1    2    0  502  0.17920730199E+02 -0.10702809022E+02  0.19190323907E+02  0.28354386318E+02  0.00000000000E+00 0. -1.
<mgrwt>
<rscale>  2 0.20873493E+02</rscale>
<asrwt>0</asrwt>
<pdfrwt beam="1">  1       21 0.80082533E-02 0.20873493E+02</pdfrwt>
<pdfrwt beam="2">  1       21 0.12974679E-02 0.20873493E+02</pdfrwt>
<totfact> 0.18833952E+08</totfact>
</mgrwt>
</event>
<event>
 4    1  0.2677450E+004  0.3105902E+02  0.7546771E-02  0.1586669E+00
         21   -1    0    0  503  502  0.00000000000E+00  0.00000000000E+00  0.13068896300E+02  0.13068896300E+02  0.00000000000E+00 0. -1.
         21   -1    0    0  501  503 -0.00000000000E+00 -0.00000000000E+00 -0.15979050475E+03  0.15979050475E+03  0.00000000000E+00 0.  1.
          2    1    1    2  501    0  0.21869877923E+02 -0.22053819297E+02 -0.13675921684E+03  0.14024174092E+03  0.00000000000E+00 0.  1.
         -2    1    1    2    0  502 -0.21869877923E+02  0.22053819297E+02 -0.99623916170E+01  0.32617660135E+02  0.00000000000E+00 0. -1.
<mgrwt>
<rscale>  2 0.31059017E+02</rscale>
<asrwt>0</asrwt>
<pdfrwt beam="1">  1       21 0.20105993E-02 0.31059017E+02</pdfrwt>
<pdfrwt beam="2">  1       21 0.24583156E-01 0.31059017E+02</pdfrwt>
<totfact> 0.15688953E+07</totfact>
</mgrwt>
</event>
<event>
 4    1  0.2677450E+004  0.2061449E+02  0.7546771E-02  0.1733377E+00
         21   -1    0    0  503  502  0.00000000000E+00  0.00000000000E+00  0.28963043598E+02  0.28963043598E+02  0.00000000000E+00 0.  1.
         21   -1    0    0  501  503 -0.00000000000E+00 -0.00000000000E+00 -0.15487791750E+02  0.15487791750E+02  0.00000000000E+00 0. -1.
          2    1    1    2  501    0  0.14420833456E+02  0.14730807997E+02  0.16379761417E+01  0.20679461009E+02  0.00000000000E+00 0.  1.
         -2    1    1    2    0  502 -0.14420833456E+02 -0.14730807997E+02  0.11837275706E+02  0.23771374338E+02  0.00000000000E+00 0. -1.
<mgrwt>
<rscale>  2 0.20614489E+02</rscale>
<asrwt>0</asrwt>
<pdfrwt beam="1">  1       21 0.44558529E-02 0.20614489E+02</pdfrwt>
<pdfrwt beam="2">  1       21 0.23827372E-02 0.20614489E+02</pdfrwt>
<totfact> 0.18997910E+08</totfact>
</mgrwt>
</event>
<event>
 4    1  0.2677450E+004  0.2039498E+02  0.7546771E-02  0.1737586E+00
         21   -1    0    0  501  502  0.00000000000E+00  0.00000000000E+00  0.35576349170E+03  0.35576349170E+03  0.00000000000E+00 0.  1.
         21   -1    0    0  502  503 -0.00000000000E+00 -0.00000000000E+00 -0.15311260773E+01  0.15311260773E+01  0.00000000000E+00 0. -1.
          2    1    1    2  501    0 -0.16892057605E+02 -0.11428625606E+02  0.26397361363E+03  0.26476031384E+03  0.00000000000E+00 0.  1.
         -2    1    1    2    0  503  0.16892057605E+02  0.11428625606E+02  0.90258752001E+02  0.92534303943E+02  0.00000000000E+00 0. -1.
<mgrwt>
<rscale>  2 0.20394977E+02</rscale>
<asrwt>0</asrwt>
<pdfrwt beam="1">  1       21 0.54732779E-01 0.20394977E+02</pdfrwt>
<pdfrwt beam="2">  1       21 0.23555814E-03 0.20394977E+02</pdfrwt>
<totfact> 0.78528327E+07</totfact>
</mgrwt>
</event>
<event>
 4    1  0.2677450E+004  0.3187024E+02  0.7546771E-02  0.1578290E+00
         21   -1    0    0  503  502  0.00000000000E+00  0.00000000000E+00  0.19088874083E+02  0.19088874083E+02  0.00000000000E+00 0.  1.
         21   -1    0    0  501  503 -0.00000000000E+00 -0.00000000000E+00 -0.53325877829E+02  0.53325877829E+02  0.00000000000E+00 0. -1.
          2    1    1    2  501    0  0.65814641681E+01  0.31183268945E+02 -0.18809020344E+02  0.37006636958E+02  0.00000000000E+00 0. -1.
         -2    1    1    2    0  502 -0.65814641681E+01 -0.31183268945E+02 -0.15427983402E+02  0.35408114953E+02  0.00000000000E+00 0.  1.
<mgrwt>
<rscale>  2 0.31870236E+02</rscale>
<asrwt>0</asrwt>
<pdfrwt beam="1">  1       21 0.29367499E-02 0.31870236E+02</pdfrwt>
<pdfrwt beam="2">  1       21 0.82039810E-02 0.31870236E+02</pdfrwt>
<totfact> 0.57650733E+07</totfact>
</mgrwt>
</event>
<event>
 4    1  0.2677450E+004  0.2280913E+02  0.7546771E-02  0.1694623E+00
         21   -1    0    0  503  502  0.00000000000E+00  0.00000000000E+00  0.63001747143E+02  0.63001747143E+02  0.00000000000E+00 0.  1.
         21   -1    0    0  501  503 -0.00000000000E+00 -0.00000000000E+00 -0.17392752849E+02  0.17392752849E+02  0.00000000000E+00 0. -1.
          2    1    1    2  501    0  0.66052166813E+01 -0.21831805096E+02 -0.63271501436E+01  0.23670433669E+02  0.00000000000E+00 0. -1.
         -2    1    1    2    0  502 -0.66052166813E+01  0.21831805096E+02  0.51936144438E+02  0.56724066323E+02  0.00000000000E+00 0.  1.
<mgrwt>
<rscale>  2 0.22809134E+02</rscale>
<asrwt>0</asrwt>
<pdfrwt beam="1">  1       21 0.96925764E-02 0.22809134E+02</pdfrwt>
<pdfrwt beam="2">  1       21 0.26758082E-02 0.22809134E+02</pdfrwt>
<totfact> 0.46758354E+07</totfact>
</mgrwt>
</event>
<event>
 4    1  0.2677450E+004  0.3301188E+02  0.7546771E-02  0.1566999E+00
         21   -1    0    0  501  502  0.00000000000E+00  0.00000000000E+00  0.14820149407E+02  0.14820149407E+02  0.00000000000E+00 0. -1.
         21   -1    0    0  502  503 -0.00000000000E+00 -0.00000000000E+00 -0.94943643362E+02  0.94943643362E+02  0.00000000000E+00 0.  1.
          2    1    1    2  501    0 -0.22326644320E+02 -0.24316765269E+02 -0.14000128040E+02  0.35857882046E+02  0.00000000000E+00 0. -1.
         -2    1    1    2    0  503  0.22326644320E+02  0.24316765269E+02 -0.66123365916E+02  0.73905910723E+02  0.00000000000E+00 0.  1.
<mgrwt>
<rscale>  2 0.33011878E+02</rscale>
<asrwt>0</asrwt>
<pdfrwt beam="1">  1       21 0.22800230E-02 0.33011878E+02</pdfrwt>
<pdfrwt beam="2">  1       21 0.14606714E-01 0.33011878E+02</pdfrwt>
<totfact> 0.32621542E+07</totfact>
</mgrwt>
</event>
<event>
 4    1  0.2677450E+004  0.2130668E+02  0.7546771E-02  0.1720526E+00
         21   -1    0    0  501  502  0.00000000000E+00  0.00000000000E+00  0.47142703303E+02  0.47142703303E+02  0.00000000000E+00 0.  1.
         21   -1    0    0  502  503 -0.00000000000E+00 -0.00000000000E+00 -0.13767631706E+02  0.13767631706E+02  0.00000000000E+00 0. -1.
          2    1    1    2  501    0 -0.21044078592E+02 -0.33348974343E+01  0.33383742239E+02  0.39603649208E+02  0.00000000000E+00 0.  1.
         -2    1    1    2    0  503  0.21044078592E+02  0.33348974343E+01 -0.86706426781E-02  0.21306685802E+02  0.00000000000E+00 0. -1.
<mgrwt>
<rscale>  2 0.21306684E+02</rscale>
<asrwt>0</asrwt>
<pdfrwt beam="1">  1       21 0.72527235E-02 0.21306684E+02</pdfrwt>
<pdfrwt beam="2">  1       21 0.21180972E-02 0.21306684E+02</pdfrwt>
<totfact> 0.10565403E+08</totfact>
</mgrwt>
</event>
<event>
 4    1  0.2677450E+004  0.2111994E+02  0.7546771E-02  0.1723932E+00
         21   -1    0    0  503  502  0.00000000000E+00  0.00000000000E+00  0.20339891705E+02  0.20339891705E+02  0.00000000000E+00 0.  1.
         21   -1    0    0  501  503 -0.00000000000E+00 -0.00000000000E+00 -0.33711492491E+02  0.33711492491E+02  0.00000000000E+00 0. -1.
          2    1    1    2  501    0 -0.15428939213E+01  0.21063510691E+02 -0.22662594549E+02  0.30978140615E+02  0.00000000000E+00 0. -1.
         -2    1    1    2    0  502  0.15428939213E+01 -0.21063510691E+02  0.92909937626E+01  0.23073243581E+02  0.00000000000E+00 0.  1.
<mgrwt>
<rscale>  2 0.21119943E+02</rscale>
<asrwt>0</asrwt>
<pdfrwt beam="1">  1       21 0.31292142E-02 0.21119943E+02</pdfrwt>
<pdfrwt beam="2">  1       21 0.51863834E-02 0.21119943E+02</pdfrwt>
<totfact> 0.98766754E+07</totfact>
</mgrwt>
</event>
<event>
 4    1  0.2677450E+004  0.2471258E+02  0.7546771E-02  0.1665165E+00
         21   -1    0    0  503  502  0.00000000000E+00  0.00000000000E+00  0.65989759349E+01  0.65989759349E+01  0.00000000000E+00 0. -1.
         21   -1    0    0  501  503 -0.00000000000E+00 -0.00000000000E+00 -0.15018541906E+03  0.15018541906E+03  0.00000000000E+00 0.  1.
          2    1    1    2  501    0  0.59245184303E+01  0.23991911609E+02 -0.12035751640E+03  0.12286839909E+03  0.00000000000E+00 0.  1.
         -2    1    1    2    0  502 -0.59245184303E+01 -0.23991911609E+02 -0.23228926722E+02  0.33915995900E+02  0.00000000000E+00 0. -1.
<mgrwt>
<rscale>  2 0.24712583E+02</rscale>
<asrwt>0</asrwt>
<pdfrwt beam="1">  1       21 0.10152272E-02 0.24712583E+02</pdfrwt>
<pdfrwt beam="2">  1       21 0.23105447E-01 0.24712583E+02</pdfrwt>
<totfact> 0.47551374E+07</totfact>
</mgrwt>
</event>
<event>
 4    1  0.2677450E+004  0.2251572E+02  0.7546771E-02  0.1699482E+00
         21   -1    0    0  503  502  0.00000000000E+00  0.00000000000E+00  0.41939197296E+03  0.41939197296E+03  0.00000000000E+00 0.  1.
         21   -1    0    0  501  503 -0.00000000000E+00 -0.00000000000E+00 -0.92888068754E+01  0.92888068754E+01  0.00000000000E+00 0. -1.
          2    1    1    2  501    0  0.93530354172E+00 -0.22496288134E+02  0.51436067508E+01  0.23095767208E+02  0.00000000000E+00 0. -1.
         -2    1    1    2    0  502 -0.93530354172E+00  0.22496288134E+02  0.40495955933E+03  0.40558501263E+03  0.00000000000E+00 0.  1.
<mgrwt>
<rscale>  2 0.22515723E+02</rscale>
<asrwt>0</asrwt>
<pdfrwt beam="1">  1       21 0.64521827E-01 0.22515723E+02</pdfrwt>
<pdfrwt beam="2">  1       21 0.14290475E-02 0.22515723E+02</pdfrwt>
<totfact> 0.40230395E+06</totfact>
</mgrwt>
</event>
<event>
 4    1  0.2677450E+004  0.2383381E+02  0.7546771E-02  0.1678340E+00
         21   -1    0    0  501  502  0.00000000000E+00  0.00000000000E+00  0.10430093576E+04  0.10430093576E+04  0.00000000000E+00 0. -1.
         21   -1    0    0  502  503 -0.00000000000E+00 -0.00000000000E+00 -0.54675112710E+00  0.54675112710E+00  0.00000000000E+00 0.  1.
          2    1    1    2  501    0  0.19876589968E+02  0.13151872119E+02  0.55375718505E+03  0.55426985356E+03  0.00000000000E+00 0. -1.
         -2    1    1    2    0  503 -0.19876589968E+02 -0.13151872119E+02  0.48870542143E+03  0.48928625517E+03  0.00000000000E+00 0.  1.
<mgrwt>
<rscale>  2 0.23833811E+02</rscale>
<asrwt>0</asrwt>
<pdfrwt beam="1">  1       21 0.16046139E+00 0.23833811E+02</pdfrwt>
<pdfrwt beam="2">  1       21 0.84116393E-04 0.23833811E+02</pdfrwt>
<totfact> 0.34605486E+07</totfact>
</mgrwt>
</event>
<event>
 4    1  0.2677450E+004  0.2845795E+02  0.7546771E-02  0.1615787E+00
         21   -1    0    0  501  502  0.00000000000E+00  0.00000000000E+00  0.20820271325E+02  0.20820271325E+02  0.00000000000E+00 0.  1.
         21   -1    0    0  502  503 -0.00000000000E+00 -0.00000000000E+00 -0.39706336842E+02  0.39706336842E+02  0.00000000000E+00 0. -1.
          2    1    1    2  501    0 -0.12291733759E+02  0.25666476187E+02 -0.51234687806E+01  0.28915474248E+02  0.00000000000E+00 0.  1.
         -2    1    1    2    0  503  0.12291733759E+02 -0.25666476187E+02 -0.13762596736E+02  0.31611133918E+02  0.00000000000E+00 0. -1.
<mgrwt>
<rscale>  2 0.28457946E+02</rscale>
<asrwt>0</asrwt>
<pdfrwt beam="1">  1       21 0.32031187E-02 0.28457946E+02</pdfrwt>
<pdfrwt beam="2">  1       21 0.61086672E-02 0.28457946E+02</pdfrwt>
<totfact> 0.79398721E+07</totfact>
</mgrwt>
</event>
<event>
 4    1  0.2677450E+004  0.3063450E+02  0.7546771E-02  0.1591179E+00
         21   -1    0    0  503  502  0.00000000000E+00  0.00000000000E+00  0.30517553252E+03  0.30517553252E+03  0.00000000000E+00 0. -1.
         21   -1    0    0  501  503 -0.00000000000E+00 -0.00000000000E+00 -0.37947239123E+01  0.37947239123E+01  0.00000000000E+00 0.  1.
          2    1    1    2  501    0 -0.28970515083E+02 -0.99590128990E+01  0.83420271909E+02  0.88867398114E+02  0.00000000000E+00 0.  1.
         -2    1    1    2    0  502  0.28970515083E+02  0.99590128990E+01  0.21796053670E+03  0.22010285832E+03  0.00000000000E+00 0. -1.
<mgrwt>
<rscale>  2 0.30634501E+02</rscale>
<asrwt>0</asrwt>
<pdfrwt beam="1">  1       21 0.46950063E-01 0.30634501E+02</pdfrwt>
<pdfrwt beam="2">  1       21 0.58380392E-03 0.30634501E+02</pdfrwt>
<totfact> 0.30608809E+07</totfact>
</mgrwt>
</event>
<event>
 4    1  0.2677450E+004  0.2136858E+02  0.7546771E-02  0.1719407E+00
         21   -1    0    0  501  502  0.00000000000E+00  0.00000000000E+00  0.58849204558E+01  0.58849204558E+01  0.00000000000E+00 0.  1.
         21   -1    0    0  502  503 -0.00000000000E+00 -0.00000000000E+00 -0.78255835125E+02  0.78255835125E+02  0.00000000000E+00 0. -1.
          2    1    1    2  501    0 -0.18553893344E+02  0.10600434088E+02 -0.40063512514E+02  0.45405959918E+02  0.00000000000E+00 0.  1.
         -2    1    1    2    0  503  0.18553893344E+02 -0.10600434088E+02 -0.32307402154E+02  0.38734795663E+02  0.00000000000E+00 0. -1.
<mgrwt>
<rscale>  2 0.21368579E+02</rscale>
<asrwt>0</asrwt>
<pdfrwt beam="1">  1       21 0.90537240E-03 0.21368579E+02</pdfrwt>
<pdfrwt beam="2">  1       21 0.12039359E-01 0.21368579E+02</pdfrwt>
<totfact> 0.16637156E+08</totfact>
</mgrwt>
</event>
<event>
 4    1  0.2677450E+004  0.2011867E+02  0.7546771E-02  0.1742978E+00
         21   -1    0    0  503  502  0.00000000000E+00  0.00000000000E+00  0.22249330680E+02  0.22249330680E+02  0.00000000000E+00 0.  1.
         21   -1    0    0  501  503 -0.00000000000E+00 -0.00000000000E+00 -0.29276492837E+02  0.29276492837E+02  0.00000000000E+00 0. -1.
          2    1    1    2  501    0 -0.12190777232E+02  0.16004561920E+02 -0.19365880018E+02  0.27924869930E+02  0.00000000000E+00 0. -1.
         -2    1    1    2    0  502  0.12190777232E+02 -0.16004561920E+02  0.12338717860E+02  0.23600953587E+02  0.00000000000E+00 0.  1.
<mgrwt>
<rscale>  2 0.20118674E+02</rscale>
<asrwt>0</asrwt>
<pdfrwt beam="1">  1       21 0.34229740E-02 0.20118674E+02</pdfrwt>
<pdfrwt beam="2">  1       21 0.45040758E-02 0.20118674E+02</pdfrwt>
<totfact> 0.10583450E+08</totfact>
</mgrwt>
</event>
<event>
 4    1  0.2677450E+004  0.2087716E+02  0.7546771E-02  0.1728427E+00
         21   -1    0    0  503  502  0.00000000000E+00  0.00000000000E+00  0.17369976788E+03  0.17369976788E+03  0.00000000000E+00 0. -1.
         21   -1    0    0  501  503 -0.00000000000E+00 -0.00000000000E+00 -0.29687599285E+01  0.29687599285E+01  0.00000000000E+00 0.  1.
          2    1    1    2  501    0 -0.20857351662E+02  0.90912991671E+00  0.50612649344E+02  0.54749391861E+02  0.00000000000E+00 0.  1.
         -2    1    1    2    0  502  0.20857351662E+02 -0.90912991671E+00  0.12011835861E+03  0.12191913595E+03  0.00000000000E+00 0. -1.
<mgrwt>
<rscale>  2 0.20877156E+02</rscale>
<asrwt>0</asrwt>
<pdfrwt beam="1">  1       21 0.26723033E-01 0.20877156E+02</pdfrwt>
<pdfrwt beam="2">  1       21 0.45673243E-03 0.20877156E+02</pdfrwt>
<totfact> 0.11506139E+08</totfact>
</mgrwt>
</event>
<event>
 4    1  0.2677450E+004  0.2035596E+02  0.7546771E-02  0.1738341E+00
         21   -1    0    0  501  502  0.00000000000E+00  0.00000000000E+00  0.24089590404E+03  0.24089590404E+03  0.00000000000E+00 0. -1.
         21   -1    0    0  502  503 -0.00000000000E+00 -0.00000000000E+00 -0.78933859228E+01  0.78933859228E+01  0.00000000000E+00 0.  1.
          2    1    1    2  501    0 -0.20472407369E+01  0.20252751079E+02  0.22651025518E+03  0.22742308770E+03  0.00000000000E+00 0. -1.
         -2    1    1    2    0  503  0.20472407369E+01 -0.20252751079E+02  0.64922629427E+01  0.21366202260E+02  0.00000000000E+00 0.  1.
<mgrwt>
<rscale>  2 0.20355960E+02</rscale>
<asrwt>0</asrwt>
<pdfrwt beam="1">  1       21 0.37060903E-01 0.20355960E+02</pdfrwt>
<pdfrwt beam="2">  1       21 0.12143673E-02 0.20355960E+02</pdfrwt>
<totfact> 0.14763851E+07</totfact>
</mgrwt>
</event>
<event>
 4    1  0.2677450E+004  0.2171664E+02  0.7546771E-02  0.1713199E+00
         21   -1    0    0  501  502  0.00000000000E+00  0.00000000000E+00  0.11536547921E+01  0.11536547921E+01  0.00000000000E+00 0. -1.
         21   -1    0    0  502  503 -0.00000000000E+00 -0.00000000000E+00 -0.47528520939E+03  0.47528520939E+03  0.00000000000E+00 0.  1.
          2    1    1    2  501    0  0.11640746267E+02 -0.18333181843E+02 -0.14796798551E+03  0.14955312523E+03  0.00000000000E+00 0. -1.
         -2    1    1    2    0  503 -0.11640746267E+02  0.18333181843E+02 -0.32616356908E+03  0.32688573894E+03  0.00000000000E+00 0.  1.
<mgrwt>
<rscale>  2 0.21716642E+02</rscale>
<asrwt>0</asrwt>
<pdfrwt beam="1">  1       21 0.17748496E-03 0.21716642E+02</pdfrwt>
<pdfrwt beam="2">  1       21 0.73120961E-01 0.21716642E+02</pdfrwt>
<totfact> 0.67030445E+07</totfact>
</mgrwt>
</event>
<event>
 4    1  0.2677450E+004  0.3431968E+02  0.7546771E-02  0.1554726E+00
         21   -1    0    0  503  502  0.00000000000E+00  0.00000000000E+00  0.24272792718E+02  0.24272792718E+02  0.00000000000E+00 0. -1.
         21   -1    0    0  501  503 -0.00000000000E+00 -0.00000000000E+00 -0.48646707481E+02  0.48646707481E+02  0.00000000000E+00 0.  1.
          2    1    1    2  501    0 -0.99086227150E+01  0.32858179439E+02 -0.14009545996E+02  0.37068964636E+02  0.00000000000E+00 0. -1.
         -2    1    1    2    0  502  0.99086227150E+01 -0.32858179439E+02 -0.10364368767E+02  0.35850535562E+02  0.00000000000E+00 0.  1.
<mgrwt>
<rscale>  2 0.34319685E+02</rscale>
<asrwt>0</asrwt>
<pdfrwt beam="1">  1       21 0.37342758E-02 0.34319685E+02</pdfrwt>
<pdfrwt beam="2">  1       21 0.74841088E-02 0.34319685E+02</pdfrwt>
<totfact> 0.46590018E+07</totfact>
</mgrwt>
</event>
<event>
 4    1  0.2677450E+004  0.2040592E+02  0.7546771E-02  0.1737374E+00
         21   -1    0    0  503  502  0.00000000000E+00  0.00000000000E+00  0.10304138711E+01  0.10304138711E+01  0.00000000000E+00 0.  1.
         21   -1    0    0  501  503 -0.00000000000E+00 -0.00000000000E+00 -0.51376040829E+03  0.51376040829E+03  0.00000000000E+00 0. -1.
          2    1    1    2  501    0 -0.94938701484E+01 -0.18062894438E+02 -0.37527635793E+03  0.37583074189E+03  0.00000000000E+00 0. -1.
         -2    1    1    2    0  502  0.94938701484E+01  0.18062894438E+02 -0.13745363649E+03  0.13896008027E+03  0.00000000000E+00 0.  1.
<mgrwt>
<rscale>  2 0.20405924E+02</rscale>
<asrwt>0</asrwt>
<pdfrwt beam="1">  1       21 0.15852463E-03 0.20405924E+02</pdfrwt>
<pdfrwt beam="2">  1       21 0.79040353E-01 0.20405924E+02</pdfrwt>
<totfact> 0.66066250E+07</totfact>
</mgrwt>
</event>
<event>
 4    1  0.2677450E+004  0.3014731E+02  0.7546771E-02  0.1596466E+00
         21   -1    0    0  501  502  0.00000000000E+00  0.00000000000E+00  0.16310530245E+02  0.16310530245E+02  0.00000000000E+00 0.  1.
         21   -1    0    0  502  503 -0.00000000000E+00 -0.00000000000E+00 -0.73266607979E+02  0.73266607979E+02  0.00000000000E+00 0. -1.
          2    1    1    2  501    0 -0.13847320275E+02 -0.26778946425E+02 -0.65609800361E+01  0.30852985422E+02  0.00000000000E+00 0.  1.
         -2    1    1    2    0  503  0.13847320275E+02  0.26778946425E+02 -0.50395097698E+02  0.58724152802E+02  0.00000000000E+00 0. -1.
<mgrwt>
<rscale>  2 0.30147309E+02</rscale>
<asrwt>0</asrwt>
<pdfrwt beam="1">  1       21 0.25093123E-02 0.30147309E+02</pdfrwt>
<pdfrwt beam="2">  1       21 0.11271786E-01 0.30147309E+02</pdfrwt>
<totfact> 0.42892657E+07</totfact>
</mgrwt>
</event>
<event>
 4    1  0.2677450E+004  0.2224709E+02  0.7546771E-02  0.1704013E+00
         21   -1    0    0  501  502  0.00000000000E+00  0.00000000000E+00  0.19259275086E+03  0.19259275086E+03  0.00000000000E+00 0. -1.
         21   -1    0    0  502  503 -0.00000000000E+00 -0.00000000000E+00 -0.28226822747E+01  0.28226822747E+01  0.00000000000E+00 0.  1.
          2    1    1    2  501    0 -0.92867438505E+01  0.20216065754E+02  0.12412797581E+03  0.12610585753E+03  0.00000000000E+00 0. -1.
         -2    1    1    2    0  503  0.92867438505E+01 -0.20216065754E+02  0.65642092779E+02  0.69309575604E+02  0.00000000000E+00 0.  1.
<mgrwt>
<rscale>  2 0.22247088E+02</rscale>
<asrwt>0</asrwt>
<pdfrwt beam="1">  1       21 0.29629644E-01 0.22247088E+02</pdfrwt>
<pdfrwt beam="2">  1       21 0.43425896E-03 0.22247088E+02</pdfrwt>
<totfact> 0.10472135E+08</totfact>
</mgrwt>
</event>
<event>
 4    1  0.2677450E+004  0.2274559E+02  0.7546771E-02  0.1695668E+00
         21   -1    0    0  503  502  0.00000000000E+00  0.00000000000E+00  0.42890471537E+02  0.42890471537E+02  0.00000000000E+00 0. -1.
         21   -1    0    0  501  503 -0.00000000000E+00 -0.00000000000E+00 -0.12110717280E+02  0.12110717280E+02  0.00000000000E+00 0.  1.
          2    1    1    2  501    0  0.20258362903E+02  0.10342165841E+02  0.17127063143E+02  0.28472758098E+02  0.00000000000E+00 0. -1.
         -2    1    1    2    0  502 -0.20258362903E+02 -0.10342165841E+02  0.13652691114E+02  0.26528430720E+02  0.00000000000E+00 0.  1.
<mgrwt>
<rscale>  2 0.22745586E+02</rscale>
<asrwt>0</asrwt>
<pdfrwt beam="1">  1       21 0.65985340E-02 0.22745586E+02</pdfrwt>
<pdfrwt beam="2">  1       21 0.18631873E-02 0.22745586E+02</pdfrwt>
<totfact> 0.15275215E+08</totfact>
</mgrwt>
</event>
<event>
 4    1  0.2677450E+004  0.2996499E+02  0.7546771E-02  0.1598476E+00
         21   -1    0    0  503  502  0.00000000000E+00  0.00000000000E+00  0.31879727208E+03  0.31879727208E+03  0.00000000000E+00 0. -1.
         21   -1    0    0  501  503 -0.00000000000E+00 -0.00000000000E+00 -0.97635163689E+01  0.97635163689E+01  0.00000000000E+00 0.  1.
          2    1    1    2  501    0 -0.26468133533E+02  0.14047715865E+02  0.15943120175E+02  0.33942355467E+02  0.00000000000E+00 0.  1.
         -2    1    1    2    0  502  0.26468133533E+02 -0.14047715865E+02  0.29309063553E+03  0.29461843298E+03  0.00000000000E+00 0. -1.
<mgrwt>
<rscale>  2 0.29964986E+02</rscale>
<asrwt>0</asrwt>
<pdfrwt beam="1">  1       21 0.49045726E-01 0.29964986E+02</pdfrwt>
<pdfrwt beam="2">  1       21 0.15020797E-02 0.29964986E+02</pdfrwt>
<totfact> 0.66996003E+06</totfact>
</mgrwt>
</event>
<event>
 4    1  0.2677450E+004  0.2896375E+02  0.7546771E-02  0.1609834E+00
         21   -1    0    0  503  502  0.00000000000E+00  0.00000000000E+00  0.67321003967E+02  0.67321003967E+02  0.00000000000E+00 0. -1.
         21   -1    0    0  501  503 -0.00000000000E+00 -0.00000000000E+00 -0.20749753214E+02  0.20749753214E+02  0.00000000000E+00 0.  1.
          2    1    1    2  501    0 -0.21911315118E+02 -0.18941832484E+02 -0.45457911682E+01  0.29318304272E+02  0.00000000000E+00 0.  1.
         -2    1    1    2    0  502  0.21911315118E+02  0.18941832484E+02  0.51117041921E+02  0.58752452909E+02  0.00000000000E+00 0. -1.
<mgrwt>
<rscale>  2 0.28963749E+02</rscale>
<asrwt>0</asrwt>
<pdfrwt beam="1">  1       21 0.10357077E-01 0.28963749E+02</pdfrwt>
<pdfrwt beam="2">  1       21 0.31922698E-02 0.28963749E+02</pdfrwt>
<totfact> 0.33610814E+07</totfact>
</mgrwt>
</event>
<event>
 4    1  0.2677450E+004  0.2367740E+02  0.7546771E-02  0.1680759E+00
         21   -1    0    0  501  502  0.00000000000E+00  0.00000000000E+00  0.58978398080E+01  0.58978398080E+01  0.00000000000E+00 0.  1.
         21   -1    0    0  502  503 -0.00000000000E+00 -0.00000000000E+00 -0.11765211832E+03  0.11765211832E+03  0.00000000000E+00 0. -1.
          2    1    1    2  501    0  0.39433574076E+01  0.23346719950E+02 -0.28803983939E+02  0.37286577891E+02  0.00000000000E+00 0.  1.
         -2    1    1    2    0  503 -0.39433574076E+01 -0.23346719950E+02 -0.82950294573E+02  0.86263380237E+02  0.00000000000E+00 0. -1.
<mgrwt>
<rscale>  2 0.23677403E+02</rscale>
<asrwt>0</asrwt>
<pdfrwt beam="1">  1       21 0.90736011E-03 0.23677403E+02</pdfrwt>
<pdfrwt beam="2">  1       21 0.18100323E-01 0.23677403E+02</pdfrwt>
<totfact> 0.85424565E+07</totfact>
</mgrwt>
</event>
<event>
 4    1  0.2677450E+004  0.2140911E+02  0.7546771E-02  0.1718676E+00
         21   -1    0    0  503  502  0.00000000000E+00  0.00000000000E+00  0.11282039025E+02  0.11282039025E+02  0.00000000000E+00 0. -1.
         21   -1    0    0  501  503 -0.00000000000E+00 -0.00000000000E+00 -0.41177143696E+02  0.41177143696E+02  0.00000000000E+00 0.  1.
          2    1    1    2  501    0  0.18201505663E+02  0.11271871138E+02 -0.17980704830E+02  0.27958104970E+02  0.00000000000E+00 0.  1.
         -2    1    1    2    0  502 -0.18201505663E+02 -0.11271871138E+02 -0.11914399842E+02  0.24501077751E+02  0.00000000000E+00 0. -1.
<mgrwt>
<rscale>  2 0.21409108E+02</rscale>
<asrwt>0</asrwt>
<pdfrwt beam="1">  1       21 0.17356983E-02 0.21409108E+02</pdfrwt>
<pdfrwt beam="2">  1       21 0.63349453E-02 0.21409108E+02</pdfrwt>
<totfact> 0.17838118E+08</totfact>
</mgrwt>
</event>
<event>
 4    1  0.2677450E+004  0.2410173E+02  0.7546771E-02  0.1674250E+00
         21   -1    0    0  503  502  0.00000000000E+00  0.00000000000E+00  0.11444393700E+03  0.11444393700E+03  0.00000000000E+00 0. -1.
         21   -1    0    0  501  503 -0.00000000000E+00 -0.00000000000E+00 -0.61440783268E+01  0.61440783268E+01  0.00000000000E+00 0.  1.
          2    1    1    2  501    0 -0.21754510432E+02 -0.10374720038E+02  0.29008512022E+02  0.37714550371E+02  0.00000000000E+00 0.  1.
         -2    1    1    2    0  502  0.21754510432E+02  0.10374720038E+02  0.79291346656E+02  0.82873464960E+02  0.00000000000E+00 0. -1.
<mgrwt>
<rscale>  2 0.24101733E+02</rscale>
<asrwt>0</asrwt>
<pdfrwt beam="1">  1       21 0.17606758E-01 0.24101733E+02</pdfrwt>
<pdfrwt beam="2">  1       21 0.94524291E-03 0.24101733E+02</pdfrwt>
<totfact> 0.84679519E+07</totfact>
</mgrwt>
</event>
<event>
 4    1  0.2677450E+004  0.2718030E+02  0.7546771E-02  0.1631526E+00
         21   -1    0    0  501  502  0.00000000000E+00  0.00000000000E+00  0.22799352627E+01  0.22799352627E+01  0.00000000000E+00 0.  1.
         21   -1    0    0  502  503 -0.00000000000E+00 -0.00000000000E+00 -0.33234282151E+03  0.33234282151E+03  0.00000000000E+00 0. -1.
          2    1    1    2  501    0 -0.27103807603E+02  0.20377112039E+01 -0.19149160253E+03  0.19341096787E+03  0.00000000000E+00 0.  1.
         -2    1    1    2    0  503  0.27103807603E+02 -0.20377112039E+01 -0.13857128372E+03  0.14121178890E+03  0.00000000000E+00 0. -1.
<mgrwt>
<rscale>  2 0.27180299E+02</rscale>
<asrwt>0</asrwt>
<pdfrwt beam="1">  1       21 0.35075932E-03 0.27180299E+02</pdfrwt>
<pdfrwt beam="2">  1       21 0.51129658E-01 0.27180299E+02</pdfrwt>
<totfact> 0.53818218E+07</totfact>
</mgrwt>
</event>
<event>
 4    1  0.2677450E+004  0.2389357E+02  0.7546771E-02  0.1677422E+00
         21   -1    0    0  503  502  0.00000000000E+00  0.00000000000E+00  0.17025375746E+01  0.17025375746E+01  0.00000000000E+00 0. -1.
         21   -1    0    0  501  503 -0.00000000000E+00 -0.00000000000E+00 -0.33752198190E+03  0.33752198190E+03  0.00000000000E+00 0.  1.
          2    1    1    2  501    0  0.19756978389E+02 -0.13437431978E+02 -0.18159509202E+03  0.18316025830E+03  0.00000000000E+00 0.  1.
         -2    1    1    2    0  502 -0.19756978389E+02  0.13437431978E+02 -0.15422435231E+03  0.15606426118E+03  0.00000000000E+00 0. -1.
<mgrwt>
<rscale>  2 0.23893572E+02</rscale>
<asrwt>0</asrwt>
<pdfrwt beam="1">  1       21 0.26192887E-03 0.23893572E+02</pdfrwt>
<pdfrwt beam="2">  1       21 0.51926456E-01 0.23893572E+02</pdfrwt>
<totfact> 0.77707392E+07</totfact>
</mgrwt>
</event>
<event>
 4    1  0.2677450E+004  0.2500213E+02  0.7546771E-02  0.1660971E+00
         21   -1    0    0  501  502  0.00000000000E+00  0.00000000000E+00  0.21873009896E+01  0.21873009896E+01  0.00000000000E+00 0.  1.
         21   -1    0    0  502  503 -0.00000000000E+00 -0.00000000000E+00 -0.29356036398E+03  0.29356036398E+03  0.00000000000E+00 0. -1.
          2    1    1    2  501    0 -0.24490729169E+02 -0.50309581384E+01 -0.12162662722E+03  0.12416981438E+03  0.00000000000E+00 0.  1.
         -2    1    1    2    0  503  0.24490729169E+02  0.50309581384E+01 -0.16974643577E+03  0.17157785059E+03  0.00000000000E+00 0. -1.
<mgrwt>
<rscale>  2 0.25002127E+02</rscale>
<asrwt>0</asrwt>
<pdfrwt beam="1">  1       21 0.33650760E-03 0.25002127E+02</pdfrwt>
<pdfrwt beam="2">  1       21 0.45163166E-01 0.25002127E+02</pdfrwt>
<totfact> 0.71438232E+07</totfact>
</mgrwt>
</event>
<event>
 4    1  0.2677450E+004  0.3186333E+02  0.7546771E-02  0.1578360E+00
         21   -1    0    0  503  502  0.00000000000E+00  0.00000000000E+00  0.42000065285E+01  0.42000065285E+01  0.00000000000E+00 0. -1.
         21   -1    0    0  501  503 -0.00000000000E+00 -0.00000000000E+00 -0.26016429153E+03  0.26016429153E+03  0.00000000000E+00 0.  1.
          2    1    1    2  501    0  0.18368959372E+02 -0.26035615112E+02 -0.16316653080E+03  0.16624857502E+03  0.00000000000E+00 0.  1.
         -2    1    1    2    0  502 -0.18368959372E+02  0.26035615112E+02 -0.92797754206E+02  0.98115723043E+02  0.00000000000E+00 0. -1.
<mgrwt>
<rscale>  2 0.31863332E+02</rscale>
<asrwt>0</asrwt>
<pdfrwt beam="1">  1       21 0.64615473E-03 0.31863332E+02</pdfrwt>
<pdfrwt beam="2">  1       21 0.40025283E-01 0.31863332E+02</pdfrwt>
<totfact> 0.36036300E+07</totfact>
</mgrwt>
</event>
<event>
 4    1  0.2677450E+004  0.2605866E+02  0.7546771E-02  0.1646246E+00
         21   -1    0    0  503  502  0.00000000000E+00  0.00000000000E+00  0.19257027287E+01  0.19257027287E+01  0.00000000000E+00 0. -1.
         21   -1    0    0  501  503 -0.00000000000E+00 -0.00000000000E+00 -0.35481113770E+03  0.35481113770E+03  0.00000000000E+00 0.  1.
          2    1    1    2  501    0 -0.76245155081E+01  0.24918280702E+02 -0.16244677969E+03  0.16452358549E+03  0.00000000000E+00 0.  1.
         -2    1    1    2    0  502  0.76245155081E+01 -0.24918280702E+02 -0.19043865528E+03  0.19221325494E+03  0.00000000000E+00 0. -1.
<mgrwt>
<rscale>  2 0.26058664E+02</rscale>
<asrwt>0</asrwt>
<pdfrwt beam="1">  1       21 0.29626162E-03 0.26058664E+02</pdfrwt>
<pdfrwt beam="2">  1       21 0.54586391E-01 0.26058664E+02</pdfrwt>
<totfact> 0.60042378E+07</totfact>
</mgrwt>
</event>
<event>
 4    1  0.2677450E+004  0.2288141E+02  0.7546771E-02  0.1693440E+00
         21   -1    0    0  503  502  0.00000000000E+00  0.00000000000E+00  0.94970267225E+03  0.94970267225E+03  0.00000000000E+00 0. -1.
         21   -1    0    0  501  503 -0.00000000000E+00 -0.00000000000E+00 -0.65230875111E+00  0.65230875111E+00  0.00000000000E+00 0.  1.
          2    1    1    2  501    0 -0.49906341425E+01  0.22330533214E+02  0.28752768836E+03  0.28843670140E+03  0.00000000000E+00 0.  1.
         -2    1    1    2    0  502  0.49906341425E+01 -0.22330533214E+02  0.66152267514E+03  0.66191827960E+03  0.00000000000E+00 0. -1.
<mgrwt>
<rscale>  2 0.22881415E+02</rscale>
<asrwt>0</asrwt>
<pdfrwt beam="1">  1       21 0.14610700E+00 0.22881415E+02</pdfrwt>
<pdfrwt beam="2">  1       21 0.10035595E-03 0.22881415E+02</pdfrwt>
<totfact> 0.33414990E+07</totfact>
</mgrwt>
</event>
<event>
 4    1  0.2677450E+004  0.3820225E+02  0.7546771E-02  0.1521874E+00
         21   -1    0    0  503  502  0.00000000000E+00  0.00000000000E+00  0.25166559298E+03  0.25166559298E+03  0.00000000000E+00 0. -1.
         21   -1    0    0  501  503 -0.00000000000E+00 -0.00000000000E+00 -0.13782587581E+02  0.13782587581E+02  0.00000000000E+00 0.  1.
          2    1    1    2  501    0  0.38201218772E+02 -0.28019399999E+00  0.17927142909E+02  0.42199455887E+02  0.00000000000E+00 0.  1.
         -2    1    1    2    0  502 -0.38201218772E+02  0.28019399999E+00  0.21995586249E+03  0.22324872467E+03  0.00000000000E+00 0. -1.
<mgrwt>
<rscale>  2 0.38202246E+02</rscale>
<asrwt>0</asrwt>
<pdfrwt beam="1">  1       21 0.38717780E-01 0.38202246E+02</pdfrwt>
<pdfrwt beam="2">  1       21 0.21203983E-02 0.38202246E+02</pdfrwt>
<totfact> 0.64034662E+06</totfact>
</mgrwt>
</event>
<event>
 4    1  0.2677450E+004  0.2151382E+02  0.7546771E-02  0.1716798E+00
         21   -1    0    0  503  502  0.00000000000E+00  0.00000000000E+00  0.10788464433E+03  0.10788464433E+03  0.00000000000E+00 0. -1.
         21   -1    0    0  501  503 -0.00000000000E+00 -0.00000000000E+00 -0.68362884455E+01  0.68362884455E+01  0.00000000000E+00 0.  1.
          2    1    1    2  501    0 -0.13948867822E+02  0.16379059371E+02  0.15518300496E+02  0.26526630952E+02  0.00000000000E+00 0.  1.
         -2    1    1    2    0  502  0.13948867822E+02 -0.16379059371E+02  0.85530055393E+02  0.88194301828E+02  0.00000000000E+00 0. -1.
<mgrwt>
<rscale>  2 0.21513821E+02</rscale>
<asrwt>0</asrwt>
<pdfrwt beam="1">  1       21 0.16597636E-01 0.21513821E+02</pdfrwt>
<pdfrwt beam="2">  1       21 0.10517368E-02 0.21513821E+02</pdfrwt>
<totfact> 0.77418153E+07</totfact>
</mgrwt>
</event>
<event>
 4    1  0.2677450E+004  0.3393759E+02  0.7546771E-02  0.1558243E+00
         21   -1    0    0  501  502  0.00000000000E+00  0.00000000000E+00  0.82430617251E+02  0.82430617251E+02  0.00000000000E+00 0. -1.
         21   -1    0    0  502  503 -0.00000000000E+00 -0.00000000000E+00 -0.17500809277E+02  0.17500809277E+02  0.00000000000E+00 0.  1.
          2    1    1    2  501    0  0.32156492097E+02 -0.10849897074E+02  0.54899977932E+02  0.64542759682E+02  0.00000000000E+00 0. -1.
         -2    1    1    2    0  503 -0.32156492097E+02  0.10849897074E+02  0.10029830043E+02  0.35388666846E+02  0.00000000000E+00 0.  1.
<mgrwt>
<rscale>  2 0.33937593E+02</rscale>
<asrwt>0</asrwt>
<pdfrwt beam="1">  1       21 0.12681633E-01 0.33937593E+02</pdfrwt>
<pdfrwt beam="2">  1       21 0.26924322E-02 0.33937593E+02</pdfrwt>
<totfact> 0.32211013E+07</totfact>
</mgrwt>
</event>
<event>
 4    1  0.2677450E+004  0.2108737E+02  0.7546771E-02  0.1724531E+00
         21   -1    0    0  501  502  0.00000000000E+00  0.00000000000E+00  0.87486084106E+02  0.87486084106E+02  0.00000000000E+00 0.  1.
         21   -1    0    0  502  503 -0.00000000000E+00 -0.00000000000E+00 -0.11021945595E+02  0.11021945595E+02  0.00000000000E+00 0. -1.
          2    1    1    2  501    0 -0.10072155558E+02  0.18526431241E+02  0.74387485140E+02  0.77318658276E+02  0.00000000000E+00 0.  1.
         -2    1    1    2    0  503  0.10072155558E+02 -0.18526431241E+02  0.20766533706E+01  0.21189371424E+02  0.00000000000E+00 0. -1.
<mgrwt>
<rscale>  2 0.21087365E+02</rscale>
<asrwt>0</asrwt>
<pdfrwt beam="1">  1       21 0.13459397E-01 0.21087365E+02</pdfrwt>
<pdfrwt beam="2">  1       21 0.16956840E-02 0.21087365E+02</pdfrwt>
<totfact> 0.53406852E+07</totfact>
</mgrwt>
</event>
<event>
 4    1  0.2677450E+004  0.2128184E+02  0.7546771E-02  0.1720977E+00
         21   -1    0    0  501  502  0.00000000000E+00  0.00000000000E+00  0.56399561214E+02  0.56399561214E+02  0.00000000000E+00 0. -1.
         21   -1    0    0  502  503 -0.00000000000E+00 -0.00000000000E+00 -0.84883128331E+01  0.84883128331E+01  0.00000000000E+00 0.  1.
          2    1    1    2  501    0  0.68473157920E+00 -0.21270817498E+02  0.31490360123E+02  0.38007358696E+02  0.00000000000E+00 0. -1.
         -2    1    1    2    0  503 -0.68473157920E+00  0.21270817498E+02  0.16420888258E+02  0.26880515351E+02  0.00000000000E+00 0.  1.
<mgrwt>
<rscale>  2 0.21281836E+02</rscale>
<asrwt>0</asrwt>
<pdfrwt beam="1">  1       21 0.86768553E-02 0.21281836E+02</pdfrwt>
<pdfrwt beam="2">  1       21 0.13058943E-02 0.21281836E+02</pdfrwt>
<totfact> 0.16465844E+08</totfact>
</mgrwt>
</event>
<event>
 4    1  0.2677450E+004  0.2190821E+02  0.7546771E-02  0.1709844E+00
         21   -1    0    0  501  502  0.00000000000E+00  0.00000000000E+00  0.13622997946E+03  0.13622997946E+03  0.00000000000E+00 0.  1.
         21   -1    0    0  502  503 -0.00000000000E+00 -0.00000000000E+00 -0.22126804842E+02  0.22126804842E+02  0.00000000000E+00 0. -1.
          2    1    1    2  501    0 -0.17245657903E+02 -0.13511365122E+02  0.12965307425E+03  0.13149102390E+03  0.00000000000E+00 0.  1.
         -2    1    1    2    0  503  0.17245657903E+02  0.13511365122E+02 -0.15549899625E+02  0.26865760408E+02  0.00000000000E+00 0. -1.
<mgrwt>
<rscale>  2 0.21908211E+02</rscale>
<asrwt>0</asrwt>
<pdfrwt beam="1">  1       21 0.20958458E-01 0.21908211E+02</pdfrwt>
<pdfrwt beam="2">  1       21 0.34041239E-02 0.21908211E+02</pdfrwt>
<totfact> 0.86174416E+06</totfact>
</mgrwt>
</event>
<event>
 4    1  0.2677450E+004  0.3319611E+02  0.7546771E-02  0.1565229E+00
         21   -1    0    0  503  502  0.00000000000E+00  0.00000000000E+00  0.85728608090E+02  0.85728608090E+02  0.00000000000E+00 0.  1.
         21   -1    0    0  501  503 -0.00000000000E+00 -0.00000000000E+00 -0.51614136785E+02  0.51614136785E+02  0.00000000000E+00 0. -1.
          2    1    1    2  501    0  0.32935959304E+02  0.41477915469E+01 -0.42451721584E+02  0.53889982886E+02  0.00000000000E+00 0. -1.
         -2    1    1    2    0  502 -0.32935959304E+02 -0.41477915469E+01  0.76566192890E+02  0.83452761989E+02  0.00000000000E+00 0.  1.
<mgrwt>
<rscale>  2 0.33196108E+02</rscale>
<asrwt>0</asrwt>
<pdfrwt beam="1">  1       21 0.13189017E-01 0.33196108E+02</pdfrwt>
<pdfrwt beam="2">  1       21 0.79406364E-02 0.33196108E+02</pdfrwt>
<totfact> 0.52600493E+06</totfact>
</mgrwt>
</event>
<event>
 4    1  0.2677450E+004  0.2574050E+02  0.7546771E-02  0.1650588E+00
         21   -1    0    0  501  502  0.00000000000E+00  0.00000000000E+00  0.43027872221E+02  0.43027872221E+02  0.00000000000E+00 0. -1.
         21   -1    0    0  502  503 -0.00000000000E+00 -0.00000000000E+00 -0.16336923846E+02  0.16336923846E+02  0.00000000000E+00 0.  1.
          2    1    1    2  501    0  0.46439478756E+01  0.25318117035E+02  0.20458707323E+02  0.32880571884E+02  0.00000000000E+00 0. -1.
         -2    1    1    2    0  503 -0.46439478756E+01 -0.25318117035E+02  0.62322410522E+01  0.26484224184E+02  0.00000000000E+00 0.  1.
<mgrwt>
<rscale>  2 0.25740499E+02</rscale>
<asrwt>0</asrwt>
<pdfrwt beam="1">  1       21 0.66196726E-02 0.25740499E+02</pdfrwt>
<pdfrwt beam="2">  1       21 0.25133729E-02 0.25740499E+02</pdfrwt>
<totfact> 0.99233512E+07</totfact>
</mgrwt>
</event>
<event>
 4    1  0.2677450E+004  0.3375260E+02  0.7546771E-02  0.1559965E+00
         21   -1    0    0  503  502  0.00000000000E+00  0.00000000000E+00  0.44399829186E+02  0.44399829186E+02  0.00000000000E+00 0.  1.
         21   -1    0    0  501  503 -0.00000000000E+00 -0.00000000000E+00 -0.36517957460E+02  0.36517957460E+02  0.00000000000E+00 0. -1.
          2    1    1    2  501    0 -0.50726831609E+00  0.33748790386E+02 -0.18121959332E+02  0.38309836644E+02  0.00000000000E+00 0. -1.
         -2    1    1    2    0  502  0.50726831609E+00 -0.33748790386E+02  0.26003831058E+02  0.42607950002E+02  0.00000000000E+00 0.  1.
<mgrwt>
<rscale>  2 0.33752602E+02</rscale>
<asrwt>0</asrwt>
<pdfrwt beam="1">  1       21 0.68307429E-02 0.33752602E+02</pdfrwt>
<pdfrwt beam="2">  1       21 0.56181473E-02 0.33752602E+02</pdfrwt>
<totfact> 0.27973192E+07</totfact>
</mgrwt>
</event>
<event>
 4    1  0.2677450E+004  0.2017084E+02  0.7546771E-02  0.1741952E+00
         21   -1    0    0  501  502  0.00000000000E+00  0.00000000000E+00  0.32948113891E+02  0.32948113891E+02  0.00000000000E+00 0.  1.
         21   -1    0    0  502  503 -0.00000000000E+00 -0.00000000000E+00 -0.39960711041E+02  0.39960711041E+02  0.00000000000E+00 0. -1.
          2    1    1    2  501    0 -0.18360646099E+02 -0.83516031493E+01  0.26796547472E+02  0.33539790648E+02  0.00000000000E+00 0.  1.
         -2    1    1    2    0  503  0.18360646099E+02  0.83516031493E+01 -0.33809144622E+02  0.39369034284E+02  0.00000000000E+00 0. -1.
<mgrwt>
<rscale>  2 0.20170835E+02</rscale>
<asrwt>0</asrwt>
<pdfrwt beam="1">  1       21 0.50689406E-02 0.20170835E+02</pdfrwt>
<pdfrwt beam="2">  1       21 0.61478017E-02 0.20170835E+02</pdfrwt>
<totfact> 0.34890741E+07</totfact>
</mgrwt>
</event>
<event>
 4    1  0.2677450E+004  0.3000453E+02  0.7546771E-02  0.1598039E+00
         21   -1    0    0  503  502  0.00000000000E+00  0.00000000000E+00  0.11360533646E+02  0.11360533646E+02  0.00000000000E+00 0.  1.
         21   -1    0    0  501  503 -0.00000000000E+00 -0.00000000000E+00 -0.13285512637E+03  0.13285512637E+03  0.00000000000E+00 0. -1.
          2    1    1    2  501    0  0.29342902299E+02  0.62662478387E+01 -0.10655246023E+03  0.11069642522E+03  0.00000000000E+00 0. -1.
         -2    1    1    2    0  502 -0.29342902299E+02 -0.62662478387E+01 -0.14942132495E+02  0.33519234788E+02  0.00000000000E+00 0.  1.
<mgrwt>
<rscale>  2 0.30004529E+02</rscale>
<asrwt>0</asrwt>
<pdfrwt beam="1">  1       21 0.17477745E-02 0.30004529E+02</pdfrwt>
<pdfrwt beam="2">  1       21 0.20439249E-01 0.30004529E+02</pdfrwt>
<totfact> 0.26919862E+07</totfact>
</mgrwt>
</event>
<event>
 4    1  0.2677450E+004  0.3142491E+02  0.7546771E-02  0.1582852E+00
         21   -1    0    0  503  502  0.00000000000E+00  0.00000000000E+00  0.14773654887E+02  0.14773654887E+02  0.00000000000E+00 0. -1.
         21   -1    0    0  501  503 -0.00000000000E+00 -0.00000000000E+00 -0.76680095033E+02  0.76680095033E+02  0.00000000000E+00 0.  1.
          2    1    1    2  501    0 -0.30762389974E+02  0.64187540765E+01 -0.47330781961E+02  0.56813096746E+02  0.00000000000E+00 0.  1.
         -2    1    1    2    0  502  0.30762389974E+02 -0.64187540765E+01 -0.14575658185E+02  0.34640653174E+02  0.00000000000E+00 0. -1.
<mgrwt>
<rscale>  2 0.31424911E+02</rscale>
<asrwt>0</asrwt>
<pdfrwt beam="1">  1       21 0.22728700E-02 0.31424911E+02</pdfrwt>
<pdfrwt beam="2">  1       21 0.11796937E-01 0.31424911E+02</pdfrwt>
<totfact> 0.46752871E+07</totfact>
</mgrwt>
</event>
<event>
 4    1  0.2677450E+004  0.3627958E+02  0.7546771E-02  0.1537522E+00
         21   -1    0    0  501  502  0.00000000000E+00  0.00000000000E+00  0.10070965668E+04  0.10070965668E+04  0.00000000000E+00 0.  1.
         21   -1    0    0  502  503 -0.00000000000E+00 -0.00000000000E+00 -0.16282225160E+01  0.16282225160E+01  0.00000000000E+00 0. -1.
          2    1    1    2  501    0  0.36079518619E+02  0.38048132114E+01  0.72677839067E+03  0.72768333595E+03  0.00000000000E+00 0.  1.
         -2    1    1    2    0  503 -0.36079518619E+02 -0.38048132114E+01  0.27868995359E+03  0.28104145334E+03  0.00000000000E+00 0. -1.
<mgrwt>
<rscale>  2 0.36279585E+02</rscale>
<asrwt>0</asrwt>
<pdfrwt beam="1">  1       21 0.15493744E+00 0.36279585E+02</pdfrwt>
<pdfrwt beam="2">  1       21 0.25049658E-03 0.36279585E+02</pdfrwt>
<totfact> 0.82340967E+06</totfact>
</mgrwt>
</event>
<event>
 4    1  0.2677450E+004  0.2033560E+02  0.7546771E-02  0.1738735E+00
         21   -1    0    0  501  502  0.00000000000E+00  0.00000000000E+00  0.47881786393E+02  0.47881786393E+02  0.00000000000E+00 0.  1.
         21   -1    0    0  502  503 -0.00000000000E+00 -0.00000000000E+00 -0.13065133584E+02  0.13065133584E+02  0.00000000000E+00 0. -1.
          2    1    1    2  501    0 -0.15308446197E+02  0.13386114167E+02  0.35149978240E+02  0.40608589580E+02  0.00000000000E+00 0.  1.
         -2    1    1    2    0  503  0.15308446197E+02 -0.13386114167E+02 -0.33332543135E+00  0.20338330397E+02  0.00000000000E+00 0. -1.
<mgrwt>
<rscale>  2 0.20335599E+02</rscale>
<asrwt>0</asrwt>
<pdfrwt beam="1">  1       21 0.73664286E-02 0.20335599E+02</pdfrwt>
<pdfrwt beam="2">  1       21 0.20100206E-02 0.20335599E+02</pdfrwt>
<totfact> 0.11009777E+08</totfact>
</mgrwt>
</event>
<event>
 4    1  0.2677450E+004  0.2584072E+02  0.7546771E-02  0.1649212E+00
         21   -1    0    0  503  502  0.00000000000E+00  0.00000000000E+00  0.33710352455E+01  0.33710352455E+01  0.00000000000E+00 0.  1.
         21   -1    0    0  501  503 -0.00000000000E+00 -0.00000000000E+00 -0.39951030464E+03  0.39951030464E+03  0.00000000000E+00 0. -1.
          2    1    1    2  501    0  0.25771554853E+02  0.18893315662E+01 -0.34110486716E+03  0.34208226059E+03  0.00000000000E+00 0. -1.
         -2    1    1    2    0  502 -0.25771554853E+02 -0.18893315662E+01 -0.55034402233E+02  0.60799079290E+02  0.00000000000E+00 0.  1.
<mgrwt>
<rscale>  2 0.25840716E+02</rscale>
<asrwt>0</asrwt>
<pdfrwt beam="1">  1       21 0.51862066E-03 0.25840716E+02</pdfrwt>
<pdfrwt beam="2">  1       21 0.61463142E-01 0.25840716E+02</pdfrwt>
<totfact> 0.20737431E+07</totfact>
</mgrwt>
</event>
<event>
 4    1  0.2677450E+004  0.2836040E+02  0.7546771E-02  0.1616953E+00
         21   -1    0    0  501  502  0.00000000000E+00  0.00000000000E+00  0.12519041265E+03  0.12519041265E+03  0.00000000000E+00 0.  1.
         21   -1    0    0  502  503 -0.00000000000E+00 -0.00000000000E+00 -0.79966749943E+01  0.79966749943E+01  0.00000000000E+00 0. -1.
          2    1    1    2  501    0 -0.13101514072E+02  0.25152789342E+02  0.88122447138E+02  0.92573636486E+02  0.00000000000E+00 0.  1.
         -2    1    1    2    0  503  0.13101514072E+02 -0.25152789342E+02  0.29071290519E+02  0.40613451160E+02  0.00000000000E+00 0. -1.
<mgrwt>
<rscale>  2 0.28360403E+02</rscale>
<asrwt>0</asrwt>
<pdfrwt beam="1">  1       21 0.19260062E-01 0.28360403E+02</pdfrwt>
<pdfrwt beam="2">  1       21 0.12302578E-02 0.28360403E+02</pdfrwt>
<totfact> 0.50576019E+07</totfact>
</mgrwt>
</event>
<event>
 4    1  0.2677450E+004  0.3500895E+02  0.7546771E-02  0.1548521E+00
         21   -1    0    0  501  502  0.00000000000E+00  0.00000000000E+00  0.40638521693E+01  0.40638521693E+01  0.00000000000E+00 0. -1.
         21   -1    0    0  502  503 -0.00000000000E+00 -0.00000000000E+00 -0.81012888564E+03  0.81012888564E+03  0.00000000000E+00 0.  1.
          2    1    1    2  501    0  0.34829477015E+02 -0.35404007690E+01 -0.80494262462E+02  0.87777862790E+02  0.00000000000E+00 0. -1.
         -2    1    1    2    0  503 -0.34829477015E+02  0.35404007690E+01 -0.72557077101E+03  0.72641487502E+03  0.00000000000E+00 0.  1.
<mgrwt>
<rscale>  2 0.35008955E+02</rscale>
<asrwt>0</asrwt>
<pdfrwt beam="1">  1       21 0.62520814E-03 0.35008955E+02</pdfrwt>
<pdfrwt beam="2">  1       21 0.12463519E+00 0.35008955E+02</pdfrwt>
<totfact> 0.35432039E+06</totfact>
</mgrwt>
</event>
<event>
 4    1  0.2677450E+004  0.2085022E+02  0.7546771E-02  0.1728930E+00
         21   -1    0    0  503  502  0.00000000000E+00  0.00000000000E+00  0.33458033917E+02  0.33458033917E+02  0.00000000000E+00 0. -1.
         21   -1    0    0  501  503 -0.00000000000E+00 -0.00000000000E+00 -0.13011538615E+02  0.13011538615E+02  0.00000000000E+00 0.  1.
          2    1    1    2  501    0 -0.17614776633E+02 -0.11155782170E+02  0.93544580676E+01  0.22852521029E+02  0.00000000000E+00 0.  1.
         -2    1    1    2    0  502  0.17614776633E+02  0.11155782170E+02  0.11092037235E+02  0.23617051503E+02  0.00000000000E+00 0. -1.
<mgrwt>
<rscale>  2 0.20850224E+02</rscale>
<asrwt>0</asrwt>
<pdfrwt beam="1">  1       21 0.51473898E-02 0.20850224E+02</pdfrwt>
<pdfrwt beam="2">  1       21 0.20017752E-02 0.20850224E+02</pdfrwt>
<totfact> 0.19822073E+08</totfact>
</mgrwt>
</event>
<event>
 4    1  0.2677450E+004  0.2058330E+02  0.7546771E-02  0.1733971E+00
         21   -1    0    0  503  502  0.00000000000E+00  0.00000000000E+00  0.97486966449E+02  0.97486966449E+02  0.00000000000E+00 0.  1.
         21   -1    0    0  501  503 -0.00000000000E+00 -0.00000000000E+00 -0.63665378271E+01  0.63665378271E+01  0.00000000000E+00 0. -1.
          2    1    1    2  501    0 -0.12416728576E+02  0.16416366064E+02  0.16306585177E+02  0.26259797093E+02  0.00000000000E+00 0. -1.
         -2    1    1    2    0  502  0.12416728576E+02 -0.16416366064E+02  0.74813843445E+02  0.77593707183E+02  0.00000000000E+00 0.  1.
<mgrwt>
<rscale>  2 0.20583300E+02</rscale>
<asrwt>0</asrwt>
<pdfrwt beam="1">  1       21 0.14997994E-01 0.20583300E+02</pdfrwt>
<pdfrwt beam="2">  1       21 0.97946743E-03 0.20583300E+02</pdfrwt>
<totfact> 0.10108802E+08</totfact>
</mgrwt>
</event>
<event>
 4    1  0.2677450E+004  0.2496732E+02  0.7546771E-02  0.1661472E+00
         21   -1    0    0  503  502  0.00000000000E+00  0.00000000000E+00  0.28539054011E+02  0.28539054011E+02  0.00000000000E+00 0. -1.
         21   -1    0    0  501  503 -0.00000000000E+00 -0.00000000000E+00 -0.23152001179E+02  0.23152001179E+02  0.00000000000E+00 0.  1.
          2    1    1    2  501    0  0.17840856241E+02 -0.17466275975E+02 -0.34529839886E+01  0.25204960747E+02  0.00000000000E+00 0.  1.
         -2    1    1    2    0  502 -0.17840856241E+02  0.17466275975E+02  0.88400368203E+01  0.26486094443E+02  0.00000000000E+00 0. -1.
<mgrwt>
<rscale>  2 0.24967318E+02</rscale>
<asrwt>0</asrwt>
<pdfrwt beam="1">  1       21 0.43906237E-02 0.24967318E+02</pdfrwt>
<pdfrwt beam="2">  1       21 0.35618463E-02 0.24967318E+02</pdfrwt>
<totfact> 0.11028122E+08</totfact>
</mgrwt>
</event>
<event>
 4    1  0.2677450E+004  0.2078669E+02  0.7546771E-02  0.1730122E+00
         21   -1    0    0  503  502  0.00000000000E+00  0.00000000000E+00  0.47480630622E+02  0.47480630622E+02  0.00000000000E+00 0.  1.
         21   -1    0    0  501  503 -0.00000000000E+00 -0.00000000000E+00 -0.91266887372E+01  0.91266887372E+01  0.00000000000E+00 0. -1.
          2    1    1    2  501    0 -0.20570968006E+02 -0.29869183961E+01  0.20699860284E+02  0.29335484008E+02  0.00000000000E+00 0.  1.
         -2    1    1    2    0  502  0.20570968006E+02  0.29869183961E+01  0.17654081601E+02  0.27271835351E+02  0.00000000000E+00 0. -1.
<mgrwt>
<rscale>  2 0.20786688E+02</rscale>
<asrwt>0</asrwt>
<pdfrwt beam="1">  1       21 0.73047123E-02 0.20786688E+02</pdfrwt>
<pdfrwt beam="2">  1       21 0.14041060E-02 0.20786688E+02</pdfrwt>
<totfact> 0.19378036E+08</totfact>
</mgrwt>
</event>
<event>
 4    1  0.2677450E+004  0.2477018E+02  0.7546771E-02  0.1664325E+00
         21   -1    0    0  503  502  0.00000000000E+00  0.00000000000E+00  0.21043669958E+01  0.21043669958E+01  0.00000000000E+00 0. -1.
         21   -1    0    0  501  503 -0.00000000000E+00 -0.00000000000E+00 -0.31056825001E+03  0.31056825001E+03  0.00000000000E+00 0.  1.
          2    1    1    2  501    0 -0.23060014977E+02 -0.90442088199E+01 -0.19290273634E+03  0.19448657458E+03  0.00000000000E+00 0.  1.
         -2    1    1    2    0  502  0.23060014977E+02  0.90442088199E+01 -0.11556114668E+03  0.11818604243E+03  0.00000000000E+00 0. -1.
<mgrwt>
<rscale>  2 0.24770184E+02</rscale>
<asrwt>0</asrwt>
<pdfrwt beam="1">  1       21 0.32374881E-03 0.24770184E+02</pdfrwt>
<pdfrwt beam="2">  1       21 0.47779724E-01 0.24770184E+02</pdfrwt>
<totfact> 0.67664904E+07</totfact>
</mgrwt>
</event>
<event>
 4    1  0.2677450E+004  0.2490608E+02  0.7546771E-02  0.1662355E+00
         21   -1    0    0  503  502  0.00000000000E+00  0.00000000000E+00  0.30887226316E+03  0.30887226316E+03  0.00000000000E+00 0. -1.
         21   -1    0    0  501  503 -0.00000000000E+00 -0.00000000000E+00 -0.31164191651E+01  0.31164191651E+01  0.00000000000E+00 0.  1.
          2    1    1    2  501    0 -0.24620466365E+02  0.37610364786E+01  0.59859015480E+02  0.64833745023E+02  0.00000000000E+00 0.  1.
         -2    1    1    2    0  502  0.24620466365E+02 -0.37610364786E+01  0.24589682852E+03  0.24715493730E+03  0.00000000000E+00 0. -1.
<mgrwt>
<rscale>  2 0.24906079E+02</rscale>
<asrwt>0</asrwt>
<pdfrwt beam="1">  1       21 0.47518786E-01 0.24906079E+02</pdfrwt>
<pdfrwt beam="2">  1       21 0.47944935E-03 0.24906079E+02</pdfrwt>
<totfact> 0.38439893E+07</totfact>
</mgrwt>
</event>
<event>
 4    1  0.2677450E+004  0.2187576E+02  0.7546771E-02  0.1710410E+00
         21   -1    0    0  501  502  0.00000000000E+00  0.00000000000E+00  0.10399769684E+03  0.10399769684E+03  0.00000000000E+00 0. -1.
         21   -1    0    0  502  503 -0.00000000000E+00 -0.00000000000E+00 -0.84353328840E+01  0.84353328840E+01  0.00000000000E+00 0.  1.
          2    1    1    2  501    0 -0.14870270242E+02 -0.16044435858E+02  0.85680161078E+02  0.88428721926E+02  0.00000000000E+00 0. -1.
         -2    1    1    2    0  503  0.14870270242E+02  0.16044435858E+02  0.98822028754E+01  0.24004307796E+02  0.00000000000E+00 0.  1.
<mgrwt>
<rscale>  2 0.21875760E+02</rscale>
<asrwt>0</asrwt>
<pdfrwt beam="1">  1       21 0.15999645E-01 0.21875760E+02</pdfrwt>
<pdfrwt beam="2">  1       21 0.12977436E-02 0.21875760E+02</pdfrwt>
<totfact> 0.60341619E+07</totfact>
</mgrwt>
</event>
<event>
 4    1  0.2677450E+004  0.2010093E+02  0.7546771E-02  0.1743328E+00
         21   -1    0    0  503  502  0.00000000000E+00  0.00000000000E+00  0.17846164917E+02  0.17846164917E+02  0.00000000000E+00 0.  1.
         21   -1    0    0  501  503 -0.00000000000E+00 -0.00000000000E+00 -0.33892544824E+02  0.33892544824E+02  0.00000000000E+00 0. -1.
          2    1    1    2  501    0 -0.18010020492E+02 -0.89267370184E+01 -0.22928731131E+02  0.30492198727E+02  0.00000000000E+00 0. -1.
         -2    1    1    2    0  502  0.18010020492E+02  0.89267370184E+01  0.68823512237E+01  0.21246511014E+02  0.00000000000E+00 0.  1.
<mgrwt>
<rscale>  2 0.20100932E+02</rscale>
<asrwt>0</asrwt>
<pdfrwt beam="1">  1       21 0.27455638E-02 0.20100932E+02</pdfrwt>
<pdfrwt beam="2">  1       21 0.52142376E-02 0.20100932E+02</pdfrwt>
<totfact> 0.11815760E+08</totfact>
</mgrwt>
</event>
<event>
 4    1  0.2677450E+004  0.2724429E+02  0.7546771E-02  0.1630713E+00
         21   -1    0    0  503  502  0.00000000000E+00  0.00000000000E+00  0.17544869591E+01  0.17544869591E+01  0.00000000000E+00 0.  1.
         21   -1    0    0  501  503 -0.00000000000E+00 -0.00000000000E+00 -0.56670168880E+03  0.56670168880E+03  0.00000000000E+00 0. -1.
          2    1    1    2  501    0 -0.19393049712E+02 -0.19135328880E+02 -0.42557100983E+03  0.42644218319E+03  0.00000000000E+00 0. -1.
         -2    1    1    2    0  502  0.19393049712E+02  0.19135328880E+02 -0.13937619200E+03  0.14201399257E+03  0.00000000000E+00 0.  1.
<mgrwt>
<rscale>  2 0.27244287E+02</rscale>
<asrwt>0</asrwt>
<pdfrwt beam="1">  1       21 0.26992133E-03 0.27244287E+02</pdfrwt>
<pdfrwt beam="2">  1       21 0.87184790E-01 0.27244287E+02</pdfrwt>
<totfact> 0.26461153E+07</totfact>
</mgrwt>
</event>
<event>
 4    1  0.2677450E+004  0.2565910E+02  0.7546771E-02  0.1651712E+00
         21   -1    0    0  503  502  0.00000000000E+00  0.00000000000E+00  0.67324581466E+01  0.67324581466E+01  0.00000000000E+00 0. -1.
         21   -1    0    0  501  503 -0.00000000000E+00 -0.00000000000E+00 -0.50078041025E+03  0.50078041025E+03  0.00000000000E+00 0.  1.
          2    1    1    2  501    0  0.10339698609E+02 -0.23483610590E+02 -0.47465894158E+03  0.47535197502E+03  0.00000000000E+00 0.  1.
         -2    1    1    2    0  502 -0.10339698609E+02  0.23483610590E+02 -0.19389010523E+02  0.32160893376E+02  0.00000000000E+00 0. -1.
<mgrwt>
<rscale>  2 0.25659098E+02</rscale>
<asrwt>0</asrwt>
<pdfrwt beam="1">  1       21 0.10357632E-02 0.25659098E+02</pdfrwt>
<pdfrwt beam="2">  1       21 0.77043111E-01 0.25659098E+02</pdfrwt>
<totfact> 0.46288837E+06</totfact>
</mgrwt>
</event>
<event>
 4    1  0.2677450E+004  0.3638902E+02  0.7546771E-02  0.1536601E+00
         21   -1    0    0  501  502  0.00000000000E+00  0.00000000000E+00  0.20008514282E+02  0.20008514282E+02  0.00000000000E+00 0. -1.
         21   -1    0    0  502  503 -0.00000000000E+00 -0.00000000000E+00 -0.66245569708E+02  0.66245569708E+02  0.00000000000E+00 0.  1.
          2    1    1    2  501    0 -0.10838087331E+02 -0.34737534296E+02 -0.24476925533E+02  0.43855219866E+02  0.00000000000E+00 0. -1.
         -2    1    1    2    0  503  0.10838087331E+02  0.34737534296E+02 -0.21760129893E+02  0.42398864123E+02  0.00000000000E+00 0.  1.
<mgrwt>
<rscale>  2 0.36389015E+02</rscale>
<asrwt>0</asrwt>
<pdfrwt beam="1">  1       21 0.30782330E-02 0.36389015E+02</pdfrwt>
<pdfrwt beam="2">  1       21 0.10191626E-01 0.36389015E+02</pdfrwt>
<totfact> 0.38287638E+07</totfact>
</mgrwt>
</event>
<event>
 4    1  0.2677450E+004  0.2149570E+02  0.7546771E-02  0.1717122E+00
         21   -1    0    0  501  502  0.00000000000E+00  0.00000000000E+00  0.10307337605E+03  0.10307337605E+03  0.00000000000E+00 0. -1.
         21   -1    0    0  502  503 -0.00000000000E+00 -0.00000000000E+00 -0.20345699242E+02  0.20345699242E+02  0.00000000000E+00 0.  1.
          2    1    1    2  501    0 -0.20985208636E+02  0.46568391791E+01  0.95852511100E+02  0.98233237842E+02  0.00000000000E+00 0. -1.
         -2    1    1    2    0  503  0.20985208636E+02 -0.46568391791E+01 -0.13124834296E+02  0.25185837448E+02  0.00000000000E+00 0.  1.
<mgrwt>
<rscale>  2 0.21495700E+02</rscale>
<asrwt>0</asrwt>
<pdfrwt beam="1">  1       21 0.15857442E-01 0.21495700E+02</pdfrwt>
<pdfrwt beam="2">  1       21 0.31301076E-02 0.21495700E+02</pdfrwt>
<totfact> 0.15835458E+07</totfact>
</mgrwt>
</event>
<event>
 4    1  0.2677450E+004  0.2408349E+02  0.7546771E-02  0.1674526E+00
         21   -1    0    0  503  502  0.00000000000E+00  0.00000000000E+00  0.57950262007E+02  0.57950262007E+02  0.00000000000E+00 0. -1.
         21   -1    0    0  501  503 -0.00000000000E+00 -0.00000000000E+00 -0.12710052713E+02  0.12710052713E+02  0.00000000000E+00 0.  1.
          2    1    1    2  501    0 -0.18151482354E+02  0.15828400928E+02  0.38907503148E+02  0.45758151064E+02  0.00000000000E+00 0. -1.
         -2    1    1    2    0  502  0.18151482354E+02 -0.15828400928E+02  0.63327061451E+01  0.24902163656E+02  0.00000000000E+00 0.  1.
<mgrwt>
<rscale>  2 0.24083492E+02</rscale>
<asrwt>0</asrwt>
<pdfrwt beam="1">  1       21 0.89154248E-02 0.24083492E+02</pdfrwt>
<pdfrwt beam="2">  1       21 0.19553928E-02 0.24083492E+02</pdfrwt>
<totfact> 0.88340348E+07</totfact>
</mgrwt>
</event>
<event>
 4    1  0.2677450E+004  0.2005712E+02  0.7546771E-02  0.1744195E+00
         21   -1    0    0  501  502  0.00000000000E+00  0.00000000000E+00  0.26051924687E+01  0.26051924687E+01  0.00000000000E+00 0.  1.
         21   -1    0    0  502  503 -0.00000000000E+00 -0.00000000000E+00 -0.17900150810E+03  0.17900150810E+03  0.00000000000E+00 0. -1.
          2    1    1    2  501    0  0.24769264585E+00  0.20055590839E+02 -0.54547212375E+02  0.58117866904E+02  0.00000000000E+00 0.  1.
         -2    1    1    2    0  503 -0.24769264585E+00 -0.20055590839E+02 -0.12184910326E+03  0.12348883366E+03  0.00000000000E+00 0. -1.
<mgrwt>
<rscale>  2 0.20057120E+02</rscale>
<asrwt>0</asrwt>
<pdfrwt beam="1">  1       21 0.40079888E-03 0.20057120E+02</pdfrwt>
<pdfrwt beam="2">  1       21 0.27538691E-01 0.20057120E+02</pdfrwt>
<totfact> 0.13047463E+08</totfact>
</mgrwt>
</event>
<event>
 4    1  0.2677450E+004  0.2322921E+02  0.7546771E-02  0.1687821E+00
         21   -1    0    0  503  502  0.00000000000E+00  0.00000000000E+00  0.45863729618E+01  0.45863729618E+01  0.00000000000E+00 0.  1.
         21   -1    0    0  501  503 -0.00000000000E+00 -0.00000000000E+00 -0.17793975789E+03  0.17793975789E+03  0.00000000000E+00 0. -1.
          2    1    1    2  501    0  0.10270252027E+02  0.20835498947E+02 -0.13979852028E+03  0.14171528628E+03  0.00000000000E+00 0. -1.
         -2    1    1    2    0  502 -0.10270252027E+02 -0.20835498947E+02 -0.33554864647E+02  0.40810844570E+02  0.00000000000E+00 0.  1.
<mgrwt>
<rscale>  2 0.23229208E+02</rscale>
<asrwt>0</asrwt>
<pdfrwt beam="1">  1       21 0.70559609E-03 0.23229208E+02</pdfrwt>
<pdfrwt beam="2">  1       21 0.27375337E-01 0.23229208E+02</pdfrwt>
<totfact> 0.59635147E+07</totfact>
</mgrwt>
</event>
<event>
 4    1  0.2677450E+004  0.2462304E+02  0.7546771E-02  0.1666476E+00
         21   -1    0    0  503  502  0.00000000000E+00  0.00000000000E+00  0.33879257561E+03  0.33879257561E+03  0.00000000000E+00 0. -1.
         21   -1    0    0  501  503 -0.00000000000E+00 -0.00000000000E+00 -0.19532271803E+01  0.19532271803E+01  0.00000000000E+00 0.  1.
          2    1    1    2  501    0  0.23353804077E+02 -0.78034643863E+01  0.11910376954E+03  0.12162237516E+03  0.00000000000E+00 0.  1.
         -2    1    1    2    0  502 -0.23353804077E+02  0.78034643863E+01  0.21773557889E+03  0.21912342763E+03  0.00000000000E+00 0. -1.
<mgrwt>
<rscale>  2 0.24623042E+02</rscale>
<asrwt>0</asrwt>
<pdfrwt beam="1">  1       21 0.52121888E-01 0.24623042E+02</pdfrwt>
<pdfrwt beam="2">  1       21 0.30049676E-03 0.24623042E+02</pdfrwt>
<totfact> 0.63598993E+07</totfact>
</mgrwt>
</event>
<event>
 4    1  0.2677450E+004  0.2744435E+02  0.7546771E-02  0.1628187E+00
         21   -1    0    0  503  502  0.00000000000E+00  0.00000000000E+00  0.62681155822E+02  0.62681155822E+02  0.00000000000E+00 0. -1.
         21   -1    0    0  501  503 -0.00000000000E+00 -0.00000000000E+00 -0.35515422538E+02  0.35515422538E+02  0.00000000000E+00 0.  1.
          2    1    1    2  501    0 -0.43492069482E+01 -0.27097538951E+02 -0.26354937604E+02  0.38049638033E+02  0.00000000000E+00 0.  1.
         -2    1    1    2    0  502  0.43492069482E+01  0.27097538951E+02  0.53520670888E+02  0.60146940327E+02  0.00000000000E+00 0. -1.
<mgrwt>
<rscale>  2 0.27444348E+02</rscale>
<asrwt>0</asrwt>
<pdfrwt beam="1">  1       21 0.96432547E-02 0.27444348E+02</pdfrwt>
<pdfrwt beam="2">  1       21 0.54639112E-02 0.27444348E+02</pdfrwt>
<totfact> 0.15920178E+07</totfact>
</mgrwt>
</event>
<event>
 4    1  0.2677450E+004  0.2154399E+02  0.7546771E-02  0.1716260E+00
         21   -1    0    0  501  502  0.00000000000E+00  0.00000000000E+00  0.16324857845E+03  0.16324857845E+03  0.00000000000E+00 0. -1.
         21   -1    0    0  502  503 -0.00000000000E+00 -0.00000000000E+00 -0.50400399237E+01  0.50400399237E+01  0.00000000000E+00 0.  1.
          2    1    1    2  501    0 -0.21346134207E+02 -0.29131038003E+01  0.13465756598E+03  0.13637009825E+03  0.00000000000E+00 0. -1.
         -2    1    1    2    0  503  0.21346134207E+02  0.29131038003E+01  0.23550972541E+02  0.31918520125E+02  0.00000000000E+00 0.  1.
<mgrwt>
<rscale>  2 0.21543993E+02</rscale>
<asrwt>0</asrwt>
<pdfrwt beam="1">  1       21 0.25115162E-01 0.21543993E+02</pdfrwt>
<pdfrwt beam="2">  1       21 0.77539088E-03 0.21543993E+02</pdfrwt>
<totfact> 0.59311344E+07</totfact>
</mgrwt>
</event>
<event>
 4    1  0.2677450E+004  0.2050306E+02  0.7546771E-02  0.1735505E+00
         21   -1    0    0  501  502  0.00000000000E+00  0.00000000000E+00  0.14167809020E+02  0.14167809020E+02  0.00000000000E+00 0.  1.
         21   -1    0    0  502  503 -0.00000000000E+00 -0.00000000000E+00 -0.74938040122E+02  0.74938040122E+02  0.00000000000E+00 0. -1.
          2    1    1    2  501    0  0.20250819252E+02 -0.32061832656E+01  0.42419226630E+01  0.20937268193E+02  0.00000000000E+00 0.  1.
         -2    1    1    2    0  503 -0.20250819252E+02  0.32061832656E+01 -0.65012153765E+02  0.68168580949E+02  0.00000000000E+00 0. -1.
<mgrwt>
<rscale>  2 0.20503056E+02</rscale>
<asrwt>0</asrwt>
<pdfrwt beam="1">  1       21 0.21796630E-02 0.20503056E+02</pdfrwt>
<pdfrwt beam="2">  1       21 0.11528929E-01 0.20503056E+02</pdfrwt>
<totfact> 0.46809814E+07</totfact>
</mgrwt>
</event>
<event>
 4    1  0.2677450E+004  0.2057415E+02  0.7546771E-02  0.1734146E+00
         21   -1    0    0  501  502  0.00000000000E+00  0.00000000000E+00  0.32499464914E+03  0.32499464914E+03  0.00000000000E+00 0.  1.
         21   -1    0    0  502  503 -0.00000000000E+00 -0.00000000000E+00 -0.19192876950E+01  0.19192876950E+01  0.00000000000E+00 0. -1.
          2    1    1    2  501    0  0.14285747828E+01  0.20524496874E+02  0.25420184087E+03  0.25503307961E+03  0.00000000000E+00 0.  1.
         -2    1    1    2    0  503 -0.14285747828E+01 -0.20524496874E+02  0.68873520577E+02  0.71880857219E+02  0.00000000000E+00 0. -1.
<mgrwt>
<rscale>  2 0.20574154E+02</rscale>
<asrwt>0</asrwt>
<pdfrwt beam="1">  1       21 0.49999133E-01 0.20574154E+02</pdfrwt>
<pdfrwt beam="2">  1       21 0.29527529E-03 0.20574154E+02</pdfrwt>
<totfact> 0.67683778E+07</totfact>
</mgrwt>
</event>
<event>
 4    1  0.2677450E+004  0.2772929E+02  0.7546771E-02  0.1624636E+00
         21   -1    0    0  501  502  0.00000000000E+00  0.00000000000E+00  0.11492637904E+01  0.11492637904E+01  0.00000000000E+00 0.  1.
         21   -1    0    0  502  503 -0.00000000000E+00 -0.00000000000E+00 -0.93233747136E+03  0.93233747136E+03  0.00000000000E+00 0. -1.
          2    1    1    2  501    0 -0.27495233764E+02 -0.35952312185E+01 -0.21756213138E+03  0.21932212514E+03  0.00000000000E+00 0. -1.
         -2    1    1    2    0  503  0.27495233764E+02  0.35952312185E+01 -0.71362607619E+03  0.71416461001E+03  0.00000000000E+00 0.  1.
<mgrwt>
<rscale>  2 0.27729291E+02</rscale>
<asrwt>0</asrwt>
<pdfrwt beam="1">  1       21 0.17681029E-03 0.27729291E+02</pdfrwt>
<pdfrwt beam="2">  1       21 0.14343615E+00 0.27729291E+02</pdfrwt>
<totfact> 0.15978330E+07</totfact>
</mgrwt>
</event>
<event>
 4    1  0.2677450E+004  0.2796494E+02  0.7546771E-02  0.1621738E+00
         21   -1    0    0  501  502  0.00000000000E+00  0.00000000000E+00  0.78807020074E+03  0.78807020074E+03  0.00000000000E+00 0.  1.
         21   -1    0    0  502  503 -0.00000000000E+00 -0.00000000000E+00 -0.26596579722E+01  0.26596579722E+01  0.00000000000E+00 0. -1.
          2    1    1    2  501    0  0.50466517433E+01  0.27505807507E+02  0.70574085664E+03  0.70629469407E+03  0.00000000000E+00 0.  1.
         -2    1    1    2    0  503 -0.50466517433E+01 -0.27505807507E+02  0.79669686125E+02  0.84435164639E+02  0.00000000000E+00 0. -1.
<mgrwt>
<rscale>  2 0.27964945E+02</rscale>
<asrwt>0</asrwt>
<pdfrwt beam="1">  1       21 0.12124138E+00 0.27964945E+02</pdfrwt>
<pdfrwt beam="2">  1       21 0.40917878E-03 0.27964945E+02</pdfrwt>
<totfact> 0.69394799E+06</totfact>
</mgrwt>
</event>
<event>
 4    1  0.2677450E+004  0.2104405E+02  0.7546771E-02  0.1725329E+00
         21   -1    0    0  503  502  0.00000000000E+00  0.00000000000E+00  0.56772594518E+01  0.56772594518E+01  0.00000000000E+00 0. -1.
         21   -1    0    0  501  503 -0.00000000000E+00 -0.00000000000E+00 -0.32916496690E+03  0.32916496690E+03  0.00000000000E+00 0.  1.
          2    1    1    2  501    0 -0.12190950321E+02 -0.17153211320E+02 -0.30798818494E+03  0.30870629082E+03  0.00000000000E+00 0.  1.
         -2    1    1    2    0  502  0.12190950321E+02  0.17153211320E+02 -0.15499522512E+02  0.26135935537E+02  0.00000000000E+00 0. -1.
<mgrwt>
<rscale>  2 0.21044047E+02</rscale>
<asrwt>0</asrwt>
<pdfrwt beam="1">  1       21 0.87342441E-03 0.21044047E+02</pdfrwt>
<pdfrwt beam="2">  1       21 0.50640771E-01 0.21044047E+02</pdfrwt>
<totfact> 0.13468319E+07</totfact>
</mgrwt>
</event>
<event>
 4    1  0.2677450E+004  0.2419581E+02  0.7546771E-02  0.1672829E+00
         21   -1    0    0  501  502  0.00000000000E+00  0.00000000000E+00  0.69050158885E+02  0.69050158885E+02  0.00000000000E+00 0. -1.
         21   -1    0    0  502  503 -0.00000000000E+00 -0.00000000000E+00 -0.87578163405E+01  0.87578163405E+01  0.00000000000E+00 0.  1.
          2    1    1    2  501    0  0.24170376735E+02 -0.11091151946E+01  0.23197603416E+02  0.33519636816E+02  0.00000000000E+00 0. -1.
         -2    1    1    2    0  503 -0.24170376735E+02  0.11091151946E+01  0.37094739128E+02  0.44288338409E+02  0.00000000000E+00 0.  1.
<mgrwt>
<rscale>  2 0.24195811E+02</rscale>
<asrwt>0</asrwt>
<pdfrwt beam="1">  1       21 0.10623101E-01 0.24195811E+02</pdfrwt>
<pdfrwt beam="2">  1       21 0.13473564E-02 0.24195811E+02</pdfrwt>
<totfact> 0.11687419E+08</totfact>
</mgrwt>
</event>
<event>
 4    1  0.2677450E+004  0.2234341E+02  0.7546771E-02  0.1702380E+00
         21   -1    0    0  503  502  0.00000000000E+00  0.00000000000E+00  0.44839246948E+02  0.44839246948E+02  0.00000000000E+00 0. -1.
         21   -1    0    0  501  503 -0.00000000000E+00 -0.00000000000E+00 -0.11215512796E+02  0.11215512796E+02  0.00000000000E+00 0.  1.
          2    1    1    2  501    0 -0.21065771627E+02 -0.74472421308E+01  0.14418556104E+02  0.26591782748E+02  0.00000000000E+00 0. -1.
         -2    1    1    2    0  502  0.21065771627E+02  0.74472421308E+01  0.19205178048E+02  0.29462976996E+02  0.00000000000E+00 0.  1.
<mgrwt>
<rscale>  2 0.22343414E+02</rscale>
<asrwt>0</asrwt>
<pdfrwt beam="1">  1       21 0.68983456E-02 0.22343414E+02</pdfrwt>
<pdfrwt beam="2">  1       21 0.17254635E-02 0.22343414E+02</pdfrwt>
<totfact> 0.15900140E+08</totfact>
</mgrwt>
</event>
<event>
 4    1  0.2677450E+004  0.2196996E+02  0.7546771E-02  0.1708772E+00
         21   -1    0    0  503  502  0.00000000000E+00  0.00000000000E+00  0.32504582933E+02  0.32504582933E+02  0.00000000000E+00 0.  1.
         21   -1    0    0  501  503 -0.00000000000E+00 -0.00000000000E+00 -0.19549814331E+02  0.19549814331E+02  0.00000000000E+00 0. -1.
          2    1    1    2  501    0 -0.86097406215E+01  0.20212656314E+02 -0.62845435043E+01  0.22851139926E+02  0.00000000000E+00 0.  1.
         -2    1    1    2    0  502  0.86097406215E+01 -0.20212656314E+02  0.19239312106E+02  0.29203257338E+02  0.00000000000E+00 0. -1.
<mgrwt>
<rscale>  2 0.21969959E+02</rscale>
<asrwt>0</asrwt>
<pdfrwt beam="1">  1       21 0.50007051E-02 0.21969959E+02</pdfrwt>
<pdfrwt beam="2">  1       21 0.30076637E-02 0.21969959E+02</pdfrwt>
<totfact> 0.11260713E+08</totfact>
</mgrwt>
</event>
<event>
 4    1  0.2677450E+004  0.2258788E+02  0.7546771E-02  0.1698279E+00
         21   -1    0    0  501  502  0.00000000000E+00  0.00000000000E+00  0.50424132482E+00  0.50424132482E+00  0.00000000000E+00 0.  1.
         21   -1    0    0  502  503 -0.00000000000E+00 -0.00000000000E+00 -0.13306890096E+04  0.13306890096E+04  0.00000000000E+00 0. -1.
          2    1    1    2  501    0  0.16080343593E+02  0.15863002273E+02 -0.33928242839E+03  0.34003349616E+03  0.00000000000E+00 0.  1.
         -2    1    1    2    0  503 -0.16080343593E+02 -0.15863002273E+02 -0.99090233989E+03  0.99115975477E+03  0.00000000000E+00 0. -1.
<mgrwt>
<rscale>  2 0.22587879E+02</rscale>
<asrwt>0</asrwt>
<pdfrwt beam="1">  1       21 0.77576371E-04 0.22587879E+02</pdfrwt>
<pdfrwt beam="2">  1       21 0.20471932E+00 0.22587879E+02</pdfrwt>
<totfact> 0.20938770E+07</totfact>
</mgrwt>
</event>
<event>
 4    1  0.2677450E+004  0.2343811E+02  0.7546771E-02  0.1684505E+00
         21   -1    0    0  503  502  0.00000000000E+00  0.00000000000E+00  0.29466000686E+02  0.29466000686E+02  0.00000000000E+00 0. -1.
         21   -1    0    0  501  503 -0.00000000000E+00 -0.00000000000E+00 -0.25075065885E+02  0.25075065885E+02  0.00000000000E+00 0.  1.
          2    1    1    2  501    0  0.10448366005E+02  0.20980384632E+02 -0.11615881554E+02  0.26158623736E+02  0.00000000000E+00 0.  1.
         -2    1    1    2    0  502 -0.10448366005E+02 -0.20980384632E+02  0.16006816355E+02  0.28382442835E+02  0.00000000000E+00 0. -1.
<mgrwt>
<rscale>  2 0.23438108E+02</rscale>
<asrwt>0</asrwt>
<pdfrwt beam="1">  1       21 0.45332309E-02 0.23438108E+02</pdfrwt>
<pdfrwt beam="2">  1       21 0.38577024E-02 0.23438108E+02</pdfrwt>
<totfact> 0.90836367E+07</totfact>
</mgrwt>
</event>
<event>
 4    1  0.2677450E+004  0.2673274E+02  0.7546771E-02  0.1637293E+00
         21   -1    0    0  501  502  0.00000000000E+00  0.00000000000E+00  0.26901668704E+03  0.26901668704E+03  0.00000000000E+00 0.  1.
         21   -1    0    0  502  503 -0.00000000000E+00 -0.00000000000E+00 -0.26573469245E+01  0.26573469245E+01  0.00000000000E+00 0. -1.
          2    1    1    2  501    0  0.11475491135E+02  0.24144404287E+02  0.13562416976E+03  0.13823369553E+03  0.00000000000E+00 0.  1.
         -2    1    1    2    0  503 -0.11475491135E+02 -0.24144404287E+02  0.13073517035E+03  0.13344033843E+03  0.00000000000E+00 0. -1.
<mgrwt>
<rscale>  2 0.26732736E+02</rscale>
<asrwt>0</asrwt>
<pdfrwt beam="1">  1       21 0.41387161E-01 0.26732736E+02</pdfrwt>
<pdfrwt beam="2">  1       21 0.40882282E-03 0.26732736E+02</pdfrwt>
<totfact> 0.64404090E+07</totfact>
</mgrwt>
</event>
<event>
 4    1  0.2677450E+004  0.2147580E+02  0.7546771E-02  0.1717479E+00
         21   -1    0    0  501  502  0.00000000000E+00  0.00000000000E+00  0.14252120513E+02  0.14252120513E+02  0.00000000000E+00 0. -1.
         21   -1    0    0  502  503 -0.00000000000E+00 -0.00000000000E+00 -0.43205936059E+02  0.43205936059E+02  0.00000000000E+00 0.  1.
          2    1    1    2  501    0 -0.18042551695E+02  0.11648025845E+02 -0.83404511358E-01  0.21475966429E+02  0.00000000000E+00 0. -1.
         -2    1    1    2    0  503  0.18042551695E+02 -0.11648025845E+02 -0.28870411035E+02  0.35982090143E+02  0.00000000000E+00 0.  1.
<mgrwt>
<rscale>  2 0.21475804E+02</rscale>
<asrwt>0</asrwt>
<pdfrwt beam="1">  1       21 0.21926339E-02 0.21475804E+02</pdfrwt>
<pdfrwt beam="2">  1       21 0.66470670E-02 0.21475804E+02</pdfrwt>
<totfact> 0.11560612E+08</totfact>
</mgrwt>
</event>
<event>
 4    1  0.2677450E+004  0.2441643E+02  0.7546771E-02  0.1669528E+00
         21   -1    0    0  503  502  0.00000000000E+00  0.00000000000E+00  0.10010251384E+03  0.10010251384E+03  0.00000000000E+00 0.  1.
         21   -1    0    0  501  503 -0.00000000000E+00 -0.00000000000E+00 -0.67900235171E+01  0.67900235171E+01  0.00000000000E+00 0. -1.
          2    1    1    2  501    0 -0.66484491781E+01 -0.23493837388E+02  0.27919399008E+02  0.37089824921E+02  0.00000000000E+00 0. -1.
         -2    1    1    2    0  502  0.66484491781E+01  0.23493837388E+02  0.65393091316E+02  0.69802712437E+02  0.00000000000E+00 0.  1.
<mgrwt>
<rscale>  2 0.24416434E+02</rscale>
<asrwt>0</asrwt>
<pdfrwt beam="1">  1       21 0.15400386E-01 0.24416434E+02</pdfrwt>
<pdfrwt beam="2">  1       21 0.10446191E-02 0.24416434E+02</pdfrwt>
<totfact> 0.92037564E+07</totfact>
</mgrwt>
</event>
<event>
 4    1  0.2677450E+004  0.2227938E+02  0.7546771E-02  0.1703465E+00
         21   -1    0    0  503  502  0.00000000000E+00  0.00000000000E+00  0.53893021054E+03  0.53893021054E+03  0.00000000000E+00 0. -1.
         21   -1    0    0  501  503 -0.00000000000E+00 -0.00000000000E+00 -0.95696423178E+00  0.95696423178E+00  0.00000000000E+00 0.  1.
          2    1    1    2  501    0 -0.22267780293E+02  0.71897932687E+00  0.21667737680E+03  0.21781978007E+03  0.00000000000E+00 0.  1.
         -2    1    1    2    0  502  0.22267780293E+02 -0.71897932687E+00  0.32129586950E+03  0.32206739470E+03  0.00000000000E+00 0. -1.
<mgrwt>
<rscale>  2 0.22279384E+02</rscale>
<asrwt>0</asrwt>
<pdfrwt beam="1">  1       21 0.82912097E-01 0.22279384E+02</pdfrwt>
<pdfrwt beam="2">  1       21 0.14722570E-03 0.22279384E+02</pdfrwt>
<totfact> 0.67878762E+07</totfact>
</mgrwt>
</event>
<event>
 4    1  0.2677450E+004  0.2376290E+02  0.7546771E-02  0.1679434E+00
         21   -1    0    0  501  502  0.00000000000E+00  0.00000000000E+00  0.60449869327E+01  0.60449869327E+01  0.00000000000E+00 0.  1.
         21   -1    0    0  502  503 -0.00000000000E+00 -0.00000000000E+00 -0.10256510749E+03  0.10256510749E+03  0.00000000000E+00 0. -1.
          2    1    1    2  501    0 -0.14073083382E+02 -0.19147425694E+02 -0.32037489268E+02  0.39888297848E+02  0.00000000000E+00 0.  1.
         -2    1    1    2    0  503  0.14073083382E+02  0.19147425694E+02 -0.64482631292E+02  0.68721796578E+02  0.00000000000E+00 0. -1.
<mgrwt>
<rscale>  2 0.23762904E+02</rscale>
<asrwt>0</asrwt>
<pdfrwt beam="1">  1       21 0.92999806E-03 0.23762904E+02</pdfrwt>
<pdfrwt beam="2">  1       21 0.15779246E-01 0.23762904E+02</pdfrwt>
<totfact> 0.10436433E+08</totfact>
</mgrwt>
</event>
<event>
 4    1  0.2677450E+004  0.2015875E+02  0.7546771E-02  0.1742189E+00
         21   -1    0    0  503  502  0.00000000000E+00  0.00000000000E+00  0.85587795551E+01  0.85587795551E+01  0.00000000000E+00 0.  1.
         21   -1    0    0  501  503 -0.00000000000E+00 -0.00000000000E+00 -0.60061281324E+02  0.60061281324E+02  0.00000000000E+00 0. -1.
          2    1    1    2  501    0 -0.13257007197E+02  0.15186404767E+02 -0.41454069708E+02  0.46095715907E+02  0.00000000000E+00 0. -1.
         -2    1    1    2    0  502  0.13257007197E+02 -0.15186404767E+02 -0.10048432060E+02  0.22524344972E+02  0.00000000000E+00 0.  1.
<mgrwt>
<rscale>  2 0.20158748E+02</rscale>
<asrwt>0</asrwt>
<pdfrwt beam="1">  1       21 0.13167353E-02 0.20158748E+02</pdfrwt>
<pdfrwt beam="2">  1       21 0.92401971E-02 0.20158748E+02</pdfrwt>
<totfact> 0.14427670E+08</totfact>
</mgrwt>
</event>
<event>
 4    1  0.2677450E+004  0.4027713E+02  0.7546771E-02  0.1506182E+00
         21   -1    0    0  501  502  0.00000000000E+00  0.00000000000E+00  0.29534772439E+02  0.29534772439E+02  0.00000000000E+00 0.  1.
         21   -1    0    0  502  503 -0.00000000000E+00 -0.00000000000E+00 -0.54956748234E+02  0.54956748234E+02  0.00000000000E+00 0. -1.
          2    1    1    2  501    0 -0.39681013873E+02 -0.69039346491E+01 -0.11722930195E+02  0.41948471581E+02  0.00000000000E+00 0.  1.
         -2    1    1    2    0  503  0.39681013873E+02  0.69039346491E+01 -0.13699045600E+02  0.42543049092E+02  0.00000000000E+00 0. -1.
<mgrwt>
<rscale>  2 0.40277130E+02</rscale>
<asrwt>0</asrwt>
<pdfrwt beam="1">  1       21 0.45438112E-02 0.40277130E+02</pdfrwt>
<pdfrwt beam="2">  1       21 0.84548842E-02 0.40277130E+02</pdfrwt>
<totfact> 0.28609563E+07</totfact>
</mgrwt>
</event>
<event>
 4    1  0.2677450E+004  0.2823451E+02  0.7546771E-02  0.1618466E+00
         21   -1    0    0  503  502  0.00000000000E+00  0.00000000000E+00  0.17517754888E+04  0.17517754888E+04  0.00000000000E+00 0. -1.
         21   -1    0    0  501  503 -0.00000000000E+00 -0.00000000000E+00 -0.45613608549E+00  0.45613608549E+00  0.00000000000E+00 0.  1.
          2    1    1    2  501    0  0.78546860074E+01  0.27119947465E+02  0.91793382791E+03  0.91836795461E+03  0.00000000000E+00 0. -1.
         -2    1    1    2    0  502 -0.78546860074E+01 -0.27119947465E+02  0.83338552479E+03  0.83386367026E+03  0.00000000000E+00 0.  1.
<mgrwt>
<rscale>  2 0.28234512E+02</rscale>
<asrwt>0</asrwt>
<pdfrwt beam="1">  1       21 0.26949854E+00 0.28234512E+02</pdfrwt>
<pdfrwt beam="2">  1       21 0.70176185E-04 0.28234512E+02</pdfrwt>
<totfact> 0.11413384E+07</totfact>
</mgrwt>
</event>
<event>
 4    1  0.2677450E+004  0.2087222E+02  0.7546771E-02  0.1728519E+00
         21   -1    0    0  503  502  0.00000000000E+00  0.00000000000E+00  0.22595536619E+02  0.22595536619E+02  0.00000000000E+00 0.  1.
         21   -1    0    0  501  503 -0.00000000000E+00 -0.00000000000E+00 -0.50087861636E+02  0.50087861636E+02  0.00000000000E+00 0. -1.
          2    1    1    2  501    0 -0.20872212275E+02  0.16954155426E-01 -0.42247641308E+02  0.47122316674E+02  0.00000000000E+00 0. -1.
         -2    1    1    2    0  502  0.20872212275E+02 -0.16954155426E-01  0.14755316291E+02  0.25561081580E+02  0.00000000000E+00 0.  1.
<mgrwt>
<rscale>  2 0.20872219E+02</rscale>
<asrwt>0</asrwt>
<pdfrwt beam="1">  1       21 0.34762364E-02 0.20872219E+02</pdfrwt>
<pdfrwt beam="2">  1       21 0.77058248E-02 0.20872219E+02</pdfrwt>
<totfact> 0.44267297E+07</totfact>
</mgrwt>
</event>
<event>
 4    1  0.2677450E+004  0.2379407E+02  0.7546771E-02  0.1678953E+00
         21   -1    0    0  501  502  0.00000000000E+00  0.00000000000E+00  0.87813934446E+00  0.87813934446E+00  0.00000000000E+00 0.  1.
         21   -1    0    0  502  503 -0.00000000000E+00 -0.00000000000E+00 -0.18603122055E+04  0.18603122055E+04  0.00000000000E+00 0. -1.
          2    1    1    2  501    0 -0.12217660436E+02  0.20417802070E+02 -0.17746902981E+03  0.17905701441E+03  0.00000000000E+00 0.  1.
         -2    1    1    2    0  503  0.12217660436E+02 -0.20417802070E+02 -0.16819650363E+04  0.16821333304E+04  0.00000000000E+00 0. -1.
<mgrwt>
<rscale>  2 0.23794072E+02</rscale>
<asrwt>0</asrwt>
<pdfrwt beam="1">  1       21 0.13509979E-03 0.23794072E+02</pdfrwt>
<pdfrwt beam="2">  1       21 0.28619886E+00 0.23794072E+02</pdfrwt>
<totfact> 0.36883923E+06</totfact>
</mgrwt>
</event>
<event>
 4    1  0.2677450E+004  0.2059701E+02  0.7546771E-02  0.1733710E+00
         21   -1    0    0  503  502  0.00000000000E+00  0.00000000000E+00  0.33344045581E+01  0.33344045581E+01  0.00000000000E+00 0.  1.
         21   -1    0    0  501  503 -0.00000000000E+00 -0.00000000000E+00 -0.21914727929E+03  0.21914727929E+03  0.00000000000E+00 0. -1.
          2    1    1    2  501    0 -0.51135355960E+01 -0.19952161999E+02 -0.17994985284E+03  0.18112478172E+03  0.00000000000E+00 0. -1.
         -2    1    1    2    0  502  0.51135355960E+01  0.19952161999E+02 -0.35863021891E+02  0.41356902131E+02  0.00000000000E+00 0.  1.
<mgrwt>
<rscale>  2 0.20597015E+02</rscale>
<asrwt>0</asrwt>
<pdfrwt beam="1">  1       21 0.51298520E-03 0.20597015E+02</pdfrwt>
<pdfrwt beam="2">  1       21 0.33714974E-01 0.20597015E+02</pdfrwt>
<totfact> 0.63453702E+07</totfact>
</mgrwt>
</event>
<event>
 4    1  0.2677450E+004  0.2022178E+02  0.7546771E-02  0.1740953E+00
         21   -1    0    0  501  502  0.00000000000E+00  0.00000000000E+00  0.65156633723E+02  0.65156633723E+02  0.00000000000E+00 0.  1.
         21   -1    0    0  502  503 -0.00000000000E+00 -0.00000000000E+00 -0.16309715871E+02  0.16309715871E+02  0.00000000000E+00 0. -1.
          2    1    1    2  501    0  0.19587183013E+02 -0.50261948483E+01  0.56372427797E+02  0.59889656776E+02  0.00000000000E+00 0.  1.
         -2    1    1    2    0  503 -0.19587183013E+02  0.50261948483E+01 -0.75255099449E+01  0.21576692818E+02  0.00000000000E+00 0. -1.
<mgrwt>
<rscale>  2 0.20221780E+02</rscale>
<asrwt>0</asrwt>
<pdfrwt beam="1">  1       21 0.10024097E-01 0.20221780E+02</pdfrwt>
<pdfrwt beam="2">  1       21 0.25091871E-02 0.20221780E+02</pdfrwt>
<totfact> 0.47347863E+07</totfact>
</mgrwt>
</event>
<event>
 4    1  0.2677450E+004  0.2378558E+02  0.7546771E-02  0.1679084E+00
         21   -1    0    0  501  502  0.00000000000E+00  0.00000000000E+00  0.27869146118E+01  0.27869146118E+01  0.00000000000E+00 0.  1.
         21   -1    0    0  502  503 -0.00000000000E+00 -0.00000000000E+00 -0.43341324559E+03  0.43341324559E+03  0.00000000000E+00 0. -1.
          2    1    1    2  501    0  0.23511484955E+02  0.36005480500E+01 -0.56291973310E+02  0.61110883893E+02  0.00000000000E+00 0.  1.
         -2    1    1    2    0  503 -0.23511484955E+02 -0.36005480500E+01 -0.37433435767E+03  0.37508927631E+03  0.00000000000E+00 0. -1.
<mgrwt>
<rscale>  2 0.23785581E+02</rscale>
<asrwt>0</asrwt>
<pdfrwt beam="1">  1       21 0.42875591E-03 0.23785581E+02</pdfrwt>
<pdfrwt beam="2">  1       21 0.66678990E-01 0.23785581E+02</pdfrwt>
<totfact> 0.22918082E+07</totfact>
</mgrwt>
</event>
<event>
 4    1  0.2677450E+004  0.2343785E+02  0.7546771E-02  0.1684510E+00
         21   -1    0    0  503  502  0.00000000000E+00  0.00000000000E+00  0.38370959266E+02  0.38370959266E+02  0.00000000000E+00 0.  1.
         21   -1    0    0  501  503 -0.00000000000E+00 -0.00000000000E+00 -0.19792173335E+02  0.19792173335E+02  0.00000000000E+00 0. -1.
          2    1    1    2  501    0  0.77679704803E+01  0.22113145761E+02 -0.60072189953E+01  0.24195438845E+02  0.00000000000E+00 0. -1.
         -2    1    1    2    0  502 -0.77679704803E+01 -0.22113145761E+02  0.24586004927E+02  0.33967693756E+02  0.00000000000E+00 0.  1.
<mgrwt>
<rscale>  2 0.23437845E+02</rscale>
<asrwt>0</asrwt>
<pdfrwt beam="1">  1       21 0.59032245E-02 0.23437845E+02</pdfrwt>
<pdfrwt beam="2">  1       21 0.30449498E-02 0.23437845E+02</pdfrwt>
<totfact> 0.86344529E+07</totfact>
</mgrwt>
</event>
<event>
 4    1  0.2677450E+004  0.2424296E+02  0.7546771E-02  0.1672120E+00
         21   -1    0    0  503  502  0.00000000000E+00  0.00000000000E+00  0.15550909951E+02  0.15550909951E+02  0.00000000000E+00 0. -1.
         21   -1    0    0  501  503 -0.00000000000E+00 -0.00000000000E+00 -0.56452081146E+02  0.56452081146E+02  0.00000000000E+00 0.  1.
          2    1    1    2  501    0  0.23356512306E+02 -0.64957222932E+01 -0.41148259866E+02  0.47758772652E+02  0.00000000000E+00 0.  1.
         -2    1    1    2    0  502 -0.23356512306E+02  0.64957222932E+01  0.24708867083E+00  0.24244218445E+02  0.00000000000E+00 0. -1.
<mgrwt>
<rscale>  2 0.24242959E+02</rscale>
<asrwt>0</asrwt>
<pdfrwt beam="1">  1       21 0.23924477E-02 0.24242959E+02</pdfrwt>
<pdfrwt beam="2">  1       21 0.86849356E-02 0.24242959E+02</pdfrwt>
<totfact> 0.67702703E+07</totfact>
</mgrwt>
</event>
<event>
 4    1  0.2677450E+004  0.2789845E+02  0.7546771E-02  0.1622552E+00
         21   -1    0    0  503  502  0.00000000000E+00  0.00000000000E+00  0.70179214774E+02  0.70179214774E+02  0.00000000000E+00 0. -1.
         21   -1    0    0  501  503 -0.00000000000E+00 -0.00000000000E+00 -0.19686711643E+02  0.19686711643E+02  0.00000000000E+00 0.  1.
          2    1    1    2  501    0 -0.17773553799E+02 -0.21504058106E+02 -0.44452120629E+01  0.28250374156E+02  0.00000000000E+00 0.  1.
         -2    1    1    2    0  502  0.17773553799E+02  0.21504058106E+02  0.54937715194E+02  0.61615552261E+02  0.00000000000E+00 0. -1.
<mgrwt>
<rscale>  2 0.27898454E+02</rscale>
<asrwt>0</asrwt>
<pdfrwt beam="1">  1       21 0.10796802E-01 0.27898454E+02</pdfrwt>
<pdfrwt beam="2">  1       21 0.30287249E-02 0.27898454E+02</pdfrwt>
<totfact> 0.33774645E+07</totfact>
</mgrwt>
</event>
<event>
 4    1  0.2677450E+004  0.2331104E+02  0.7546771E-02  0.1686517E+00
         21   -1    0    0  503  502  0.00000000000E+00  0.00000000000E+00  0.12578073395E+02  0.12578073395E+02  0.00000000000E+00 0. -1.
         21   -1    0    0  501  503 -0.00000000000E+00 -0.00000000000E+00 -0.16302755277E+03  0.16302755277E+03  0.00000000000E+00 0.  1.
          2    1    1    2  501    0 -0.14452371328E+02  0.18290253240E+02 -0.15049990423E+03  0.15229453560E+03  0.00000000000E+00 0.  1.
         -2    1    1    2    0  502  0.14452371328E+02 -0.18290253240E+02  0.50424857538E-01  0.23311090563E+02  0.00000000000E+00 0. -1.
<mgrwt>
<rscale>  2 0.23311036E+02</rscale>
<asrwt>0</asrwt>
<pdfrwt beam="1">  1       21 0.19350885E-02 0.23311036E+02</pdfrwt>
<pdfrwt beam="2">  1       21 0.25081159E-01 0.23311036E+02</pdfrwt>
<totfact> 0.15222397E+07</totfact>
</mgrwt>
</event>
<event>
 4    1  0.2677450E+004  0.5171634E+02  0.7546771E-02  0.1436298E+00
         21   -1    0    0  501  502  0.00000000000E+00  0.00000000000E+00  0.63008715576E+02  0.63008715576E+02  0.00000000000E+00 0.  1.
         21   -1    0    0  502  503 -0.00000000000E+00 -0.00000000000E+00 -0.48754106617E+02  0.48754106617E+02  0.00000000000E+00 0. -1.
          2    1    1    2  501    0 -0.50091276658E+02  0.12862485128E+02  0.27225187199E+02  0.58444763144E+02  0.00000000000E+00 0.  1.
         -2    1    1    2    0  503  0.50091276658E+02 -0.12862485128E+02 -0.12970578239E+02  0.53318059049E+02  0.00000000000E+00 0. -1.
<mgrwt>
<rscale>  2 0.51716337E+02</rscale>
<asrwt>0</asrwt>
<pdfrwt beam="1">  1       21 0.96936485E-02 0.51716337E+02</pdfrwt>
<pdfrwt beam="2">  1       21 0.75006318E-02 0.51716337E+02</pdfrwt>
<totfact> 0.10331780E+07</totfact>
</mgrwt>
</event>
<event>
 4    1  0.2677450E+004  0.2611800E+02  0.7546771E-02  0.1645444E+00
         21   -1    0    0  503  502  0.00000000000E+00  0.00000000000E+00  0.22559456818E+02  0.22559456818E+02  0.00000000000E+00 0.  1.
         21   -1    0    0  501  503 -0.00000000000E+00 -0.00000000000E+00 -0.31932058140E+02  0.31932058140E+02  0.00000000000E+00 0. -1.
          2    1    1    2  501    0  0.26031341582E+02 -0.21258540894E+01 -0.10962053170E+02  0.28325193907E+02  0.00000000000E+00 0. -1.
         -2    1    1    2    0  502 -0.26031341582E+02  0.21258540894E+01  0.15894518475E+01  0.26166321051E+02  0.00000000000E+00 0.  1.
<mgrwt>
<rscale>  2 0.26118001E+02</rscale>
<asrwt>0</asrwt>
<pdfrwt beam="1">  1       21 0.34706857E-02 0.26118001E+02</pdfrwt>
<pdfrwt beam="2">  1       21 0.49126243E-02 0.26118001E+02</pdfrwt>
<totfact> 0.97210459E+07</totfact>
</mgrwt>
</event>
<event>
 4    1  0.2677450E+004  0.2294517E+02  0.7546771E-02  0.1692400E+00
         21   -1    0    0  501  502  0.00000000000E+00  0.00000000000E+00  0.66663057569E+02  0.66663057569E+02  0.00000000000E+00 0.  1.
         21   -1    0    0  502  503 -0.00000000000E+00 -0.00000000000E+00 -0.25507625574E+02  0.25507625574E+02  0.00000000000E+00 0. -1.
          2    1    1    2  501    0  0.20569372396E+02  0.10167677607E+02  0.58869650655E+02  0.63183198059E+02  0.00000000000E+00 0.  1.
         -2    1    1    2    0  503 -0.20569372396E+02 -0.10167677607E+02 -0.17714218660E+02  0.28987485083E+02  0.00000000000E+00 0. -1.
<mgrwt>
<rscale>  2 0.22945168E+02</rscale>
<asrwt>0</asrwt>
<pdfrwt beam="1">  1       21 0.10255855E-01 0.22945168E+02</pdfrwt>
<pdfrwt beam="2">  1       21 0.39242501E-02 0.22945168E+02</pdfrwt>
<totfact> 0.23452380E+07</totfact>
</mgrwt>
</event>
<event>
 4    1  0.2677450E+004  0.2328551E+02  0.7546771E-02  0.1686923E+00
         21   -1    0    0  501  502  0.00000000000E+00  0.00000000000E+00  0.98242124107E+01  0.98242124107E+01  0.00000000000E+00 0. -1.
         21   -1    0    0  502  503 -0.00000000000E+00 -0.00000000000E+00 -0.76435057872E+02  0.76435057872E+02  0.00000000000E+00 0.  1.
          2    1    1    2  501    0  0.22514110259E+02  0.59438803130E+01 -0.10568002827E+02  0.25571420721E+02  0.00000000000E+00 0. -1.
         -2    1    1    2    0  503 -0.22514110259E+02 -0.59438803130E+01 -0.56042842634E+02  0.60687849562E+02  0.00000000000E+00 0.  1.
<mgrwt>
<rscale>  2 0.23285508E+02</rscale>
<asrwt>0</asrwt>
<pdfrwt beam="1">  1       21 0.15114173E-02 0.23285508E+02</pdfrwt>
<pdfrwt beam="2">  1       21 0.11759239E-01 0.23285508E+02</pdfrwt>
<totfact> 0.81956403E+07</totfact>
</mgrwt>
</event>
<event>
 4    1  0.2677450E+004  0.2280411E+02  0.7546771E-02  0.1694705E+00
         21   -1    0    0  501  502  0.00000000000E+00  0.00000000000E+00  0.13201535615E+03  0.13201535615E+03  0.00000000000E+00 0. -1.
         21   -1    0    0  502  503 -0.00000000000E+00 -0.00000000000E+00 -0.78143076393E+01  0.78143076393E+01  0.00000000000E+00 0.  1.
          2    1    1    2  501    0 -0.22363559582E+01  0.22694184747E+02  0.11133498310E+03  0.11364640676E+03  0.00000000000E+00 0. -1.
         -2    1    1    2    0  503  0.22363559582E+01 -0.22694184747E+02  0.12866065418E+02  0.26183257029E+02  0.00000000000E+00 0.  1.
<mgrwt>
<rscale>  2 0.22804107E+02</rscale>
<asrwt>0</asrwt>
<pdfrwt beam="1">  1       21 0.20310053E-01 0.22804107E+02</pdfrwt>
<pdfrwt beam="2">  1       21 0.12022013E-02 0.22804107E+02</pdfrwt>
<totfact> 0.45344182E+07</totfact>
</mgrwt>
</event>
<event>
 4    1  0.2677450E+004  0.2114590E+02  0.7546771E-02  0.1723456E+00
         21   -1    0    0  501  502  0.00000000000E+00  0.00000000000E+00  0.53271749973E+00  0.53271749973E+00  0.00000000000E+00 0.  1.
         21   -1    0    0  502  503 -0.00000000000E+00 -0.00000000000E+00 -0.92472155780E+03  0.92472155780E+03  0.00000000000E+00 0. -1.
          2    1    1    2  501    0 -0.20606601147E+02  0.47452043346E+01 -0.32154717859E+03  0.32224173695E+03  0.00000000000E+00 0.  1.
         -2    1    1    2    0  503  0.20606601147E+02 -0.47452043346E+01 -0.60264166171E+03  0.60301253835E+03  0.00000000000E+00 0. -1.
<mgrwt>
<rscale>  2 0.21145897E+02</rscale>
<asrwt>0</asrwt>
<pdfrwt beam="1">  1       21 0.81956976E-04 0.21145897E+02</pdfrwt>
<pdfrwt beam="2">  1       21 0.14226410E+00 0.21145897E+02</pdfrwt>
<totfact> 0.46672908E+07</totfact>
</mgrwt>
</event>
<event>
 4    1  0.2677450E+004  0.2705340E+02  0.7546771E-02  0.1633147E+00
         21   -1    0    0  501  502  0.00000000000E+00  0.00000000000E+00  0.28951167859E+03  0.28951167859E+03  0.00000000000E+00 0. -1.
         21   -1    0    0  502  503 -0.00000000000E+00 -0.00000000000E+00 -0.27444955619E+01  0.27444955619E+01  0.00000000000E+00 0.  1.
          2    1    1    2  501    0  0.62123416711E+01 -0.26330459751E+02  0.18442518764E+03  0.18639886302E+03  0.00000000000E+00 0.  1.
         -2    1    1    2    0  503 -0.62123416711E+01  0.26330459751E+02  0.10234199539E+03  0.10585731113E+03  0.00000000000E+00 0. -1.
<mgrwt>
<rscale>  2 0.27053397E+02</rscale>
<asrwt>0</asrwt>
<pdfrwt beam="1">  1       21 0.44540234E-01 0.27053397E+02</pdfrwt>
<pdfrwt beam="2">  1       21 0.42223031E-03 0.27053397E+02</pdfrwt>
<totfact> 0.53495100E+07</totfact>
</mgrwt>
</event>
<event>
 4    1  0.2677450E+004  0.2186506E+02  0.7546771E-02  0.1710596E+00
         21   -1    0    0  503  502  0.00000000000E+00  0.00000000000E+00  0.66158750707E+02  0.66158750707E+02  0.00000000000E+00 0. -1.
         21   -1    0    0  501  503 -0.00000000000E+00 -0.00000000000E+00 -0.74293805458E+01  0.74293805458E+01  0.00000000000E+00 0.  1.
          2    1    1    2  501    0 -0.27567827006E+01 -0.21690574339E+02  0.35448413306E+02  0.41649380211E+02  0.00000000000E+00 0.  1.
         -2    1    1    2    0  502  0.27567827006E+01  0.21690574339E+02  0.23280956855E+02  0.31938751042E+02  0.00000000000E+00 0. -1.
<mgrwt>
<rscale>  2 0.21865060E+02</rscale>
<asrwt>0</asrwt>
<pdfrwt beam="1">  1       21 0.10178269E-01 0.21865060E+02</pdfrwt>
<pdfrwt beam="2">  1       21 0.11429817E-02 0.21865060E+02</pdfrwt>
<totfact> 0.15613423E+08</totfact>
</mgrwt>
</event>
<event>
 4    1  0.2677450E+004  0.2495272E+02  0.7546771E-02  0.1661682E+00
         21   -1    0    0  503  502  0.00000000000E+00  0.00000000000E+00  0.37917615976E+01  0.37917615976E+01  0.00000000000E+00 0. -1.
         21   -1    0    0  501  503 -0.00000000000E+00 -0.00000000000E+00 -0.22232765285E+03  0.22232765285E+03  0.00000000000E+00 0.  1.
          2    1    1    2  501    0 -0.24531856758E+02 -0.45635687365E+01 -0.16707383160E+03  0.16892691722E+03  0.00000000000E+00 0.  1.
         -2    1    1    2    0  502  0.24531856758E+02  0.45635687365E+01 -0.51462059652E+02  0.57192497229E+02  0.00000000000E+00 0. -1.
<mgrwt>
<rscale>  2 0.24952718E+02</rscale>
<asrwt>0</asrwt>
<pdfrwt beam="1">  1       21 0.58334792E-03 0.24952718E+02</pdfrwt>
<pdfrwt beam="2">  1       21 0.34204255E-01 0.24952718E+02</pdfrwt>
<totfact> 0.53600154E+07</totfact>
</mgrwt>
</event>
<event>
 4    1  0.2677450E+004  0.2178827E+02  0.7546771E-02  0.1711940E+00
         21   -1    0    0  501  502  0.00000000000E+00  0.00000000000E+00  0.37089178450E+02  0.37089178450E+02  0.00000000000E+00 0.  1.
         21   -1    0    0  502  503 -0.00000000000E+00 -0.00000000000E+00 -0.12885598606E+02  0.12885598606E+02  0.00000000000E+00 0. -1.
          2    1    1    2  501    0 -0.10295717397E+02 -0.19202266327E+02  0.14142427086E+02  0.25975701582E+02  0.00000000000E+00 0. -1.
         -2    1    1    2    0  503  0.10295717397E+02  0.19202266327E+02  0.10061152758E+02  0.23999075474E+02  0.00000000000E+00 0.  1.
<mgrwt>
<rscale>  2 0.21788273E+02</rscale>
<asrwt>0</asrwt>
<pdfrwt beam="1">  1       21 0.57060274E-02 0.21788273E+02</pdfrwt>
<pdfrwt beam="2">  1       21 0.19823998E-02 0.21788273E+02</pdfrwt>
<totfact> 0.17313064E+08</totfact>
</mgrwt>
</event>
<event>
 4    1  0.2677450E+004  0.2759587E+02  0.7546771E-02  0.1626292E+00
         21   -1    0    0  503  502  0.00000000000E+00  0.00000000000E+00  0.69929587715E+02  0.69929587715E+02  0.00000000000E+00 0.  1.
         21   -1    0    0  501  503 -0.00000000000E+00 -0.00000000000E+00 -0.10894091831E+02  0.10894091831E+02  0.00000000000E+00 0. -1.
          2    1    1    2  501    0  0.78727047576E+01  0.26449053456E+02  0.30302725501E+02  0.40985205645E+02  0.00000000000E+00 0. -1.
         -2    1    1    2    0  502 -0.78727047576E+01 -0.26449053456E+02  0.28732770383E+02  0.39838473902E+02  0.00000000000E+00 0.  1.
<mgrwt>
<rscale>  2 0.27595868E+02</rscale>
<asrwt>0</asrwt>
<pdfrwt beam="1">  1       21 0.10758398E-01 0.27595868E+02</pdfrwt>
<pdfrwt beam="2">  1       21 0.16760142E-02 0.27595868E+02</pdfrwt>
<totfact> 0.84878554E+07</totfact>
</mgrwt>
</event>
<event>
 4    1  0.2677450E+004  0.3740530E+02  0.7546771E-02  0.1528223E+00
         21   -1    0    0  501  502  0.00000000000E+00  0.00000000000E+00  0.51805472056E+01  0.51805472056E+01  0.00000000000E+00 0.  1.
         21   -1    0    0  502  503 -0.00000000000E+00 -0.00000000000E+00 -0.32247391551E+03  0.32247391551E+03  0.00000000000E+00 0. -1.
          2    1    1    2  501    0  0.31622884245E+02 -0.19978735200E+02 -0.92610245911E+02  0.99878998372E+02  0.00000000000E+00 0.  1.
         -2    1    1    2    0  503 -0.31622884245E+02  0.19978735200E+02 -0.22468312239E+03  0.22777546434E+03  0.00000000000E+00 0. -1.
<mgrwt>
<rscale>  2 0.37405303E+02</rscale>
<asrwt>0</asrwt>
<pdfrwt beam="1">  1       21 0.79700721E-03 0.37405303E+02</pdfrwt>
<pdfrwt beam="2">  1       21 0.49611375E-01 0.37405303E+02</pdfrwt>
<totfact> 0.17771079E+07</totfact>
</mgrwt>
</event>
<event>
 4    1  0.2677450E+004  0.3456120E+02  0.7546771E-02  0.1552532E+00
         21   -1    0    0  503  502  0.00000000000E+00  0.00000000000E+00  0.11982268768E+01  0.11982268768E+01  0.00000000000E+00 0.  1.
         21   -1    0    0  501  503 -0.00000000000E+00 -0.00000000000E+00 -0.13616590311E+04  0.13616590311E+04  0.00000000000E+00 0. -1.
          2    1    1    2  501    0 -0.27193388402E+02 -0.21330644161E+02 -0.10329315829E+04  0.10335096186E+04  0.00000000000E+00 0. -1.
         -2    1    1    2    0  502  0.27193388402E+02  0.21330644161E+02 -0.32752922134E+03  0.32934763941E+03  0.00000000000E+00 0.  1.
<mgrwt>
<rscale>  2 0.34561203E+02</rscale>
<asrwt>0</asrwt>
<pdfrwt beam="1">  1       21 0.18434338E-03 0.34561203E+02</pdfrwt>
<pdfrwt beam="2">  1       21 0.20948511E+00 0.34561203E+02</pdfrwt>
<totfact> 0.59165782E+06</totfact>
</mgrwt>
</event>
<event>
 4    1  0.2677450E+004  0.6900154E+02  0.7546771E-02  0.1363522E+00
         21   -1    0    0  503  502  0.00000000000E+00  0.00000000000E+00  0.29111151301E+03  0.29111151301E+03  0.00000000000E+00 0. -1.
         21   -1    0    0  501  503 -0.00000000000E+00 -0.00000000000E+00 -0.16388669876E+02  0.16388669876E+02  0.00000000000E+00 0.  1.
          2    1    1    2  501    0  0.88499929329E+01  0.68431642126E+02  0.13042216939E+03  0.14755051436E+03  0.00000000000E+00 0. -1.
         -2    1    1    2    0  502 -0.88499929329E+01 -0.68431642126E+02  0.14430067374E+03  0.15994966852E+03  0.00000000000E+00 0.  1.
<mgrwt>
<rscale>  2 0.69001536E+02</rscale>
<asrwt>0</asrwt>
<pdfrwt beam="1">  1       21 0.44786383E-01 0.69001536E+02</pdfrwt>
<pdfrwt beam="2">  1       21 0.25213340E-02 0.69001536E+02</pdfrwt>
<totfact> 0.38621712E+06</totfact>
</mgrwt>
</event>
<event>
 4    1  0.2677450E+004  0.3401089E+02  0.7546771E-02  0.1557564E+00
         21   -1    0    0  503  502  0.00000000000E+00  0.00000000000E+00  0.56415806443E+01  0.56415806443E+01  0.00000000000E+00 0. -1.
         21   -1    0    0  501  503 -0.00000000000E+00 -0.00000000000E+00 -0.33296028478E+03  0.33296028478E+03  0.00000000000E+00 0.  1.
          2    1    1    2  501    0  0.15061399914E+02 -0.30494177163E+02 -0.26859802713E+03  0.27074275759E+03  0.00000000000E+00 0.  1.
         -2    1    1    2    0  502 -0.15061399914E+02  0.30494177163E+02 -0.58720677000E+02  0.67859107831E+02  0.00000000000E+00 0. -1.
<mgrwt>
<rscale>  2 0.34010890E+02</rscale>
<asrwt>0</asrwt>
<pdfrwt beam="1">  1       21 0.86793547E-03 0.34010890E+02</pdfrwt>
<pdfrwt beam="2">  1       21 0.51224660E-01 0.34010890E+02</pdfrwt>
<totfact> 0.14450803E+07</totfact>
</mgrwt>
</event>
<event>
 4    1  0.2677450E+004  0.2882371E+02  0.7546771E-02  0.1611467E+00
         21   -1    0    0  503  502  0.00000000000E+00  0.00000000000E+00  0.12186400909E+01  0.12186400909E+01  0.00000000000E+00 0.  1.
         21   -1    0    0  501  503 -0.00000000000E+00 -0.00000000000E+00 -0.77652272916E+03  0.77652272916E+03  0.00000000000E+00 0. -1.
          2    1    1    2  501    0 -0.25389517476E+01 -0.28711665414E+02 -0.52350632844E+03  0.52429922938E+03  0.00000000000E+00 0.  1.
         -2    1    1    2    0  502  0.25389517476E+01  0.28711665414E+02 -0.25179776062E+03  0.25344213987E+03  0.00000000000E+00 0. -1.
<mgrwt>
<rscale>  2 0.28823706E+02</rscale>
<asrwt>0</asrwt>
<pdfrwt beam="1">  1       21 0.18748294E-03 0.28823706E+02</pdfrwt>
<pdfrwt beam="2">  1       21 0.11946513E+00 0.28823706E+02</pdfrwt>
<totfact> 0.22609524E+07</totfact>
</mgrwt>
</event>
<event>
 4    1  0.2677450E+004  0.3024823E+02  0.7546771E-02  0.1595361E+00
         21   -1    0    0  501  502  0.00000000000E+00  0.00000000000E+00  0.27807387529E+02  0.27807387529E+02  0.00000000000E+00 0.  1.
         21   -1    0    0  502  503 -0.00000000000E+00 -0.00000000000E+00 -0.50399886743E+02  0.50399886743E+02  0.00000000000E+00 0. -1.
          2    1    1    2  501    0 -0.25112805241E+02 -0.16861269186E+02  0.11743554697E+02  0.32447903824E+02  0.00000000000E+00 0.  1.
         -2    1    1    2    0  503  0.25112805241E+02  0.16861269186E+02 -0.34336053911E+02  0.45759370448E+02  0.00000000000E+00 0. -1.
<mgrwt>
<rscale>  2 0.30248229E+02</rscale>
<asrwt>0</asrwt>
<pdfrwt beam="1">  1       21 0.42780597E-02 0.30248229E+02</pdfrwt>
<pdfrwt beam="2">  1       21 0.77538286E-02 0.30248229E+02</pdfrwt>
<totfact> 0.34471126E+07</totfact>
</mgrwt>
</event>
<event>
 4    1  0.2677450E+004  0.2171462E+02  0.7546771E-02  0.1713235E+00
         21   -1    0    0  501  502  0.00000000000E+00  0.00000000000E+00  0.10079874947E+04  0.10079874947E+04  0.00000000000E+00 0. -1.
         21   -1    0    0  502  503 -0.00000000000E+00 -0.00000000000E+00 -0.47097485490E+00  0.47097485490E+00  0.00000000000E+00 0.  1.
          2    1    1    2  501    0 -0.18913340232E+02 -0.10668187205E+02  0.54523423416E+03  0.54566646842E+03  0.00000000000E+00 0. -1.
         -2    1    1    2    0  503  0.18913340232E+02  0.10668187205E+02  0.46228228565E+03  0.46279200110E+03  0.00000000000E+00 0.  1.
<mgrwt>
<rscale>  2 0.21714619E+02</rscale>
<asrwt>0</asrwt>
<pdfrwt beam="1">  1       21 0.15507327E+00 0.21714619E+02</pdfrwt>
<pdfrwt beam="2">  1       21 0.72458477E-04 0.21714619E+02</pdfrwt>
<totfact> 0.45600331E+07</totfact>
</mgrwt>
</event>
<event>
 4    1  0.2677450E+004  0.2349580E+02  0.7546771E-02  0.1683597E+00
         21   -1    0    0  503  502  0.00000000000E+00  0.00000000000E+00  0.15006615578E+04  0.15006615578E+04  0.00000000000E+00 0.  1.
         21   -1    0    0  501  503 -0.00000000000E+00 -0.00000000000E+00 -0.79863291474E+00  0.79863291474E+00  0.00000000000E+00 0. -1.
          2    1    1    2  501    0  0.20139389498E+02 -0.12101972814E+02  0.19858079696E+03  0.19996596129E+03  0.00000000000E+00 0. -1.
         -2    1    1    2    0  502 -0.20139389498E+02  0.12101972814E+02  0.13012821279E+04  0.13014942294E+04  0.00000000000E+00 0.  1.
<mgrwt>
<rscale>  2 0.23495803E+02</rscale>
<asrwt>0</asrwt>
<pdfrwt beam="1">  1       21 0.23086875E+00 0.23495803E+02</pdfrwt>
<pdfrwt beam="2">  1       21 0.12286780E-03 0.23495803E+02</pdfrwt>
<totfact> 0.79386930E+06</totfact>
</mgrwt>
</event>
<event>
 4    1  0.2677450E+004  0.2155899E+02  0.7546771E-02  0.1715993E+00
         21   -1    0    0  501  502  0.00000000000E+00  0.00000000000E+00  0.25139519406E+01  0.25139519406E+01  0.00000000000E+00 0.  1.
         21   -1    0    0  502  503 -0.00000000000E+00 -0.00000000000E+00 -0.18798037876E+03  0.18798037876E+03  0.00000000000E+00 0. -1.
          2    1    1    2  501    0  0.19968882436E+02  0.81261189503E+01 -0.80509404905E+02  0.83345991823E+02  0.00000000000E+00 0.  1.
         -2    1    1    2    0  503 -0.19968882436E+02 -0.81261189503E+01 -0.10495702192E+03  0.10714833888E+03  0.00000000000E+00 0. -1.
<mgrwt>
<rscale>  2 0.21558991E+02</rscale>
<asrwt>0</asrwt>
<pdfrwt beam="1">  1       21 0.38676186E-03 0.21558991E+02</pdfrwt>
<pdfrwt beam="2">  1       21 0.28920056E-01 0.21558991E+02</pdfrwt>
<totfact> 0.12852798E+08</totfact>
</mgrwt>
</event>
<event>
 4    1  0.2677450E+004  0.3052735E+02  0.7546771E-02  0.1592332E+00
         21   -1    0    0  503  502  0.00000000000E+00  0.00000000000E+00  0.47068472265E+01  0.47068472265E+01  0.00000000000E+00 0. -1.
         21   -1    0    0  501  503 -0.00000000000E+00 -0.00000000000E+00 -0.34769555044E+03  0.34769555044E+03  0.00000000000E+00 0.  1.
          2    1    1    2  501    0  0.30164311055E+02 -0.46939645897E+01 -0.28711225107E+03  0.28873060745E+03  0.00000000000E+00 0.  1.
         -2    1    1    2    0  502 -0.30164311055E+02  0.46939645897E+01 -0.55876452145E+02  0.63671790216E+02  0.00000000000E+00 0. -1.
<mgrwt>
<rscale>  2 0.30527348E+02</rscale>
<asrwt>0</asrwt>
<pdfrwt beam="1">  1       21 0.72413014E-03 0.30527348E+02</pdfrwt>
<pdfrwt beam="2">  1       21 0.53491638E-01 0.30527348E+02</pdfrwt>
<totfact> 0.17136220E+07</totfact>
</mgrwt>
</event>
<event>
 4    1  0.2677450E+004  0.3349852E+02  0.7546771E-02  0.1562353E+00
         21   -1    0    0  501  502  0.00000000000E+00  0.00000000000E+00  0.88402671455E+03  0.88402671455E+03  0.00000000000E+00 0.  1.
         21   -1    0    0  502  503 -0.00000000000E+00 -0.00000000000E+00 -0.13345325429E+01  0.13345325429E+01  0.00000000000E+00 0. -1.
          2    1    1    2  501    0 -0.31433347140E+02  0.11579961501E+02  0.53917071716E+03  0.54021034150E+03  0.00000000000E+00 0.  1.
         -2    1    1    2    0  503  0.31433347140E+02 -0.11579961501E+02  0.34352146484E+03  0.34515090559E+03  0.00000000000E+00 0. -1.
<mgrwt>
<rscale>  2 0.33498520E+02</rscale>
<asrwt>0</asrwt>
<pdfrwt beam="1">  1       21 0.13600364E+00 0.33498520E+02</pdfrwt>
<pdfrwt beam="2">  1       21 0.20531341E-03 0.33498520E+02</pdfrwt>
<totfact> 0.14962572E+07</totfact>
</mgrwt>
</event>
<event>
 4    1  0.2677450E+004  0.2437034E+02  0.7546771E-02  0.1670214E+00
         21   -1    0    0  501  502  0.00000000000E+00  0.00000000000E+00  0.37107349119E+03  0.37107349119E+03  0.00000000000E+00 0. -1.
         21   -1    0    0  502  503 -0.00000000000E+00 -0.00000000000E+00 -0.27388382451E+01  0.27388382451E+01  0.00000000000E+00 0.  1.
          2    1    1    2  501    0 -0.15275813506E+02 -0.18988491659E+02  0.30466283779E+03  0.30563598942E+03  0.00000000000E+00 0. -1.
         -2    1    1    2    0  503  0.15275813506E+02  0.18988491659E+02  0.63671815152E+02  0.68176340020E+02  0.00000000000E+00 0.  1.
<mgrwt>
<rscale>  2 0.24370336E+02</rscale>
<asrwt>0</asrwt>
<pdfrwt beam="1">  1       21 0.57088189E-01 0.24370336E+02</pdfrwt>
<pdfrwt beam="2">  1       21 0.42136002E-03 0.24370336E+02</pdfrwt>
<totfact> 0.32300407E+07</totfact>
</mgrwt>
</event>
<event>
 4    1  0.2677450E+004  0.2017758E+02  0.7546771E-02  0.1741820E+00
         21   -1    0    0  503  502  0.00000000000E+00  0.00000000000E+00  0.32192459449E+01  0.32192459449E+01  0.00000000000E+00 0. -1.
         21   -1    0    0  501  503 -0.00000000000E+00 -0.00000000000E+00 -0.13732868730E+03  0.13732868730E+03  0.00000000000E+00 0.  1.
          2    1    1    2  501    0 -0.18820021251E+02 -0.72760798650E+01 -0.86816416775E+02  0.89130380678E+02  0.00000000000E+00 0.  1.
         -2    1    1    2    0  502  0.18820021251E+02  0.72760798650E+01 -0.47293024582E+02  0.51417552569E+02  0.00000000000E+00 0. -1.
<mgrwt>
<rscale>  2 0.20177575E+02</rscale>
<asrwt>0</asrwt>
<pdfrwt beam="1">  1       21 0.49526875E-03 0.20177575E+02</pdfrwt>
<pdfrwt beam="2">  1       21 0.21127484E-01 0.20177575E+02</pdfrwt>
<totfact> 0.15313613E+08</totfact>
</mgrwt>
</event>
<event>
 4    1  0.2677450E+004  0.3301461E+02  0.7546771E-02  0.1566973E+00
         21   -1    0    0  501  502  0.00000000000E+00  0.00000000000E+00  0.22434393784E+02  0.22434393784E+02  0.00000000000E+00 0. -1.
         21   -1    0    0  502  503 -0.00000000000E+00 -0.00000000000E+00 -0.55018147787E+02  0.55018147787E+02  0.00000000000E+00 0.  1.
          2    1    1    2  501    0  0.17082154482E+02 -0.28251801063E+02 -0.30490518968E+01  0.33155104924E+02  0.00000000000E+00 0. -1.
         -2    1    1    2    0  503 -0.17082154482E+02  0.28251801063E+02 -0.29534702106E+02  0.44297436647E+02  0.00000000000E+00 0.  1.
<mgrwt>
<rscale>  2 0.33014607E+02</rscale>
<asrwt>0</asrwt>
<pdfrwt beam="1">  1       21 0.34514452E-02 0.33014607E+02</pdfrwt>
<pdfrwt beam="2">  1       21 0.84643304E-02 0.33014607E+02</pdfrwt>
<totfact> 0.42728174E+07</totfact>
</mgrwt>
</event>
<event>
 4    1  0.2677450E+004  0.2062079E+02  0.7546771E-02  0.1733257E+00
         21   -1    0    0  503  502  0.00000000000E+00  0.00000000000E+00  0.30068807892E+01  0.30068807892E+01  0.00000000000E+00 0.  1.
         21   -1    0    0  501  503 -0.00000000000E+00 -0.00000000000E+00 -0.14705750628E+03  0.14705750628E+03  0.00000000000E+00 0. -1.
          2    1    1    2  501    0  0.32114482551E+01 -0.20369187171E+02 -0.86723070588E+02  0.89140945464E+02  0.00000000000E+00 0.  1.
         -2    1    1    2    0  502 -0.32114482551E+01  0.20369187171E+02 -0.57327554898E+02  0.60923441601E+02  0.00000000000E+00 0. -1.
<mgrwt>
<rscale>  2 0.20620795E+02</rscale>
<asrwt>0</asrwt>
<pdfrwt beam="1">  1       21 0.46259704E-03 0.20620795E+02</pdfrwt>
<pdfrwt beam="2">  1       21 0.22624232E-01 0.20620795E+02</pdfrwt>
<totfact> 0.15113857E+08</totfact>
</mgrwt>
</event>
<event>
 4    1  0.2677450E+004  0.2836702E+02  0.7546771E-02  0.1616874E+00
         21   -1    0    0  503  502  0.00000000000E+00  0.00000000000E+00  0.40553609510E+03  0.40553609510E+03  0.00000000000E+00 0. -1.
         21   -1    0    0  501  503 -0.00000000000E+00 -0.00000000000E+00 -0.20160481774E+01  0.20160481774E+01  0.00000000000E+00 0.  1.
          2    1    1    2  501    0  0.28323515737E+02  0.15703627080E+01  0.22734943477E+03  0.22911231541E+03  0.00000000000E+00 0.  1.
         -2    1    1    2    0  502 -0.28323515737E+02 -0.15703627080E+01  0.17617061215E+03  0.17843982787E+03  0.00000000000E+00 0. -1.
<mgrwt>
<rscale>  2 0.28367016E+02</rscale>
<asrwt>0</asrwt>
<pdfrwt beam="1">  1       21 0.62390104E-01 0.28367016E+02</pdfrwt>
<pdfrwt beam="2">  1       21 0.31016158E-03 0.28367016E+02</pdfrwt>
<totfact> 0.43726405E+07</totfact>
</mgrwt>
</event>
<event>
 4    1  0.2677450E+004  0.2209420E+02  0.7546771E-02  0.1706628E+00
         21   -1    0    0  503  502  0.00000000000E+00  0.00000000000E+00  0.28134330996E+02  0.28134330996E+02  0.00000000000E+00 0.  1.
         21   -1    0    0  501  503 -0.00000000000E+00 -0.00000000000E+00 -0.41339431066E+02  0.41339431066E+02  0.00000000000E+00 0. -1.
          2    1    1    2  501    0  0.12330736074E+02 -0.18333209764E+02 -0.33063848483E+02  0.39766464626E+02  0.00000000000E+00 0. -1.
         -2    1    1    2    0  502 -0.12330736074E+02  0.18333209764E+02  0.19858748413E+02  0.29707297435E+02  0.00000000000E+00 0.  1.
<mgrwt>
<rscale>  2 0.22094199E+02</rscale>
<asrwt>0</asrwt>
<pdfrwt beam="1">  1       21 0.43283586E-02 0.22094199E+02</pdfrwt>
<pdfrwt beam="2">  1       21 0.63599124E-02 0.22094199E+02</pdfrwt>
<totfact> 0.43419373E+07</totfact>
</mgrwt>
</event>
<event>
 4    1  0.2677450E+004  0.2057989E+02  0.7546771E-02  0.1734036E+00
         21   -1    0    0  501  502  0.00000000000E+00  0.00000000000E+00  0.59094340386E+02  0.59094340386E+02  0.00000000000E+00 0. -1.
         21   -1    0    0  502  503 -0.00000000000E+00 -0.00000000000E+00 -0.11386179693E+02  0.11386179693E+02  0.00000000000E+00 0.  1.
          2    1    1    2  501    0 -0.15456262228E+02 -0.13588077304E+02  0.45305779830E+02  0.49760883964E+02  0.00000000000E+00 0. -1.
         -2    1    1    2    0  503  0.15456262228E+02  0.13588077304E+02  0.24023808636E+01  0.20719636114E+02  0.00000000000E+00 0.  1.
<mgrwt>
<rscale>  2 0.20579890E+02</rscale>
<asrwt>0</asrwt>
<pdfrwt beam="1">  1       21 0.90914368E-02 0.20579890E+02</pdfrwt>
<pdfrwt beam="2">  1       21 0.17517200E-02 0.20579890E+02</pdfrwt>
<totfact> 0.96781101E+07</totfact>
</mgrwt>
</event>
<event>
 4    1  0.2677450E+004  0.3682322E+02  0.7546771E-02  0.1532981E+00
         21   -1    0    0  501  502  0.00000000000E+00  0.00000000000E+00  0.61625181336E+02  0.61625181336E+02  0.00000000000E+00 0.  1.
         21   -1    0    0  502  503 -0.00000000000E+00 -0.00000000000E+00 -0.25347926393E+02  0.25347926393E+02  0.00000000000E+00 0. -1.
          2    1    1    2  501    0 -0.36809792119E+02  0.99429239491E+00  0.33935311987E+02  0.50075491139E+02  0.00000000000E+00 0. -1.
         -2    1    1    2    0  503  0.36809792119E+02 -0.99429239491E+00  0.23419429560E+01  0.36897616590E+02  0.00000000000E+00 0.  1.
<mgrwt>
<rscale>  2 0.36823218E+02</rscale>
<asrwt>0</asrwt>
<pdfrwt beam="1">  1       21 0.94807971E-02 0.36823218E+02</pdfrwt>
<pdfrwt beam="2">  1       21 0.38996810E-02 0.36823218E+02</pdfrwt>
<totfact> 0.29729748E+07</totfact>
</mgrwt>
</event>
<event>
 4    1  0.2677450E+004  0.3093877E+02  0.7546771E-02  0.1587938E+00
         21   -1    0    0  503  502  0.00000000000E+00  0.00000000000E+00  0.32705859500E+01  0.32705859500E+01  0.00000000000E+00 0. -1.
         21   -1    0    0  501  503 -0.00000000000E+00 -0.00000000000E+00 -0.32086501141E+03  0.32086501141E+03  0.00000000000E+00 0.  1.
          2    1    1    2  501    0  0.18987876048E+02  0.24426794332E+02 -0.20683789232E+03  0.20913900023E+03  0.00000000000E+00 0.  1.
         -2    1    1    2    0  502 -0.18987876048E+02 -0.24426794332E+02 -0.11075653315E+03  0.11499659713E+03  0.00000000000E+00 0. -1.
<mgrwt>
<rscale>  2 0.30938774E+02</rscale>
<asrwt>0</asrwt>
<pdfrwt beam="1">  1       21 0.50316705E-03 0.30938774E+02</pdfrwt>
<pdfrwt beam="2">  1       21 0.49363850E-01 0.30938774E+02</pdfrwt>
<totfact> 0.34701252E+07</totfact>
</mgrwt>
</event>
<event>
 4    1  0.2677450E+004  0.3919584E+02  0.7546771E-02  0.1514214E+00
         21   -1    0    0  503  502  0.00000000000E+00  0.00000000000E+00  0.15087598886E+02  0.15087598886E+02  0.00000000000E+00 0.  1.
         21   -1    0    0  501  503 -0.00000000000E+00 -0.00000000000E+00 -0.17371336909E+03  0.17371336909E+03  0.00000000000E+00 0. -1.
          2    1    1    2  501    0  0.21496113387E+02  0.32775463913E+02 -0.14004005991E+03  0.14542191136E+03  0.00000000000E+00 0.  1.
         -2    1    1    2    0  502 -0.21496113387E+02 -0.32775463913E+02 -0.18585710298E+02  0.43379056614E+02  0.00000000000E+00 0. -1.
<mgrwt>
<rscale>  2 0.39195841E+02</rscale>
<asrwt>0</asrwt>
<pdfrwt beam="1">  1       21 0.23211691E-02 0.39195841E+02</pdfrwt>
<pdfrwt beam="2">  1       21 0.26725133E-01 0.39195841E+02</pdfrwt>
<totfact> 0.11162349E+07</totfact>
</mgrwt>
</event>
<event>
 4    1  0.2677450E+004  0.2364674E+02  0.7546771E-02  0.1681236E+00
         21   -1    0    0  503  502  0.00000000000E+00  0.00000000000E+00  0.32385718398E+02  0.32385718398E+02  0.00000000000E+00 0. -1.
         21   -1    0    0  501  503 -0.00000000000E+00 -0.00000000000E+00 -0.22048866574E+02  0.22048866574E+02  0.00000000000E+00 0.  1.
          2    1    1    2  501    0  0.18409683823E+02 -0.14840885702E+02 -0.75081154793E+01  0.24810081518E+02  0.00000000000E+00 0.  1.
         -2    1    1    2    0  502 -0.18409683823E+02  0.14840885702E+02  0.17844967303E+02  0.29624503454E+02  0.00000000000E+00 0. -1.
<mgrwt>
<rscale>  2 0.23646741E+02</rscale>
<asrwt>0</asrwt>
<pdfrwt beam="1">  1       21 0.49824182E-02 0.23646741E+02</pdfrwt>
<pdfrwt beam="2">  1       21 0.33921333E-02 0.23646741E+02</pdfrwt>
<totfact> 0.95906744E+07</totfact>
</mgrwt>
</event>
<event>
 4    1  0.2677450E+004  0.2752682E+02  0.7546771E-02  0.1627154E+00
         21   -1    0    0  501  502  0.00000000000E+00  0.00000000000E+00  0.33801455866E+01  0.33801455866E+01  0.00000000000E+00 0. -1.
         21   -1    0    0  502  503 -0.00000000000E+00 -0.00000000000E+00 -0.26124921215E+03  0.26124921215E+03  0.00000000000E+00 0.  1.
          2    1    1    2  501    0 -0.23157754554E+02  0.14881008126E+02 -0.79086511841E+02  0.83740088094E+02  0.00000000000E+00 0. -1.
         -2    1    1    2    0  503  0.23157754554E+02 -0.14881008126E+02 -0.17878255472E+03  0.18088926964E+03  0.00000000000E+00 0.  1.
<mgrwt>
<rscale>  2 0.27526823E+02</rscale>
<asrwt>0</asrwt>
<pdfrwt beam="1">  1       21 0.52002250E-03 0.27526823E+02</pdfrwt>
<pdfrwt beam="2">  1       21 0.40192179E-01 0.27526823E+02</pdfrwt>
<totfact> 0.48005355E+07</totfact>
</mgrwt>
</event>
<event>
 4    1  0.2677450E+004  0.2249730E+02  0.7546771E-02  0.1699791E+00
         21   -1    0    0  501  502  0.00000000000E+00  0.00000000000E+00  0.59173241950E+01  0.59173241950E+01  0.00000000000E+00 0. -1.
         21   -1    0    0  502  503 -0.00000000000E+00 -0.00000000000E+00 -0.16206037355E+03  0.16206037355E+03  0.00000000000E+00 0.  1.
          2    1    1    2  501    0 -0.13906705003E+02 -0.17684235907E+02 -0.20356274461E+02  0.30339850916E+02  0.00000000000E+00 0. -1.
         -2    1    1    2    0  503  0.13906705003E+02  0.17684235907E+02 -0.13578677489E+03  0.13763784683E+03  0.00000000000E+00 0.  1.
<mgrwt>
<rscale>  2 0.22497303E+02</rscale>
<asrwt>0</asrwt>
<pdfrwt beam="1">  1       21 0.91035762E-03 0.22497303E+02</pdfrwt>
<pdfrwt beam="2">  1       21 0.24932364E-01 0.22497303E+02</pdfrwt>
<totfact> 0.47813266E+07</totfact>
</mgrwt>
</event>
<event>
 4    1  0.2677450E+004  0.2871295E+02  0.7546771E-02  0.1612767E+00
         21   -1    0    0  503  502  0.00000000000E+00  0.00000000000E+00  0.56141222471E+03  0.56141222471E+03  0.00000000000E+00 0.  1.
         21   -1    0    0  501  503 -0.00000000000E+00 -0.00000000000E+00 -0.56271703623E+01  0.56271703623E+01  0.00000000000E+00 0. -1.
          2    1    1    2  501    0  0.15646606875E+02  0.24075239830E+02  0.34158879348E+02  0.44623564603E+02  0.00000000000E+00 0. -1.
         -2    1    1    2    0  502 -0.15646606875E+02 -0.24075239830E+02  0.52162617500E+03  0.52241583047E+03  0.00000000000E+00 0.  1.
<mgrwt>
<rscale>  2 0.28712950E+02</rscale>
<asrwt>0</asrwt>
<pdfrwt beam="1">  1       21 0.86371067E-01 0.28712950E+02</pdfrwt>
<pdfrwt beam="2">  1       21 0.86571896E-03 0.28712950E+02</pdfrwt>
<totfact> 0.48297839E+06</totfact>
</mgrwt>
</event>
<event>
 4    1  0.2677450E+004  0.2309800E+02  0.7546771E-02  0.1689926E+00
         21   -1    0    0  501  502  0.00000000000E+00  0.00000000000E+00  0.19844443714E+03  0.19844443714E+03  0.00000000000E+00 0.  1.
         21   -1    0    0  502  503 -0.00000000000E+00 -0.00000000000E+00 -0.30564048419E+01  0.30564048419E+01  0.00000000000E+00 0. -1.
          2    1    1    2  501    0  0.22825963983E+02 -0.35345533272E+01  0.13264904687E+03  0.13464504200E+03  0.00000000000E+00 0. -1.
         -2    1    1    2    0  503 -0.22825963983E+02  0.35345533272E+01  0.62738985426E+02  0.66855799982E+02  0.00000000000E+00 0.  1.
<mgrwt>
<rscale>  2 0.23098002E+02</rscale>
<asrwt>0</asrwt>
<pdfrwt beam="1">  1       21 0.30529903E-01 0.23098002E+02</pdfrwt>
<pdfrwt beam="2">  1       21 0.47021628E-03 0.23098002E+02</pdfrwt>
<totfact> 0.89121930E+07</totfact>
</mgrwt>
</event>
<event>
 4    1  0.2677450E+004  0.2275022E+02  0.7546771E-02  0.1695591E+00
         21   -1    0    0  501  502  0.00000000000E+00  0.00000000000E+00  0.20248568712E+04  0.20248568712E+04  0.00000000000E+00 0. -1.
         21   -1    0    0  502  503 -0.00000000000E+00 -0.00000000000E+00 -0.32846566935E+00  0.32846566935E+00  0.00000000000E+00 0.  1.
          2    1    1    2  501    0 -0.12217223282E+02  0.19191450756E+02  0.14891599307E+04  0.14893337006E+04  0.00000000000E+00 0. -1.
         -2    1    1    2    0  503  0.12217223282E+02 -0.19191450756E+02  0.53536847475E+03  0.53585163626E+03  0.00000000000E+00 0.  1.
<mgrwt>
<rscale>  2 0.22750216E+02</rscale>
<asrwt>0</asrwt>
<pdfrwt beam="1">  1       21 0.31150645E+00 0.22750216E+02</pdfrwt>
<pdfrwt beam="2">  1       21 0.50534801E-04 0.22750216E+02</pdfrwt>
<totfact> 0.11237689E+07</totfact>
</mgrwt>
</event>
<event>
 4    1  0.2677450E+004  0.2367073E+02  0.7546771E-02  0.1680863E+00
         21   -1    0    0  503  502  0.00000000000E+00  0.00000000000E+00  0.88243072157E+01  0.88243072157E+01  0.00000000000E+00 0.  1.
         21   -1    0    0  501  503 -0.00000000000E+00 -0.00000000000E+00 -0.81080657974E+02  0.81080657974E+02  0.00000000000E+00 0. -1.
          2    1    1    2  501    0  0.22690977617E+02 -0.67396539726E+01 -0.57062971862E+02  0.61777715712E+02  0.00000000000E+00 0. -1.
         -2    1    1    2    0  502 -0.22690977617E+02  0.67396539726E+01 -0.15193378897E+02  0.28127249478E+02  0.00000000000E+00 0.  1.
<mgrwt>
<rscale>  2 0.23670729E+02</rscale>
<asrwt>0</asrwt>
<pdfrwt beam="1">  1       21 0.13575857E-02 0.23670729E+02</pdfrwt>
<pdfrwt beam="2">  1       21 0.12473948E-01 0.23670729E+02</pdfrwt>
<totfact> 0.87779540E+07</totfact>
</mgrwt>
</event>
<event>
 4    1  0.2677450E+004  0.3818595E+02  0.7546771E-02  0.1522002E+00
         21   -1    0    0  501  502  0.00000000000E+00  0.00000000000E+00  0.17299227536E+03  0.17299227536E+03  0.00000000000E+00 0. -1.
         21   -1    0    0  502  503 -0.00000000000E+00 -0.00000000000E+00 -0.13274225664E+02  0.13274225664E+02  0.00000000000E+00 0.  1.
          2    1    1    2  501    0  0.38151474585E+02 -0.16222948087E+01  0.13612596394E+03  0.14138049693E+03  0.00000000000E+00 0. -1.
         -2    1    1    2    0  503 -0.38151474585E+02  0.16222948087E+01  0.23592085761E+02  0.44886004099E+02  0.00000000000E+00 0.  1.
<mgrwt>
<rscale>  2 0.38185951E+02</rscale>
<asrwt>0</asrwt>
<pdfrwt beam="1">  1       21 0.26614195E-01 0.38185951E+02</pdfrwt>
<pdfrwt beam="2">  1       21 0.20421887E-02 0.38185951E+02</pdfrwt>
<totfact> 0.13696226E+07</totfact>
</mgrwt>
</event>
<event>
 4    1  0.2677450E+004  0.2514431E+02  0.7546771E-02  0.1658938E+00
         21   -1    0    0  503  502  0.00000000000E+00  0.00000000000E+00  0.35290366844E+02  0.35290366844E+02  0.00000000000E+00 0. -1.
         21   -1    0    0  501  503 -0.00000000000E+00 -0.00000000000E+00 -0.11395205291E+03  0.11395205291E+03  0.00000000000E+00 0.  1.
          2    1    1    2  501    0  0.13412673823E+02  0.21268202433E+02 -0.10783548860E+03  0.11072817553E+03  0.00000000000E+00 0.  1.
         -2    1    1    2    0  502 -0.13412673823E+02 -0.21268202433E+02  0.29173802536E+02  0.38514244225E+02  0.00000000000E+00 0. -1.
<mgrwt>
<rscale>  2 0.25144309E+02</rscale>
<asrwt>0</asrwt>
<pdfrwt beam="1">  1       21 0.54292873E-02 0.25144309E+02</pdfrwt>
<pdfrwt beam="2">  1       21 0.17531085E-01 0.25144309E+02</pdfrwt>
<totfact> 0.57537268E+06</totfact>
</mgrwt>
</event>
<event>
 4    1  0.2677450E+004  0.2093061E+02  0.7546771E-02  0.1727431E+00
         21   -1    0    0  503  502  0.00000000000E+00  0.00000000000E+00  0.39967046943E+01  0.39967046943E+01  0.00000000000E+00 0.  1.
         21   -1    0    0  501  503 -0.00000000000E+00 -0.00000000000E+00 -0.16187122523E+03  0.16187122523E+03  0.00000000000E+00 0. -1.
          2    1    1    2  501    0  0.19676427898E+02  0.71364355783E+01 -0.12605942190E+03  0.12778524319E+03  0.00000000000E+00 0. -1.
         -2    1    1    2    0  502 -0.19676427898E+02 -0.71364355783E+01 -0.31815098633E+02  0.38082686731E+02  0.00000000000E+00 0.  1.
<mgrwt>
<rscale>  2 0.20930612E+02</rscale>
<asrwt>0</asrwt>
<pdfrwt beam="1">  1       21 0.61487767E-03 0.20930612E+02</pdfrwt>
<pdfrwt beam="2">  1       21 0.24903264E-01 0.20930612E+02</pdfrwt>
<totfact> 0.84275781E+07</totfact>
</mgrwt>
</event>
<event>
 4    1  0.2677450E+004  0.2150233E+02  0.7546771E-02  0.1717004E+00
         21   -1    0    0  501  502  0.00000000000E+00  0.00000000000E+00  0.24532716303E+02  0.24532716303E+02  0.00000000000E+00 0.  1.
         21   -1    0    0  502  503 -0.00000000000E+00 -0.00000000000E+00 -0.30567024953E+02  0.30567024953E+02  0.00000000000E+00 0. -1.
          2    1    1    2  501    0  0.10494748930E+02 -0.18767265223E+02  0.14042527198E+02  0.25681560879E+02  0.00000000000E+00 0.  1.
         -2    1    1    2    0  503 -0.10494748930E+02  0.18767265223E+02 -0.20076835847E+02  0.29418180377E+02  0.00000000000E+00 0. -1.
<mgrwt>
<rscale>  2 0.21502325E+02</rscale>
<asrwt>0</asrwt>
<pdfrwt beam="1">  1       21 0.37742641E-02 0.21502325E+02</pdfrwt>
<pdfrwt beam="2">  1       21 0.47026192E-02 0.21502325E+02</pdfrwt>
<totfact> 0.86546494E+07</totfact>
</mgrwt>
</event>
<event>
 4    1  0.2677450E+004  0.3615445E+02  0.7546771E-02  0.1538581E+00
         21   -1    0    0  503  502  0.00000000000E+00  0.00000000000E+00  0.70134330782E+02  0.70134330782E+02  0.00000000000E+00 0.  1.
         21   -1    0    0  501  503 -0.00000000000E+00 -0.00000000000E+00 -0.37836336865E+02  0.37836336865E+02  0.00000000000E+00 0. -1.
          2    1    1    2  501    0 -0.27305257709E+02 -0.23697401795E+02 -0.22306305501E+02  0.42481939874E+02  0.00000000000E+00 0. -1.
         -2    1    1    2    0  502  0.27305257709E+02  0.23697401795E+02  0.54604299418E+02  0.65488727773E+02  0.00000000000E+00 0.  1.
<mgrwt>
<rscale>  2 0.36154446E+02</rscale>
<asrwt>0</asrwt>
<pdfrwt beam="1">  1       21 0.10789897E-01 0.36154446E+02</pdfrwt>
<pdfrwt beam="2">  1       21 0.58209749E-02 0.36154446E+02</pdfrwt>
<totfact> 0.12477990E+07</totfact>
</mgrwt>
</event>
<event>
 4    1  0.2677450E+004  0.2552573E+02  0.7546771E-02  0.1653564E+00
         21   -1    0    0  503  502  0.00000000000E+00  0.00000000000E+00  0.13050330730E+01  0.13050330730E+01  0.00000000000E+00 0.  1.
         21   -1    0    0  501  503 -0.00000000000E+00 -0.00000000000E+00 -0.78457767647E+03  0.78457767647E+03  0.00000000000E+00 0. -1.
          2    1    1    2  501    0 -0.25174905911E+02 -0.42174457694E+01 -0.62859201599E+03  0.62911007408E+03  0.00000000000E+00 0. -1.
         -2    1    1    2    0  502  0.25174905911E+02  0.42174457694E+01 -0.15468062740E+03  0.15677263546E+03  0.00000000000E+00 0.  1.
<mgrwt>
<rscale>  2 0.25525727E+02</rscale>
<asrwt>0</asrwt>
<pdfrwt beam="1">  1       21 0.20077443E-03 0.25525727E+02</pdfrwt>
<pdfrwt beam="2">  1       21 0.12070419E+00 0.25525727E+02</pdfrwt>
<totfact> 0.19599506E+07</totfact>
</mgrwt>
</event>
<event>
 4    1  0.2677450E+004  0.2065879E+02  0.7546771E-02  0.1732536E+00
         21   -1    0    0  501  502  0.00000000000E+00  0.00000000000E+00  0.90338805985E+02  0.90338805985E+02  0.00000000000E+00 0. -1.
         21   -1    0    0  502  503 -0.00000000000E+00 -0.00000000000E+00 -0.52772772236E+01  0.52772772236E+01  0.00000000000E+00 0.  1.
          2    1    1    2  501    0 -0.14798388128E+02  0.14415034181E+02  0.58006768403E+02  0.61575731276E+02  0.00000000000E+00 0. -1.
         -2    1    1    2    0  503  0.14798388128E+02 -0.14415034181E+02  0.27054760359E+02  0.34040351933E+02  0.00000000000E+00 0.  1.
<mgrwt>
<rscale>  2 0.20658788E+02</rscale>
<asrwt>0</asrwt>
<pdfrwt beam="1">  1       21 0.13898277E-01 0.20658788E+02</pdfrwt>
<pdfrwt beam="2">  1       21 0.81188887E-03 0.20658788E+02</pdfrwt>
<totfact> 0.15225805E+08</totfact>
</mgrwt>
</event>
<event>
 4    1  0.2677450E+004  0.2023899E+02  0.7546771E-02  0.1740617E+00
         21   -1    0    0  503  502  0.00000000000E+00  0.00000000000E+00  0.13846191689E+03  0.13846191689E+03  0.00000000000E+00 0. -1.
         21   -1    0    0  501  503 -0.00000000000E+00 -0.00000000000E+00 -0.43116261144E+01  0.43116261144E+01  0.00000000000E+00 0.  1.
          2    1    1    2  501    0  0.40957333299E+01 -0.19820229935E+02  0.27081312441E+02  0.33808490498E+02  0.00000000000E+00 0.  1.
         -2    1    1    2    0  502 -0.40957333299E+01  0.19820229935E+02  0.10706897833E+03  0.10896505251E+03  0.00000000000E+00 0. -1.
<mgrwt>
<rscale>  2 0.20238986E+02</rscale>
<asrwt>0</asrwt>
<pdfrwt beam="1">  1       21 0.21301830E-01 0.20238986E+02</pdfrwt>
<pdfrwt beam="2">  1       21 0.66332720E-03 0.20238986E+02</pdfrwt>
<totfact> 0.98249053E+07</totfact>
</mgrwt>
</event>
<event>
 4    1  0.2677450E+004  0.3060468E+02  0.7546771E-02  0.1591499E+00
         21   -1    0    0  501  502  0.00000000000E+00  0.00000000000E+00  0.32555182397E+01  0.32555182397E+01  0.00000000000E+00 0. -1.
         21   -1    0    0  502  503 -0.00000000000E+00 -0.00000000000E+00 -0.30918190862E+03  0.30918190862E+03  0.00000000000E+00 0.  1.
          2    1    1    2  501    0  0.30578611032E+02  0.12628269756E+01 -0.11179534964E+03  0.11590878476E+03  0.00000000000E+00 0. -1.
         -2    1    1    2    0  503 -0.30578611032E+02 -0.12628269756E+01 -0.19413104075E+03  0.19652864210E+03  0.00000000000E+00 0.  1.
<mgrwt>
<rscale>  2 0.30604676E+02</rscale>
<asrwt>0</asrwt>
<pdfrwt beam="1">  1       21 0.50084893E-03 0.30604676E+02</pdfrwt>
<pdfrwt beam="2">  1       21 0.47566450E-01 0.30604676E+02</pdfrwt>
<totfact> 0.37497106E+07</totfact>
</mgrwt>
</event>
<event>
 4    1  0.2677450E+004  0.2618917E+02  0.7546771E-02  0.1644486E+00
         21   -1    0    0  501  502  0.00000000000E+00  0.00000000000E+00  0.11334726026E+01  0.11334726026E+01  0.00000000000E+00 0.  1.
         21   -1    0    0  502  503 -0.00000000000E+00 -0.00000000000E+00 -0.79954619964E+03  0.79954619964E+03  0.00000000000E+00 0. -1.
          2    1    1    2  501    0  0.12811139318E+02  0.22841784418E+02 -0.20178291178E+03  0.20347534468E+03  0.00000000000E+00 0.  1.
         -2    1    1    2    0  503 -0.12811139318E+02 -0.22841784418E+02 -0.59662981526E+03  0.59720432757E+03  0.00000000000E+00 0. -1.
<mgrwt>
<rscale>  2 0.26189166E+02</rscale>
<asrwt>0</asrwt>
<pdfrwt beam="1">  1       21 0.17438046E-03 0.26189166E+02</pdfrwt>
<pdfrwt beam="2">  1       21 0.12300707E+00 0.26189166E+02</pdfrwt>
<totfact> 0.23115993E+07</totfact>
</mgrwt>
</event>
<event>
 4    1  0.2677450E+004  0.2440986E+02  0.7546771E-02  0.1669626E+00
         21   -1    0    0  501  502  0.00000000000E+00  0.00000000000E+00  0.11473605560E+03  0.11473605560E+03  0.00000000000E+00 0. -1.
         21   -1    0    0  502  503 -0.00000000000E+00 -0.00000000000E+00 -0.51931658802E+01  0.51931658802E+01  0.00000000000E+00 0.  1.
          2    1    1    2  501    0 -0.19530796364E+02 -0.14642034828E+02  0.54886108192E+02  0.60069343786E+02  0.00000000000E+00 0. -1.
         -2    1    1    2    0  503  0.19530796364E+02  0.14642034828E+02  0.54656781531E+02  0.59859877696E+02  0.00000000000E+00 0.  1.
<mgrwt>
<rscale>  2 0.24409858E+02</rscale>
<asrwt>0</asrwt>
<pdfrwt beam="1">  1       21 0.17651699E-01 0.24409858E+02</pdfrwt>
<pdfrwt beam="2">  1       21 0.79894868E-03 0.24409858E+02</pdfrwt>
<totfact> 0.10884862E+08</totfact>
</mgrwt>
</event>
<event>
 4    1  0.2677450E+004  0.3783177E+02  0.7546771E-02  0.1524802E+00
         21   -1    0    0  501  502  0.00000000000E+00  0.00000000000E+00  0.23291604805E+01  0.23291604805E+01  0.00000000000E+00 0.  1.
         21   -1    0    0  502  503 -0.00000000000E+00 -0.00000000000E+00 -0.61698585921E+03  0.61698585921E+03  0.00000000000E+00 0. -1.
          2    1    1    2  501    0  0.79731703599E+01 -0.36982038853E+02 -0.28762805027E+03  0.29010539110E+03  0.00000000000E+00 0.  1.
         -2    1    1    2    0  503 -0.79731703599E+01  0.36982038853E+02 -0.32702864845E+03  0.32920962858E+03  0.00000000000E+00 0. -1.
<mgrwt>
<rscale>  2 0.37831768E+02</rscale>
<asrwt>0</asrwt>
<pdfrwt beam="1">  1       21 0.35833201E-03 0.37831768E+02</pdfrwt>
<pdfrwt beam="2">  1       21 0.94921000E-01 0.37831768E+02</pdfrwt>
<totfact> 0.15236550E+07</totfact>
</mgrwt>
</event>
<event>
 4    1  0.2677450E+004  0.3401441E+02  0.7546771E-02  0.1557531E+00
         21   -1    0    0  501  502  0.00000000000E+00  0.00000000000E+00  0.77395684910E+02  0.77395684910E+02  0.00000000000E+00 0.  1.
         21   -1    0    0  502  503 -0.00000000000E+00 -0.00000000000E+00 -0.35484966330E+02  0.35484966330E+02  0.00000000000E+00 0. -1.
          2    1    1    2  501    0  0.49819909609E+01  0.33647582466E+02  0.63891794471E+02  0.72381913766E+02  0.00000000000E+00 0.  1.
         -2    1    1    2    0  503 -0.49819909609E+01 -0.33647582466E+02 -0.21981075890E+02  0.40498737474E+02  0.00000000000E+00 0. -1.
<mgrwt>
<rscale>  2 0.34014409E+02</rscale>
<asrwt>0</asrwt>
<pdfrwt beam="1">  1       21 0.11907028E-01 0.34014409E+02</pdfrwt>
<pdfrwt beam="2">  1       21 0.54592256E-02 0.34014409E+02</pdfrwt>
<totfact> 0.11608301E+07</totfact>
</mgrwt>
</event>
<event>
 4    1  0.2677450E+004  0.2458164E+02  0.7546771E-02  0.1667085E+00
         21   -1    0    0  501  502  0.00000000000E+00  0.00000000000E+00  0.24283946863E+01  0.24283946863E+01  0.00000000000E+00 0.  1.
         21   -1    0    0  502  503 -0.00000000000E+00 -0.00000000000E+00 -0.27434055634E+03  0.27434055634E+03  0.00000000000E+00 0. -1.
          2    1    1    2  501    0 -0.24413819057E+02  0.28674708119E+01 -0.93756894015E+02  0.96925807322E+02  0.00000000000E+00 0. -1.
         -2    1    1    2    0  503  0.24413819057E+02 -0.28674708119E+01 -0.17815526764E+03  0.17984314370E+03  0.00000000000E+00 0.  1.
<mgrwt>
<rscale>  2 0.24581638E+02</rscale>
<asrwt>0</asrwt>
<pdfrwt beam="1">  1       21 0.37359907E-03 0.24581638E+02</pdfrwt>
<pdfrwt beam="2">  1       21 0.42206252E-01 0.24581638E+02</pdfrwt>
<totfact> 0.69482310E+07</totfact>
</mgrwt>
</event>
<event>
 4    1  0.2677450E+004  0.2308592E+02  0.7546771E-02  0.1690121E+00
         21   -1    0    0  501  502  0.00000000000E+00  0.00000000000E+00  0.12409868465E+02  0.12409868465E+02  0.00000000000E+00 0. -1.
         21   -1    0    0  502  503 -0.00000000000E+00 -0.00000000000E+00 -0.44277091395E+02  0.44277091395E+02  0.00000000000E+00 0.  1.
          2    1    1    2  501    0 -0.19524308052E+02  0.12319135861E+02 -0.11020063213E+02  0.25581272574E+02  0.00000000000E+00 0. -1.
         -2    1    1    2    0  503  0.19524308052E+02 -0.12319135861E+02 -0.20847159717E+02  0.31105687286E+02  0.00000000000E+00 0.  1.
<mgrwt>
<rscale>  2 0.23085920E+02</rscale>
<asrwt>0</asrwt>
<pdfrwt beam="1">  1       21 0.19092106E-02 0.23085920E+02</pdfrwt>
<pdfrwt beam="2">  1       21 0.68118602E-02 0.23085920E+02</pdfrwt>
<totfact> 0.14040658E+08</totfact>
</mgrwt>
</event>
<event>
 4    1  0.2677450E+004  0.2026420E+02  0.7546771E-02  0.1740125E+00
         21   -1    0    0  503  502  0.00000000000E+00  0.00000000000E+00  0.61224618845E+02  0.61224618845E+02  0.00000000000E+00 0. -1.
         21   -1    0    0  501  503 -0.00000000000E+00 -0.00000000000E+00 -0.17800352847E+02  0.17800352847E+02  0.00000000000E+00 0.  1.
          2    1    1    2  501    0 -0.18941036907E+02 -0.72024307902E+01 -0.94803584006E+01  0.22372194434E+02  0.00000000000E+00 0.  1.
         -2    1    1    2    0  502  0.18941036907E+02  0.72024307902E+01  0.52904624398E+02  0.56652777259E+02  0.00000000000E+00 0. -1.
<mgrwt>
<rscale>  2 0.20264202E+02</rscale>
<asrwt>0</asrwt>
<pdfrwt beam="1">  1       21 0.94191721E-02 0.20264202E+02</pdfrwt>
<pdfrwt beam="2">  1       21 0.27385158E-02 0.20264202E+02</pdfrwt>
<totfact> 0.45855536E+07</totfact>
</mgrwt>
</event>
<event>
 4    1  0.2677450E+004  0.2563345E+02  0.7546771E-02  0.1652067E+00
         21   -1    0    0  501  502  0.00000000000E+00  0.00000000000E+00  0.17587311562E+02  0.17587311562E+02  0.00000000000E+00 0. -1.
         21   -1    0    0  502  503 -0.00000000000E+00 -0.00000000000E+00 -0.44667685133E+02  0.44667685133E+02  0.00000000000E+00 0.  1.
          2    1    1    2  501    0  0.98226749245E+01  0.23676757611E+02 -0.95042785492E+00  0.25651064437E+02  0.00000000000E+00 0.  1.
         -2    1    1    2    0  503 -0.98226749245E+01 -0.23676757611E+02 -0.26129945716E+02  0.36603932258E+02  0.00000000000E+00 0. -1.
<mgrwt>
<rscale>  2 0.25633451E+02</rscale>
<asrwt>0</asrwt>
<pdfrwt beam="1">  1       21 0.27057403E-02 0.25633451E+02</pdfrwt>
<pdfrwt beam="2">  1       21 0.68719514E-02 0.25633451E+02</pdfrwt>
<totfact> 0.83176775E+07</totfact>
</mgrwt>
</event>
<event>
 4    1  0.2677450E+004  0.2927182E+02  0.7546771E-02  0.1606280E+00
         21   -1    0    0  503  502  0.00000000000E+00  0.00000000000E+00  0.23634825645E+02  0.23634825645E+02  0.00000000000E+00 0. -1.
         21   -1    0    0  501  503 -0.00000000000E+00 -0.00000000000E+00 -0.18980621150E+03  0.18980621150E+03  0.00000000000E+00 0.  1.
          2    1    1    2  501    0 -0.47081107571E+01  0.28890707264E+02 -0.17907476936E+03  0.18145140477E+03  0.00000000000E+00 0.  1.
         -2    1    1    2    0  502  0.47081107571E+01 -0.28890707264E+02  0.12903383508E+02  0.31989632368E+02  0.00000000000E+00 0. -1.
<mgrwt>
<rscale>  2 0.29271817E+02</rscale>
<asrwt>0</asrwt>
<pdfrwt beam="1">  1       21 0.36361270E-02 0.29271817E+02</pdfrwt>
<pdfrwt beam="2">  1       21 0.29200955E-01 0.29271817E+02</pdfrwt>
<totfact> 0.44960604E+06</totfact>
</mgrwt>
</event>
<event>
 4    1  0.2677450E+004  0.3415081E+02  0.7546771E-02  0.1556273E+00
         21   -1    0    0  503  502  0.00000000000E+00  0.00000000000E+00  0.11703195302E+02  0.11703195302E+02  0.00000000000E+00 0.  1.
         21   -1    0    0  501  503 -0.00000000000E+00 -0.00000000000E+00 -0.14268749897E+03  0.14268749897E+03  0.00000000000E+00 0. -1.
          2    1    1    2  501    0 -0.84510512638E+01 -0.33088635434E+02 -0.10788553846E+03  0.11316168730E+03  0.00000000000E+00 0. -1.
         -2    1    1    2    0  502  0.84510512638E+01  0.33088635434E+02 -0.23098765210E+02  0.41229006980E+02  0.00000000000E+00 0.  1.
<mgrwt>
<rscale>  2 0.34150813E+02</rscale>
<asrwt>0</asrwt>
<pdfrwt beam="1">  1       21 0.18004916E-02 0.34150813E+02</pdfrwt>
<pdfrwt beam="2">  1       21 0.21951923E-01 0.34150813E+02</pdfrwt>
<totfact> 0.23191001E+07</totfact>
</mgrwt>
</event>
<event>
 4    1  0.2677450E+004  0.2437537E+02  0.7546771E-02  0.1670139E+00
         21   -1    0    0  503  502  0.00000000000E+00  0.00000000000E+00  0.91002836911E+02  0.91002836911E+02  0.00000000000E+00 0.  1.
         21   -1    0    0  501  503 -0.00000000000E+00 -0.00000000000E+00 -0.66118688480E+01  0.66118688480E+01  0.00000000000E+00 0. -1.
          2    1    1    2  501    0 -0.90189977658E+01  0.22645453648E+02  0.47659089782E+02  0.53530811039E+02  0.00000000000E+00 0. -1.
         -2    1    1    2    0  502  0.90189977658E+01 -0.22645453648E+02  0.36731878282E+02  0.44083894721E+02  0.00000000000E+00 0.  1.
<mgrwt>
<rscale>  2 0.24375375E+02</rscale>
<asrwt>0</asrwt>
<pdfrwt beam="1">  1       21 0.14000436E-01 0.24375375E+02</pdfrwt>
<pdfrwt beam="2">  1       21 0.10172107E-02 0.24375375E+02</pdfrwt>
<totfact> 0.11263924E+08</totfact>
</mgrwt>
</event>
<event>
 4    1  0.2677450E+004  0.2209116E+02  0.7546771E-02  0.1706680E+00
         21   -1    0    0  501  502  0.00000000000E+00  0.00000000000E+00  0.32073566832E+02  0.32073566832E+02  0.00000000000E+00 0.  1.
         21   -1    0    0  502  503 -0.00000000000E+00 -0.00000000000E+00 -0.26547932261E+02  0.26547932261E+02  0.00000000000E+00 0. -1.
          2    1    1    2  501    0 -0.21713117615E+02 -0.40693779131E+01  0.21912905370E+02  0.31115827724E+02  0.00000000000E+00 0.  1.
         -2    1    1    2    0  503  0.21713117615E+02  0.40693779131E+01 -0.16387270799E+02  0.27505671368E+02  0.00000000000E+00 0. -1.
<mgrwt>
<rscale>  2 0.22091159E+02</rscale>
<asrwt>0</asrwt>
<pdfrwt beam="1">  1       21 0.49343949E-02 0.22091159E+02</pdfrwt>
<pdfrwt beam="2">  1       21 0.40842973E-02 0.22091159E+02</pdfrwt>
<totfact> 0.71377359E+07</totfact>
</mgrwt>
</event>
<event>
 4    1  0.2677450E+004  0.4271287E+02  0.7546771E-02  0.1489147E+00
         21   -1    0    0  503  502  0.00000000000E+00  0.00000000000E+00  0.13224927999E+03  0.13224927999E+03  0.00000000000E+00 0. -1.
         21   -1    0    0  501  503 -0.00000000000E+00 -0.00000000000E+00 -0.25205430762E+02  0.25205430762E+02  0.00000000000E+00 0.  1.
          2    1    1    2  501    0  0.42367362480E+02 -0.54217858019E+01  0.55214916590E+00  0.42716437509E+02  0.00000000000E+00 0.  1.
         -2    1    1    2    0  502 -0.42367362480E+02  0.54217858019E+01  0.10649170006E+03  0.11473827324E+03  0.00000000000E+00 0. -1.
<mgrwt>
<rscale>  2 0.42712869E+02</rscale>
<asrwt>0</asrwt>
<pdfrwt beam="1">  1       21 0.20346043E-01 0.42712869E+02</pdfrwt>
<pdfrwt beam="2">  1       21 0.38777587E-02 0.42712869E+02</pdfrwt>
<totfact> 0.81855976E+06</totfact>
</mgrwt>
</event>
<event>
 4    1  0.2677450E+004  0.2558374E+02  0.7546771E-02  0.1652756E+00
         21   -1    0    0  501  502  0.00000000000E+00  0.00000000000E+00  0.52275752334E+02  0.52275752334E+02  0.00000000000E+00 0. -1.
         21   -1    0    0  502  503 -0.00000000000E+00 -0.00000000000E+00 -0.15161883328E+02  0.15161883328E+02  0.00000000000E+00 0.  1.
          2    1    1    2  501    0 -0.25429034821E+02  0.28092994322E+01  0.32630257957E+02  0.41463980870E+02  0.00000000000E+00 0. -1.
         -2    1    1    2    0  503  0.25429034821E+02 -0.28092994322E+01  0.44836110492E+01  0.25973654792E+02  0.00000000000E+00 0.  1.
<mgrwt>
<rscale>  2 0.25583744E+02</rscale>
<asrwt>0</asrwt>
<pdfrwt beam="1">  1       21 0.80424233E-02 0.25583744E+02</pdfrwt>
<pdfrwt beam="2">  1       21 0.23325975E-02 0.25583744E+02</pdfrwt>
<totfact> 0.80983291E+07</totfact>
</mgrwt>
</event>
<event>
 4    1  0.2677450E+004  0.2839570E+02  0.7546771E-02  0.1616530E+00
         21   -1    0    0  501  502  0.00000000000E+00  0.00000000000E+00  0.63780303596E+01  0.63780303596E+01  0.00000000000E+00 0.  1.
         21   -1    0    0  502  503 -0.00000000000E+00 -0.00000000000E+00 -0.13798797421E+03  0.13798797421E+03  0.00000000000E+00 0. -1.
          2    1    1    2  501    0  0.14859243562E+02 -0.24197495759E+02 -0.44905884939E+02  0.53130541334E+02  0.00000000000E+00 0.  1.
         -2    1    1    2    0  503 -0.14859243562E+02  0.24197495759E+02 -0.86704058910E+02  0.91235463235E+02  0.00000000000E+00 0. -1.
<mgrwt>
<rscale>  2 0.28395702E+02</rscale>
<asrwt>0</asrwt>
<pdfrwt beam="1">  1       21 0.98123550E-03 0.28395702E+02</pdfrwt>
<pdfrwt beam="2">  1       21 0.21228918E-01 0.28395702E+02</pdfrwt>
<totfact> 0.60059548E+07</totfact>
</mgrwt>
</event>
<event>
 4    1  0.2677450E+004  0.2046285E+02  0.7546771E-02  0.1736277E+00
         21   -1    0    0  503  502  0.00000000000E+00  0.00000000000E+00  0.11741679738E+01  0.11741679738E+01  0.00000000000E+00 0. -1.
         21   -1    0    0  501  503 -0.00000000000E+00 -0.00000000000E+00 -0.49534641366E+03  0.49534641366E+03  0.00000000000E+00 0.  1.
          2    1    1    2  501    0  0.19636788886E+02  0.57554091453E+01 -0.37846849163E+03  0.37902127562E+03  0.00000000000E+00 0.  1.
         -2    1    1    2    0  502 -0.19636788886E+02 -0.57554091453E+01 -0.11570375405E+03  0.11749930602E+03  0.00000000000E+00 0. -1.
<mgrwt>
<rscale>  2 0.20462850E+02</rscale>
<asrwt>0</asrwt>
<pdfrwt beam="1">  1       21 0.18064149E-03 0.20462850E+02</pdfrwt>
<pdfrwt beam="2">  1       21 0.76207031E-01 0.20462850E+02</pdfrwt>
<totfact> 0.59143336E+07</totfact>
</mgrwt>
</event>
<event>
 4    1  0.2677450E+004  0.2492279E+02  0.7546771E-02  0.1662113E+00
         21   -1    0    0  503  502  0.00000000000E+00  0.00000000000E+00  0.49992479281E+02  0.49992479281E+02  0.00000000000E+00 0. -1.
         21   -1    0    0  501  503 -0.00000000000E+00 -0.00000000000E+00 -0.16635539135E+02  0.16635539135E+02  0.00000000000E+00 0.  1.
          2    1    1    2  501    0 -0.78055759226E+01  0.23668932287E+02 -0.82102562599E-01  0.24922923423E+02  0.00000000000E+00 0.  1.
         -2    1    1    2    0  502  0.78055759226E+01 -0.23668932287E+02  0.33439042709E+02  0.41705094993E+02  0.00000000000E+00 0. -1.
<mgrwt>
<rscale>  2 0.24922788E+02</rscale>
<asrwt>0</asrwt>
<pdfrwt beam="1">  1       21 0.76911506E-02 0.24922788E+02</pdfrwt>
<pdfrwt beam="2">  1       21 0.25593137E-02 0.24922788E+02</pdfrwt>
<totfact> 0.74949562E+07</totfact>
</mgrwt>
</event>
<event>
 4    1  0.2677450E+004  0.3167684E+02  0.7546771E-02  0.1580260E+00
         21   -1    0    0  503  502  0.00000000000E+00  0.00000000000E+00  0.51697443270E+01  0.51697443270E+01  0.00000000000E+00 0.  1.
         21   -1    0    0  501  503 -0.00000000000E+00 -0.00000000000E+00 -0.31993503033E+03  0.31993503033E+03  0.00000000000E+00 0. -1.
          2    1    1    2  501    0  0.19647549839E+02 -0.24847449231E+02 -0.25932900231E+03  0.26125648966E+03  0.00000000000E+00 0. -1.
         -2    1    1    2    0  502 -0.19647549839E+02  0.24847449231E+02 -0.55436283693E+02  0.63848285001E+02  0.00000000000E+00 0.  1.
<mgrwt>
<rscale>  2 0.31676836E+02</rscale>
<asrwt>0</asrwt>
<pdfrwt beam="1">  1       21 0.79534501E-03 0.31676836E+02</pdfrwt>
<pdfrwt beam="2">  1       21 0.49220791E-01 0.31676836E+02</pdfrwt>
<totfact> 0.17643398E+07</totfact>
</mgrwt>
</event>
<event>
 4    1  0.2677450E+004  0.3185564E+02  0.7546771E-02  0.1578439E+00
         21   -1    0    0  501  502  0.00000000000E+00  0.00000000000E+00  0.11301007686E+01  0.11301007686E+01  0.00000000000E+00 0. -1.
         21   -1    0    0  502  503 -0.00000000000E+00 -0.00000000000E+00 -0.10038597444E+04  0.10038597444E+04  0.00000000000E+00 0.  1.
          2    1    1    2  501    0 -0.15779993667E+02  0.27672610765E+02 -0.33815385904E+03  0.33965101792E+03  0.00000000000E+00 0. -1.
         -2    1    1    2    0  503  0.15779993667E+02 -0.27672610765E+02 -0.66457578460E+03  0.66533882727E+03  0.00000000000E+00 0.  1.
<mgrwt>
<rscale>  2 0.31855637E+02</rscale>
<asrwt>0</asrwt>
<pdfrwt beam="1">  1       21 0.17386180E-03 0.31855637E+02</pdfrwt>
<pdfrwt beam="2">  1       21 0.15443983E+00 0.31855637E+02</pdfrwt>
<totfact> 0.13963305E+07</totfact>
</mgrwt>
</event>
<event>
 4    1  0.2677450E+004  0.8278613E+02  0.7546771E-02  0.1321326E+00
         21   -1    0    0  503  502  0.00000000000E+00  0.00000000000E+00  0.37578186978E+03  0.37578186978E+03  0.00000000000E+00 0. -1.
         21   -1    0    0  501  503 -0.00000000000E+00 -0.00000000000E+00 -0.18812914886E+02  0.18812914886E+02  0.00000000000E+00 0.  1.
          2    1    1    2  501    0 -0.61416515776E+02 -0.55511761477E+02  0.14399706847E+03  0.16609846418E+03  0.00000000000E+00 0.  1.
         -2    1    1    2    0  502  0.61416515776E+02  0.55511761477E+02  0.21297188642E+03  0.22849632049E+03  0.00000000000E+00 0. -1.
<mgrwt>
<rscale>  2 0.82786135E+02</rscale>
<asrwt>0</asrwt>
<pdfrwt beam="1">  1       21 0.57812590E-01 0.82786135E+02</pdfrwt>
<pdfrwt beam="2">  1       21 0.28942949E-02 0.82786135E+02</pdfrwt>
<totfact> 0.18553673E+06</totfact>
</mgrwt>
</event>
<event>
 4    1  0.2677450E+004  0.2135834E+02  0.7546771E-02  0.1719591E+00
         21   -1    0    0  503  502  0.00000000000E+00  0.00000000000E+00  0.14414880301E+02  0.14414880301E+02  0.00000000000E+00 0. -1.
         21   -1    0    0  501  503 -0.00000000000E+00 -0.00000000000E+00 -0.48750618447E+02  0.48750618447E+02  0.00000000000E+00 0.  1.
          2    1    1    2  501    0 -0.17345408531E+02  0.12462557450E+02 -0.35875205459E+02  0.41751753281E+02  0.00000000000E+00 0.  1.
         -2    1    1    2    0  502  0.17345408531E+02 -0.12462557450E+02  0.15394673137E+01  0.21413745467E+02  0.00000000000E+00 0. -1.
<mgrwt>
<rscale>  2 0.21358336E+02</rscale>
<asrwt>0</asrwt>
<pdfrwt beam="1">  1       21 0.22176739E-02 0.21358336E+02</pdfrwt>
<pdfrwt beam="2">  1       21 0.75000952E-02 0.21358336E+02</pdfrwt>
<totfact> 0.93324697E+07</totfact>
</mgrwt>
</event>
<event>
 4    1  0.2677450E+004  0.2358382E+02  0.7546771E-02  0.1682218E+00
         21   -1    0    0  501  502  0.00000000000E+00  0.00000000000E+00  0.11458675698E+03  0.11458675698E+03  0.00000000000E+00 0. -1.
         21   -1    0    0  502  503 -0.00000000000E+00 -0.00000000000E+00 -0.13427968725E+02  0.13427968725E+02  0.00000000000E+00 0.  1.
          2    1    1    2  501    0 -0.15431931189E+02  0.17834007958E+02  0.10172607321E+03  0.10442408874E+03  0.00000000000E+00 0. -1.
         -2    1    1    2    0  503  0.15431931189E+02 -0.17834007958E+02 -0.56728495006E+00  0.23590636962E+02  0.00000000000E+00 0.  1.
<mgrwt>
<rscale>  2 0.23583815E+02</rscale>
<asrwt>0</asrwt>
<pdfrwt beam="1">  1       21 0.17628731E-01 0.23583815E+02</pdfrwt>
<pdfrwt beam="2">  1       21 0.20658414E-02 0.23583815E+02</pdfrwt>
<totfact> 0.25626993E+07</totfact>
</mgrwt>
</event>
<event>
 4    1  0.2677450E+004  0.2224914E+02  0.7546771E-02  0.1703978E+00
         21   -1    0    0  503  502  0.00000000000E+00  0.00000000000E+00  0.27132231395E+03  0.27132231395E+03  0.00000000000E+00 0. -1.
         21   -1    0    0  501  503 -0.00000000000E+00 -0.00000000000E+00 -0.18262435375E+01  0.18262435375E+01  0.00000000000E+00 0.  1.
          2    1    1    2  501    0 -0.25563428490E+01  0.22101797908E+02  0.13051384671E+03  0.13239670895E+03  0.00000000000E+00 0. -1.
         -2    1    1    2    0  502  0.25563428490E+01 -0.22101797908E+02  0.13898222371E+03  0.14075184854E+03  0.00000000000E+00 0.  1.
<mgrwt>
<rscale>  2 0.22249143E+02</rscale>
<asrwt>0</asrwt>
<pdfrwt beam="1">  1       21 0.41741862E-01 0.22249143E+02</pdfrwt>
<pdfrwt beam="2">  1       21 0.28096076E-03 0.22249143E+02</pdfrwt>
<totfact> 0.10487820E+08</totfact>
</mgrwt>
</event>
<event>
 4    1  0.2677450E+004  0.2558443E+02  0.7546771E-02  0.1652747E+00
         21   -1    0    0  503  502  0.00000000000E+00  0.00000000000E+00  0.16555265821E+01  0.16555265821E+01  0.00000000000E+00 0.  1.
         21   -1    0    0  501  503 -0.00000000000E+00 -0.00000000000E+00 -0.52212088663E+03  0.52212088663E+03  0.00000000000E+00 0. -1.
          2    1    1    2  501    0 -0.43789279509E+01  0.25206906043E+02 -0.38926179572E+03  0.39010166461E+03  0.00000000000E+00 0. -1.
         -2    1    1    2    0  502  0.43789279509E+01 -0.25206906043E+02 -0.13120356433E+03  0.13367474861E+03  0.00000000000E+00 0.  1.
<mgrwt>
<rscale>  2 0.25584431E+02</rscale>
<asrwt>0</asrwt>
<pdfrwt beam="1">  1       21 0.25469669E-03 0.25584431E+02</pdfrwt>
<pdfrwt beam="2">  1       21 0.80326198E-01 0.25584431E+02</pdfrwt>
<totfact> 0.33879148E+07</totfact>
</mgrwt>
</event>
<event>
 4    1  0.2677450E+004  0.2044882E+02  0.7546771E-02  0.1736547E+00
         21   -1    0    0  501  502  0.00000000000E+00  0.00000000000E+00  0.10350315524E+04  0.10350315524E+04  0.00000000000E+00 0. -1.
         21   -1    0    0  502  503 -0.00000000000E+00 -0.00000000000E+00 -0.83247189256E+00  0.83247189256E+00  0.00000000000E+00 0.  1.
          2    1    1    2  501    0  0.15858557597E+02  0.12909700906E+02  0.88867618565E+03  0.88891142256E+03  0.00000000000E+00 0.  1.
         -2    1    1    2    0  503 -0.15858557597E+02 -0.12909700906E+02  0.14552289484E+03  0.14695260171E+03  0.00000000000E+00 0. -1.
<mgrwt>
<rscale>  2 0.20448820E+02</rscale>
<asrwt>0</asrwt>
<pdfrwt beam="1">  1       21 0.15923459E+00 0.20448820E+02</pdfrwt>
<pdfrwt beam="2">  1       21 0.12807343E-03 0.20448820E+02</pdfrwt>
<totfact> 0.18861516E+07</totfact>
</mgrwt>
</event>
<event>
 4    1  0.2677450E+004  0.2240741E+02  0.7546771E-02  0.1701300E+00
         21   -1    0    0  501  502  0.00000000000E+00  0.00000000000E+00  0.25317587620E+02  0.25317587620E+02  0.00000000000E+00 0. -1.
         21   -1    0    0  502  503 -0.00000000000E+00 -0.00000000000E+00 -0.24803709329E+02  0.24803709329E+02  0.00000000000E+00 0.  1.
          2    1    1    2  501    0 -0.21432272708E+02  0.65383208131E+01  0.11477071283E+02  0.25175685049E+02  0.00000000000E+00 0. -1.
         -2    1    1    2    0  503  0.21432272708E+02 -0.65383208131E+01 -0.10963192992E+02  0.24945611900E+02  0.00000000000E+00 0.  1.
<mgrwt>
<rscale>  2 0.22407408E+02</rscale>
<asrwt>0</asrwt>
<pdfrwt beam="1">  1       21 0.38950135E-02 0.22407408E+02</pdfrwt>
<pdfrwt beam="2">  1       21 0.38159553E-02 0.22407408E+02</pdfrwt>
<totfact> 0.11589981E+08</totfact>
</mgrwt>
</event>
<event>
 4    1  0.2677450E+004  0.2131975E+02  0.7546771E-02  0.1720289E+00
         21   -1    0    0  503  502  0.00000000000E+00  0.00000000000E+00  0.11374995411E+02  0.11374995411E+02  0.00000000000E+00 0. -1.
         21   -1    0    0  501  503 -0.00000000000E+00 -0.00000000000E+00 -0.36868079945E+03  0.36868079945E+03  0.00000000000E+00 0.  1.
          2    1    1    2  501    0  0.20721563876E+02  0.50148316834E+01 -0.35808761077E+03  0.35872171489E+03  0.00000000000E+00 0.  1.
         -2    1    1    2    0  502 -0.20721563876E+02 -0.50148316834E+01  0.78180673501E+00  0.21334079967E+02  0.00000000000E+00 0. -1.
<mgrwt>
<rscale>  2 0.21319750E+02</rscale>
<asrwt>0</asrwt>
<pdfrwt beam="1">  1       21 0.17499995E-02 0.21319750E+02</pdfrwt>
<pdfrwt beam="2">  1       21 0.56720117E-01 0.21319750E+02</pdfrwt>
<totfact> 0.37944973E+06</totfact>
</mgrwt>
</event>
<event>
 4    1  0.2677450E+004  0.2061097E+02  0.7546771E-02  0.1733444E+00
         21   -1    0    0  501  502  0.00000000000E+00  0.00000000000E+00  0.16696268590E+03  0.16696268590E+03  0.00000000000E+00 0. -1.
         21   -1    0    0  502  503 -0.00000000000E+00 -0.00000000000E+00 -0.94677317701E+01  0.94677317701E+01  0.00000000000E+00 0.  1.
          2    1    1    2  501    0  0.77820787241E+01  0.19085367140E+02  0.15418363205E+03  0.15555514900E+03  0.00000000000E+00 0. -1.
         -2    1    1    2    0  503 -0.77820787241E+01 -0.19085367140E+02  0.33113220791E+01  0.20875268670E+02  0.00000000000E+00 0.  1.
<mgrwt>
<rscale>  2 0.20610968E+02</rscale>
<asrwt>0</asrwt>
<pdfrwt beam="1">  1       21 0.25686565E-01 0.20610968E+02</pdfrwt>
<pdfrwt beam="2">  1       21 0.14565742E-02 0.20610968E+02</pdfrwt>
<totfact> 0.21897970E+07</totfact>
</mgrwt>
</event>
<event>
 4    1  0.2677450E+004  0.2225594E+02  0.7546771E-02  0.1703863E+00
         21   -1    0    0  503  502  0.00000000000E+00  0.00000000000E+00  0.26887550722E+01  0.26887550722E+01  0.00000000000E+00 0. -1.
         21   -1    0    0  501  503 -0.00000000000E+00 -0.00000000000E+00 -0.31425498966E+03  0.31425498966E+03  0.00000000000E+00 0.  1.
          2    1    1    2  501    0 -0.15419282355E+02 -0.16049063618E+02 -0.25772169531E+03  0.25868088245E+03  0.00000000000E+00 0.  1.
         -2    1    1    2    0  502  0.15419282355E+02  0.16049063618E+02 -0.53844539278E+02  0.58262862283E+02  0.00000000000E+00 0. -1.
<mgrwt>
<rscale>  2 0.22255937E+02</rscale>
<asrwt>0</asrwt>
<pdfrwt beam="1">  1       21 0.41365483E-03 0.22255937E+02</pdfrwt>
<pdfrwt beam="2">  1       21 0.48346898E-01 0.22255937E+02</pdfrwt>
<totfact> 0.45031938E+07</totfact>
</mgrwt>
</event>
<event>
 4    1  0.2677450E+004  0.2198573E+02  0.7546771E-02  0.1708499E+00
         21   -1    0    0  501  502  0.00000000000E+00  0.00000000000E+00  0.16108789886E+01  0.16108789886E+01  0.00000000000E+00 0.  1.
         21   -1    0    0  502  503 -0.00000000000E+00 -0.00000000000E+00 -0.15150898890E+04  0.15150898890E+04  0.00000000000E+00 0. -1.
          2    1    1    2  501    0 -0.13368908048E+02 -0.17454072069E+02 -0.77625225830E+02  0.80678671403E+02  0.00000000000E+00 0.  1.
         -2    1    1    2    0  503  0.13368908048E+02  0.17454072069E+02 -0.14358537842E+04  0.14360220966E+04  0.00000000000E+00 0. -1.
<mgrwt>
<rscale>  2 0.21985730E+02</rscale>
<asrwt>0</asrwt>
<pdfrwt beam="1">  1       21 0.24782772E-03 0.21985730E+02</pdfrwt>
<pdfrwt beam="2">  1       21 0.23309058E+00 0.21985730E+02</pdfrwt>
<totfact> 0.28043856E+06</totfact>
</mgrwt>
</event>
<event>
 4    1  0.2677450E+004  0.2590629E+02  0.7546771E-02  0.1648316E+00
         21   -1    0    0  503  502  0.00000000000E+00  0.00000000000E+00  0.87875663884E+01  0.87875663884E+01  0.00000000000E+00 0.  1.
         21   -1    0    0  501  503 -0.00000000000E+00 -0.00000000000E+00 -0.86128522618E+02  0.86128522618E+02  0.00000000000E+00 0. -1.
          2    1    1    2  501    0  0.25072350191E+01  0.25784675352E+02 -0.54642292628E+02  0.60472438797E+02  0.00000000000E+00 0. -1.
         -2    1    1    2    0  502 -0.25072350191E+01 -0.25784675352E+02 -0.22698663602E+02  0.34443650209E+02  0.00000000000E+00 0.  1.
<mgrwt>
<rscale>  2 0.25906287E+02</rscale>
<asrwt>0</asrwt>
<pdfrwt beam="1">  1       21 0.13519333E-02 0.25906287E+02</pdfrwt>
<pdfrwt beam="2">  1       21 0.13250542E-01 0.25906287E+02</pdfrwt>
<totfact> 0.81680585E+07</totfact>
</mgrwt>
</event>
<event>
 4    1  0.2677450E+004  0.2449949E+02  0.7546771E-02  0.1668297E+00
         21   -1    0    0  503  502  0.00000000000E+00  0.00000000000E+00  0.12536983085E+03  0.12536983085E+03  0.00000000000E+00 0. -1.
         21   -1    0    0  501  503 -0.00000000000E+00 -0.00000000000E+00 -0.49394619116E+01  0.49394619116E+01  0.00000000000E+00 0.  1.
          2    1    1    2  501    0  0.12688266945E+02  0.20957888275E+02  0.48792253102E+02  0.54597702898E+02  0.00000000000E+00 0.  1.
         -2    1    1    2    0  502 -0.12688266945E+02 -0.20957888275E+02  0.71638115837E+02  0.75711589864E+02  0.00000000000E+00 0. -1.
<mgrwt>
<rscale>  2 0.24499494E+02</rscale>
<asrwt>0</asrwt>
<pdfrwt beam="1">  1       21 0.19287664E-01 0.24499494E+02</pdfrwt>
<pdfrwt beam="2">  1       21 0.75991731E-03 0.24499494E+02</pdfrwt>
<totfact> 0.10067171E+08</totfact>
</mgrwt>
</event>
<event>
 4    1  0.2677450E+004  0.2242866E+02  0.7546771E-02  0.1700942E+00
         21   -1    0    0  501  502  0.00000000000E+00  0.00000000000E+00  0.18428821192E+02  0.18428821192E+02  0.00000000000E+00 0.  1.
         21   -1    0    0  502  503 -0.00000000000E+00 -0.00000000000E+00 -0.32134471662E+02  0.32134471662E+02  0.00000000000E+00 0. -1.
          2    1    1    2  501    0  0.18341771981E+02 -0.12908304470E+02  0.29566343954E+01  0.22622701223E+02  0.00000000000E+00 0.  1.
         -2    1    1    2    0  503 -0.18341771981E+02  0.12908304470E+02 -0.16662284866E+02  0.27940591630E+02  0.00000000000E+00 0. -1.
<mgrwt>
<rscale>  2 0.22428663E+02</rscale>
<asrwt>0</asrwt>
<pdfrwt beam="1">  1       21 0.28352033E-02 0.22428663E+02</pdfrwt>
<pdfrwt beam="2">  1       21 0.49437648E-02 0.22428663E+02</pdfrwt>
<totfact> 0.12646751E+08</totfact>
</mgrwt>
</event>
<event>
 4    1  0.2677450E+004  0.2757896E+02  0.7546771E-02  0.1626503E+00
         21   -1    0    0  503  502  0.00000000000E+00  0.00000000000E+00  0.90092677559E+02  0.90092677559E+02  0.00000000000E+00 0. -1.
         21   -1    0    0  501  503 -0.00000000000E+00 -0.00000000000E+00 -0.91170126118E+01  0.91170126118E+01  0.00000000000E+00 0.  1.
          2    1    1    2  501    0 -0.23065231905E+02 -0.15119335625E+02  0.26994409060E+02  0.38591415536E+02  0.00000000000E+00 0.  1.
         -2    1    1    2    0  502  0.23065231905E+02  0.15119335625E+02  0.53981255887E+02  0.60618274635E+02  0.00000000000E+00 0. -1.
<mgrwt>
<rscale>  2 0.27578964E+02</rscale>
<asrwt>0</asrwt>
<pdfrwt beam="1">  1       21 0.13860411E-01 0.27578964E+02</pdfrwt>
<pdfrwt beam="2">  1       21 0.14026174E-02 0.27578964E+02</pdfrwt>
<totfact> 0.72656560E+07</totfact>
</mgrwt>
</event>
<event>
 4    1  0.2677450E+004  0.3439744E+02  0.7546771E-02  0.1554017E+00
         21   -1    0    0  501  502  0.00000000000E+00  0.00000000000E+00  0.94683713297E+02  0.94683713297E+02  0.00000000000E+00 0. -1.
         21   -1    0    0  502  503 -0.00000000000E+00 -0.00000000000E+00 -0.32017984276E+02  0.32017984276E+02  0.00000000000E+00 0.  1.
          2    1    1    2  501    0  0.20470440478E+02  0.27643171550E+02  0.80799858779E+02  0.87816860827E+02  0.00000000000E+00 0. -1.
         -2    1    1    2    0  503 -0.20470440478E+02 -0.27643171550E+02 -0.18134129758E+02  0.38884836746E+02  0.00000000000E+00 0.  1.
<mgrwt>
<rscale>  2 0.34397440E+02</rscale>
<asrwt>0</asrwt>
<pdfrwt beam="1">  1       21 0.14566725E-01 0.34397440E+02</pdfrwt>
<pdfrwt beam="2">  1       21 0.49258438E-02 0.34397440E+02</pdfrwt>
<totfact> 0.97239241E+06</totfact>
</mgrwt>
</event>
<event>
 4    1  0.2677450E+004  0.2095099E+02  0.7546771E-02  0.1727052E+00
         21   -1    0    0  503  502  0.00000000000E+00  0.00000000000E+00  0.66510701998E+02  0.66510701998E+02  0.00000000000E+00 0.  1.
         21   -1    0    0  501  503 -0.00000000000E+00 -0.00000000000E+00 -0.75204159927E+01  0.75204159927E+01  0.00000000000E+00 0. -1.
          2    1    1    2  501    0 -0.17401806289E+02  0.11667095655E+02  0.16542751316E+02  0.26694692436E+02  0.00000000000E+00 0. -1.
         -2    1    1    2    0  502  0.17401806289E+02 -0.11667095655E+02  0.42447534689E+02  0.47336425555E+02  0.00000000000E+00 0.  1.
<mgrwt>
<rscale>  2 0.20950990E+02</rscale>
<asrwt>0</asrwt>
<pdfrwt beam="1">  1       21 0.10232415E-01 0.20950990E+02</pdfrwt>
<pdfrwt beam="2">  1       21 0.11569871E-02 0.20950990E+02</pdfrwt>
<totfact> 0.14999765E+08</totfact>
</mgrwt>
</event>
<event>
 4    1  0.2677450E+004  0.2173803E+02  0.7546771E-02  0.1712822E+00
         21   -1    0    0  501  502  0.00000000000E+00  0.00000000000E+00  0.78153347229E+01  0.78153347229E+01  0.00000000000E+00 0.  1.
         21   -1    0    0  502  503 -0.00000000000E+00 -0.00000000000E+00 -0.62569585109E+02  0.62569585109E+02  0.00000000000E+00 0. -1.
          2    1    1    2  501    0 -0.12139230755E+02  0.18032782071E+02 -0.33833822265E+02  0.40215291638E+02  0.00000000000E+00 0. -1.
         -2    1    1    2    0  503  0.12139230755E+02 -0.18032782071E+02 -0.20920428122E+02  0.30169628193E+02  0.00000000000E+00 0.  1.
<mgrwt>
<rscale>  2 0.21738035E+02</rscale>
<asrwt>0</asrwt>
<pdfrwt beam="1">  1       21 0.12023592E-02 0.21738035E+02</pdfrwt>
<pdfrwt beam="2">  1       21 0.96260896E-02 0.21738035E+02</pdfrwt>
<totfact> 0.15832909E+08</totfact>
</mgrwt>
</event>
<event>
 4    1  0.2677450E+004  0.2008925E+02  0.7546771E-02  0.1743559E+00
         21   -1    0    0  503  502  0.00000000000E+00  0.00000000000E+00  0.16136984654E+02  0.16136984654E+02  0.00000000000E+00 0.  1.
         21   -1    0    0  501  503 -0.00000000000E+00 -0.00000000000E+00 -0.30592525998E+02  0.30592525998E+02  0.00000000000E+00 0. -1.
          2    1    1    2  501    0  0.15531675579E+01  0.20029118240E+02 -0.17209100794E+02  0.26452430079E+02  0.00000000000E+00 0. -1.
         -2    1    1    2    0  502 -0.15531675579E+01 -0.20029118240E+02  0.27535594497E+01  0.20277080573E+02  0.00000000000E+00 0.  1.
<mgrwt>
<rscale>  2 0.20089249E+02</rscale>
<asrwt>0</asrwt>
<pdfrwt beam="1">  1       21 0.24826130E-02 0.20089249E+02</pdfrwt>
<pdfrwt beam="2">  1       21 0.47065424E-02 0.20089249E+02</pdfrwt>
<totfact> 0.16223767E+08</totfact>
</mgrwt>
</event>
<event>
 4    1  0.2677450E+004  0.2147414E+02  0.7546771E-02  0.1717508E+00
         21   -1    0    0  503  502  0.00000000000E+00  0.00000000000E+00  0.20294334982E+02  0.20294334982E+02  0.00000000000E+00 0. -1.
         21   -1    0    0  501  503 -0.00000000000E+00 -0.00000000000E+00 -0.24374899836E+02  0.24374899836E+02  0.00000000000E+00 0.  1.
          2    1    1    2  501    0  0.12052819844E+02 -0.17772685646E+02 -0.78554137025E+01  0.22865833589E+02  0.00000000000E+00 0.  1.
         -2    1    1    2    0  502 -0.12052819844E+02  0.17772685646E+02  0.37748488484E+01  0.21803401228E+02  0.00000000000E+00 0. -1.
<mgrwt>
<rscale>  2 0.21474143E+02</rscale>
<asrwt>0</asrwt>
<pdfrwt beam="1">  1       21 0.31222054E-02 0.21474143E+02</pdfrwt>
<pdfrwt beam="2">  1       21 0.37499846E-02 0.21474143E+02</pdfrwt>
<totfact> 0.16616668E+08</totfact>
</mgrwt>
</event>
<event>
 4    1  0.2677450E+004  0.3257013E+02  0.7546771E-02  0.1571301E+00
         21   -1    0    0  503  502  0.00000000000E+00  0.00000000000E+00  0.31576622316E+03  0.31576622316E+03  0.00000000000E+00 0.  1.
         21   -1    0    0  501  503 -0.00000000000E+00 -0.00000000000E+00 -0.34537746480E+01  0.34537746480E+01  0.00000000000E+00 0. -1.
          2    1    1    2  501    0 -0.49409385758E+01 -0.32193178835E+02  0.18252757404E+03  0.18541070337E+03  0.00000000000E+00 0.  1.
         -2    1    1    2    0  502  0.49409385758E+01  0.32193178835E+02  0.12978487447E+03  0.13380929444E+03  0.00000000000E+00 0. -1.
<mgrwt>
<rscale>  2 0.32570134E+02</rscale>
<asrwt>0</asrwt>
<pdfrwt beam="1">  1       21 0.48579396E-01 0.32570134E+02</pdfrwt>
<pdfrwt beam="2">  1       21 0.53135020E-03 0.32570134E+02</pdfrwt>
<totfact> 0.33326563E+07</totfact>
</mgrwt>
</event>
<event>
 4    1  0.2677450E+004  0.2462778E+02  0.7546771E-02  0.1666406E+00
         21   -1    0    0  503  502  0.00000000000E+00  0.00000000000E+00  0.14263733191E+02  0.14263733191E+02  0.00000000000E+00 0. -1.
         21   -1    0    0  501  503 -0.00000000000E+00 -0.00000000000E+00 -0.49889290497E+02  0.49889290497E+02  0.00000000000E+00 0.  1.
          2    1    1    2  501    0  0.21528813857E+02  0.11959844078E+02 -0.30138903242E+02  0.38921474601E+02  0.00000000000E+00 0.  1.
         -2    1    1    2    0  502 -0.21528813857E+02 -0.11959844078E+02 -0.54866540638E+01  0.25231549086E+02  0.00000000000E+00 0. -1.
<mgrwt>
<rscale>  2 0.24627783E+02</rscale>
<asrwt>0</asrwt>
<pdfrwt beam="1">  1       21 0.21944204E-02 0.24627783E+02</pdfrwt>
<pdfrwt beam="2">  1       21 0.76752757E-02 0.24627783E+02</pdfrwt>
<totfact> 0.95125385E+07</totfact>
</mgrwt>
</event>
<event>
 4    1  0.2677450E+004  0.2264229E+02  0.7546771E-02  0.1697375E+00
         21   -1    0    0  501  502  0.00000000000E+00  0.00000000000E+00  0.26248535803E+03  0.26248535803E+03  0.00000000000E+00 0.  1.
         21   -1    0    0  502  503 -0.00000000000E+00 -0.00000000000E+00 -0.40985123454E+01  0.40985123454E+01  0.00000000000E+00 0. -1.
          2    1    1    2  501    0 -0.11820722656E+02  0.19311747567E+02  0.22562985912E+03  0.22676310636E+03  0.00000000000E+00 0.  1.
         -2    1    1    2    0  503  0.11820722656E+02 -0.19311747567E+02  0.32756986564E+02  0.39820764018E+02  0.00000000000E+00 0. -1.
<mgrwt>
<rscale>  2 0.22642285E+02</rscale>
<asrwt>0</asrwt>
<pdfrwt beam="1">  1       21 0.40382350E-01 0.22642285E+02</pdfrwt>
<pdfrwt beam="2">  1       21 0.63054056E-03 0.22642285E+02</pdfrwt>
<totfact> 0.34236298E+07</totfact>
</mgrwt>
</event>
<event>
 4    1  0.2677450E+004  0.2955315E+02  0.7546771E-02  0.1603081E+00
         21   -1    0    0  501  502  0.00000000000E+00  0.00000000000E+00  0.34705898032E+03  0.34705898032E+03  0.00000000000E+00 0.  1.
         21   -1    0    0  502  503 -0.00000000000E+00 -0.00000000000E+00 -0.33386718925E+01  0.33386718925E+01  0.00000000000E+00 0. -1.
          2    1    1    2  501    0  0.27911472716E+02  0.97128059693E+01  0.25879907208E+03  0.26048099474E+03  0.00000000000E+00 0.  1.
         -2    1    1    2    0  503 -0.27911472716E+02 -0.97128059693E+01  0.84921236339E+02  0.89916657469E+02  0.00000000000E+00 0. -1.
<mgrwt>
<rscale>  2 0.29553154E+02</rscale>
<asrwt>0</asrwt>
<pdfrwt beam="1">  1       21 0.53393661E-01 0.29553154E+02</pdfrwt>
<pdfrwt beam="2">  1       21 0.51364210E-03 0.29553154E+02</pdfrwt>
<totfact> 0.28583688E+07</totfact>
</mgrwt>
</event>
<event>
 4    1  0.2677450E+004  0.5602570E+02  0.7546771E-02  0.1415310E+00
         21   -1    0    0  501  502  0.00000000000E+00  0.00000000000E+00  0.81102796927E+01  0.81102796927E+01  0.00000000000E+00 0. -1.
         21   -1    0    0  502  503 -0.00000000000E+00 -0.00000000000E+00 -0.61965048261E+03  0.61965048261E+03  0.00000000000E+00 0.  1.
          2    1    1    2  501    0  0.18338726454E+02  0.52939306917E+02 -0.11345223310E+03  0.12653176795E+03  0.00000000000E+00 0. -1.
         -2    1    1    2    0  503 -0.18338726454E+02 -0.52939306917E+02 -0.49808796981E+03  0.50122899435E+03  0.00000000000E+00 0.  1.
<mgrwt>
<rscale>  2 0.56025700E+02</rscale>
<asrwt>0</asrwt>
<pdfrwt beam="1">  1       21 0.12477349E-02 0.56025700E+02</pdfrwt>
<pdfrwt beam="2">  1       21 0.95330877E-01 0.56025700E+02</pdfrwt>
<totfact> 0.23498565E+06</totfact>
</mgrwt>
</event>
<event>
 4    1  0.2677450E+004  0.2295590E+02  0.7546771E-02  0.1692226E+00
         21   -1    0    0  503  502  0.00000000000E+00  0.00000000000E+00  0.12966643077E+03  0.12966643077E+03  0.00000000000E+00 0.  1.
         21   -1    0    0  501  503 -0.00000000000E+00 -0.00000000000E+00 -0.52781585737E+01  0.52781585737E+01  0.00000000000E+00 0. -1.
          2    1    1    2  501    0  0.17106831184E+02 -0.15307833123E+02  0.29834063936E+02  0.37643655495E+02  0.00000000000E+00 0. -1.
         -2    1    1    2    0  502 -0.17106831184E+02  0.15307833123E+02  0.94554208262E+02  0.97300933850E+02  0.00000000000E+00 0.  1.
<mgrwt>
<rscale>  2 0.22955902E+02</rscale>
<asrwt>0</asrwt>
<pdfrwt beam="1">  1       21 0.19948679E-01 0.22955902E+02</pdfrwt>
<pdfrwt beam="2">  1       21 0.81202450E-03 0.22955902E+02</pdfrwt>
<totfact> 0.84469318E+07</totfact>
</mgrwt>
</event>
<event>
 4    1  0.2677450E+004  0.2664576E+02  0.7546771E-02  0.1638430E+00
         21   -1    0    0  501  502  0.00000000000E+00  0.00000000000E+00  0.24464841697E+03  0.24464841697E+03  0.00000000000E+00 0.  1.
         21   -1    0    0  502  503 -0.00000000000E+00 -0.00000000000E+00 -0.48966210250E+01  0.48966210250E+01  0.00000000000E+00 0. -1.
          2    1    1    2  501    0  0.20735465720E+02 -0.16734305252E+02  0.19950814389E+03  0.20127964623E+03  0.00000000000E+00 0. -1.
         -2    1    1    2    0  503 -0.20735465720E+02  0.16734305252E+02  0.40243652061E+02  0.48265391764E+02  0.00000000000E+00 0.  1.
<mgrwt>
<rscale>  2 0.26645760E+02</rscale>
<asrwt>0</asrwt>
<pdfrwt beam="1">  1       21 0.37638208E-01 0.26645760E+02</pdfrwt>
<pdfrwt beam="2">  1       21 0.75332650E-03 0.26645760E+02</pdfrwt>
<totfact> 0.31056733E+07</totfact>
</mgrwt>
</event>
<event>
 4    1  0.2677450E+004  0.3935462E+02  0.7546771E-02  0.1513015E+00
         21   -1    0    0  503  502  0.00000000000E+00  0.00000000000E+00  0.30421887270E+02  0.30421887270E+02  0.00000000000E+00 0.  1.
         21   -1    0    0  501  503 -0.00000000000E+00 -0.00000000000E+00 -0.63097425865E+02  0.63097425865E+02  0.00000000000E+00 0. -1.
          2    1    1    2  501    0  0.32079061708E+02  0.22797374670E+02 -0.36887998789E+02  0.53939882709E+02  0.00000000000E+00 0. -1.
         -2    1    1    2    0  502 -0.32079061708E+02 -0.22797374670E+02  0.42124601946E+01  0.39579430426E+02  0.00000000000E+00 0.  1.
<mgrwt>
<rscale>  2 0.39354625E+02</rscale>
<asrwt>0</asrwt>
<pdfrwt beam="1">  1       21 0.46802904E-02 0.39354625E+02</pdfrwt>
<pdfrwt beam="2">  1       21 0.97072962E-02 0.39354625E+02</pdfrwt>
<totfact> 0.21543689E+07</totfact>
</mgrwt>
</event>
<event>
 4    1  0.2677450E+004  0.2315354E+02  0.7546771E-02  0.1689033E+00
         21   -1    0    0  503  502  0.00000000000E+00  0.00000000000E+00  0.78359817002E+01  0.78359817002E+01  0.00000000000E+00 0. -1.
         21   -1    0    0  501  503 -0.00000000000E+00 -0.00000000000E+00 -0.70724230236E+02  0.70724230236E+02  0.00000000000E+00 0.  1.
          2    1    1    2  501    0  0.30261947181E+01  0.22954921165E+02 -0.38544335043E+02  0.44963896896E+02  0.00000000000E+00 0.  1.
         -2    1    1    2    0  502 -0.30261947181E+01 -0.22954921165E+02 -0.24343913493E+02  0.33596315040E+02  0.00000000000E+00 0. -1.
<mgrwt>
<rscale>  2 0.23153537E+02</rscale>
<asrwt>0</asrwt>
<pdfrwt beam="1">  1       21 0.12055356E-02 0.23153537E+02</pdfrwt>
<pdfrwt beam="2">  1       21 0.10880651E-01 0.23153537E+02</pdfrwt>
<totfact> 0.13121608E+08</totfact>
</mgrwt>
</event>
<event>
 4    1  0.2677450E+004  0.6071194E+02  0.7546771E-02  0.1394868E+00
         21   -1    0    0  501  502  0.00000000000E+00  0.00000000000E+00  0.21362234452E+02  0.21362234452E+02  0.00000000000E+00 0. -1.
         21   -1    0    0  502  503 -0.00000000000E+00 -0.00000000000E+00 -0.27304501715E+03  0.27304501715E+03  0.00000000000E+00 0.  1.
          2    1    1    2  501    0  0.33041609632E+02  0.50933210482E+02 -0.36534465534E+02  0.70856947923E+02  0.00000000000E+00 0. -1.
         -2    1    1    2    0  503 -0.33041609632E+02 -0.50933210482E+02 -0.21514831717E+03  0.22355030368E+03  0.00000000000E+00 0.  1.
<mgrwt>
<rscale>  2 0.60711942E+02</rscale>
<asrwt>0</asrwt>
<pdfrwt beam="1">  1       21 0.32864980E-02 0.60711942E+02</pdfrwt>
<pdfrwt beam="2">  1       21 0.42006921E-01 0.60711942E+02</pdfrwt>
<totfact> 0.28398249E+06</totfact>
</mgrwt>
</event>
<event>
 4    1  0.2677450E+004  0.3294287E+02  0.7546771E-02  0.1567666E+00
         21   -1    0    0  501  502  0.00000000000E+00  0.00000000000E+00  0.61718946996E+01  0.61718946996E+01  0.00000000000E+00 0.  1.
         21   -1    0    0  502  503 -0.00000000000E+00 -0.00000000000E+00 -0.18365383345E+03  0.18365383345E+03  0.00000000000E+00 0. -1.
          2    1    1    2  501    0  0.16021578507E+02 -0.28784401083E+02 -0.69156727045E+02  0.76602125422E+02  0.00000000000E+00 0. -1.
         -2    1    1    2    0  503 -0.16021578507E+02  0.28784401083E+02 -0.10832521170E+03  0.11322360272E+03  0.00000000000E+00 0.  1.
<mgrwt>
<rscale>  2 0.32942871E+02</rscale>
<asrwt>0</asrwt>
<pdfrwt beam="1">  1       21 0.94952221E-03 0.32942871E+02</pdfrwt>
<pdfrwt beam="2">  1       21 0.28254437E-01 0.32942871E+02</pdfrwt>
<totfact> 0.38914560E+07</totfact>
</mgrwt>
</event>
<event>
 4    1  0.2677450E+004  0.2409552E+02  0.7546771E-02  0.1674344E+00
         21   -1    0    0  501  502  0.00000000000E+00  0.00000000000E+00  0.30259291365E+02  0.30259291365E+02  0.00000000000E+00 0. -1.
         21   -1    0    0  502  503 -0.00000000000E+00 -0.00000000000E+00 -0.73665272227E+03  0.73665272227E+03  0.00000000000E+00 0.  1.
          2    1    1    2  501    0 -0.23105959111E+02 -0.68343950062E+01  0.25232477884E+02  0.34889428796E+02  0.00000000000E+00 0. -1.
         -2    1    1    2    0  503  0.23105959111E+02  0.68343950062E+01 -0.73162590879E+03  0.73202258484E+03  0.00000000000E+00 0.  1.
<mgrwt>
<rscale>  2 0.24095525E+02</rscale>
<asrwt>0</asrwt>
<pdfrwt beam="1">  1       21 0.46552756E-02 0.24095525E+02</pdfrwt>
<pdfrwt beam="2">  1       21 0.11333119E+00 0.24095525E+02</pdfrwt>
<totfact> 0.19559518E+05</totfact>
</mgrwt>
</event>
<event>
 4    1  0.2677450E+004  0.2004292E+02  0.7546771E-02  0.1744476E+00
         21   -1    0    0  501  502  0.00000000000E+00  0.00000000000E+00  0.33543653161E+03  0.33543653161E+03  0.00000000000E+00 0.  1.
         21   -1    0    0  502  503 -0.00000000000E+00 -0.00000000000E+00 -0.27311718101E+01  0.27311718101E+01  0.00000000000E+00 0. -1.
          2    1    1    2  501    0  0.19989919887E+02  0.14565715558E+01  0.29305361020E+03  0.29373821159E+03  0.00000000000E+00 0.  1.
         -2    1    1    2    0  503 -0.19989919887E+02 -0.14565715558E+01  0.39651749596E+02  0.44429491825E+02  0.00000000000E+00 0. -1.
<mgrwt>
<rscale>  2 0.20042916E+02</rscale>
<asrwt>0</asrwt>
<pdfrwt beam="1">  1       21 0.51605588E-01 0.20042916E+02</pdfrwt>
<pdfrwt beam="2">  1       21 0.42018054E-03 0.20042916E+02</pdfrwt>
<totfact> 0.37836237E+07</totfact>
</mgrwt>
</event>
<event>
 4    1  0.2677450E+004  0.2315162E+02  0.7546771E-02  0.1689064E+00
         21   -1    0    0  501  502  0.00000000000E+00  0.00000000000E+00  0.83828600994E+02  0.83828600994E+02  0.00000000000E+00 0. -1.
         21   -1    0    0  502  503 -0.00000000000E+00 -0.00000000000E+00 -0.11467408670E+02  0.11467408670E+02  0.00000000000E+00 0.  1.
          2    1    1    2  501    0 -0.16414353700E+02 -0.16326866210E+02  0.67873590905E+02  0.71713470910E+02  0.00000000000E+00 0. -1.
         -2    1    1    2    0  503  0.16414353700E+02  0.16326866210E+02  0.44876014188E+01  0.23582538755E+02  0.00000000000E+00 0.  1.
<mgrwt>
<rscale>  2 0.23151621E+02</rscale>
<asrwt>0</asrwt>
<pdfrwt beam="1">  1       21 0.12896707E-01 0.23151621E+02</pdfrwt>
<pdfrwt beam="2">  1       21 0.17642168E-02 0.23151621E+02</pdfrwt>
<totfact> 0.55361933E+07</totfact>
</mgrwt>
</event>
<event>
 4    1  0.2677450E+004  0.2881909E+02  0.7546771E-02  0.1611521E+00
         21   -1    0    0  501  502  0.00000000000E+00  0.00000000000E+00  0.16387549389E+02  0.16387549389E+02  0.00000000000E+00 0. -1.
         21   -1    0    0  502  503 -0.00000000000E+00 -0.00000000000E+00 -0.63153412184E+02  0.63153412184E+02  0.00000000000E+00 0.  1.
          2    1    1    2  501    0 -0.24937819763E+02 -0.14444553833E+02 -0.57089295207E+01  0.29379105947E+02  0.00000000000E+00 0. -1.
         -2    1    1    2    0  503  0.24937819763E+02  0.14444553833E+02 -0.41056933274E+02  0.50161855626E+02  0.00000000000E+00 0.  1.
<mgrwt>
<rscale>  2 0.28819091E+02</rscale>
<asrwt>0</asrwt>
<pdfrwt beam="1">  1       21 0.25211615E-02 0.28819091E+02</pdfrwt>
<pdfrwt beam="2">  1       21 0.97159094E-02 0.28819091E+02</pdfrwt>
<totfact> 0.54068869E+07</totfact>
</mgrwt>
</event>
<event>
 4    1  0.2677450E+004  0.2301840E+02  0.7546771E-02  0.1691212E+00
         21   -1    0    0  503  502  0.00000000000E+00  0.00000000000E+00  0.16921134587E+02  0.16921134587E+02  0.00000000000E+00 0.  1.
         21   -1    0    0  501  503 -0.00000000000E+00 -0.00000000000E+00 -0.12078421746E+03  0.12078421746E+03  0.00000000000E+00 0. -1.
          2    1    1    2  501    0  0.11724250308E+01  0.22988526810E+02 -0.11119105117E+03  0.11354865391E+03  0.00000000000E+00 0. -1.
         -2    1    1    2    0  502 -0.11724250308E+01 -0.22988526810E+02  0.73279682966E+01  0.24156698134E+02  0.00000000000E+00 0.  1.
<mgrwt>
<rscale>  2 0.23018404E+02</rscale>
<asrwt>0</asrwt>
<pdfrwt beam="1">  1       21 0.26032515E-02 0.23018404E+02</pdfrwt>
<pdfrwt beam="2">  1       21 0.18582187E-01 0.23018404E+02</pdfrwt>
<totfact> 0.16287183E+07</totfact>
</mgrwt>
</event>
<event>
 4    1  0.2677450E+004  0.2641431E+02  0.7546771E-02  0.1641481E+00
         21   -1    0    0  503  502  0.00000000000E+00  0.00000000000E+00  0.13563824501E+02  0.13563824501E+02  0.00000000000E+00 0.  1.
         21   -1    0    0  501  503 -0.00000000000E+00 -0.00000000000E+00 -0.51848169598E+02  0.51848169598E+02  0.00000000000E+00 0. -1.
          2    1    1    2  501    0 -0.13601111208E+02 -0.22643445645E+02 -0.22045969076E+02  0.34405531667E+02  0.00000000000E+00 0.  1.
         -2    1    1    2    0  502  0.13601111208E+02  0.22643445645E+02 -0.16238376021E+02  0.31006462432E+02  0.00000000000E+00 0. -1.
<mgrwt>
<rscale>  2 0.26414312E+02</rscale>
<asrwt>0</asrwt>
<pdfrwt beam="1">  1       21 0.20867422E-02 0.26414312E+02</pdfrwt>
<pdfrwt beam="2">  1       21 0.79766414E-02 0.26414312E+02</pdfrwt>
<totfact> 0.98319971E+07</totfact>
</mgrwt>
</event>
<event>
 4    1  0.2677450E+004  0.2146503E+02  0.7546771E-02  0.1717672E+00
         21   -1    0    0  503  502  0.00000000000E+00  0.00000000000E+00  0.80533455456E+00  0.80533455456E+00  0.00000000000E+00 0. -1.
         21   -1    0    0  501  503 -0.00000000000E+00 -0.00000000000E+00 -0.11778470536E+04  0.11778470536E+04  0.00000000000E+00 0.  1.
          2    1    1    2  501    0  0.20240006065E+02 -0.71476931102E+01 -0.10111408799E+04  0.10113686896E+04  0.00000000000E+00 0.  1.
         -2    1    1    2    0  502 -0.20240006065E+02  0.71476931102E+01 -0.16590083914E+03  0.16728369852E+03  0.00000000000E+00 0. -1.
<mgrwt>
<rscale>  2 0.21465026E+02</rscale>
<asrwt>0</asrwt>
<pdfrwt beam="1">  1       21 0.12389762E-03 0.21465026E+02</pdfrwt>
<pdfrwt beam="2">  1       21 0.18120724E+00 0.21465026E+02</pdfrwt>
<totfact> 0.14555872E+07</totfact>
</mgrwt>
</event>
<event>
 4    1  0.2677450E+004  0.2373071E+02  0.7546771E-02  0.1679932E+00
         21   -1    0    0  501  502  0.00000000000E+00  0.00000000000E+00  0.38009711508E+01  0.38009711508E+01  0.00000000000E+00 0.  1.
         21   -1    0    0  502  503 -0.00000000000E+00 -0.00000000000E+00 -0.23007469835E+03  0.23007469835E+03  0.00000000000E+00 0. -1.
          2    1    1    2  501    0  0.20881140220E+02 -0.11274948988E+02 -0.43360987595E+02  0.49429968003E+02  0.00000000000E+00 0.  1.
         -2    1    1    2    0  503 -0.20881140220E+02  0.11274948988E+02 -0.18291273961E+03  0.18444570150E+03  0.00000000000E+00 0. -1.
<mgrwt>
<rscale>  2 0.23730708E+02</rscale>
<asrwt>0</asrwt>
<pdfrwt beam="1">  1       21 0.58476498E-03 0.23730708E+02</pdfrwt>
<pdfrwt beam="2">  1       21 0.35396096E-01 0.23730708E+02</pdfrwt>
<totfact> 0.49530917E+07</totfact>
</mgrwt>
</event>
<event>
 4    1  0.2677450E+004  0.2178381E+02  0.7546771E-02  0.1712018E+00
         21   -1    0    0  501  502  0.00000000000E+00  0.00000000000E+00  0.68016847498E+02  0.68016847498E+02  0.00000000000E+00 0. -1.
         21   -1    0    0  502  503 -0.00000000000E+00 -0.00000000000E+00 -0.15885491744E+02  0.15885491744E+02  0.00000000000E+00 0.  1.
          2    1    1    2  501    0  0.14636183427E+02  0.16134330890E+02  0.57481805941E+02  0.61471070536E+02  0.00000000000E+00 0. -1.
         -2    1    1    2    0  503 -0.14636183427E+02 -0.16134330890E+02 -0.53504501873E+01  0.22431268706E+02  0.00000000000E+00 0.  1.
<mgrwt>
<rscale>  2 0.21783813E+02</rscale>
<asrwt>0</asrwt>
<pdfrwt beam="1">  1       21 0.10464130E-01 0.21783813E+02</pdfrwt>
<pdfrwt beam="2">  1       21 0.24439218E-02 0.21783813E+02</pdfrwt>
<totfact> 0.46836558E+07</totfact>
</mgrwt>
</event>
<event>
 4    1  0.2677450E+004  0.2381884E+02  0.7546771E-02  0.1678571E+00
         21   -1    0    0  503  502  0.00000000000E+00  0.00000000000E+00  0.32791785104E+03  0.32791785104E+03  0.00000000000E+00 0.  1.
         21   -1    0    0  501  503 -0.00000000000E+00 -0.00000000000E+00 -0.17586007226E+01  0.17586007226E+01  0.00000000000E+00 0. -1.
          2    1    1    2  501    0 -0.22004394625E+02  0.91183145908E+01  0.18405714770E+03  0.18559194665E+03  0.00000000000E+00 0.  1.
         -2    1    1    2    0  502  0.22004394625E+02 -0.91183145908E+01  0.14210210263E+03  0.14408450512E+03  0.00000000000E+00 0. -1.
<mgrwt>
<rscale>  2 0.23818838E+02</rscale>
<asrwt>0</asrwt>
<pdfrwt beam="1">  1       21 0.50448851E-01 0.23818838E+02</pdfrwt>
<pdfrwt beam="2">  1       21 0.27055422E-03 0.23818838E+02</pdfrwt>
<totfact> 0.78369363E+07</totfact>
</mgrwt>
</event>
<event>
 4    1  0.2677450E+004  0.2034438E+02  0.7546771E-02  0.1738565E+00
         21   -1    0    0  501  502  0.00000000000E+00  0.00000000000E+00  0.17161713285E+02  0.17161713285E+02  0.00000000000E+00 0. -1.
         21   -1    0    0  502  503 -0.00000000000E+00 -0.00000000000E+00 -0.24125505669E+02  0.24125505669E+02  0.00000000000E+00 0.  1.
          2    1    1    2  501    0  0.20123525579E+02 -0.29895400847E+01 -0.38633661288E+01  0.20707950877E+02  0.00000000000E+00 0. -1.
         -2    1    1    2    0  503 -0.20123525579E+02  0.29895400847E+01 -0.31004262551E+01  0.20579268078E+02  0.00000000000E+00 0.  1.
<mgrwt>
<rscale>  2 0.20344376E+02</rscale>
<asrwt>0</asrwt>
<pdfrwt beam="1">  1       21 0.26402636E-02 0.20344376E+02</pdfrwt>
<pdfrwt beam="2">  1       21 0.37116162E-02 0.20344376E+02</pdfrwt>
<totfact> 0.21518141E+08</totfact>
</mgrwt>
</event>
<event>
 4    1  0.2677450E+004  0.2769778E+02  0.7546771E-02  0.1625026E+00
         21   -1    0    0  503  502  0.00000000000E+00  0.00000000000E+00  0.26924417045E+02  0.26924417045E+02  0.00000000000E+00 0. -1.
         21   -1    0    0  501  503 -0.00000000000E+00 -0.00000000000E+00 -0.35278528429E+02  0.35278528429E+02  0.00000000000E+00 0.  1.
          2    1    1    2  501    0  0.25554831068E+02 -0.10682596131E+02 -0.17816788719E+02  0.32933344975E+02  0.00000000000E+00 0. -1.
         -2    1    1    2    0  502 -0.25554831068E+02  0.10682596131E+02  0.94626773345E+01  0.29269600499E+02  0.00000000000E+00 0.  1.
<mgrwt>
<rscale>  2 0.27697784E+02</rscale>
<asrwt>0</asrwt>
<pdfrwt beam="1">  1       21 0.41422180E-02 0.27697784E+02</pdfrwt>
<pdfrwt beam="2">  1       21 0.54274659E-02 0.27697784E+02</pdfrwt>
<totfact> 0.63571296E+07</totfact>
</mgrwt>
</event>
<event>
 4    1  0.2677450E+004  0.2243863E+02  0.7546771E-02  0.1700775E+00
         21   -1    0    0  501  502  0.00000000000E+00  0.00000000000E+00  0.18427255848E+02  0.18427255848E+02  0.00000000000E+00 0.  1.
         21   -1    0    0  502  503 -0.00000000000E+00 -0.00000000000E+00 -0.38281235275E+02  0.38281235275E+02  0.00000000000E+00 0. -1.
          2    1    1    2  501    0  0.14603799591E+02 -0.17035873217E+02  0.52432032188E+01  0.23043070948E+02  0.00000000000E+00 0. -1.
         -2    1    1    2    0  503 -0.14603799591E+02  0.17035873217E+02 -0.25097182646E+02  0.33665420174E+02  0.00000000000E+00 0.  1.
<mgrwt>
<rscale>  2 0.22438626E+02</rscale>
<asrwt>0</asrwt>
<pdfrwt beam="1">  1       21 0.28349625E-02 0.22438626E+02</pdfrwt>
<pdfrwt beam="2">  1       21 0.58894208E-02 0.22438626E+02</pdfrwt>
<totfact> 0.95666451E+07</totfact>
</mgrwt>
</event>
<event>
 4    1  0.2677450E+004  0.3363556E+02  0.7546771E-02  0.1561062E+00
         21   -1    0    0  501  502  0.00000000000E+00  0.00000000000E+00  0.13509630872E+02  0.13509630872E+02  0.00000000000E+00 0. -1.
         21   -1    0    0  502  503 -0.00000000000E+00 -0.00000000000E+00 -0.28111244987E+03  0.28111244987E+03  0.00000000000E+00 0.  1.
          2    1    1    2  501    0  0.17111907098E+01  0.33592004249E+02 -0.10367612254E+02  0.35197134925E+02  0.00000000000E+00 0. -1.
         -2    1    1    2    0  503 -0.17111907098E+01 -0.33592004249E+02 -0.25723520675E+03  0.25942494582E+03  0.00000000000E+00 0.  1.
<mgrwt>
<rscale>  2 0.33635560E+02</rscale>
<asrwt>0</asrwt>
<pdfrwt beam="1">  1       21 0.20784046E-02 0.33635560E+02</pdfrwt>
<pdfrwt beam="2">  1       21 0.43248072E-01 0.33635560E+02</pdfrwt>
<totfact> 0.52587715E+06</totfact>
</mgrwt>
</event>
<event>
 4    1  0.2677450E+004  0.2269944E+02  0.7546771E-02  0.1696429E+00
         21   -1    0    0  503  502  0.00000000000E+00  0.00000000000E+00  0.16526572759E+02  0.16526572759E+02  0.00000000000E+00 0.  1.
         21   -1    0    0  501  503 -0.00000000000E+00 -0.00000000000E+00 -0.82234507893E+02  0.82234507893E+02  0.00000000000E+00 0. -1.
          2    1    1    2  501    0  0.16986009112E+02  0.15057888581E+02 -0.71763372805E+02  0.75267829718E+02  0.00000000000E+00 0. -1.
         -2    1    1    2    0  502 -0.16986009112E+02 -0.15057888581E+02  0.60554376704E+01  0.23493250935E+02  0.00000000000E+00 0.  1.
<mgrwt>
<rscale>  2 0.22699439E+02</rscale>
<asrwt>0</asrwt>
<pdfrwt beam="1">  1       21 0.25425496E-02 0.22699439E+02</pdfrwt>
<pdfrwt beam="2">  1       21 0.12651463E-01 0.22699439E+02</pdfrwt>
<totfact> 0.32440133E+07</totfact>
</mgrwt>
</event>
<event>
 4    1  0.2677450E+004  0.2385989E+02  0.7546771E-02  0.1677939E+00
         21   -1    0    0  501  502  0.00000000000E+00  0.00000000000E+00  0.57342532550E+02  0.57342532550E+02  0.00000000000E+00 0. -1.
         21   -1    0    0  502  503 -0.00000000000E+00 -0.00000000000E+00 -0.19247898451E+02  0.19247898451E+02  0.00000000000E+00 0.  1.
          2    1    1    2  501    0  0.17374462526E+02 -0.16353058849E+02  0.45694992783E+02  0.51549266214E+02  0.00000000000E+00 0. -1.
         -2    1    1    2    0  503 -0.17374462526E+02  0.16353058849E+02 -0.76003586845E+01  0.25041164787E+02  0.00000000000E+00 0.  1.
<mgrwt>
<rscale>  2 0.23859893E+02</rscale>
<asrwt>0</asrwt>
<pdfrwt beam="1">  1       21 0.88219280E-02 0.23859893E+02</pdfrwt>
<pdfrwt beam="2">  1       21 0.29612152E-02 0.23859893E+02</pdfrwt>
<totfact> 0.47184258E+07</totfact>
</mgrwt>
</event>
<event>
 4    1  0.2677450E+004  0.2038103E+02  0.7546771E-02  0.1737855E+00
         21   -1    0    0  501  502  0.00000000000E+00  0.00000000000E+00  0.11013556786E+03  0.11013556786E+03  0.00000000000E+00 0.  1.
         21   -1    0    0  502  503 -0.00000000000E+00 -0.00000000000E+00 -0.51665665771E+01  0.51665665771E+01  0.00000000000E+00 0. -1.
          2    1    1    2  501    0  0.72796899023E+01 -0.19036605031E+02  0.82440911618E+02  0.84922848072E+02  0.00000000000E+00 0.  1.
         -2    1    1    2    0  503 -0.72796899023E+01  0.19036605031E+02  0.22528089667E+02  0.30379286368E+02  0.00000000000E+00 0. -1.
<mgrwt>
<rscale>  2 0.20381026E+02</rscale>
<asrwt>0</asrwt>
<pdfrwt beam="1">  1       21 0.16943932E-01 0.20381026E+02</pdfrwt>
<pdfrwt beam="2">  1       21 0.79485648E-03 0.20381026E+02</pdfrwt>
<totfact> 0.11180397E+08</totfact>
</mgrwt>
</event>
<event>
 4    1  0.2677450E+004  0.3019062E+02  0.7546771E-02  0.1595991E+00
         21   -1    0    0  501  502  0.00000000000E+00  0.00000000000E+00  0.68086202814E+02  0.68086202814E+02  0.00000000000E+00 0.  1.
         21   -1    0    0  502  503 -0.00000000000E+00 -0.00000000000E+00 -0.13808029476E+02  0.13808029476E+02  0.00000000000E+00 0. -1.
          2    1    1    2  501    0  0.24286412357E+02 -0.17934436274E+02  0.34288735062E+02  0.45685787525E+02  0.00000000000E+00 0. -1.
         -2    1    1    2    0  503 -0.24286412357E+02  0.17934436274E+02  0.19989438276E+02  0.36208444764E+02  0.00000000000E+00 0.  1.
<mgrwt>
<rscale>  2 0.30190625E+02</rscale>
<asrwt>0</asrwt>
<pdfrwt beam="1">  1       21 0.10474800E-01 0.30190625E+02</pdfrwt>
<pdfrwt beam="2">  1       21 0.21243123E-02 0.30190625E+02</pdfrwt>
<totfact> 0.62908692E+07</totfact>
</mgrwt>
</event>
<event>
 4    1  0.2677450E+004  0.2398078E+02  0.7546771E-02  0.1676088E+00
         21   -1    0    0  501  502  0.00000000000E+00  0.00000000000E+00  0.25007554913E+03  0.25007554913E+03  0.00000000000E+00 0. -1.
         21   -1    0    0  502  503 -0.00000000000E+00 -0.00000000000E+00 -0.15182278834E+03  0.15182278834E+03  0.00000000000E+00 0.  1.
          2    1    1    2  501    0 -0.23959290787E+02  0.10150320705E+01  0.24854788226E+03  0.24970207785E+03  0.00000000000E+00 0. -1.
         -2    1    1    2    0  503  0.23959290787E+02 -0.10150320705E+01 -0.15029512147E+03  0.15219625962E+03  0.00000000000E+00 0.  1.
<mgrwt>
<rscale>  2 0.23980782E+02</rscale>
<asrwt>0</asrwt>
<pdfrwt beam="1">  1       21 0.38473161E-01 0.23980782E+02</pdfrwt>
<pdfrwt beam="2">  1       21 0.23357352E-01 0.23980782E+02</pdfrwt>
<totfact> 0.12063191E+05</totfact>
</mgrwt>
</event>
<event>
 4    1  0.2677450E+004  0.1145351E+03  0.7546771E-02  0.1252395E+00
         21   -1    0    0  501  502  0.00000000000E+00  0.00000000000E+00  0.82874200063E+02  0.82874200063E+02  0.00000000000E+00 0. -1.
         21   -1    0    0  502  503 -0.00000000000E+00 -0.00000000000E+00 -0.17452860736E+03  0.17452860736E+03  0.00000000000E+00 0.  1.
          2    1    1    2  501    0  0.11244523056E+03  0.21779957581E+02 -0.65715797319E+01  0.11472350277E+03  0.00000000000E+00 0.  1.
         -2    1    1    2    0  503 -0.11244523056E+03 -0.21779957581E+02 -0.85082827564E+02  0.14267930465E+03  0.00000000000E+00 0. -1.
<mgrwt>
<rscale>  2 0.11453513E+03</rscale>
<asrwt>0</asrwt>
<pdfrwt beam="1">  1       21 0.12749877E-01 0.11453513E+03</pdfrwt>
<pdfrwt beam="2">  1       21 0.26850555E-01 0.11453513E+03</pdfrwt>
<totfact> 0.69852601E+05</totfact>
</mgrwt>
</event>
<event>
 4    1  0.2677450E+004  0.2603767E+02  0.7546771E-02  0.1646530E+00
         21   -1    0    0  503  502  0.00000000000E+00  0.00000000000E+00  0.47239575637E+02  0.47239575637E+02  0.00000000000E+00 0. -1.
         21   -1    0    0  501  503 -0.00000000000E+00 -0.00000000000E+00 -0.28685462676E+02  0.28685462676E+02  0.00000000000E+00 0.  1.
          2    1    1    2  501    0  0.24465722202E+02 -0.89100293240E+01 -0.17558263317E+02  0.31404662013E+02  0.00000000000E+00 0.  1.
         -2    1    1    2    0  502 -0.24465722202E+02  0.89100293240E+01  0.36112376278E+02  0.44520376300E+02  0.00000000000E+00 0. -1.
<mgrwt>
<rscale>  2 0.26037669E+02</rscale>
<asrwt>0</asrwt>
<pdfrwt beam="1">  1       21 0.72676270E-02 0.26037669E+02</pdfrwt>
<pdfrwt beam="2">  1       21 0.44131481E-02 0.26037669E+02</pdfrwt>
<totfact> 0.35301265E+07</totfact>
</mgrwt>
</event>
<event>
 4    1  0.2677450E+004  0.2297474E+02  0.7546771E-02  0.1691920E+00
         21   -1    0    0  503  502  0.00000000000E+00  0.00000000000E+00  0.63234715582E+03  0.63234715582E+03  0.00000000000E+00 0. -1.
         21   -1    0    0  501  503 -0.00000000000E+00 -0.00000000000E+00 -0.16994213469E+01  0.16994213469E+01  0.00000000000E+00 0.  1.
          2    1    1    2  501    0 -0.11553159375E+02  0.19858580602E+02  0.89187007049E+02  0.92098647880E+02  0.00000000000E+00 0.  1.
         -2    1    1    2    0  502  0.11553159375E+02 -0.19858580602E+02  0.54146072743E+03  0.54194792929E+03  0.00000000000E+00 0. -1.
<mgrwt>
<rscale>  2 0.22974741E+02</rscale>
<asrwt>0</asrwt>
<pdfrwt beam="1">  1       21 0.97283990E-01 0.22974741E+02</pdfrwt>
<pdfrwt beam="2">  1       21 0.26144994E-03 0.22974741E+02</pdfrwt>
<totfact> 0.21197058E+07</totfact>
</mgrwt>
</event>
<event>
 4    1  0.2677450E+004  0.2476539E+02  0.7546771E-02  0.1664395E+00
         21   -1    0    0  503  502  0.00000000000E+00  0.00000000000E+00  0.29169099327E+03  0.29169099327E+03  0.00000000000E+00 0.  1.
         21   -1    0    0  501  503 -0.00000000000E+00 -0.00000000000E+00 -0.34494548540E+01  0.34494548540E+01  0.00000000000E+00 0. -1.
          2    1    1    2  501    0 -0.16397014684E+02 -0.18559706033E+02  0.51911315901E+02  0.57516167267E+02  0.00000000000E+00 0.  1.
         -2    1    1    2    0  502  0.16397014684E+02  0.18559706033E+02  0.23633022252E+03  0.23762428086E+03  0.00000000000E+00 0. -1.
<mgrwt>
<rscale>  2 0.24765395E+02</rscale>
<asrwt>0</asrwt>
<pdfrwt beam="1">  1       21 0.44875518E-01 0.24765395E+02</pdfrwt>
<pdfrwt beam="2">  1       21 0.53068559E-03 0.24765395E+02</pdfrwt>
<totfact> 0.36895090E+07</totfact>
</mgrwt>
</event>
<event>
 4    1  0.2677450E+004  0.2448640E+02  0.7546771E-02  0.1668490E+00
         21   -1    0    0  501  502  0.00000000000E+00  0.00000000000E+00  0.25138576292E+02  0.25138576292E+02  0.00000000000E+00 0. -1.
         21   -1    0    0  502  503 -0.00000000000E+00 -0.00000000000E+00 -0.28382866956E+02  0.28382866956E+02  0.00000000000E+00 0.  1.
          2    1    1    2  501    0  0.22957361457E+02  0.85172514746E+01  0.90708888792E+01  0.26112545697E+02  0.00000000000E+00 0.  1.
         -2    1    1    2    0  503 -0.22957361457E+02 -0.85172514746E+01 -0.12315179543E+02  0.27408897550E+02  0.00000000000E+00 0. -1.
<mgrwt>
<rscale>  2 0.24486405E+02</rscale>
<asrwt>0</asrwt>
<pdfrwt beam="1">  1       21 0.38674733E-02 0.24486405E+02</pdfrwt>
<pdfrwt beam="2">  1       21 0.43665949E-02 0.24486405E+02</pdfrwt>
<totfact> 0.97208845E+07</totfact>
</mgrwt>
</event>
<event>
 4    1  0.2677450E+004  0.2930895E+02  0.7546771E-02  0.1605855E+00
         21   -1    0    0  501  502  0.00000000000E+00  0.00000000000E+00  0.41224296303E+01  0.41224296303E+01  0.00000000000E+00 0.  1.
         21   -1    0    0  502  503 -0.00000000000E+00 -0.00000000000E+00 -0.40606298278E+03  0.40606298278E+03  0.00000000000E+00 0. -1.
          2    1    1    2  501    0 -0.24877682013E+02  0.15495663632E+02 -0.57869249813E+02  0.64868056296E+02  0.00000000000E+00 0.  1.
         -2    1    1    2    0  503  0.24877682013E+02 -0.15495663632E+02 -0.34407130334E+03  0.34531735612E+03  0.00000000000E+00 0. -1.
<mgrwt>
<rscale>  2 0.29308952E+02</rscale>
<asrwt>0</asrwt>
<pdfrwt beam="1">  1       21 0.63421982E-03 0.29308952E+02</pdfrwt>
<pdfrwt beam="2">  1       21 0.62471240E-01 0.29308952E+02</pdfrwt>
<totfact> 0.15203746E+07</totfact>
</mgrwt>
</event>
<event>
 4    1  0.2677450E+004  0.2358226E+02  0.7546771E-02  0.1682242E+00
         21   -1    0    0  501  502  0.00000000000E+00  0.00000000000E+00  0.19666392882E+03  0.19666392882E+03  0.00000000000E+00 0. -1.
         21   -1    0    0  502  503 -0.00000000000E+00 -0.00000000000E+00 -0.52430633966E+01  0.52430633966E+01  0.00000000000E+00 0.  1.
          2    1    1    2  501    0  0.10677657208E+02  0.21026423871E+02  0.16422968424E+03  0.16591417073E+03  0.00000000000E+00 0. -1.
         -2    1    1    2    0  503 -0.10677657208E+02 -0.21026423871E+02  0.27191181184E+02  0.35992821485E+02  0.00000000000E+00 0.  1.
<mgrwt>
<rscale>  2 0.23582257E+02</rscale>
<asrwt>0</asrwt>
<pdfrwt beam="1">  1       21 0.30255983E-01 0.23582257E+02</pdfrwt>
<pdfrwt beam="2">  1       21 0.80662529E-03 0.23582257E+02</pdfrwt>
<totfact> 0.40897846E+07</totfact>
</mgrwt>
</event>
<event>
 4    1  0.2677450E+004  0.2191305E+02  0.7546771E-02  0.1709760E+00
         21   -1    0    0  503  502  0.00000000000E+00  0.00000000000E+00  0.45792500489E+02  0.45792500489E+02  0.00000000000E+00 0. -1.
         21   -1    0    0  501  503 -0.00000000000E+00 -0.00000000000E+00 -0.15838121992E+02  0.15838121992E+02  0.00000000000E+00 0.  1.
          2    1    1    2  501    0  0.12027958905E+02 -0.18316925878E+02 -0.29361466786E+01  0.22108878903E+02  0.00000000000E+00 0.  1.
         -2    1    1    2    0  502 -0.12027958905E+02  0.18316925878E+02  0.32890525176E+02  0.39521743577E+02  0.00000000000E+00 0. -1.
<mgrwt>
<rscale>  2 0.21913046E+02</rscale>
<asrwt>0</asrwt>
<pdfrwt beam="1">  1       21 0.70450000E-02 0.21913046E+02</pdfrwt>
<pdfrwt beam="2">  1       21 0.24366342E-02 0.21913046E+02</pdfrwt>
<totfact> 0.90006648E+07</totfact>
</mgrwt>
</event>
<event>
 4    1  0.2677450E+004  0.2038030E+02  0.7546771E-02  0.1737869E+00
         21   -1    0    0  501  502  0.00000000000E+00  0.00000000000E+00  0.30473802332E+00  0.30473802332E+00  0.00000000000E+00 0. -1.
         21   -1    0    0  502  503 -0.00000000000E+00 -0.00000000000E+00 -0.14359993243E+04  0.14359993243E+04  0.00000000000E+00 0.  1.
          2    1    1    2  501    0 -0.20262771903E+02 -0.21855959681E+01 -0.55592370296E+03  0.55629715106E+03  0.00000000000E+00 0. -1.
         -2    1    1    2    0  503  0.20262771903E+02  0.21855959681E+01 -0.87977088331E+03  0.88000691126E+03  0.00000000000E+00 0.  1.
<mgrwt>
<rscale>  2 0.20380303E+02</rscale>
<asrwt>0</asrwt>
<pdfrwt beam="1">  1       21 0.46881967E-04 0.20380303E+02</pdfrwt>
<pdfrwt beam="2">  1       21 0.22092677E+00 0.20380303E+02</pdfrwt>
<totfact> 0.34335840E+07</totfact>
</mgrwt>
</event>
<event>
 4    1  0.2677450E+004  0.3764972E+02  0.7546771E-02  0.1526255E+00
         21   -1    0    0  503  502  0.00000000000E+00  0.00000000000E+00  0.44900505624E+02  0.44900505624E+02  0.00000000000E+00 0.  1.
         21   -1    0    0  501  503 -0.00000000000E+00 -0.00000000000E+00 -0.96301755270E+02  0.96301755270E+02  0.00000000000E+00 0. -1.
          2    1    1    2  501    0  0.21635521537E+02 -0.30812425097E+02 -0.83583995783E+02  0.91672164170E+02  0.00000000000E+00 0. -1.
         -2    1    1    2    0  502 -0.21635521537E+02  0.30812425097E+02  0.32182746137E+02  0.49530096724E+02  0.00000000000E+00 0.  1.
<mgrwt>
<rscale>  2 0.37649719E+02</rscale>
<asrwt>0</asrwt>
<pdfrwt beam="1">  1       21 0.69077701E-02 0.37649719E+02</pdfrwt>
<pdfrwt beam="2">  1       21 0.14815655E-01 0.37649719E+02</pdfrwt>
<totfact> 0.55051912E+06</totfact>
</mgrwt>
</event>
<event>
 4    1  0.2677450E+004  0.2097462E+02  0.7546771E-02  0.1726613E+00
         21   -1    0    0  501  502  0.00000000000E+00  0.00000000000E+00  0.37472035309E+01  0.37472035309E+01  0.00000000000E+00 0.  1.
         21   -1    0    0  502  503 -0.00000000000E+00 -0.00000000000E+00 -0.15661661277E+03  0.15661661277E+03  0.00000000000E+00 0. -1.
          2    1    1    2  501    0  0.12928208309E+02 -0.16516537566E+02 -0.36313545857E+02  0.41935762733E+02  0.00000000000E+00 0.  1.
         -2    1    1    2    0  503 -0.12928208309E+02  0.16516537566E+02 -0.11655586338E+03  0.11842805357E+03  0.00000000000E+00 0. -1.
<mgrwt>
<rscale>  2 0.20974618E+02</rscale>
<asrwt>0</asrwt>
<pdfrwt beam="1">  1       21 0.57649283E-03 0.20974618E+02</pdfrwt>
<pdfrwt beam="2">  1       21 0.24094864E-01 0.20974618E+02</pdfrwt>
<totfact> 0.98329419E+07</totfact>
</mgrwt>
</event>
<event>
 4    1  0.2677450E+004  0.2037727E+02  0.7546771E-02  0.1737928E+00
         21   -1    0    0  503  502  0.00000000000E+00  0.00000000000E+00  0.63819888895E+00  0.63819888895E+00  0.00000000000E+00 0. -1.
         21   -1    0    0  501  503 -0.00000000000E+00 -0.00000000000E+00 -0.67072501035E+03  0.67072501035E+03  0.00000000000E+00 0.  1.
          2    1    1    2  501    0 -0.20363225795E+02  0.75651695593E+00 -0.39314212597E+03  0.39366986740E+03  0.00000000000E+00 0. -1.
         -2    1    1    2    0  502  0.20363225795E+02 -0.75651695593E+00 -0.27694468549E+03  0.27769334184E+03  0.00000000000E+00 0.  1.
<mgrwt>
<rscale>  2 0.20377274E+02</rscale>
<asrwt>0</asrwt>
<pdfrwt beam="1">  1       21 0.98184301E-04 0.20377274E+02</pdfrwt>
<pdfrwt beam="2">  1       21 0.10318861E+00 0.20377274E+02</pdfrwt>
<totfact> 0.73984844E+07</totfact>
</mgrwt>
</event>
<event>
 4    1  0.2677450E+004  0.3376487E+02  0.7546771E-02  0.1559851E+00
         21   -1    0    0  501  502  0.00000000000E+00  0.00000000000E+00  0.34874509037E+03  0.34874509037E+03  0.00000000000E+00 0. -1.
         21   -1    0    0  502  503 -0.00000000000E+00 -0.00000000000E+00 -0.71263101958E+01  0.71263101958E+01  0.00000000000E+00 0.  1.
          2    1    1    2  501    0 -0.38219955997E+01  0.33547856793E+02  0.30171854023E+03  0.30360194971E+03  0.00000000000E+00 0. -1.
         -2    1    1    2    0  503  0.38219955997E+01 -0.33547856793E+02  0.39900239944E+02  0.52269450861E+02  0.00000000000E+00 0.  1.
<mgrwt>
<rscale>  2 0.33764869E+02</rscale>
<asrwt>0</asrwt>
<pdfrwt beam="1">  1       21 0.53653078E-01 0.33764869E+02</pdfrwt>
<pdfrwt beam="2">  1       21 0.10963557E-02 0.33764869E+02</pdfrwt>
<totfact> 0.92292482E+06</totfact>
</mgrwt>
</event>
<event>
 4    1  0.2677450E+004  0.2079239E+02  0.7546771E-02  0.1730014E+00
         21   -1    0    0  501  502  0.00000000000E+00  0.00000000000E+00  0.29525951481E+02  0.29525951481E+02  0.00000000000E+00 0. -1.
         21   -1    0    0  502  503 -0.00000000000E+00 -0.00000000000E+00 -0.24387704899E+02  0.24387704899E+02  0.00000000000E+00 0.  1.
          2    1    1    2  501    0  0.88203858568E+01 -0.18828819227E+02  0.19609784331E+02  0.28580890148E+02  0.00000000000E+00 0.  1.
         -2    1    1    2    0  503 -0.88203858568E+01  0.18828819227E+02 -0.14471537749E+02  0.25332766232E+02  0.00000000000E+00 0. -1.
<mgrwt>
<rscale>  2 0.20792394E+02</rscale>
<asrwt>0</asrwt>
<pdfrwt beam="1">  1       21 0.45424541E-02 0.20792394E+02</pdfrwt>
<pdfrwt beam="2">  1       21 0.37519546E-02 0.20792394E+02</pdfrwt>
<totfact> 0.91382588E+07</totfact>
</mgrwt>
</event>
<event>
 4    1  0.2677450E+004  0.2957088E+02  0.7546771E-02  0.1602881E+00
         21   -1    0    0  503  502  0.00000000000E+00  0.00000000000E+00  0.55461826201E+03  0.55461826201E+03  0.00000000000E+00 0.  1.
         21   -1    0    0  501  503 -0.00000000000E+00 -0.00000000000E+00 -0.16343755615E+01  0.16343755615E+01  0.00000000000E+00 0. -1.
          2    1    1    2  501    0 -0.62271977079E+01  0.28907767143E+02  0.22422067207E+03  0.22616221341E+03  0.00000000000E+00 0.  1.
         -2    1    1    2    0  502  0.62271977079E+01 -0.28907767143E+02  0.32876321438E+03  0.33009042416E+03  0.00000000000E+00 0. -1.
<mgrwt>
<rscale>  2 0.29570881E+02</rscale>
<asrwt>0</asrwt>
<pdfrwt beam="1">  1       21 0.85325736E-01 0.29570881E+02</pdfrwt>
<pdfrwt beam="2">  1       21 0.25144284E-03 0.29570881E+02</pdfrwt>
<totfact> 0.31198764E+07</totfact>
</mgrwt>
</event>
<event>
 4    1  0.2677450E+004  0.2240564E+02  0.7546771E-02  0.1701330E+00
         21   -1    0    0  503  502  0.00000000000E+00  0.00000000000E+00  0.23754456673E+03  0.23754456673E+03  0.00000000000E+00 0. -1.
         21   -1    0    0  501  503 -0.00000000000E+00 -0.00000000000E+00 -0.46397241255E+01  0.46397241255E+01  0.00000000000E+00 0.  1.
          2    1    1    2  501    0  0.21257621612E+02  0.70799942279E+01  0.27097298482E+02  0.35160722118E+02  0.00000000000E+00 0.  1.
         -2    1    1    2    0  502 -0.21257621612E+02 -0.70799942279E+01  0.20580754413E+03  0.20702356874E+03  0.00000000000E+00 0. -1.
<mgrwt>
<rscale>  2 0.22405642E+02</rscale>
<asrwt>0</asrwt>
<pdfrwt beam="1">  1       21 0.36545309E-01 0.22405642E+02</pdfrwt>
<pdfrwt beam="2">  1       21 0.71380390E-03 0.22405642E+02</pdfrwt>
<totfact> 0.34248718E+07</totfact>
</mgrwt>
</event>
<event>
 4    1  0.2677450E+004  0.2251958E+02  0.7546771E-02  0.1699418E+00
         21   -1    0    0  501  502  0.00000000000E+00  0.00000000000E+00  0.57545567904E+02  0.57545567904E+02  0.00000000000E+00 0. -1.
         21   -1    0    0  502  503 -0.00000000000E+00 -0.00000000000E+00 -0.12118544443E+02  0.12118544443E+02  0.00000000000E+00 0.  1.
          2    1    1    2  501    0  0.37931093278E+00 -0.22516384714E+02  0.40906142703E+02  0.46695224255E+02  0.00000000000E+00 0. -1.
         -2    1    1    2    0  503 -0.37931093278E+00  0.22516384714E+02  0.45208807587E+01  0.22968888093E+02  0.00000000000E+00 0.  1.
<mgrwt>
<rscale>  2 0.22519579E+02</rscale>
<asrwt>0</asrwt>
<pdfrwt beam="1">  1       21 0.88531641E-02 0.22519579E+02</pdfrwt>
<pdfrwt beam="2">  1       21 0.18643915E-02 0.22519579E+02</pdfrwt>
<totfact> 0.94331744E+07</totfact>
</mgrwt>
</event>
<event>
 4    1  0.2677450E+004  0.5272737E+02  0.7546771E-02  0.1431162E+00
         21   -1    0    0  501  502  0.00000000000E+00  0.00000000000E+00  0.74857625704E+02  0.74857625704E+02  0.00000000000E+00 0. -1.
         21   -1    0    0  502  503 -0.00000000000E+00 -0.00000000000E+00 -0.62452713825E+02  0.62452713825E+02  0.00000000000E+00 0.  1.
          2    1    1    2  501    0 -0.53233986992E+01  0.52457954960E+02  0.49911482803E+02  0.72603937413E+02  0.00000000000E+00 0. -1.
         -2    1    1    2    0  503  0.53233986992E+01 -0.52457954960E+02 -0.37506570925E+02  0.64706402116E+02  0.00000000000E+00 0.  1.
<mgrwt>
<rscale>  2 0.52727371E+02</rscale>
<asrwt>0</asrwt>
<pdfrwt beam="1">  1       21 0.11516558E-01 0.52727371E+02</pdfrwt>
<pdfrwt beam="2">  1       21 0.96081099E-02 0.52727371E+02</pdfrwt>
<totfact> 0.50767971E+06</totfact>
</mgrwt>
</event>
<event>
 4    1  0.2677450E+004  0.2055800E+02  0.7546771E-02  0.1734454E+00
         21   -1    0    0  501  502  0.00000000000E+00  0.00000000000E+00  0.12909223389E+02  0.12909223389E+02  0.00000000000E+00 0.  1.
         21   -1    0    0  502  503 -0.00000000000E+00 -0.00000000000E+00 -0.10593418462E+03  0.10593418462E+03  0.00000000000E+00 0. -1.
          2    1    1    2  501    0 -0.77969231388E+01 -0.19022079705E+02  0.28809403116E+01  0.20758885900E+02  0.00000000000E+00 0.  1.
         -2    1    1    2    0  503  0.77969231388E+01  0.19022079705E+02 -0.95905901546E+02  0.98084522112E+02  0.00000000000E+00 0. -1.
<mgrwt>
<rscale>  2 0.20558004E+02</rscale>
<asrwt>0</asrwt>
<pdfrwt beam="1">  1       21 0.19860345E-02 0.20558004E+02</pdfrwt>
<pdfrwt beam="2">  1       21 0.16297566E-01 0.20558004E+02</pdfrwt>
<totfact> 0.30160646E+07</totfact>
</mgrwt>
</event>
<event>
 4    1  0.2677450E+004  0.2029826E+02  0.7546771E-02  0.1739461E+00
         21   -1    0    0  503  502  0.00000000000E+00  0.00000000000E+00  0.15555538291E+02  0.15555538291E+02  0.00000000000E+00 0. -1.
         21   -1    0    0  501  503 -0.00000000000E+00 -0.00000000000E+00 -0.37299145180E+02  0.37299145180E+02  0.00000000000E+00 0.  1.
          2    1    1    2  501    0  0.19393762664E+02 -0.59917576937E+01 -0.25100346430E+02  0.32280746296E+02  0.00000000000E+00 0.  1.
         -2    1    1    2    0  502 -0.19393762664E+02  0.59917576937E+01  0.33567395413E+01  0.20573937175E+02  0.00000000000E+00 0. -1.
<mgrwt>
<rscale>  2 0.20298256E+02</rscale>
<asrwt>0</asrwt>
<pdfrwt beam="1">  1       21 0.23931598E-02 0.20298256E+02</pdfrwt>
<pdfrwt beam="2">  1       21 0.57383300E-02 0.20298256E+02</pdfrwt>
<totfact> 0.12575998E+08</totfact>
</mgrwt>
</event>
<event>
 4    1  0.2677450E+004  0.2365829E+02  0.7546771E-02  0.1681056E+00
         21   -1    0    0  503  502  0.00000000000E+00  0.00000000000E+00  0.10831543360E+02  0.10831543360E+02  0.00000000000E+00 0.  1.
         21   -1    0    0  501  503 -0.00000000000E+00 -0.00000000000E+00 -0.10106556149E+03  0.10106556149E+03  0.00000000000E+00 0. -1.
          2    1    1    2  501    0 -0.91931012716E+01 -0.21799119315E+02 -0.84229131738E+02  0.87488635532E+02  0.00000000000E+00 0. -1.
         -2    1    1    2    0  502  0.91931012716E+01  0.21799119315E+02 -0.60048863931E+01  0.24408469319E+02  0.00000000000E+00 0.  1.
<mgrwt>
<rscale>  2 0.23658291E+02</rscale>
<asrwt>0</asrwt>
<pdfrwt beam="1">  1       21 0.16663912E-02 0.23658291E+02</pdfrwt>
<pdfrwt beam="2">  1       21 0.15548548E-01 0.23658291E+02</pdfrwt>
<totfact> 0.44226216E+07</totfact>
</mgrwt>
</event>
<event>
 4    1  0.2677450E+004  0.2265058E+02  0.7546771E-02  0.1697238E+00
         21   -1    0    0  503  502  0.00000000000E+00  0.00000000000E+00  0.37897364811E+03  0.37897364811E+03  0.00000000000E+00 0. -1.
         21   -1    0    0  501  503 -0.00000000000E+00 -0.00000000000E+00 -0.19332705510E+01  0.19332705510E+01  0.00000000000E+00 0.  1.
          2    1    1    2  501    0 -0.81632201562E+01  0.21128429776E+02  0.84249081818E+02  0.87240796049E+02  0.00000000000E+00 0.  1.
         -2    1    1    2    0  502  0.81632201562E+01 -0.21128429776E+02  0.29279129574E+03  0.29366612262E+03  0.00000000000E+00 0. -1.
<mgrwt>
<rscale>  2 0.22650579E+02</rscale>
<asrwt>0</asrwt>
<pdfrwt beam="1">  1       21 0.58303579E-01 0.22650579E+02</pdfrwt>
<pdfrwt beam="2">  1       21 0.29742654E-03 0.22650579E+02</pdfrwt>
<totfact> 0.50736023E+07</totfact>
</mgrwt>
</event>
<event>
 4    1  0.2677450E+004  0.4968823E+02  0.7546771E-02  0.1447030E+00
         21   -1    0    0  503  502  0.00000000000E+00  0.00000000000E+00  0.21823030048E+03  0.21823030048E+03  0.00000000000E+00 0. -1.
         21   -1    0    0  501  503 -0.00000000000E+00 -0.00000000000E+00 -0.11316403191E+02  0.11316403191E+02  0.00000000000E+00 0.  1.
          2    1    1    2  501    0 -0.37552504189E+02  0.32538126215E+02  0.10157803895E+03  0.11307969856E+03  0.00000000000E+00 0. -1.
         -2    1    1    2    0  502  0.37552504189E+02 -0.32538126215E+02  0.10533585833E+03  0.11646700511E+03  0.00000000000E+00 0.  1.
<mgrwt>
<rscale>  2 0.49688230E+02</rscale>
<asrwt>0</asrwt>
<pdfrwt beam="1">  1       21 0.33573889E-01 0.49688230E+02</pdfrwt>
<pdfrwt beam="2">  1       21 0.17409853E-02 0.49688230E+02</pdfrwt>
<totfact> 0.11803817E+07</totfact>
</mgrwt>
</event>
<event>
 4    1  0.2677450E+004  0.2140401E+02  0.7546771E-02  0.1718768E+00
         21   -1    0    0  503  502  0.00000000000E+00  0.00000000000E+00  0.93393975837E+03  0.93393975837E+03  0.00000000000E+00 0. -1.
         21   -1    0    0  501  503 -0.00000000000E+00 -0.00000000000E+00 -0.69749691893E+00  0.69749691893E+00  0.00000000000E+00 0.  1.
          2    1    1    2  501    0 -0.18789674989E+02  0.10250839012E+02  0.21206383934E+03  0.21314127602E+03  0.00000000000E+00 0.  1.
         -2    1    1    2    0  502  0.18789674989E+02 -0.10250839012E+02  0.72117842211E+03  0.72149597927E+03  0.00000000000E+00 0. -1.
<mgrwt>
<rscale>  2 0.21404009E+02</rscale>
<asrwt>0</asrwt>
<pdfrwt beam="1">  1       21 0.14368204E+00 0.21404009E+02</pdfrwt>
<pdfrwt beam="2">  1       21 0.10730797E-03 0.21404009E+02</pdfrwt>
<totfact> 0.31192303E+07</totfact>
</mgrwt>
</event>
<event>
 4    1  0.2677450E+004  0.2256726E+02  0.7546771E-02  0.1698622E+00
         21   -1    0    0  503  502  0.00000000000E+00  0.00000000000E+00  0.12911168950E+02  0.12911168950E+02  0.00000000000E+00 0.  1.
         21   -1    0    0  501  503 -0.00000000000E+00 -0.00000000000E+00 -0.41144194429E+02  0.41144194429E+02  0.00000000000E+00 0. -1.
          2    1    1    2  501    0  0.21134310918E+02 -0.79134060999E+01 -0.19609084082E+02  0.29896442474E+02  0.00000000000E+00 0. -1.
         -2    1    1    2    0  502 -0.21134310918E+02  0.79134060999E+01 -0.86239413969E+01  0.24158920905E+02  0.00000000000E+00 0.  1.
<mgrwt>
<rscale>  2 0.22567257E+02</rscale>
<asrwt>0</asrwt>
<pdfrwt beam="1">  1       21 0.19863337E-02 0.22567257E+02</pdfrwt>
<pdfrwt beam="2">  1       21 0.63298760E-02 0.22567257E+02</pdfrwt>
<totfact> 0.14773259E+08</totfact>
</mgrwt>
</event>
<event>
 4    1  0.2677450E+004  0.2208321E+02  0.7546771E-02  0.1706817E+00
         21   -1    0    0  501  502  0.00000000000E+00  0.00000000000E+00  0.25152543053E+03  0.25152543053E+03  0.00000000000E+00 0.  1.
         21   -1    0    0  502  503 -0.00000000000E+00 -0.00000000000E+00 -0.34213864765E+01  0.34213864765E+01  0.00000000000E+00 0. -1.
          2    1    1    2  501    0 -0.13864777896E+02 -0.17188256150E+02  0.20796368177E+03  0.20913287918E+03  0.00000000000E+00 0.  1.
         -2    1    1    2    0  503  0.13864777896E+02  0.17188256150E+02  0.40140362281E+02  0.45813937832E+02  0.00000000000E+00 0. -1.
<mgrwt>
<rscale>  2 0.22083211E+02</rscale>
<asrwt>0</asrwt>
<pdfrwt beam="1">  1       21 0.38696206E-01 0.22083211E+02</pdfrwt>
<pdfrwt beam="2">  1       21 0.52636735E-03 0.22083211E+02</pdfrwt>
<totfact> 0.48160698E+07</totfact>
</mgrwt>
</event>
<event>
 4    1  0.2677450E+004  0.2879923E+02  0.7546771E-02  0.1611754E+00
         21   -1    0    0  503  502  0.00000000000E+00  0.00000000000E+00  0.53560278941E+02  0.53560278941E+02  0.00000000000E+00 0. -1.
         21   -1    0    0  501  503 -0.00000000000E+00 -0.00000000000E+00 -0.16176231989E+02  0.16176231989E+02  0.00000000000E+00 0.  1.
          2    1    1    2  501    0 -0.22923841233E+02  0.17432539611E+02  0.11485673222E+02  0.31005106411E+02  0.00000000000E+00 0. -1.
         -2    1    1    2    0  502  0.22923841233E+02 -0.17432539611E+02  0.25898373730E+02  0.38731404519E+02  0.00000000000E+00 0.  1.
<mgrwt>
<rscale>  2 0.28799235E+02</rscale>
<asrwt>0</asrwt>
<pdfrwt beam="1">  1       21 0.82400428E-02 0.28799235E+02</pdfrwt>
<pdfrwt beam="2">  1       21 0.24886511E-02 0.28799235E+02</pdfrwt>
<totfact> 0.72488012E+07</totfact>
</mgrwt>
</event>
<event>
 4    1  0.2677450E+004  0.3323368E+02  0.7546771E-02  0.1564870E+00
         21   -1    0    0  501  502  0.00000000000E+00  0.00000000000E+00  0.21335130170E+04  0.21335130170E+04  0.00000000000E+00 0.  1.
         21   -1    0    0  502  503 -0.00000000000E+00 -0.00000000000E+00 -0.88341541052E+00  0.88341541052E+00  0.00000000000E+00 0. -1.
          2    1    1    2  501    0 -0.30474333510E+02  0.13258666126E+02  0.17529816035E+04  0.17532966034E+04  0.00000000000E+00 0.  1.
         -2    1    1    2    0  503  0.30474333510E+02 -0.13258666126E+02  0.37964799809E+03  0.38109982903E+03  0.00000000000E+00 0. -1.
<mgrwt>
<rscale>  2 0.33233676E+02</rscale>
<asrwt>0</asrwt>
<pdfrwt beam="1">  1       21 0.32822865E+00 0.33233676E+02</pdfrwt>
<pdfrwt beam="2">  1       21 0.13591177E-03 0.33233676E+02</pdfrwt>
<totfact> 0.22437578E+06</totfact>
</mgrwt>
</event>
<event>
 4    1  0.2677450E+004  0.2421807E+02  0.7546771E-02  0.1672494E+00
         21   -1    0    0  501  502  0.00000000000E+00  0.00000000000E+00  0.70691995252E+03  0.70691995252E+03  0.00000000000E+00 0.  1.
         21   -1    0    0  502  503 -0.00000000000E+00 -0.00000000000E+00 -0.50269240745E+01  0.50269240745E+01  0.00000000000E+00 0. -1.
          2    1    1    2  501    0 -0.85929824857E+01  0.22642340187E+02  0.67622004253E+03  0.67665357521E+03  0.00000000000E+00 0.  1.
         -2    1    1    2    0  503  0.85929824857E+01 -0.22642340187E+02  0.25672985912E+02  0.35293301387E+02  0.00000000000E+00 0. -1.
<mgrwt>
<rscale>  2 0.24218070E+02</rscale>
<asrwt>0</asrwt>
<pdfrwt beam="1">  1       21 0.10875684E+00 0.24218070E+02</pdfrwt>
<pdfrwt beam="2">  1       21 0.77337349E-03 0.24218070E+02</pdfrwt>
<totfact> 0.33849219E+06</totfact>
</mgrwt>
</event>
<event>
 4    1  0.2677450E+004  0.2093660E+02  0.7546771E-02  0.1727319E+00
         21   -1    0    0  501  502  0.00000000000E+00  0.00000000000E+00  0.87601174230E+02  0.87601174230E+02  0.00000000000E+00 0.  1.
         21   -1    0    0  502  503 -0.00000000000E+00 -0.00000000000E+00 -0.60373954074E+01  0.60373954074E+01  0.00000000000E+00 0. -1.
          2    1    1    2  501    0 -0.16342601532E+02  0.13086656958E+02  0.60153661559E+02  0.63693046827E+02  0.00000000000E+00 0.  1.
         -2    1    1    2    0  503  0.16342601532E+02 -0.13086656958E+02  0.21410117264E+02  0.29945522811E+02  0.00000000000E+00 0. -1.
<mgrwt>
<rscale>  2 0.20936600E+02</rscale>
<asrwt>0</asrwt>
<pdfrwt beam="1">  1       21 0.13477103E-01 0.20936600E+02</pdfrwt>
<pdfrwt beam="2">  1       21 0.92883012E-03 0.20936600E+02</pdfrwt>
<totfact> 0.13173786E+08</totfact>
</mgrwt>
</event>
<event>
 4    1  0.2677450E+004  0.2275521E+02  0.7546771E-02  0.1695509E+00
         21   -1    0    0  503  502  0.00000000000E+00  0.00000000000E+00  0.12303679284E+02  0.12303679284E+02  0.00000000000E+00 0.  1.
         21   -1    0    0  501  503 -0.00000000000E+00 -0.00000000000E+00 -0.45025926871E+02  0.45025926871E+02  0.00000000000E+00 0. -1.
          2    1    1    2  501    0  0.21642379655E+02 -0.70289942372E+01 -0.23687102615E+02  0.32846281181E+02  0.00000000000E+00 0.  1.
         -2    1    1    2    0  502 -0.21642379655E+02  0.70289942372E+01 -0.90351449715E+01  0.24483324974E+02  0.00000000000E+00 0. -1.
<mgrwt>
<rscale>  2 0.22755205E+02</rscale>
<asrwt>0</asrwt>
<pdfrwt beam="1">  1       21 0.18928737E-02 0.22755205E+02</pdfrwt>
<pdfrwt beam="2">  1       21 0.69270657E-02 0.22755205E+02</pdfrwt>
<totfact> 0.13786051E+08</totfact>
</mgrwt>
</event>
<event>
 4    1  0.2677450E+004  0.2635668E+02  0.7546771E-02  0.1642247E+00
         21   -1    0    0  503  502  0.00000000000E+00  0.00000000000E+00  0.37189678211E+01  0.37189678211E+01  0.00000000000E+00 0.  1.
         21   -1    0    0  501  503 -0.00000000000E+00 -0.00000000000E+00 -0.19403046217E+03  0.19403046217E+03  0.00000000000E+00 0. -1.
          2    1    1    2  501    0 -0.13953184546E+02 -0.22360305658E+02 -0.11425268938E+03  0.11725336524E+03  0.00000000000E+00 0. -1.
         -2    1    1    2    0  502  0.13953184546E+02  0.22360305658E+02 -0.76058804963E+02  0.80496064751E+02  0.00000000000E+00 0.  1.
<mgrwt>
<rscale>  2 0.26356681E+02</rscale>
<asrwt>0</asrwt>
<pdfrwt beam="1">  1       21 0.57214887E-03 0.26356681E+02</pdfrwt>
<pdfrwt beam="2">  1       21 0.29850842E-01 0.26356681E+02</pdfrwt>
<totfact> 0.71784835E+07</totfact>
</mgrwt>
</event>
<event>
 4    1  0.2677450E+004  0.2771209E+02  0.7546771E-02  0.1624849E+00
         21   -1    0    0  503  502  0.00000000000E+00  0.00000000000E+00  0.11067933992E+01  0.11067933992E+01  0.00000000000E+00 0.  1.
         21   -1    0    0  501  503 -0.00000000000E+00 -0.00000000000E+00 -0.70045870030E+03  0.70045870030E+03  0.00000000000E+00 0. -1.
          2    1    1    2  501    0 -0.21412411921E+02  0.17591720813E+02 -0.38372190923E+03  0.38472128048E+03  0.00000000000E+00 0. -1.
         -2    1    1    2    0  502  0.21412411921E+02 -0.17591720813E+02 -0.31562999767E+03  0.31684421322E+03  0.00000000000E+00 0.  1.
<mgrwt>
<rscale>  2 0.27712092E+02</rscale>
<asrwt>0</asrwt>
<pdfrwt beam="1">  1       21 0.17027579E-03 0.27712092E+02</pdfrwt>
<pdfrwt beam="2">  1       21 0.10776295E+00 0.27712092E+02</pdfrwt>
<totfact> 0.32598092E+07</totfact>
</mgrwt>
</event>
<event>
 4    1  0.2677450E+004  0.3929474E+02  0.7546771E-02  0.1513466E+00
         21   -1    0    0  503  502  0.00000000000E+00  0.00000000000E+00  0.61594320179E+03  0.61594320179E+03  0.00000000000E+00 0. -1.
         21   -1    0    0  501  503 -0.00000000000E+00 -0.00000000000E+00 -0.41071596927E+01  0.41071596927E+01  0.00000000000E+00 0.  1.
          2    1    1    2  501    0 -0.17885108664E+02 -0.34988566844E+02  0.11239695076E+03  0.11906784394E+03  0.00000000000E+00 0.  1.
         -2    1    1    2    0  502  0.17885108664E+02  0.34988566844E+02  0.49943909134E+03  0.50098251754E+03  0.00000000000E+00 0. -1.
<mgrwt>
<rscale>  2 0.39294744E+02</rscale>
<asrwt>0</asrwt>
<pdfrwt beam="1">  1       21 0.94760420E-01 0.39294744E+02</pdfrwt>
<pdfrwt beam="2">  1       21 0.63187121E-03 0.39294744E+02</pdfrwt>
<totfact> 0.65704859E+06</totfact>
</mgrwt>
</event>
<event>
 4    1  0.2677450E+004  0.2010609E+02  0.7546771E-02  0.1743226E+00
         21   -1    0    0  501  502  0.00000000000E+00  0.00000000000E+00  0.37619989576E+02  0.37619989576E+02  0.00000000000E+00 0.  1.
         21   -1    0    0  502  503 -0.00000000000E+00 -0.00000000000E+00 -0.18877739682E+02  0.18877739682E+02  0.00000000000E+00 0. -1.
          2    1    1    2  501    0 -0.67875607110E+01  0.18925751201E+02  0.27911750582E+02  0.34399431093E+02  0.00000000000E+00 0.  1.
         -2    1    1    2    0  503  0.67875607110E+01 -0.18925751201E+02 -0.91695006886E+01  0.22098298165E+02  0.00000000000E+00 0. -1.
<mgrwt>
<rscale>  2 0.20106095E+02</rscale>
<asrwt>0</asrwt>
<pdfrwt beam="1">  1       21 0.57876907E-02 0.20106095E+02</pdfrwt>
<pdfrwt beam="2">  1       21 0.29042677E-02 0.20106095E+02</pdfrwt>
<totfact> 0.91773814E+07</totfact>
</mgrwt>
</event>
<event>
 4    1  0.2677450E+004  0.2410223E+02  0.7546771E-02  0.1674242E+00
         21   -1    0    0  501  502  0.00000000000E+00  0.00000000000E+00  0.28616071413E+03  0.28616071413E+03  0.00000000000E+00 0. -1.
         21   -1    0    0  502  503 -0.00000000000E+00 -0.00000000000E+00 -0.42384735313E+01  0.42384735313E+01  0.00000000000E+00 0.  1.
          2    1    1    2  501    0  0.12279949866E+01 -0.24070926200E+02  0.24577116623E+03  0.24695016422E+03  0.00000000000E+00 0. -1.
         -2    1    1    2    0  503 -0.12279949866E+01  0.24070926200E+02  0.36151074378E+02  0.43449023447E+02  0.00000000000E+00 0.  1.
<mgrwt>
<rscale>  2 0.24102229E+02</rscale>
<asrwt>0</asrwt>
<pdfrwt beam="1">  1       21 0.44024710E-01 0.24102229E+02</pdfrwt>
<pdfrwt beam="2">  1       21 0.65207307E-03 0.24102229E+02</pdfrwt>
<totfact> 0.28030808E+07</totfact>
</mgrwt>
</event>
<event>
 4    1  0.2677450E+004  0.2328905E+02  0.7546771E-02  0.1686867E+00
         21   -1    0    0  503  502  0.00000000000E+00  0.00000000000E+00  0.21619531270E+02  0.21619531270E+02  0.00000000000E+00 0.  1.
         21   -1    0    0  501  503 -0.00000000000E+00 -0.00000000000E+00 -0.52083249532E+02  0.52083249532E+02  0.00000000000E+00 0. -1.
          2    1    1    2  501    0  0.14059631090E+02  0.18566280793E+02 -0.41762792594E+02  0.47817474360E+02  0.00000000000E+00 0. -1.
         -2    1    1    2    0  502 -0.14059631090E+02 -0.18566280793E+02  0.11299074332E+02  0.25885306443E+02  0.00000000000E+00 0.  1.
<mgrwt>
<rscale>  2 0.23289053E+02</rscale>
<asrwt>0</asrwt>
<pdfrwt beam="1">  1       21 0.33260817E-02 0.23289053E+02</pdfrwt>
<pdfrwt beam="2">  1       21 0.80128077E-02 0.23289053E+02</pdfrwt>
<totfact> 0.45786072E+07</totfact>
</mgrwt>
</event>
<event>
 4    1  0.2677450E+004  0.2106775E+02  0.7546771E-02  0.1724892E+00
         21   -1    0    0  503  502  0.00000000000E+00  0.00000000000E+00  0.75458823601E+02  0.75458823601E+02  0.00000000000E+00 0. -1.
         21   -1    0    0  501  503 -0.00000000000E+00 -0.00000000000E+00 -0.81400581060E+01  0.81400581060E+01  0.00000000000E+00 0.  1.
          2    1    1    2  501    0  0.20036433515E+02 -0.65108706608E+01  0.11644183814E+02  0.24071500191E+02  0.00000000000E+00 0.  1.
         -2    1    1    2    0  502 -0.20036433515E+02  0.65108706608E+01  0.55674581681E+02  0.59527381516E+02  0.00000000000E+00 0. -1.
<mgrwt>
<rscale>  2 0.21067750E+02</rscale>
<asrwt>0</asrwt>
<pdfrwt beam="1">  1       21 0.11609049E-01 0.21067750E+02</pdfrwt>
<pdfrwt beam="2">  1       21 0.12523167E-02 0.21067750E+02</pdfrwt>
<totfact> 0.10819714E+08</totfact>
</mgrwt>
</event>
<event>
 4    1  0.2677450E+004  0.2251655E+02  0.7546771E-02  0.1699469E+00
         21   -1    0    0  501  502  0.00000000000E+00  0.00000000000E+00  0.36292819646E+01  0.36292819646E+01  0.00000000000E+00 0. -1.
         21   -1    0    0  502  503 -0.00000000000E+00 -0.00000000000E+00 -0.21223971513E+03  0.21223971513E+03  0.00000000000E+00 0.  1.
          2    1    1    2  501    0 -0.54626654015E+01 -0.21843865893E+02 -0.41202557797E+02  0.46953657573E+02  0.00000000000E+00 0. -1.
         -2    1    1    2    0  503  0.54626654015E+01  0.21843865893E+02 -0.16740787537E+03  0.16891533952E+03  0.00000000000E+00 0.  1.
<mgrwt>
<rscale>  2 0.22516554E+02</rscale>
<asrwt>0</asrwt>
<pdfrwt beam="1">  1       21 0.55835113E-03 0.22516554E+02</pdfrwt>
<pdfrwt beam="2">  1       21 0.32652260E-01 0.22516554E+02</pdfrwt>
<totfact> 0.60765547E+07</totfact>
</mgrwt>
</event>
<event>
 4    1  0.2677450E+004  0.3112589E+02  0.7546771E-02  0.1585967E+00
         21   -1    0    0  503  502  0.00000000000E+00  0.00000000000E+00  0.19913967482E+03  0.19913967482E+03  0.00000000000E+00 0.  1.
         21   -1    0    0  501  503 -0.00000000000E+00 -0.00000000000E+00 -0.35585076336E+02  0.35585076336E+02  0.00000000000E+00 0. -1.
          2    1    1    2  501    0 -0.20787862943E+02  0.23166474775E+02 -0.27267727431E+02  0.41380548069E+02  0.00000000000E+00 0. -1.
         -2    1    1    2    0  502  0.20787862943E+02 -0.23166474775E+02  0.19082232592E+03  0.19334420309E+03  0.00000000000E+00 0.  1.
<mgrwt>
<rscale>  2 0.31125886E+02</rscale>
<asrwt>0</asrwt>
<pdfrwt beam="1">  1       21 0.30636872E-01 0.31125886E+02</pdfrwt>
<pdfrwt beam="2">  1       21 0.54746272E-02 0.31125886E+02</pdfrwt>
<totfact> 0.21533455E+06</totfact>
</mgrwt>
</event>
<event>
 4    1  0.2677450E+004  0.2409744E+02  0.7546771E-02  0.1674315E+00
         21   -1    0    0  503  502  0.00000000000E+00  0.00000000000E+00  0.20842835694E+01  0.20842835694E+01  0.00000000000E+00 0. -1.
         21   -1    0    0  501  503 -0.00000000000E+00 -0.00000000000E+00 -0.37386194127E+03  0.37386194127E+03  0.00000000000E+00 0.  1.
          2    1    1    2  501    0  0.18418133487E+02 -0.15538942540E+02 -0.28077313322E+03  0.28180532059E+03  0.00000000000E+00 0.  1.
         -2    1    1    2    0  502 -0.18418133487E+02  0.15538942540E+02 -0.91004524483E+02  0.94140904249E+02  0.00000000000E+00 0. -1.
<mgrwt>
<rscale>  2 0.24097435E+02</rscale>
<asrwt>0</asrwt>
<pdfrwt beam="1">  1       21 0.32065942E-03 0.24097435E+02</pdfrwt>
<pdfrwt beam="2">  1       21 0.57517148E-01 0.24097435E+02</pdfrwt>
<totfact> 0.47381332E+07</totfact>
</mgrwt>
</event>
<event>
 4    1  0.2677450E+004  0.3179368E+02  0.7546771E-02  0.1579068E+00
         21   -1    0    0  501  502  0.00000000000E+00  0.00000000000E+00  0.40396027679E+02  0.40396027679E+02  0.00000000000E+00 0.  1.
         21   -1    0    0  502  503 -0.00000000000E+00 -0.00000000000E+00 -0.33470483991E+02  0.33470483991E+02  0.00000000000E+00 0. -1.
          2    1    1    2  501    0  0.26115046678E+02  0.18134019675E+02  0.22017083947E+02  0.38672862812E+02  0.00000000000E+00 0.  1.
         -2    1    1    2    0  503 -0.26115046678E+02 -0.18134019675E+02 -0.15091540259E+02  0.35193648858E+02  0.00000000000E+00 0. -1.
<mgrwt>
<rscale>  2 0.31793684E+02</rscale>
<asrwt>0</asrwt>
<pdfrwt beam="1">  1       21 0.62147735E-02 0.31793684E+02</pdfrwt>
<pdfrwt beam="2">  1       21 0.51493052E-02 0.31793684E+02</pdfrwt>
<totfact> 0.37152722E+07</totfact>
</mgrwt>
</event>
<event>
 4    1  0.2677450E+004  0.2092100E+02  0.7546771E-02  0.1727610E+00
         21   -1    0    0  501  502  0.00000000000E+00  0.00000000000E+00  0.32461713068E+02  0.32461713068E+02  0.00000000000E+00 0. -1.
         21   -1    0    0  502  503 -0.00000000000E+00 -0.00000000000E+00 -0.28228348359E+02  0.28228348359E+02  0.00000000000E+00 0.  1.
          2    1    1    2  501    0  0.19813358893E+02 -0.67170666644E+01  0.24048227823E+02  0.31874840182E+02  0.00000000000E+00 0. -1.
         -2    1    1    2    0  503 -0.19813358893E+02  0.67170666644E+01 -0.19814863113E+02  0.28815221245E+02  0.00000000000E+00 0.  1.
<mgrwt>
<rscale>  2 0.20920998E+02</rscale>
<asrwt>0</asrwt>
<pdfrwt beam="1">  1       21 0.49941097E-02 0.20920998E+02</pdfrwt>
<pdfrwt beam="2">  1       21 0.43428228E-02 0.20920998E+02</pdfrwt>
<totfact> 0.62625955E+07</totfact>
</mgrwt>
</event>
<event>
 4    1  0.2677450E+004  0.2077627E+02  0.7546771E-02  0.1730317E+00
         21   -1    0    0  501  502  0.00000000000E+00  0.00000000000E+00  0.21593211584E+03  0.21593211584E+03  0.00000000000E+00 0.  1.
         21   -1    0    0  502  503 -0.00000000000E+00 -0.00000000000E+00 -0.77245156357E+01  0.77245156357E+01  0.00000000000E+00 0. -1.
          2    1    1    2  501    0 -0.65478901473E+01  0.19717470194E+02  0.20038079928E+03  0.20145500295E+03  0.00000000000E+00 0.  1.
         -2    1    1    2    0  503  0.65478901473E+01 -0.19717470194E+02  0.78268009263E+01  0.22201628521E+02  0.00000000000E+00 0. -1.
<mgrwt>
<rscale>  2 0.20776272E+02</rscale>
<asrwt>0</asrwt>
<pdfrwt beam="1">  1       21 0.33220321E-01 0.20776272E+02</pdfrwt>
<pdfrwt beam="2">  1       21 0.11883872E-02 0.20776272E+02</pdfrwt>
<totfact> 0.18740961E+07</totfact>
</mgrwt>
</event>
<event>
 4    1  0.2677450E+004  0.2101204E+02  0.7546771E-02  0.1725920E+00
         21   -1    0    0  501  502  0.00000000000E+00  0.00000000000E+00  0.34147465213E+02  0.34147465213E+02  0.00000000000E+00 0. -1.
         21   -1    0    0  502  503 -0.00000000000E+00 -0.00000000000E+00 -0.17742242841E+02  0.17742242841E+02  0.00000000000E+00 0.  1.
          2    1    1    2  501    0  0.18268349551E+02  0.10381388605E+02  0.21715504767E+02  0.30217031158E+02  0.00000000000E+00 0. -1.
         -2    1    1    2    0  503 -0.18268349551E+02 -0.10381388605E+02 -0.53102823959E+01  0.21672676896E+02  0.00000000000E+00 0.  1.
<mgrwt>
<rscale>  2 0.21012040E+02</rscale>
<asrwt>0</asrwt>
<pdfrwt beam="1">  1       21 0.52534562E-02 0.21012040E+02</pdfrwt>
<pdfrwt beam="2">  1       21 0.27295758E-02 0.21012040E+02</pdfrwt>
<totfact> 0.11942040E+08</totfact>
</mgrwt>
</event>
<event>
 4    1  0.2677450E+004  0.3678188E+02  0.7546771E-02  0.1533323E+00
         21   -1    0    0  503  502  0.00000000000E+00  0.00000000000E+00  0.65302228055E+02  0.65302228055E+02  0.00000000000E+00 0.  1.
         21   -1    0    0  501  503 -0.00000000000E+00 -0.00000000000E+00 -0.29151619565E+02  0.29151619565E+02  0.00000000000E+00 0. -1.
          2    1    1    2  501    0 -0.10264287674E+01  0.36767554063E+02 -0.73271199364E+01  0.37504576712E+02  0.00000000000E+00 0. -1.
         -2    1    1    2    0  502  0.10264287674E+01 -0.36767554063E+02  0.43477728427E+02  0.56949270908E+02  0.00000000000E+00 0.  1.
<mgrwt>
<rscale>  2 0.36781879E+02</rscale>
<asrwt>0</asrwt>
<pdfrwt beam="1">  1       21 0.10046497E-01 0.36781879E+02</pdfrwt>
<pdfrwt beam="2">  1       21 0.44848645E-02 0.36781879E+02</pdfrwt>
<totfact> 0.21539943E+07</totfact>
</mgrwt>
</event>
<event>
 4    1  0.2677450E+004  0.2316220E+02  0.7546771E-02  0.1688894E+00
         21   -1    0    0  501  502  0.00000000000E+00  0.00000000000E+00  0.61333400741E+01  0.61333400741E+01  0.00000000000E+00 0.  1.
         21   -1    0    0  502  503 -0.00000000000E+00 -0.00000000000E+00 -0.87635989221E+02  0.87635989221E+02  0.00000000000E+00 0. -1.
          2    1    1    2  501    0  0.23090336106E+02  0.18231304090E+01 -0.38715040705E+02  0.45114762581E+02  0.00000000000E+00 0.  1.
         -2    1    1    2    0  503 -0.23090336106E+02 -0.18231304090E+01 -0.42787608442E+02  0.48654566714E+02  0.00000000000E+00 0. -1.
<mgrwt>
<rscale>  2 0.23162198E+02</rscale>
<asrwt>0</asrwt>
<pdfrwt beam="1">  1       21 0.94359083E-03 0.23162198E+02</pdfrwt>
<pdfrwt beam="2">  1       21 0.13482459E-01 0.23162198E+02</pdfrwt>
<totfact> 0.13246361E+08</totfact>
</mgrwt>
</event>
<event>
 4    1  0.2677450E+004  0.2770385E+02  0.7546771E-02  0.1624951E+00
         21   -1    0    0  503  502  0.00000000000E+00  0.00000000000E+00  0.74410832414E+02  0.74410832414E+02  0.00000000000E+00 0.  1.
         21   -1    0    0  501  503 -0.00000000000E+00 -0.00000000000E+00 -0.10339981110E+02  0.10339981110E+02  0.00000000000E+00 0. -1.
          2    1    1    2  501    0 -0.17139014304E+02  0.21765976600E+02  0.29927955889E+02  0.40782178612E+02  0.00000000000E+00 0.  1.
         -2    1    1    2    0  502  0.17139014304E+02 -0.21765976600E+02  0.34142895415E+02  0.43968634912E+02  0.00000000000E+00 0. -1.
<mgrwt>
<rscale>  2 0.27703854E+02</rscale>
<asrwt>0</asrwt>
<pdfrwt beam="1">  1       21 0.11447820E-01 0.27703854E+02</pdfrwt>
<pdfrwt beam="2">  1       21 0.15907664E-02 0.27703854E+02</pdfrwt>
<totfact> 0.82935767E+07</totfact>
</mgrwt>
</event>
<event>
 4    1  0.2677450E+004  0.7074322E+02  0.7546771E-02  0.1357584E+00
         21   -1    0    0  503  502  0.00000000000E+00  0.00000000000E+00  0.31325972745E+02  0.31325972745E+02  0.00000000000E+00 0. -1.
         21   -1    0    0  501  503 -0.00000000000E+00 -0.00000000000E+00 -0.16786128741E+03  0.16786128741E+03  0.00000000000E+00 0.  1.
          2    1    1    2  501    0  0.70694342524E+02 -0.26293341150E+01 -0.90148414617E+02  0.11459205959E+03  0.00000000000E+00 0.  1.
         -2    1    1    2    0  502 -0.70694342524E+02  0.26293341150E+01 -0.46386900046E+02  0.84595200565E+02  0.00000000000E+00 0. -1.
<mgrwt>
<rscale>  2 0.70743222E+02</rscale>
<asrwt>0</asrwt>
<pdfrwt beam="1">  1       21 0.48193804E-02 0.70743222E+02</pdfrwt>
<pdfrwt beam="2">  1       21 0.25824814E-01 0.70743222E+02</pdfrwt>
<totfact> 0.38950103E+06</totfact>
</mgrwt>
</event>
<event>
 4    1  0.2677450E+004  0.2785271E+02  0.7546771E-02  0.1623114E+00
         21   -1    0    0  501  502  0.00000000000E+00  0.00000000000E+00  0.30698734673E+02  0.30698734673E+02  0.00000000000E+00 0.  1.
         21   -1    0    0  502  503 -0.00000000000E+00 -0.00000000000E+00 -0.11740213394E+03  0.11740213394E+03  0.00000000000E+00 0. -1.
          2    1    1    2  501    0 -0.16858002746E+02 -0.22171632068E+02  0.22246800997E+02  0.35646790595E+02  0.00000000000E+00 0.  1.
         -2    1    1    2    0  503  0.16858002746E+02  0.22171632068E+02 -0.10895020027E+03  0.11245407802E+03  0.00000000000E+00 0. -1.
<mgrwt>
<rscale>  2 0.27852711E+02</rscale>
<asrwt>0</asrwt>
<pdfrwt beam="1">  1       21 0.47228821E-02 0.27852711E+02</pdfrwt>
<pdfrwt beam="2">  1       21 0.18061867E-01 0.27852711E+02</pdfrwt>
<totfact> 0.69394355E+06</totfact>
</mgrwt>
</event>
<event>
 4    1  0.2677450E+004  0.4230740E+02  0.7546771E-02  0.1491887E+00
         21   -1    0    0  501  502  0.00000000000E+00  0.00000000000E+00  0.30359959660E+02  0.30359959660E+02  0.00000000000E+00 0.  1.
         21   -1    0    0  502  503 -0.00000000000E+00 -0.00000000000E+00 -0.13008133753E+03  0.13008133753E+03  0.00000000000E+00 0. -1.
          2    1    1    2  501    0 -0.30886246369E+00  0.42306271815E+02  0.94577084855E+01  0.43351635271E+02  0.00000000000E+00 0.  1.
         -2    1    1    2    0  503  0.30886246369E+00 -0.42306271815E+02 -0.10917908635E+03  0.11708966192E+03  0.00000000000E+00 0. -1.
<mgrwt>
<rscale>  2 0.42307399E+02</rscale>
<asrwt>0</asrwt>
<pdfrwt beam="1">  1       21 0.46707630E-02 0.42307399E+02</pdfrwt>
<pdfrwt beam="2">  1       21 0.20012513E-01 0.42307399E+02</pdfrwt>
<totfact> 0.62352542E+06</totfact>
</mgrwt>
</event>
<event>
 4    1  0.2677450E+004  0.2331301E+02  0.7546771E-02  0.1686486E+00
         21   -1    0    0  501  502  0.00000000000E+00  0.00000000000E+00  0.12617106311E+03  0.12617106311E+03  0.00000000000E+00 0. -1.
         21   -1    0    0  502  503 -0.00000000000E+00 -0.00000000000E+00 -0.46001088538E+01  0.46001088538E+01  0.00000000000E+00 0.  1.
          2    1    1    2  501    0  0.20878114274E+02  0.10373088140E+02  0.77272979541E+02  0.80713133877E+02  0.00000000000E+00 0. -1.
         -2    1    1    2    0  503 -0.20878114274E+02 -0.10373088140E+02  0.44297974716E+02  0.50058038087E+02  0.00000000000E+00 0.  1.
<mgrwt>
<rscale>  2 0.23313014E+02</rscale>
<asrwt>0</asrwt>
<pdfrwt beam="1">  1       21 0.19410930E-01 0.23313014E+02</pdfrwt>
<pdfrwt beam="2">  1       21 0.70770915E-03 0.23313014E+02</pdfrwt>
<totfact> 0.10920851E+08</totfact>
</mgrwt>
</event>
<event>
 4    1  0.2677450E+004  0.2392240E+02  0.7546771E-02  0.1676980E+00
         21   -1    0    0  503  502  0.00000000000E+00  0.00000000000E+00  0.28482427396E+03  0.28482427396E+03  0.00000000000E+00 0.  1.
         21   -1    0    0  501  503 -0.00000000000E+00 -0.00000000000E+00 -0.24443374390E+01  0.24443374390E+01  0.00000000000E+00 0. -1.
          2    1    1    2  501    0 -0.82313712410E+01 -0.22461650508E+02  0.20178950447E+03  0.20320257215E+03  0.00000000000E+00 0.  1.
         -2    1    1    2    0  502  0.82313712410E+01  0.22461650508E+02  0.80590432049E+02  0.84066039243E+02  0.00000000000E+00 0. -1.
<mgrwt>
<rscale>  2 0.23922400E+02</rscale>
<asrwt>0</asrwt>
<pdfrwt beam="1">  1       21 0.43819093E-01 0.23922400E+02</pdfrwt>
<pdfrwt beam="2">  1       21 0.37605214E-03 0.23922400E+02</pdfrwt>
<totfact> 0.63647947E+07</totfact>
</mgrwt>
</event>
<event>
 4    1  0.2677450E+004  0.3228876E+02  0.7546771E-02  0.1574085E+00
         21   -1    0    0  503  502  0.00000000000E+00  0.00000000000E+00  0.16481002166E+03  0.16481002166E+03  0.00000000000E+00 0.  1.
         21   -1    0    0  501  503 -0.00000000000E+00 -0.00000000000E+00 -0.63870655462E+01  0.63870655462E+01  0.00000000000E+00 0. -1.
          2    1    1    2  501    0 -0.10033938349E+02  0.30690132906E+02  0.70831720300E+02  0.77844054219E+02  0.00000000000E+00 0.  1.
         -2    1    1    2    0  502  0.10033938349E+02 -0.30690132906E+02  0.87591235818E+02  0.93353032992E+02  0.00000000000E+00 0. -1.
<mgrwt>
<rscale>  2 0.32288762E+02</rscale>
<asrwt>0</asrwt>
<pdfrwt beam="1">  1       21 0.25355385E-01 0.32288762E+02</pdfrwt>
<pdfrwt beam="2">  1       21 0.98262560E-03 0.32288762E+02</pdfrwt>
<totfact> 0.44818173E+07</totfact>
</mgrwt>
</event>
<event>
 4    1  0.2677450E+004  0.2304879E+02  0.7546771E-02  0.1690720E+00
         21   -1    0    0  503  502  0.00000000000E+00  0.00000000000E+00  0.75394177937E+01  0.75394177937E+01  0.00000000000E+00 0.  1.
         21   -1    0    0  501  503 -0.00000000000E+00 -0.00000000000E+00 -0.10786571592E+03  0.10786571592E+03  0.00000000000E+00 0. -1.
          2    1    1    2  501    0 -0.17582436522E+02 -0.14903179265E+02 -0.84141901397E+02  0.87241655171E+02  0.00000000000E+00 0. -1.
         -2    1    1    2    0  502  0.17582436522E+02  0.14903179265E+02 -0.16184396734E+02  0.28163478547E+02  0.00000000000E+00 0.  1.
<mgrwt>
<rscale>  2 0.23048792E+02</rscale>
<asrwt>0</asrwt>
<pdfrwt beam="1">  1       21 0.11599104E-02 0.23048792E+02</pdfrwt>
<pdfrwt beam="2">  1       21 0.16594725E-01 0.23048792E+02</pdfrwt>
<totfact> 0.68090126E+07</totfact>
</mgrwt>
</event>
<event>
 4    1  0.2677450E+004  0.2152017E+02  0.7546771E-02  0.1716685E+00
         21   -1    0    0  501  502  0.00000000000E+00  0.00000000000E+00  0.53752712705E+03  0.53752712705E+03  0.00000000000E+00 0.  1.
         21   -1    0    0  502  503 -0.00000000000E+00 -0.00000000000E+00 -0.15580471183E+01  0.15580471183E+01  0.00000000000E+00 0. -1.
          2    1    1    2  501    0 -0.15258104442E+02 -0.15175900726E+02  0.44819925697E+03  0.44871560221E+03  0.00000000000E+00 0.  1.
         -2    1    1    2    0  503  0.15258104442E+02  0.15175900726E+02  0.87769822954E+02  0.90369571955E+02  0.00000000000E+00 0. -1.
<mgrwt>
<rscale>  2 0.21520170E+02</rscale>
<asrwt>0</asrwt>
<pdfrwt beam="1">  1       21 0.82696333E-01 0.21520170E+02</pdfrwt>
<pdfrwt beam="2">  1       21 0.23969998E-03 0.21520170E+02</pdfrwt>
<totfact> 0.33569263E+07</totfact>
</mgrwt>
</event>
<event>
 4    1  0.2677450E+004  0.5338408E+02  0.7546771E-02  0.1427899E+00
         21   -1    0    0  501  502  0.00000000000E+00  0.00000000000E+00  0.21821175775E+04  0.21821175775E+04  0.00000000000E+00 0.  1.
         21   -1    0    0  502  503 -0.00000000000E+00 -0.00000000000E+00 -0.38787208680E+01  0.38787208680E+01  0.00000000000E+00 0. -1.
          2    1    1    2  501    0 -0.21807975120E+02  0.48726499144E+02  0.19792853386E+04  0.19800051290E+04  0.00000000000E+00 0.  1.
         -2    1    1    2    0  503  0.21807975120E+02 -0.48726499144E+02  0.19895351811E+03  0.20599116939E+03  0.00000000000E+00 0. -1.
<mgrwt>
<rscale>  2 0.53384075E+02</rscale>
<asrwt>0</asrwt>
<pdfrwt beam="1">  1       21 0.33570942E+00 0.53384075E+02</pdfrwt>
<pdfrwt beam="2">  1       21 0.59672803E-03 0.53384075E+02</pdfrwt>
<totfact> 0.21742476E+05</totfact>
</mgrwt>
</event>
<event>
 4    1  0.2677450E+004  0.2232684E+02  0.7546771E-02  0.1702660E+00
         21   -1    0    0  503  502  0.00000000000E+00  0.00000000000E+00  0.12331521603E+03  0.12331521603E+03  0.00000000000E+00 0. -1.
         21   -1    0    0  501  503 -0.00000000000E+00 -0.00000000000E+00 -0.49734279364E+01  0.49734279364E+01  0.00000000000E+00 0.  1.
          2    1    1    2  501    0 -0.21972328037E+02 -0.39629050331E+01  0.31417588795E+02  0.38542868359E+02  0.00000000000E+00 0.  1.
         -2    1    1    2    0  502  0.21972328037E+02  0.39629050331E+01  0.86924199300E+02  0.89745775609E+02  0.00000000000E+00 0. -1.
<mgrwt>
<rscale>  2 0.22326841E+02</rscale>
<asrwt>0</asrwt>
<pdfrwt beam="1">  1       21 0.18971569E-01 0.22326841E+02</pdfrwt>
<pdfrwt beam="2">  1       21 0.76514285E-03 0.22326841E+02</pdfrwt>
<totfact> 0.99962164E+07</totfact>
</mgrwt>
</event>
<event>
 4    1  0.2677450E+004  0.2813634E+02  0.7546771E-02  0.1619652E+00
         21   -1    0    0  503  502  0.00000000000E+00  0.00000000000E+00  0.13617974798E+02  0.13617974798E+02  0.00000000000E+00 0.  1.
         21   -1    0    0  501  503 -0.00000000000E+00 -0.00000000000E+00 -0.60535411183E+02  0.60535411183E+02  0.00000000000E+00 0. -1.
          2    1    1    2  501    0 -0.21216457474E+02  0.18480134538E+02 -0.30844931215E+02  0.41750008646E+02  0.00000000000E+00 0.  1.
         -2    1    1    2    0  502  0.21216457474E+02 -0.18480134538E+02 -0.16072505169E+02  0.32403377335E+02  0.00000000000E+00 0. -1.
<mgrwt>
<rscale>  2 0.28136337E+02</rscale>
<asrwt>0</asrwt>
<pdfrwt beam="1">  1       21 0.20950731E-02 0.28136337E+02</pdfrwt>
<pdfrwt beam="2">  1       21 0.93131401E-02 0.28136337E+02</pdfrwt>
<totfact> 0.76903610E+07</totfact>
</mgrwt>
</event>
<event>
 4    1  0.2677450E+004  0.4298760E+02  0.7546771E-02  0.1487310E+00
         21   -1    0    0  501  502  0.00000000000E+00  0.00000000000E+00  0.86564426368E+03  0.86564426368E+03  0.00000000000E+00 0.  1.
         21   -1    0    0  502  503 -0.00000000000E+00 -0.00000000000E+00 -0.22934206678E+01  0.22934206678E+01  0.00000000000E+00 0. -1.
          2    1    1    2  501    0  0.25008110953E+02 -0.34964670024E+02  0.54582269242E+03  0.54751287229E+03  0.00000000000E+00 0.  1.
         -2    1    1    2    0  503 -0.25008110953E+02  0.34964670024E+02  0.31752815060E+03  0.32042481206E+03  0.00000000000E+00 0. -1.
<mgrwt>
<rscale>  2 0.42987600E+02</rscale>
<asrwt>0</asrwt>
<pdfrwt beam="1">  1       21 0.13317578E+00 0.42987600E+02</pdfrwt>
<pdfrwt beam="2">  1       21 0.35283464E-03 0.42987600E+02</pdfrwt>
<totfact> 0.72619720E+06</totfact>
</mgrwt>
</event>
<event>
 4    1  0.2677450E+004  0.2844634E+02  0.7546771E-02  0.1615926E+00
         21   -1    0    0  501  502  0.00000000000E+00  0.00000000000E+00  0.40700250645E+02  0.40700250645E+02  0.00000000000E+00 0. -1.
         21   -1    0    0  502  503 -0.00000000000E+00 -0.00000000000E+00 -0.21215189313E+02  0.21215189313E+02  0.00000000000E+00 0.  1.
          2    1    1    2  501    0 -0.27833914075E+02 -0.58709189248E+01  0.17503627867E+02  0.33400171410E+02  0.00000000000E+00 0. -1.
         -2    1    1    2    0  503  0.27833914075E+02  0.58709189248E+01  0.19814334656E+01  0.28515268547E+02  0.00000000000E+00 0.  1.
<mgrwt>
<rscale>  2 0.28446344E+02</rscale>
<asrwt>0</asrwt>
<pdfrwt beam="1">  1       21 0.62615770E-02 0.28446344E+02</pdfrwt>
<pdfrwt beam="2">  1       21 0.32638753E-02 0.28446344E+02</pdfrwt>
<totfact> 0.74046013E+07</totfact>
</mgrwt>
</event>
<event>
 4    1  0.2677450E+004  0.2149593E+02  0.7546771E-02  0.1717118E+00
         21   -1    0    0  501  502  0.00000000000E+00  0.00000000000E+00  0.70243356630E+03  0.70243356630E+03  0.00000000000E+00 0. -1.
         21   -1    0    0  502  503 -0.00000000000E+00 -0.00000000000E+00 -0.11437203494E+01  0.11437203494E+01  0.00000000000E+00 0.  1.
          2    1    1    2  501    0  0.19950626604E+02  0.80029686327E+01  0.57994035070E+03  0.58033859546E+03  0.00000000000E+00 0. -1.
         -2    1    1    2    0  503 -0.19950626604E+02 -0.80029686327E+01  0.12134949526E+03  0.12323869120E+03  0.00000000000E+00 0.  1.
<mgrwt>
<rscale>  2 0.21495930E+02</rscale>
<asrwt>0</asrwt>
<pdfrwt beam="1">  1       21 0.10806636E+00 0.21495930E+02</pdfrwt>
<pdfrwt beam="2">  1       21 0.17595754E-03 0.21495930E+02</pdfrwt>
<totfact> 0.29424089E+07</totfact>
</mgrwt>
</event>
<event>
 4    1  0.2677450E+004  0.3022184E+02  0.7546771E-02  0.1595649E+00
         21   -1    0    0  503  502  0.00000000000E+00  0.00000000000E+00  0.30082805233E+01  0.30082805233E+01  0.00000000000E+00 0. -1.
         21   -1    0    0  501  503 -0.00000000000E+00 -0.00000000000E+00 -0.32954370902E+03  0.32954370902E+03  0.00000000000E+00 0.  1.
          2    1    1    2  501    0 -0.76704832261E+01 -0.29232232559E+02 -0.20990805355E+03  0.21207251278E+03  0.00000000000E+00 0.  1.
         -2    1    1    2    0  502  0.76704832261E+01  0.29232232559E+02 -0.11662737496E+03  0.12047947677E+03  0.00000000000E+00 0. -1.
<mgrwt>
<rscale>  2 0.30221842E+02</rscale>
<asrwt>0</asrwt>
<pdfrwt beam="1">  1       21 0.46281249E-03 0.30221842E+02</pdfrwt>
<pdfrwt beam="2">  1       21 0.50699021E-01 0.30221842E+02</pdfrwt>
<totfact> 0.37123171E+07</totfact>
</mgrwt>
</event>
<event>
 4    1  0.2677450E+004  0.2966928E+02  0.7546771E-02  0.1601773E+00
         21   -1    0    0  501  502  0.00000000000E+00  0.00000000000E+00  0.15790910815E+02  0.15790910815E+02  0.00000000000E+00 0.  1.
         21   -1    0    0  502  503 -0.00000000000E+00 -0.00000000000E+00 -0.77242928779E+02  0.77242928779E+02  0.00000000000E+00 0. -1.
          2    1    1    2  501    0 -0.37934266149E+01  0.29425773214E+02 -0.61857759022E+01  0.30307260487E+02  0.00000000000E+00 0.  1.
         -2    1    1    2    0  503  0.37934266149E+01 -0.29425773214E+02 -0.55266242062E+02  0.62726579107E+02  0.00000000000E+00 0. -1.
<mgrwt>
<rscale>  2 0.29669281E+02</rscale>
<asrwt>0</asrwt>
<pdfrwt beam="1">  1       21 0.24293709E-02 0.29669281E+02</pdfrwt>
<pdfrwt beam="2">  1       21 0.11883527E-01 0.29669281E+02</pdfrwt>
<totfact> 0.41128079E+07</totfact>
</mgrwt>
</event>
<event>
 4    1  0.2677450E+004  0.2411190E+02  0.7546771E-02  0.1674096E+00
         21   -1    0    0  503  502  0.00000000000E+00  0.00000000000E+00  0.93451045104E+02  0.93451045104E+02  0.00000000000E+00 0.  1.
         21   -1    0    0  501  503 -0.00000000000E+00 -0.00000000000E+00 -0.97827316422E+01  0.97827316422E+01  0.00000000000E+00 0. -1.
          2    1    1    2  501    0 -0.23224274531E+02 -0.64820480625E+01  0.10690035060E+02  0.26375381024E+02  0.00000000000E+00 0. -1.
         -2    1    1    2    0  502  0.23224274531E+02  0.64820480625E+01  0.72978278402E+02  0.76858395722E+02  0.00000000000E+00 0.  1.
<mgrwt>
<rscale>  2 0.24111903E+02</rscale>
<asrwt>0</asrwt>
<pdfrwt beam="1">  1       21 0.14377083E-01 0.24111903E+02</pdfrwt>
<pdfrwt beam="2">  1       21 0.15050357E-02 0.24111903E+02</pdfrwt>
<totfact> 0.59322765E+07</totfact>
</mgrwt>
</event>
<event>
 4    1  0.2677450E+004  0.2134285E+02  0.7546771E-02  0.1719871E+00
         21   -1    0    0  503  502  0.00000000000E+00  0.00000000000E+00  0.79744839813E+01  0.79744839813E+01  0.00000000000E+00 0.  1.
         21   -1    0    0  501  503 -0.00000000000E+00 -0.00000000000E+00 -0.11433157591E+03  0.11433157591E+03  0.00000000000E+00 0. -1.
          2    1    1    2  501    0 -0.13158580539E+02 -0.16803841214E+02 -0.96436880788E+02  0.98770386744E+02  0.00000000000E+00 0. -1.
         -2    1    1    2    0  502  0.13158580539E+02  0.16803841214E+02 -0.99202111366E+01  0.23535673144E+02  0.00000000000E+00 0.  1.
<mgrwt>
<rscale>  2 0.21342852E+02</rscale>
<asrwt>0</asrwt>
<pdfrwt beam="1">  1       21 0.12268438E-02 0.21342852E+02</pdfrwt>
<pdfrwt beam="2">  1       21 0.17589472E-01 0.21342852E+02</pdfrwt>
<totfact> 0.55477375E+07</totfact>
</mgrwt>
</event>
<event>
 4    1  0.2677450E+004  0.2326938E+02  0.7546771E-02  0.1687180E+00
         21   -1    0    0  501  502  0.00000000000E+00  0.00000000000E+00  0.16033937872E+01  0.16033937872E+01  0.00000000000E+00 0.  1.
         21   -1    0    0  502  503 -0.00000000000E+00 -0.00000000000E+00 -0.12736205844E+04  0.12736205844E+04  0.00000000000E+00 0. -1.
          2    1    1    2  501    0  0.16889298405E+02 -0.16006743066E+02 -0.89425484347E+02  0.92403362898E+02  0.00000000000E+00 0.  1.
         -2    1    1    2    0  503 -0.16889298405E+02  0.16006743066E+02 -0.11825917062E+04  0.11828206152E+04  0.00000000000E+00 0. -1.
<mgrwt>
<rscale>  2 0.23269384E+02</rscale>
<asrwt>0</asrwt>
<pdfrwt beam="1">  1       21 0.24667593E-03 0.23269384E+02</pdfrwt>
<pdfrwt beam="2">  1       21 0.19594165E+00 0.23269384E+02</pdfrwt>
<totfact> 0.44829760E+06</totfact>
</mgrwt>
</event>
<event>
 4    1  0.2677450E+004  0.2613830E+02  0.7546771E-02  0.1645171E+00
         21   -1    0    0  501  502  0.00000000000E+00  0.00000000000E+00  0.53836941572E+00  0.53836941572E+00  0.00000000000E+00 0. -1.
         21   -1    0    0  502  503 -0.00000000000E+00 -0.00000000000E+00 -0.14665108267E+04  0.14665108267E+04  0.00000000000E+00 0.  1.
          2    1    1    2  501    0 -0.25441605260E+02 -0.59946386084E+01 -0.46381646006E+03  0.46455238628E+03  0.00000000000E+00 0. -1.
         -2    1    1    2    0  503  0.25441605260E+02  0.59946386084E+01 -0.10021559972E+04  0.10024968099E+04  0.00000000000E+00 0.  1.
<mgrwt>
<rscale>  2 0.26138305E+02</rscale>
<asrwt>0</asrwt>
<pdfrwt beam="1">  1       21 0.82825032E-04 0.26138305E+02</pdfrwt>
<pdfrwt beam="2">  1       21 0.22561986E+00 0.26138305E+02</pdfrwt>
<totfact> 0.14991575E+07</totfact>
</mgrwt>
</event>
<event>
 4    1  0.2677450E+004  0.2372981E+02  0.7546771E-02  0.1679946E+00
         21   -1    0    0  503  502  0.00000000000E+00  0.00000000000E+00  0.82571581703E+01  0.82571581703E+01  0.00000000000E+00 0. -1.
         21   -1    0    0  501  503 -0.00000000000E+00 -0.00000000000E+00 -0.71805149295E+02  0.71805149295E+02  0.00000000000E+00 0.  1.
          2    1    1    2  501    0  0.58657606676E+01  0.22993410772E+02 -0.40748914671E+02  0.47154831502E+02  0.00000000000E+00 0.  1.
         -2    1    1    2    0  502 -0.58657606676E+01 -0.22993410772E+02 -0.22799076453E+02  0.32907475963E+02  0.00000000000E+00 0. -1.
<mgrwt>
<rscale>  2 0.23729814E+02</rscale>
<asrwt>0</asrwt>
<pdfrwt beam="1">  1       21 0.12703320E-02 0.23729814E+02</pdfrwt>
<pdfrwt beam="2">  1       21 0.11046946E-01 0.23729814E+02</pdfrwt>
<totfact> 0.11905298E+08</totfact>
</mgrwt>
</event>
<event>
 4    1  0.2677450E+004  0.2252642E+02  0.7546771E-02  0.1699304E+00
         21   -1    0    0  501  502  0.00000000000E+00  0.00000000000E+00  0.18510659630E+03  0.18510659630E+03  0.00000000000E+00 0. -1.
         21   -1    0    0  502  503 -0.00000000000E+00 -0.00000000000E+00 -0.35906308518E+01  0.35906308518E+01  0.00000000000E+00 0.  1.
          2    1    1    2  501    0 -0.16326101108E+02  0.15520884095E+02  0.13664389054E+03  0.13848823865E+03  0.00000000000E+00 0. -1.
         -2    1    1    2    0  503  0.16326101108E+02 -0.15520884095E+02  0.44872074904E+02  0.50208988505E+02  0.00000000000E+00 0.  1.
<mgrwt>
<rscale>  2 0.22526416E+02</rscale>
<asrwt>0</asrwt>
<pdfrwt beam="1">  1       21 0.28477931E-01 0.22526416E+02</pdfrwt>
<pdfrwt beam="2">  1       21 0.55240489E-03 0.22526416E+02</pdfrwt>
<totfact> 0.79202854E+07</totfact>
</mgrwt>
</event>
<event>
 4    1  0.2677450E+004  0.2685784E+02  0.7546771E-02  0.1635667E+00
         21   -1    0    0  503  502  0.00000000000E+00  0.00000000000E+00  0.66448943028E+00  0.66448943028E+00  0.00000000000E+00 0.  1.
         21   -1    0    0  501  503 -0.00000000000E+00 -0.00000000000E+00 -0.11576826217E+04  0.11576826217E+04  0.00000000000E+00 0. -1.
          2    1    1    2  501    0  0.19038785306E+02  0.18943820373E+02 -0.72306879228E+03  0.72356742744E+03  0.00000000000E+00 0. -1.
         -2    1    1    2    0  502 -0.19038785306E+02 -0.18943820373E+02 -0.43394933997E+03  0.43477968367E+03  0.00000000000E+00 0.  1.
<mgrwt>
<rscale>  2 0.26857842E+02</rscale>
<asrwt>0</asrwt>
<pdfrwt beam="1">  1       21 0.10223000E-03 0.26857842E+02</pdfrwt>
<pdfrwt beam="2">  1       21 0.17810352E+00 0.26857842E+02</pdfrwt>
<totfact> 0.20656306E+07</totfact>
</mgrwt>
</event>
<event>
 4    1  0.2677450E+004  0.3747856E+02  0.7546771E-02  0.1527631E+00
         21   -1    0    0  501  502  0.00000000000E+00  0.00000000000E+00  0.11032778618E+01  0.11032778618E+01  0.00000000000E+00 0.  1.
         21   -1    0    0  502  503 -0.00000000000E+00 -0.00000000000E+00 -0.13723080710E+04  0.13723080710E+04  0.00000000000E+00 0. -1.
          2    1    1    2  501    0  0.32153937101E+02 -0.19255309712E+02 -0.50101582574E+03  0.50241566482E+03  0.00000000000E+00 0.  1.
         -2    1    1    2    0  503 -0.32153937101E+02  0.19255309712E+02 -0.87018896744E+03  0.87099568408E+03  0.00000000000E+00 0. -1.
<mgrwt>
<rscale>  2 0.37478562E+02</rscale>
<asrwt>0</asrwt>
<pdfrwt beam="1">  1       21 0.16973549E-03 0.37478562E+02</pdfrwt>
<pdfrwt beam="2">  1       21 0.21112378E+00 0.37478562E+02</pdfrwt>
<totfact> 0.65643063E+06</totfact>
</mgrwt>
</event>
<event>
 4    1  0.2677450E+004  0.2109224E+02  0.7546771E-02  0.1724441E+00
         21   -1    0    0  503  502  0.00000000000E+00  0.00000000000E+00  0.60423176745E+01  0.60423176745E+01  0.00000000000E+00 0.  1.
         21   -1    0    0  501  503 -0.00000000000E+00 -0.00000000000E+00 -0.26670181395E+03  0.26670181395E+03  0.00000000000E+00 0. -1.
          2    1    1    2  501    0 -0.20948847862E+02  0.24552890454E+01 -0.24636082590E+03  0.24726208607E+03  0.00000000000E+00 0. -1.
         -2    1    1    2    0  502  0.20948847862E+02 -0.24552890454E+01 -0.14298670378E+02  0.25482045554E+02  0.00000000000E+00 0.  1.
<mgrwt>
<rscale>  2 0.21092242E+02</rscale>
<asrwt>0</asrwt>
<pdfrwt beam="1">  1       21 0.92958739E-03 0.21092242E+02</pdfrwt>
<pdfrwt beam="2">  1       21 0.41031046E-01 0.21092242E+02</pdfrwt>
<totfact> 0.18355322E+07</totfact>
</mgrwt>
</event>
<event>
 4    1  0.2677450E+004  0.2587431E+02  0.7546771E-02  0.1648752E+00
         21   -1    0    0  503  502  0.00000000000E+00  0.00000000000E+00  0.40443687428E+03  0.40443687428E+03  0.00000000000E+00 0. -1.
         21   -1    0    0  501  503 -0.00000000000E+00 -0.00000000000E+00 -0.21292295812E+01  0.21292295812E+01  0.00000000000E+00 0.  1.
          2    1    1    2  501    0  0.25597858438E+02  0.37721839535E+01  0.10525143436E+03  0.10838516579E+03  0.00000000000E+00 0.  1.
         -2    1    1    2    0  502 -0.25597858438E+02 -0.37721839535E+01  0.29705621034E+03  0.29818093808E+03  0.00000000000E+00 0. -1.
<mgrwt>
<rscale>  2 0.25874306E+02</rscale>
<asrwt>0</asrwt>
<pdfrwt beam="1">  1       21 0.62220997E-01 0.25874306E+02</pdfrwt>
<pdfrwt beam="2">  1       21 0.32757410E-03 0.25874306E+02</pdfrwt>
<totfact> 0.39828157E+07</totfact>
</mgrwt>
</event>
<event>
 4    1  0.2677450E+004  0.5466644E+02  0.7546771E-02  0.1421683E+00
         21   -1    0    0  501  502  0.00000000000E+00  0.00000000000E+00  0.12038649069E+03  0.12038649069E+03  0.00000000000E+00 0. -1.
         21   -1    0    0  502  503 -0.00000000000E+00 -0.00000000000E+00 -0.24825284884E+02  0.24825284884E+02  0.00000000000E+00 0.  1.
          2    1    1    2  501    0 -0.53596680383E+02  0.10761769076E+02  0.47173281114E+02  0.72206220458E+02  0.00000000000E+00 0. -1.
         -2    1    1    2    0  503  0.53596680383E+02 -0.10761769076E+02  0.48387924693E+02  0.73005555116E+02  0.00000000000E+00 0.  1.
<mgrwt>
<rscale>  2 0.54666441E+02</rscale>
<asrwt>0</asrwt>
<pdfrwt beam="1">  1       21 0.18520998E-01 0.54666441E+02</pdfrwt>
<pdfrwt beam="2">  1       21 0.38192747E-02 0.54666441E+02</pdfrwt>
<totfact> 0.10215550E+07</totfact>
</mgrwt>
</event>
<event>
 4    1  0.2677450E+004  0.2865313E+02  0.7546771E-02  0.1613472E+00
         21   -1    0    0  501  502  0.00000000000E+00  0.00000000000E+00  0.52998704037E+03  0.52998704037E+03  0.00000000000E+00 0.  1.
         21   -1    0    0  502  503 -0.00000000000E+00 -0.00000000000E+00 -0.20481635171E+01  0.20481635171E+01  0.00000000000E+00 0. -1.
          2    1    1    2  501    0 -0.35803411202E+01  0.28428561095E+02  0.39528215624E+03  0.39631929674E+03  0.00000000000E+00 0.  1.
         -2    1    1    2    0  503  0.35803411202E+01 -0.28428561095E+02  0.13265672062E+03  0.13571590715E+03  0.00000000000E+00 0. -1.
<mgrwt>
<rscale>  2 0.28653131E+02</rscale>
<asrwt>0</asrwt>
<pdfrwt beam="1">  1       21 0.81536358E-01 0.28653131E+02</pdfrwt>
<pdfrwt beam="2">  1       21 0.31510250E-03 0.28653131E+02</pdfrwt>
<totfact> 0.24555001E+07</totfact>
</mgrwt>
</event>
<event>
 4    1  0.2677450E+004  0.2582184E+02  0.7546771E-02  0.1649471E+00
         21   -1    0    0  503  502  0.00000000000E+00  0.00000000000E+00  0.34060377266E+03  0.34060377266E+03  0.00000000000E+00 0. -1.
         21   -1    0    0  501  503 -0.00000000000E+00 -0.00000000000E+00 -0.22162948697E+01  0.22162948697E+01  0.00000000000E+00 0.  1.
          2    1    1    2  501    0  0.82613570649E+01  0.24464613061E+02  0.11063212891E+03  0.11360561280E+03  0.00000000000E+00 0.  1.
         -2    1    1    2    0  502 -0.82613570649E+01 -0.24464613061E+02  0.22775534889E+03  0.22921445473E+03  0.00000000000E+00 0. -1.
<mgrwt>
<rscale>  2 0.25821838E+02</rscale>
<asrwt>0</asrwt>
<pdfrwt beam="1">  1       21 0.52400539E-01 0.25821838E+02</pdfrwt>
<pdfrwt beam="2">  1       21 0.34096871E-03 0.25821838E+02</pdfrwt>
<totfact> 0.52868519E+07</totfact>
</mgrwt>
</event>
<event>
 4    1  0.2677450E+004  0.2685402E+02  0.7546771E-02  0.1635716E+00
         21   -1    0    0  501  502  0.00000000000E+00  0.00000000000E+00  0.67752816607E+02  0.67752816607E+02  0.00000000000E+00 0. -1.
         21   -1    0    0  502  503 -0.00000000000E+00 -0.00000000000E+00 -0.10746105229E+02  0.10746105229E+02  0.00000000000E+00 0.  1.
          2    1    1    2  501    0 -0.25730474640E+02 -0.76864124670E+01  0.32335519612E+02  0.42032417137E+02  0.00000000000E+00 0.  1.
         -2    1    1    2    0  503  0.25730474640E+02  0.76864124670E+01  0.24671191766E+02  0.36466504699E+02  0.00000000000E+00 0. -1.
<mgrwt>
<rscale>  2 0.26854018E+02</rscale>
<asrwt>0</asrwt>
<pdfrwt beam="1">  1       21 0.10423510E-01 0.26854018E+02</pdfrwt>
<pdfrwt beam="2">  1       21 0.16532470E-02 0.26854018E+02</pdfrwt>
<totfact> 0.90754036E+07</totfact>
</mgrwt>
</event>
<event>
 4    1  0.2677450E+004  0.3259687E+02  0.7546771E-02  0.1571039E+00
         21   -1    0    0  503  502  0.00000000000E+00  0.00000000000E+00  0.27538937477E+01  0.27538937477E+01  0.00000000000E+00 0.  1.
         21   -1    0    0  501  503 -0.00000000000E+00 -0.00000000000E+00 -0.46506128708E+03  0.46506128708E+03  0.00000000000E+00 0. -1.
          2    1    1    2  501    0 -0.50004386795E+01 -0.32211043392E+02 -0.32769580891E+03  0.32931307123E+03  0.00000000000E+00 0. -1.
         -2    1    1    2    0  502  0.50004386795E+01  0.32211043392E+02 -0.13461158443E+03  0.13850210961E+03  0.00000000000E+00 0.  1.
<mgrwt>
<rscale>  2 0.32596866E+02</rscale>
<asrwt>0</asrwt>
<pdfrwt beam="1">  1       21 0.42367611E-03 0.32596866E+02</pdfrwt>
<pdfrwt beam="2">  1       21 0.71547866E-01 0.32596866E+02</pdfrwt>
<totfact> 0.21334924E+07</totfact>
</mgrwt>
</event>
<event>
 4    1  0.2677450E+004  0.2124295E+02  0.7546771E-02  0.1721683E+00
         21   -1    0    0  503  502  0.00000000000E+00  0.00000000000E+00  0.40726118902E+02  0.40726118902E+02  0.00000000000E+00 0.  1.
         21   -1    0    0  501  503 -0.00000000000E+00 -0.00000000000E+00 -0.12926703483E+02  0.12926703483E+02  0.00000000000E+00 0. -1.
          2    1    1    2  501    0  0.21147432704E+02 -0.20122124937E+01  0.37613712160E+01  0.21573382269E+02  0.00000000000E+00 0. -1.
         -2    1    1    2    0  502 -0.21147432704E+02  0.20122124937E+01  0.24038044203E+02  0.32079440117E+02  0.00000000000E+00 0.  1.
<mgrwt>
<rscale>  2 0.21242950E+02</rscale>
<asrwt>0</asrwt>
<pdfrwt beam="1">  1       21 0.62655567E-02 0.21242950E+02</pdfrwt>
<pdfrwt beam="2">  1       21 0.19887236E-02 0.21242950E+02</pdfrwt>
<totfact> 0.14715681E+08</totfact>
</mgrwt>
</event>
<event>
 4    1  0.2677450E+004  0.2727619E+02  0.7546771E-02  0.1630308E+00
         21   -1    0    0  503  502  0.00000000000E+00  0.00000000000E+00  0.56196600246E+03  0.56196600246E+03  0.00000000000E+00 0.  1.
         21   -1    0    0  501  503 -0.00000000000E+00 -0.00000000000E+00 -0.21749083989E+01  0.21749083989E+01  0.00000000000E+00 0. -1.
          2    1    1    2  501    0  0.27261026034E+02  0.90950332160E+00  0.10345343570E+03  0.10698880360E+03  0.00000000000E+00 0. -1.
         -2    1    1    2    0  502 -0.27261026034E+02 -0.90950332160E+00  0.45633765835E+03  0.45715210726E+03  0.00000000000E+00 0.  1.
<mgrwt>
<rscale>  2 0.27276194E+02</rscale>
<asrwt>0</asrwt>
<pdfrwt beam="1">  1       21 0.86456193E-01 0.27276194E+02</pdfrwt>
<pdfrwt beam="2">  1       21 0.33460174E-03 0.27276194E+02</pdfrwt>
<totfact> 0.19670718E+07</totfact>
</mgrwt>
</event>
<event>
 4    1  0.2677450E+004  0.3056574E+02  0.7546771E-02  0.1591918E+00
         21   -1    0    0  503  502  0.00000000000E+00  0.00000000000E+00  0.97024071818E+03  0.97024071818E+03  0.00000000000E+00 0.  1.
         21   -1    0    0  501  503 -0.00000000000E+00 -0.00000000000E+00 -0.97532036669E+00  0.97532036669E+00  0.00000000000E+00 0. -1.
          2    1    1    2  501    0 -0.27525434750E+02 -0.13289650926E+02  0.53938798879E+03  0.54025333579E+03  0.00000000000E+00 0.  1.
         -2    1    1    2    0  502  0.27525434750E+02  0.13289650926E+02  0.42987740902E+03  0.43096270276E+03  0.00000000000E+00 0. -1.
<mgrwt>
<rscale>  2 0.30565739E+02</rscale>
<asrwt>0</asrwt>
<pdfrwt beam="1">  1       21 0.14926703E+00 0.30565739E+02</pdfrwt>
<pdfrwt beam="2">  1       21 0.15005006E-03 0.30565739E+02</pdfrwt>
<totfact> 0.18676136E+07</totfact>
</mgrwt>
</event>
<event>
 4    1  0.2677450E+004  0.2001506E+02  0.7546771E-02  0.1745029E+00
         21   -1    0    0  501  502  0.00000000000E+00  0.00000000000E+00  0.66480008784E+00  0.66480008784E+00  0.00000000000E+00 0. -1.
         21   -1    0    0  502  503 -0.00000000000E+00 -0.00000000000E+00 -0.83004827658E+03  0.83004827658E+03  0.00000000000E+00 0.  1.
          2    1    1    2  501    0 -0.17920870948E+02  0.89131969294E+01 -0.19726192943E+03  0.19827473742E+03  0.00000000000E+00 0. -1.
         -2    1    1    2    0  503  0.17920870948E+02 -0.89131969294E+01 -0.63212154706E+03  0.63243833925E+03  0.00000000000E+00 0.  1.
<mgrwt>
<rscale>  2 0.20015062E+02</rscale>
<asrwt>0</asrwt>
<pdfrwt beam="1">  1       21 0.10227715E-03 0.20015062E+02</pdfrwt>
<pdfrwt beam="2">  1       21 0.12769947E+00 0.20015062E+02</pdfrwt>
<totfact> 0.43216144E+07</totfact>
</mgrwt>
</event>
<event>
 4    1  0.2677450E+004  0.3399713E+02  0.7546771E-02  0.1557691E+00
         21   -1    0    0  501  502  0.00000000000E+00  0.00000000000E+00  0.22620887399E+02  0.22620887399E+02  0.00000000000E+00 0. -1.
         21   -1    0    0  502  503 -0.00000000000E+00 -0.00000000000E+00 -0.57804961606E+02  0.57804961606E+02  0.00000000000E+00 0.  1.
          2    1    1    2  501    0 -0.21917588090E+02 -0.25988919327E+02 -0.38908903770E+01  0.34219053514E+02  0.00000000000E+00 0. -1.
         -2    1    1    2    0  503  0.21917588090E+02  0.25988919327E+02 -0.31293183830E+02  0.46206795492E+02  0.00000000000E+00 0.  1.
<mgrwt>
<rscale>  2 0.33997126E+02</rscale>
<asrwt>0</asrwt>
<pdfrwt beam="1">  1       21 0.34801366E-02 0.33997126E+02</pdfrwt>
<pdfrwt beam="2">  1       21 0.88930709E-02 0.33997126E+02</pdfrwt>
<totfact> 0.39076894E+07</totfact>
</mgrwt>
</event>
<event>
 4    1  0.2677450E+004  0.2295593E+02  0.7546771E-02  0.1692225E+00
         21   -1    0    0  501  502  0.00000000000E+00  0.00000000000E+00  0.56939339084E+01  0.56939339084E+01  0.00000000000E+00 0.  1.
         21   -1    0    0  502  503 -0.00000000000E+00 -0.00000000000E+00 -0.16616555693E+03  0.16616555693E+03  0.00000000000E+00 0. -1.
          2    1    1    2  501    0 -0.19399982891E+02  0.12272548134E+02 -0.23040924605E+02  0.32524744127E+02  0.00000000000E+00 0. -1.
         -2    1    1    2    0  503  0.19399982891E+02 -0.12272548134E+02 -0.13743069842E+03  0.13933474671E+03  0.00000000000E+00 0.  1.
<mgrwt>
<rscale>  2 0.22955931E+02</rscale>
<asrwt>0</asrwt>
<pdfrwt beam="1">  1       21 0.87598984E-03 0.22955931E+02</pdfrwt>
<pdfrwt beam="2">  1       21 0.25563932E-01 0.22955931E+02</pdfrwt>
<totfact> 0.48680689E+07</totfact>
</mgrwt>
</event>
<event>
 4    1  0.2677450E+004  0.2342899E+02  0.7546771E-02  0.1684649E+00
         21   -1    0    0  501  502  0.00000000000E+00  0.00000000000E+00  0.15672613412E+03  0.15672613412E+03  0.00000000000E+00 0. -1.
         21   -1    0    0  502  503 -0.00000000000E+00 -0.00000000000E+00 -0.53563612474E+01  0.53563612474E+01  0.00000000000E+00 0.  1.
          2    1    1    2  501    0  0.23287477179E+02  0.25711433949E+01  0.12336328884E+03  0.12556838139E+03  0.00000000000E+00 0. -1.
         -2    1    1    2    0  503 -0.23287477179E+02 -0.25711433949E+01  0.28006484038E+02  0.36514113982E+02  0.00000000000E+00 0.  1.
<mgrwt>
<rscale>  2 0.23428986E+02</rscale>
<asrwt>0</asrwt>
<pdfrwt beam="1">  1       21 0.24111709E-01 0.23428986E+02</pdfrwt>
<pdfrwt beam="2">  1       21 0.82405570E-03 0.23428986E+02</pdfrwt>
<totfact> 0.59503849E+07</totfact>
</mgrwt>
</event>
<event>
 4    1  0.2677450E+004  0.2517019E+02  0.7546771E-02  0.1658569E+00
         21   -1    0    0  501  502  0.00000000000E+00  0.00000000000E+00  0.23235718139E+02  0.23235718139E+02  0.00000000000E+00 0. -1.
         21   -1    0    0  502  503 -0.00000000000E+00 -0.00000000000E+00 -0.30942872857E+02  0.30942872857E+02  0.00000000000E+00 0.  1.
          2    1    1    2  501    0  0.15384036314E+02  0.19921590471E+02  0.54848524231E+01  0.25760860744E+02  0.00000000000E+00 0. -1.
         -2    1    1    2    0  503 -0.15384036314E+02 -0.19921590471E+02 -0.13192007141E+02  0.28417730251E+02  0.00000000000E+00 0.  1.
<mgrwt>
<rscale>  2 0.25170188E+02</rscale>
<asrwt>0</asrwt>
<pdfrwt beam="1">  1       21 0.35747259E-02 0.25170188E+02</pdfrwt>
<pdfrwt beam="2">  1       21 0.47604420E-02 0.25170188E+02</pdfrwt>
<totfact> 0.96628554E+07</totfact>
</mgrwt>
</event>
<event>
 4    1  0.2677450E+004  0.3601279E+02  0.7546771E-02  0.1539786E+00
         21   -1    0    0  501  502  0.00000000000E+00  0.00000000000E+00  0.50922305162E+01  0.50922305162E+01  0.00000000000E+00 0. -1.
         21   -1    0    0  502  503 -0.00000000000E+00 -0.00000000000E+00 -0.30014805924E+03  0.30014805924E+03  0.00000000000E+00 0.  1.
          2    1    1    2  501    0 -0.30643927115E+02 -0.18917466888E+02 -0.88130477532E+02  0.95204526639E+02  0.00000000000E+00 0. -1.
         -2    1    1    2    0  503  0.30643927115E+02  0.18917466888E+02 -0.20692535119E+03  0.21003576312E+03  0.00000000000E+00 0.  1.
<mgrwt>
<rscale>  2 0.36012787E+02</rscale>
<asrwt>0</asrwt>
<pdfrwt beam="1">  1       21 0.78341982E-03 0.36012787E+02</pdfrwt>
<pdfrwt beam="2">  1       21 0.46176640E-01 0.36012787E+02</pdfrwt>
<totfact> 0.20887634E+07</totfact>
</mgrwt>
</event>
<event>
 4    1  0.2677450E+004  0.2049194E+02  0.7546771E-02  0.1735718E+00
         21   -1    0    0  503  502  0.00000000000E+00  0.00000000000E+00  0.40563668770E+02  0.40563668770E+02  0.00000000000E+00 0.  1.
         21   -1    0    0  501  503 -0.00000000000E+00 -0.00000000000E+00 -0.20241237792E+02  0.20241237792E+02  0.00000000000E+00 0. -1.
          2    1    1    2  501    0 -0.19586260727E+02  0.60247974160E+01 -0.11089275324E+02  0.23300039064E+02  0.00000000000E+00 0. -1.
         -2    1    1    2    0  502  0.19586260727E+02 -0.60247974160E+01  0.31411706303E+02  0.37504867498E+02  0.00000000000E+00 0.  1.
<mgrwt>
<rscale>  2 0.20491945E+02</rscale>
<asrwt>0</asrwt>
<pdfrwt beam="1">  1       21 0.62405644E-02 0.20491945E+02</pdfrwt>
<pdfrwt beam="2">  1       21 0.31140366E-02 0.20491945E+02</pdfrwt>
<totfact> 0.73437512E+07</totfact>
</mgrwt>
</event>
<event>
 4    1  0.2677450E+004  0.5785900E+02  0.7546771E-02  0.1407043E+00
         21   -1    0    0  503  502  0.00000000000E+00  0.00000000000E+00  0.79669707913E+03  0.79669707913E+03  0.00000000000E+00 0.  1.
         21   -1    0    0  501  503 -0.00000000000E+00 -0.00000000000E+00 -0.12109214285E+02  0.12109214285E+02  0.00000000000E+00 0. -1.
          2    1    1    2  501    0 -0.55760016184E+02 -0.15442951332E+02  0.65502800957E+02  0.87397260162E+02  0.00000000000E+00 0. -1.
         -2    1    1    2    0  502  0.55760016184E+02  0.15442951332E+02  0.71908506389E+03  0.72140903325E+03  0.00000000000E+00 0.  1.
<mgrwt>
<rscale>  2 0.57859002E+02</rscale>
<asrwt>0</asrwt>
<pdfrwt beam="1">  1       21 0.12256874E+00 0.57859002E+02</pdfrwt>
<pdfrwt beam="2">  1       21 0.18629567E-02 0.57859002E+02</pdfrwt>
<totfact> 0.70262027E+05</totfact>
</mgrwt>
</event>
<event>
 4    1  0.2677450E+004  0.2547341E+02  0.7546771E-02  0.1654294E+00
         21   -1    0    0  501  502  0.00000000000E+00  0.00000000000E+00  0.11709975762E+01  0.11709975762E+01  0.00000000000E+00 0. -1.
         21   -1    0    0  502  503 -0.00000000000E+00 -0.00000000000E+00 -0.71588905008E+03  0.71588905008E+03  0.00000000000E+00 0.  1.
          2    1    1    2  501    0  0.22709598560E+02  0.11539884670E+02 -0.18693705129E+03  0.18866466534E+03  0.00000000000E+00 0. -1.
         -2    1    1    2    0  503 -0.22709598560E+02 -0.11539884670E+02 -0.52778100122E+03  0.52839538232E+03  0.00000000000E+00 0.  1.
<mgrwt>
<rscale>  2 0.25473414E+02</rscale>
<asrwt>0</asrwt>
<pdfrwt beam="1">  1       21 0.18015250E-03 0.25473414E+02</pdfrwt>
<pdfrwt beam="2">  1       21 0.11013737E+00 0.25473414E+02</pdfrwt>
<totfact> 0.28181540E+07</totfact>
</mgrwt>
</event>
<event>
 4    1  0.2677450E+004  0.3312965E+02  0.7546771E-02  0.1565866E+00
         21   -1    0    0  503  502  0.00000000000E+00  0.00000000000E+00  0.35893565633E+02  0.35893565633E+02  0.00000000000E+00 0. -1.
         21   -1    0    0  501  503 -0.00000000000E+00 -0.00000000000E+00 -0.77410544005E+02  0.77410544005E+02  0.00000000000E+00 0.  1.
          2    1    1    2  501    0 -0.14253574754E+02  0.29906675602E+02 -0.64822789040E+02  0.72798129219E+02  0.00000000000E+00 0.  1.
         -2    1    1    2    0  502  0.14253574754E+02 -0.29906675602E+02  0.23305810668E+02  0.40505980419E+02  0.00000000000E+00 0. -1.
<mgrwt>
<rscale>  2 0.33129649E+02</rscale>
<asrwt>0</asrwt>
<pdfrwt beam="1">  1       21 0.55220871E-02 0.33129649E+02</pdfrwt>
<pdfrwt beam="2">  1       21 0.11909314E-01 0.33129649E+02</pdfrwt>
<totfact> 0.11343228E+07</totfact>
</mgrwt>
</event>
<event>
 4    1  0.2677450E+004  0.2217763E+02  0.7546771E-02  0.1705198E+00
         21   -1    0    0  503  502  0.00000000000E+00  0.00000000000E+00  0.43344648662E+03  0.43344648662E+03  0.00000000000E+00 0. -1.
         21   -1    0    0  501  503 -0.00000000000E+00 -0.00000000000E+00 -0.11546807150E+01  0.11546807150E+01  0.00000000000E+00 0.  1.
          2    1    1    2  501    0 -0.11692776328E+02  0.18844790845E+02  0.18758656213E+03  0.18889300001E+03  0.00000000000E+00 0. -1.
         -2    1    1    2    0  502  0.11692776328E+02 -0.18844790845E+02  0.24470524378E+03  0.24570816733E+03  0.00000000000E+00 0.  1.
<mgrwt>
<rscale>  2 0.22177627E+02</rscale>
<asrwt>0</asrwt>
<pdfrwt beam="1">  1       21 0.66683945E-01 0.22177627E+02</pdfrwt>
<pdfrwt beam="2">  1       21 0.17764353E-03 0.22177627E+02</pdfrwt>
<totfact> 0.81247393E+07</totfact>
</mgrwt>
</event>
<event>
 4    1  0.2677450E+004  0.2002387E+02  0.7546771E-02  0.1744854E+00
         21   -1    0    0  501  502  0.00000000000E+00  0.00000000000E+00  0.26730891128E+00  0.26730891128E+00  0.00000000000E+00 0.  1.
         21   -1    0    0  502  503 -0.00000000000E+00 -0.00000000000E+00 -0.15369858371E+04  0.15369858371E+04  0.00000000000E+00 0. -1.
          2    1    1    2  501    0  0.14687429242E+02  0.13610103849E+02 -0.64907839158E+03  0.64938718336E+03  0.00000000000E+00 0.  1.
         -2    1    1    2    0  503 -0.14687429242E+02 -0.13610103849E+02 -0.88764013658E+03  0.88786596262E+03  0.00000000000E+00 0. -1.
<mgrwt>
<rscale>  2 0.20023873E+02</rscale>
<asrwt>0</asrwt>
<pdfrwt beam="1">  1       21 0.41123868E-04 0.20023873E+02</pdfrwt>
<pdfrwt beam="2">  1       21 0.23646270E+00 0.20023873E+02</pdfrwt>
<totfact> 0.34284994E+07</totfact>
</mgrwt>
</event>
<event>
 4    1  0.2677450E+004  0.3404018E+02  0.7546771E-02  0.1557293E+00
         21   -1    0    0  501  502  0.00000000000E+00  0.00000000000E+00  0.35607824622E+03  0.35607824622E+03  0.00000000000E+00 0.  1.
         21   -1    0    0  502  503 -0.00000000000E+00 -0.00000000000E+00 -0.40984359520E+01  0.40984359520E+01  0.00000000000E+00 0. -1.
          2    1    1    2  501    0 -0.29010983749E+02 -0.17807214886E+02  0.25772711680E+03  0.25996538388E+03  0.00000000000E+00 0. -1.
         -2    1    1    2    0  503  0.29010983749E+02  0.17807214886E+02  0.94252693471E+02  0.10021129830E+03  0.00000000000E+00 0.  1.
<mgrwt>
<rscale>  2 0.34040183E+02</rscale>
<asrwt>0</asrwt>
<pdfrwt beam="1">  1       21 0.54781244E-01 0.34040183E+02</pdfrwt>
<pdfrwt beam="2">  1       21 0.63052889E-03 0.34040183E+02</pdfrwt>
<totfact> 0.20477680E+07</totfact>
</mgrwt>
</event>
<event>
 4    1  0.2677450E+004  0.2377534E+02  0.7546771E-02  0.1679242E+00
         21   -1    0    0  503  502  0.00000000000E+00  0.00000000000E+00  0.39470889584E+03  0.39470889584E+03  0.00000000000E+00 0.  1.
         21   -1    0    0  501  503 -0.00000000000E+00 -0.00000000000E+00 -0.60468353159E+01  0.60468353159E+01  0.00000000000E+00 0. -1.
          2    1    1    2  501    0 -0.19879391089E+02 -0.13041342505E+02  0.19282457570E+02  0.30611762026E+02  0.00000000000E+00 0. -1.
         -2    1    1    2    0  502  0.19879391089E+02  0.13041342505E+02  0.36937960295E+03  0.37014396913E+03  0.00000000000E+00 0.  1.
<mgrwt>
<rscale>  2 0.23775340E+02</rscale>
<asrwt>0</asrwt>
<pdfrwt beam="1">  1       21 0.60724425E-01 0.23775340E+02</pdfrwt>
<pdfrwt beam="2">  1       21 0.93028267E-03 0.23775340E+02</pdfrwt>
<totfact> 0.87609928E+06</totfact>
</mgrwt>
</event>
<event>
 4    1  0.2677450E+004  0.2673218E+02  0.7546771E-02  0.1637300E+00
         21   -1    0    0  503  502  0.00000000000E+00  0.00000000000E+00  0.23698743416E+02  0.23698743416E+02  0.00000000000E+00 0. -1.
         21   -1    0    0  501  503 -0.00000000000E+00 -0.00000000000E+00 -0.57779614735E+02  0.57779614735E+02  0.00000000000E+00 0.  1.
          2    1    1    2  501    0 -0.26500743075E+02 -0.35100103244E+01 -0.45210102353E+02  0.52522023103E+02  0.00000000000E+00 0.  1.
         -2    1    1    2    0  502  0.26500743075E+02  0.35100103244E+01  0.11129231035E+02  0.28956335048E+02  0.00000000000E+00 0. -1.
<mgrwt>
<rscale>  2 0.26732182E+02</rscale>
<asrwt>0</asrwt>
<pdfrwt beam="1">  1       21 0.36459606E-02 0.26732182E+02</pdfrwt>
<pdfrwt beam="2">  1       21 0.88891714E-02 0.26732182E+02</pdfrwt>
<totfact> 0.34529751E+07</totfact>
</mgrwt>
</event>
<event>
 4    1  0.2677450E+004  0.2032033E+02  0.7546771E-02  0.1739032E+00
         21   -1    0    0  501  502  0.00000000000E+00  0.00000000000E+00  0.62062815093E+01  0.62062815093E+01  0.00000000000E+00 0.  1.
         21   -1    0    0  502  503 -0.00000000000E+00 -0.00000000000E+00 -0.66592535185E+02  0.66592535185E+02  0.00000000000E+00 0. -1.
          2    1    1    2  501    0  0.18152721264E+02 -0.91320536348E+01 -0.31291496280E+02  0.37310500296E+02  0.00000000000E+00 0.  1.
         -2    1    1    2    0  503 -0.18152721264E+02  0.91320536348E+01 -0.29094757396E+02  0.35488316399E+02  0.00000000000E+00 0. -1.
<mgrwt>
<rscale>  2 0.20320327E+02</rscale>
<asrwt>0</asrwt>
<pdfrwt beam="1">  1       21 0.95481254E-03 0.20320327E+02</pdfrwt>
<pdfrwt beam="2">  1       21 0.10245005E-01 0.20320327E+02</pdfrwt>
<totfact> 0.19771055E+08</totfact>
</mgrwt>
</event>
<event>
 4    1  0.2677450E+004  0.2147102E+02  0.7546771E-02  0.1717564E+00
         21   -1    0    0  503  502  0.00000000000E+00  0.00000000000E+00  0.24458547948E+02  0.24458547948E+02  0.00000000000E+00 0. -1.
         21   -1    0    0  501  503 -0.00000000000E+00 -0.00000000000E+00 -0.10522769240E+03  0.10522769240E+03  0.00000000000E+00 0.  1.
          2    1    1    2  501    0 -0.15424046315E+02  0.14936645598E+02 -0.99134007017E+02  0.10143251911E+03  0.00000000000E+00 0.  1.
         -2    1    1    2    0  502  0.15424046315E+02 -0.14936645598E+02  0.18364862566E+02  0.28253721233E+02  0.00000000000E+00 0. -1.
<mgrwt>
<rscale>  2 0.21471017E+02</rscale>
<asrwt>0</asrwt>
<pdfrwt beam="1">  1       21 0.37628536E-02 0.21471017E+02</pdfrwt>
<pdfrwt beam="2">  1       21 0.16188876E-01 0.21471017E+02</pdfrwt>
<totfact> 0.11464104E+07</totfact>
</mgrwt>
</event>
<event>
 4    1  0.2677450E+004  0.2229168E+02  0.7546771E-02  0.1703256E+00
         21   -1    0    0  501  502  0.00000000000E+00  0.00000000000E+00  0.80470831833E+01  0.80470831833E+01  0.00000000000E+00 0. -1.
         21   -1    0    0  502  503 -0.00000000000E+00 -0.00000000000E+00 -0.61758569606E+02  0.61758569606E+02  0.00000000000E+00 0.  1.
          2    1    1    2  501    0  0.21066686265E+02  0.72879124826E+01 -0.26480614534E+02  0.34614186176E+02  0.00000000000E+00 0.  1.
         -2    1    1    2    0  503 -0.21066686265E+02 -0.72879124826E+01 -0.27230871889E+02  0.35191466613E+02  0.00000000000E+00 0. -1.
<mgrwt>
<rscale>  2 0.22291679E+02</rscale>
<asrwt>0</asrwt>
<pdfrwt beam="1">  1       21 0.12380128E-02 0.22291679E+02</pdfrwt>
<pdfrwt beam="2">  1       21 0.95013184E-02 0.22291679E+02</pdfrwt>
<totfact> 0.15598294E+08</totfact>
</mgrwt>
</event>
<event>
 4    1  0.2677450E+004  0.5280743E+02  0.7546771E-02  0.1430762E+00
         21   -1    0    0  503  502  0.00000000000E+00  0.00000000000E+00  0.15396988191E+03  0.15396988191E+03  0.00000000000E+00 0. -1.
         21   -1    0    0  501  503 -0.00000000000E+00 -0.00000000000E+00 -0.39048971363E+02  0.39048971363E+02  0.00000000000E+00 0.  1.
          2    1    1    2  501    0  0.10947098196E+02  0.51660293482E+02 -0.13208243448E+02  0.54434204106E+02  0.00000000000E+00 0.  1.
         -2    1    1    2    0  502 -0.10947098196E+02 -0.51660293482E+02  0.12812915400E+03  0.13858464917E+03  0.00000000000E+00 0. -1.
<mgrwt>
<rscale>  2 0.52807432E+02</rscale>
<asrwt>0</asrwt>
<pdfrwt beam="1">  1       21 0.23687674E-01 0.52807432E+02</pdfrwt>
<pdfrwt beam="2">  1       21 0.60075342E-02 0.52807432E+02</pdfrwt>
<totfact> 0.31086349E+06</totfact>
</mgrwt>
</event>
<event>
 4    1  0.2677450E+004  0.2186865E+02  0.7546771E-02  0.1710534E+00
         21   -1    0    0  501  502  0.00000000000E+00  0.00000000000E+00  0.22964038844E+02  0.22964038844E+02  0.00000000000E+00 0.  1.
         21   -1    0    0  502  503 -0.00000000000E+00 -0.00000000000E+00 -0.45639522511E+02  0.45639522511E+02  0.00000000000E+00 0. -1.
          2    1    1    2  501    0  0.98278761518E+01 -0.19535886177E+02  0.13954920752E+02  0.25941815888E+02  0.00000000000E+00 0.  1.
         -2    1    1    2    0  503 -0.98278761518E+01  0.19535886177E+02 -0.36630404419E+02  0.42661745467E+02  0.00000000000E+00 0. -1.
<mgrwt>
<rscale>  2 0.21868653E+02</rscale>
<asrwt>0</asrwt>
<pdfrwt beam="1">  1       21 0.35329291E-02 0.21868653E+02</pdfrwt>
<pdfrwt beam="2">  1       21 0.70214650E-02 0.21868653E+02</pdfrwt>
<totfact> 0.50793230E+07</totfact>
</mgrwt>
</event>
<event>
 4    1  0.2677450E+004  0.2225888E+02  0.7546771E-02  0.1703813E+00
         21   -1    0    0  503  502  0.00000000000E+00  0.00000000000E+00  0.14202439355E+03  0.14202439355E+03  0.00000000000E+00 0.  1.
         21   -1    0    0  501  503 -0.00000000000E+00 -0.00000000000E+00 -0.60561273068E+01  0.60561273068E+01  0.00000000000E+00 0. -1.
          2    1    1    2  501    0  0.20463030797E+02  0.87591136879E+01  0.19774581213E+02  0.29774011556E+02  0.00000000000E+00 0. -1.
         -2    1    1    2    0  502 -0.20463030797E+02 -0.87591136879E+01  0.11619368503E+03  0.11830650930E+03  0.00000000000E+00 0.  1.
<mgrwt>
<rscale>  2 0.22258879E+02</rscale>
<asrwt>0</asrwt>
<pdfrwt beam="1">  1       21 0.21849904E-01 0.22258879E+02</pdfrwt>
<pdfrwt beam="2">  1       21 0.93171200E-03 0.22258879E+02</pdfrwt>
<totfact> 0.58165506E+07</totfact>
</mgrwt>
</event>
<event>
 4    1  0.2677450E+004  0.2046587E+02  0.7546771E-02  0.1736219E+00
         21   -1    0    0  501  502  0.00000000000E+00  0.00000000000E+00  0.11391653565E+02  0.11391653565E+02  0.00000000000E+00 0. -1.
         21   -1    0    0  502  503 -0.00000000000E+00 -0.00000000000E+00 -0.54851333969E+02  0.54851333969E+02  0.00000000000E+00 0.  1.
          2    1    1    2  501    0 -0.16631677370E+01 -0.20398177740E+02 -0.27124061714E+01  0.20644828148E+02  0.00000000000E+00 0. -1.
         -2    1    1    2    0  503  0.16631677370E+01  0.20398177740E+02 -0.40747274232E+02  0.45598159386E+02  0.00000000000E+00 0.  1.
<mgrwt>
<rscale>  2 0.20465869E+02</rscale>
<asrwt>0</asrwt>
<pdfrwt beam="1">  1       21 0.17525621E-02 0.20465869E+02</pdfrwt>
<pdfrwt beam="2">  1       21 0.84386668E-02 0.20465869E+02</pdfrwt>
<totfact> 0.10904168E+08</totfact>
</mgrwt>
</event>
<event>
 4    1  0.2677450E+004  0.3113572E+02  0.7546771E-02  0.1585864E+00
         21   -1    0    0  503  502  0.00000000000E+00  0.00000000000E+00  0.17749707048E+03  0.17749707048E+03  0.00000000000E+00 0.  1.
         21   -1    0    0  501  503 -0.00000000000E+00 -0.00000000000E+00 -0.85470059088E+01  0.85470059088E+01  0.00000000000E+00 0. -1.
          2    1    1    2  501    0  0.11691038404E+02 -0.28857456187E+02  0.28585690787E+02  0.42267894132E+02  0.00000000000E+00 0. -1.
         -2    1    1    2    0  502 -0.11691038404E+02  0.28857456187E+02  0.14036437378E+03  0.14377618225E+03  0.00000000000E+00 0.  1.
<mgrwt>
<rscale>  2 0.31135722E+02</rscale>
<asrwt>0</asrwt>
<pdfrwt beam="1">  1       21 0.27307239E-01 0.31135722E+02</pdfrwt>
<pdfrwt beam="2">  1       21 0.13149241E-02 0.31135722E+02</pdfrwt>
<totfact> 0.24953556E+07</totfact>
</mgrwt>
</event>
<event>
 4    1  0.2677450E+004  0.2749391E+02  0.7546771E-02  0.1627566E+00
         21   -1    0    0  501  502  0.00000000000E+00  0.00000000000E+00  0.21199627652E+02  0.21199627652E+02  0.00000000000E+00 0.  1.
         21   -1    0    0  502  503 -0.00000000000E+00 -0.00000000000E+00 -0.72154855186E+02  0.72154855186E+02  0.00000000000E+00 0. -1.
          2    1    1    2  501    0 -0.27195245994E+02  0.40414876370E+01  0.77199413694E+01  0.28557179863E+02  0.00000000000E+00 0.  1.
         -2    1    1    2    0  503  0.27195245994E+02 -0.40414876370E+01 -0.58675168903E+02  0.64797302975E+02  0.00000000000E+00 0. -1.
<mgrwt>
<rscale>  2 0.27493909E+02</rscale>
<asrwt>0</asrwt>
<pdfrwt beam="1">  1       21 0.32614812E-02 0.27493909E+02</pdfrwt>
<pdfrwt beam="2">  1       21 0.11100747E-01 0.27493909E+02</pdfrwt>
<totfact> 0.28607987E+07</totfact>
</mgrwt>
</event>
<event>
 4    1  0.2677450E+004  0.2944899E+02  0.7546771E-02  0.1604260E+00
         21   -1    0    0  501  502  0.00000000000E+00  0.00000000000E+00  0.27744025253E+01  0.27744025253E+01  0.00000000000E+00 0.  1.
         21   -1    0    0  502  503 -0.00000000000E+00 -0.00000000000E+00 -0.32808707871E+03  0.32808707871E+03  0.00000000000E+00 0. -1.
          2    1    1    2  501    0 -0.22709565210E+02 -0.18748823764E+02 -0.12669915498E+03  0.13007658751E+03  0.00000000000E+00 0.  1.
         -2    1    1    2    0  503  0.22709565210E+02  0.18748823764E+02 -0.19861352120E+03  0.20078489373E+03  0.00000000000E+00 0. -1.
<mgrwt>
<rscale>  2 0.29448985E+02</rscale>
<asrwt>0</asrwt>
<pdfrwt beam="1">  1       21 0.42683138E-03 0.29448985E+02</pdfrwt>
<pdfrwt beam="2">  1       21 0.50474909E-01 0.29448985E+02</pdfrwt>
<totfact> 0.42015275E+07</totfact>
</mgrwt>
</event>
<event>
 4    1  0.2677450E+004  0.2843745E+02  0.7546771E-02  0.1616032E+00
         21   -1    0    0  501  502  0.00000000000E+00  0.00000000000E+00  0.16872429899E+02  0.16872429899E+02  0.00000000000E+00 0.  1.
         21   -1    0    0  502  503 -0.00000000000E+00 -0.00000000000E+00 -0.96597430406E+02  0.96597430406E+02  0.00000000000E+00 0. -1.
          2    1    1    2  501    0 -0.79186506318E+01  0.27312695247E+02  0.40816963280E+00  0.28440375383E+02  0.00000000000E+00 0.  1.
         -2    1    1    2    0  503  0.79186506318E+01 -0.27312695247E+02 -0.80133170140E+02  0.85029484922E+02  0.00000000000E+00 0. -1.
<mgrwt>
<rscale>  2 0.28437446E+02</rscale>
<asrwt>0</asrwt>
<pdfrwt beam="1">  1       21 0.25957584E-02 0.28437446E+02</pdfrwt>
<pdfrwt beam="2">  1       21 0.14861143E-01 0.28437446E+02</pdfrwt>
<totfact> 0.25116754E+07</totfact>
</mgrwt>
</event>
<event>
 4    1  0.2677450E+004  0.2023771E+02  0.7546771E-02  0.1740642E+00
         21   -1    0    0  503  502  0.00000000000E+00  0.00000000000E+00  0.71305022469E+02  0.71305022469E+02  0.00000000000E+00 0.  1.
         21   -1    0    0  501  503 -0.00000000000E+00 -0.00000000000E+00 -0.57478524533E+01  0.57478524533E+01  0.00000000000E+00 0. -1.
          2    1    1    2  501    0  0.18349008390E+02 -0.85369172895E+01  0.31761428205E+02  0.37661032744E+02  0.00000000000E+00 0.  1.
         -2    1    1    2    0  502 -0.18349008390E+02  0.85369172895E+01  0.33795741811E+02  0.39391842179E+02  0.00000000000E+00 0. -1.
<mgrwt>
<rscale>  2 0.20237714E+02</rscale>
<asrwt>0</asrwt>
<pdfrwt beam="1">  1       21 0.10970003E-01 0.20237714E+02</pdfrwt>
<pdfrwt beam="2">  1       21 0.88428504E-03 0.20237714E+02</pdfrwt>
<totfact> 0.19775683E+08</totfact>
</mgrwt>
</event>
<event>
 4    1  0.2677450E+004  0.2095531E+02  0.7546771E-02  0.1726972E+00
         21   -1    0    0  503  502  0.00000000000E+00  0.00000000000E+00  0.49397315141E+03  0.49397315141E+03  0.00000000000E+00 0. -1.
         21   -1    0    0  501  503 -0.00000000000E+00 -0.00000000000E+00 -0.18155820200E+01  0.18155820200E+01  0.00000000000E+00 0.  1.
          2    1    1    2  501    0  0.14253668666E+02  0.15360920816E+02  0.68982764123E+02  0.72095400026E+02  0.00000000000E+00 0.  1.
         -2    1    1    2    0  502 -0.14253668666E+02 -0.15360920816E+02  0.42317480526E+03  0.42369333340E+03  0.00000000000E+00 0. -1.
<mgrwt>
<rscale>  2 0.20955309E+02</rscale>
<asrwt>0</asrwt>
<pdfrwt beam="1">  1       21 0.75995762E-01 0.20955309E+02</pdfrwt>
<pdfrwt beam="2">  1       21 0.27932071E-03 0.20955309E+02</pdfrwt>
<totfact> 0.31898423E+07</totfact>
</mgrwt>
</event>
<event>
 4    1  0.2677450E+004  0.2858641E+02  0.7546771E-02  0.1614261E+00
         21   -1    0    0  503  502  0.00000000000E+00  0.00000000000E+00  0.84549347480E+01  0.84549347480E+01  0.00000000000E+00 0. -1.
         21   -1    0    0  501  503 -0.00000000000E+00 -0.00000000000E+00 -0.18667090890E+03  0.18667090890E+03  0.00000000000E+00 0.  1.
          2    1    1    2  501    0  0.40984604665E+01  0.28291083553E+02 -0.15685877760E+03  0.15944233722E+03  0.00000000000E+00 0.  1.
         -2    1    1    2    0  502 -0.40984604665E+01 -0.28291083553E+02 -0.21357196555E+02  0.35683506434E+02  0.00000000000E+00 0. -1.
<mgrwt>
<rscale>  2 0.28586409E+02</rscale>
<asrwt>0</asrwt>
<pdfrwt beam="1">  1       21 0.13007592E-02 0.28586409E+02</pdfrwt>
<pdfrwt beam="2">  1       21 0.28718601E-01 0.28586409E+02</pdfrwt>
<totfact> 0.22774903E+07</totfact>
</mgrwt>
</event>
<event>
 4    1  0.2677450E+004  0.2118838E+02  0.7546771E-02  0.1722679E+00
         21   -1    0    0  501  502  0.00000000000E+00  0.00000000000E+00  0.63772722069E+00  0.63772722069E+00  0.00000000000E+00 0. -1.
         21   -1    0    0  502  503 -0.00000000000E+00 -0.00000000000E+00 -0.89836457939E+03  0.89836457939E+03  0.00000000000E+00 0.  1.
          2    1    1    2  501    0  0.11084801117E+02  0.18057536193E+02 -0.23977258056E+03  0.24070695423E+03  0.00000000000E+00 0.  1.
         -2    1    1    2    0  503 -0.11084801117E+02 -0.18057536193E+02 -0.65795427161E+03  0.65829535238E+03  0.00000000000E+00 0. -1.
<mgrwt>
<rscale>  2 0.21188380E+02</rscale>
<asrwt>0</asrwt>
<pdfrwt beam="1">  1       21 0.98111250E-04 0.21188380E+02</pdfrwt>
<pdfrwt beam="2">  1       21 0.13821082E+00 0.21188380E+02</pdfrwt>
<totfact> 0.38703627E+07</totfact>
</mgrwt>
</event>
<event>
 4    1  0.2677450E+004  0.2844386E+02  0.7546771E-02  0.1615955E+00
         21   -1    0    0  501  502  0.00000000000E+00  0.00000000000E+00  0.11415164072E+01  0.11415164072E+01  0.00000000000E+00 0. -1.
         21   -1    0    0  502  503 -0.00000000000E+00 -0.00000000000E+00 -0.11955656023E+04  0.11955656023E+04  0.00000000000E+00 0.  1.
          2    1    1    2  501    0 -0.28443791698E+02  0.62743857767E-01 -0.21539785556E+03  0.21726778271E+03  0.00000000000E+00 0. -1.
         -2    1    1    2    0  503  0.28443791698E+02 -0.62743857767E-01 -0.97902623035E+03  0.97943933602E+03  0.00000000000E+00 0.  1.
<mgrwt>
<rscale>  2 0.28443861E+02</rscale>
<asrwt>0</asrwt>
<pdfrwt beam="1">  1       21 0.17561825E-03 0.28443861E+02</pdfrwt>
<pdfrwt beam="2">  1       21 0.18393282E+00 0.28443861E+02</pdfrwt>
<totfact> 0.87943562E+06</totfact>
</mgrwt>
</event>
<event>
 4    1  0.2677450E+004  0.2335641E+02  0.7546771E-02  0.1685797E+00
         21   -1    0    0  503  502  0.00000000000E+00  0.00000000000E+00  0.25770739360E+02  0.25770739360E+02  0.00000000000E+00 0. -1.
         21   -1    0    0  501  503 -0.00000000000E+00 -0.00000000000E+00 -0.21323661009E+02  0.21323661009E+02  0.00000000000E+00 0.  1.
          2    1    1    2  501    0 -0.91695508611E+00 -0.23338401996E+02  0.21338340340E+00  0.23357383133E+02  0.00000000000E+00 0. -1.
         -2    1    1    2    0  502  0.91695508611E+00  0.23338401996E+02  0.42336949478E+01  0.23737017236E+02  0.00000000000E+00 0.  1.
<mgrwt>
<rscale>  2 0.23356408E+02</rscale>
<asrwt>0</asrwt>
<pdfrwt beam="1">  1       21 0.39647292E-02 0.23356408E+02</pdfrwt>
<pdfrwt beam="2">  1       21 0.32805632E-02 0.23356408E+02</pdfrwt>
<totfact> 0.14462679E+08</totfact>
</mgrwt>
</event>
<event>
 4    1  0.2677450E+004  0.2610815E+02  0.7546771E-02  0.1645577E+00
         21   -1    0    0  503  502  0.00000000000E+00  0.00000000000E+00  0.17462606160E+02  0.17462606160E+02  0.00000000000E+00 0.  1.
         21   -1    0    0  501  503 -0.00000000000E+00 -0.00000000000E+00 -0.11699739376E+03  0.11699739376E+03  0.00000000000E+00 0. -1.
          2    1    1    2  501    0 -0.60383339152E+01  0.25400279747E+02 -0.10464818126E+03  0.10785581824E+03  0.00000000000E+00 0. -1.
         -2    1    1    2    0  502  0.60383339152E+01 -0.25400279747E+02  0.51133936658E+01  0.26604181672E+02  0.00000000000E+00 0.  1.
<mgrwt>
<rscale>  2 0.26108154E+02</rscale>
<asrwt>0</asrwt>
<pdfrwt beam="1">  1       21 0.26865547E-02 0.26108154E+02</pdfrwt>
<pdfrwt beam="2">  1       21 0.17999600E-01 0.26108154E+02</pdfrwt>
<totfact> 0.16812161E+07</totfact>
</mgrwt>
</event>
<event>
 4    1  0.2677450E+004  0.2190771E+02  0.7546771E-02  0.1709853E+00
         21   -1    0    0  503  502  0.00000000000E+00  0.00000000000E+00  0.34449226273E+02  0.34449226273E+02  0.00000000000E+00 0. -1.
         21   -1    0    0  501  503 -0.00000000000E+00 -0.00000000000E+00 -0.16877189735E+02  0.16877189735E+02  0.00000000000E+00 0.  1.
          2    1    1    2  501    0 -0.21899077878E+02 -0.61501850688E+00 -0.19344773672E+01  0.21992954835E+02  0.00000000000E+00 0.  1.
         -2    1    1    2    0  502  0.21899077878E+02  0.61501850688E+00  0.19506513905E+02  0.29333461173E+02  0.00000000000E+00 0. -1.
<mgrwt>
<rscale>  2 0.21907712E+02</rscale>
<asrwt>0</asrwt>
<pdfrwt beam="1">  1       21 0.52998810E-02 0.21907712E+02</pdfrwt>
<pdfrwt beam="2">  1       21 0.25964907E-02 0.21907712E+02</pdfrwt>
<totfact> 0.12882775E+08</totfact>
</mgrwt>
</event>
<event>
 4    1  0.2677450E+004  0.3538977E+02  0.7546771E-02  0.1545166E+00
         21   -1    0    0  501  502  0.00000000000E+00  0.00000000000E+00  0.24292922680E+02  0.24292922680E+02  0.00000000000E+00 0.  1.
         21   -1    0    0  502  503 -0.00000000000E+00 -0.00000000000E+00 -0.34444123115E+03  0.34444123115E+03  0.00000000000E+00 0. -1.
          2    1    1    2  501    0  0.25380195635E+02  0.24663362760E+02  0.99359952375E+01  0.36758125557E+02  0.00000000000E+00 0.  1.
         -2    1    1    2    0  503 -0.25380195635E+02 -0.24663362760E+02 -0.33008430371E+03  0.33197602828E+03  0.00000000000E+00 0. -1.
<mgrwt>
<rscale>  2 0.35389770E+02</rscale>
<asrwt>0</asrwt>
<pdfrwt beam="1">  1       21 0.37373727E-02 0.35389770E+02</pdfrwt>
<pdfrwt beam="2">  1       21 0.52990958E-01 0.35389770E+02</pdfrwt>
<totfact> 0.14066093E+06</totfact>
</mgrwt>
</event>
<event>
 4    1  0.2677450E+004  0.2063939E+02  0.7546771E-02  0.1732904E+00
         21   -1    0    0  503  502  0.00000000000E+00  0.00000000000E+00  0.11012360282E+03  0.11012360282E+03  0.00000000000E+00 0. -1.
         21   -1    0    0  501  503 -0.00000000000E+00 -0.00000000000E+00 -0.46253548623E+01  0.46253548623E+01  0.00000000000E+00 0.  1.
          2    1    1    2  501    0 -0.12922990286E+02  0.16092874605E+02  0.29536313750E+02  0.36033014319E+02  0.00000000000E+00 0.  1.
         -2    1    1    2    0  502  0.12922990286E+02 -0.16092874605E+02  0.75961934205E+02  0.78715943361E+02  0.00000000000E+00 0. -1.
<mgrwt>
<rscale>  2 0.20639387E+02</rscale>
<asrwt>0</asrwt>
<pdfrwt beam="1">  1       21 0.16942091E-01 0.20639387E+02</pdfrwt>
<pdfrwt beam="2">  1       21 0.71159314E-03 0.20639387E+02</pdfrwt>
<totfact> 0.13227412E+08</totfact>
</mgrwt>
</event>
<event>
 4    1  0.2677450E+004  0.2126876E+02  0.7546771E-02  0.1721214E+00
         21   -1    0    0  501  502  0.00000000000E+00  0.00000000000E+00  0.61887650730E+02  0.61887650730E+02  0.00000000000E+00 0.  1.
         21   -1    0    0  502  503 -0.00000000000E+00 -0.00000000000E+00 -0.89723455810E+01  0.89723455810E+01  0.00000000000E+00 0. -1.
          2    1    1    2  501    0  0.21104109500E+02 -0.26413183335E+01  0.41710836785E+02  0.46820443244E+02  0.00000000000E+00 0.  1.
         -2    1    1    2    0  503 -0.21104109500E+02  0.26413183335E+01  0.11204468365E+02  0.24039553067E+02  0.00000000000E+00 0. -1.
<mgrwt>
<rscale>  2 0.21268756E+02</rscale>
<asrwt>0</asrwt>
<pdfrwt beam="1">  1       21 0.95211767E-02 0.21268756E+02</pdfrwt>
<pdfrwt beam="2">  1       21 0.13803609E-02 0.21268756E+02</pdfrwt>
<totfact> 0.13002571E+08</totfact>
</mgrwt>
</event>
<event>
 4    1  0.2677450E+004  0.2082944E+02  0.7546771E-02  0.1729319E+00
         21   -1    0    0  501  502  0.00000000000E+00  0.00000000000E+00  0.31857699306E+02  0.31857699306E+02  0.00000000000E+00 0.  1.
         21   -1    0    0  502  503 -0.00000000000E+00 -0.00000000000E+00 -0.15257622455E+02  0.15257622455E+02  0.00000000000E+00 0. -1.
          2    1    1    2  501    0 -0.16411304565E+02 -0.12827110459E+02  0.16020551825E+02  0.26277818803E+02  0.00000000000E+00 0.  1.
         -2    1    1    2    0  503  0.16411304565E+02  0.12827110459E+02  0.57952502612E+00  0.20837502958E+02  0.00000000000E+00 0. -1.
<mgrwt>
<rscale>  2 0.20829443E+02</rscale>
<asrwt>0</asrwt>
<pdfrwt beam="1">  1       21 0.49011845E-02 0.20829443E+02</pdfrwt>
<pdfrwt beam="2">  1       21 0.23473265E-02 0.20829443E+02</pdfrwt>
<totfact> 0.16778562E+08</totfact>
</mgrwt>
</event>
<event>
 4    1  0.2677450E+004  0.2357848E+02  0.7546771E-02  0.1682301E+00
         21   -1    0    0  503  502  0.00000000000E+00  0.00000000000E+00  0.27457409806E+02  0.27457409806E+02  0.00000000000E+00 0.  1.
         21   -1    0    0  501  503 -0.00000000000E+00 -0.00000000000E+00 -0.94447732626E+02  0.94447732626E+02  0.00000000000E+00 0. -1.
          2    1    1    2  501    0 -0.23568745365E+02  0.67737906589E+00 -0.87520664736E+02  0.90641112947E+02  0.00000000000E+00 0. -1.
         -2    1    1    2    0  502  0.23568745365E+02 -0.67737906589E+00  0.20530341916E+02  0.31264029485E+02  0.00000000000E+00 0.  1.
<mgrwt>
<rscale>  2 0.23578477E+02</rscale>
<asrwt>0</asrwt>
<pdfrwt beam="1">  1       21 0.42242169E-02 0.23578477E+02</pdfrwt>
<pdfrwt beam="2">  1       21 0.14530421E-01 0.23578477E+02</pdfrwt>
<totfact> 0.11706237E+07</totfact>
</mgrwt>
</event>
<event>
 4    1  0.2677450E+004  0.2030754E+02  0.7546771E-02  0.1739281E+00
         21   -1    0    0  501  502  0.00000000000E+00  0.00000000000E+00  0.22860154398E+02  0.22860154398E+02  0.00000000000E+00 0. -1.
         21   -1    0    0  502  503 -0.00000000000E+00 -0.00000000000E+00 -0.20267789167E+02  0.20267789167E+02  0.00000000000E+00 0.  1.
          2    1    1    2  501    0  0.13513721076E+02 -0.15158342607E+02  0.84455502525E+01  0.21993711078E+02  0.00000000000E+00 0. -1.
         -2    1    1    2    0  503 -0.13513721076E+02  0.15158342607E+02 -0.58531850215E+01  0.21134232487E+02  0.00000000000E+00 0.  1.
<mgrwt>
<rscale>  2 0.20307536E+02</rscale>
<asrwt>0</asrwt>
<pdfrwt beam="1">  1       21 0.35169468E-02 0.20307536E+02</pdfrwt>
<pdfrwt beam="2">  1       21 0.31181214E-02 0.20307536E+02</pdfrwt>
<totfact> 0.18084769E+08</totfact>
</mgrwt>
</event>
<event>
 4    1  0.2677450E+004  0.2239492E+02  0.7546771E-02  0.1701510E+00
         21   -1    0    0  503  502  0.00000000000E+00  0.00000000000E+00  0.53735932624E+01  0.53735932624E+01  0.00000000000E+00 0.  1.
         21   -1    0    0  501  503 -0.00000000000E+00 -0.00000000000E+00 -0.22512448319E+03  0.22512448319E+03  0.00000000000E+00 0. -1.
          2    1    1    2  501    0  0.15264637150E+02  0.16386681387E+02 -0.19805541709E+03  0.19931753740E+03  0.00000000000E+00 0. -1.
         -2    1    1    2    0  502 -0.15264637150E+02 -0.16386681387E+02 -0.21695472832E+02  0.31180539052E+02  0.00000000000E+00 0.  1.
<mgrwt>
<rscale>  2 0.22394921E+02</rscale>
<asrwt>0</asrwt>
<pdfrwt beam="1">  1       21 0.82670695E-03 0.22394921E+02</pdfrwt>
<pdfrwt beam="2">  1       21 0.34634524E-01 0.22394921E+02</pdfrwt>
<totfact> 0.30396387E+07</totfact>
</mgrwt>
</event>
<event>
 4    1  0.2677450E+004  0.2688970E+02  0.7546771E-02  0.1635255E+00
         21   -1    0    0  501  502  0.00000000000E+00  0.00000000000E+00  0.28419897716E+01  0.28419897716E+01  0.00000000000E+00 0.  1.
         21   -1    0    0  502  503 -0.00000000000E+00 -0.00000000000E+00 -0.60980548955E+03  0.60980548955E+03  0.00000000000E+00 0. -1.
          2    1    1    2  501    0 -0.14537728971E+02  0.22621020665E+02 -0.69632780976E+02  0.74644358969E+02  0.00000000000E+00 0.  1.
         -2    1    1    2    0  503  0.14537728971E+02 -0.22621020665E+02 -0.53733071881E+03  0.53800312036E+03  0.00000000000E+00 0. -1.
<mgrwt>
<rscale>  2 0.26889703E+02</rscale>
<asrwt>0</asrwt>
<pdfrwt beam="1">  1       21 0.43722876E-03 0.26889703E+02</pdfrwt>
<pdfrwt beam="2">  1       21 0.93816322E-01 0.26889703E+02</pdfrwt>
<totfact> 0.11093840E+07</totfact>
</mgrwt>
</event>
<event>
 4    1  0.2677450E+004  0.2963746E+02  0.7546771E-02  0.1602131E+00
         21   -1    0    0  501  502  0.00000000000E+00  0.00000000000E+00  0.23352353076E+03  0.23352353076E+03  0.00000000000E+00 0.  1.
         21   -1    0    0  502  503 -0.00000000000E+00 -0.00000000000E+00 -0.48979727098E+01  0.48979727098E+01  0.00000000000E+00 0. -1.
          2    1    1    2  501    0  0.42304340917E+01 -0.29333982858E+02  0.17173801907E+03  0.17427657995E+03  0.00000000000E+00 0.  1.
         -2    1    1    2    0  503 -0.42304340917E+01  0.29333982858E+02  0.56887538980E+02  0.64144923525E+02  0.00000000000E+00 0. -1.
<mgrwt>
<rscale>  2 0.29637461E+02</rscale>
<asrwt>0</asrwt>
<pdfrwt beam="1">  1       21 0.35926689E-01 0.29637461E+02</pdfrwt>
<pdfrwt beam="2">  1       21 0.75353444E-03 0.29637461E+02</pdfrwt>
<totfact> 0.34621353E+07</totfact>
</mgrwt>
</event>
<event>
 4    1  0.2677450E+004  0.3334327E+02  0.7546771E-02  0.1563825E+00
         21   -1    0    0  503  502  0.00000000000E+00  0.00000000000E+00  0.23632355405E+03  0.23632355405E+03  0.00000000000E+00 0.  1.
         21   -1    0    0  501  503 -0.00000000000E+00 -0.00000000000E+00 -0.51370662987E+01  0.51370662987E+01  0.00000000000E+00 0. -1.
          2    1    1    2  501    0 -0.15758272492E+02  0.29384522712E+02  0.80557763084E+02  0.87185586653E+02  0.00000000000E+00 0. -1.
         -2    1    1    2    0  502  0.15758272492E+02 -0.29384522712E+02  0.15062872467E+03  0.15427503370E+03  0.00000000000E+00 0.  1.
<mgrwt>
<rscale>  2 0.33343265E+02</rscale>
<asrwt>0</asrwt>
<pdfrwt beam="1">  1       21 0.36357461E-01 0.33343265E+02</pdfrwt>
<pdfrwt beam="2">  1       21 0.79031808E-03 0.33343265E+02</pdfrwt>
<totfact> 0.32211247E+07</totfact>
</mgrwt>
</event>
<event>
 4    1  0.2677450E+004  0.2546928E+02  0.7546771E-02  0.1654352E+00
         21   -1    0    0  501  502  0.00000000000E+00  0.00000000000E+00  0.12679294821E+02  0.12679294821E+02  0.00000000000E+00 0. -1.
         21   -1    0    0  502  503 -0.00000000000E+00 -0.00000000000E+00 -0.64034165701E+02  0.64034165701E+02  0.00000000000E+00 0.  1.
          2    1    1    2  501    0  0.14952953508E+02  0.20617788058E+02 -0.84793444641E+01  0.26843682414E+02  0.00000000000E+00 0.  1.
         -2    1    1    2    0  503 -0.14952953508E+02 -0.20617788058E+02 -0.42875526416E+02  0.49869778107E+02  0.00000000000E+00 0. -1.
<mgrwt>
<rscale>  2 0.25469276E+02</rscale>
<asrwt>0</asrwt>
<pdfrwt beam="1">  1       21 0.19506607E-02 0.25469276E+02</pdfrwt>
<pdfrwt beam="2">  1       21 0.98514104E-02 0.25469276E+02</pdfrwt>
<totfact> 0.76291393E+07</totfact>
</mgrwt>
</event>
<event>
 4    1  0.2677450E+004  0.2364243E+02  0.7546771E-02  0.1681303E+00
         21   -1    0    0  503  502  0.00000000000E+00  0.00000000000E+00  0.12573613868E+02  0.12573613868E+02  0.00000000000E+00 0. -1.
         21   -1    0    0  501  503 -0.00000000000E+00 -0.00000000000E+00 -0.46227688730E+02  0.46227688730E+02  0.00000000000E+00 0.  1.
          2    1    1    2  501    0 -0.86996464134E+01 -0.21983645013E+02 -0.22583800337E+02  0.32695451265E+02  0.00000000000E+00 0.  1.
         -2    1    1    2    0  502  0.86996464134E+01  0.21983645013E+02 -0.11070274525E+02  0.26105851333E+02  0.00000000000E+00 0. -1.
<mgrwt>
<rscale>  2 0.23642430E+02</rscale>
<asrwt>0</asrwt>
<pdfrwt beam="1">  1       21 0.19344022E-02 0.23642430E+02</pdfrwt>
<pdfrwt beam="2">  1       21 0.71119519E-02 0.23642430E+02</pdfrwt>
<totfact> 0.12924293E+08</totfact>
</mgrwt>
</event>
<event>
 4    1  0.2677450E+004  0.3481747E+02  0.7546771E-02  0.1550228E+00
         21   -1    0    0  501  502  0.00000000000E+00  0.00000000000E+00  0.81472681613E+01  0.81472681613E+01  0.00000000000E+00 0.  1.
         21   -1    0    0  502  503 -0.00000000000E+00 -0.00000000000E+00 -0.31134668062E+03  0.31134668062E+03  0.00000000000E+00 0. -1.
          2    1    1    2  501    0  0.15733505556E+02  0.31059825210E+02 -0.36172279883E+02  0.50206471406E+02  0.00000000000E+00 0.  1.
         -2    1    1    2    0  503 -0.15733505556E+02 -0.31059825210E+02 -0.26702713258E+03  0.26928747738E+03  0.00000000000E+00 0. -1.
<mgrwt>
<rscale>  2 0.34817466E+02</rscale>
<asrwt>0</asrwt>
<pdfrwt beam="1">  1       21 0.12534260E-02 0.34817466E+02</pdfrwt>
<pdfrwt beam="2">  1       21 0.47899483E-01 0.34817466E+02</pdfrwt>
<totfact> 0.94544017E+06</totfact>
</mgrwt>
</event>
<event>
 4    1  0.2677450E+004  0.2335910E+02  0.7546771E-02  0.1685754E+00
         21   -1    0    0  501  502  0.00000000000E+00  0.00000000000E+00  0.71277126543E+02  0.71277126543E+02  0.00000000000E+00 0.  1.
         21   -1    0    0  502  503 -0.00000000000E+00 -0.00000000000E+00 -0.11332665550E+02  0.11332665550E+02  0.00000000000E+00 0. -1.
          2    1    1    2  501    0 -0.66759640214E+01 -0.22384797446E+02  0.53501259796E+02  0.58378356024E+02  0.00000000000E+00 0.  1.
         -2    1    1    2    0  503  0.66759640214E+01  0.22384797446E+02  0.64432011971E+01  0.24231436069E+02  0.00000000000E+00 0. -1.
<mgrwt>
<rscale>  2 0.23359102E+02</rscale>
<asrwt>0</asrwt>
<pdfrwt beam="1">  1       21 0.10965711E-01 0.23359102E+02</pdfrwt>
<pdfrwt beam="2">  1       21 0.17434871E-02 0.23359102E+02</pdfrwt>
<totfact> 0.74134438E+07</totfact>
</mgrwt>
</event>
<event>
 4    1  0.2677450E+004  0.2256102E+02  0.7546771E-02  0.1698726E+00
         21   -1    0    0  503  502  0.00000000000E+00  0.00000000000E+00  0.38391653476E+03  0.38391653476E+03  0.00000000000E+00 0.  1.
         21   -1    0    0  501  503 -0.00000000000E+00 -0.00000000000E+00 -0.36056806329E+01  0.36056806329E+01  0.00000000000E+00 0. -1.
          2    1    1    2  501    0  0.19795315747E+02 -0.10823369254E+02  0.36081832606E+02  0.42554652998E+02  0.00000000000E+00 0. -1.
         -2    1    1    2    0  502 -0.19795315747E+02  0.10823369254E+02  0.34422902152E+03  0.34496756239E+03  0.00000000000E+00 0.  1.
<mgrwt>
<rscale>  2 0.22561025E+02</rscale>
<asrwt>0</asrwt>
<pdfrwt beam="1">  1       21 0.59064050E-01 0.22561025E+02</pdfrwt>
<pdfrwt beam="2">  1       21 0.55472040E-03 0.22561025E+02</pdfrwt>
<totfact> 0.19801800E+07</totfact>
</mgrwt>
</event>
<event>
 4    1  0.2677450E+004  0.2478907E+02  0.7546771E-02  0.1664050E+00
         21   -1    0    0  503  502  0.00000000000E+00  0.00000000000E+00  0.68191666714E+00  0.68191666714E+00  0.00000000000E+00 0. -1.
         21   -1    0    0  501  503 -0.00000000000E+00 -0.00000000000E+00 -0.11007719101E+04  0.11007719101E+04  0.00000000000E+00 0.  1.
          2    1    1    2  501    0  0.91470328925E+01  0.23039742161E+02 -0.78458110780E+03  0.78497261904E+03  0.00000000000E+00 0.  1.
         -2    1    1    2    0  502 -0.91470328925E+01 -0.23039742161E+02 -0.31550888563E+03  0.31648120772E+03  0.00000000000E+00 0. -1.
<mgrwt>
<rscale>  2 0.24789069E+02</rscale>
<asrwt>0</asrwt>
<pdfrwt beam="1">  1       21 0.10490994E-03 0.24789069E+02</pdfrwt>
<pdfrwt beam="2">  1       21 0.16935004E+00 0.24789069E+02</pdfrwt>
<totfact> 0.22296356E+07</totfact>
</mgrwt>
</event>
<event>
 4    1  0.2677450E+004  0.3596063E+02  0.7546771E-02  0.1540232E+00
         21   -1    0    0  501  502  0.00000000000E+00  0.00000000000E+00  0.13494542242E+03  0.13494542242E+03  0.00000000000E+00 0. -1.
         21   -1    0    0  502  503 -0.00000000000E+00 -0.00000000000E+00 -0.15559322585E+02  0.15559322585E+02  0.00000000000E+00 0.  1.
          2    1    1    2  501    0  0.33591160181E+02  0.12837469535E+02  0.10633170239E+03  0.11224792916E+03  0.00000000000E+00 0. -1.
         -2    1    1    2    0  503 -0.33591160181E+02 -0.12837469535E+02  0.13054397444E+02  0.38256815850E+02  0.00000000000E+00 0.  1.
<mgrwt>
<rscale>  2 0.35960627E+02</rscale>
<asrwt>0</asrwt>
<pdfrwt beam="1">  1       21 0.20760833E-01 0.35960627E+02</pdfrwt>
<pdfrwt beam="2">  1       21 0.23937420E-02 0.35960627E+02</pdfrwt>
<totfact> 0.16578650E+07</totfact>
</mgrwt>
</event>
<event>
 4    1  0.2677450E+004  0.3006935E+02  0.7546771E-02  0.1597323E+00
         21   -1    0    0  503  502  0.00000000000E+00  0.00000000000E+00  0.40274067480E+03  0.40274067480E+03  0.00000000000E+00 0. -1.
         21   -1    0    0  501  503 -0.00000000000E+00 -0.00000000000E+00 -0.41472125902E+01  0.41472125902E+01  0.00000000000E+00 0.  1.
          2    1    1    2  501    0 -0.17549173010E+02 -0.24417045901E+02  0.61514720599E+02  0.68470624754E+02  0.00000000000E+00 0.  1.
         -2    1    1    2    0  502  0.17549173010E+02  0.24417045901E+02  0.33707874161E+03  0.33841726263E+03  0.00000000000E+00 0. -1.
<mgrwt>
<rscale>  2 0.30069347E+02</rscale>
<asrwt>0</asrwt>
<pdfrwt beam="1">  1       21 0.61960073E-01 0.30069347E+02</pdfrwt>
<pdfrwt beam="2">  1       21 0.63803303E-03 0.30069347E+02</pdfrwt>
<totfact> 0.15384604E+07</totfact>
</mgrwt>
</event>
<event>
 4    1  0.2677450E+004  0.3140236E+02  0.7546771E-02  0.1583085E+00
         21   -1    0    0  503  502  0.00000000000E+00  0.00000000000E+00  0.48022642978E+02  0.48022642978E+02  0.00000000000E+00 0. -1.
         21   -1    0    0  501  503 -0.00000000000E+00 -0.00000000000E+00 -0.20698447768E+02  0.20698447768E+02  0.00000000000E+00 0.  1.
          2    1    1    2  501    0 -0.14757785581E+02  0.27718510711E+02  0.16722645372E+02  0.35577449874E+02  0.00000000000E+00 0. -1.
         -2    1    1    2    0  502  0.14757785581E+02 -0.27718510711E+02  0.10601549839E+02  0.33143640872E+02  0.00000000000E+00 0.  1.
<mgrwt>
<rscale>  2 0.31402358E+02</rscale>
<asrwt>0</asrwt>
<pdfrwt beam="1">  1       21 0.73880989E-02 0.31402358E+02</pdfrwt>
<pdfrwt beam="2">  1       21 0.31843766E-02 0.31402358E+02</pdfrwt>
<totfact> 0.60116410E+07</totfact>
</mgrwt>
</event>
<event>
 4    1  0.2677450E+004  0.2067090E+02  0.7546771E-02  0.1732306E+00
         21   -1    0    0  503  502  0.00000000000E+00  0.00000000000E+00  0.73416881036E+02  0.73416881036E+02  0.00000000000E+00 0.  1.
         21   -1    0    0  501  503 -0.00000000000E+00 -0.00000000000E+00 -0.62334982953E+01  0.62334982953E+01  0.00000000000E+00 0. -1.
          2    1    1    2  501    0 -0.78792718163E+01  0.19110293366E+02  0.23334490304E+02  0.31173461063E+02  0.00000000000E+00 0. -1.
         -2    1    1    2    0  502  0.78792718163E+01 -0.19110293366E+02  0.43848892437E+02  0.48476918269E+02  0.00000000000E+00 0.  1.
<mgrwt>
<rscale>  2 0.20670903E+02</rscale>
<asrwt>0</asrwt>
<pdfrwt beam="1">  1       21 0.11294904E-01 0.20670903E+02</pdfrwt>
<pdfrwt beam="2">  1       21 0.95899979E-03 0.20670903E+02</pdfrwt>
<totfact> 0.16805263E+08</totfact>
</mgrwt>
</event>
<event>
 4    1  0.2677450E+004  0.2072295E+02  0.7546771E-02  0.1731322E+00
         21   -1    0    0  503  502  0.00000000000E+00  0.00000000000E+00  0.55089287689E+03  0.55089287689E+03  0.00000000000E+00 0.  1.
         21   -1    0    0  501  503 -0.00000000000E+00 -0.00000000000E+00 -0.79930803286E+00  0.79930803286E+00  0.00000000000E+00 0. -1.
          2    1    1    2  501    0  0.93519411465E+01 -0.18492754608E+02  0.23166209675E+03  0.23258711883E+03  0.00000000000E+00 0. -1.
         -2    1    1    2    0  502 -0.93519411465E+01  0.18492754608E+02  0.31843147210E+03  0.31910506608E+03  0.00000000000E+00 0.  1.
<mgrwt>
<rscale>  2 0.20722953E+02</rscale>
<asrwt>0</asrwt>
<pdfrwt beam="1">  1       21 0.84752447E-01 0.20722953E+02</pdfrwt>
<pdfrwt beam="2">  1       21 0.12297091E-03 0.20722953E+02</pdfrwt>
<totfact> 0.82340322E+07</totfact>
</mgrwt>
</event>
<event>
 4    1  0.2677450E+004  0.2719374E+02  0.7546771E-02  0.1631355E+00
         21   -1    0    0  501  502  0.00000000000E+00  0.00000000000E+00  0.23614378600E+02  0.23614378600E+02  0.00000000000E+00 0. -1.
         21   -1    0    0  502  503 -0.00000000000E+00 -0.00000000000E+00 -0.34628441067E+02  0.34628441067E+02  0.00000000000E+00 0.  1.
          2    1    1    2  501    0  0.21100763305E+02  0.17153923847E+02  0.35002512146E+01  0.27418079327E+02  0.00000000000E+00 0. -1.
         -2    1    1    2    0  503 -0.21100763305E+02 -0.17153923847E+02 -0.14514313682E+02  0.30824740340E+02  0.00000000000E+00 0.  1.
<mgrwt>
<rscale>  2 0.27193737E+02</rscale>
<asrwt>0</asrwt>
<pdfrwt beam="1">  1       21 0.36329813E-02 0.27193737E+02</pdfrwt>
<pdfrwt beam="2">  1       21 0.53274525E-02 0.27193737E+02</pdfrwt>
<totfact> 0.80264004E+07</totfact>
</mgrwt>
</event>
<event>
 4    1  0.2677450E+004  0.2201437E+02  0.7546771E-02  0.1708004E+00
         21   -1    0    0  501  502  0.00000000000E+00  0.00000000000E+00  0.75332157594E+00  0.75332157594E+00  0.00000000000E+00 0.  1.
         21   -1    0    0  502  503 -0.00000000000E+00 -0.00000000000E+00 -0.66282129135E+03  0.66282129135E+03  0.00000000000E+00 0. -1.
          2    1    1    2  501    0 -0.14085888702E+01  0.21969264360E+02 -0.27413473400E+03  0.27501724507E+03  0.00000000000E+00 0. -1.
         -2    1    1    2    0  503  0.14085888702E+01 -0.21969264360E+02 -0.38793323577E+03  0.38855736785E+03  0.00000000000E+00 0.  1.
<mgrwt>
<rscale>  2 0.22014375E+02</rscale>
<asrwt>0</asrwt>
<pdfrwt beam="1">  1       21 0.11589530E-03 0.22014375E+02</pdfrwt>
<pdfrwt beam="2">  1       21 0.10197279E+00 0.22014375E+02</pdfrwt>
<totfact> 0.61098985E+07</totfact>
</mgrwt>
</event>
<event>
 4    1  0.2677450E+004  0.2079308E+02  0.7546771E-02  0.1730002E+00
         21   -1    0    0  503  502  0.00000000000E+00  0.00000000000E+00  0.28046789781E+02  0.28046789781E+02  0.00000000000E+00 0. -1.
         21   -1    0    0  501  503 -0.00000000000E+00 -0.00000000000E+00 -0.16995787365E+02  0.16995787365E+02  0.00000000000E+00 0.  1.
          2    1    1    2  501    0  0.20748590759E+02  0.13594291197E+01 -0.13421211999E+01  0.20836346977E+02  0.00000000000E+00 0. -1.
         -2    1    1    2    0  502 -0.20748590759E+02 -0.13594291197E+01  0.12393123616E+02  0.24206230169E+02  0.00000000000E+00 0.  1.
<mgrwt>
<rscale>  2 0.20793077E+02</rscale>
<asrwt>0</asrwt>
<pdfrwt beam="1">  1       21 0.43148907E-02 0.20793077E+02</pdfrwt>
<pdfrwt beam="2">  1       21 0.26147365E-02 0.20793077E+02</pdfrwt>
<totfact> 0.17368025E+08</totfact>
</mgrwt>
</event>
<event>
 4    1  0.2677450E+004  0.2279927E+02  0.7546771E-02  0.1694785E+00
         21   -1    0    0  503  502  0.00000000000E+00  0.00000000000E+00  0.49331337305E+00  0.49331337305E+00  0.00000000000E+00 0. -1.
         21   -1    0    0  501  503 -0.00000000000E+00 -0.00000000000E+00 -0.15018354529E+04  0.15018354529E+04  0.00000000000E+00 0.  1.
          2    1    1    2  501    0 -0.33979205577E+01 -0.22544641977E+02 -0.11609942588E+04  0.11612181000E+04  0.00000000000E+00 0.  1.
         -2    1    1    2    0  502  0.33979205577E+01  0.22544641977E+02 -0.34034788065E+03  0.34111066622E+03  0.00000000000E+00 0. -1.
<mgrwt>
<rscale>  2 0.22799271E+02</rscale>
<asrwt>0</asrwt>
<pdfrwt beam="1">  1       21 0.75895519E-04 0.22799271E+02</pdfrwt>
<pdfrwt beam="2">  1       21 0.23104810E+00 0.22799271E+02</pdfrwt>
<totfact> 0.15680306E+07</totfact>
</mgrwt>
</event>
<event>
 4    1  0.2677450E+004  0.3153466E+02  0.7546771E-02  0.1581719E+00
         21   -1    0    0  501  502  0.00000000000E+00  0.00000000000E+00  0.68165043774E+02  0.68165043774E+02  0.00000000000E+00 0. -1.
         21   -1    0    0  502  503 -0.00000000000E+00 -0.00000000000E+00 -0.18160453186E+02  0.18160453186E+02  0.00000000000E+00 0.  1.
          2    1    1    2  501    0  0.30638135491E+02  0.74658925295E+01  0.44144434202E+02  0.54250953620E+02  0.00000000000E+00 0. -1.
         -2    1    1    2    0  503 -0.30638135491E+02 -0.74658925295E+01  0.58601563864E+01  0.32074543340E+02  0.00000000000E+00 0.  1.
<mgrwt>
<rscale>  2 0.31534662E+02</rscale>
<asrwt>0</asrwt>
<pdfrwt beam="1">  1       21 0.10486930E-01 0.31534662E+02</pdfrwt>
<pdfrwt beam="2">  1       21 0.27939159E-02 0.31534662E+02</pdfrwt>
<totfact> 0.41314506E+07</totfact>
</mgrwt>
</event>
<event>
 4    1  0.2677450E+004  0.2785003E+02  0.7546771E-02  0.1623147E+00
         21   -1    0    0  503  502  0.00000000000E+00  0.00000000000E+00  0.42230713079E+01  0.42230713079E+01  0.00000000000E+00 0. -1.
         21   -1    0    0  501  503 -0.00000000000E+00 -0.00000000000E+00 -0.19444011598E+03  0.19444011598E+03  0.00000000000E+00 0.  1.
          2    1    1    2  501    0 -0.23208250680E+02 -0.15394853173E+02 -0.11849334155E+03  0.12172220995E+03  0.00000000000E+00 0.  1.
         -2    1    1    2    0  502  0.23208250680E+02  0.15394853173E+02 -0.71723703117E+02  0.76940977331E+02  0.00000000000E+00 0. -1.
<mgrwt>
<rscale>  2 0.27850034E+02</rscale>
<asrwt>0</asrwt>
<pdfrwt beam="1">  1       21 0.64970349E-03 0.27850034E+02</pdfrwt>
<pdfrwt beam="2">  1       21 0.29913854E-01 0.27850034E+02</pdfrwt>
<totfact> 0.59927549E+07</totfact>
</mgrwt>
</event>
<event>
 4    1  0.2677450E+004  0.2225836E+02  0.7546771E-02  0.1703822E+00
         21   -1    0    0  503  502  0.00000000000E+00  0.00000000000E+00  0.49444798419E+02  0.49444798419E+02  0.00000000000E+00 0.  1.
         21   -1    0    0  501  503 -0.00000000000E+00 -0.00000000000E+00 -0.23788694020E+02  0.23788694020E+02  0.00000000000E+00 0. -1.
          2    1    1    2  501    0 -0.21929836692E+02  0.38101018187E+01 -0.15029409840E+02  0.26857359761E+02  0.00000000000E+00 0. -1.
         -2    1    1    2    0  502  0.21929836692E+02 -0.38101018187E+01  0.40685514239E+02  0.46376132677E+02  0.00000000000E+00 0.  1.
<mgrwt>
<rscale>  2 0.22258361E+02</rscale>
<asrwt>0</asrwt>
<pdfrwt beam="1">  1       21 0.76068921E-02 0.22258361E+02</pdfrwt>
<pdfrwt beam="2">  1       21 0.36597991E-02 0.22258361E+02</pdfrwt>
<totfact> 0.42407118E+07</totfact>
</mgrwt>
</event>
<event>
 4    1  0.2677450E+004  0.3282068E+02  0.7546771E-02  0.1568851E+00
         21   -1    0    0  501  502  0.00000000000E+00  0.00000000000E+00  0.16367149536E+01  0.16367149536E+01  0.00000000000E+00 0.  1.
         21   -1    0    0  502  503 -0.00000000000E+00 -0.00000000000E+00 -0.66178165912E+03  0.66178165912E+03  0.00000000000E+00 0. -1.
          2    1    1    2  501    0  0.32740278858E+02  0.22959183940E+01 -0.30548563738E+03  0.30724366836E+03  0.00000000000E+00 0.  1.
         -2    1    1    2    0  503 -0.32740278858E+02 -0.22959183940E+01 -0.35465930679E+03  0.35617470572E+03  0.00000000000E+00 0. -1.
<mgrwt>
<rscale>  2 0.32820681E+02</rscale>
<asrwt>0</asrwt>
<pdfrwt beam="1">  1       21 0.25180202E-03 0.32820681E+02</pdfrwt>
<pdfrwt beam="2">  1       21 0.10181268E+00 0.32820681E+02</pdfrwt>
<totfact> 0.21521119E+07</totfact>
</mgrwt>
</event>
<event>
 4    1  0.2677450E+004  0.2271776E+02  0.7546771E-02  0.1696126E+00
         21   -1    0    0  501  502  0.00000000000E+00  0.00000000000E+00  0.84747798064E+01  0.84747798064E+01  0.00000000000E+00 0. -1.
         21   -1    0    0  502  503 -0.00000000000E+00 -0.00000000000E+00 -0.64797377284E+02  0.64797377284E+02  0.00000000000E+00 0.  1.
          2    1    1    2  501    0 -0.10355514476E+02  0.20220288303E+02 -0.37148625555E+02  0.43544426965E+02  0.00000000000E+00 0.  1.
         -2    1    1    2    0  503  0.10355514476E+02 -0.20220288303E+02 -0.19173971922E+02  0.29727730125E+02  0.00000000000E+00 0. -1.
<mgrwt>
<rscale>  2 0.22717763E+02</rscale>
<asrwt>0</asrwt>
<pdfrwt beam="1">  1       21 0.13038123E-02 0.22717763E+02</pdfrwt>
<pdfrwt beam="2">  1       21 0.99688273E-02 0.22717763E+02</pdfrwt>
<totfact> 0.13401149E+08</totfact>
</mgrwt>
</event>
<event>
 4    1  0.2677450E+004  0.2355260E+02  0.7546771E-02  0.1682706E+00
         21   -1    0    0  501  502  0.00000000000E+00  0.00000000000E+00  0.10858823561E+02  0.10858823561E+02  0.00000000000E+00 0. -1.
         21   -1    0    0  502  503 -0.00000000000E+00 -0.00000000000E+00 -0.19778463710E+03  0.19778463710E+03  0.00000000000E+00 0.  1.
          2    1    1    2  501    0  0.23526415965E+02 -0.11103245974E+01 -0.36181489391E+01  0.23828891511E+02  0.00000000000E+00 0. -1.
         -2    1    1    2    0  503 -0.23526415965E+02  0.11103245974E+01 -0.18330766460E+03  0.18481456915E+03  0.00000000000E+00 0.  1.
<mgrwt>
<rscale>  2 0.23552602E+02</rscale>
<asrwt>0</asrwt>
<pdfrwt beam="1">  1       21 0.16705883E-02 0.23552602E+02</pdfrwt>
<pdfrwt beam="2">  1       21 0.30428405E-01 0.23552602E+02</pdfrwt>
<totfact> 0.13478638E+07</totfact>
</mgrwt>
</event>
<event>
 4    1  0.2677450E+004  0.3808624E+02  0.7546771E-02  0.1522786E+00
         21   -1    0    0  503  502  0.00000000000E+00  0.00000000000E+00  0.24239640854E+02  0.24239640854E+02  0.00000000000E+00 0.  1.
         21   -1    0    0  501  503 -0.00000000000E+00 -0.00000000000E+00 -0.65819838049E+02  0.65819838049E+02  0.00000000000E+00 0. -1.
          2    1    1    2  501    0 -0.37931261296E+02  0.34323641073E+01 -0.72202987755E+01  0.38764602684E+02  0.00000000000E+00 0.  1.
         -2    1    1    2    0  502  0.37931261296E+02 -0.34323641073E+01 -0.34359898419E+02  0.51294876218E+02  0.00000000000E+00 0. -1.
<mgrwt>
<rscale>  2 0.38086240E+02</rscale>
<asrwt>0</asrwt>
<pdfrwt beam="1">  1       21 0.37291756E-02 0.38086240E+02</pdfrwt>
<pdfrwt beam="2">  1       21 0.10126129E-01 0.38086240E+02</pdfrwt>
<totfact> 0.28754215E+07</totfact>
</mgrwt>
</event>
<event>
 4    1  0.2677450E+004  0.2512731E+02  0.7546771E-02  0.1659180E+00
         21   -1    0    0  503  502  0.00000000000E+00  0.00000000000E+00  0.26085275217E+03  0.26085275217E+03  0.00000000000E+00 0.  1.
         21   -1    0    0  501  503 -0.00000000000E+00 -0.00000000000E+00 -0.42271746313E+01  0.42271746313E+01  0.00000000000E+00 0. -1.
          2    1    1    2  501    0  0.15751143006E+02 -0.19577618324E+02  0.41663010204E+02  0.48653756941E+02  0.00000000000E+00 0. -1.
         -2    1    1    2    0  502 -0.15751143006E+02  0.19577618324E+02  0.21496256733E+03  0.21642616986E+03  0.00000000000E+00 0.  1.
<mgrwt>
<rscale>  2 0.25127309E+02</rscale>
<asrwt>0</asrwt>
<pdfrwt beam="1">  1       21 0.40131180E-01 0.25127309E+02</pdfrwt>
<pdfrwt beam="2">  1       21 0.65033476E-03 0.25127309E+02</pdfrwt>
<totfact> 0.33860298E+07</totfact>
</mgrwt>
</event>
<event>
 4    1  0.2677450E+004  0.2132737E+02  0.7546771E-02  0.1720151E+00
         21   -1    0    0  503  502  0.00000000000E+00  0.00000000000E+00  0.86357107351E+03  0.86357107351E+03  0.00000000000E+00 0. -1.
         21   -1    0    0  501  503 -0.00000000000E+00 -0.00000000000E+00 -0.96195252272E+00  0.96195252272E+00  0.00000000000E+00 0.  1.
          2    1    1    2  501    0 -0.95527751099E+01  0.19068332254E+02  0.14054274046E+03  0.14215174534E+03  0.00000000000E+00 0.  1.
         -2    1    1    2    0  502  0.95527751099E+01 -0.19068332254E+02  0.72206638053E+03  0.72238128069E+03  0.00000000000E+00 0. -1.
<mgrwt>
<rscale>  2 0.21327372E+02</rscale>
<asrwt>0</asrwt>
<pdfrwt beam="1">  1       21 0.13285647E+00 0.21327372E+02</pdfrwt>
<pdfrwt beam="2">  1       21 0.14799339E-03 0.21327372E+02</pdfrwt>
<totfact> 0.23632254E+07</totfact>
</mgrwt>
</event>
<event>
 4    1  0.2677450E+004  0.2946347E+02  0.7546771E-02  0.1604096E+00
         21   -1    0    0  501  502  0.00000000000E+00  0.00000000000E+00  0.47363563489E+02  0.47363563489E+02  0.00000000000E+00 0. -1.
         21   -1    0    0  502  503 -0.00000000000E+00 -0.00000000000E+00 -0.18717825938E+02  0.18717825938E+02  0.00000000000E+00 0.  1.
          2    1    1    2  501    0  0.46491288526E+01 -0.29094361717E+02  0.19088913228E+02  0.35106735693E+02  0.00000000000E+00 0. -1.
         -2    1    1    2    0  503 -0.46491288526E+01  0.29094361717E+02  0.95568243238E+01  0.30974653734E+02  0.00000000000E+00 0.  1.
<mgrwt>
<rscale>  2 0.29463474E+02</rscale>
<asrwt>0</asrwt>
<pdfrwt beam="1">  1       21 0.72867020E-02 0.29463474E+02</pdfrwt>
<pdfrwt beam="2">  1       21 0.28796655E-02 0.29463474E+02</pdfrwt>
<totfact> 0.71018472E+07</totfact>
</mgrwt>
</event>
<event>
 4    1  0.2677450E+004  0.3009708E+02  0.7546771E-02  0.1597018E+00
         21   -1    0    0  501  502  0.00000000000E+00  0.00000000000E+00  0.56094280189E+02  0.56094280189E+02  0.00000000000E+00 0.  1.
         21   -1    0    0  502  503 -0.00000000000E+00 -0.00000000000E+00 -0.23432481864E+02  0.23432481864E+02  0.00000000000E+00 0. -1.
          2    1    1    2  501    0 -0.25807706471E+02 -0.15485355939E+02  0.38500659129E+02  0.48868545254E+02  0.00000000000E+00 0.  1.
         -2    1    1    2    0  503  0.25807706471E+02  0.15485355939E+02 -0.58388608031E+01  0.30658216799E+02  0.00000000000E+00 0. -1.
<mgrwt>
<rscale>  2 0.30097076E+02</rscale>
<asrwt>0</asrwt>
<pdfrwt beam="1">  1       21 0.86298892E-02 0.30097076E+02</pdfrwt>
<pdfrwt beam="2">  1       21 0.36049972E-02 0.30097076E+02</pdfrwt>
<totfact> 0.37887512E+07</totfact>
</mgrwt>
</event>
<event>
 4    1  0.2677450E+004  0.2760113E+02  0.7546771E-02  0.1626227E+00
         21   -1    0    0  501  502  0.00000000000E+00  0.00000000000E+00  0.21928732889E+01  0.21928732889E+01  0.00000000000E+00 0.  1.
         21   -1    0    0  502  503 -0.00000000000E+00 -0.00000000000E+00 -0.39670490127E+03  0.39670490127E+03  0.00000000000E+00 0. -1.
          2    1    1    2  501    0 -0.67365372657E+01 -0.26766421865E+02 -0.12694772326E+03  0.12991361250E+03  0.00000000000E+00 0.  1.
         -2    1    1    2    0  503  0.67365372657E+01  0.26766421865E+02 -0.26756430472E+03  0.26898416206E+03  0.00000000000E+00 0. -1.
<mgrwt>
<rscale>  2 0.27601128E+02</rscale>
<asrwt>0</asrwt>
<pdfrwt beam="1">  1       21 0.33736541E-03 0.27601128E+02</pdfrwt>
<pdfrwt beam="2">  1       21 0.61031472E-01 0.27601128E+02</pdfrwt>
<totfact> 0.40186009E+07</totfact>
</mgrwt>
</event>
<event>
 4    1  0.2677450E+004  0.2151459E+02  0.7546771E-02  0.1716785E+00
         21   -1    0    0  503  502  0.00000000000E+00  0.00000000000E+00  0.80131919580E+00  0.80131919580E+00  0.00000000000E+00 0.  1.
         21   -1    0    0  501  503 -0.00000000000E+00 -0.00000000000E+00 -0.81278117988E+03  0.81278117988E+03  0.00000000000E+00 0. -1.
          2    1    1    2  501    0 -0.31860387138E+01  0.21277376654E+02 -0.62478876467E+03  0.62515908220E+03  0.00000000000E+00 0. -1.
         -2    1    1    2    0  502  0.31860387138E+01 -0.21277376654E+02 -0.18719109601E+03  0.18842341687E+03  0.00000000000E+00 0.  1.
<mgrwt>
<rscale>  2 0.21514590E+02</rscale>
<asrwt>0</asrwt>
<pdfrwt beam="1">  1       21 0.12327967E-03 0.21514590E+02</pdfrwt>
<pdfrwt beam="2">  1       21 0.12504346E+00 0.21514590E+02</pdfrwt>
<totfact> 0.35304400E+07</totfact>
</mgrwt>
</event>
<event>
 4    1  0.2677450E+004  0.4211120E+02  0.7546771E-02  0.1493226E+00
         21   -1    0    0  503  502  0.00000000000E+00  0.00000000000E+00  0.84458982339E+02  0.84458982339E+02  0.00000000000E+00 0.  1.
         21   -1    0    0  501  503 -0.00000000000E+00 -0.00000000000E+00 -0.30826963747E+02  0.30826963747E+02  0.00000000000E+00 0. -1.
          2    1    1    2  501    0  0.41021496891E+02  0.95178642008E+01 -0.57350708216E+01  0.42499929217E+02  0.00000000000E+00 0. -1.
         -2    1    1    2    0  502 -0.41021496891E+02 -0.95178642008E+01  0.59367089413E+02  0.72786016869E+02  0.00000000000E+00 0.  1.
<mgrwt>
<rscale>  2 0.42111197E+02</rscale>
<asrwt>0</asrwt>
<pdfrwt beam="1">  1       21 0.12993689E-01 0.42111197E+02</pdfrwt>
<pdfrwt beam="2">  1       21 0.47426098E-02 0.42111197E+02</pdfrwt>
<totfact> 0.12966180E+07</totfact>
</mgrwt>
</event>
<event>
 4    1  0.2677450E+004  0.2037895E+02  0.7546771E-02  0.1737895E+00
         21   -1    0    0  503  502  0.00000000000E+00  0.00000000000E+00  0.34246704723E+03  0.34246704723E+03  0.00000000000E+00 0.  1.
         21   -1    0    0  501  503 -0.00000000000E+00 -0.00000000000E+00 -0.78666634391E+01  0.78666634391E+01  0.00000000000E+00 0. -1.
          2    1    1    2  501    0 -0.60498218621E+01 -0.19460249744E+02  0.61994176560E+01  0.21301043259E+02  0.00000000000E+00 0. -1.
         -2    1    1    2    0  502  0.60498218621E+01  0.19460249744E+02  0.32840096614E+03  0.32903266741E+03  0.00000000000E+00 0.  1.
<mgrwt>
<rscale>  2 0.20378952E+02</rscale>
<asrwt>0</asrwt>
<pdfrwt beam="1">  1       21 0.52687227E-01 0.20378952E+02</pdfrwt>
<pdfrwt beam="2">  1       21 0.12102562E-02 0.20378952E+02</pdfrwt>
<totfact> 0.76057947E+06</totfact>
</mgrwt>
</event>
<event>
 4    1  0.2677450E+004  0.2603241E+02  0.7546771E-02  0.1646601E+00
         21   -1    0    0  503  502  0.00000000000E+00  0.00000000000E+00  0.19906067748E+02  0.19906067748E+02  0.00000000000E+00 0.  1.
         21   -1    0    0  501  503 -0.00000000000E+00 -0.00000000000E+00 -0.43192377148E+02  0.43192377148E+02  0.00000000000E+00 0. -1.
          2    1    1    2  501    0  0.25995328504E+02  0.13890139057E+01 -0.26162666624E+02  0.36907608817E+02  0.00000000000E+00 0.  1.
         -2    1    1    2    0  502 -0.25995328504E+02 -0.13890139057E+01  0.28763572239E+01  0.26190836080E+02  0.00000000000E+00 0. -1.
<mgrwt>
<rscale>  2 0.26032412E+02</rscale>
<asrwt>0</asrwt>
<pdfrwt beam="1">  1       21 0.30624720E-02 0.26032412E+02</pdfrwt>
<pdfrwt beam="2">  1       21 0.66449811E-02 0.26032412E+02</pdfrwt>
<totfact> 0.72678919E+07</totfact>
</mgrwt>
</event>
<event>
 4    1  0.2677450E+004  0.3466646E+02  0.7546771E-02  0.1551583E+00
         21   -1    0    0  501  502  0.00000000000E+00  0.00000000000E+00  0.20751999917E+03  0.20751999917E+03  0.00000000000E+00 0.  1.
         21   -1    0    0  502  503 -0.00000000000E+00 -0.00000000000E+00 -0.13736253417E+02  0.13736253417E+02  0.00000000000E+00 0. -1.
          2    1    1    2  501    0  0.31476736384E+02  0.14525111258E+02  0.18102814167E+03  0.18431753001E+03  0.00000000000E+00 0.  1.
         -2    1    1    2    0  503 -0.31476736384E+02 -0.14525111258E+02  0.12755604081E+02  0.36938722581E+02  0.00000000000E+00 0. -1.
<mgrwt>
<rscale>  2 0.34666465E+02</rscale>
<asrwt>0</asrwt>
<pdfrwt beam="1">  1       21 0.31926151E-01 0.34666465E+02</pdfrwt>
<pdfrwt beam="2">  1       21 0.21132699E-02 0.34666465E+02</pdfrwt>
<totfact> 0.91510049E+06</totfact>
</mgrwt>
</event>
<event>
 4    1  0.2677450E+004  0.2087798E+02  0.7546771E-02  0.1728412E+00
         21   -1    0    0  501  502  0.00000000000E+00  0.00000000000E+00  0.39513514440E+03  0.39513514440E+03  0.00000000000E+00 0.  1.
         21   -1    0    0  502  503 -0.00000000000E+00 -0.00000000000E+00 -0.12105836237E+01  0.12105836237E+01  0.00000000000E+00 0. -1.
          2    1    1    2  501    0 -0.17659606101E+02 -0.11136793099E+02  0.13792385935E+03  0.13949509248E+03  0.00000000000E+00 0.  1.
         -2    1    1    2    0  503  0.17659606101E+02  0.11136793099E+02  0.25600070142E+03  0.25685063554E+03  0.00000000000E+00 0. -1.
<mgrwt>
<rscale>  2 0.20877975E+02</rscale>
<asrwt>0</asrwt>
<pdfrwt beam="1">  1       21 0.60789919E-01 0.20877975E+02</pdfrwt>
<pdfrwt beam="2">  1       21 0.18624395E-03 0.20877975E+02</pdfrwt>
<totfact> 0.90046424E+07</totfact>
</mgrwt>
</event>
<event>
 4    1  0.2677450E+004  0.2316718E+02  0.7546771E-02  0.1688814E+00
         21   -1    0    0  501  502  0.00000000000E+00  0.00000000000E+00  0.64310671679E+00  0.64310671679E+00  0.00000000000E+00 0.  1.
         21   -1    0    0  502  503 -0.00000000000E+00 -0.00000000000E+00 -0.10680199004E+04  0.10680199004E+04  0.00000000000E+00 0. -1.
          2    1    1    2  501    0 -0.22648485270E+02  0.48748733589E+01 -0.28387430203E+03  0.28481807813E+03  0.00000000000E+00 0.  1.
         -2    1    1    2    0  503  0.22648485270E+02 -0.48748733589E+01 -0.78350249161E+03  0.78384492895E+03  0.00000000000E+00 0. -1.
<mgrwt>
<rscale>  2 0.23167181E+02</rscale>
<asrwt>0</asrwt>
<pdfrwt beam="1">  1       21 0.98939542E-04 0.23167181E+02</pdfrwt>
<pdfrwt beam="2">  1       21 0.16431067E+00 0.23167181E+02</pdfrwt>
<totfact> 0.25812361E+07</totfact>
</mgrwt>
</event>
<event>
 4    1  0.2677450E+004  0.2180214E+02  0.7546771E-02  0.1711696E+00
         21   -1    0    0  501  502  0.00000000000E+00  0.00000000000E+00  0.42280038053E+01  0.42280038053E+01  0.00000000000E+00 0.  1.
         21   -1    0    0  502  503 -0.00000000000E+00 -0.00000000000E+00 -0.15893010482E+03  0.15893010482E+03  0.00000000000E+00 0. -1.
          2    1    1    2  501    0 -0.19426242920E+02 -0.98972006188E+01 -0.33221885318E+02  0.39736974699E+02  0.00000000000E+00 0.  1.
         -2    1    1    2    0  503  0.19426242920E+02  0.98972006188E+01 -0.12148021569E+03  0.12342113392E+03  0.00000000000E+00 0. -1.
<mgrwt>
<rscale>  2 0.21802144E+02</rscale>
<asrwt>0</asrwt>
<pdfrwt beam="1">  1       21 0.65046223E-03 0.21802144E+02</pdfrwt>
<pdfrwt beam="2">  1       21 0.24450781E-01 0.21802144E+02</pdfrwt>
<totfact> 0.81002062E+07</totfact>
</mgrwt>
</event>
<event>
 4    1  0.2677450E+004  0.2812374E+02  0.7546771E-02  0.1619805E+00
         21   -1    0    0  501  502  0.00000000000E+00  0.00000000000E+00  0.44779043088E+02  0.44779043088E+02  0.00000000000E+00 0.  1.
         21   -1    0    0  502  503 -0.00000000000E+00 -0.00000000000E+00 -0.38306612507E+02  0.38306612507E+02  0.00000000000E+00 0. -1.
          2    1    1    2  501    0  0.41580089762E+01  0.27814665562E+02  0.33732653017E+02  0.43918521589E+02  0.00000000000E+00 0.  1.
         -2    1    1    2    0  503 -0.41580089762E+01 -0.27814665562E+02 -0.27260222436E+02  0.39167134006E+02  0.00000000000E+00 0. -1.
<mgrwt>
<rscale>  2 0.28123738E+02</rscale>
<asrwt>0</asrwt>
<pdfrwt beam="1">  1       21 0.68890835E-02 0.28123738E+02</pdfrwt>
<pdfrwt beam="2">  1       21 0.58933250E-02 0.28123738E+02</pdfrwt>
<totfact> 0.24631220E+07</totfact>
</mgrwt>
</event>
<event>
 4    1  0.2677450E+004  0.2311910E+02  0.7546771E-02  0.1689587E+00
         21   -1    0    0  503  502  0.00000000000E+00  0.00000000000E+00  0.41482910981E+01  0.41482910981E+01  0.00000000000E+00 0. -1.
         21   -1    0    0  501  503 -0.00000000000E+00 -0.00000000000E+00 -0.13506502240E+03  0.13506502240E+03  0.00000000000E+00 0.  1.
          2    1    1    2  501    0  0.41118663036E+01 -0.22750499877E+02 -0.80394003310E+02  0.83652187403E+02  0.00000000000E+00 0. -1.
         -2    1    1    2    0  502 -0.41118663036E+01  0.22750499877E+02 -0.50522727992E+02  0.55561126094E+02  0.00000000000E+00 0.  1.
<mgrwt>
<rscale>  2 0.23119098E+02</rscale>
<asrwt>0</asrwt>
<pdfrwt beam="1">  1       21 0.63819869E-03 0.23119098E+02</pdfrwt>
<pdfrwt beam="2">  1       21 0.20779232E-01 0.23119098E+02</pdfrwt>
<totfact> 0.11280291E+08</totfact>
</mgrwt>
</event>
<event>
 4    1  0.2677450E+004  0.2014574E+02  0.7546771E-02  0.1742445E+00
         21   -1    0    0  501  502  0.00000000000E+00  0.00000000000E+00  0.19800556257E+01  0.19800556257E+01  0.00000000000E+00 0.  1.
         21   -1    0    0  502  503 -0.00000000000E+00 -0.00000000000E+00 -0.11747129014E+04  0.11747129014E+04  0.00000000000E+00 0. -1.
          2    1    1    2  501    0 -0.18286830988E+02 -0.84523811589E+01 -0.51807338537E+02  0.55586430548E+02  0.00000000000E+00 0.  1.
         -2    1    1    2    0  503  0.18286830988E+02  0.84523811589E+01 -0.11209255073E+04  0.11211065265E+04  0.00000000000E+00 0. -1.
<mgrwt>
<rscale>  2 0.20145742E+02</rscale>
<asrwt>0</asrwt>
<pdfrwt beam="1">  1       21 0.30462393E-03 0.20145742E+02</pdfrwt>
<pdfrwt beam="2">  1       21 0.18072507E+00 0.20145742E+02</pdfrwt>
<totfact> 0.39839985E+06</totfact>
</mgrwt>
</event>
<event>
 4    1  0.2677450E+004  0.2082467E+02  0.7546771E-02  0.1729409E+00
         21   -1    0    0  503  502  0.00000000000E+00  0.00000000000E+00  0.19091853895E+01  0.19091853895E+01  0.00000000000E+00 0.  1.
         21   -1    0    0  501  503 -0.00000000000E+00 -0.00000000000E+00 -0.50071278901E+03  0.50071278901E+03  0.00000000000E+00 0. -1.
          2    1    1    2  501    0 -0.20572166115E+02 -0.32331016393E+01 -0.43515979686E+03  0.43565779664E+03  0.00000000000E+00 0. -1.
         -2    1    1    2    0  502  0.20572166115E+02  0.32331016393E+01 -0.63643806763E+02  0.66964177768E+02  0.00000000000E+00 0.  1.
<mgrwt>
<rscale>  2 0.20824672E+02</rscale>
<asrwt>0</asrwt>
<pdfrwt beam="1">  1       21 0.29372053E-03 0.20824672E+02</pdfrwt>
<pdfrwt beam="2">  1       21 0.77032814E-01 0.20824672E+02</pdfrwt>
<totfact> 0.28794056E+07</totfact>
</mgrwt>
</event>
<event>
 4    1  0.2677450E+004  0.5332400E+02  0.7546771E-02  0.1428195E+00
         21   -1    0    0  501  502  0.00000000000E+00  0.00000000000E+00  0.12990489879E+03  0.12990489879E+03  0.00000000000E+00 0.  1.
         21   -1    0    0  502  503 -0.00000000000E+00 -0.00000000000E+00 -0.33550223896E+02  0.33550223896E+02  0.00000000000E+00 0. -1.
          2    1    1    2  501    0  0.25656876732E+02  0.46745846715E+02  0.96360850430E+02  0.11013111733E+03  0.00000000000E+00 0.  1.
         -2    1    1    2    0  503 -0.25656876732E+02 -0.46745846715E+02 -0.61755394095E-02  0.53324005353E+02  0.00000000000E+00 0. -1.
<mgrwt>
<rscale>  2 0.53324005E+02</rscale>
<asrwt>0</asrwt>
<pdfrwt beam="1">  1       21 0.19985369E-01 0.53324005E+02</pdfrwt>
<pdfrwt beam="2">  1       21 0.51615730E-02 0.53324005E+02</pdfrwt>
<totfact> 0.54392155E+06</totfact>
</mgrwt>
</event>
<event>
 4    1  0.2677450E+004  0.2561724E+02  0.7546771E-02  0.1652291E+00
         21   -1    0    0  503  502  0.00000000000E+00  0.00000000000E+00  0.26526065412E+03  0.26526065412E+03  0.00000000000E+00 0.  1.
         21   -1    0    0  501  503 -0.00000000000E+00 -0.00000000000E+00 -0.32547918631E+01  0.32547918631E+01  0.00000000000E+00 0. -1.
          2    1    1    2  501    0  0.24023130425E+02  0.88956207310E+01  0.65243525180E+02  0.70092513449E+02  0.00000000000E+00 0.  1.
         -2    1    1    2    0  502 -0.24023130425E+02 -0.88956207310E+01  0.19676233708E+03  0.19842293254E+03  0.00000000000E+00 0. -1.
<mgrwt>
<rscale>  2 0.25617238E+02</rscale>
<asrwt>0</asrwt>
<pdfrwt beam="1">  1       21 0.40809315E-01 0.25617238E+02</pdfrwt>
<pdfrwt beam="2">  1       21 0.50073742E-03 0.25617238E+02</pdfrwt>
<totfact> 0.48556594E+07</totfact>
</mgrwt>
</event>
<event>
 4    1  0.2677450E+004  0.2630258E+02  0.7546771E-02  0.1642968E+00
         21   -1    0    0  501  502  0.00000000000E+00  0.00000000000E+00  0.52983397518E+00  0.52983397518E+00  0.00000000000E+00 0.  1.
         21   -1    0    0  502  503 -0.00000000000E+00 -0.00000000000E+00 -0.15791153737E+04  0.15791153737E+04  0.00000000000E+00 0. -1.
          2    1    1    2  501    0 -0.18603257031E+02 -0.18594204018E+02 -0.46066667049E+03  0.46141695558E+03  0.00000000000E+00 0.  1.
         -2    1    1    2    0  503  0.18603257031E+02  0.18594204018E+02 -0.11179188692E+04  0.11182282521E+04  0.00000000000E+00 0. -1.
<mgrwt>
<rscale>  2 0.26302578E+02</rscale>
<asrwt>0</asrwt>
<pdfrwt beam="1">  1       21 0.81514338E-04 0.26302578E+02</pdfrwt>
<pdfrwt beam="2">  1       21 0.24293660E+00 0.26302578E+02</pdfrwt>
<totfact> 0.12485333E+07</totfact>
</mgrwt>
</event>
<event>
 4    1  0.2677450E+004  0.3072021E+02  0.7546771E-02  0.1590261E+00
         21   -1    0    0  501  502  0.00000000000E+00  0.00000000000E+00  0.21671740961E+03  0.21671740961E+03  0.00000000000E+00 0. -1.
         21   -1    0    0  502  503 -0.00000000000E+00 -0.00000000000E+00 -0.45155917711E+01  0.45155917711E+01  0.00000000000E+00 0.  1.
          2    1    1    2  501    0  0.30383539793E+02  0.45356066573E+01  0.12698328166E+03  0.13064641227E+03  0.00000000000E+00 0.  1.
         -2    1    1    2    0  503 -0.30383539793E+02 -0.45356066573E+01  0.85218536177E+02  0.90586589109E+02  0.00000000000E+00 0. -1.
<mgrwt>
<rscale>  2 0.30720209E+02</rscale>
<asrwt>0</asrwt>
<pdfrwt beam="1">  1       21 0.33341132E-01 0.30720209E+02</pdfrwt>
<pdfrwt beam="2">  1       21 0.69470659E-03 0.30720209E+02</pdfrwt>
<totfact> 0.45301250E+07</totfact>
</mgrwt>
</event>
<event>
 4    1  0.2677450E+004  0.2084440E+02  0.7546771E-02  0.1729039E+00
         21   -1    0    0  501  502  0.00000000000E+00  0.00000000000E+00  0.35998272335E+01  0.35998272335E+01  0.00000000000E+00 0. -1.
         21   -1    0    0  502  503 -0.00000000000E+00 -0.00000000000E+00 -0.20517977207E+03  0.20517977207E+03  0.00000000000E+00 0.  1.
          2    1    1    2  501    0 -0.20840177816E+02  0.41961067751E+00 -0.33805468680E+02  0.39715221228E+02  0.00000000000E+00 0. -1.
         -2    1    1    2    0  503  0.20840177816E+02 -0.41961067751E+00 -0.16777447615E+03  0.16906437807E+03  0.00000000000E+00 0.  1.
<mgrwt>
<rscale>  2 0.20844402E+02</rscale>
<asrwt>0</asrwt>
<pdfrwt beam="1">  1       21 0.55381951E-03 0.20844402E+02</pdfrwt>
<pdfrwt beam="2">  1       21 0.31566123E-01 0.20844402E+02</pdfrwt>
<totfact> 0.64141669E+07</totfact>
</mgrwt>
</event>
<event>
 4    1  0.2677450E+004  0.2778673E+02  0.7546771E-02  0.1623926E+00
         21   -1    0    0  501  502  0.00000000000E+00  0.00000000000E+00  0.56043760426E+01  0.56043760426E+01  0.00000000000E+00 0.  1.
         21   -1    0    0  502  503 -0.00000000000E+00 -0.00000000000E+00 -0.40575958176E+03  0.40575958176E+03  0.00000000000E+00 0. -1.
          2    1    1    2  501    0  0.25518329284E+02  0.10996229308E+02 -0.32921344442E+02  0.43080356409E+02  0.00000000000E+00 0.  1.
         -2    1    1    2    0  503 -0.25518329284E+02 -0.10996229308E+02 -0.36723386128E+03  0.36828360140E+03  0.00000000000E+00 0. -1.
<mgrwt>
<rscale>  2 0.27786727E+02</rscale>
<asrwt>0</asrwt>
<pdfrwt beam="1">  1       21 0.86221150E-03 0.27786727E+02</pdfrwt>
<pdfrwt beam="2">  1       21 0.62424566E-01 0.27786727E+02</pdfrwt>
<totfact> 0.95227082E+06</totfact>
</mgrwt>
</event>
<event>
 4    1  0.2677450E+004  0.2615546E+02  0.7546771E-02  0.1644940E+00
         21   -1    0    0  503  502  0.00000000000E+00  0.00000000000E+00  0.49184258399E+02  0.49184258399E+02  0.00000000000E+00 0. -1.
         21   -1    0    0  501  503 -0.00000000000E+00 -0.00000000000E+00 -0.14077952068E+02  0.14077952068E+02  0.00000000000E+00 0.  1.
          2    1    1    2  501    0  0.51933201704E+01 -0.25634688514E+02  0.14088798343E+02  0.29708619428E+02  0.00000000000E+00 0.  1.
         -2    1    1    2    0  502 -0.51933201704E+01  0.25634688514E+02  0.21017507988E+02  0.33553591039E+02  0.00000000000E+00 0. -1.
<mgrwt>
<rscale>  2 0.26155455E+02</rscale>
<asrwt>0</asrwt>
<pdfrwt beam="1">  1       21 0.75668089E-02 0.26155455E+02</pdfrwt>
<pdfrwt beam="2">  1       21 0.21658388E-02 0.26155455E+02</pdfrwt>
<totfact> 0.10094113E+08</totfact>
</mgrwt>
</event>
<event>
 4    1  0.2677450E+004  0.2090382E+02  0.7546771E-02  0.1727930E+00
         21   -1    0    0  503  502  0.00000000000E+00  0.00000000000E+00  0.50174030635E+02  0.50174030635E+02  0.00000000000E+00 0.  1.
         21   -1    0    0  501  503 -0.00000000000E+00 -0.00000000000E+00 -0.43178178082E+02  0.43178178082E+02  0.00000000000E+00 0. -1.
          2    1    1    2  501    0 -0.16627354285E+02  0.12668883141E+02 -0.38206045940E+02  0.43550791691E+02  0.00000000000E+00 0. -1.
         -2    1    1    2    0  502  0.16627354285E+02 -0.12668883141E+02  0.45201898492E+02  0.49801417026E+02  0.00000000000E+00 0.  1.
<mgrwt>
<rscale>  2 0.20903816E+02</rscale>
<asrwt>0</asrwt>
<pdfrwt beam="1">  1       21 0.77190816E-02 0.20903816E+02</pdfrwt>
<pdfrwt beam="2">  1       21 0.66427966E-02 0.20903816E+02</pdfrwt>
<totfact> 0.15839015E+07</totfact>
</mgrwt>
</event>
<event>
 4    1  0.2677450E+004  0.2193028E+02  0.7546771E-02  0.1709461E+00
         21   -1    0    0  501  502  0.00000000000E+00  0.00000000000E+00  0.14255040037E+02  0.14255040037E+02  0.00000000000E+00 0. -1.
         21   -1    0    0  502  503 -0.00000000000E+00 -0.00000000000E+00 -0.36595181752E+02  0.36595181752E+02  0.00000000000E+00 0.  1.
          2    1    1    2  501    0  0.21329018176E+02  0.51000128767E+01 -0.40658476253E+01  0.22303996606E+02  0.00000000000E+00 0. -1.
         -2    1    1    2    0  503 -0.21329018176E+02 -0.51000128767E+01 -0.18274294089E+02  0.28546225182E+02  0.00000000000E+00 0.  1.
<mgrwt>
<rscale>  2 0.21930279E+02</rscale>
<asrwt>0</asrwt>
<pdfrwt beam="1">  1       21 0.21930831E-02 0.21930279E+02</pdfrwt>
<pdfrwt beam="2">  1       21 0.56300280E-02 0.21930279E+02</pdfrwt>
<totfact> 0.15180352E+08</totfact>
</mgrwt>
</event>
<event>
 4    1  0.2677450E+004  0.2133499E+02  0.7546771E-02  0.1720013E+00
         21   -1    0    0  501  502  0.00000000000E+00  0.00000000000E+00  0.27974948643E+02  0.27974948643E+02  0.00000000000E+00 0. -1.
         21   -1    0    0  502  503 -0.00000000000E+00 -0.00000000000E+00 -0.16310114370E+02  0.16310114370E+02  0.00000000000E+00 0.  1.
          2    1    1    2  501    0  0.60947654349E+01 -0.20445920266E+02  0.47487831837E+01  0.21857098686E+02  0.00000000000E+00 0.  1.
         -2    1    1    2    0  503 -0.60947654349E+01  0.20445920266E+02  0.69160510888E+01  0.22427964328E+02  0.00000000000E+00 0. -1.
<mgrwt>
<rscale>  2 0.21334991E+02</rscale>
<asrwt>0</asrwt>
<pdfrwt beam="1">  1       21 0.43038383E-02 0.21334991E+02</pdfrwt>
<pdfrwt beam="2">  1       21 0.25092484E-02 0.21334991E+02</pdfrwt>
<totfact> 0.18734290E+08</totfact>
</mgrwt>
</event>
<event>
 4    1  0.2677450E+004  0.2030610E+02  0.7546771E-02  0.1739309E+00
         21   -1    0    0  501  502  0.00000000000E+00  0.00000000000E+00  0.20223300803E+04  0.20223300803E+04  0.00000000000E+00 0. -1.
         21   -1    0    0  502  503 -0.00000000000E+00 -0.00000000000E+00 -0.21024079391E+00  0.21024079391E+00  0.00000000000E+00 0.  1.
          2    1    1    2  501    0  0.19134377604E+02 -0.67980290524E+01  0.11867886630E+04  0.11869623701E+04  0.00000000000E+00 0.  1.
         -2    1    1    2    0  503 -0.19134377604E+02  0.67980290524E+01  0.83533117655E+03  0.83557795095E+03  0.00000000000E+00 0. -1.
<mgrwt>
<rscale>  2 0.20306098E+02</rscale>
<asrwt>0</asrwt>
<pdfrwt beam="1">  1       21 0.31111213E+00 0.20306098E+02</pdfrwt>
<pdfrwt beam="2">  1       21 0.32346357E-04 0.20306098E+02</pdfrwt>
<totfact> 0.20985814E+07</totfact>
</mgrwt>
</event>
<event>
 4    1  0.2677450E+004  0.2226871E+02  0.7546771E-02  0.1703646E+00
         21   -1    0    0  503  502  0.00000000000E+00  0.00000000000E+00  0.14557815157E+02  0.14557815157E+02  0.00000000000E+00 0.  1.
         21   -1    0    0  501  503 -0.00000000000E+00 -0.00000000000E+00 -0.22552526125E+03  0.22552526125E+03  0.00000000000E+00 0. -1.
          2    1    1    2  501    0  0.20120355221E+02  0.95428834038E+01 -0.21608867608E+03  0.21723308047E+03  0.00000000000E+00 0. -1.
         -2    1    1    2    0  502 -0.20120355221E+02 -0.95428834038E+01  0.51212299894E+01  0.22849995940E+02  0.00000000000E+00 0.  1.
<mgrwt>
<rscale>  2 0.22268707E+02</rscale>
<asrwt>0</asrwt>
<pdfrwt beam="1">  1       21 0.22396638E-02 0.22268707E+02</pdfrwt>
<pdfrwt beam="2">  1       21 0.34696194E-01 0.22268707E+02</pdfrwt>
<totfact> 0.66896260E+06</totfact>
</mgrwt>
</event>
<event>
 4    1  0.2677450E+004  0.2043321E+02  0.7546771E-02  0.1736848E+00
         21   -1    0    0  503  502  0.00000000000E+00  0.00000000000E+00  0.66360959526E+02  0.66360959526E+02  0.00000000000E+00 0.  1.
         21   -1    0    0  501  503 -0.00000000000E+00 -0.00000000000E+00 -0.22523853548E+02  0.22523853548E+02  0.00000000000E+00 0. -1.
          2    1    1    2  501    0 -0.12953354388E+02  0.15802739681E+02 -0.15809618596E+02  0.25835247463E+02  0.00000000000E+00 0. -1.
         -2    1    1    2    0  502  0.12953354388E+02 -0.15802739681E+02  0.59646724574E+02  0.63049565611E+02  0.00000000000E+00 0.  1.
<mgrwt>
<rscale>  2 0.20433208E+02</rscale>
<asrwt>0</asrwt>
<pdfrwt beam="1">  1       21 0.10209378E-01 0.20433208E+02</pdfrwt>
<pdfrwt beam="2">  1       21 0.34652083E-02 0.20433208E+02</pdfrwt>
<totfact> 0.27939425E+07</totfact>
</mgrwt>
</event>
<event>
 4    1  0.2677450E+004  0.2095340E+02  0.7546771E-02  0.1727007E+00
         21   -1    0    0  503  502  0.00000000000E+00  0.00000000000E+00  0.96301684551E+02  0.96301684551E+02  0.00000000000E+00 0.  1.
         21   -1    0    0  501  503 -0.00000000000E+00 -0.00000000000E+00 -0.49147754056E+01  0.49147754056E+01  0.00000000000E+00 0. -1.
          2    1    1    2  501    0 -0.71186400825E+01 -0.19707103691E+02  0.59308585520E+02  0.62901139011E+02  0.00000000000E+00 0.  1.
         -2    1    1    2    0  502  0.71186400825E+01  0.19707103691E+02  0.32078323625E+02  0.38315320945E+02  0.00000000000E+00 0. -1.
<mgrwt>
<rscale>  2 0.20953400E+02</rscale>
<asrwt>0</asrwt>
<pdfrwt beam="1">  1       21 0.14815642E-01 0.20953400E+02</pdfrwt>
<pdfrwt beam="2">  1       21 0.75611937E-03 0.20953400E+02</pdfrwt>
<totfact> 0.15257736E+08</totfact>
</mgrwt>
</event>
<event>
 4    1  0.2677450E+004  0.2176020E+02  0.7546771E-02  0.1712432E+00
         21   -1    0    0  501  502  0.00000000000E+00  0.00000000000E+00  0.50698197424E+02  0.50698197424E+02  0.00000000000E+00 0. -1.
         21   -1    0    0  502  503 -0.00000000000E+00 -0.00000000000E+00 -0.10673313124E+02  0.10673313124E+02  0.00000000000E+00 0.  1.
          2    1    1    2  501    0  0.10244261088E+02  0.19197954514E+02  0.30859223234E+02  0.37759740483E+02  0.00000000000E+00 0. -1.
         -2    1    1    2    0  503 -0.10244261088E+02 -0.19197954514E+02  0.91656610660E+01  0.23611770064E+02  0.00000000000E+00 0.  1.
<mgrwt>
<rscale>  2 0.21760201E+02</rscale>
<asrwt>0</asrwt>
<pdfrwt beam="1">  1       21 0.77997225E-02 0.21760201E+02</pdfrwt>
<pdfrwt beam="2">  1       21 0.16420482E-02 0.21760201E+02</pdfrwt>
<totfact> 0.13939066E+08</totfact>
</mgrwt>
</event>
<event>
 4    1  0.2677450E+004  0.3919133E+02  0.7546771E-02  0.1514248E+00
         21   -1    0    0  503  502  0.00000000000E+00  0.00000000000E+00  0.41082502916E+02  0.41082502916E+02  0.00000000000E+00 0. -1.
         21   -1    0    0  501  503 -0.00000000000E+00 -0.00000000000E+00 -0.37401545638E+02  0.37401545638E+02  0.00000000000E+00 0.  1.
          2    1    1    2  501    0 -0.21202873978E+02  0.32960559152E+02  0.26086460440E+01  0.39278051870E+02  0.00000000000E+00 0.  1.
         -2    1    1    2    0  502  0.21202873978E+02 -0.32960559152E+02  0.10723112336E+01  0.39205996683E+02  0.00000000000E+00 0. -1.
<mgrwt>
<rscale>  2 0.39191330E+02</rscale>
<asrwt>0</asrwt>
<pdfrwt beam="1">  1       21 0.63203851E-02 0.39191330E+02</pdfrwt>
<pdfrwt beam="2">  1       21 0.57540840E-02 0.39191330E+02</pdfrwt>
<totfact> 0.31410329E+07</totfact>
</mgrwt>
</event>
<event>
 4    1  0.2677450E+004  0.2069898E+02  0.7546771E-02  0.1731775E+00
         21   -1    0    0  503  502  0.00000000000E+00  0.00000000000E+00  0.95057254105E+01  0.95057254105E+01  0.00000000000E+00 0. -1.
         21   -1    0    0  501  503 -0.00000000000E+00 -0.00000000000E+00 -0.69354709274E+02  0.69354709274E+02  0.00000000000E+00 0.  1.
          2    1    1    2  501    0  0.14104354323E+02 -0.15149750282E+02 -0.53255548762E+02  0.57136688899E+02  0.00000000000E+00 0.  1.
         -2    1    1    2    0  502 -0.14104354323E+02  0.15149750282E+02 -0.65934351018E+01  0.21723745785E+02  0.00000000000E+00 0. -1.
<mgrwt>
<rscale>  2 0.20698979E+02</rscale>
<asrwt>0</asrwt>
<pdfrwt beam="1">  1       21 0.14624193E-02 0.20698979E+02</pdfrwt>
<pdfrwt beam="2">  1       21 0.10669955E-01 0.20698979E+02</pdfrwt>
<totfact> 0.97962507E+07</totfact>
</mgrwt>
</event>
<event>
 4    1  0.2677450E+004  0.2438722E+02  0.7546771E-02  0.1669963E+00
         21   -1    0    0  501  502  0.00000000000E+00  0.00000000000E+00  0.17797824477E+01  0.17797824477E+01  0.00000000000E+00 0.  1.
         21   -1    0    0  502  503 -0.00000000000E+00 -0.00000000000E+00 -0.37335306421E+03  0.37335306421E+03  0.00000000000E+00 0. -1.
          2    1    1    2  501    0 -0.23195251371E+02 -0.75310706517E+01 -0.12501716377E+03  0.12737357634E+03  0.00000000000E+00 0.  1.
         -2    1    1    2    0  503  0.23195251371E+02  0.75310706517E+01 -0.24655611799E+03  0.24775927032E+03  0.00000000000E+00 0. -1.
<mgrwt>
<rscale>  2 0.24387224E+02</rscale>
<asrwt>0</asrwt>
<pdfrwt beam="1">  1       21 0.27381268E-03 0.24387224E+02</pdfrwt>
<pdfrwt beam="2">  1       21 0.57438934E-01 0.24387224E+02</pdfrwt>
<totfact> 0.59988000E+07</totfact>
</mgrwt>
</event>
<event>
 4    1  0.2677450E+004  0.2257598E+02  0.7546771E-02  0.1698477E+00
         21   -1    0    0  501  502  0.00000000000E+00  0.00000000000E+00  0.64612851184E+01  0.64612851184E+01  0.00000000000E+00 0. -1.
         21   -1    0    0  502  503 -0.00000000000E+00 -0.00000000000E+00 -0.86251438390E+02  0.86251438390E+02  0.00000000000E+00 0.  1.
          2    1    1    2  501    0 -0.13415531206E+02  0.18157599124E+02 -0.26344350720E+02  0.34694375601E+02  0.00000000000E+00 0. -1.
         -2    1    1    2    0  503  0.13415531206E+02 -0.18157599124E+02 -0.53445802552E+02  0.58018347907E+02  0.00000000000E+00 0.  1.
<mgrwt>
<rscale>  2 0.22575980E+02</rscale>
<asrwt>0</asrwt>
<pdfrwt beam="1">  1       21 0.99404389E-03 0.22575980E+02</pdfrwt>
<pdfrwt beam="2">  1       21 0.13269452E-01 0.22575980E+02</pdfrwt>
<totfact> 0.12490657E+08</totfact>
</mgrwt>
</event>
<event>
 4    1  0.2677450E+004  0.5278501E+02  0.7546771E-02  0.1430874E+00
         21   -1    0    0  501  502  0.00000000000E+00  0.00000000000E+00  0.12861290196E+03  0.12861290196E+03  0.00000000000E+00 0.  1.
         21   -1    0    0  502  503 -0.00000000000E+00 -0.00000000000E+00 -0.22384148204E+02  0.22384148204E+02  0.00000000000E+00 0. -1.
          2    1    1    2  501    0  0.34344392081E+02  0.40083916473E+02  0.66657159653E+02  0.85026081647E+02  0.00000000000E+00 0.  1.
         -2    1    1    2    0  503 -0.34344392081E+02 -0.40083916473E+02  0.39571594106E+02  0.65970968519E+02  0.00000000000E+00 0. -1.
<mgrwt>
<rscale>  2 0.52785013E+02</rscale>
<asrwt>0</asrwt>
<pdfrwt beam="1">  1       21 0.19786600E-01 0.52785013E+02</pdfrwt>
<pdfrwt beam="2">  1       21 0.34437152E-02 0.52785013E+02</pdfrwt>
<totfact> 0.10682657E+07</totfact>
</mgrwt>
</event>
<event>
 4    1  0.2677450E+004  0.3196217E+02  0.7546771E-02  0.1577360E+00
         21   -1    0    0  501  502  0.00000000000E+00  0.00000000000E+00  0.14310800887E+03  0.14310800887E+03  0.00000000000E+00 0.  1.
         21   -1    0    0  502  503 -0.00000000000E+00 -0.00000000000E+00 -0.16499707386E+02  0.16499707386E+02  0.00000000000E+00 0. -1.
          2    1    1    2  501    0  0.29947023419E+02 -0.11169433150E+02  0.12341475082E+03  0.12748639601E+03  0.00000000000E+00 0.  1.
         -2    1    1    2    0  503 -0.29947023419E+02  0.11169433150E+02  0.31935506686E+01  0.32121320247E+02  0.00000000000E+00 0. -1.
<mgrwt>
<rscale>  2 0.31962172E+02</rscale>
<asrwt>0</asrwt>
<pdfrwt beam="1">  1       21 0.22016616E-01 0.31962172E+02</pdfrwt>
<pdfrwt beam="2">  1       21 0.25384166E-02 0.31962172E+02</pdfrwt>
<totfact> 0.13358185E+07</totfact>
</mgrwt>
</event>
<event>
 4    1  0.2677450E+004  0.2079683E+02  0.7546771E-02  0.1729931E+00
         21   -1    0    0  501  502  0.00000000000E+00  0.00000000000E+00  0.47734459962E+00  0.47734459962E+00  0.00000000000E+00 0.  1.
         21   -1    0    0  502  503 -0.00000000000E+00 -0.00000000000E+00 -0.94399811597E+03  0.94399811597E+03  0.00000000000E+00 0. -1.
          2    1    1    2  501    0 -0.57946529121E+01  0.19973233663E+02 -0.37710388841E+03  0.37767691314E+03  0.00000000000E+00 0.  1.
         -2    1    1    2    0  503  0.57946529121E+01 -0.19973233663E+02 -0.56641688295E+03  0.56679854742E+03  0.00000000000E+00 0. -1.
<mgrwt>
<rscale>  2 0.20796828E+02</rscale>
<asrwt>0</asrwt>
<pdfrwt beam="1">  1       21 0.73437912E-04 0.20796828E+02</pdfrwt>
<pdfrwt beam="2">  1       21 0.14522992E+00 0.20796828E+02</pdfrwt>
<totfact> 0.51753321E+07</totfact>
</mgrwt>
</event>
<event>
 4    1  0.2677450E+004  0.2311303E+02  0.7546771E-02  0.1689684E+00
         21   -1    0    0  503  502  0.00000000000E+00  0.00000000000E+00  0.92717245304E+03  0.92717245304E+03  0.00000000000E+00 0. -1.
         21   -1    0    0  501  503 -0.00000000000E+00 -0.00000000000E+00 -0.59619131555E+00  0.59619131555E+00  0.00000000000E+00 0.  1.
          2    1    1    2  501    0 -0.68251593025E+01  0.22082332841E+02  0.37828695926E+03  0.37899239540E+03  0.00000000000E+00 0.  1.
         -2    1    1    2    0  502  0.68251593025E+01 -0.22082332841E+02  0.54828930246E+03  0.54877624895E+03  0.00000000000E+00 0. -1.
<mgrwt>
<rscale>  2 0.23113031E+02</rscale>
<asrwt>0</asrwt>
<pdfrwt beam="1">  1       21 0.14264076E+00 0.23113031E+02</pdfrwt>
<pdfrwt beam="2">  1       21 0.91722483E-04 0.23113031E+02</pdfrwt>
<totfact> 0.40260450E+07</totfact>
</mgrwt>
</event>
<event>
 4    1  0.2677450E+004  0.2731463E+02  0.7546771E-02  0.1629822E+00
         21   -1    0    0  501  502  0.00000000000E+00  0.00000000000E+00  0.11246676092E+03  0.11246676092E+03  0.00000000000E+00 0. -1.
         21   -1    0    0  502  503 -0.00000000000E+00 -0.00000000000E+00 -0.89647698737E+01  0.89647698737E+01  0.00000000000E+00 0.  1.
          2    1    1    2  501    0 -0.13125051497E+02 -0.23954580206E+02  0.82710537258E+02  0.87104086375E+02  0.00000000000E+00 0.  1.
         -2    1    1    2    0  503  0.13125051497E+02  0.23954580206E+02  0.20791453786E+02  0.34327444417E+02  0.00000000000E+00 0. -1.
<mgrwt>
<rscale>  2 0.27314628E+02</rscale>
<asrwt>0</asrwt>
<pdfrwt beam="1">  1       21 0.17302578E-01 0.27314628E+02</pdfrwt>
<pdfrwt beam="2">  1       21 0.13791954E-02 0.27314628E+02</pdfrwt>
<totfact> 0.50791189E+07</totfact>
</mgrwt>
</event>
<event>
 4    1  0.2677450E+004  0.2258410E+02  0.7546771E-02  0.1698342E+00
         21   -1    0    0  501  502  0.00000000000E+00  0.00000000000E+00  0.27831473246E+02  0.27831473246E+02  0.00000000000E+00 0.  1.
         21   -1    0    0  502  503 -0.00000000000E+00 -0.00000000000E+00 -0.22768016169E+02  0.22768016169E+02  0.00000000000E+00 0. -1.
          2    1    1    2  501    0 -0.51024028404E+01  0.22000158048E+02  0.13706542217E+02  0.26418000841E+02  0.00000000000E+00 0. -1.
         -2    1    1    2    0  503  0.51024028404E+01 -0.22000158048E+02 -0.86430851396E+01  0.24181488573E+02  0.00000000000E+00 0.  1.
<mgrwt>
<rscale>  2 0.22584098E+02</rscale>
<asrwt>0</asrwt>
<pdfrwt beam="1">  1       21 0.42817651E-02 0.22584098E+02</pdfrwt>
<pdfrwt beam="2">  1       21 0.35027717E-02 0.22584098E+02</pdfrwt>
<totfact> 0.11445498E+08</totfact>
</mgrwt>
</event>
<event>
 4    1  0.2677450E+004  0.2874914E+02  0.7546771E-02  0.1612342E+00
         21   -1    0    0  503  502  0.00000000000E+00  0.00000000000E+00  0.13595979536E+02  0.13595979536E+02  0.00000000000E+00 0. -1.
         21   -1    0    0  501  503 -0.00000000000E+00 -0.00000000000E+00 -0.61419088165E+02  0.61419088165E+02  0.00000000000E+00 0.  1.
          2    1    1    2  501    0 -0.17086066477E+01  0.28698319783E+02 -0.27704570398E+02  0.39925632318E+02  0.00000000000E+00 0.  1.
         -2    1    1    2    0  502  0.17086066477E+01 -0.28698319783E+02 -0.20118538231E+02  0.35089435384E+02  0.00000000000E+00 0. -1.
<mgrwt>
<rscale>  2 0.28749137E+02</rscale>
<asrwt>0</asrwt>
<pdfrwt beam="1">  1       21 0.20916892E-02 0.28749137E+02</pdfrwt>
<pdfrwt beam="2">  1       21 0.94490904E-02 0.28749137E+02</pdfrwt>
<totfact> 0.75665110E+07</totfact>
</mgrwt>
</event>
<event>
 4    1  0.2677450E+004  0.5255552E+02  0.7546771E-02  0.1432026E+00
         21   -1    0    0  501  502  0.00000000000E+00  0.00000000000E+00  0.64825892674E+01  0.64825892674E+01  0.00000000000E+00 0. -1.
         21   -1    0    0  502  503 -0.00000000000E+00 -0.00000000000E+00 -0.14118028481E+04  0.14118028481E+04  0.00000000000E+00 0.  1.
          2    1    1    2  501    0  0.50737331113E+02 -0.13704248945E+02 -0.11011059806E+03  0.12200994637E+03  0.00000000000E+00 0. -1.
         -2    1    1    2    0  503 -0.50737331113E+02  0.13704248945E+02 -0.12952096608E+04  0.12962754910E+04  0.00000000000E+00 0.  1.
<mgrwt>
<rscale>  2 0.52555525E+02</rscale>
<asrwt>0</asrwt>
<pdfrwt beam="1">  1       21 0.99732119E-03 0.52555525E+02</pdfrwt>
<pdfrwt beam="2">  1       21 0.21720049E+00 0.52555525E+02</pdfrwt>
<totfact> 0.42743416E+05</totfact>
</mgrwt>
</event>
<event>
 4    1  0.2677450E+004  0.2290553E+02  0.7546771E-02  0.1693046E+00
         21   -1    0    0  501  502  0.00000000000E+00  0.00000000000E+00  0.95689516261E+01  0.95689516261E+01  0.00000000000E+00 0.  1.
         21   -1    0    0  502  503 -0.00000000000E+00 -0.00000000000E+00 -0.63576382894E+02  0.63576382894E+02  0.00000000000E+00 0. -1.
          2    1    1    2  501    0 -0.19415443000E+02  0.12153345015E+02 -0.13438422418E+02  0.26556626650E+02  0.00000000000E+00 0.  1.
         -2    1    1    2    0  503  0.19415443000E+02 -0.12153345015E+02 -0.40569008850E+02  0.46588707870E+02  0.00000000000E+00 0. -1.
<mgrwt>
<rscale>  2 0.22905528E+02</rscale>
<asrwt>0</asrwt>
<pdfrwt beam="1">  1       21 0.14721465E-02 0.22905528E+02</pdfrwt>
<pdfrwt beam="2">  1       21 0.97809817E-02 0.22905528E+02</pdfrwt>
<totfact> 0.11531889E+08</totfact>
</mgrwt>
</event>
<event>
 4    1  0.2677450E+004  0.2222603E+02  0.7546771E-02  0.1704372E+00
         21   -1    0    0  501  502  0.00000000000E+00  0.00000000000E+00  0.53931798722E+02  0.53931798722E+02  0.00000000000E+00 0. -1.
         21   -1    0    0  502  503 -0.00000000000E+00 -0.00000000000E+00 -0.27236751798E+02  0.27236751798E+02  0.00000000000E+00 0.  1.
          2    1    1    2  501    0  0.12037096698E+02 -0.18684343904E+02  0.46410697204E+02  0.51458227904E+02  0.00000000000E+00 0. -1.
         -2    1    1    2    0  503 -0.12037096698E+02  0.18684343904E+02 -0.19715650280E+02  0.29710322617E+02  0.00000000000E+00 0.  1.
<mgrwt>
<rscale>  2 0.22226030E+02</rscale>
<asrwt>0</asrwt>
<pdfrwt beam="1">  1       21 0.82971998E-02 0.22226030E+02</pdfrwt>
<pdfrwt beam="2">  1       21 0.41902695E-02 0.22226030E+02</pdfrwt>
<totfact> 0.29745169E+07</totfact>
</mgrwt>
</event>
<event>
 4    1  0.2677450E+004  0.2514695E+02  0.7546771E-02  0.1658900E+00
         21   -1    0    0  503  502  0.00000000000E+00  0.00000000000E+00  0.24494622000E+02  0.24494622000E+02  0.00000000000E+00 0.  1.
         21   -1    0    0  501  503 -0.00000000000E+00 -0.00000000000E+00 -0.25865572898E+02  0.25865572898E+02  0.00000000000E+00 0. -1.
          2    1    1    2  501    0 -0.24345329976E+02 -0.62987115082E+01  0.40972387253E+00  0.25150282940E+02  0.00000000000E+00 0.  1.
         -2    1    1    2    0  502  0.24345329976E+02  0.62987115082E+01 -0.17806747706E+01  0.25209911958E+02  0.00000000000E+00 0. -1.
<mgrwt>
<rscale>  2 0.25146945E+02</rscale>
<asrwt>0</asrwt>
<pdfrwt beam="1">  1       21 0.37684034E-02 0.25146945E+02</pdfrwt>
<pdfrwt beam="2">  1       21 0.39793189E-02 0.25146945E+02</pdfrwt>
<totfact> 0.11815557E+08</totfact>
</mgrwt>
</event>
<event>
 4    1  0.2677450E+004  0.2024333E+02  0.7546771E-02  0.1740532E+00
         21   -1    0    0  501  502  0.00000000000E+00  0.00000000000E+00  0.49598953356E+02  0.49598953356E+02  0.00000000000E+00 0.  1.
         21   -1    0    0  502  503 -0.00000000000E+00 -0.00000000000E+00 -0.83618850071E+01  0.83618850071E+01  0.00000000000E+00 0. -1.
          2    1    1    2  501    0 -0.17394315993E+02  0.10355202104E+02  0.23784050369E+02  0.31232571003E+02  0.00000000000E+00 0. -1.
         -2    1    1    2    0  503  0.17394315993E+02 -0.10355202104E+02  0.17453017979E+02  0.26728267360E+02  0.00000000000E+00 0.  1.
<mgrwt>
<rscale>  2 0.20243331E+02</rscale>
<asrwt>0</asrwt>
<pdfrwt beam="1">  1       21 0.76306080E-02 0.20243331E+02</pdfrwt>
<pdfrwt beam="2">  1       21 0.12864439E-02 0.20243331E+02</pdfrwt>
<totfact> 0.20431537E+08</totfact>
</mgrwt>
</event>
<event>
 4    1  0.2677450E+004  0.3432637E+02  0.7546771E-02  0.1554665E+00
         21   -1    0    0  503  502  0.00000000000E+00  0.00000000000E+00  0.10658283622E+01  0.10658283622E+01  0.00000000000E+00 0.  1.
         21   -1    0    0  501  503 -0.00000000000E+00 -0.00000000000E+00 -0.11112898816E+04  0.11112898816E+04  0.00000000000E+00 0. -1.
          2    1    1    2  501    0 -0.64158377961E+01  0.33721452625E+02 -0.59517239548E+03  0.59616145438E+03  0.00000000000E+00 0.  1.
         -2    1    1    2    0  502  0.64158377961E+01 -0.33721452625E+02 -0.51505165777E+03  0.51619425560E+03  0.00000000000E+00 0. -1.
<mgrwt>
<rscale>  2 0.34326365E+02</rscale>
<asrwt>0</asrwt>
<pdfrwt beam="1">  1       21 0.16397311E-03 0.34326365E+02</pdfrwt>
<pdfrwt beam="2">  1       21 0.17096818E+00 0.34326365E+02</pdfrwt>
<totfact> 0.11918263E+07</totfact>
</mgrwt>
</event>
<event>
 4    1  0.2677450E+004  0.2290956E+02  0.7546771E-02  0.1692980E+00
         21   -1    0    0  503  502  0.00000000000E+00  0.00000000000E+00  0.38862483108E+02  0.38862483108E+02  0.00000000000E+00 0. -1.
         21   -1    0    0  501  503 -0.00000000000E+00 -0.00000000000E+00 -0.57630211137E+02  0.57630211137E+02  0.00000000000E+00 0.  1.
          2    1    1    2  501    0 -0.21320799434E+02  0.83828014673E+01 -0.51600289851E+02  0.56457397758E+02  0.00000000000E+00 0.  1.
         -2    1    1    2    0  502  0.21320799434E+02 -0.83828014673E+01  0.32832561822E+02  0.40035296486E+02  0.00000000000E+00 0. -1.
<mgrwt>
<rscale>  2 0.22909558E+02</rscale>
<asrwt>0</asrwt>
<pdfrwt beam="1">  1       21 0.59788436E-02 0.22909558E+02</pdfrwt>
<pdfrwt beam="2">  1       21 0.88661863E-02 0.22909558E+02</pdfrwt>
<totfact> 0.15263235E+07</totfact>
</mgrwt>
</event>
<event>
 4    1  0.2677450E+004  0.3004191E+02  0.7546771E-02  0.1597626E+00
         21   -1    0    0  501  502  0.00000000000E+00  0.00000000000E+00  0.14669633201E+01  0.14669633201E+01  0.00000000000E+00 0.  1.
         21   -1    0    0  502  503 -0.00000000000E+00 -0.00000000000E+00 -0.83587291768E+03  0.83587291768E+03  0.00000000000E+00 0. -1.
          2    1    1    2  501    0 -0.22329011367E+02 -0.20098046596E+02 -0.20209868490E+03  0.20431934481E+03  0.00000000000E+00 0.  1.
         -2    1    1    2    0  503  0.22329011367E+02  0.20098046596E+02 -0.63230726946E+03  0.63302053619E+03  0.00000000000E+00 0. -1.
<mgrwt>
<rscale>  2 0.30041908E+02</rscale>
<asrwt>0</asrwt>
<pdfrwt beam="1">  1       21 0.22568584E-03 0.30041908E+02</pdfrwt>
<pdfrwt beam="2">  1       21 0.12859631E+00 0.30041908E+02</pdfrwt>
<totfact> 0.14647353E+07</totfact>
</mgrwt>
</event>
<event>
 4    1  0.2677450E+004  0.2167255E+02  0.7546771E-02  0.1713977E+00
         21   -1    0    0  501  502  0.00000000000E+00  0.00000000000E+00  0.12364204459E+03  0.12364204459E+03  0.00000000000E+00 0. -1.
         21   -1    0    0  502  503 -0.00000000000E+00 -0.00000000000E+00 -0.25113140136E+02  0.25113140136E+02  0.00000000000E+00 0.  1.
          2    1    1    2  501    0 -0.18185836395E+02 -0.11788751924E+02  0.11778595821E+03  0.11976323004E+03  0.00000000000E+00 0. -1.
         -2    1    1    2    0  503  0.18185836395E+02  0.11788751924E+02 -0.19257053757E+02  0.28991954689E+02  0.00000000000E+00 0.  1.
<mgrwt>
<rscale>  2 0.21672548E+02</rscale>
<asrwt>0</asrwt>
<pdfrwt beam="1">  1       21 0.19021853E-01 0.21672548E+02</pdfrwt>
<pdfrwt beam="2">  1       21 0.38635601E-02 0.21672548E+02</pdfrwt>
<totfact> 0.83500932E+06</totfact>
</mgrwt>
</event>
<event>
 4    1  0.2677450E+004  0.2686731E+02  0.7546771E-02  0.1635544E+00
         21   -1    0    0  503  502  0.00000000000E+00  0.00000000000E+00  0.22921110565E+02  0.22921110565E+02  0.00000000000E+00 0. -1.
         21   -1    0    0  501  503 -0.00000000000E+00 -0.00000000000E+00 -0.36813799745E+02  0.36813799745E+02  0.00000000000E+00 0.  1.
          2    1    1    2  501    0 -0.75855070091E+01 -0.25774257441E+02 -0.18301299119E+02  0.32508303750E+02  0.00000000000E+00 0.  1.
         -2    1    1    2    0  502  0.75855070091E+01  0.25774257441E+02  0.44086099391E+01  0.27226606561E+02  0.00000000000E+00 0. -1.
<mgrwt>
<rscale>  2 0.26867308E+02</rscale>
<asrwt>0</asrwt>
<pdfrwt beam="1">  1       21 0.35263248E-02 0.26867308E+02</pdfrwt>
<pdfrwt beam="2">  1       21 0.56636614E-02 0.26867308E+02</pdfrwt>
<totfact> 0.76005288E+07</totfact>
</mgrwt>
</event>
<event>
 4    1  0.2677450E+004  0.2354410E+02  0.7546771E-02  0.1682839E+00
         21   -1    0    0  503  502  0.00000000000E+00  0.00000000000E+00  0.19349934387E+03  0.19349934387E+03  0.00000000000E+00 0.  1.
         21   -1    0    0  501  503 -0.00000000000E+00 -0.00000000000E+00 -0.44720376421E+01  0.44720376421E+01  0.00000000000E+00 0. -1.
          2    1    1    2  501    0 -0.18140543103E+02  0.15008178421E+02  0.35170822732E+02  0.42323887997E+02  0.00000000000E+00 0. -1.
         -2    1    1    2    0  502  0.18140543103E+02 -0.15008178421E+02  0.15385648349E+03  0.15564749351E+03  0.00000000000E+00 0.  1.
<mgrwt>
<rscale>  2 0.23544102E+02</rscale>
<asrwt>0</asrwt>
<pdfrwt beam="1">  1       21 0.29769123E-01 0.23544102E+02</pdfrwt>
<pdfrwt beam="2">  1       21 0.68800594E-03 0.23544102E+02</pdfrwt>
<totfact> 0.53379241E+07</totfact>
</mgrwt>
</event>
<event>
 4    1  0.2677450E+004  0.2182175E+02  0.7546771E-02  0.1711353E+00
         21   -1    0    0  501  502  0.00000000000E+00  0.00000000000E+00  0.15668228503E+02  0.15668228503E+02  0.00000000000E+00 0. -1.
         21   -1    0    0  502  503 -0.00000000000E+00 -0.00000000000E+00 -0.54805160761E+02  0.54805160761E+02  0.00000000000E+00 0.  1.
          2    1    1    2  501    0  0.84881437798E+01 -0.20103243660E+02  0.39493143654E+01  0.22176250233E+02  0.00000000000E+00 0. -1.
         -2    1    1    2    0  503 -0.84881437798E+01  0.20103243660E+02 -0.43086246623E+02  0.48297139030E+02  0.00000000000E+00 0.  1.
<mgrwt>
<rscale>  2 0.21821755E+02</rscale>
<asrwt>0</asrwt>
<pdfrwt beam="1">  1       21 0.24104967E-02 0.21821755E+02</pdfrwt>
<pdfrwt beam="2">  1       21 0.84315632E-02 0.21821755E+02</pdfrwt>
<totfact> 0.68266474E+07</totfact>
</mgrwt>
</event>
<event>
 4    1  0.2677450E+004  0.2317418E+02  0.7546771E-02  0.1688702E+00
         21   -1    0    0  501  502  0.00000000000E+00  0.00000000000E+00  0.11005939166E+01  0.11005939166E+01  0.00000000000E+00 0.  1.
         21   -1    0    0  502  503 -0.00000000000E+00 -0.00000000000E+00 -0.65512964760E+03  0.65512964760E+03  0.00000000000E+00 0. -1.
          2    1    1    2  501    0 -0.14154701950E+02 -0.18349038542E+02 -0.16126783167E+03  0.16292438839E+03  0.00000000000E+00 0.  1.
         -2    1    1    2    0  503  0.14154701950E+02  0.18349038542E+02 -0.49276122202E+03  0.49330585313E+03  0.00000000000E+00 0. -1.
<mgrwt>
<rscale>  2 0.23174184E+02</rscale>
<asrwt>0</asrwt>
<pdfrwt beam="1">  1       21 0.16932215E-03 0.23174184E+02</pdfrwt>
<pdfrwt beam="2">  1       21 0.10078917E+00 0.23174184E+02</pdfrwt>
<totfact> 0.36832308E+07</totfact>
</mgrwt>
</event>
<event>
 4    1  0.2677450E+004  0.2513739E+02  0.7546771E-02  0.1659036E+00
         21   -1    0    0  501  502  0.00000000000E+00  0.00000000000E+00  0.16457415364E+01  0.16457415364E+01  0.00000000000E+00 0. -1.
         21   -1    0    0  502  503 -0.00000000000E+00 -0.00000000000E+00 -0.60515440533E+03  0.60515440533E+03  0.00000000000E+00 0.  1.
          2    1    1    2  501    0  0.21045109369E+02  0.13747420897E+02 -0.11832193542E+03  0.12096267445E+03  0.00000000000E+00 0. -1.
         -2    1    1    2    0  503 -0.21045109369E+02 -0.13747420897E+02 -0.48518672837E+03  0.48583747241E+03  0.00000000000E+00 0.  1.
<mgrwt>
<rscale>  2 0.25137387E+02</rscale>
<asrwt>0</asrwt>
<pdfrwt beam="1">  1       21 0.25319095E-03 0.25137387E+02</pdfrwt>
<pdfrwt beam="2">  1       21 0.93100699E-01 0.25137387E+02</pdfrwt>
<totfact> 0.24849330E+07</totfact>
</mgrwt>
</event>
<event>
 4    1  0.2677450E+004  0.2037976E+02  0.7546771E-02  0.1737880E+00
         21   -1    0    0  503  502  0.00000000000E+00  0.00000000000E+00  0.20083036105E+02  0.20083036105E+02  0.00000000000E+00 0.  1.
         21   -1    0    0  501  503 -0.00000000000E+00 -0.00000000000E+00 -0.35282789704E+02  0.35282789704E+02  0.00000000000E+00 0. -1.
          2    1    1    2  501    0  0.20271829510E+02  0.20946895044E+01 -0.25408699279E+02  0.32572024727E+02  0.00000000000E+00 0. -1.
         -2    1    1    2    0  502 -0.20271829510E+02 -0.20946895044E+01  0.10208945680E+02  0.22793801081E+02  0.00000000000E+00 0.  1.
<mgrwt>
<rscale>  2 0.20379764E+02</rscale>
<asrwt>0</asrwt>
<pdfrwt beam="1">  1       21 0.30896979E-02 0.20379764E+02</pdfrwt>
<pdfrwt beam="2">  1       21 0.54281215E-02 0.20379764E+02</pdfrwt>
<totfact> 0.92725561E+07</totfact>
</mgrwt>
</event>
<event>
 4    1  0.2677450E+004  0.2830620E+02  0.7546771E-02  0.1617603E+00
         21   -1    0    0  503  502  0.00000000000E+00  0.00000000000E+00  0.52792071566E+02  0.52792071566E+02  0.00000000000E+00 0.  1.
         21   -1    0    0  501  503 -0.00000000000E+00 -0.00000000000E+00 -0.17096237808E+02  0.17096237808E+02  0.00000000000E+00 0. -1.
          2    1    1    2  501    0 -0.26004894223E+02 -0.11179734015E+02  0.61406640909E+01  0.28964611713E+02  0.00000000000E+00 0. -1.
         -2    1    1    2    0  502  0.26004894223E+02  0.11179734015E+02  0.29555169667E+02  0.40923697661E+02  0.00000000000E+00 0.  1.
<mgrwt>
<rscale>  2 0.28306200E+02</rscale>
<asrwt>0</asrwt>
<pdfrwt beam="1">  1       21 0.81218571E-02 0.28306200E+02</pdfrwt>
<pdfrwt beam="2">  1       21 0.26301904E-02 0.28306200E+02</pdfrwt>
<totfact> 0.67808477E+07</totfact>
</mgrwt>
</event>
<event>
 4    1  0.2677450E+004  0.2632401E+02  0.7546771E-02  0.1642682E+00
         21   -1    0    0  501  502  0.00000000000E+00  0.00000000000E+00  0.96547452866E+02  0.96547452866E+02  0.00000000000E+00 0. -1.
         21   -1    0    0  502  503 -0.00000000000E+00 -0.00000000000E+00 -0.74307209324E+01  0.74307209324E+01  0.00000000000E+00 0.  1.
          2    1    1    2  501    0 -0.15791144266E+02 -0.21061656695E+02  0.54158695131E+02  0.60217255651E+02  0.00000000000E+00 0. -1.
         -2    1    1    2    0  503  0.15791144266E+02  0.21061656695E+02  0.34958036803E+02  0.43760918147E+02  0.00000000000E+00 0.  1.
<mgrwt>
<rscale>  2 0.26324012E+02</rscale>
<asrwt>0</asrwt>
<pdfrwt beam="1">  1       21 0.14853453E-01 0.26324012E+02</pdfrwt>
<pdfrwt beam="2">  1       21 0.11431879E-02 0.26324012E+02</pdfrwt>
<totfact> 0.87094816E+07</totfact>
</mgrwt>
</event>
<event>
 4    1  0.2677450E+004  0.2897588E+02  0.7546771E-02  0.1609693E+00
         21   -1    0    0  501  502  0.00000000000E+00  0.00000000000E+00  0.96680740705E+00  0.96680740705E+00  0.00000000000E+00 0.  1.
         21   -1    0    0  502  503 -0.00000000000E+00 -0.00000000000E+00 -0.87830877851E+03  0.87830877851E+03  0.00000000000E+00 0. -1.
          2    1    1    2  501    0 -0.27419915906E+02 -0.93675024909E+01 -0.48530294029E+03  0.48616719937E+03  0.00000000000E+00 0.  1.
         -2    1    1    2    0  503  0.27419915906E+02  0.93675024909E+01 -0.39203903081E+03  0.39310838654E+03  0.00000000000E+00 0. -1.
<mgrwt>
<rscale>  2 0.28975885E+02</rscale>
<asrwt>0</asrwt>
<pdfrwt beam="1">  1       21 0.14873935E-03 0.28975885E+02</pdfrwt>
<pdfrwt beam="2">  1       21 0.13512465E+00 0.28975885E+02</pdfrwt>
<totfact> 0.23782866E+07</totfact>
</mgrwt>
</event>
<event>
 4    1  0.2677450E+004  0.2716250E+02  0.7546771E-02  0.1631753E+00
         21   -1    0    0  503  502  0.00000000000E+00  0.00000000000E+00  0.71624802374E+02  0.71624802374E+02  0.00000000000E+00 0.  1.
         21   -1    0    0  501  503 -0.00000000000E+00 -0.00000000000E+00 -0.11030349245E+02  0.11030349245E+02  0.00000000000E+00 0. -1.
          2    1    1    2  501    0 -0.20817139662E+02 -0.17448435810E+02  0.19669570746E+02  0.33536446283E+02  0.00000000000E+00 0.  1.
         -2    1    1    2    0  502  0.20817139662E+02  0.17448435810E+02  0.40924882382E+02  0.49118705336E+02  0.00000000000E+00 0. -1.
<mgrwt>
<rscale>  2 0.27162496E+02</rscale>
<asrwt>0</asrwt>
<pdfrwt beam="1">  1       21 0.11019200E-01 0.27162496E+02</pdfrwt>
<pdfrwt beam="2">  1       21 0.16969769E-02 0.27162496E+02</pdfrwt>
<totfact> 0.79681592E+07</totfact>
</mgrwt>
</event>
<event>
 4    1  0.2677450E+004  0.2701005E+02  0.7546771E-02  0.1633703E+00
         21   -1    0    0  503  502  0.00000000000E+00  0.00000000000E+00  0.10459133981E+03  0.10459133981E+03  0.00000000000E+00 0. -1.
         21   -1    0    0  501  503 -0.00000000000E+00 -0.00000000000E+00 -0.12939514379E+02  0.12939514379E+02  0.00000000000E+00 0.  1.
          2    1    1    2  501    0 -0.26742042543E+02 -0.37955004037E+01  0.59285523043E+01  0.27653035911E+02  0.00000000000E+00 0.  1.
         -2    1    1    2    0  502  0.26742042543E+02  0.37955004037E+01  0.85723273123E+02  0.89877818273E+02  0.00000000000E+00 0. -1.
<mgrwt>
<rscale>  2 0.27010047E+02</rscale>
<asrwt>0</asrwt>
<pdfrwt beam="1">  1       21 0.16090975E-01 0.27010047E+02</pdfrwt>
<pdfrwt beam="2">  1       21 0.19906946E-02 0.27010047E+02</pdfrwt>
<totfact> 0.32713364E+07</totfact>
</mgrwt>
</event>
<event>
 4    1  0.2677450E+004  0.2886459E+02  0.7546771E-02  0.1610989E+00
         21   -1    0    0  501  502  0.00000000000E+00  0.00000000000E+00  0.41397201642E+02  0.41397201642E+02  0.00000000000E+00 0.  1.
         21   -1    0    0  502  503 -0.00000000000E+00 -0.00000000000E+00 -0.20212242601E+02  0.20212242601E+02  0.00000000000E+00 0. -1.
          2    1    1    2  501    0 -0.27261341197E+02 -0.94859869737E+01  0.12603384100E+02  0.31496189666E+02  0.00000000000E+00 0.  1.
         -2    1    1    2    0  503  0.27261341197E+02  0.94859869737E+01  0.85815749419E+01  0.30113254577E+02  0.00000000000E+00 0. -1.
<mgrwt>
<rscale>  2 0.28864592E+02</rscale>
<asrwt>0</asrwt>
<pdfrwt beam="1">  1       21 0.63688002E-02 0.28864592E+02</pdfrwt>
<pdfrwt beam="2">  1       21 0.31095758E-02 0.28864592E+02</pdfrwt>
<totfact> 0.78019917E+07</totfact>
</mgrwt>
</event>
<event>
 4    1  0.2677450E+004  0.2015166E+02  0.7546771E-02  0.1742329E+00
         21   -1    0    0  501  502  0.00000000000E+00  0.00000000000E+00  0.34428016938E+02  0.34428016938E+02  0.00000000000E+00 0. -1.
         21   -1    0    0  502  503 -0.00000000000E+00 -0.00000000000E+00 -0.93989532955E+02  0.93989532955E+02  0.00000000000E+00 0.  1.
          2    1    1    2  501    0  0.15000596208E+02  0.13456277464E+02  0.30264024102E+02  0.36359324039E+02  0.00000000000E+00 0. -1.
         -2    1    1    2    0  503 -0.15000596208E+02 -0.13456277464E+02 -0.89825540119E+02  0.92058225854E+02  0.00000000000E+00 0.  1.
<mgrwt>
<rscale>  2 0.20151657E+02</rscale>
<asrwt>0</asrwt>
<pdfrwt beam="1">  1       21 0.52966180E-02 0.20151657E+02</pdfrwt>
<pdfrwt beam="2">  1       21 0.14459928E-01 0.20151657E+02</pdfrwt>
<totfact> 0.79984120E+06</totfact>
</mgrwt>
</event>
<event>
 4    1  0.2677450E+004  0.2268810E+02  0.7546771E-02  0.1696616E+00
         21   -1    0    0  501  502  0.00000000000E+00  0.00000000000E+00  0.12474537652E+01  0.12474537652E+01  0.00000000000E+00 0.  1.
         21   -1    0    0  502  503 -0.00000000000E+00 -0.00000000000E+00 -0.10728737626E+04  0.10728737626E+04  0.00000000000E+00 0. -1.
          2    1    1    2  501    0 -0.34146815597E+01  0.22429659596E+02 -0.11450704474E+03  0.11673308432E+03  0.00000000000E+00 0.  1.
         -2    1    1    2    0  503  0.34146815597E+01 -0.22429659596E+02 -0.95711926414E+03  0.95738813209E+03  0.00000000000E+00 0. -1.
<mgrwt>
<rscale>  2 0.22688096E+02</rscale>
<asrwt>0</asrwt>
<pdfrwt beam="1">  1       21 0.19191534E-03 0.22688096E+02</pdfrwt>
<pdfrwt beam="2">  1       21 0.16505804E+00 0.22688096E+02</pdfrwt>
<totfact> 0.98502501E+06</totfact>
</mgrwt>
</event>
<event>
 4    1  0.2677450E+004  0.2206182E+02  0.7546771E-02  0.1707185E+00
         21   -1    0    0  503  502  0.00000000000E+00  0.00000000000E+00  0.74475058957E+01  0.74475058957E+01  0.00000000000E+00 0.  1.
         21   -1    0    0  501  503 -0.00000000000E+00 -0.00000000000E+00 -0.76357746477E+02  0.76357746477E+02  0.00000000000E+00 0. -1.
          2    1    1    2  501    0  0.11845090393E+00  0.22061503583E+02 -0.50362031316E+02  0.54982344159E+02  0.00000000000E+00 0. -1.
         -2    1    1    2    0  502 -0.11845090393E+00 -0.22061503583E+02 -0.18548209265E+02  0.28822908214E+02  0.00000000000E+00 0.  1.
<mgrwt>
<rscale>  2 0.22061822E+02</rscale>
<asrwt>0</asrwt>
<pdfrwt beam="1">  1       21 0.11457701E-02 0.22061822E+02</pdfrwt>
<pdfrwt beam="2">  1       21 0.11747346E-01 0.22061822E+02</pdfrwt>
<totfact> 0.12293255E+08</totfact>
</mgrwt>
</event>
<event>
 4    1  0.2677450E+004  0.2504137E+02  0.7546771E-02  0.1660408E+00
         21   -1    0    0  501  502  0.00000000000E+00  0.00000000000E+00  0.12788416905E+04  0.12788416905E+04  0.00000000000E+00 0.  1.
         21   -1    0    0  502  503 -0.00000000000E+00 -0.00000000000E+00 -0.88936010041E+00  0.88936010041E+00  0.00000000000E+00 0. -1.
          2    1    1    2  501    0  0.24710742574E+02 -0.40558151045E+01  0.10675699965E+04  0.10678636467E+04  0.00000000000E+00 0.  1.
         -2    1    1    2    0  503 -0.24710742574E+02  0.40558151045E+01  0.21038233391E+03  0.21186740395E+03  0.00000000000E+00 0. -1.
<mgrwt>
<rscale>  2 0.25041374E+02</rscale>
<asrwt>0</asrwt>
<pdfrwt beam="1">  1       21 0.19674340E+00 0.25041374E+02</pdfrwt>
<pdfrwt beam="2">  1       21 0.13682565E-03 0.25041374E+02</pdfrwt>
<totfact> 0.10465258E+07</totfact>
</mgrwt>
</event>
<event>
 4    1  0.2677450E+004  0.2450336E+02  0.7546771E-02  0.1668240E+00
         21   -1    0    0  501  502  0.00000000000E+00  0.00000000000E+00  0.27088814220E+01  0.27088814220E+01  0.00000000000E+00 0.  1.
         21   -1    0    0  502  503 -0.00000000000E+00 -0.00000000000E+00 -0.35468986103E+03  0.35468986103E+03  0.00000000000E+00 0. -1.
          2    1    1    2  501    0  0.22518644385E+02  0.96604964101E+01 -0.66545730559E+02  0.70913671400E+02  0.00000000000E+00 0.  1.
         -2    1    1    2    0  503 -0.22518644385E+02 -0.96604964101E+01 -0.28543524905E+03  0.28648507105E+03  0.00000000000E+00 0. -1.
<mgrwt>
<rscale>  2 0.24503358E+02</rscale>
<asrwt>0</asrwt>
<pdfrwt beam="1">  1       21 0.41675106E-03 0.24503358E+02</pdfrwt>
<pdfrwt beam="2">  1       21 0.54567661E-01 0.24503358E+02</pdfrwt>
<totfact> 0.35940693E+07</totfact>
</mgrwt>
</event>
<event>
 4    1  0.2677450E+004  0.2101900E+02  0.7546771E-02  0.1725792E+00
         21   -1    0    0  503  502  0.00000000000E+00  0.00000000000E+00  0.20531064506E+02  0.20531064506E+02  0.00000000000E+00 0.  1.
         21   -1    0    0  501  503 -0.00000000000E+00 -0.00000000000E+00 -0.23741126756E+02  0.23741126756E+02  0.00000000000E+00 0. -1.
          2    1    1    2  501    0 -0.18551658537E+00 -0.21018182262E+02 -0.83780196926E+01  0.22627187540E+02  0.00000000000E+00 0.  1.
         -2    1    1    2    0  502  0.18551658537E+00  0.21018182262E+02  0.51679574424E+01  0.21645003722E+02  0.00000000000E+00 0. -1.
<mgrwt>
<rscale>  2 0.21019001E+02</rscale>
<asrwt>0</asrwt>
<pdfrwt beam="1">  1       21 0.31586253E-02 0.21019001E+02</pdfrwt>
<pdfrwt beam="2">  1       21 0.36524810E-02 0.21019001E+02</pdfrwt>
<totfact> 0.16892857E+08</totfact>
</mgrwt>
</event>
<event>
 4    1  0.2677450E+004  0.3140397E+02  0.7546771E-02  0.1583069E+00
         21   -1    0    0  503  502  0.00000000000E+00  0.00000000000E+00  0.31566782031E+03  0.31566782031E+03  0.00000000000E+00 0.  1.
         21   -1    0    0  501  503 -0.00000000000E+00 -0.00000000000E+00 -0.33597183860E+01  0.33597183860E+01  0.00000000000E+00 0. -1.
          2    1    1    2  501    0  0.21851812827E+01  0.31327851689E+02  0.11392032214E+03  0.11816957775E+03  0.00000000000E+00 0. -1.
         -2    1    1    2    0  502 -0.21851812827E+01 -0.31327851689E+02  0.19838777978E+03  0.20085796095E+03  0.00000000000E+00 0.  1.
<mgrwt>
<rscale>  2 0.31403970E+02</rscale>
<asrwt>0</asrwt>
<pdfrwt beam="1">  1       21 0.48564257E-01 0.31403970E+02</pdfrwt>
<pdfrwt beam="2">  1       21 0.51688000E-03 0.31403970E+02</pdfrwt>
<totfact> 0.34518994E+07</totfact>
</mgrwt>
</event>
<event>
 4    1  0.2677450E+004  0.2817138E+02  0.7546771E-02  0.1619228E+00
         21   -1    0    0  503  502  0.00000000000E+00  0.00000000000E+00  0.90879761678E+03  0.90879761678E+03  0.00000000000E+00 0. -1.
         21   -1    0    0  501  503 -0.00000000000E+00 -0.00000000000E+00 -0.17043895848E+01  0.17043895848E+01  0.00000000000E+00 0.  1.
          2    1    1    2  501    0  0.25021917982E+02 -0.12943357013E+02  0.13564122028E+03  0.13853579865E+03  0.00000000000E+00 0.  1.
         -2    1    1    2    0  502 -0.25021917982E+02  0.12943357013E+02  0.77145200692E+03  0.77196620771E+03  0.00000000000E+00 0. -1.
<mgrwt>
<rscale>  2 0.28171384E+02</rscale>
<asrwt>0</asrwt>
<pdfrwt beam="1">  1       21 0.13981463E+00 0.28171384E+02</pdfrwt>
<pdfrwt beam="2">  1       21 0.26221451E-03 0.28171384E+02</pdfrwt>
<totfact> 0.95876576E+06</totfact>
</mgrwt>
</event>
<event>
 4    1  0.2677450E+004  0.2089155E+02  0.7546771E-02  0.1728158E+00
         21   -1    0    0  503  502  0.00000000000E+00  0.00000000000E+00  0.12129453152E+02  0.12129453152E+02  0.00000000000E+00 0. -1.
         21   -1    0    0  501  503 -0.00000000000E+00 -0.00000000000E+00 -0.64452124770E+02  0.64452124770E+02  0.00000000000E+00 0.  1.
          2    1    1    2  501    0  0.19784261484E+02  0.67111884204E+01 -0.51609760544E+02  0.55677863068E+02  0.00000000000E+00 0.  1.
         -2    1    1    2    0  502 -0.19784261484E+02 -0.67111884204E+01 -0.71291107386E+00  0.20903714854E+02  0.00000000000E+00 0. -1.
<mgrwt>
<rscale>  2 0.20891555E+02</rscale>
<asrwt>0</asrwt>
<pdfrwt beam="1">  1       21 0.18660697E-02 0.20891555E+02</pdfrwt>
<pdfrwt beam="2">  1       21 0.99157115E-02 0.20891555E+02</pdfrwt>
<totfact> 0.76550827E+07</totfact>
</mgrwt>
</event>
<event>
 4    1  0.2677450E+004  0.2427429E+02  0.7546771E-02  0.1671650E+00
         21   -1    0    0  501  502  0.00000000000E+00  0.00000000000E+00  0.62599861747E+01  0.62599861747E+01  0.00000000000E+00 0.  1.
         21   -1    0    0  502  503 -0.00000000000E+00 -0.00000000000E+00 -0.15930320505E+03  0.15930320505E+03  0.00000000000E+00 0. -1.
          2    1    1    2  501    0 -0.22193165155E+02  0.98338420263E+01 -0.23572070758E+02  0.33836127858E+02  0.00000000000E+00 0.  1.
         -2    1    1    2    0  503  0.22193165155E+02 -0.98338420263E+01 -0.12947114812E+03  0.13172706337E+03  0.00000000000E+00 0. -1.
<mgrwt>
<rscale>  2 0.24274287E+02</rscale>
<asrwt>0</asrwt>
<pdfrwt beam="1">  1       21 0.96307482E-03 0.24274287E+02</pdfrwt>
<pdfrwt beam="2">  1       21 0.24508185E-01 0.24274287E+02</pdfrwt>
<totfact> 0.46161069E+07</totfact>
</mgrwt>
</event>
<event>
 4    1  0.2677450E+004  0.2988295E+02  0.7546771E-02  0.1599386E+00
         21   -1    0    0  501  502  0.00000000000E+00  0.00000000000E+00  0.96663749363E+02  0.96663749363E+02  0.00000000000E+00 0. -1.
         21   -1    0    0  502  503 -0.00000000000E+00 -0.00000000000E+00 -0.10308702910E+02  0.10308702910E+02  0.00000000000E+00 0.  1.
          2    1    1    2  501    0  0.21816782809E+02  0.20421035954E+02  0.60414112992E+02  0.67400710457E+02  0.00000000000E+00 0. -1.
         -2    1    1    2    0  503 -0.21816782809E+02 -0.20421035954E+02  0.25940933461E+02  0.39571741817E+02  0.00000000000E+00 0.  1.
<mgrwt>
<rscale>  2 0.29882950E+02</rscale>
<asrwt>0</asrwt>
<pdfrwt beam="1">  1       21 0.14871345E-01 0.29882950E+02</pdfrwt>
<pdfrwt beam="2">  1       21 0.15859544E-02 0.29882950E+02</pdfrwt>
<totfact> 0.54371929E+07</totfact>
</mgrwt>
</event>
<event>
 4    1  0.2677450E+004  0.3052255E+02  0.7546771E-02  0.1592383E+00
         21   -1    0    0  503  502  0.00000000000E+00  0.00000000000E+00  0.13291998267E+02  0.13291998267E+02  0.00000000000E+00 0. -1.
         21   -1    0    0  501  503 -0.00000000000E+00 -0.00000000000E+00 -0.71029602875E+02  0.71029602875E+02  0.00000000000E+00 0.  1.
          2    1    1    2  501    0 -0.25453722405E+02 -0.16844416854E+02 -0.33719805529E+02  0.45482432304E+02  0.00000000000E+00 0.  1.
         -2    1    1    2    0  502  0.25453722405E+02  0.16844416854E+02 -0.24017799079E+02  0.38839168838E+02  0.00000000000E+00 0. -1.
<mgrwt>
<rscale>  2 0.30522555E+02</rscale>
<asrwt>0</asrwt>
<pdfrwt beam="1">  1       21 0.20449228E-02 0.30522555E+02</pdfrwt>
<pdfrwt beam="2">  1       21 0.10927631E-01 0.30522555E+02</pdfrwt>
<totfact> 0.62309970E+07</totfact>
</mgrwt>
</event>
<event>
 4    1  0.2677450E+004  0.2169742E+02  0.7546771E-02  0.1713538E+00
         21   -1    0    0  501  502  0.00000000000E+00  0.00000000000E+00  0.37339784230E+01  0.37339784230E+01  0.00000000000E+00 0. -1.
         21   -1    0    0  502  503 -0.00000000000E+00 -0.00000000000E+00 -0.13702899109E+03  0.13702899109E+03  0.00000000000E+00 0.  1.
          2    1    1    2  501    0  0.20552200448E+02  0.69559540144E+01 -0.46752293305E+02  0.51541780807E+02  0.00000000000E+00 0. -1.
         -2    1    1    2    0  503 -0.20552200448E+02 -0.69559540144E+01 -0.86542719366E+02  0.89221188710E+02  0.00000000000E+00 0.  1.
<mgrwt>
<rscale>  2 0.21697425E+02</rscale>
<asrwt>0</asrwt>
<pdfrwt beam="1">  1       21 0.57445831E-03 0.21697425E+02</pdfrwt>
<pdfrwt beam="2">  1       21 0.21081380E-01 0.21697425E+02</pdfrwt>
<totfact> 0.12623663E+08</totfact>
</mgrwt>
</event>
<event>
 4    1  0.2677450E+004  0.2203643E+02  0.7546771E-02  0.1707623E+00
         21   -1    0    0  503  502  0.00000000000E+00  0.00000000000E+00  0.54569927947E+03  0.54569927947E+03  0.00000000000E+00 0.  1.
         21   -1    0    0  501  503 -0.00000000000E+00 -0.00000000000E+00 -0.88987577430E+00  0.88987577430E+00  0.00000000000E+00 0. -1.
          2    1    1    2  501    0 -0.10280981715E+02  0.19491169257E+02  0.27218817779E+03  0.27307875859E+03  0.00000000000E+00 0.  1.
         -2    1    1    2    0  502  0.10280981715E+02 -0.19491169257E+02  0.27262122590E+03  0.27351039665E+03  0.00000000000E+00 0. -1.
<mgrwt>
<rscale>  2 0.22036430E+02</rscale>
<asrwt>0</asrwt>
<pdfrwt beam="1">  1       21 0.83953468E-01 0.22036430E+02</pdfrwt>
<pdfrwt beam="2">  1       21 0.13690440E-03 0.22036430E+02</pdfrwt>
<totfact> 0.73172783E+07</totfact>
</mgrwt>
</event>
<event>
 4    1  0.2677450E+004  0.3991896E+02  0.7546771E-02  0.1508809E+00
         21   -1    0    0  503  502  0.00000000000E+00  0.00000000000E+00  0.11685430198E+03  0.11685430198E+03  0.00000000000E+00 0. -1.
         21   -1    0    0  501  503 -0.00000000000E+00 -0.00000000000E+00 -0.14139930293E+02  0.14139930293E+02  0.00000000000E+00 0.  1.
          2    1    1    2  501    0 -0.25934960144E+02 -0.30346359456E+02  0.63711553279E+02  0.75184344855E+02  0.00000000000E+00 0.  1.
         -2    1    1    2    0  502  0.25934960144E+02  0.30346359456E+02  0.39002818405E+02  0.55809887417E+02  0.00000000000E+00 0. -1.
<mgrwt>
<rscale>  2 0.39918964E+02</rscale>
<asrwt>0</asrwt>
<pdfrwt beam="1">  1       21 0.17977584E-01 0.39918964E+02</pdfrwt>
<pdfrwt beam="2">  1       21 0.21753740E-02 0.39918964E+02</pdfrwt>
<totfact> 0.25286657E+07</totfact>
</mgrwt>
</event>
<event>
 4    1  0.2677450E+004  0.3194422E+02  0.7546771E-02  0.1577541E+00
         21   -1    0    0  503  502  0.00000000000E+00  0.00000000000E+00  0.17641384474E+02  0.17641384474E+02  0.00000000000E+00 0.  1.
         21   -1    0    0  501  503 -0.00000000000E+00 -0.00000000000E+00 -0.47192207132E+03  0.47192207132E+03  0.00000000000E+00 0. -1.
          2    1    1    2  501    0 -0.46177369716E+01  0.31608699824E+02 -0.45643049880E+03  0.45754697424E+03  0.00000000000E+00 0. -1.
         -2    1    1    2    0  502  0.46177369716E+01 -0.31608699824E+02  0.21498119607E+01  0.32016481549E+02  0.00000000000E+00 0.  1.
<mgrwt>
<rscale>  2 0.31944223E+02</rscale>
<asrwt>0</asrwt>
<pdfrwt beam="1">  1       21 0.27140590E-02 0.31944223E+02</pdfrwt>
<pdfrwt beam="2">  1       21 0.72603398E-01 0.31944223E+02</pdfrwt>
<totfact> 0.12177888E+06</totfact>
</mgrwt>
</event>
<event>
 4    1  0.2677450E+004  0.2224558E+02  0.7546771E-02  0.1704039E+00
         21   -1    0    0  503  502  0.00000000000E+00  0.00000000000E+00  0.21467738155E+01  0.21467738155E+01  0.00000000000E+00 0. -1.
         21   -1    0    0  501  503 -0.00000000000E+00 -0.00000000000E+00 -0.23462129343E+03  0.23462129343E+03  0.00000000000E+00 0.  1.
          2    1    1    2  501    0  0.21931234600E+02 -0.37265013299E+01 -0.13189675715E+03  0.13375956194E+03  0.00000000000E+00 0. -1.
         -2    1    1    2    0  502 -0.21931234600E+02  0.37265013299E+01 -0.10057776247E+03  0.10300850531E+03  0.00000000000E+00 0.  1.
<mgrwt>
<rscale>  2 0.22245581E+02</rscale>
<asrwt>0</asrwt>
<pdfrwt beam="1">  1       21 0.33027313E-03 0.22245581E+02</pdfrwt>
<pdfrwt beam="2">  1       21 0.36095558E-01 0.22245581E+02</pdfrwt>
<totfact> 0.10881908E+08</totfact>
</mgrwt>
</event>
<event>
 4    1  0.2677450E+004  0.2446851E+02  0.7546771E-02  0.1668755E+00
         21   -1    0    0  501  502  0.00000000000E+00  0.00000000000E+00  0.85461023539E+00  0.85461023539E+00  0.00000000000E+00 0.  1.
         21   -1    0    0  502  503 -0.00000000000E+00 -0.00000000000E+00 -0.10977215663E+04  0.10977215663E+04  0.00000000000E+00 0. -1.
          2    1    1    2  501    0  0.36481797043E+01 -0.24195019050E+02 -0.21803644033E+03  0.21940509901E+03  0.00000000000E+00 0.  1.
         -2    1    1    2    0  503 -0.36481797043E+01  0.24195019050E+02 -0.87883051571E+03  0.87917107750E+03  0.00000000000E+00 0. -1.
<mgrwt>
<rscale>  2 0.24468514E+02</rscale>
<asrwt>0</asrwt>
<pdfrwt beam="1">  1       21 0.13147888E-03 0.24468514E+02</pdfrwt>
<pdfrwt beam="2">  1       21 0.16887975E+00 0.24468514E+02</pdfrwt>
<totfact> 0.16219247E+07</totfact>
</mgrwt>
</event>
<event>
 4    1  0.2677450E+004  0.2832557E+02  0.7546771E-02  0.1617371E+00
         21   -1    0    0  503  502  0.00000000000E+00  0.00000000000E+00  0.15011965602E+01  0.15011965602E+01  0.00000000000E+00 0. -1.
         21   -1    0    0  501  503 -0.00000000000E+00 -0.00000000000E+00 -0.85588908481E+03  0.85588908481E+03  0.00000000000E+00 0.  1.
          2    1    1    2  501    0  0.95567404023E+00 -0.28309444490E+02 -0.16448273606E+03  0.16690388978E+03  0.00000000000E+00 0. -1.
         -2    1    1    2    0  502 -0.95567404023E+00  0.28309444490E+02 -0.68990515218E+03  0.69048639159E+03  0.00000000000E+00 0.  1.
<mgrwt>
<rscale>  2 0.28325571E+02</rscale>
<asrwt>0</asrwt>
<pdfrwt beam="1">  1       21 0.23095235E-03 0.28325571E+02</pdfrwt>
<pdfrwt beam="2">  1       21 0.13167579E+00 0.28325571E+02</pdfrwt>
<totfact> 0.13293420E+07</totfact>
</mgrwt>
</event>
<event>
 4    1  0.2677450E+004  0.2171844E+02  0.7546771E-02  0.1713167E+00
         21   -1    0    0  503  502  0.00000000000E+00  0.00000000000E+00  0.23385412077E+03  0.23385412077E+03  0.00000000000E+00 0.  1.
         21   -1    0    0  501  503 -0.00000000000E+00 -0.00000000000E+00 -0.13086259321E+02  0.13086259321E+02  0.00000000000E+00 0. -1.
          2    1    1    2  501    0  0.21584808579E+02  0.24055059670E+01 -0.31728515356E+01  0.21948972806E+02  0.00000000000E+00 0. -1.
         -2    1    1    2    0  502 -0.21584808579E+02 -0.24055059670E+01  0.22394071299E+03  0.22499140729E+03  0.00000000000E+00 0.  1.
<mgrwt>
<rscale>  2 0.21718435E+02</rscale>
<asrwt>0</asrwt>
<pdfrwt beam="1">  1       21 0.35977554E-01 0.21718435E+02</pdfrwt>
<pdfrwt beam="2">  1       21 0.20132708E-02 0.21718435E+02</pdfrwt>
<totfact> 0.73349520E+06</totfact>
</mgrwt>
</event>
<event>
 4    1  0.2677450E+004  0.2384786E+02  0.7546771E-02  0.1678124E+00
         21   -1    0    0  503  502  0.00000000000E+00  0.00000000000E+00  0.15177098997E+03  0.15177098997E+03  0.00000000000E+00 0.  1.
         21   -1    0    0  501  503 -0.00000000000E+00 -0.00000000000E+00 -0.15520252344E+02  0.15520252344E+02  0.00000000000E+00 0. -1.
          2    1    1    2  501    0  0.23824939553E+02 -0.10452622388E+01 -0.47260249729E+01  0.24311635689E+02  0.00000000000E+00 0. -1.
         -2    1    1    2    0  502 -0.23824939553E+02  0.10452622388E+01  0.14097676260E+03  0.14297960662E+03  0.00000000000E+00 0.  1.
<mgrwt>
<rscale>  2 0.23847858E+02</rscale>
<asrwt>0</asrwt>
<pdfrwt beam="1">  1       21 0.23349382E-01 0.23847858E+02</pdfrwt>
<pdfrwt beam="2">  1       21 0.23877312E-02 0.23847858E+02</pdfrwt>
<totfact> 0.12566223E+07</totfact>
</mgrwt>
</event>
<event>
 4    1  0.2677450E+004  0.3749431E+02  0.7546771E-02  0.1527504E+00
         21   -1    0    0  503  502  0.00000000000E+00  0.00000000000E+00  0.22919038791E+02  0.22919038791E+02  0.00000000000E+00 0.  1.
         21   -1    0    0  501  503 -0.00000000000E+00 -0.00000000000E+00 -0.12488019291E+03  0.12488019291E+03  0.00000000000E+00 0. -1.
          2    1    1    2  501    0  0.36976925605E+02  0.62072816657E+01 -0.10369436288E+03  0.11026488229E+03  0.00000000000E+00 0. -1.
         -2    1    1    2    0  502 -0.36976925605E+02 -0.62072816657E+01  0.17332087666E+01  0.37534349408E+02  0.00000000000E+00 0.  1.
<mgrwt>
<rscale>  2 0.37494311E+02</rscale>
<asrwt>0</asrwt>
<pdfrwt beam="1">  1       21 0.35260060E-02 0.37494311E+02</pdfrwt>
<pdfrwt beam="2">  1       21 0.19212337E-01 0.37494311E+02</pdfrwt>
<totfact> 0.10375919E+07</totfact>
</mgrwt>
</event>
<event>
 4    1  0.2677450E+004  0.2434695E+02  0.7546771E-02  0.1670563E+00
         21   -1    0    0  501  502  0.00000000000E+00  0.00000000000E+00  0.59101394594E+03  0.59101394594E+03  0.00000000000E+00 0.  1.
         21   -1    0    0  502  503 -0.00000000000E+00 -0.00000000000E+00 -0.16963721213E+01  0.16963721213E+01  0.00000000000E+00 0. -1.
          2    1    1    2  501    0 -0.18876698994E+02 -0.15376735007E+02  0.48412951940E+03  0.48474133855E+03  0.00000000000E+00 0.  1.
         -2    1    1    2    0  503  0.18876698994E+02  0.15376735007E+02  0.10518805442E+03  0.10796897951E+03  0.00000000000E+00 0. -1.
<mgrwt>
<rscale>  2 0.24346945E+02</rscale>
<asrwt>0</asrwt>
<pdfrwt beam="1">  1       21 0.90925058E-01 0.24346945E+02</pdfrwt>
<pdfrwt beam="2">  1       21 0.26098080E-03 0.24346945E+02</pdfrwt>
<totfact> 0.24872968E+07</totfact>
</mgrwt>
</event>
<event>
 4    1  0.2677450E+004  0.2190205E+02  0.7546771E-02  0.1709951E+00
         21   -1    0    0  501  502  0.00000000000E+00  0.00000000000E+00  0.83217766774E+02  0.83217766774E+02  0.00000000000E+00 0.  1.
         21   -1    0    0  502  503 -0.00000000000E+00 -0.00000000000E+00 -0.13587993955E+02  0.13587993955E+02  0.00000000000E+00 0. -1.
          2    1    1    2  501    0  0.12584136903E+02  0.17925944811E+02  0.71542850113E+02  0.74820314095E+02  0.00000000000E+00 0.  1.
         -2    1    1    2    0  503 -0.12584136903E+02 -0.17925944811E+02 -0.19130772934E+01  0.21985446634E+02  0.00000000000E+00 0. -1.
<mgrwt>
<rscale>  2 0.21902055E+02</rscale>
<asrwt>0</asrwt>
<pdfrwt beam="1">  1       21 0.12802733E-01 0.21902055E+02</pdfrwt>
<pdfrwt beam="2">  1       21 0.20904607E-02 0.21902055E+02</pdfrwt>
<totfact> 0.42612028E+07</totfact>
</mgrwt>
</event>
<event>
 4    1  0.2677450E+004  0.2418291E+02  0.7546771E-02  0.1673023E+00
         21   -1    0    0  501  502  0.00000000000E+00  0.00000000000E+00  0.10280880175E+04  0.10280880175E+04  0.00000000000E+00 0. -1.
         21   -1    0    0  502  503 -0.00000000000E+00 -0.00000000000E+00 -0.79097479523E+00  0.79097479523E+00  0.00000000000E+00 0.  1.
          2    1    1    2  501    0 -0.24143653986E+02 -0.13773343313E+01  0.78627345076E+03  0.78664525197E+03  0.00000000000E+00 0. -1.
         -2    1    1    2    0  503  0.24143653986E+02  0.13773343313E+01  0.24102359190E+03  0.24223374028E+03  0.00000000000E+00 0.  1.
<mgrwt>
<rscale>  2 0.24182909E+02</rscale>
<asrwt>0</asrwt>
<pdfrwt beam="1">  1       21 0.15816632E+00 0.24182909E+02</pdfrwt>
<pdfrwt beam="2">  1       21 0.12168925E-03 0.24182909E+02</pdfrwt>
<totfact> 0.21213937E+07</totfact>
</mgrwt>
</event>
<event>
 4    1  0.2677450E+004  0.2360357E+02  0.7546771E-02  0.1681909E+00
         21   -1    0    0  503  502  0.00000000000E+00  0.00000000000E+00  0.28292123686E+01  0.28292123686E+01  0.00000000000E+00 0. -1.
         21   -1    0    0  501  503 -0.00000000000E+00 -0.00000000000E+00 -0.25312629358E+03  0.25312629358E+03  0.00000000000E+00 0.  1.
          2    1    1    2  501    0  0.23006281044E+02  0.52763401772E+01 -0.18545419096E+03  0.18695022246E+03  0.00000000000E+00 0.  1.
         -2    1    1    2    0  502 -0.23006281044E+02 -0.52763401772E+01 -0.64842890244E+02  0.69005283481E+02  0.00000000000E+00 0. -1.
<mgrwt>
<rscale>  2 0.23603575E+02</rscale>
<asrwt>0</asrwt>
<pdfrwt beam="1">  1       21 0.43526351E-03 0.23603575E+02</pdfrwt>
<pdfrwt beam="2">  1       21 0.38942501E-01 0.23603575E+02</pdfrwt>
<totfact> 0.64001239E+07</totfact>
</mgrwt>
</event>
<event>
 4    1  0.2677450E+004  0.2297511E+02  0.7546771E-02  0.1691914E+00
         21   -1    0    0  503  502  0.00000000000E+00  0.00000000000E+00  0.23604513661E+03  0.23604513661E+03  0.00000000000E+00 0. -1.
         21   -1    0    0  501  503 -0.00000000000E+00 -0.00000000000E+00 -0.22986119552E+01  0.22986119552E+01  0.00000000000E+00 0.  1.
          2    1    1    2  501    0  0.15416442008E+02  0.17034934950E+02  0.97243981089E+02  0.99921206713E+02  0.00000000000E+00 0.  1.
         -2    1    1    2    0  502 -0.15416442008E+02 -0.17034934950E+02  0.13650254357E+03  0.13842254185E+03  0.00000000000E+00 0. -1.
<mgrwt>
<rscale>  2 0.22975110E+02</rscale>
<asrwt>0</asrwt>
<pdfrwt beam="1">  1       21 0.36314617E-01 0.22975110E+02</pdfrwt>
<pdfrwt beam="2">  1       21 0.35363280E-03 0.22975110E+02</pdfrwt>
<totfact> 0.98226858E+07</totfact>
</mgrwt>
</event>
<event>
 4    1  0.2677450E+004  0.2366294E+02  0.7546771E-02  0.1680984E+00
         21   -1    0    0  501  502  0.00000000000E+00  0.00000000000E+00  0.15953134825E+02  0.15953134825E+02  0.00000000000E+00 0.  1.
         21   -1    0    0  502  503 -0.00000000000E+00 -0.00000000000E+00 -0.53643000765E+02  0.53643000765E+02  0.00000000000E+00 0. -1.
          2    1    1    2  501    0  0.57952581061E+00 -0.23655841712E+02  0.16149682447E+01  0.23717985153E+02  0.00000000000E+00 0. -1.
         -2    1    1    2    0  503 -0.57952581061E+00  0.23655841712E+02 -0.39304834184E+02  0.45878150437E+02  0.00000000000E+00 0.  1.
<mgrwt>
<rscale>  2 0.23662939E+02</rscale>
<asrwt>0</asrwt>
<pdfrwt beam="1">  1       21 0.24543284E-02 0.23662939E+02</pdfrwt>
<pdfrwt beam="2">  1       21 0.82527694E-02 0.23662939E+02</pdfrwt>
<totfact> 0.70299519E+07</totfact>
</mgrwt>
</event>
<event>
 4    1  0.2677450E+004  0.2053580E+02  0.7546771E-02  0.1734878E+00
         21   -1    0    0  501  502  0.00000000000E+00  0.00000000000E+00  0.54489726708E+02  0.54489726708E+02  0.00000000000E+00 0. -1.
         21   -1    0    0  502  503 -0.00000000000E+00 -0.00000000000E+00 -0.11351319017E+02  0.11351319017E+02  0.00000000000E+00 0.  1.
          2    1    1    2  501    0  0.18043040331E+02 -0.98065237756E+01  0.40139164899E+02  0.45087379295E+02  0.00000000000E+00 0. -1.
         -2    1    1    2    0  503 -0.18043040331E+02  0.98065237756E+01  0.29992427926E+01  0.20753666429E+02  0.00000000000E+00 0.  1.
<mgrwt>
<rscale>  2 0.20535803E+02</rscale>
<asrwt>0</asrwt>
<pdfrwt beam="1">  1       21 0.83830347E-02 0.20535803E+02</pdfrwt>
<pdfrwt beam="2">  1       21 0.17463568E-02 0.20535803E+02</pdfrwt>
<totfact> 0.11093096E+08</totfact>
</mgrwt>
</event>
<event>
 4    1  0.2677450E+004  0.3068563E+02  0.7546771E-02  0.1590631E+00
         21   -1    0    0  501  502  0.00000000000E+00  0.00000000000E+00  0.89418046620E+02  0.89418046620E+02  0.00000000000E+00 0. -1.
         21   -1    0    0  502  503 -0.00000000000E+00 -0.00000000000E+00 -0.24887206963E+02  0.24887206963E+02  0.00000000000E+00 0.  1.
          2    1    1    2  501    0  0.30670563581E+02  0.96143779788E+00  0.75674145905E+02  0.81658950467E+02  0.00000000000E+00 0. -1.
         -2    1    1    2    0  503 -0.30670563581E+02 -0.96143779788E+00 -0.11143306248E+02  0.32646303116E+02  0.00000000000E+00 0.  1.
<mgrwt>
<rscale>  2 0.30685629E+02</rscale>
<asrwt>0</asrwt>
<pdfrwt beam="1">  1       21 0.13756622E-01 0.30685629E+02</pdfrwt>
<pdfrwt beam="2">  1       21 0.38288011E-02 0.30685629E+02</pdfrwt>
<totfact> 0.15769403E+07</totfact>
</mgrwt>
</event>
<event>
 4    1  0.2677450E+004  0.2470150E+02  0.7546771E-02  0.1665327E+00
         21   -1    0    0  501  502  0.00000000000E+00  0.00000000000E+00  0.32882370031E+03  0.32882370031E+03  0.00000000000E+00 0. -1.
         21   -1    0    0  502  503 -0.00000000000E+00 -0.00000000000E+00 -0.39963956771E+01  0.39963956771E+01  0.00000000000E+00 0.  1.
          2    1    1    2  501    0 -0.15812209406E+02  0.18977311839E+02  0.28420970159E+03  0.28528112242E+03  0.00000000000E+00 0. -1.
         -2    1    1    2    0  503  0.15812209406E+02 -0.18977311839E+02  0.40617603042E+02  0.47538973567E+02  0.00000000000E+00 0.  1.
<mgrwt>
<rscale>  2 0.24701505E+02</rscale>
<asrwt>0</asrwt>
<pdfrwt beam="1">  1       21 0.50588240E-01 0.24701505E+02</pdfrwt>
<pdfrwt beam="2">  1       21 0.61483036E-03 0.24701505E+02</pdfrwt>
<totfact> 0.23504614E+07</totfact>
</mgrwt>
</event>
<event>
 4    1  0.2677450E+004  0.2009732E+02  0.7546771E-02  0.1743400E+00
         21   -1    0    0  503  502  0.00000000000E+00  0.00000000000E+00  0.15221287579E+03  0.15221287579E+03  0.00000000000E+00 0.  1.
         21   -1    0    0  501  503 -0.00000000000E+00 -0.00000000000E+00 -0.41295382103E+01  0.41295382103E+01  0.00000000000E+00 0. -1.
          2    1    1    2  501    0 -0.13117588097E+02 -0.15225997365E+02  0.27306931930E+02  0.33905318825E+02  0.00000000000E+00 0. -1.
         -2    1    1    2    0  502  0.13117588097E+02  0.15225997365E+02  0.12077640565E+03  0.12243709518E+03  0.00000000000E+00 0.  1.
<mgrwt>
<rscale>  2 0.20097316E+02</rscale>
<asrwt>0</asrwt>
<pdfrwt beam="1">  1       21 0.23417361E-01 0.20097316E+02</pdfrwt>
<pdfrwt beam="2">  1       21 0.63531369E-03 0.20097316E+02</pdfrwt>
<totfact> 0.88517761E+07</totfact>
</mgrwt>
</event>
<event>
 4    1  0.2677450E+004  0.2211728E+02  0.7546771E-02  0.1706232E+00
         21   -1    0    0  501  502  0.00000000000E+00  0.00000000000E+00  0.24639628635E+02  0.24639628635E+02  0.00000000000E+00 0. -1.
         21   -1    0    0  502  503 -0.00000000000E+00 -0.00000000000E+00 -0.20289931750E+02  0.20289931750E+02  0.00000000000E+00 0.  1.
          2    1    1    2  501    0  0.12122256267E+02  0.18499326442E+02 -0.11212143998E+01  0.22145683497E+02  0.00000000000E+00 0.  1.
         -2    1    1    2    0  503 -0.12122256267E+02 -0.18499326442E+02  0.54709112843E+01  0.22783876889E+02  0.00000000000E+00 0. -1.
<mgrwt>
<rscale>  2 0.22117282E+02</rscale>
<asrwt>0</asrwt>
<pdfrwt beam="1">  1       21 0.37907121E-02 0.22117282E+02</pdfrwt>
<pdfrwt beam="2">  1       21 0.31215280E-02 0.22117282E+02</pdfrwt>
<totfact> 0.16494122E+08</totfact>
</mgrwt>
</event>
<event>
 4    1  0.2677450E+004  0.3459946E+02  0.7546771E-02  0.1552186E+00
         21   -1    0    0  503  502  0.00000000000E+00  0.00000000000E+00  0.16284903008E+03  0.16284903008E+03  0.00000000000E+00 0. -1.
         21   -1    0    0  501  503 -0.00000000000E+00 -0.00000000000E+00 -0.15432188069E+02  0.15432188069E+02  0.00000000000E+00 0.  1.
          2    1    1    2  501    0  0.29973497909E+02 -0.17283293021E+02  0.92029990276E+01  0.35802485747E+02  0.00000000000E+00 0.  1.
         -2    1    1    2    0  502 -0.29973497909E+02  0.17283293021E+02  0.13821384298E+03  0.14247873240E+03  0.00000000000E+00 0. -1.
<mgrwt>
<rscale>  2 0.34599462E+02</rscale>
<asrwt>0</asrwt>
<pdfrwt beam="1">  1       21 0.25053696E-01 0.34599462E+02</pdfrwt>
<pdfrwt beam="2">  1       21 0.23741829E-02 0.34599462E+02</pdfrwt>
<totfact> 0.11906019E+07</totfact>
</mgrwt>
</event>
<event>
 4    1  0.2677450E+004  0.2438276E+02  0.7546771E-02  0.1670029E+00
         21   -1    0    0  501  502  0.00000000000E+00  0.00000000000E+00  0.34547058317E+02  0.34547058317E+02  0.00000000000E+00 0. -1.
         21   -1    0    0  502  503 -0.00000000000E+00 -0.00000000000E+00 -0.17848691487E+02  0.17848691487E+02  0.00000000000E+00 0.  1.
          2    1    1    2  501    0  0.12637782987E+02  0.20851987835E+02  0.13308954467E+02  0.27778538920E+02  0.00000000000E+00 0. -1.
         -2    1    1    2    0  503 -0.12637782987E+02 -0.20851987835E+02  0.33894123628E+01  0.24617210883E+02  0.00000000000E+00 0.  1.
<mgrwt>
<rscale>  2 0.24382759E+02</rscale>
<asrwt>0</asrwt>
<pdfrwt beam="1">  1       21 0.53149320E-02 0.24382759E+02</pdfrwt>
<pdfrwt beam="2">  1       21 0.27459526E-02 0.24382759E+02</pdfrwt>
<totfact> 0.12138273E+08</totfact>
</mgrwt>
</event>
<event>
 4    1  0.2677450E+004  0.2068309E+02  0.7546771E-02  0.1732076E+00
         21   -1    0    0  503  502  0.00000000000E+00  0.00000000000E+00  0.62532498841E+01  0.62532498841E+01  0.00000000000E+00 0.  1.
         21   -1    0    0  501  503 -0.00000000000E+00 -0.00000000000E+00 -0.77607783173E+02  0.77607783173E+02  0.00000000000E+00 0. -1.
          2    1    1    2  501    0 -0.27518737232E+01 -0.20499204695E+02 -0.50111670548E+02  0.54212265468E+02  0.00000000000E+00 0. -1.
         -2    1    1    2    0  502  0.27518737232E+01  0.20499204695E+02 -0.21242862741E+02  0.29648767589E+02  0.00000000000E+00 0.  1.
<mgrwt>
<rscale>  2 0.20683090E+02</rscale>
<asrwt>0</asrwt>
<pdfrwt beam="1">  1       21 0.96203842E-03 0.20683090E+02</pdfrwt>
<pdfrwt beam="2">  1       21 0.11939659E-01 0.20683090E+02</pdfrwt>
<totfact> 0.15253747E+08</totfact>
</mgrwt>
</event>
<event>
 4    1  0.2677450E+004  0.2322579E+02  0.7546771E-02  0.1687876E+00
         21   -1    0    0  501  502  0.00000000000E+00  0.00000000000E+00  0.17575711016E+02  0.17575711016E+02  0.00000000000E+00 0.  1.
         21   -1    0    0  502  503 -0.00000000000E+00 -0.00000000000E+00 -0.58487621334E+02  0.58487621334E+02  0.00000000000E+00 0. -1.
          2    1    1    2  501    0 -0.65956189707E+01 -0.22269600174E+02  0.57620704956E+01  0.23929871247E+02  0.00000000000E+00 0.  1.
         -2    1    1    2    0  503  0.65956189707E+01  0.22269600174E+02 -0.46673980815E+02  0.52133461103E+02  0.00000000000E+00 0. -1.
<mgrwt>
<rscale>  2 0.23225789E+02</rscale>
<asrwt>0</asrwt>
<pdfrwt beam="1">  1       21 0.27039555E-02 0.23225789E+02</pdfrwt>
<pdfrwt beam="2">  1       21 0.89980956E-02 0.23225789E+02</pdfrwt>
<totfact> 0.52243766E+07</totfact>
</mgrwt>
</event>
<event>
 4    1  0.2677450E+004  0.2009163E+02  0.7546771E-02  0.1743512E+00
         21   -1    0    0  503  502  0.00000000000E+00  0.00000000000E+00  0.11789264206E+02  0.11789264206E+02  0.00000000000E+00 0. -1.
         21   -1    0    0  501  503 -0.00000000000E+00 -0.00000000000E+00 -0.36712672148E+02  0.36712672148E+02  0.00000000000E+00 0.  1.
          2    1    1    2  501    0  0.42120691815E+00  0.20087218479E+02 -0.18754369587E+02  0.27484543659E+02  0.00000000000E+00 0.  1.
         -2    1    1    2    0  502 -0.42120691815E+00 -0.20087218479E+02 -0.61690383540E+01  0.21017392695E+02  0.00000000000E+00 0. -1.
<mgrwt>
<rscale>  2 0.20091634E+02</rscale>
<asrwt>0</asrwt>
<pdfrwt beam="1">  1       21 0.18137329E-02 0.20091634E+02</pdfrwt>
<pdfrwt beam="2">  1       21 0.56481035E-02 0.20091634E+02</pdfrwt>
<totfact> 0.19639759E+08</totfact>
</mgrwt>
</event>
<event>
 4    1  0.2677450E+004  0.2943527E+02  0.7546771E-02  0.1604416E+00
         21   -1    0    0  503  502  0.00000000000E+00  0.00000000000E+00  0.22068397569E+03  0.22068397569E+03  0.00000000000E+00 0.  1.
         21   -1    0    0  501  503 -0.00000000000E+00 -0.00000000000E+00 -0.72149240791E+02  0.72149240791E+02  0.00000000000E+00 0. -1.
          2    1    1    2  501    0 -0.29137877559E+02  0.41736180894E+01 -0.68109752553E+02  0.74198203412E+02  0.00000000000E+00 0. -1.
         -2    1    1    2    0  502  0.29137877559E+02 -0.41736180894E+01  0.21664448745E+03  0.21863501307E+03  0.00000000000E+00 0.  1.
<mgrwt>
<rscale>  2 0.29435268E+02</rscale>
<asrwt>0</asrwt>
<pdfrwt beam="1">  1       21 0.33951380E-01 0.29435268E+02</pdfrwt>
<pdfrwt beam="2">  1       21 0.11099883E-01 0.29435268E+02</pdfrwt>
<totfact> 0.55303185E+05</totfact>
</mgrwt>
</event>
<event>
 4    1  0.2677450E+004  0.2797014E+02  0.7546771E-02  0.1621674E+00
         21   -1    0    0  501  502  0.00000000000E+00  0.00000000000E+00  0.15439925470E+02  0.15439925470E+02  0.00000000000E+00 0.  1.
         21   -1    0    0  502  503 -0.00000000000E+00 -0.00000000000E+00 -0.51585437369E+02  0.51585437369E+02  0.00000000000E+00 0. -1.
          2    1    1    2  501    0  0.93262887628E+01  0.26369476222E+02 -0.13606480267E+02  0.31104103324E+02  0.00000000000E+00 0.  1.
         -2    1    1    2    0  503 -0.93262887628E+01 -0.26369476222E+02 -0.22539031631E+02  0.35921259515E+02  0.00000000000E+00 0. -1.
<mgrwt>
<rscale>  2 0.27970144E+02</rscale>
<asrwt>0</asrwt>
<pdfrwt beam="1">  1       21 0.23753731E-02 0.27970144E+02</pdfrwt>
<pdfrwt beam="2">  1       21 0.79362212E-02 0.27970144E+02</pdfrwt>
<totfact> 0.82311728E+07</totfact>
</mgrwt>
</event>
<event>
 4    1  0.2677450E+004  0.2571691E+02  0.7546771E-02  0.1650913E+00
         21   -1    0    0  501  502  0.00000000000E+00  0.00000000000E+00  0.57247626399E+01  0.57247626399E+01  0.00000000000E+00 0.  1.
         21   -1    0    0  502  503 -0.00000000000E+00 -0.00000000000E+00 -0.14707834659E+03  0.14707834659E+03  0.00000000000E+00 0. -1.
          2    1    1    2  501    0  0.17428161495E+02  0.18910808632E+02 -0.35289854733E+02  0.43666157872E+02  0.00000000000E+00 0.  1.
         -2    1    1    2    0  503 -0.17428161495E+02 -0.18910808632E+02 -0.10606372921E+03  0.10913695135E+03  0.00000000000E+00 0. -1.
<mgrwt>
<rscale>  2 0.25716911E+02</rscale>
<asrwt>0</asrwt>
<pdfrwt beam="1">  1       21 0.88073262E-03 0.25716911E+02</pdfrwt>
<pdfrwt beam="2">  1       21 0.22627440E-01 0.25716911E+02</pdfrwt>
<totfact> 0.61680864E+07</totfact>
</mgrwt>
</event>
<event>
 4    1  0.2677450E+004  0.3321402E+02  0.7546771E-02  0.1565058E+00
         21   -1    0    0  501  502  0.00000000000E+00  0.00000000000E+00  0.83208417936E+03  0.83208417936E+03  0.00000000000E+00 0. -1.
         21   -1    0    0  502  503 -0.00000000000E+00 -0.00000000000E+00 -0.19009269012E+01  0.19009269012E+01  0.00000000000E+00 0.  1.
          2    1    1    2  501    0 -0.72910601284E+01 -0.32403883385E+02  0.64445821161E+03  0.64531353444E+03  0.00000000000E+00 0.  1.
         -2    1    1    2    0  503  0.72910601284E+01  0.32403883385E+02  0.18572504085E+03  0.18867157182E+03  0.00000000000E+00 0. -1.
<mgrwt>
<rscale>  2 0.33214021E+02</rscale>
<asrwt>0</asrwt>
<pdfrwt beam="1">  1       21 0.12801266E+00 0.33214021E+02</pdfrwt>
<pdfrwt beam="2">  1       21 0.29245096E-03 0.33214021E+02</pdfrwt>
<totfact> 0.10254433E+07</totfact>
</mgrwt>
</event>
<event>
 4    1  0.2677450E+004  0.2288373E+02  0.7546771E-02  0.1693402E+00
         21   -1    0    0  501  502  0.00000000000E+00  0.00000000000E+00  0.75107404982E+02  0.75107404982E+02  0.00000000000E+00 0. -1.
         21   -1    0    0  502  503 -0.00000000000E+00 -0.00000000000E+00 -0.81947742274E+01  0.81947742274E+01  0.00000000000E+00 0.  1.
          2    1    1    2  501    0 -0.22563041296E+02  0.38176296376E+01  0.49543959958E+02  0.54573520107E+02  0.00000000000E+00 0. -1.
         -2    1    1    2    0  503  0.22563041296E+02 -0.38176296376E+01  0.17368670797E+02  0.28728659103E+02  0.00000000000E+00 0.  1.
<mgrwt>
<rscale>  2 0.22883731E+02</rscale>
<asrwt>0</asrwt>
<pdfrwt beam="1">  1       21 0.11554985E-01 0.22883731E+02</pdfrwt>
<pdfrwt beam="2">  1       21 0.12607345E-02 0.22883731E+02</pdfrwt>
<totfact> 0.11056151E+08</totfact>
</mgrwt>
</event>
<event>
 4    1  0.2677450E+004  0.2348112E+02  0.7546771E-02  0.1683828E+00
         21   -1    0    0  501  502  0.00000000000E+00  0.00000000000E+00  0.35962121109E+02  0.35962121109E+02  0.00000000000E+00 0.  1.
         21   -1    0    0  502  503 -0.00000000000E+00 -0.00000000000E+00 -0.10982272970E+03  0.10982272970E+03  0.00000000000E+00 0. -1.
          2    1    1    2  501    0  0.16869440373E+02 -0.16333553237E+02  0.30682883655E+02  0.38636800194E+02  0.00000000000E+00 0.  1.
         -2    1    1    2    0  503 -0.16869440373E+02  0.16333553237E+02 -0.10454349225E+03  0.10714805062E+03  0.00000000000E+00 0. -1.
<mgrwt>
<rscale>  2 0.23481120E+02</rscale>
<asrwt>0</asrwt>
<pdfrwt beam="1">  1       21 0.55326342E-02 0.23481120E+02</pdfrwt>
<pdfrwt beam="2">  1       21 0.16895804E-01 0.23481120E+02</pdfrwt>
<totfact> 0.58833154E+06</totfact>
</mgrwt>
</event>
<event>
 4    1  0.2677450E+004  0.6518565E+02  0.7546771E-02  0.1377275E+00
         21   -1    0    0  501  502  0.00000000000E+00  0.00000000000E+00  0.26708887722E+03  0.26708887722E+03  0.00000000000E+00 0. -1.
         21   -1    0    0  502  503 -0.00000000000E+00 -0.00000000000E+00 -0.25000218692E+02  0.25000218692E+02  0.00000000000E+00 0.  1.
          2    1    1    2  501    0  0.65069014165E+02  0.38978168823E+01  0.20911266522E+03  0.21903715743E+03  0.00000000000E+00 0. -1.
         -2    1    1    2    0  503 -0.65069014165E+02 -0.38978168823E+01  0.32975993308E+02  0.73051938478E+02  0.00000000000E+00 0.  1.
<mgrwt>
<rscale>  2 0.65185655E+02</rscale>
<asrwt>0</asrwt>
<pdfrwt beam="1">  1       21 0.41090594E-01 0.65185655E+02</pdfrwt>
<pdfrwt beam="2">  1       21 0.38461877E-02 0.65185655E+02</pdfrwt>
<totfact> 0.23077423E+06</totfact>
</mgrwt>
</event>
<event>
 4    1  0.2677450E+004  0.2269640E+02  0.7546771E-02  0.1696479E+00
         21   -1    0    0  503  502  0.00000000000E+00  0.00000000000E+00  0.33971455427E+01  0.33971455427E+01  0.00000000000E+00 0. -1.
         21   -1    0    0  501  503 -0.00000000000E+00 -0.00000000000E+00 -0.30208653783E+03  0.30208653783E+03  0.00000000000E+00 0.  1.
          2    1    1    2  501    0 -0.32573508835E+01  0.22461440263E+02 -0.25713766988E+03  0.25813738185E+03  0.00000000000E+00 0.  1.
         -2    1    1    2    0  502  0.32573508835E+01 -0.22461440263E+02 -0.41551722403E+02  0.47346301525E+02  0.00000000000E+00 0. -1.
<mgrwt>
<rscale>  2 0.22696401E+02</rscale>
<asrwt>0</asrwt>
<pdfrwt beam="1">  1       21 0.52263772E-03 0.22696401E+02</pdfrwt>
<pdfrwt beam="2">  1       21 0.46474857E-01 0.22696401E+02</pdfrwt>
<totfact> 0.34603632E+07</totfact>
</mgrwt>
</event>
<event>
 4    1  0.2677450E+004  0.2641110E+02  0.7546771E-02  0.1641524E+00
         21   -1    0    0  501  502  0.00000000000E+00  0.00000000000E+00  0.17770852568E+03  0.17770852568E+03  0.00000000000E+00 0. -1.
         21   -1    0    0  502  503 -0.00000000000E+00 -0.00000000000E+00 -0.40474643849E+01  0.40474643849E+01  0.00000000000E+00 0.  1.
          2    1    1    2  501    0 -0.89670683532E+00  0.26395875142E+02  0.71037364702E+02  0.75788214727E+02  0.00000000000E+00 0.  1.
         -2    1    1    2    0  503  0.89670683532E+00 -0.26395875142E+02  0.10262369660E+03  0.10596777534E+03  0.00000000000E+00 0. -1.
<mgrwt>
<rscale>  2 0.26411102E+02</rscale>
<asrwt>0</asrwt>
<pdfrwt beam="1">  1       21 0.27339767E-01 0.26411102E+02</pdfrwt>
<pdfrwt beam="2">  1       21 0.62268697E-03 0.26411102E+02</pdfrwt>
<totfact> 0.74298554E+07</totfact>
</mgrwt>
</event>
<event>
 4    1  0.2677450E+004  0.2457847E+02  0.7546771E-02  0.1667131E+00
         21   -1    0    0  503  502  0.00000000000E+00  0.00000000000E+00  0.14588892578E+02  0.14588892578E+02  0.00000000000E+00 0.  1.
         21   -1    0    0  501  503 -0.00000000000E+00 -0.00000000000E+00 -0.74464462987E+02  0.74464462987E+02  0.00000000000E+00 0. -1.
          2    1    1    2  501    0  0.68553025430E+01 -0.23603089511E+02 -0.59604679721E+02  0.64473396468E+02  0.00000000000E+00 0. -1.
         -2    1    1    2    0  502 -0.68553025430E+01  0.23603089511E+02 -0.27089068742E+00  0.24579959097E+02  0.00000000000E+00 0.  1.
<mgrwt>
<rscale>  2 0.24578466E+02</rscale>
<asrwt>0</asrwt>
<pdfrwt beam="1">  1       21 0.22444450E-02 0.24578466E+02</pdfrwt>
<pdfrwt beam="2">  1       21 0.11456071E-01 0.24578466E+02</pdfrwt>
<totfact> 0.47375844E+07</totfact>
</mgrwt>
</event>
<event>
 4    1  0.2677450E+004  0.4965580E+02  0.7546771E-02  0.1447207E+00
         21   -1    0    0  503  502  0.00000000000E+00  0.00000000000E+00  0.16987679998E+03  0.16987679998E+03  0.00000000000E+00 0.  1.
         21   -1    0    0  501  503 -0.00000000000E+00 -0.00000000000E+00 -0.14934088581E+02  0.14934088581E+02  0.00000000000E+00 0. -1.
          2    1    1    2  501    0  0.45782811505E+02  0.19225843829E+02  0.61984875181E+02  0.79421808412E+02  0.00000000000E+00 0. -1.
         -2    1    1    2    0  502 -0.45782811505E+02 -0.19225843829E+02  0.92957836214E+02  0.10538908014E+03  0.00000000000E+00 0.  1.
<mgrwt>
<rscale>  2 0.49655804E+02</rscale>
<asrwt>0</asrwt>
<pdfrwt beam="1">  1       21 0.26134891E-01 0.49655804E+02</pdfrwt>
<pdfrwt beam="2">  1       21 0.22975522E-02 0.49655804E+02</pdfrwt>
<totfact> 0.12187964E+07</totfact>
</mgrwt>
</event>
<event>
 4    1  0.2677450E+004  0.2233949E+02  0.7546771E-02  0.1702446E+00
         21   -1    0    0  503  502  0.00000000000E+00  0.00000000000E+00  0.19550317024E+01  0.19550317024E+01  0.00000000000E+00 0.  1.
         21   -1    0    0  501  503 -0.00000000000E+00 -0.00000000000E+00 -0.28431829150E+03  0.28431829150E+03  0.00000000000E+00 0. -1.
          2    1    1    2  501    0 -0.21522901008E+02  0.59847905503E+01 -0.18693669769E+03  0.18826678392E+03  0.00000000000E+00 0. -1.
         -2    1    1    2    0  502  0.21522901008E+02 -0.59847905503E+01 -0.95426562108E+02  0.98006539279E+02  0.00000000000E+00 0.  1.
<mgrwt>
<rscale>  2 0.22339494E+02</rscale>
<asrwt>0</asrwt>
<pdfrwt beam="1">  1       21 0.30077401E-03 0.22339494E+02</pdfrwt>
<pdfrwt beam="2">  1       21 0.43741290E-01 0.22339494E+02</pdfrwt>
<totfact> 0.87000981E+07</totfact>
</mgrwt>
</event>
<event>
 4    1  0.2677450E+004  0.2211733E+02  0.7546771E-02  0.1706231E+00
         21   -1    0    0  503  502  0.00000000000E+00  0.00000000000E+00  0.31512411352E+02  0.31512411352E+02  0.00000000000E+00 0.  1.
         21   -1    0    0  501  503 -0.00000000000E+00 -0.00000000000E+00 -0.21325562671E+02  0.21325562671E+02  0.00000000000E+00 0. -1.
          2    1    1    2  501    0  0.20738064171E+01  0.22019887282E+02 -0.86870829725E+01  0.23762186759E+02  0.00000000000E+00 0. -1.
         -2    1    1    2    0  502 -0.20738064171E+01 -0.22019887282E+02  0.18873931653E+02  0.29075787264E+02  0.00000000000E+00 0.  1.
<mgrwt>
<rscale>  2 0.22117326E+02</rscale>
<asrwt>0</asrwt>
<pdfrwt beam="1">  1       21 0.48480633E-02 0.22117326E+02</pdfrwt>
<pdfrwt beam="2">  1       21 0.32808558E-02 0.22117326E+02</pdfrwt>
<totfact> 0.10351153E+08</totfact>
</mgrwt>
</event>
<event>
 4    1  0.2677450E+004  0.2620337E+02  0.7546771E-02  0.1644296E+00
         21   -1    0    0  503  502  0.00000000000E+00  0.00000000000E+00  0.10361883458E+03  0.10361883458E+03  0.00000000000E+00 0.  1.
         21   -1    0    0  501  503 -0.00000000000E+00 -0.00000000000E+00 -0.44628103062E+02  0.44628103062E+02  0.00000000000E+00 0. -1.
          2    1    1    2  501    0  0.25909042421E+02 -0.39164120863E+01 -0.38904180629E+02  0.46905778250E+02  0.00000000000E+00 0. -1.
         -2    1    1    2    0  502 -0.25909042421E+02  0.39164120863E+01  0.97894912146E+02  0.10134115939E+03  0.00000000000E+00 0.  1.
<mgrwt>
<rscale>  2 0.26203373E+02</rscale>
<asrwt>0</asrwt>
<pdfrwt beam="1">  1       21 0.15941359E-01 0.26203373E+02</pdfrwt>
<pdfrwt beam="2">  1       21 0.68658620E-02 0.26203373E+02</pdfrwt>
<totfact> 0.46688462E+06</totfact>
</mgrwt>
</event>
<event>
 4    1  0.2677450E+004  0.2028991E+02  0.7546771E-02  0.1739624E+00
         21   -1    0    0  501  502  0.00000000000E+00  0.00000000000E+00  0.17958324348E+03  0.17958324348E+03  0.00000000000E+00 0.  1.
         21   -1    0    0  502  503 -0.00000000000E+00 -0.00000000000E+00 -0.40679737455E+01  0.40679737455E+01  0.00000000000E+00 0. -1.
          2    1    1    2  501    0  0.17450222527E+02 -0.10352296085E+02  0.14842310964E+03  0.14980353726E+03  0.00000000000E+00 0.  1.
         -2    1    1    2    0  503 -0.17450222527E+02  0.10352296085E+02  0.27092160096E+02  0.33847679967E+02  0.00000000000E+00 0. -1.
<mgrwt>
<rscale>  2 0.20289906E+02</rscale>
<asrwt>0</asrwt>
<pdfrwt beam="1">  1       21 0.27628185E-01 0.20289906E+02</pdfrwt>
<pdfrwt beam="2">  1       21 0.62584225E-03 0.20289906E+02</pdfrwt>
<totfact> 0.67654235E+07</totfact>
</mgrwt>
</event>
<event>
 4    1  0.2677450E+004  0.2005508E+02  0.7546771E-02  0.1744235E+00
         21   -1    0    0  501  502  0.00000000000E+00  0.00000000000E+00  0.11715843001E+02  0.11715843001E+02  0.00000000000E+00 0.  1.
         21   -1    0    0  502  503 -0.00000000000E+00 -0.00000000000E+00 -0.34401221315E+02  0.34401221315E+02  0.00000000000E+00 0. -1.
          2    1    1    2  501    0 -0.15714440642E+01  0.19993418099E+02 -0.12391042376E+02  0.23574226072E+02  0.00000000000E+00 0.  1.
         -2    1    1    2    0  503  0.15714440642E+01 -0.19993418099E+02 -0.10294335938E+02  0.22542838244E+02  0.00000000000E+00 0. -1.
<mgrwt>
<rscale>  2 0.20055079E+02</rscale>
<asrwt>0</asrwt>
<pdfrwt beam="1">  1       21 0.18024374E-02 0.20055079E+02</pdfrwt>
<pdfrwt beam="2">  1       21 0.52924956E-02 0.20055079E+02</pdfrwt>
<totfact> 0.21973112E+08</totfact>
</mgrwt>
</event>
<event>
 4    1  0.2677450E+004  0.2116047E+02  0.7546771E-02  0.1723189E+00
         21   -1    0    0  503  502  0.00000000000E+00  0.00000000000E+00  0.22551223089E+03  0.22551223089E+03  0.00000000000E+00 0.  1.
         21   -1    0    0  501  503 -0.00000000000E+00 -0.00000000000E+00 -0.21511620611E+01  0.21511620611E+01  0.00000000000E+00 0. -1.
          2    1    1    2  501    0  0.77560613314E+00  0.21146255527E+02  0.80096083163E+02  0.82844120044E+02  0.00000000000E+00 0. -1.
         -2    1    1    2    0  502 -0.77560613314E+00 -0.21146255527E+02  0.14326498567E+03  0.14481927291E+03  0.00000000000E+00 0.  1.
<mgrwt>
<rscale>  2 0.21160475E+02</rscale>
<asrwt>0</asrwt>
<pdfrwt beam="1">  1       21 0.34694171E-01 0.21160475E+02</pdfrwt>
<pdfrwt beam="2">  1       21 0.33094819E-03 0.21160475E+02</pdfrwt>
<totfact> 0.11514630E+08</totfact>
</mgrwt>
</event>
<event>
 4    1  0.2677450E+004  0.2252827E+02  0.7546771E-02  0.1699273E+00
         21   -1    0    0  503  502  0.00000000000E+00  0.00000000000E+00  0.85573801322E+01  0.85573801322E+01  0.00000000000E+00 0.  1.
         21   -1    0    0  501  503 -0.00000000000E+00 -0.00000000000E+00 -0.90457947394E+02  0.90457947394E+02  0.00000000000E+00 0. -1.
          2    1    1    2  501    0  0.62252478546E+01  0.21651078165E+02 -0.70002298936E+02  0.73538049695E+02  0.00000000000E+00 0. -1.
         -2    1    1    2    0  502 -0.62252478546E+01 -0.21651078165E+02 -0.11898268326E+02  0.25477277832E+02  0.00000000000E+00 0.  1.
<mgrwt>
<rscale>  2 0.22528269E+02</rscale>
<asrwt>0</asrwt>
<pdfrwt beam="1">  1       21 0.13165200E-02 0.22528269E+02</pdfrwt>
<pdfrwt beam="2">  1       21 0.13916608E-01 0.22528269E+02</pdfrwt>
<totfact> 0.75432623E+07</totfact>
</mgrwt>
</event>
<event>
 4    1  0.2677450E+004  0.3692236E+02  0.7546771E-02  0.1532163E+00
         21   -1    0    0  501  502  0.00000000000E+00  0.00000000000E+00  0.62669927219E+02  0.62669927219E+02  0.00000000000E+00 0. -1.
         21   -1    0    0  502  503 -0.00000000000E+00 -0.00000000000E+00 -0.33028147898E+02  0.33028147898E+02  0.00000000000E+00 0.  1.
          2    1    1    2  501    0  0.18578232878E+02  0.31907829823E+02  0.42777968134E+02  0.56508538280E+02  0.00000000000E+00 0. -1.
         -2    1    1    2    0  503 -0.18578232878E+02 -0.31907829823E+02 -0.13136188813E+02  0.39189536836E+02  0.00000000000E+00 0.  1.
<mgrwt>
<rscale>  2 0.36922356E+02</rscale>
<asrwt>0</asrwt>
<pdfrwt beam="1">  1       21 0.96415273E-02 0.36922356E+02</pdfrwt>
<pdfrwt beam="2">  1       21 0.50812535E-02 0.36922356E+02</pdfrwt>
<totfact> 0.18877512E+07</totfact>
</mgrwt>
</event>
<event>
 4    1  0.2677450E+004  0.3022516E+02  0.7546771E-02  0.1595613E+00
         21   -1    0    0  501  502  0.00000000000E+00  0.00000000000E+00  0.12060559858E+02  0.12060559858E+02  0.00000000000E+00 0. -1.
         21   -1    0    0  502  503 -0.00000000000E+00 -0.00000000000E+00 -0.12495968376E+03  0.12495968376E+03  0.00000000000E+00 0.  1.
          2    1    1    2  501    0  0.24690762549E+02 -0.17433487581E+02 -0.13455843633E+02  0.33085041519E+02  0.00000000000E+00 0. -1.
         -2    1    1    2    0  503 -0.24690762549E+02  0.17433487581E+02 -0.99443280270E+02  0.10393520210E+03  0.00000000000E+00 0.  1.
<mgrwt>
<rscale>  2 0.30225159E+02</rscale>
<asrwt>0</asrwt>
<pdfrwt beam="1">  1       21 0.18554706E-02 0.30225159E+02</pdfrwt>
<pdfrwt beam="2">  1       21 0.19224568E-01 0.30225159E+02</pdfrwt>
<totfact> 0.27384374E+07</totfact>
</mgrwt>
</event>
<event>
 4    1  0.2677450E+004  0.3555463E+02  0.7546771E-02  0.1543730E+00
         21   -1    0    0  503  502  0.00000000000E+00  0.00000000000E+00  0.52337560413E+02  0.52337560413E+02  0.00000000000E+00 0.  1.
         21   -1    0    0  501  503 -0.00000000000E+00 -0.00000000000E+00 -0.35426833941E+02  0.35426833941E+02  0.00000000000E+00 0. -1.
          2    1    1    2  501    0  0.31363838427E+02  0.16746382539E+02 -0.16298882388E+02  0.39112469318E+02  0.00000000000E+00 0. -1.
         -2    1    1    2    0  502 -0.31363838427E+02 -0.16746382539E+02  0.33209608861E+02  0.48651925036E+02  0.00000000000E+00 0.  1.
<mgrwt>
<rscale>  2 0.35554630E+02</rscale>
<asrwt>0</asrwt>
<pdfrwt beam="1">  1       21 0.80519324E-02 0.35554630E+02</pdfrwt>
<pdfrwt beam="2">  1       21 0.54502821E-02 0.35554630E+02</pdfrwt>
<totfact> 0.22619916E+07</totfact>
</mgrwt>
</event>
<event>
 4    1  0.2677450E+004  0.2473201E+02  0.7546771E-02  0.1664881E+00
         21   -1    0    0  503  502  0.00000000000E+00  0.00000000000E+00  0.39660342393E+02  0.39660342393E+02  0.00000000000E+00 0. -1.
         21   -1    0    0  501  503 -0.00000000000E+00 -0.00000000000E+00 -0.27697338755E+02  0.27697338755E+02  0.00000000000E+00 0.  1.
          2    1    1    2  501    0  0.18775680155E+02 -0.16098019802E+02 -0.16438786947E+02  0.29696904268E+02  0.00000000000E+00 0.  1.
         -2    1    1    2    0  502 -0.18775680155E+02  0.16098019802E+02  0.28401790584E+02  0.37660776880E+02  0.00000000000E+00 0. -1.
<mgrwt>
<rscale>  2 0.24732012E+02</rscale>
<asrwt>0</asrwt>
<pdfrwt beam="1">  1       21 0.61015912E-02 0.24732012E+02</pdfrwt>
<pdfrwt beam="2">  1       21 0.42611290E-02 0.24732012E+02</pdfrwt>
<totfact> 0.48971746E+07</totfact>
</mgrwt>
</event>
<event>
 4    1  0.2677450E+004  0.3490794E+02  0.7546771E-02  0.1549420E+00
         21   -1    0    0  501  502  0.00000000000E+00  0.00000000000E+00  0.84996805840E+02  0.84996805840E+02  0.00000000000E+00 0.  1.
         21   -1    0    0  502  503 -0.00000000000E+00 -0.00000000000E+00 -0.19218050331E+02  0.19218050331E+02  0.00000000000E+00 0. -1.
          2    1    1    2  501    0  0.29847179339E+02  0.18102767399E+02  0.59150899341E+02  0.68683281771E+02  0.00000000000E+00 0.  1.
         -2    1    1    2    0  503 -0.29847179339E+02 -0.18102767399E+02  0.66278561678E+01  0.35531574400E+02  0.00000000000E+00 0. -1.
<mgrwt>
<rscale>  2 0.34907940E+02</rscale>
<asrwt>0</asrwt>
<pdfrwt beam="1">  1       21 0.13076432E-01 0.34907940E+02</pdfrwt>
<pdfrwt beam="2">  1       21 0.29566232E-02 0.34907940E+02</pdfrwt>
<totfact> 0.26515849E+07</totfact>
</mgrwt>
</event>
<event>
 4    1  0.2677450E+004  0.7427731E+02  0.7546771E-02  0.1346124E+00
         21   -1    0    0  501  502  0.00000000000E+00  0.00000000000E+00  0.11327102766E+02  0.11327102766E+02  0.00000000000E+00 0. -1.
         21   -1    0    0  502  503 -0.00000000000E+00 -0.00000000000E+00 -0.66113747557E+03  0.66113747557E+03  0.00000000000E+00 0.  1.
          2    1    1    2  501    0 -0.50807999535E+02  0.54181792234E+02 -0.15238126593E+03  0.16952041067E+03  0.00000000000E+00 0. -1.
         -2    1    1    2    0  503  0.50807999535E+02 -0.54181792234E+02 -0.49742910688E+03  0.50294416767E+03  0.00000000000E+00 0.  1.
<mgrwt>
<rscale>  2 0.74277314E+02</rscale>
<asrwt>0</asrwt>
<pdfrwt beam="1">  1       21 0.17426306E-02 0.74277314E+02</pdfrwt>
<pdfrwt beam="2">  1       21 0.10171349E+00 0.74277314E+02</pdfrwt>
<totfact> 0.12122086E+06</totfact>
</mgrwt>
</event>
<event>
 4    1  0.2677450E+004  0.2159264E+02  0.7546771E-02  0.1715394E+00
         21   -1    0    0  501  502  0.00000000000E+00  0.00000000000E+00  0.24468743003E+02  0.24468743003E+02  0.00000000000E+00 0. -1.
         21   -1    0    0  502  503 -0.00000000000E+00 -0.00000000000E+00 -0.34086354596E+02  0.34086354596E+02  0.00000000000E+00 0.  1.
          2    1    1    2  501    0  0.99885492096E+01  0.19143436534E+02  0.14633562894E+02  0.26084160723E+02  0.00000000000E+00 0. -1.
         -2    1    1    2    0  503 -0.99885492096E+01 -0.19143436534E+02 -0.24251174487E+02  0.32470936877E+02  0.00000000000E+00 0.  1.
<mgrwt>
<rscale>  2 0.21592644E+02</rscale>
<asrwt>0</asrwt>
<pdfrwt beam="1">  1       21 0.37644220E-02 0.21592644E+02</pdfrwt>
<pdfrwt beam="2">  1       21 0.52440546E-02 0.21592644E+02</pdfrwt>
<totfact> 0.73184812E+07</totfact>
</mgrwt>
</event>
<event>
 4    1  0.2677450E+004  0.2225009E+02  0.7546771E-02  0.1703962E+00
         21   -1    0    0  503  502  0.00000000000E+00  0.00000000000E+00  0.74558112854E+02  0.74558112854E+02  0.00000000000E+00 0. -1.
         21   -1    0    0  501  503 -0.00000000000E+00 -0.00000000000E+00 -0.14453736229E+02  0.14453736229E+02  0.00000000000E+00 0.  1.
          2    1    1    2  501    0 -0.18772850184E+02 -0.11943468438E+02 -0.26711017329E+01  0.22409844418E+02  0.00000000000E+00 0.  1.
         -2    1    1    2    0  502  0.18772850184E+02  0.11943468438E+02  0.62775478358E+02  0.66602004665E+02  0.00000000000E+00 0. -1.
<mgrwt>
<rscale>  2 0.22250086E+02</rscale>
<asrwt>0</asrwt>
<pdfrwt beam="1">  1       21 0.11470479E-01 0.22250086E+02</pdfrwt>
<pdfrwt beam="2">  1       21 0.22236518E-02 0.22250086E+02</pdfrwt>
<totfact> 0.46762344E+07</totfact>
</mgrwt>
</event>
<event>
 4    1  0.2677450E+004  0.2501084E+02  0.7546771E-02  0.1660846E+00
         21   -1    0    0  503  502  0.00000000000E+00  0.00000000000E+00  0.15073167334E+03  0.15073167334E+03  0.00000000000E+00 0. -1.
         21   -1    0    0  501  503 -0.00000000000E+00 -0.00000000000E+00 -0.48966886433E+01  0.48966886433E+01  0.00000000000E+00 0.  1.
          2    1    1    2  501    0 -0.24539353051E+02 -0.48334295692E+01  0.42531965368E+02  0.49340753618E+02  0.00000000000E+00 0.  1.
         -2    1    1    2    0  502  0.24539353051E+02  0.48334295692E+01  0.10330301933E+03  0.10628760836E+03  0.00000000000E+00 0. -1.
<mgrwt>
<rscale>  2 0.25010835E+02</rscale>
<asrwt>0</asrwt>
<pdfrwt beam="1">  1       21 0.23189485E-01 0.25010835E+02</pdfrwt>
<pdfrwt beam="2">  1       21 0.75333683E-03 0.25010835E+02</pdfrwt>
<totfact> 0.74133238E+07</totfact>
</mgrwt>
</event>
<event>
 4    1  0.2677450E+004  0.2015985E+02  0.7546771E-02  0.1742168E+00
         21   -1    0    0  503  502  0.00000000000E+00  0.00000000000E+00  0.89798072743E+01  0.89798072743E+01  0.00000000000E+00 0.  1.
         21   -1    0    0  501  503 -0.00000000000E+00 -0.00000000000E+00 -0.46243359721E+02  0.46243359721E+02  0.00000000000E+00 0. -1.
          2    1    1    2  501    0  0.71284184461E+01 -0.18857500615E+02 -0.22659689521E+02  0.30329543488E+02  0.00000000000E+00 0. -1.
         -2    1    1    2    0  502 -0.71284184461E+01  0.18857500615E+02 -0.14603862925E+02  0.24893623507E+02  0.00000000000E+00 0.  1.
<mgrwt>
<rscale>  2 0.20159853E+02</rscale>
<asrwt>0</asrwt>
<pdfrwt beam="1">  1       21 0.13815089E-02 0.20159853E+02</pdfrwt>
<pdfrwt beam="2">  1       21 0.71143628E-02 0.20159853E+02</pdfrwt>
<totfact> 0.20519472E+08</totfact>
</mgrwt>
</event>
<event>
 4    1  0.2677450E+004  0.2626558E+02  0.7546771E-02  0.1643462E+00
         21   -1    0    0  503  502  0.00000000000E+00  0.00000000000E+00  0.63058066264E+02  0.63058066264E+02  0.00000000000E+00 0.  1.
         21   -1    0    0  501  503 -0.00000000000E+00 -0.00000000000E+00 -0.23791016604E+02  0.23791016604E+02  0.00000000000E+00 0. -1.
          2    1    1    2  501    0 -0.17689254771E+02  0.19415741560E+02 -0.12281166431E+02  0.28994961694E+02  0.00000000000E+00 0. -1.
         -2    1    1    2    0  502  0.17689254771E+02 -0.19415741560E+02  0.51548216091E+02  0.57854121175E+02  0.00000000000E+00 0.  1.
<mgrwt>
<rscale>  2 0.26265581E+02</rscale>
<asrwt>0</asrwt>
<pdfrwt beam="1">  1       21 0.97012409E-02 0.26265581E+02</pdfrwt>
<pdfrwt beam="2">  1       21 0.36601564E-02 0.26265581E+02</pdfrwt>
<totfact> 0.29578728E+07</totfact>
</mgrwt>
</event>
<event>
 4    1  0.2677450E+004  0.2009868E+02  0.7546771E-02  0.1743373E+00
         21   -1    0    0  501  502  0.00000000000E+00  0.00000000000E+00  0.37886700658E+01  0.37886700658E+01  0.00000000000E+00 0. -1.
         21   -1    0    0  502  503 -0.00000000000E+00 -0.00000000000E+00 -0.16924711299E+03  0.16924711299E+03  0.00000000000E+00 0.  1.
          2    1    1    2  501    0  0.11586219982E+02 -0.16423040809E+02 -0.30101026996E+02  0.36194317083E+02  0.00000000000E+00 0. -1.
         -2    1    1    2    0  503 -0.11586219982E+02  0.16423040809E+02 -0.13535741593E+03  0.13684146598E+03  0.00000000000E+00 0.  1.
<mgrwt>
<rscale>  2 0.20098676E+02</rscale>
<asrwt>0</asrwt>
<pdfrwt beam="1">  1       21 0.58287221E-03 0.20098676E+02</pdfrwt>
<pdfrwt beam="2">  1       21 0.26038022E-01 0.20098676E+02</pdfrwt>
<totfact> 0.83306637E+07</totfact>
</mgrwt>
</event>
<event>
 4    1  0.2677450E+004  0.2290287E+02  0.7546771E-02  0.1693089E+00
         21   -1    0    0  501  502  0.00000000000E+00  0.00000000000E+00  0.17258641068E+02  0.17258641068E+02  0.00000000000E+00 0.  1.
         21   -1    0    0  502  503 -0.00000000000E+00 -0.00000000000E+00 -0.88847247880E+02  0.88847247880E+02  0.00000000000E+00 0. -1.
          2    1    1    2  501    0  0.16004328990E+02 -0.16383009485E+02  0.72381009877E+01  0.24019401577E+02  0.00000000000E+00 0.  1.
         -2    1    1    2    0  503 -0.16004328990E+02  0.16383009485E+02 -0.78826707801E+02  0.82086487371E+02  0.00000000000E+00 0. -1.
<mgrwt>
<rscale>  2 0.22902872E+02</rscale>
<asrwt>0</asrwt>
<pdfrwt beam="1">  1       21 0.26551755E-02 0.22902872E+02</pdfrwt>
<pdfrwt beam="2">  1       21 0.13668807E-01 0.22902872E+02</pdfrwt>
<totfact> 0.26684545E+07</totfact>
</mgrwt>
</event>
<event>
 4    1  0.2677450E+004  0.2441456E+02  0.7546771E-02  0.1669556E+00
         21   -1    0    0  503  502  0.00000000000E+00  0.00000000000E+00  0.73249714390E+03  0.73249714390E+03  0.00000000000E+00 0.  1.
         21   -1    0    0  501  503 -0.00000000000E+00 -0.00000000000E+00 -0.92293175120E+00  0.92293175120E+00  0.00000000000E+00 0. -1.
          2    1    1    2  501    0  0.61231871436E+01 -0.23634237202E+02  0.23965948231E+03  0.24089985066E+03  0.00000000000E+00 0. -1.
         -2    1    1    2    0  502 -0.61231871436E+01  0.23634237202E+02  0.49191472984E+03  0.49252022499E+03  0.00000000000E+00 0.  1.
<mgrwt>
<rscale>  2 0.24414557E+02</rscale>
<asrwt>0</asrwt>
<pdfrwt beam="1">  1       21 0.11269140E+00 0.24414557E+02</pdfrwt>
<pdfrwt beam="2">  1       21 0.14199009E-03 0.24414557E+02</pdfrwt>
<totfact> 0.37422246E+07</totfact>
</mgrwt>
</event>
<event>
 4    1  0.2677450E+004  0.2494132E+02  0.7546771E-02  0.1661846E+00
         21   -1    0    0  501  502  0.00000000000E+00  0.00000000000E+00  0.29246979449E+02  0.29246979449E+02  0.00000000000E+00 0. -1.
         21   -1    0    0  502  503 -0.00000000000E+00 -0.00000000000E+00 -0.28185938099E+02  0.28185938099E+02  0.00000000000E+00 0.  1.
          2    1    1    2  501    0 -0.20651307074E+01  0.24855679631E+02  0.14755605620E+02  0.28979259342E+02  0.00000000000E+00 0. -1.
         -2    1    1    2    0  503  0.20651307074E+01 -0.24855679631E+02 -0.13694564270E+02  0.28453658206E+02  0.00000000000E+00 0.  1.
<mgrwt>
<rscale>  2 0.24941323E+02</rscale>
<asrwt>0</asrwt>
<pdfrwt beam="1">  1       21 0.44995353E-02 0.24941323E+02</pdfrwt>
<pdfrwt beam="2">  1       21 0.43362982E-02 0.24941323E+02</pdfrwt>
<totfact> 0.77716433E+07</totfact>
</mgrwt>
</event>
<event>
 4    1  0.2677450E+004  0.8964408E+02  0.7546771E-02  0.1303716E+00
         21   -1    0    0  503  502  0.00000000000E+00  0.00000000000E+00  0.17394653104E+03  0.17394653104E+03  0.00000000000E+00 0.  1.
         21   -1    0    0  501  503 -0.00000000000E+00 -0.00000000000E+00 -0.11785242677E+03  0.11785242677E+03  0.00000000000E+00 0. -1.
          2    1    1    2  501    0 -0.28295246056E+02 -0.85061387421E+02 -0.85716885897E+02  0.12403001696E+03  0.00000000000E+00 0. -1.
         -2    1    1    2    0  502  0.28295246056E+02  0.85061387421E+02  0.14181099017E+03  0.16776894085E+03  0.00000000000E+00 0.  1.
<mgrwt>
<rscale>  2 0.89644077E+02</rscale>
<asrwt>0</asrwt>
<pdfrwt beam="1">  1       21 0.26761005E-01 0.89644077E+02</pdfrwt>
<pdfrwt beam="2">  1       21 0.18131143E-01 0.89644077E+02</pdfrwt>
<totfact> 0.37415157E+05</totfact>
</mgrwt>
</event>
<event>
 4    1  0.2677450E+004  0.2274407E+02  0.7546771E-02  0.1695693E+00
         21   -1    0    0  501  502  0.00000000000E+00  0.00000000000E+00  0.34380720495E+03  0.34380720495E+03  0.00000000000E+00 0. -1.
         21   -1    0    0  502  503 -0.00000000000E+00 -0.00000000000E+00 -0.15909620799E+01  0.15909620799E+01  0.00000000000E+00 0.  1.
          2    1    1    2  501    0 -0.22378331503E+02 -0.40623995997E+01  0.21134442497E+03  0.21256471668E+03  0.00000000000E+00 0. -1.
         -2    1    1    2    0  503  0.22378331503E+02  0.40623995997E+01  0.13087181790E+03  0.13283345035E+03  0.00000000000E+00 0.  1.
<mgrwt>
<rscale>  2 0.22744072E+02</rscale>
<asrwt>0</asrwt>
<pdfrwt beam="1">  1       21 0.52893357E-01 0.22744072E+02</pdfrwt>
<pdfrwt beam="2">  1       21 0.24476367E-03 0.22744072E+02</pdfrwt>
<totfact> 0.81692280E+07</totfact>
</mgrwt>
</event>
<event>
 4    1  0.2677450E+004  0.2141389E+02  0.7546771E-02  0.1718590E+00
         21   -1    0    0  503  502  0.00000000000E+00  0.00000000000E+00  0.38255462109E+02  0.38255462109E+02  0.00000000000E+00 0.  1.
         21   -1    0    0  501  503 -0.00000000000E+00 -0.00000000000E+00 -0.19464303421E+02  0.19464303421E+02  0.00000000000E+00 0. -1.
          2    1    1    2  501    0 -0.18901129943E+02  0.10064895471E+02 -0.84922563219E+01  0.23036346313E+02  0.00000000000E+00 0. -1.
         -2    1    1    2    0  502  0.18901129943E+02 -0.10064895471E+02  0.27283415010E+02  0.34683419217E+02  0.00000000000E+00 0.  1.
<mgrwt>
<rscale>  2 0.21413893E+02</rscale>
<asrwt>0</asrwt>
<pdfrwt beam="1">  1       21 0.58854557E-02 0.21413893E+02</pdfrwt>
<pdfrwt beam="2">  1       21 0.29945082E-02 0.21413893E+02</pdfrwt>
<totfact> 0.86792001E+07</totfact>
</mgrwt>
</event>
<event>
 4    1  0.2677450E+004  0.2994657E+02  0.7546771E-02  0.1598680E+00
         21   -1    0    0  503  502  0.00000000000E+00  0.00000000000E+00  0.54889777727E+01  0.54889777727E+01  0.00000000000E+00 0. -1.
         21   -1    0    0  501  503 -0.00000000000E+00 -0.00000000000E+00 -0.16497806882E+03  0.16497806882E+03  0.00000000000E+00 0.  1.
          2    1    1    2  501    0 -0.25829893486E+02  0.15153008654E+02 -0.71359606523E+02  0.77388568354E+02  0.00000000000E+00 0. -1.
         -2    1    1    2    0  502  0.25829893486E+02 -0.15153008654E+02 -0.88129484526E+02  0.93078478241E+02  0.00000000000E+00 0.  1.
<mgrwt>
<rscale>  2 0.29946570E+02</rscale>
<asrwt>0</asrwt>
<pdfrwt beam="1">  1       21 0.84445810E-03 0.29946570E+02</pdfrwt>
<pdfrwt beam="2">  1       21 0.25381242E-01 0.29946570E+02</pdfrwt>
<totfact> 0.55400832E+07</totfact>
</mgrwt>
</event>
<event>
 4    1  0.2677450E+004  0.3547668E+02  0.7546771E-02  0.1544408E+00
         21   -1    0    0  501  502  0.00000000000E+00  0.00000000000E+00  0.40447092819E+01  0.40447092819E+01  0.00000000000E+00 0. -1.
         21   -1    0    0  502  503 -0.00000000000E+00 -0.00000000000E+00 -0.49278164815E+03  0.49278164815E+03  0.00000000000E+00 0.  1.
          2    1    1    2  501    0 -0.32436108064E+02  0.14369882845E+02 -0.93562513378E+02  0.10006267310E+03  0.00000000000E+00 0. -1.
         -2    1    1    2    0  503  0.32436108064E+02 -0.14369882845E+02 -0.39517442549E+03  0.39676368433E+03  0.00000000000E+00 0.  1.
<mgrwt>
<rscale>  2 0.35476677E+02</rscale>
<asrwt>0</asrwt>
<pdfrwt beam="1">  1       21 0.62226316E-03 0.35476677E+02</pdfrwt>
<pdfrwt beam="2">  1       21 0.75812537E-01 0.35476677E+02</pdfrwt>
<totfact> 0.10768070E+07</totfact>
</mgrwt>
</event>
<event>
 4    1  0.2677450E+004  0.3466235E+02  0.7546771E-02  0.1551620E+00
         21   -1    0    0  503  502  0.00000000000E+00  0.00000000000E+00  0.10565720362E+03  0.10565720362E+03  0.00000000000E+00 0. -1.
         21   -1    0    0  501  503 -0.00000000000E+00 -0.00000000000E+00 -0.13619045999E+02  0.13619045999E+02  0.00000000000E+00 0.  1.
          2    1    1    2  501    0  0.13014136025E+02  0.32126478857E+02  0.21791655556E+02  0.40943309980E+02  0.00000000000E+00 0.  1.
         -2    1    1    2    0  502 -0.13014136025E+02 -0.32126478857E+02  0.70246502066E+02  0.78332939640E+02  0.00000000000E+00 0. -1.
<mgrwt>
<rscale>  2 0.34662348E+02</rscale>
<asrwt>0</asrwt>
<pdfrwt beam="1">  1       21 0.16254954E-01 0.34662348E+02</pdfrwt>
<pdfrwt beam="2">  1       21 0.20952379E-02 0.34662348E+02</pdfrwt>
<totfact> 0.31217940E+07</totfact>
</mgrwt>
</event>
<event>
 4    1  0.2677450E+004  0.2513277E+02  0.7546771E-02  0.1659102E+00
         21   -1    0    0  503  502  0.00000000000E+00  0.00000000000E+00  0.23698120302E+02  0.23698120302E+02  0.00000000000E+00 0. -1.
         21   -1    0    0  501  503 -0.00000000000E+00 -0.00000000000E+00 -0.27120207177E+02  0.27120207177E+02  0.00000000000E+00 0.  1.
          2    1    1    2  501    0 -0.14927420067E+02 -0.20219496595E+02 -0.50415568220E+01  0.25633439246E+02  0.00000000000E+00 0. -1.
         -2    1    1    2    0  502  0.14927420067E+02  0.20219496595E+02  0.16194699472E+01  0.25184888233E+02  0.00000000000E+00 0.  1.
<mgrwt>
<rscale>  2 0.25132766E+02</rscale>
<asrwt>0</asrwt>
<pdfrwt beam="1">  1       21 0.36458647E-02 0.25132766E+02</pdfrwt>
<pdfrwt beam="2">  1       21 0.41723396E-02 0.25132766E+02</pdfrwt>
<totfact> 0.11546827E+08</totfact>
</mgrwt>
</event>
<event>
 4    1  0.2677450E+004  0.2328515E+02  0.7546771E-02  0.1686929E+00
         21   -1    0    0  501  502  0.00000000000E+00  0.00000000000E+00  0.37634427419E+01  0.37634427419E+01  0.00000000000E+00 0.  1.
         21   -1    0    0  502  503 -0.00000000000E+00 -0.00000000000E+00 -0.16417682808E+03  0.16417682808E+03  0.00000000000E+00 0. -1.
          2    1    1    2  501    0 -0.22772983712E+01  0.23173525157E+02 -0.50820513969E+02  0.55901010689E+02  0.00000000000E+00 0.  1.
         -2    1    1    2    0  503  0.22772983712E+01 -0.23173525157E+02 -0.10959287137E+03  0.11203926013E+03  0.00000000000E+00 0. -1.
<mgrwt>
<rscale>  2 0.23285153E+02</rscale>
<asrwt>0</asrwt>
<pdfrwt beam="1">  1       21 0.57899110E-03 0.23285153E+02</pdfrwt>
<pdfrwt beam="2">  1       21 0.25257977E-01 0.23285153E+02</pdfrwt>
<totfact> 0.92462917E+07</totfact>
</mgrwt>
</event>
<event>
 4    1  0.2677450E+004  0.2464948E+02  0.7546771E-02  0.1666088E+00
         21   -1    0    0  503  502  0.00000000000E+00  0.00000000000E+00  0.10239655553E+02  0.10239655553E+02  0.00000000000E+00 0.  1.
         21   -1    0    0  501  503 -0.00000000000E+00 -0.00000000000E+00 -0.64198081166E+02  0.64198081166E+02  0.00000000000E+00 0. -1.
          2    1    1    2  501    0 -0.18826399176E+02 -0.15911112096E+02 -0.37220177344E+02  0.44642338599E+02  0.00000000000E+00 0. -1.
         -2    1    1    2    0  502  0.18826399176E+02  0.15911112096E+02 -0.16738248269E+02  0.29795398121E+02  0.00000000000E+00 0.  1.
<mgrwt>
<rscale>  2 0.24649479E+02</rscale>
<asrwt>0</asrwt>
<pdfrwt beam="1">  1       21 0.15753316E-02 0.24649479E+02</pdfrwt>
<pdfrwt beam="2">  1       21 0.98766280E-02 0.24649479E+02</pdfrwt>
<totfact> 0.10451409E+08</totfact>
</mgrwt>
</event>
<event>
 4    1  0.2677450E+004  0.2217370E+02  0.7546771E-02  0.1705265E+00
         21   -1    0    0  503  502  0.00000000000E+00  0.00000000000E+00  0.24354037199E+02  0.24354037199E+02  0.00000000000E+00 0.  1.
         21   -1    0    0  501  503 -0.00000000000E+00 -0.00000000000E+00 -0.20314408199E+02  0.20314408199E+02  0.00000000000E+00 0. -1.
          2    1    1    2  501    0 -0.21895205648E+02 -0.35032702948E+01  0.26191990040E+00  0.22175246000E+02  0.00000000000E+00 0. -1.
         -2    1    1    2    0  502  0.21895205648E+02  0.35032702948E+01  0.37777091000E+01  0.22493199398E+02  0.00000000000E+00 0.  1.
<mgrwt>
<rscale>  2 0.22173699E+02</rscale>
<asrwt>0</asrwt>
<pdfrwt beam="1">  1       21 0.37467750E-02 0.22173699E+02</pdfrwt>
<pdfrwt beam="2">  1       21 0.31252936E-02 0.22173699E+02</pdfrwt>
<totfact> 0.16780465E+08</totfact>
</mgrwt>
</event>
<event>
 4    1  0.2677450E+004  0.3806519E+02  0.7546771E-02  0.1522952E+00
         21   -1    0    0  503  502  0.00000000000E+00  0.00000000000E+00  0.18086944755E+03  0.18086944755E+03  0.00000000000E+00 0.  1.
         21   -1    0    0  501  503 -0.00000000000E+00 -0.00000000000E+00 -0.83427414433E+01  0.83427414433E+01  0.00000000000E+00 0. -1.
          2    1    1    2  501    0  0.35970028257E+02 -0.12454544016E+02  0.67400130541E+02  0.77406305921E+02  0.00000000000E+00 0.  1.
         -2    1    1    2    0  502 -0.35970028257E+02  0.12454544016E+02  0.10512657557E+03  0.11180588308E+03  0.00000000000E+00 0. -1.
<mgrwt>
<rscale>  2 0.38065189E+02</rscale>
<asrwt>0</asrwt>
<pdfrwt beam="1">  1       21 0.27826066E-01 0.38065189E+02</pdfrwt>
<pdfrwt beam="2">  1       21 0.12834988E-02 0.38065189E+02</pdfrwt>
<totfact> 0.25914877E+07</totfact>
</mgrwt>
</event>
<event>
 4    1  0.2677450E+004  0.2121404E+02  0.7546771E-02  0.1722210E+00
         21   -1    0    0  501  502  0.00000000000E+00  0.00000000000E+00  0.14488748931E+02  0.14488748931E+02  0.00000000000E+00 0. -1.
         21   -1    0    0  502  503 -0.00000000000E+00 -0.00000000000E+00 -0.87794147003E+02  0.87794147003E+02  0.00000000000E+00 0.  1.
          2    1    1    2  501    0  0.14975271583E+01  0.21161115956E+02  0.44583514042E+01  0.21677460952E+02  0.00000000000E+00 0. -1.
         -2    1    1    2    0  503 -0.14975271583E+01 -0.21161115956E+02 -0.77763749476E+02  0.80605434982E+02  0.00000000000E+00 0.  1.
<mgrwt>
<rscale>  2 0.21214038E+02</rscale>
<asrwt>0</asrwt>
<pdfrwt beam="1">  1       21 0.22290383E-02 0.21214038E+02</pdfrwt>
<pdfrwt beam="2">  1       21 0.13506792E-01 0.21214038E+02</pdfrwt>
<totfact> 0.35010368E+07</totfact>
</mgrwt>
</event>
<event>
 4    1  0.2677450E+004  0.2091935E+02  0.7546771E-02  0.1727640E+00
         21   -1    0    0  503  502  0.00000000000E+00  0.00000000000E+00  0.30877316553E+01  0.30877316553E+01  0.00000000000E+00 0.  1.
         21   -1    0    0  501  503 -0.00000000000E+00 -0.00000000000E+00 -0.15750719391E+03  0.15750719391E+03  0.00000000000E+00 0. -1.
          2    1    1    2  501    0 -0.18921178806E+02  0.89223317723E+01 -0.10262470492E+03  0.10473513771E+03  0.00000000000E+00 0.  1.
         -2    1    1    2    0  502  0.18921178806E+02 -0.89223317723E+01 -0.51794757336E+02  0.55859787855E+02  0.00000000000E+00 0. -1.
<mgrwt>
<rscale>  2 0.20919345E+02</rscale>
<asrwt>0</asrwt>
<pdfrwt beam="1">  1       21 0.47503571E-03 0.20919345E+02</pdfrwt>
<pdfrwt beam="2">  1       21 0.24231872E-01 0.20919345E+02</pdfrwt>
<totfact> 0.12933890E+08</totfact>
</mgrwt>
</event>
<event>
 4    1  0.2677450E+004  0.2547784E+02  0.7546771E-02  0.1654232E+00
         21   -1    0    0  501  502  0.00000000000E+00  0.00000000000E+00  0.68457699674E+01  0.68457699674E+01  0.00000000000E+00 0. -1.
         21   -1    0    0  502  503 -0.00000000000E+00 -0.00000000000E+00 -0.21085928068E+03  0.21085928068E+03  0.00000000000E+00 0.  1.
          2    1    1    2  501    0  0.25428197556E+02  0.15896444290E+01 -0.21256577174E+02  0.33180751552E+02  0.00000000000E+00 0. -1.
         -2    1    1    2    0  503 -0.25428197556E+02 -0.15896444290E+01 -0.18275693354E+03  0.18452429910E+03  0.00000000000E+00 0.  1.
<mgrwt>
<rscale>  2 0.25477837E+02</rscale>
<asrwt>0</asrwt>
<pdfrwt beam="1">  1       21 0.10531953E-02 0.25477837E+02</pdfrwt>
<pdfrwt beam="2">  1       21 0.32439893E-01 0.25477837E+02</pdfrwt>
<totfact> 0.24523101E+07</totfact>
</mgrwt>
</event>
<event>
 4    1  0.2677450E+004  0.2045866E+02  0.7546771E-02  0.1736358E+00
         21   -1    0    0  501  502  0.00000000000E+00  0.00000000000E+00  0.28498321985E+02  0.28498321985E+02  0.00000000000E+00 0.  1.
         21   -1    0    0  502  503 -0.00000000000E+00 -0.00000000000E+00 -0.22090788185E+02  0.22090788185E+02  0.00000000000E+00 0. -1.
          2    1    1    2  501    0  0.20442762065E+02  0.80625927684E+00  0.17847326591E+02  0.27149284361E+02  0.00000000000E+00 0.  1.
         -2    1    1    2    0  503 -0.20442762065E+02 -0.80625927684E+00 -0.11439792790E+02  0.23439825809E+02  0.00000000000E+00 0. -1.
<mgrwt>
<rscale>  2 0.20458655E+02</rscale>
<asrwt>0</asrwt>
<pdfrwt beam="1">  1       21 0.43843572E-02 0.20458655E+02</pdfrwt>
<pdfrwt beam="2">  1       21 0.33985828E-02 0.20458655E+02</pdfrwt>
<totfact> 0.11223420E+08</totfact>
</mgrwt>
</event>
<event>
 4    1  0.2677450E+004  0.3109930E+02  0.7546771E-02  0.1586246E+00
         21   -1    0    0  503  502  0.00000000000E+00  0.00000000000E+00  0.24017314880E+03  0.24017314880E+03  0.00000000000E+00 0. -1.
         21   -1    0    0  501  503 -0.00000000000E+00 -0.00000000000E+00 -0.47852885682E+01  0.47852885682E+01  0.00000000000E+00 0.  1.
          2    1    1    2  501    0  0.26106574154E+02 -0.16900104234E+02  0.68936797849E+02  0.75627037723E+02  0.00000000000E+00 0.  1.
         -2    1    1    2    0  502 -0.26106574154E+02  0.16900104234E+02  0.16645106238E+03  0.16933139964E+03  0.00000000000E+00 0. -1.
<mgrwt>
<rscale>  2 0.31099304E+02</rscale>
<asrwt>0</asrwt>
<pdfrwt beam="1">  1       21 0.36949706E-01 0.31099304E+02</pdfrwt>
<pdfrwt beam="2">  1       21 0.73619843E-03 0.31099304E+02</pdfrwt>
<totfact> 0.34321243E+07</totfact>
</mgrwt>
</event>
<event>
 4    1  0.2677450E+004  0.2008962E+02  0.7546771E-02  0.1743552E+00
         21   -1    0    0  501  502  0.00000000000E+00  0.00000000000E+00  0.46678610628E+03  0.46678610628E+03  0.00000000000E+00 0.  1.
         21   -1    0    0  502  503 -0.00000000000E+00 -0.00000000000E+00 -0.16572327673E+01  0.16572327673E+01  0.00000000000E+00 0. -1.
          2    1    1    2  501    0  0.36002846707E+01 -0.19764377067E+02  0.39454608748E+03  0.39505722091E+03  0.00000000000E+00 0.  1.
         -2    1    1    2    0  503 -0.36002846707E+01  0.19764377067E+02  0.70582786035E+02  0.73386118136E+02  0.00000000000E+00 0. -1.
<mgrwt>
<rscale>  2 0.20089615E+02</rscale>
<asrwt>0</asrwt>
<pdfrwt beam="1">  1       21 0.71813142E-01 0.20089615E+02</pdfrwt>
<pdfrwt beam="2">  1       21 0.25495926E-03 0.20089615E+02</pdfrwt>
<totfact> 0.40509100E+07</totfact>
</mgrwt>
</event>
<event>
 4    1  0.2677450E+004  0.2016214E+02  0.7546771E-02  0.1742123E+00
         21   -1    0    0  503  502  0.00000000000E+00  0.00000000000E+00  0.23810455796E+03  0.23810455796E+03  0.00000000000E+00 0. -1.
         21   -1    0    0  501  503 -0.00000000000E+00 -0.00000000000E+00 -0.21055753390E+01  0.21055753390E+01  0.00000000000E+00 0.  1.
          2    1    1    2  501    0  0.20160790847E+02 -0.23311681508E+00  0.65762640371E+02  0.68783985779E+02  0.00000000000E+00 0.  1.
         -2    1    1    2    0  502 -0.20160790847E+02  0.23311681508E+00  0.17023634225E+03  0.17142614752E+03  0.00000000000E+00 0. -1.
<mgrwt>
<rscale>  2 0.20162139E+02</rscale>
<asrwt>0</asrwt>
<pdfrwt beam="1">  1       21 0.36631449E-01 0.20162139E+02</pdfrwt>
<pdfrwt beam="2">  1       21 0.32393486E-03 0.20162139E+02</pdfrwt>
<totfact> 0.10600005E+08</totfact>
</mgrwt>
</event>
<event>
 4    1  0.2677450E+004  0.2220467E+02  0.7546771E-02  0.1704736E+00
         21   -1    0    0  501  502  0.00000000000E+00  0.00000000000E+00  0.13847497706E+02  0.13847497706E+02  0.00000000000E+00 0.  1.
         21   -1    0    0  502  503 -0.00000000000E+00 -0.00000000000E+00 -0.69620856979E+02  0.69620856979E+02  0.00000000000E+00 0. -1.
          2    1    1    2  501    0  0.22062089641E+02 -0.25122907287E+01  0.12848727963E+01  0.22241814273E+02  0.00000000000E+00 0.  1.
         -2    1    1    2    0  503 -0.22062089641E+02  0.25122907287E+01 -0.57058232070E+02  0.61226540413E+02  0.00000000000E+00 0. -1.
<mgrwt>
<rscale>  2 0.22204671E+02</rscale>
<asrwt>0</asrwt>
<pdfrwt beam="1">  1       21 0.21303843E-02 0.22204671E+02</pdfrwt>
<pdfrwt beam="2">  1       21 0.10710901E-01 0.22204671E+02</pdfrwt>
<totfact> 0.55943183E+07</totfact>
</mgrwt>
</event>
<event>
 4    1  0.2677450E+004  0.2423289E+02  0.7546771E-02  0.1672271E+00
         21   -1    0    0  503  502  0.00000000000E+00  0.00000000000E+00  0.86293645381E+03  0.86293645381E+03  0.00000000000E+00 0.  1.
         21   -1    0    0  501  503 -0.00000000000E+00 -0.00000000000E+00 -0.90904217488E+00  0.90904217488E+00  0.00000000000E+00 0. -1.
          2    1    1    2  501    0 -0.22697355422E+02 -0.84889799148E+01  0.21444668541E+03  0.21581152334E+03  0.00000000000E+00 0.  1.
         -2    1    1    2    0  502  0.22697355422E+02  0.84889799148E+01  0.64758072623E+03  0.64803397264E+03  0.00000000000E+00 0. -1.
<mgrwt>
<rscale>  2 0.24232885E+02</rscale>
<asrwt>0</asrwt>
<pdfrwt beam="1">  1       21 0.13275880E+00 0.24232885E+02</pdfrwt>
<pdfrwt beam="2">  1       21 0.13985333E-03 0.24232885E+02</pdfrwt>
<totfact> 0.26285799E+07</totfact>
</mgrwt>
</event>
<event>
 4    1  0.2677450E+004  0.2345247E+02  0.7546771E-02  0.1684279E+00
         21   -1    0    0  503  502  0.00000000000E+00  0.00000000000E+00  0.91108541278E+02  0.91108541278E+02  0.00000000000E+00 0.  1.
         21   -1    0    0  501  503 -0.00000000000E+00 -0.00000000000E+00 -0.17862159443E+02  0.17862159443E+02  0.00000000000E+00 0. -1.
          2    1    1    2  501    0 -0.17761857715E+02  0.15314526500E+02 -0.77087827160E+01  0.24686912370E+02  0.00000000000E+00 0. -1.
         -2    1    1    2    0  502  0.17761857715E+02 -0.15314526500E+02  0.80955164551E+02  0.84283788352E+02  0.00000000000E+00 0.  1.
<mgrwt>
<rscale>  2 0.23452469E+02</rscale>
<asrwt>0</asrwt>
<pdfrwt beam="1">  1       21 0.14016698E-01 0.23452469E+02</pdfrwt>
<pdfrwt beam="2">  1       21 0.27480246E-02 0.23452469E+02</pdfrwt>
<totfact> 0.24378354E+07</totfact>
</mgrwt>
</event>
<event>
 4    1  0.2677450E+004  0.3600292E+02  0.7546771E-02  0.1539871E+00
         21   -1    0    0  501  502  0.00000000000E+00  0.00000000000E+00  0.56710242172E+02  0.56710242172E+02  0.00000000000E+00 0. -1.
         21   -1    0    0  502  503 -0.00000000000E+00 -0.00000000000E+00 -0.84318386333E+02  0.84318386333E+02  0.00000000000E+00 0.  1.
          2    1    1    2  501    0  0.26661873840E+02 -0.24194100623E+02  0.46398953153E+02  0.58728807883E+02  0.00000000000E+00 0. -1.
         -2    1    1    2    0  503 -0.26661873840E+02  0.24194100623E+02 -0.74007097313E+02  0.82299820622E+02  0.00000000000E+00 0.  1.
<mgrwt>
<rscale>  2 0.36002917E+02</rscale>
<asrwt>0</asrwt>
<pdfrwt beam="1">  1       21 0.87246527E-02 0.36002917E+02</pdfrwt>
<pdfrwt beam="2">  1       21 0.12972059E-01 0.36002917E+02</pdfrwt>
<totfact> 0.46758343E+06</totfact>
</mgrwt>
</event>
<event>
 4    1  0.2677450E+004  0.3413891E+02  0.7546771E-02  0.1556383E+00
         21   -1    0    0  501  502  0.00000000000E+00  0.00000000000E+00  0.17777219739E+02  0.17777219739E+02  0.00000000000E+00 0. -1.
         21   -1    0    0  502  503 -0.00000000000E+00 -0.00000000000E+00 -0.49055643903E+03  0.49055643903E+03  0.00000000000E+00 0.  1.
          2    1    1    2  501    0 -0.10214850248E+02 -0.32574872093E+02  0.18453975299E+00  0.34139412888E+02  0.00000000000E+00 0. -1.
         -2    1    1    2    0  503  0.10214850248E+02  0.32574872093E+02 -0.47296375905E+03  0.47419424588E+03  0.00000000000E+00 0.  1.
<mgrwt>
<rscale>  2 0.34138914E+02</rscale>
<asrwt>0</asrwt>
<pdfrwt beam="1">  1       21 0.27349566E-02 0.34138914E+02</pdfrwt>
<pdfrwt beam="2">  1       21 0.75470228E-01 0.34138914E+02</pdfrwt>
<totfact> 0.11140508E+06</totfact>
</mgrwt>
</event>
<event>
 4    1  0.2677450E+004  0.2294928E+02  0.7546771E-02  0.1692334E+00
         21   -1    0    0  503  502  0.00000000000E+00  0.00000000000E+00  0.19503694322E+03  0.19503694322E+03  0.00000000000E+00 0. -1.
         21   -1    0    0  501  503 -0.00000000000E+00 -0.00000000000E+00 -0.39998803281E+01  0.39998803281E+01  0.00000000000E+00 0.  1.
          2    1    1    2  501    0 -0.57118304465E+00  0.22942173779E+02  0.38793885335E+02  0.45073663343E+02  0.00000000000E+00 0.  1.
         -2    1    1    2    0  502  0.57118304465E+00 -0.22942173779E+02  0.15224317755E+03  0.15396316020E+03  0.00000000000E+00 0. -1.
<mgrwt>
<rscale>  2 0.22949283E+02</rscale>
<asrwt>0</asrwt>
<pdfrwt beam="1">  1       21 0.30005676E-01 0.22949283E+02</pdfrwt>
<pdfrwt beam="2">  1       21 0.61536636E-03 0.22949283E+02</pdfrwt>
<totfact> 0.61704075E+07</totfact>
</mgrwt>
</event>
<event>
 4    1  0.2677450E+004  0.2262316E+02  0.7546771E-02  0.1697692E+00
         21   -1    0    0  501  502  0.00000000000E+00  0.00000000000E+00  0.19096657114E+01  0.19096657114E+01  0.00000000000E+00 0.  1.
         21   -1    0    0  502  503 -0.00000000000E+00 -0.00000000000E+00 -0.27436901207E+03  0.27436901207E+03  0.00000000000E+00 0. -1.
          2    1    1    2  501    0  0.22128094149E+02 -0.47068840345E+01 -0.15726183877E+03  0.15888075164E+03  0.00000000000E+00 0. -1.
         -2    1    1    2    0  503 -0.22128094149E+02  0.47068840345E+01 -0.11519750759E+03  0.11739792614E+03  0.00000000000E+00 0.  1.
<mgrwt>
<rscale>  2 0.22623159E+02</rscale>
<asrwt>0</asrwt>
<pdfrwt beam="1">  1       21 0.29379485E-03 0.22623159E+02</pdfrwt>
<pdfrwt beam="2">  1       21 0.42210599E-01 0.22623159E+02</pdfrwt>
<totfact> 0.96650462E+07</totfact>
</mgrwt>
</event>
<event>
 4    1  0.2677450E+004  0.2079354E+02  0.7546771E-02  0.1729993E+00
         21   -1    0    0  503  502  0.00000000000E+00  0.00000000000E+00  0.77293314383E+01  0.77293314383E+01  0.00000000000E+00 0.  1.
         21   -1    0    0  501  503 -0.00000000000E+00 -0.00000000000E+00 -0.11407607501E+03  0.11407607501E+03  0.00000000000E+00 0. -1.
          2    1    1    2  501    0 -0.14636713150E+02  0.14769486958E+02 -0.96651000704E+02  0.98862465344E+02  0.00000000000E+00 0. -1.
         -2    1    1    2    0  502  0.14636713150E+02 -0.14769486958E+02 -0.96957428716E+01  0.22942941108E+02  0.00000000000E+00 0.  1.
<mgrwt>
<rscale>  2 0.20793535E+02</rscale>
<asrwt>0</asrwt>
<pdfrwt beam="1">  1       21 0.11891278E-02 0.20793535E+02</pdfrwt>
<pdfrwt beam="2">  1       21 0.17550167E-01 0.20793535E+02</pdfrwt>
<totfact> 0.57971433E+07</totfact>
</mgrwt>
</event>
<event>
 4    1  0.2677450E+004  0.2997265E+02  0.7546771E-02  0.1598391E+00
         21   -1    0    0  503  502  0.00000000000E+00  0.00000000000E+00  0.51788323954E+01  0.51788323954E+01  0.00000000000E+00 0. -1.
         21   -1    0    0  501  503 -0.00000000000E+00 -0.00000000000E+00 -0.21243915395E+03  0.21243915395E+03  0.00000000000E+00 0.  1.
          2    1    1    2  501    0  0.17120955766E+02 -0.24601473598E+02 -0.15023396492E+03  0.15319465997E+03  0.00000000000E+00 0.  1.
         -2    1    1    2    0  502 -0.17120955766E+02  0.24601473598E+02 -0.57026356638E+02  0.64423326373E+02  0.00000000000E+00 0. -1.
<mgrwt>
<rscale>  2 0.29972648E+02</rscale>
<asrwt>0</asrwt>
<pdfrwt beam="1">  1       21 0.79674350E-03 0.29972648E+02</pdfrwt>
<pdfrwt beam="2">  1       21 0.32682945E-01 0.29972648E+02</pdfrwt>
<totfact> 0.38072454E+07</totfact>
</mgrwt>
</event>
<event>
 4    1  0.2677450E+004  0.2129287E+02  0.7546771E-02  0.1720776E+00
         21   -1    0    0  501  502  0.00000000000E+00  0.00000000000E+00  0.24669915651E+02  0.24669915651E+02  0.00000000000E+00 0.  1.
         21   -1    0    0  502  503 -0.00000000000E+00 -0.00000000000E+00 -0.82747463993E+02  0.82747463993E+02  0.00000000000E+00 0. -1.
          2    1    1    2  501    0  0.11910190555E+02 -0.17650319848E+02  0.18331596863E+02  0.28096865899E+02  0.00000000000E+00 0.  1.
         -2    1    1    2    0  503 -0.11910190555E+02  0.17650319848E+02 -0.76409145204E+02  0.79320513744E+02  0.00000000000E+00 0. -1.
<mgrwt>
<rscale>  2 0.21292873E+02</rscale>
<asrwt>0</asrwt>
<pdfrwt beam="1">  1       21 0.37953716E-02 0.21292873E+02</pdfrwt>
<pdfrwt beam="2">  1       21 0.12730379E-01 0.21292873E+02</pdfrwt>
<totfact> 0.16954839E+07</totfact>
</mgrwt>
</event>
<event>
 4    1  0.2677450E+004  0.4808749E+02  0.7546771E-02  0.1455939E+00
         21   -1    0    0  501  502  0.00000000000E+00  0.00000000000E+00  0.22306178505E+01  0.22306178505E+01  0.00000000000E+00 0. -1.
         21   -1    0    0  502  503 -0.00000000000E+00 -0.00000000000E+00 -0.20882040379E+04  0.20882040379E+04  0.00000000000E+00 0.  1.
          2    1    1    2  501    0  0.31133014116E+02 -0.36648900601E+02 -0.30127940722E+03  0.30509291650E+03  0.00000000000E+00 0. -1.
         -2    1    1    2    0  503 -0.31133014116E+02  0.36648900601E+02 -0.17846940129E+04  0.17853417393E+04  0.00000000000E+00 0.  1.
<mgrwt>
<rscale>  2 0.48087488E+02</rscale>
<asrwt>0</asrwt>
<pdfrwt beam="1">  1       21 0.34317292E-03 0.48087488E+02</pdfrwt>
<pdfrwt beam="2">  1       21 0.32126128E+00 0.48087488E+02</pdfrwt>
<totfact> 0.60484310E+05</totfact>
</mgrwt>
</event>
<event>
 4    1  0.2677450E+004  0.2367875E+02  0.7546771E-02  0.1680738E+00
         21   -1    0    0  501  502  0.00000000000E+00  0.00000000000E+00  0.85778102143E+02  0.85778102143E+02  0.00000000000E+00 0.  1.
         21   -1    0    0  502  503 -0.00000000000E+00 -0.00000000000E+00 -0.69043041455E+01  0.69043041455E+01  0.00000000000E+00 0. -1.
          2    1    1    2  501    0  0.10960348012E+02 -0.20989374560E+02  0.50133688567E+02  0.55444294587E+02  0.00000000000E+00 0. -1.
         -2    1    1    2    0  503 -0.10960348012E+02  0.20989374560E+02  0.28740109431E+02  0.37238111701E+02  0.00000000000E+00 0.  1.
<mgrwt>
<rscale>  2 0.23678747E+02</rscale>
<asrwt>0</asrwt>
<pdfrwt beam="1">  1       21 0.13196630E-01 0.23678747E+02</pdfrwt>
<pdfrwt beam="2">  1       21 0.10622007E-02 0.23678747E+02</pdfrwt>
<totfact> 0.11568789E+08</totfact>
</mgrwt>
</event>
<event>
 4    1  0.2677450E+004  0.3254979E+02  0.7546771E-02  0.1571502E+00
         21   -1    0    0  503  502  0.00000000000E+00  0.00000000000E+00  0.44365631282E+02  0.44365631282E+02  0.00000000000E+00 0.  1.
         21   -1    0    0  501  503 -0.00000000000E+00 -0.00000000000E+00 -0.61397414867E+02  0.61397414867E+02  0.00000000000E+00 0. -1.
          2    1    1    2  501    0  0.25588971461E+02  0.20116994674E+02 -0.49853034289E+02  0.59538340277E+02  0.00000000000E+00 0. -1.
         -2    1    1    2    0  502 -0.25588971461E+02 -0.20116994674E+02  0.32821250703E+02  0.46224705871E+02  0.00000000000E+00 0.  1.
<mgrwt>
<rscale>  2 0.32549792E+02</rscale>
<asrwt>0</asrwt>
<pdfrwt beam="1">  1       21 0.68254818E-02 0.32549792E+02</pdfrwt>
<pdfrwt beam="2">  1       21 0.94457561E-02 0.32549792E+02</pdfrwt>
<totfact> 0.11829795E+07</totfact>
</mgrwt>
</event>
<event>
 4    1  0.2677450E+004  0.2132232E+02  0.7546771E-02  0.1720243E+00
         21   -1    0    0  501  502  0.00000000000E+00  0.00000000000E+00  0.33420194535E+02  0.33420194535E+02  0.00000000000E+00 0. -1.
         21   -1    0    0  502  503 -0.00000000000E+00 -0.00000000000E+00 -0.23032026063E+02  0.23032026063E+02  0.00000000000E+00 0.  1.
          2    1    1    2  501    0  0.19848440073E+02  0.77897900330E+01  0.23253351357E+02  0.31549322519E+02  0.00000000000E+00 0. -1.
         -2    1    1    2    0  503 -0.19848440073E+02 -0.77897900330E+01 -0.12865182885E+02  0.24902898079E+02  0.00000000000E+00 0.  1.
<mgrwt>
<rscale>  2 0.21322322E+02</rscale>
<asrwt>0</asrwt>
<pdfrwt beam="1">  1       21 0.51415684E-02 0.21322322E+02</pdfrwt>
<pdfrwt beam="2">  1       21 0.35433886E-02 0.21322322E+02</pdfrwt>
<totfact> 0.82726562E+07</totfact>
</mgrwt>
</event>
<event>
 4    1  0.2677450E+004  0.3096657E+02  0.7546771E-02  0.1587644E+00
         21   -1    0    0  503  502  0.00000000000E+00  0.00000000000E+00  0.51071840550E+01  0.51071840550E+01  0.00000000000E+00 0.  1.
         21   -1    0    0  501  503 -0.00000000000E+00 -0.00000000000E+00 -0.23503496407E+03  0.23503496407E+03  0.00000000000E+00 0. -1.
          2    1    1    2  501    0 -0.13796388560E+02 -0.27723423748E+02 -0.16881373404E+03  0.17163043251E+03  0.00000000000E+00 0. -1.
         -2    1    1    2    0  502  0.13796388560E+02  0.27723423748E+02 -0.61114045972E+02  0.68511715616E+02  0.00000000000E+00 0.  1.
<mgrwt>
<rscale>  2 0.30966572E+02</rscale>
<asrwt>0</asrwt>
<pdfrwt beam="1">  1       21 0.78572060E-03 0.30966572E+02</pdfrwt>
<pdfrwt beam="2">  1       21 0.36159226E-01 0.30966572E+02</pdfrwt>
<totfact> 0.32385511E+07</totfact>
</mgrwt>
</event>
<event>
 4    1  0.2677450E+004  0.2793080E+02  0.7546771E-02  0.1622156E+00
         21   -1    0    0  501  502  0.00000000000E+00  0.00000000000E+00  0.72396741360E+02  0.72396741360E+02  0.00000000000E+00 0.  1.
         21   -1    0    0  502  503 -0.00000000000E+00 -0.00000000000E+00 -0.19407432095E+02  0.19407432095E+02  0.00000000000E+00 0. -1.
          2    1    1    2  501    0 -0.16774300134E+02 -0.22332765104E+02  0.57106956421E+02  0.63571487429E+02  0.00000000000E+00 0.  1.
         -2    1    1    2    0  503  0.16774300134E+02  0.22332765104E+02 -0.41176471566E+01  0.28232686027E+02  0.00000000000E+00 0. -1.
<mgrwt>
<rscale>  2 0.27930799E+02</rscale>
<asrwt>0</asrwt>
<pdfrwt beam="1">  1       21 0.11137960E-01 0.27930799E+02</pdfrwt>
<pdfrwt beam="2">  1       21 0.29857588E-02 0.27930799E+02</pdfrwt>
<totfact> 0.32792486E+07</totfact>
</mgrwt>
</event>
<event>
 4    1  0.2677450E+004  0.2458423E+02  0.7546771E-02  0.1667047E+00
         21   -1    0    0  503  502  0.00000000000E+00  0.00000000000E+00  0.47895387118E+03  0.47895387118E+03  0.00000000000E+00 0. -1.
         21   -1    0    0  501  503 -0.00000000000E+00 -0.00000000000E+00 -0.22417189741E+01  0.22417189741E+01  0.00000000000E+00 0.  1.
          2    1    1    2  501    0  0.17972955919E+02 -0.16773699020E+02  0.79289997196E+02  0.83013780655E+02  0.00000000000E+00 0.  1.
         -2    1    1    2    0  502 -0.17972955919E+02  0.16773699020E+02  0.39742215501E+03  0.39818180950E+03  0.00000000000E+00 0. -1.
<mgrwt>
<rscale>  2 0.24584225E+02</rscale>
<asrwt>0</asrwt>
<pdfrwt beam="1">  1       21 0.73685130E-01 0.24584225E+02</pdfrwt>
<pdfrwt beam="2">  1       21 0.34488022E-03 0.24584225E+02</pdfrwt>
<totfact> 0.25860259E+07</totfact>
</mgrwt>
</event>
<event>
 4    1  0.2677450E+004  0.2846511E+02  0.7546771E-02  0.1615702E+00
         21   -1    0    0  501  502  0.00000000000E+00  0.00000000000E+00  0.29617122145E+01  0.29617122145E+01  0.00000000000E+00 0.  1.
         21   -1    0    0  502  503 -0.00000000000E+00 -0.00000000000E+00 -0.33339682866E+03  0.33339682866E+03  0.00000000000E+00 0. -1.
          2    1    1    2  501    0 -0.36242045328E+01  0.28233445469E+02 -0.93980330425E+02  0.98196562101E+02  0.00000000000E+00 0.  1.
         -2    1    1    2    0  503  0.36242045328E+01 -0.28233445469E+02 -0.23645478602E+03  0.23816197877E+03  0.00000000000E+00 0. -1.
<mgrwt>
<rscale>  2 0.28465107E+02</rscale>
<asrwt>0</asrwt>
<pdfrwt beam="1">  1       21 0.45564821E-03 0.28465107E+02</pdfrwt>
<pdfrwt beam="2">  1       21 0.51291800E-01 0.28465107E+02</pdfrwt>
<totfact> 0.36701659E+07</totfact>
</mgrwt>
</event>
<event>
 4    1  0.2677450E+004  0.2463468E+02  0.7546771E-02  0.1666305E+00
         21   -1    0    0  503  502  0.00000000000E+00  0.00000000000E+00  0.88431254232E+00  0.88431254232E+00  0.00000000000E+00 0. -1.
         21   -1    0    0  501  503 -0.00000000000E+00 -0.00000000000E+00 -0.17540700915E+04  0.17540700915E+04  0.00000000000E+00 0.  1.
          2    1    1    2  501    0 -0.24421553081E+02 -0.32334764584E+01 -0.15612285895E+04  0.15614229332E+04  0.00000000000E+00 0.  1.
         -2    1    1    2    0  502  0.24421553081E+02  0.32334764584E+01 -0.19195718940E+03  0.19353147079E+03  0.00000000000E+00 0. -1.
<mgrwt>
<rscale>  2 0.24634683E+02</rscale>
<asrwt>0</asrwt>
<pdfrwt beam="1">  1       21 0.13604975E-03 0.24634683E+02</pdfrwt>
<pdfrwt beam="2">  1       21 0.26985363E+00 0.24634683E+02</pdfrwt>
<totfact> 0.43889571E+06</totfact>
</mgrwt>
</event>
<event>
 4    1  0.2677450E+004  0.2063260E+02  0.7546771E-02  0.1733033E+00
         21   -1    0    0  501  502  0.00000000000E+00  0.00000000000E+00  0.40775386702E+03  0.40775386702E+03  0.00000000000E+00 0. -1.
         21   -1    0    0  502  503 -0.00000000000E+00 -0.00000000000E+00 -0.10802644876E+01  0.10802644876E+01  0.00000000000E+00 0.  1.
          2    1    1    2  501    0  0.53297490632E+01  0.19932337491E+02  0.24077860501E+03  0.24166100416E+03  0.00000000000E+00 0.  1.
         -2    1    1    2    0  503 -0.53297490632E+01 -0.19932337491E+02  0.16589499752E+03  0.16717312734E+03  0.00000000000E+00 0. -1.
<mgrwt>
<rscale>  2 0.20632603E+02</rscale>
<asrwt>0</asrwt>
<pdfrwt beam="1">  1       21 0.62731241E-01 0.20632603E+02</pdfrwt>
<pdfrwt beam="2">  1       21 0.16619486E-03 0.20632603E+02</pdfrwt>
<totfact> 0.99264089E+07</totfact>
</mgrwt>
</event>
<event>
 4    1  0.2677450E+004  0.5064209E+02  0.7546771E-02  0.1441909E+00
         21   -1    0    0  503  502  0.00000000000E+00  0.00000000000E+00  0.49766428098E+03  0.49766428098E+03  0.00000000000E+00 0. -1.
         21   -1    0    0  501  503 -0.00000000000E+00 -0.00000000000E+00 -0.75459352771E+01  0.75459352771E+01  0.00000000000E+00 0.  1.
          2    1    1    2  501    0  0.37077021646E+02 -0.34495162534E+02  0.10281898947E+03  0.11461398854E+03  0.00000000000E+00 0.  1.
         -2    1    1    2    0  502 -0.37077021646E+02  0.34495162534E+02  0.38729935623E+03  0.39059622772E+03  0.00000000000E+00 0. -1.
<mgrwt>
<rscale>  2 0.50642095E+02</rscale>
<asrwt>0</asrwt>
<pdfrwt beam="1">  1       21 0.76563710E-01 0.50642095E+02</pdfrwt>
<pdfrwt beam="2">  1       21 0.11609135E-02 0.50642095E+02</pdfrwt>
<totfact> 0.42264913E+06</totfact>
</mgrwt>
</event>
<event>
 4    1  0.2677450E+004  0.2351626E+02  0.7546771E-02  0.1683276E+00
         21   -1    0    0  503  502  0.00000000000E+00  0.00000000000E+00  0.37291307341E+01  0.37291307341E+01  0.00000000000E+00 0.  1.
         21   -1    0    0  501  503 -0.00000000000E+00 -0.00000000000E+00 -0.17696338315E+03  0.17696338315E+03  0.00000000000E+00 0. -1.
          2    1    1    2  501    0  0.17167822182E+01  0.23453511726E+02 -0.12298046386E+03  0.12520866202E+03  0.00000000000E+00 0. -1.
         -2    1    1    2    0  502 -0.17167822182E+01 -0.23453511726E+02 -0.50253788550E+02  0.55483851859E+02  0.00000000000E+00 0.  1.
<mgrwt>
<rscale>  2 0.23516261E+02</rscale>
<asrwt>0</asrwt>
<pdfrwt beam="1">  1       21 0.57371236E-03 0.23516261E+02</pdfrwt>
<pdfrwt beam="2">  1       21 0.27225139E-01 0.23516261E+02</pdfrwt>
<totfact> 0.82147783E+07</totfact>
</mgrwt>
</event>
<event>
 4    1  0.2677450E+004  0.2563912E+02  0.7546771E-02  0.1651988E+00
         21   -1    0    0  503  502  0.00000000000E+00  0.00000000000E+00  0.13490443411E+03  0.13490443411E+03  0.00000000000E+00 0. -1.
         21   -1    0    0  501  503 -0.00000000000E+00 -0.00000000000E+00 -0.13217281139E+02  0.13217281139E+02  0.00000000000E+00 0.  1.
          2    1    1    2  501    0  0.26259735818E+01 -0.25504289031E+02  0.19975797794E+01  0.25716819811E+02  0.00000000000E+00 0.  1.
         -2    1    1    2    0  502 -0.26259735818E+01  0.25504289031E+02  0.11968957319E+03  0.12240489544E+03  0.00000000000E+00 0. -1.
<mgrwt>
<rscale>  2 0.25639120E+02</rscale>
<asrwt>0</asrwt>
<pdfrwt beam="1">  1       21 0.20754527E-01 0.25639120E+02</pdfrwt>
<pdfrwt beam="2">  1       21 0.20334280E-02 0.25639120E+02</pdfrwt>
<totfact> 0.20109818E+07</totfact>
</mgrwt>
</event>
<event>
 4    1  0.2677450E+004  0.3721407E+02  0.7546771E-02  0.1529774E+00
         21   -1    0    0  503  502  0.00000000000E+00  0.00000000000E+00  0.53471960470E+02  0.53471960470E+02  0.00000000000E+00 0.  1.
         21   -1    0    0  501  503 -0.00000000000E+00 -0.00000000000E+00 -0.40912331898E+02  0.40912331898E+02  0.00000000000E+00 0. -1.
          2    1    1    2  501    0 -0.36147970014E+02  0.88437067631E+01 -0.22307718074E+02  0.43388030274E+02  0.00000000000E+00 0. -1.
         -2    1    1    2    0  502  0.36147970014E+02 -0.88437067631E+01  0.34867346646E+02  0.50996262094E+02  0.00000000000E+00 0.  1.
<mgrwt>
<rscale>  2 0.37214068E+02</rscale>
<asrwt>0</asrwt>
<pdfrwt beam="1">  1       21 0.82264555E-02 0.37214068E+02</pdfrwt>
<pdfrwt beam="2">  1       21 0.62942049E-02 0.37214068E+02</pdfrwt>
<totfact> 0.17386925E+07</totfact>
</mgrwt>
</event>
<event>
 4    1  0.2677450E+004  0.5161848E+02  0.7546771E-02  0.1436802E+00
         21   -1    0    0  503  502  0.00000000000E+00  0.00000000000E+00  0.17674293459E+02  0.17674293459E+02  0.00000000000E+00 0.  1.
         21   -1    0    0  501  503 -0.00000000000E+00 -0.00000000000E+00 -0.21102198641E+03  0.21102198641E+03  0.00000000000E+00 0. -1.
          2    1    1    2  501    0  0.37062471108E+02  0.35928272662E+02 -0.15778341004E+03  0.16601226468E+03  0.00000000000E+00 0. -1.
         -2    1    1    2    0  502 -0.37062471108E+02 -0.35928272662E+02 -0.35564282915E+02  0.62684015190E+02  0.00000000000E+00 0.  1.
<mgrwt>
<rscale>  2 0.51618481E+02</rscale>
<asrwt>0</asrwt>
<pdfrwt beam="1">  1       21 0.27191220E-02 0.51618481E+02</pdfrwt>
<pdfrwt beam="2">  1       21 0.32464922E-01 0.51618481E+02</pdfrwt>
<totfact> 0.62462266E+06</totfact>
</mgrwt>
</event>
<event>
 4    1  0.2677450E+004  0.2619620E+02  0.7546771E-02  0.1644392E+00
         21   -1    0    0  503  502  0.00000000000E+00  0.00000000000E+00  0.11169001057E+04  0.11169001057E+04  0.00000000000E+00 0. -1.
         21   -1    0    0  501  503 -0.00000000000E+00 -0.00000000000E+00 -0.18126770052E+01  0.18126770052E+01  0.00000000000E+00 0.  1.
          2    1    1    2  501    0  0.26007659094E+02  0.31372634388E+01  0.10276074474E+03  0.10604721314E+03  0.00000000000E+00 0.  1.
         -2    1    1    2    0  502 -0.26007659094E+02 -0.31372634388E+01  0.10123266840E+04  0.10126655696E+04  0.00000000000E+00 0. -1.
<mgrwt>
<rscale>  2 0.26196197E+02</rscale>
<asrwt>0</asrwt>
<pdfrwt beam="1">  1       21 0.17183024E+00 0.26196197E+02</pdfrwt>
<pdfrwt beam="2">  1       21 0.27887428E-03 0.26196197E+02</pdfrwt>
<totfact> 0.52796674E+06</totfact>
</mgrwt>
</event>
<event>
 4    1  0.2677450E+004  0.2491447E+02  0.7546771E-02  0.1662233E+00
         21   -1    0    0  503  502  0.00000000000E+00  0.00000000000E+00  0.71792744175E+01  0.71792744175E+01  0.00000000000E+00 0. -1.
         21   -1    0    0  501  503 -0.00000000000E+00 -0.00000000000E+00 -0.10639985510E+03  0.10639985510E+03  0.00000000000E+00 0.  1.
          2    1    1    2  501    0 -0.22629719238E+02  0.10422417330E+02 -0.74193720007E+02  0.78265184241E+02  0.00000000000E+00 0. -1.
         -2    1    1    2    0  502  0.22629719238E+02 -0.10422417330E+02 -0.25026860679E+02  0.35313945280E+02  0.00000000000E+00 0.  1.
<mgrwt>
<rscale>  2 0.24914473E+02</rscale>
<asrwt>0</asrwt>
<pdfrwt beam="1">  1       21 0.11045038E-02 0.24914473E+02</pdfrwt>
<pdfrwt beam="2">  1       21 0.16369208E-01 0.24914473E+02</pdfrwt>
<totfact> 0.76597605E+07</totfact>
</mgrwt>
</event>
<event>
 4    1  0.2677450E+004  0.2070400E+02  0.7546771E-02  0.1731680E+00
         21   -1    0    0  501  502  0.00000000000E+00  0.00000000000E+00  0.16454874325E+01  0.16454874325E+01  0.00000000000E+00 0. -1.
         21   -1    0    0  502  503 -0.00000000000E+00 -0.00000000000E+00 -0.37642440834E+03  0.37642440834E+03  0.00000000000E+00 0.  1.
          2    1    1    2  501    0  0.31969826712E+01  0.20455681115E+02 -0.82487476968E+02  0.85046101878E+02  0.00000000000E+00 0. -1.
         -2    1    1    2    0  503 -0.31969826712E+01 -0.20455681115E+02 -0.29229144394E+03  0.29302379389E+03  0.00000000000E+00 0.  1.
<mgrwt>
<rscale>  2 0.20703999E+02</rscale>
<asrwt>0</asrwt>
<pdfrwt beam="1">  1       21 0.25315201E-03 0.20703999E+02</pdfrwt>
<pdfrwt beam="2">  1       21 0.57911425E-01 0.20703999E+02</pdfrwt>
<totfact> 0.63567162E+07</totfact>
</mgrwt>
</event>
<event>
 4    1  0.2677450E+004  0.2030235E+02  0.7546771E-02  0.1739381E+00
         21   -1    0    0  503  502  0.00000000000E+00  0.00000000000E+00  0.12616000647E+02  0.12616000647E+02  0.00000000000E+00 0. -1.
         21   -1    0    0  501  503 -0.00000000000E+00 -0.00000000000E+00 -0.46712037181E+02  0.46712037181E+02  0.00000000000E+00 0.  1.
          2    1    1    2  501    0  0.10773172350E+02 -0.17208255911E+02 -0.33311196667E+02  0.39010525982E+02  0.00000000000E+00 0.  1.
         -2    1    1    2    0  502 -0.10773172350E+02  0.17208255911E+02 -0.78483986694E+00  0.20317511846E+02  0.00000000000E+00 0. -1.
<mgrwt>
<rscale>  2 0.20302347E+02</rscale>
<asrwt>0</asrwt>
<pdfrwt beam="1">  1       21 0.19409232E-02 0.20302347E+02</pdfrwt>
<pdfrwt beam="2">  1       21 0.71864673E-02 0.20302347E+02</pdfrwt>
<totfact> 0.12080855E+08</totfact>
</mgrwt>
</event>
<event>
 4    1  0.2677450E+004  0.2572834E+02  0.7546771E-02  0.1650756E+00
         21   -1    0    0  503  502  0.00000000000E+00  0.00000000000E+00  0.75882280669E+02  0.75882280669E+02  0.00000000000E+00 0.  1.
         21   -1    0    0  501  503 -0.00000000000E+00 -0.00000000000E+00 -0.11943738387E+02  0.11943738387E+02  0.00000000000E+00 0. -1.
          2    1    1    2  501    0 -0.23028930535E+02 -0.11472395652E+02  0.91670393921E+01  0.27312673154E+02  0.00000000000E+00 0. -1.
         -2    1    1    2    0  502  0.23028930535E+02  0.11472395652E+02  0.54771502890E+02  0.60513345903E+02  0.00000000000E+00 0.  1.
<mgrwt>
<rscale>  2 0.25728340E+02</rscale>
<asrwt>0</asrwt>
<pdfrwt beam="1">  1       21 0.11674197E-01 0.25728340E+02</pdfrwt>
<pdfrwt beam="2">  1       21 0.18374983E-02 0.25728340E+02</pdfrwt>
<totfact> 0.63155369E+07</totfact>
</mgrwt>
</event>
<event>
 4    1  0.2677450E+004  0.2987202E+02  0.7546771E-02  0.1599508E+00
         21   -1    0    0  501  502  0.00000000000E+00  0.00000000000E+00  0.62137648842E+03  0.62137648842E+03  0.00000000000E+00 0. -1.
         21   -1    0    0  502  503 -0.00000000000E+00 -0.00000000000E+00 -0.79256767569E+01  0.79256767569E+01  0.00000000000E+00 0.  1.
          2    1    1    2  501    0  0.16048765488E+02  0.25194734625E+02  0.59144698471E+03  0.59220087238E+03  0.00000000000E+00 0. -1.
         -2    1    1    2    0  503 -0.16048765488E+02 -0.25194734625E+02  0.22003826952E+02  0.37101292795E+02  0.00000000000E+00 0.  1.
<mgrwt>
<rscale>  2 0.29872019E+02</rscale>
<asrwt>0</asrwt>
<pdfrwt beam="1">  1       21 0.95596345E-01 0.29872019E+02</pdfrwt>
<pdfrwt beam="2">  1       21 0.12193354E-02 0.29872019E+02</pdfrwt>
<totfact> 0.23159712E+06</totfact>
</mgrwt>
</event>
<event>
 4    1  0.2677450E+004  0.2101746E+02  0.7546771E-02  0.1725820E+00
         21   -1    0    0  501  502  0.00000000000E+00  0.00000000000E+00  0.87984256486E+03  0.87984256486E+03  0.00000000000E+00 0.  1.
         21   -1    0    0  502  503 -0.00000000000E+00 -0.00000000000E+00 -0.28546676913E+01  0.28546676913E+01  0.00000000000E+00 0. -1.
          2    1    1    2  501    0  0.17364895373E+02  0.11840353852E+02  0.83915651205E+03  0.83941967173E+03  0.00000000000E+00 0.  1.
         -2    1    1    2    0  503 -0.17364895373E+02 -0.11840353852E+02  0.37831385116E+02  0.43277560820E+02  0.00000000000E+00 0. -1.
<mgrwt>
<rscale>  2 0.21017459E+02</rscale>
<asrwt>0</asrwt>
<pdfrwt beam="1">  1       21 0.13536018E+00 0.21017459E+02</pdfrwt>
<pdfrwt beam="2">  1       21 0.43918035E-03 0.21017459E+02</pdfrwt>
<totfact> 0.46756272E+06</totfact>
</mgrwt>
</event>
<event>
 4    1  0.2677450E+004  0.2404480E+02  0.7546771E-02  0.1675113E+00
         21   -1    0    0  503  502  0.00000000000E+00  0.00000000000E+00  0.55922595490E+01  0.55922595490E+01  0.00000000000E+00 0. -1.
         21   -1    0    0  501  503 -0.00000000000E+00 -0.00000000000E+00 -0.24143983918E+03  0.24143983918E+03  0.00000000000E+00 0.  1.
          2    1    1    2  501    0  0.23186094958E+02 -0.63684550434E+01 -0.21132354483E+03  0.21268707723E+03  0.00000000000E+00 0.  1.
         -2    1    1    2    0  502 -0.23186094958E+02  0.63684550434E+01 -0.24524034794E+02  0.34345021497E+02  0.00000000000E+00 0. -1.
<mgrwt>
<rscale>  2 0.24044796E+02</rscale>
<asrwt>0</asrwt>
<pdfrwt beam="1">  1       21 0.86034769E-03 0.24044796E+02</pdfrwt>
<pdfrwt beam="2">  1       21 0.37144588E-01 0.24044796E+02</pdfrwt>
<totfact> 0.25544619E+07</totfact>
</mgrwt>
</event>
<event>
 4    1  0.2677450E+004  0.2473649E+02  0.7546771E-02  0.1664816E+00
         21   -1    0    0  501  502  0.00000000000E+00  0.00000000000E+00  0.19007190688E+02  0.19007190688E+02  0.00000000000E+00 0. -1.
         21   -1    0    0  502  503 -0.00000000000E+00 -0.00000000000E+00 -0.11838906016E+03  0.11838906016E+03  0.00000000000E+00 0.  1.
          2    1    1    2  501    0 -0.60747237647E+01 -0.23978987276E+02  0.89273882844E+01  0.26298143684E+02  0.00000000000E+00 0. -1.
         -2    1    1    2    0  503  0.60747237647E+01  0.23978987276E+02 -0.10830925776E+03  0.11109810717E+03  0.00000000000E+00 0.  1.
<mgrwt>
<rscale>  2 0.24736493E+02</rscale>
<asrwt>0</asrwt>
<pdfrwt beam="1">  1       21 0.29241832E-02 0.24736493E+02</pdfrwt>
<pdfrwt beam="2">  1       21 0.18213702E-01 0.24736493E+02</pdfrwt>
<totfact> 0.14284559E+07</totfact>
</mgrwt>
</event>
<event>
 4    1  0.2677450E+004  0.3357814E+02  0.7546771E-02  0.1561602E+00
         21   -1    0    0  503  502  0.00000000000E+00  0.00000000000E+00  0.11592152869E+01  0.11592152869E+01  0.00000000000E+00 0. -1.
         21   -1    0    0  501  503 -0.00000000000E+00 -0.00000000000E+00 -0.98330311376E+03  0.98330311376E+03  0.00000000000E+00 0.  1.
          2    1    1    2  501    0 -0.23205194588E+02 -0.24269533481E+02 -0.54234689385E+03  0.54338535551E+03  0.00000000000E+00 0.  1.
         -2    1    1    2    0  502  0.23205194588E+02  0.24269533481E+02 -0.43979700462E+03  0.44107697354E+03  0.00000000000E+00 0. -1.
<mgrwt>
<rscale>  2 0.33578137E+02</rscale>
<asrwt>0</asrwt>
<pdfrwt beam="1">  1       21 0.17834077E-03 0.33578137E+02</pdfrwt>
<pdfrwt beam="2">  1       21 0.15127744E+00 0.33578137E+02</pdfrwt>
<totfact> 0.14238389E+07</totfact>
</mgrwt>
</event>
<event>
 4    1  0.2677450E+004  0.3151882E+02  0.7546771E-02  0.1581882E+00
         21   -1    0    0  503  502  0.00000000000E+00  0.00000000000E+00  0.70803735038E+03  0.70803735038E+03  0.00000000000E+00 0. -1.
         21   -1    0    0  501  503 -0.00000000000E+00 -0.00000000000E+00 -0.14504637392E+01  0.14504637392E+01  0.00000000000E+00 0.  1.
          2    1    1    2  501    0 -0.30859437853E+02 -0.64133386812E+01  0.41740823402E+03  0.41859654758E+03  0.00000000000E+00 0. -1.
         -2    1    1    2    0  502  0.30859437853E+02  0.64133386812E+01  0.28917865262E+03  0.29089126654E+03  0.00000000000E+00 0.  1.
<mgrwt>
<rscale>  2 0.31518817E+02</rscale>
<asrwt>0</asrwt>
<pdfrwt beam="1">  1       21 0.10892855E+00 0.31518817E+02</pdfrwt>
<pdfrwt beam="2">  1       21 0.22314883E-03 0.31518817E+02</pdfrwt>
<totfact> 0.21934330E+07</totfact>
</mgrwt>
</event>
<event>
 4    1  0.2677450E+004  0.2617096E+02  0.7546771E-02  0.1644731E+00
         21   -1    0    0  503  502  0.00000000000E+00  0.00000000000E+00  0.20624676365E+02  0.20624676365E+02  0.00000000000E+00 0.  1.
         21   -1    0    0  501  503 -0.00000000000E+00 -0.00000000000E+00 -0.35593881539E+02  0.35593881539E+02  0.00000000000E+00 0. -1.
          2    1    1    2  501    0 -0.25811051968E+02  0.43253741045E+01 -0.14761063691E+02  0.30046767981E+02  0.00000000000E+00 0. -1.
         -2    1    1    2    0  502  0.25811051968E+02 -0.43253741045E+01 -0.20814148322E+00  0.26171789922E+02  0.00000000000E+00 0.  1.
<mgrwt>
<rscale>  2 0.26170962E+02</rscale>
<asrwt>0</asrwt>
<pdfrwt beam="1">  1       21 0.31730271E-02 0.26170962E+02</pdfrwt>
<pdfrwt beam="2">  1       21 0.54759818E-02 0.26170962E+02</pdfrwt>
<totfact> 0.94093923E+07</totfact>
</mgrwt>
</event>
<event>
 4    1  0.2677450E+004  0.2162443E+02  0.7546771E-02  0.1714829E+00
         21   -1    0    0  501  502  0.00000000000E+00  0.00000000000E+00  0.72564037162E+02  0.72564037162E+02  0.00000000000E+00 0.  1.
         21   -1    0    0  502  503 -0.00000000000E+00 -0.00000000000E+00 -0.17145072655E+02  0.17145072655E+02  0.00000000000E+00 0. -1.
          2    1    1    2  501    0  0.21585718355E+02 -0.12933376137E+01  0.63145656021E+02  0.66745710224E+02  0.00000000000E+00 0.  1.
         -2    1    1    2    0  503 -0.21585718355E+02  0.12933376137E+01 -0.77266915139E+01  0.22963399592E+02  0.00000000000E+00 0. -1.
<mgrwt>
<rscale>  2 0.21624430E+02</rscale>
<asrwt>0</asrwt>
<pdfrwt beam="1">  1       21 0.11163698E-01 0.21624430E+02</pdfrwt>
<pdfrwt beam="2">  1       21 0.26377035E-02 0.21624430E+02</pdfrwt>
<totfact> 0.37324856E+07</totfact>
</mgrwt>
</event>
<event>
 4    1  0.2677450E+004  0.3125657E+02  0.7546771E-02  0.1584600E+00
         21   -1    0    0  501  502  0.00000000000E+00  0.00000000000E+00  0.22336811200E+03  0.22336811200E+03  0.00000000000E+00 0.  1.
         21   -1    0    0  502  503 -0.00000000000E+00 -0.00000000000E+00 -0.53086898002E+01  0.53086898002E+01  0.00000000000E+00 0. -1.
          2    1    1    2  501    0  0.27023978182E+02 -0.15705971966E+02  0.15701111235E+03  0.16009204338E+03  0.00000000000E+00 0.  1.
         -2    1    1    2    0  503 -0.27023978182E+02  0.15705971966E+02  0.61048309855E+02  0.68584758425E+02  0.00000000000E+00 0. -1.
<mgrwt>
<rscale>  2 0.31256567E+02</rscale>
<asrwt>0</asrwt>
<pdfrwt beam="1">  1       21 0.34364318E-01 0.31256567E+02</pdfrwt>
<pdfrwt beam="2">  1       21 0.81672168E-03 0.31256567E+02</pdfrwt>
<totfact> 0.33672669E+07</totfact>
</mgrwt>
</event>
<event>
 4    1  0.2677450E+004  0.2203312E+02  0.7546771E-02  0.1707680E+00
         21   -1    0    0  501  502  0.00000000000E+00  0.00000000000E+00  0.50775360312E+01  0.50775360312E+01  0.00000000000E+00 0.  1.
         21   -1    0    0  502  503 -0.00000000000E+00 -0.00000000000E+00 -0.10780295521E+03  0.10780295521E+03  0.00000000000E+00 0. -1.
          2    1    1    2  501    0  0.20264135114E+02  0.86500451018E+01 -0.32380587027E+02  0.39165812495E+02  0.00000000000E+00 0. -1.
         -2    1    1    2    0  503 -0.20264135114E+02 -0.86500451018E+01 -0.70344832153E+02  0.73714678747E+02  0.00000000000E+00 0.  1.
<mgrwt>
<rscale>  2 0.22033122E+02</rscale>
<asrwt>0</asrwt>
<pdfrwt beam="1">  1       21 0.78115931E-03 0.22033122E+02</pdfrwt>
<pdfrwt beam="2">  1       21 0.16585072E-01 0.22033122E+02</pdfrwt>
<totfact> 0.12173690E+08</totfact>
</mgrwt>
</event>
<event>
 4    1  0.2677450E+004  0.2000690E+02  0.7546771E-02  0.1745191E+00
         21   -1    0    0  501  502  0.00000000000E+00  0.00000000000E+00  0.37883847635E+01  0.37883847635E+01  0.00000000000E+00 0. -1.
         21   -1    0    0  502  503 -0.00000000000E+00 -0.00000000000E+00 -0.12823126068E+03  0.12823126068E+03  0.00000000000E+00 0.  1.
          2    1    1    2  501    0  0.19618993492E+02  0.39206122312E+01 -0.34526444203E+02  0.39904278658E+02  0.00000000000E+00 0. -1.
         -2    1    1    2    0  503 -0.19618993492E+02 -0.39206122312E+01 -0.89916431716E+02  0.92115366788E+02  0.00000000000E+00 0.  1.
<mgrwt>
<rscale>  2 0.20006901E+02</rscale>
<asrwt>0</asrwt>
<pdfrwt beam="1">  1       21 0.58282833E-03 0.20006901E+02</pdfrwt>
<pdfrwt beam="2">  1       21 0.19727889E-01 0.20006901E+02</pdfrwt>
<totfact> 0.13542021E+08</totfact>
</mgrwt>
</event>
<event>
 4    1  0.2677450E+004  0.2519707E+02  0.7546771E-02  0.1658187E+00
         21   -1    0    0  501  502  0.00000000000E+00  0.00000000000E+00  0.21725865964E+01  0.21725865964E+01  0.00000000000E+00 0.  1.
         21   -1    0    0  502  503 -0.00000000000E+00 -0.00000000000E+00 -0.53589543526E+03  0.53589543526E+03  0.00000000000E+00 0. -1.
          2    1    1    2  501    0 -0.11731120268E+02 -0.22299624852E+02 -0.85449780365E+02  0.89087358339E+02  0.00000000000E+00 0. -1.
         -2    1    1    2    0  503  0.11731120268E+02  0.22299624852E+02 -0.44827306830E+03  0.44898066352E+03  0.00000000000E+00 0.  1.
<mgrwt>
<rscale>  2 0.25197072E+02</rscale>
<asrwt>0</asrwt>
<pdfrwt beam="1">  1       21 0.33424397E-03 0.25197072E+02</pdfrwt>
<pdfrwt beam="2">  1       21 0.82445481E-01 0.25197072E+02</pdfrwt>
<totfact> 0.21494720E+07</totfact>
</mgrwt>
</event>
<event>
 4    1  0.2677450E+004  0.4483009E+02  0.7546771E-02  0.1475405E+00
         21   -1    0    0  501  502  0.00000000000E+00  0.00000000000E+00  0.11803567382E+03  0.11803567382E+03  0.00000000000E+00 0. -1.
         21   -1    0    0  502  503 -0.00000000000E+00 -0.00000000000E+00 -0.40734759117E+02  0.40734759117E+02  0.00000000000E+00 0.  1.
          2    1    1    2  501    0 -0.15014538727E+02  0.42240978151E+02  0.99213365100E+02  0.10887161440E+03  0.00000000000E+00 0. -1.
         -2    1    1    2    0  503  0.15014538727E+02 -0.42240978151E+02 -0.21912450399E+02  0.49898818531E+02  0.00000000000E+00 0.  1.
<mgrwt>
<rscale>  2 0.44830086E+02</rscale>
<asrwt>0</asrwt>
<pdfrwt beam="1">  1       21 0.18159334E-01 0.44830086E+02</pdfrwt>
<pdfrwt beam="2">  1       21 0.62668861E-02 0.44830086E+02</pdfrwt>
<totfact> 0.46119783E+06</totfact>
</mgrwt>
</event>
<event>
 4    1  0.2677450E+004  0.3142225E+02  0.7546771E-02  0.1582879E+00
         21   -1    0    0  503  502  0.00000000000E+00  0.00000000000E+00  0.16012397798E+03  0.16012397798E+03  0.00000000000E+00 0. -1.
         21   -1    0    0  501  503 -0.00000000000E+00 -0.00000000000E+00 -0.70101641345E+01  0.70101641345E+01  0.00000000000E+00 0.  1.
          2    1    1    2  501    0 -0.21210568397E+02  0.23183395834E+02  0.47561410907E+02  0.57003910933E+02  0.00000000000E+00 0.  1.
         -2    1    1    2    0  502  0.21210568397E+02 -0.23183395834E+02  0.10555240294E+03  0.11013023119E+03  0.00000000000E+00 0. -1.
<mgrwt>
<rscale>  2 0.31422254E+02</rscale>
<asrwt>0</asrwt>
<pdfrwt beam="1">  1       21 0.24634455E-01 0.31422254E+02</pdfrwt>
<pdfrwt beam="2">  1       21 0.10784869E-02 0.31422254E+02</pdfrwt>
<totfact> 0.40764999E+07</totfact>
</mgrwt>
</event>
<event>
 4    1  0.2677450E+004  0.2939710E+02  0.7546771E-02  0.1604850E+00
         21   -1    0    0  501  502  0.00000000000E+00  0.00000000000E+00  0.12381439360E+02  0.12381439360E+02  0.00000000000E+00 0.  1.
         21   -1    0    0  502  503 -0.00000000000E+00 -0.00000000000E+00 -0.37007460931E+03  0.37007460931E+03  0.00000000000E+00 0. -1.
          2    1    1    2  501    0 -0.27609341116E+02  0.10095229107E+02 -0.65930081101E+01  0.30127348431E+02  0.00000000000E+00 0.  1.
         -2    1    1    2    0  503  0.27609341116E+02 -0.10095229107E+02 -0.35110016184E+03  0.35232870023E+03  0.00000000000E+00 0. -1.
<mgrwt>
<rscale>  2 0.29397098E+02</rscale>
<asrwt>0</asrwt>
<pdfrwt beam="1">  1       21 0.19048368E-02 0.29397098E+02</pdfrwt>
<pdfrwt beam="2">  1       21 0.56934555E-01 0.29397098E+02</pdfrwt>
<totfact> 0.34504406E+06</totfact>
</mgrwt>
</event>
<event>
 4    1  0.2677450E+004  0.4165730E+02  0.7546771E-02  0.1496358E+00
         21   -1    0    0  501  502  0.00000000000E+00  0.00000000000E+00  0.75723038272E+01  0.75723038272E+01  0.00000000000E+00 0. -1.
         21   -1    0    0  502  503 -0.00000000000E+00 -0.00000000000E+00 -0.26854155568E+03  0.26854155568E+03  0.00000000000E+00 0.  1.
          2    1    1    2  501    0 -0.33332928779E+02 -0.24984926876E+02 -0.77621351705E+02  0.88093160646E+02  0.00000000000E+00 0. -1.
         -2    1    1    2    0  503  0.33332928779E+02  0.24984926876E+02 -0.18334790015E+03  0.18802069886E+03  0.00000000000E+00 0.  1.
<mgrwt>
<rscale>  2 0.41657301E+02</rscale>
<asrwt>0</asrwt>
<pdfrwt beam="1">  1       21 0.11649698E-02 0.41657301E+02</pdfrwt>
<pdfrwt beam="2">  1       21 0.41314088E-01 0.41657301E+02</pdfrwt>
<totfact> 0.14465230E+07</totfact>
</mgrwt>
</event>
<event>
 4    1  0.2677450E+004  0.3558178E+02  0.7546771E-02  0.1543494E+00
         21   -1    0    0  503  502  0.00000000000E+00  0.00000000000E+00  0.10332029926E+03  0.10332029926E+03  0.00000000000E+00 0.  1.
         21   -1    0    0  501  503 -0.00000000000E+00 -0.00000000000E+00 -0.77739158282E+02  0.77739158282E+02  0.00000000000E+00 0. -1.
          2    1    1    2  501    0  0.22290141862E+02 -0.27734679099E+02 -0.70298426500E+02  0.78790428463E+02  0.00000000000E+00 0. -1.
         -2    1    1    2    0  502 -0.22290141862E+02  0.27734679099E+02  0.95879567477E+02  0.10226902908E+03  0.00000000000E+00 0.  1.
<mgrwt>
<rscale>  2 0.35581777E+02</rscale>
<asrwt>0</asrwt>
<pdfrwt beam="1">  1       21 0.15895431E-01 0.35581777E+02</pdfrwt>
<pdfrwt beam="2">  1       21 0.11959870E-01 0.35581777E+02</pdfrwt>
<totfact> 0.19323038E+06</totfact>
</mgrwt>
</event>
<event>
 4    1  0.2677450E+004  0.2362485E+02  0.7546771E-02  0.1681577E+00
         21   -1    0    0  501  502  0.00000000000E+00  0.00000000000E+00  0.62813461580E+01  0.62813461580E+01  0.00000000000E+00 0. -1.
         21   -1    0    0  502  503 -0.00000000000E+00 -0.00000000000E+00 -0.81477357294E+03  0.81477357294E+03  0.00000000000E+00 0.  1.
          2    1    1    2  501    0  0.23401197172E+02  0.32430518335E+01 -0.16749876708E+02  0.28960175829E+02  0.00000000000E+00 0. -1.
         -2    1    1    2    0  503 -0.23401197172E+02 -0.32430518335E+01 -0.79174235007E+03  0.79209474327E+03  0.00000000000E+00 0.  1.
<mgrwt>
<rscale>  2 0.23624847E+02</rscale>
<asrwt>0</asrwt>
<pdfrwt beam="1">  1       21 0.96636167E-03 0.23624847E+02</pdfrwt>
<pdfrwt beam="2">  1       21 0.12534969E+00 0.23624847E+02</pdfrwt>
<totfact> 0.17550599E+06</totfact>
</mgrwt>
</event>
<event>
 4    1  0.2677450E+004  0.2163934E+02  0.7546771E-02  0.1714565E+00
         21   -1    0    0  503  502  0.00000000000E+00  0.00000000000E+00  0.12377393338E+02  0.12377393338E+02  0.00000000000E+00 0. -1.
         21   -1    0    0  501  503 -0.00000000000E+00 -0.00000000000E+00 -0.39907257968E+02  0.39907257968E+02  0.00000000000E+00 0.  1.
          2    1    1    2  501    0 -0.20242145120E+02 -0.76496036323E+01 -0.19726493214E+02  0.29281315021E+02  0.00000000000E+00 0. -1.
         -2    1    1    2    0  502  0.20242145120E+02  0.76496036323E+01 -0.78033714156E+01  0.23003336285E+02  0.00000000000E+00 0.  1.
<mgrwt>
<rscale>  2 0.21639336E+02</rscale>
<asrwt>0</asrwt>
<pdfrwt beam="1">  1       21 0.19042144E-02 0.21639336E+02</pdfrwt>
<pdfrwt beam="2">  1       21 0.61395780E-02 0.21639336E+02</pdfrwt>
<totfact> 0.16339749E+08</totfact>
</mgrwt>
</event>
<event>
 4    1  0.2677450E+004  0.1161181E+03  0.7546771E-02  0.1249642E+00
         21   -1    0    0  503  502  0.00000000000E+00  0.00000000000E+00  0.32843075040E+03  0.32843075040E+03  0.00000000000E+00 0.  1.
         21   -1    0    0  501  503 -0.00000000000E+00 -0.00000000000E+00 -0.41167324517E+02  0.41167324517E+02  0.00000000000E+00 0. -1.
          2    1    1    2  501    0  0.10564317985E+03 -0.48196899378E+02  0.13393933201E+03  0.17726580950E+03  0.00000000000E+00 0.  1.
         -2    1    1    2    0  502 -0.10564317985E+03  0.48196899378E+02  0.15332409387E+03  0.19233226542E+03  0.00000000000E+00 0. -1.
<mgrwt>
<rscale>  2 0.11611814E+03</rscale>
<asrwt>0</asrwt>
<pdfrwt beam="1">  1       21 0.50527806E-01 0.11611814E+03</pdfrwt>
<pdfrwt beam="2">  1       21 0.63334348E-02 0.11611814E+03</pdfrwt>
<totfact> 0.67413008E+05</totfact>
</mgrwt>
</event>
<event>
 4    1  0.2677450E+004  0.3839486E+02  0.7546771E-02  0.1520367E+00
         21   -1    0    0  501  502  0.00000000000E+00  0.00000000000E+00  0.39380234022E+01  0.39380234022E+01  0.00000000000E+00 0.  1.
         21   -1    0    0  502  503 -0.00000000000E+00 -0.00000000000E+00 -0.42920775355E+03  0.42920775355E+03  0.00000000000E+00 0. -1.
          2    1    1    2  501    0 -0.28689081194E+01  0.38287529660E+02 -0.13520241721E+03  0.14054842290E+03  0.00000000000E+00 0.  1.
         -2    1    1    2    0  503  0.28689081194E+01 -0.38287529660E+02 -0.29006731294E+03  0.29259735405E+03  0.00000000000E+00 0. -1.
<mgrwt>
<rscale>  2 0.38394864E+02</rscale>
<asrwt>0</asrwt>
<pdfrwt beam="1">  1       21 0.60584970E-03 0.38394864E+02</pdfrwt>
<pdfrwt beam="2">  1       21 0.66031968E-01 0.38394864E+02</pdfrwt>
<totfact> 0.15128629E+07</totfact>
</mgrwt>
</event>
<event>
 4    1  0.2677450E+004  0.2510079E+02  0.7546771E-02  0.1659558E+00
         21   -1    0    0  503  502  0.00000000000E+00  0.00000000000E+00  0.98200129955E+01  0.98200129955E+01  0.00000000000E+00 0. -1.
         21   -1    0    0  501  503 -0.00000000000E+00 -0.00000000000E+00 -0.97940450850E+02  0.97940450850E+02  0.00000000000E+00 0.  1.
          2    1    1    2  501    0 -0.24625087689E+02 -0.48635903156E+01 -0.75703595253E+02  0.79756402807E+02  0.00000000000E+00 0.  1.
         -2    1    1    2    0  502  0.24625087689E+02  0.48635903156E+01 -0.12416842601E+02  0.28004061038E+02  0.00000000000E+00 0. -1.
<mgrwt>
<rscale>  2 0.25100786E+02</rscale>
<asrwt>0</asrwt>
<pdfrwt beam="1">  1       21 0.15107713E-02 0.25100786E+02</pdfrwt>
<pdfrwt beam="2">  1       21 0.15067761E-01 0.25100786E+02</pdfrwt>
<totfact> 0.54986120E+07</totfact>
</mgrwt>
</event>
<event>
 4    1  0.2677450E+004  0.2307871E+02  0.7546771E-02  0.1690237E+00
         21   -1    0    0  503  502  0.00000000000E+00  0.00000000000E+00  0.10420332307E+02  0.10420332307E+02  0.00000000000E+00 0.  1.
         21   -1    0    0  501  503 -0.00000000000E+00 -0.00000000000E+00 -0.55833629015E+02  0.55833629015E+02  0.00000000000E+00 0. -1.
          2    1    1    2  501    0 -0.55803852988E+01 -0.22393886760E+02 -0.32337817980E+02  0.39728595948E+02  0.00000000000E+00 0. -1.
         -2    1    1    2    0  502  0.55803852988E+01  0.22393886760E+02 -0.13075478727E+02  0.26525365374E+02  0.00000000000E+00 0.  1.
<mgrwt>
<rscale>  2 0.23078710E+02</rscale>
<asrwt>0</asrwt>
<pdfrwt beam="1">  1       21 0.16031281E-02 0.23078710E+02</pdfrwt>
<pdfrwt beam="2">  1       21 0.85897890E-02 0.23078710E+02</pdfrwt>
<totfact> 0.12569875E+08</totfact>
</mgrwt>
</event>
<event>
 4    1  0.2677450E+004  0.2244205E+02  0.7546771E-02  0.1700717E+00
         21   -1    0    0  503  502  0.00000000000E+00  0.00000000000E+00  0.29216130016E+02  0.29216130016E+02  0.00000000000E+00 0. -1.
         21   -1    0    0  501  503 -0.00000000000E+00 -0.00000000000E+00 -0.45368518398E+02  0.45368518398E+02  0.00000000000E+00 0.  1.
          2    1    1    2  501    0  0.21339300557E+02  0.69483846951E+01 -0.37440938619E+02  0.43651685910E+02  0.00000000000E+00 0.  1.
         -2    1    1    2    0  502 -0.21339300557E+02 -0.69483846951E+01  0.21288550236E+02  0.30932962504E+02  0.00000000000E+00 0. -1.
<mgrwt>
<rscale>  2 0.22442054E+02</rscale>
<asrwt>0</asrwt>
<pdfrwt beam="1">  1       21 0.44947892E-02 0.22442054E+02</pdfrwt>
<pdfrwt beam="2">  1       21 0.69797721E-02 0.22442054E+02</pdfrwt>
<totfact> 0.35346060E+07</totfact>
</mgrwt>
</event>
<event>
 4    1  0.2677450E+004  0.2193052E+02  0.7546771E-02  0.1709456E+00
         21   -1    0    0  501  502  0.00000000000E+00  0.00000000000E+00  0.16957937118E+01  0.16957937118E+01  0.00000000000E+00 0.  1.
         21   -1    0    0  502  503 -0.00000000000E+00 -0.00000000000E+00 -0.45212148537E+03  0.45212148537E+03  0.00000000000E+00 0. -1.
          2    1    1    2  501    0 -0.14720874908E+02  0.16255571617E+02 -0.86685538774E+02  0.89416611428E+02  0.00000000000E+00 0. -1.
         -2    1    1    2    0  503  0.14720874908E+02 -0.16255571617E+02 -0.36374015288E+03  0.36440066765E+03  0.00000000000E+00 0.  1.
<mgrwt>
<rscale>  2 0.21930521E+02</rscale>
<asrwt>0</asrwt>
<pdfrwt beam="1">  1       21 0.26089061E-03 0.21930521E+02</pdfrwt>
<pdfrwt beam="2">  1       21 0.69557345E-01 0.21930521E+02</pdfrwt>
<totfact> 0.42684673E+07</totfact>
</mgrwt>
</event>
<event>
 4    1  0.2677450E+004  0.3411406E+02  0.7546771E-02  0.1556612E+00
         21   -1    0    0  503  502  0.00000000000E+00  0.00000000000E+00  0.14121733809E+03  0.14121733809E+03  0.00000000000E+00 0. -1.
         21   -1    0    0  501  503 -0.00000000000E+00 -0.00000000000E+00 -0.96932923134E+02  0.96932923134E+02  0.00000000000E+00 0.  1.
          2    1    1    2  501    0 -0.73663011164E+01  0.33309254641E+02 -0.91758783864E+02  0.97895062455E+02  0.00000000000E+00 0.  1.
         -2    1    1    2    0  502  0.73663011164E+01 -0.33309254641E+02  0.13604319882E+03  0.14025519877E+03  0.00000000000E+00 0. -1.
<mgrwt>
<rscale>  2 0.34114056E+02</rscale>
<asrwt>0</asrwt>
<pdfrwt beam="1">  1       21 0.21725744E-01 0.34114056E+02</pdfrwt>
<pdfrwt beam="2">  1       21 0.14912757E-01 0.34114056E+02</pdfrwt>
<totfact> 0.76043755E+05</totfact>
</mgrwt>
</event>
<event>
 4    1  0.2677450E+004  0.3603986E+02  0.7546771E-02  0.1539556E+00
         21   -1    0    0  501  502  0.00000000000E+00  0.00000000000E+00  0.67444704219E+01  0.67444704219E+01  0.00000000000E+00 0. -1.
         21   -1    0    0  502  503 -0.00000000000E+00 -0.00000000000E+00 -0.19458756977E+03  0.19458756977E+03  0.00000000000E+00 0.  1.
          2    1    1    2  501    0  0.14704221699E+02 -0.32903764103E+02 -0.10413828536E+03  0.11019825001E+03  0.00000000000E+00 0. -1.
         -2    1    1    2    0  503 -0.14704221699E+02  0.32903764103E+02 -0.83704813996E+02  0.91133790188E+02  0.00000000000E+00 0.  1.
<mgrwt>
<rscale>  2 0.36039864E+02</rscale>
<asrwt>0</asrwt>
<pdfrwt beam="1">  1       21 0.10376109E-02 0.36039864E+02</pdfrwt>
<pdfrwt beam="2">  1       21 0.29936548E-01 0.36039864E+02</pdfrwt>
<totfact> 0.31078275E+07</totfact>
</mgrwt>
</event>
<event>
 4    1  0.2677450E+004  0.2136129E+02  0.7546771E-02  0.1719538E+00
         21   -1    0    0  503  502  0.00000000000E+00  0.00000000000E+00  0.23386537342E+01  0.23386537342E+01  0.00000000000E+00 0.  1.
         21   -1    0    0  501  503 -0.00000000000E+00 -0.00000000000E+00 -0.25245100390E+03  0.25245100390E+03  0.00000000000E+00 0. -1.
          2    1    1    2  501    0  0.13305386888E+02 -0.16711410905E+02 -0.18576893179E+03  0.18699304959E+03  0.00000000000E+00 0. -1.
         -2    1    1    2    0  502 -0.13305386888E+02  0.16711410905E+02 -0.64343418371E+02  0.67796608045E+02  0.00000000000E+00 0.  1.
<mgrwt>
<rscale>  2 0.21361287E+02</rscale>
<asrwt>0</asrwt>
<pdfrwt beam="1">  1       21 0.35979278E-03 0.21361287E+02</pdfrwt>
<pdfrwt beam="2">  1       21 0.38838627E-01 0.21361287E+02</pdfrwt>
<totfact> 0.82881487E+07</totfact>
</mgrwt>
</event>
<event>
 4    1  0.2677450E+004  0.3754766E+02  0.7546771E-02  0.1527075E+00
         21   -1    0    0  503  502  0.00000000000E+00  0.00000000000E+00  0.24199287031E+03  0.24199287031E+03  0.00000000000E+00 0.  1.
         21   -1    0    0  501  503 -0.00000000000E+00 -0.00000000000E+00 -0.18364666324E+02  0.18364666324E+02  0.00000000000E+00 0. -1.
          2    1    1    2  501    0  0.35934562407E+02 -0.10887335716E+02  0.42478591960E+01  0.37787182511E+02  0.00000000000E+00 0. -1.
         -2    1    1    2    0  502 -0.35934562407E+02  0.10887335716E+02  0.21938034479E+03  0.22257035412E+03  0.00000000000E+00 0.  1.
<mgrwt>
<rscale>  2 0.37547661E+02</rscale>
<asrwt>0</asrwt>
<pdfrwt beam="1">  1       21 0.37229670E-01 0.37547661E+02</pdfrwt>
<pdfrwt beam="2">  1       21 0.28253335E-02 0.37547661E+02</pdfrwt>
<totfact> 0.43858191E+06</totfact>
</mgrwt>
</event>
<event>
 4    1  0.2677450E+004  0.2383027E+02  0.7546771E-02  0.1678395E+00
         21   -1    0    0  503  502  0.00000000000E+00  0.00000000000E+00  0.21705971482E+02  0.21705971482E+02  0.00000000000E+00 0.  1.
         21   -1    0    0  501  503 -0.00000000000E+00 -0.00000000000E+00 -0.45521282720E+02  0.45521282720E+02  0.00000000000E+00 0. -1.
          2    1    1    2  501    0 -0.17361143601E+02  0.16323985073E+02 -0.33828006814E+02  0.41378929914E+02  0.00000000000E+00 0. -1.
         -2    1    1    2    0  502  0.17361143601E+02 -0.16323985073E+02  0.10012695576E+02  0.25848324288E+02  0.00000000000E+00 0.  1.
<mgrwt>
<rscale>  2 0.23830271E+02</rscale>
<asrwt>0</asrwt>
<pdfrwt beam="1">  1       21 0.33393802E-02 0.23830271E+02</pdfrwt>
<pdfrwt beam="2">  1       21 0.70032743E-02 0.23830271E+02</pdfrwt>
<totfact> 0.56988044E+07</totfact>
</mgrwt>
</event>
<event>
 4    1  0.2677450E+004  0.5646689E+02  0.7546771E-02  0.1413287E+00
         21   -1    0    0  501  502  0.00000000000E+00  0.00000000000E+00  0.45146582110E+01  0.45146582110E+01  0.00000000000E+00 0.  1.
         21   -1    0    0  502  503 -0.00000000000E+00 -0.00000000000E+00 -0.15677919860E+04  0.15677919860E+04  0.00000000000E+00 0. -1.
          2    1    1    2  501    0  0.32042175675E+02  0.46495252284E+02 -0.19886560997E+03  0.20672697051E+03  0.00000000000E+00 0.  1.
         -2    1    1    2    0  503 -0.32042175675E+02 -0.46495252284E+02 -0.13644117178E+04  0.13655796737E+04  0.00000000000E+00 0. -1.
<mgrwt>
<rscale>  2 0.56466889E+02</rscale>
<asrwt>0</asrwt>
<pdfrwt beam="1">  1       21 0.69456204E-03 0.56466889E+02</pdfrwt>
<pdfrwt beam="2">  1       21 0.24119903E+00 0.56466889E+02</pdfrwt>
<totfact> 0.54559219E+05</totfact>
</mgrwt>
</event>
<event>
 4    1  0.2677450E+004  0.2011808E+02  0.7546771E-02  0.1742990E+00
         21   -1    0    0  501  502  0.00000000000E+00  0.00000000000E+00  0.88192158529E+03  0.88192158529E+03  0.00000000000E+00 0.  1.
         21   -1    0    0  502  503 -0.00000000000E+00 -0.00000000000E+00 -0.47895646275E+00  0.47895646275E+00  0.00000000000E+00 0. -1.
          2    1    1    2  501    0  0.19188492936E+02  0.60447453430E+01  0.53094645434E+03  0.53132746455E+03  0.00000000000E+00 0.  1.
         -2    1    1    2    0  503 -0.19188492936E+02 -0.60447453430E+01  0.35049617448E+03  0.35107307720E+03  0.00000000000E+00 0. -1.
<mgrwt>
<rscale>  2 0.20118082E+02</rscale>
<asrwt>0</asrwt>
<pdfrwt beam="1">  1       21 0.13567894E+00 0.20118082E+02</pdfrwt>
<pdfrwt beam="2">  1       21 0.73686315E-04 0.20118082E+02</pdfrwt>
<totfact> 0.59878376E+07</totfact>
</mgrwt>
</event>
<event>
 4    1  0.2677450E+004  0.2695814E+02  0.7546771E-02  0.1634371E+00
         21   -1    0    0  501  502  0.00000000000E+00  0.00000000000E+00  0.25272037041E+02  0.25272037041E+02  0.00000000000E+00 0.  1.
         21   -1    0    0  502  503 -0.00000000000E+00 -0.00000000000E+00 -0.31441174793E+02  0.31441174793E+02  0.00000000000E+00 0. -1.
          2    1    1    2  501    0 -0.67877923334E+01 -0.26089599037E+02  0.52011768463E+01  0.27455300823E+02  0.00000000000E+00 0. -1.
         -2    1    1    2    0  503  0.67877923334E+01  0.26089599037E+02 -0.11370314599E+02  0.29257911012E+02  0.00000000000E+00 0.  1.
<mgrwt>
<rscale>  2 0.26958140E+02</rscale>
<asrwt>0</asrwt>
<pdfrwt beam="1">  1       21 0.38880057E-02 0.26958140E+02</pdfrwt>
<pdfrwt beam="2">  1       21 0.48371038E-02 0.26958140E+02</pdfrwt>
<totfact> 0.83983635E+07</totfact>
</mgrwt>
</event>
<event>
 4    1  0.2677450E+004  0.2423984E+02  0.7546771E-02  0.1672167E+00
         21   -1    0    0  503  502  0.00000000000E+00  0.00000000000E+00  0.10634775168E+03  0.10634775168E+03  0.00000000000E+00 0. -1.
         21   -1    0    0  501  503 -0.00000000000E+00 -0.00000000000E+00 -0.30106802998E+02  0.30106802998E+02  0.00000000000E+00 0.  1.
          2    1    1    2  501    0 -0.22867956884E+02  0.80390486418E+01 -0.23529474134E+02  0.33781739270E+02  0.00000000000E+00 0.  1.
         -2    1    1    2    0  502  0.22867956884E+02 -0.80390486418E+01  0.99770422813E+02  0.10267281541E+03  0.00000000000E+00 0. -1.
<mgrwt>
<rscale>  2 0.24239838E+02</rscale>
<asrwt>0</asrwt>
<pdfrwt beam="1">  1       21 0.16361192E-01 0.24239838E+02</pdfrwt>
<pdfrwt beam="2">  1       21 0.46318159E-02 0.24239838E+02</pdfrwt>
<totfact> 0.83026812E+06</totfact>
</mgrwt>
</event>
<event>
 4    1  0.2677450E+004  0.2901968E+02  0.7546771E-02  0.1609185E+00
         21   -1    0    0  503  502  0.00000000000E+00  0.00000000000E+00  0.66394942578E+01  0.66394942578E+01  0.00000000000E+00 0.  1.
         21   -1    0    0  501  503 -0.00000000000E+00 -0.00000000000E+00 -0.15033819755E+03  0.15033819755E+03  0.00000000000E+00 0. -1.
          2    1    1    2  501    0  0.63570947441E+01 -0.28314822996E+02 -0.10288113175E+03  0.10689559919E+03  0.00000000000E+00 0. -1.
         -2    1    1    2    0  502 -0.63570947441E+01  0.28314822996E+02 -0.40817571540E+02  0.50082092622E+02  0.00000000000E+00 0.  1.
<mgrwt>
<rscale>  2 0.29019680E+02</rscale>
<asrwt>0</asrwt>
<pdfrwt beam="1">  1       21 0.10214607E-02 0.29019680E+02</pdfrwt>
<pdfrwt beam="2">  1       21 0.23128952E-01 0.29019680E+02</pdfrwt>
<totfact> 0.48766250E+07</totfact>
</mgrwt>
</event>
<event>
 4    1  0.2677450E+004  0.2143326E+02  0.7546771E-02  0.1718242E+00
         21   -1    0    0  501  502  0.00000000000E+00  0.00000000000E+00  0.80848411912E+02  0.80848411912E+02  0.00000000000E+00 0.  1.
         21   -1    0    0  502  503 -0.00000000000E+00 -0.00000000000E+00 -0.11325565990E+02  0.11325565990E+02  0.00000000000E+00 0. -1.
          2    1    1    2  501    0 -0.26442283614E-01 -0.21433245129E+02  0.67294359667E+02  0.70625176381E+02  0.00000000000E+00 0.  1.
         -2    1    1    2    0  503  0.26442283614E-01  0.21433245129E+02  0.22284862555E+01  0.21548801520E+02  0.00000000000E+00 0. -1.
<mgrwt>
<rscale>  2 0.21433261E+02</rscale>
<asrwt>0</asrwt>
<pdfrwt beam="1">  1       21 0.12438217E-01 0.21433261E+02</pdfrwt>
<pdfrwt beam="2">  1       21 0.17423948E-02 0.21433261E+02</pdfrwt>
<totfact> 0.58749928E+07</totfact>
</mgrwt>
</event>
<event>
 4    1  0.2677450E+004  0.4090549E+02  0.7546771E-02  0.1501652E+00
         21   -1    0    0  503  502  0.00000000000E+00  0.00000000000E+00  0.85397244536E+01  0.85397244536E+01  0.00000000000E+00 0.  1.
         21   -1    0    0  501  503 -0.00000000000E+00 -0.00000000000E+00 -0.50773901044E+03  0.50773901044E+03  0.00000000000E+00 0. -1.
          2    1    1    2  501    0  0.38649498469E+02  0.13396832404E+02 -0.45188877238E+03  0.45373640084E+03  0.00000000000E+00 0. -1.
         -2    1    1    2    0  502 -0.38649498469E+02 -0.13396832404E+02 -0.47310513608E+02  0.62542334048E+02  0.00000000000E+00 0.  1.
<mgrwt>
<rscale>  2 0.40905487E+02</rscale>
<asrwt>0</asrwt>
<pdfrwt beam="1">  1       21 0.13138038E-02 0.40905487E+02</pdfrwt>
<pdfrwt beam="2">  1       21 0.78113694E-01 0.40905487E+02</pdfrwt>
<totfact> 0.32873295E+06</totfact>
</mgrwt>
</event>
<event>
 4    1  0.2677450E+004  0.2165473E+02  0.7546771E-02  0.1714293E+00
         21   -1    0    0  503  502  0.00000000000E+00  0.00000000000E+00  0.48686716188E+02  0.48686716188E+02  0.00000000000E+00 0. -1.
         21   -1    0    0  501  503 -0.00000000000E+00 -0.00000000000E+00 -0.10035223008E+02  0.10035223008E+02  0.00000000000E+00 0.  1.
          2    1    1    2  501    0 -0.33583215446E+00 -0.21652122510E+02  0.25214679921E+02  0.33237137000E+02  0.00000000000E+00 0. -1.
         -2    1    1    2    0  502  0.33583215446E+00  0.21652122510E+02  0.13436813260E+02  0.25484802196E+02  0.00000000000E+00 0.  1.
<mgrwt>
<rscale>  2 0.21654727E+02</rscale>
<asrwt>0</asrwt>
<pdfrwt beam="1">  1       21 0.74902639E-02 0.21654727E+02</pdfrwt>
<pdfrwt beam="2">  1       21 0.15438805E-02 0.21654727E+02</pdfrwt>
<totfact> 0.16323690E+08</totfact>
</mgrwt>
</event>
<event>
 4    1  0.2677450E+004  0.2188046E+02  0.7546771E-02  0.1710328E+00
         21   -1    0    0  501  502  0.00000000000E+00  0.00000000000E+00  0.98632414717E+00  0.98632414717E+00  0.00000000000E+00 0. -1.
         21   -1    0    0  502  503 -0.00000000000E+00 -0.00000000000E+00 -0.50779084434E+03  0.50779084434E+03  0.00000000000E+00 0.  1.
          2    1    1    2  501    0 -0.10379969587E+02 -0.19261642472E+02 -0.19997532796E+03  0.20116880084E+03  0.00000000000E+00 0. -1.
         -2    1    1    2    0  503  0.10379969587E+02  0.19261642472E+02 -0.30682919224E+03  0.30760836765E+03  0.00000000000E+00 0.  1.
<mgrwt>
<rscale>  2 0.21880463E+02</rscale>
<asrwt>0</asrwt>
<pdfrwt beam="1">  1       21 0.15174227E-03 0.21880463E+02</pdfrwt>
<pdfrwt beam="2">  1       21 0.78121618E-01 0.21880463E+02</pdfrwt>
<totfact> 0.73318280E+07</totfact>
</mgrwt>
</event>
<event>
 4    1  0.2677450E+004  0.2490252E+02  0.7546771E-02  0.1662406E+00
         21   -1    0    0  503  502  0.00000000000E+00  0.00000000000E+00  0.61464868303E+01  0.61464868303E+01  0.00000000000E+00 0. -1.
         21   -1    0    0  501  503 -0.00000000000E+00 -0.00000000000E+00 -0.13929065158E+03  0.13929065158E+03  0.00000000000E+00 0.  1.
          2    1    1    2  501    0  0.15215086934E+02 -0.19713872084E+02 -0.10475229961E+03  0.10767162995E+03  0.00000000000E+00 0.  1.
         -2    1    1    2    0  502 -0.15215086934E+02  0.19713872084E+02 -0.28391865137E+02  0.37765508455E+02  0.00000000000E+00 0. -1.
<mgrwt>
<rscale>  2 0.24902522E+02</rscale>
<asrwt>0</asrwt>
<pdfrwt beam="1">  1       21 0.94561330E-03 0.24902522E+02</pdfrwt>
<pdfrwt beam="2">  1       21 0.21429332E-01 0.24902522E+02</pdfrwt>
<totfact> 0.60562310E+07</totfact>
</mgrwt>
</event>
<event>
 4    1  0.2677450E+004  0.3224156E+02  0.7546771E-02  0.1574556E+00
         21   -1    0    0  501  502  0.00000000000E+00  0.00000000000E+00  0.14961401389E+01  0.14961401389E+01  0.00000000000E+00 0. -1.
         21   -1    0    0  502  503 -0.00000000000E+00 -0.00000000000E+00 -0.69522261908E+03  0.69522261908E+03  0.00000000000E+00 0.  1.
          2    1    1    2  501    0 -0.20261905303E+02  0.25079336164E+02 -0.35545395267E+03  0.35691319726E+03  0.00000000000E+00 0.  1.
         -2    1    1    2    0  503  0.20261905303E+02 -0.25079336164E+02 -0.33827252627E+03  0.33980556195E+03  0.00000000000E+00 0. -1.
<mgrwt>
<rscale>  2 0.32241556E+02</rscale>
<asrwt>0</asrwt>
<pdfrwt beam="1">  1       21 0.23017472E-03 0.32241556E+02</pdfrwt>
<pdfrwt beam="2">  1       21 0.10695765E+00 0.32241556E+02</pdfrwt>
<totfact> 0.21918148E+07</totfact>
</mgrwt>
</event>
<event>
 4    1  0.2677450E+004  0.2395440E+02  0.7546771E-02  0.1676491E+00
         21   -1    0    0  503  502  0.00000000000E+00  0.00000000000E+00  0.28442126259E+01  0.28442126259E+01  0.00000000000E+00 0. -1.
         21   -1    0    0  501  503 -0.00000000000E+00 -0.00000000000E+00 -0.32155154036E+03  0.32155154036E+03  0.00000000000E+00 0.  1.
          2    1    1    2  501    0 -0.23190039599E+02  0.60029467742E+01 -0.25835823983E+03  0.25946636274E+03  0.00000000000E+00 0.  1.
         -2    1    1    2    0  502  0.23190039599E+02 -0.60029467742E+01 -0.60349087906E+02  0.64929390245E+02  0.00000000000E+00 0. -1.
<mgrwt>
<rscale>  2 0.23954401E+02</rscale>
<asrwt>0</asrwt>
<pdfrwt beam="1">  1       21 0.43757135E-03 0.23954401E+02</pdfrwt>
<pdfrwt beam="2">  1       21 0.49469448E-01 0.23954401E+02</pdfrwt>
<totfact> 0.40337931E+07</totfact>
</mgrwt>
</event>
<event>
 4    1  0.2677450E+004  0.2193984E+02  0.7546771E-02  0.1709294E+00
         21   -1    0    0  501  502  0.00000000000E+00  0.00000000000E+00  0.75151684235E+02  0.75151684235E+02  0.00000000000E+00 0. -1.
         21   -1    0    0  502  503 -0.00000000000E+00 -0.00000000000E+00 -0.10368916811E+02  0.10368916811E+02  0.00000000000E+00 0.  1.
          2    1    1    2  501    0 -0.19031284214E+02 -0.10916356410E+02  0.58829406508E+02  0.62787384769E+02  0.00000000000E+00 0. -1.
         -2    1    1    2    0  503  0.19031284214E+02  0.10916356410E+02  0.59533609160E+01  0.22733216277E+02  0.00000000000E+00 0.  1.
<mgrwt>
<rscale>  2 0.21939841E+02</rscale>
<asrwt>0</asrwt>
<pdfrwt beam="1">  1       21 0.11561797E-01 0.21939841E+02</pdfrwt>
<pdfrwt beam="2">  1       21 0.15952180E-02 0.21939841E+02</pdfrwt>
<totfact> 0.76399086E+07</totfact>
</mgrwt>
</event>
<event>
 4    1  0.2677450E+004  0.2048280E+02  0.7546771E-02  0.1735894E+00
         21   -1    0    0  501  502  0.00000000000E+00  0.00000000000E+00  0.52010886036E+03  0.52010886036E+03  0.00000000000E+00 0.  1.
         21   -1    0    0  502  503 -0.00000000000E+00 -0.00000000000E+00 -0.38219624688E+02  0.38219624688E+02  0.00000000000E+00 0. -1.
          2    1    1    2  501    0  0.19131989596E+02 -0.73151871992E+01  0.51714718449E+03  0.51755265956E+03  0.00000000000E+00 0.  1.
         -2    1    1    2    0  503 -0.19131989596E+02  0.73151871992E+01 -0.35257948817E+02  0.40775825491E+02  0.00000000000E+00 0. -1.
<mgrwt>
<rscale>  2 0.20482797E+02</rscale>
<asrwt>0</asrwt>
<pdfrwt beam="1">  1       21 0.80016743E-01 0.20482797E+02</pdfrwt>
<pdfrwt beam="2">  1       21 0.58799426E-02 0.20482797E+02</pdfrwt>
<totfact> 0.28491183E+05</totfact>
</mgrwt>
</event>
<event>
 4    1  0.2677450E+004  0.2033256E+02  0.7546771E-02  0.1738794E+00
         21   -1    0    0  501  502  0.00000000000E+00  0.00000000000E+00  0.27684981041E+03  0.27684981041E+03  0.00000000000E+00 0. -1.
         21   -1    0    0  502  503 -0.00000000000E+00 -0.00000000000E+00 -0.18112524849E+01  0.18112524849E+01  0.00000000000E+00 0.  1.
          2    1    1    2  501    0  0.19693367257E+02 -0.50580905655E+01  0.19589802349E+03  0.19695037091E+03  0.00000000000E+00 0. -1.
         -2    1    1    2    0  503 -0.19693367257E+02  0.50580905655E+01  0.79140534437E+02  0.81710691988E+02  0.00000000000E+00 0.  1.
<mgrwt>
<rscale>  2 0.20332560E+02</rscale>
<asrwt>0</asrwt>
<pdfrwt beam="1">  1       21 0.42592245E-01 0.20332560E+02</pdfrwt>
<pdfrwt beam="2">  1       21 0.27865445E-03 0.20332560E+02</pdfrwt>
<totfact> 0.99705585E+07</totfact>
</mgrwt>
</event>
<event>
 4    1  0.2677450E+004  0.2013203E+02  0.7546771E-02  0.1742715E+00
         21   -1    0    0  501  502  0.00000000000E+00  0.00000000000E+00  0.82398726240E+02  0.82398726240E+02  0.00000000000E+00 0.  1.
         21   -1    0    0  502  503 -0.00000000000E+00 -0.00000000000E+00 -0.75061269645E+01  0.75061269645E+01  0.00000000000E+00 0. -1.
          2    1    1    2  501    0  0.14669695212E+02  0.13787620650E+02  0.63838484255E+02  0.66937661393E+02  0.00000000000E+00 0.  1.
         -2    1    1    2    0  503 -0.14669695212E+02 -0.13787620650E+02  0.11054115021E+02  0.22967191811E+02  0.00000000000E+00 0. -1.
<mgrwt>
<rscale>  2 0.20132025E+02</rscale>
<asrwt>0</asrwt>
<pdfrwt beam="1">  1       21 0.12676727E-01 0.20132025E+02</pdfrwt>
<pdfrwt beam="2">  1       21 0.11547888E-02 0.20132025E+02</pdfrwt>
<totfact> 0.10414452E+08</totfact>
</mgrwt>
</event>
<event>
 4    1  0.2677450E+004  0.2054151E+02  0.7546771E-02  0.1734769E+00
         21   -1    0    0  503  502  0.00000000000E+00  0.00000000000E+00  0.39846702378E+02  0.39846702378E+02  0.00000000000E+00 0. -1.
         21   -1    0    0  501  503 -0.00000000000E+00 -0.00000000000E+00 -0.11261101802E+02  0.11261101802E+02  0.00000000000E+00 0.  1.
          2    1    1    2  501    0  0.19519020937E+02 -0.64001286261E+01  0.80519225719E+01  0.22063256375E+02  0.00000000000E+00 0.  1.
         -2    1    1    2    0  502 -0.19519020937E+02  0.64001286261E+01  0.20533678004E+02  0.29044547805E+02  0.00000000000E+00 0. -1.
<mgrwt>
<rscale>  2 0.20541515E+02</rscale>
<asrwt>0</asrwt>
<pdfrwt beam="1">  1       21 0.61302618E-02 0.20541515E+02</pdfrwt>
<pdfrwt beam="2">  1       21 0.17324772E-02 0.20541515E+02</pdfrwt>
<totfact> 0.18610765E+08</totfact>
</mgrwt>
</event>
<event>
 4    1  0.2677450E+004  0.2505082E+02  0.7546771E-02  0.1660273E+00
         21   -1    0    0  503  502  0.00000000000E+00  0.00000000000E+00  0.61074214711E+03  0.61074214711E+03  0.00000000000E+00 0.  1.
         21   -1    0    0  501  503 -0.00000000000E+00 -0.00000000000E+00 -0.10607726840E+01  0.10607726840E+01  0.00000000000E+00 0. -1.
          2    1    1    2  501    0 -0.20172703315E+02 -0.14852799201E+02  0.25067182960E+03  0.25192044331E+03  0.00000000000E+00 0. -1.
         -2    1    1    2    0  502  0.20172703315E+02  0.14852799201E+02  0.35900954483E+03  0.35988247649E+03  0.00000000000E+00 0.  1.
<mgrwt>
<rscale>  2 0.25050820E+02</rscale>
<asrwt>0</asrwt>
<pdfrwt beam="1">  1       21 0.93960049E-01 0.25050820E+02</pdfrwt>
<pdfrwt beam="2">  1       21 0.16319629E-03 0.25050820E+02</pdfrwt>
<totfact> 0.45990491E+07</totfact>
</mgrwt>
</event>
<event>
 4    1  0.2677450E+004  0.2544266E+02  0.7546771E-02  0.1654724E+00
         21   -1    0    0  501  502  0.00000000000E+00  0.00000000000E+00  0.55738625824E+01  0.55738625824E+01  0.00000000000E+00 0. -1.
         21   -1    0    0  502  503 -0.00000000000E+00 -0.00000000000E+00 -0.11649304662E+03  0.11649304662E+03  0.00000000000E+00 0.  1.
          2    1    1    2  501    0 -0.23569376333E+02 -0.95819444220E+01 -0.52083246794E+02  0.57965453128E+02  0.00000000000E+00 0.  1.
         -2    1    1    2    0  503  0.23569376333E+02  0.95819444220E+01 -0.58835937246E+02  0.64101456078E+02  0.00000000000E+00 0. -1.
<mgrwt>
<rscale>  2 0.25442664E+02</rscale>
<asrwt>0</asrwt>
<pdfrwt beam="1">  1       21 0.85751742E-03 0.25442664E+02</pdfrwt>
<pdfrwt beam="2">  1       21 0.17922005E-01 0.25442664E+02</pdfrwt>
<totfact> 0.96386797E+07</totfact>
</mgrwt>
</event>
<event>
 4    1  0.2677450E+004  0.2315418E+02  0.7546771E-02  0.1689023E+00
         21   -1    0    0  501  502  0.00000000000E+00  0.00000000000E+00  0.37471030270E+02  0.37471030270E+02  0.00000000000E+00 0. -1.
         21   -1    0    0  502  503 -0.00000000000E+00 -0.00000000000E+00 -0.14319596285E+02  0.14319596285E+02  0.00000000000E+00 0.  1.
          2    1    1    2  501    0 -0.62156718576E+00  0.23145840336E+02  0.10822675720E+02  0.25558688941E+02  0.00000000000E+00 0. -1.
         -2    1    1    2    0  503  0.62156718576E+00 -0.23145840336E+02  0.12328758265E+02  0.26231937614E+02  0.00000000000E+00 0.  1.
<mgrwt>
<rscale>  2 0.23154185E+02</rscale>
<asrwt>0</asrwt>
<pdfrwt beam="1">  1       21 0.57647738E-02 0.23154185E+02</pdfrwt>
<pdfrwt beam="2">  1       21 0.22030148E-02 0.23154185E+02</pdfrwt>
<totfact> 0.14757485E+08</totfact>
</mgrwt>
</event>
<event>
 4    1  0.2677450E+004  0.2249569E+02  0.7546771E-02  0.1699818E+00
         21   -1    0    0  503  502  0.00000000000E+00  0.00000000000E+00  0.92390925258E+01  0.92390925258E+01  0.00000000000E+00 0. -1.
         21   -1    0    0  501  503 -0.00000000000E+00 -0.00000000000E+00 -0.55648095045E+02  0.55648095045E+02  0.00000000000E+00 0.  1.
          2    1    1    2  501    0 -0.30148675271E+01 -0.22292749765E+02 -0.27272142836E+02  0.35352876730E+02  0.00000000000E+00 0. -1.
         -2    1    1    2    0  502  0.30148675271E+01  0.22292749765E+02 -0.19136859683E+02  0.29534310840E+02  0.00000000000E+00 0.  1.
<mgrwt>
<rscale>  2 0.22495691E+02</rscale>
<asrwt>0</asrwt>
<pdfrwt beam="1">  1       21 0.14213988E-02 0.22495691E+02</pdfrwt>
<pdfrwt beam="2">  1       21 0.85612456E-02 0.22495691E+02</pdfrwt>
<totfact> 0.15059113E+08</totfact>
</mgrwt>
</event>
<event>
 4    1  0.2677450E+004  0.4172354E+02  0.7546771E-02  0.1495898E+00
         21   -1    0    0  503  502  0.00000000000E+00  0.00000000000E+00  0.19069935926E+03  0.19069935926E+03  0.00000000000E+00 0. -1.
         21   -1    0    0  501  503 -0.00000000000E+00 -0.00000000000E+00 -0.15523299661E+02  0.15523299661E+02  0.00000000000E+00 0.  1.
          2    1    1    2  501    0 -0.41463533716E+02 -0.46507476683E+01  0.21409357936E+02  0.46895785411E+02  0.00000000000E+00 0.  1.
         -2    1    1    2    0  502  0.41463533716E+02  0.46507476683E+01  0.15376670167E+03  0.15932687351E+03  0.00000000000E+00 0. -1.
<mgrwt>
<rscale>  2 0.41723543E+02</rscale>
<asrwt>0</asrwt>
<pdfrwt beam="1">  1       21 0.29338361E-01 0.41723543E+02</pdfrwt>
<pdfrwt beam="2">  1       21 0.23882001E-02 0.41723543E+02</pdfrwt>
<totfact> 0.90599007E+06</totfact>
</mgrwt>
</event>
<event>
 4    1  0.2677450E+004  0.3097919E+02  0.7546771E-02  0.1587511E+00
         21   -1    0    0  503  502  0.00000000000E+00  0.00000000000E+00  0.26592063410E+03  0.26592063410E+03  0.00000000000E+00 0.  1.
         21   -1    0    0  501  503 -0.00000000000E+00 -0.00000000000E+00 -0.10362381913E+02  0.10362381913E+02  0.00000000000E+00 0. -1.
          2    1    1    2  501    0 -0.25396984165E+02 -0.17739876181E+02  0.16258613960E+02  0.34986462232E+02  0.00000000000E+00 0. -1.
         -2    1    1    2    0  502  0.25396984165E+02  0.17739876181E+02  0.23929963822E+03  0.24129655378E+03  0.00000000000E+00 0.  1.
<mgrwt>
<rscale>  2 0.30979187E+02</rscale>
<asrwt>0</asrwt>
<pdfrwt beam="1">  1       21 0.40910862E-01 0.30979187E+02</pdfrwt>
<pdfrwt beam="2">  1       21 0.15942128E-02 0.30979187E+02</pdfrwt>
<totfact> 0.87264232E+06</totfact>
</mgrwt>
</event>
<event>
 4    1  0.2677450E+004  0.5717552E+02  0.7546771E-02  0.1410082E+00
         21   -1    0    0  503  502  0.00000000000E+00  0.00000000000E+00  0.73042346481E+02  0.73042346481E+02  0.00000000000E+00 0.  1.
         21   -1    0    0  501  503 -0.00000000000E+00 -0.00000000000E+00 -0.10355782283E+03  0.10355782283E+03  0.00000000000E+00 0. -1.
          2    1    1    2  501    0  0.60400172928E+00  0.57172329863E+02 -0.81795354716E+02  0.99797395623E+02  0.00000000000E+00 0. -1.
         -2    1    1    2    0  502 -0.60400172928E+00 -0.57172329863E+02  0.51279878370E+02  0.76802773685E+02  0.00000000000E+00 0.  1.
<mgrwt>
<rscale>  2 0.57175520E+02</rscale>
<asrwt>0</asrwt>
<pdfrwt beam="1">  1       21 0.11237284E-01 0.57175520E+02</pdfrwt>
<pdfrwt beam="2">  1       21 0.15931973E-01 0.57175520E+02</pdfrwt>
<totfact> 0.22178062E+06</totfact>
</mgrwt>
</event>
<event>
 4    1  0.2677450E+004  0.2137782E+02  0.7546771E-02  0.1719240E+00
         21   -1    0    0  501  502  0.00000000000E+00  0.00000000000E+00  0.12953314089E+02  0.12953314089E+02  0.00000000000E+00 0.  1.
         21   -1    0    0  502  503 -0.00000000000E+00 -0.00000000000E+00 -0.35936737073E+02  0.35936737073E+02  0.00000000000E+00 0. -1.
          2    1    1    2  501    0  0.20396835163E+02  0.64016016938E+01 -0.81907153319E+01  0.22893213111E+02  0.00000000000E+00 0.  1.
         -2    1    1    2    0  503 -0.20396835163E+02 -0.64016016938E+01 -0.14792707653E+02  0.25996838050E+02  0.00000000000E+00 0. -1.
<mgrwt>
<rscale>  2 0.21377825E+02</rscale>
<asrwt>0</asrwt>
<pdfrwt beam="1">  1       21 0.19928175E-02 0.21377825E+02</pdfrwt>
<pdfrwt beam="2">  1       21 0.55287288E-02 0.21377825E+02</pdfrwt>
<totfact> 0.17955092E+08</totfact>
</mgrwt>
</event>
<event>
 4    1  0.2677450E+004  0.4363411E+02  0.7546771E-02  0.1483053E+00
         21   -1    0    0  503  502  0.00000000000E+00  0.00000000000E+00  0.23687202337E+02  0.23687202337E+02  0.00000000000E+00 0.  1.
         21   -1    0    0  501  503 -0.00000000000E+00 -0.00000000000E+00 -0.87012758811E+02  0.87012758811E+02  0.00000000000E+00 0. -1.
          2    1    1    2  501    0  0.36155984003E+02 -0.24427036260E+02 -0.46946573402E+02  0.64093026406E+02  0.00000000000E+00 0. -1.
         -2    1    1    2    0  502 -0.36155984003E+02  0.24427036260E+02 -0.16378983072E+02  0.46606934743E+02  0.00000000000E+00 0.  1.
<mgrwt>
<rscale>  2 0.43634107E+02</rscale>
<asrwt>0</asrwt>
<pdfrwt beam="1">  1       21 0.36441850E-02 0.43634107E+02</pdfrwt>
<pdfrwt beam="2">  1       21 0.13386578E-01 0.43634107E+02</pdfrwt>
<totfact> 0.18940296E+07</totfact>
</mgrwt>
</event>
<event>
 4    1  0.2677450E+004  0.5507709E+02  0.7546771E-02  0.1419735E+00
         21   -1    0    0  501  502  0.00000000000E+00  0.00000000000E+00  0.14462646541E+03  0.14462646541E+03  0.00000000000E+00 0. -1.
         21   -1    0    0  502  503 -0.00000000000E+00 -0.00000000000E+00 -0.21625054280E+02  0.21625054280E+02  0.00000000000E+00 0.  1.
          2    1    1    2  501    0  0.21122900488E+00  0.55076689673E+02  0.47084334743E+02  0.72459788443E+02  0.00000000000E+00 0.  1.
         -2    1    1    2    0  503 -0.21122900488E+00 -0.55076689673E+02  0.75917076387E+02  0.93791731246E+02  0.00000000000E+00 0. -1.
<mgrwt>
<rscale>  2 0.55077095E+02</rscale>
<asrwt>0</asrwt>
<pdfrwt beam="1">  1       21 0.22250225E-01 0.55077095E+02</pdfrwt>
<pdfrwt beam="2">  1       21 0.33269315E-02 0.55077095E+02</pdfrwt>
<totfact> 0.91743417E+06</totfact>
</mgrwt>
</event>
<event>
 4    1  0.2677450E+004  0.3271160E+02  0.7546771E-02  0.1569915E+00
         21   -1    0    0  503  502  0.00000000000E+00  0.00000000000E+00  0.69191487424E+01  0.69191487424E+01  0.00000000000E+00 0.  1.
         21   -1    0    0  501  503 -0.00000000000E+00 -0.00000000000E+00 -0.15508326094E+03  0.15508326094E+03  0.00000000000E+00 0. -1.
          2    1    1    2  501    0  0.26339824401E+02  0.19397480901E+02 -0.78361820793E+02  0.84915390671E+02  0.00000000000E+00 0.  1.
         -2    1    1    2    0  502 -0.26339824401E+02 -0.19397480901E+02 -0.69802291404E+02  0.77087019011E+02  0.00000000000E+00 0. -1.
<mgrwt>
<rscale>  2 0.32711598E+02</rscale>
<asrwt>0</asrwt>
<pdfrwt beam="1">  1       21 0.10644845E-02 0.32711598E+02</pdfrwt>
<pdfrwt beam="2">  1       21 0.23858962E-01 0.32711598E+02</pdfrwt>
<totfact> 0.44405755E+07</totfact>
</mgrwt>
</event>
<event>
 4    1  0.2677450E+004  0.2448023E+02  0.7546771E-02  0.1668582E+00
         21   -1    0    0  501  502  0.00000000000E+00  0.00000000000E+00  0.74292541746E+02  0.74292541746E+02  0.00000000000E+00 0. -1.
         21   -1    0    0  502  503 -0.00000000000E+00 -0.00000000000E+00 -0.72593020360E+02  0.72593020360E+02  0.00000000000E+00 0.  1.
          2    1    1    2  501    0 -0.18921338691E+02  0.15532693810E+02  0.70091945921E+02  0.74243939267E+02  0.00000000000E+00 0. -1.
         -2    1    1    2    0  503  0.18921338691E+02 -0.15532693810E+02 -0.68392424535E+02  0.72641622839E+02  0.00000000000E+00 0.  1.
<mgrwt>
<rscale>  2 0.24480229E+02</rscale>
<asrwt>0</asrwt>
<pdfrwt beam="1">  1       21 0.11429622E-01 0.24480229E+02</pdfrwt>
<pdfrwt beam="2">  1       21 0.11168157E-01 0.24480229E+02</pdfrwt>
<totfact> 0.36478664E+06</totfact>
</mgrwt>
</event>
<event>
 4    1  0.2677450E+004  0.2084599E+02  0.7546771E-02  0.1729010E+00
         21   -1    0    0  503  502  0.00000000000E+00  0.00000000000E+00  0.14110736510E+02  0.14110736510E+02  0.00000000000E+00 0.  1.
         21   -1    0    0  501  503 -0.00000000000E+00 -0.00000000000E+00 -0.42911114203E+02  0.42911114203E+02  0.00000000000E+00 0. -1.
          2    1    1    2  501    0  0.74689899989E+01  0.19461999051E+02 -0.29549362103E+02  0.36162411692E+02  0.00000000000E+00 0. -1.
         -2    1    1    2    0  502 -0.74689899989E+01 -0.19461999051E+02  0.74898440959E+00  0.20859439022E+02  0.00000000000E+00 0.  1.
<mgrwt>
<rscale>  2 0.20845988E+02</rscale>
<asrwt>0</asrwt>
<pdfrwt beam="1">  1       21 0.21708825E-02 0.20845988E+02</pdfrwt>
<pdfrwt beam="2">  1       21 0.66017099E-02 0.20845988E+02</pdfrwt>
<totfact> 0.11763916E+08</totfact>
</mgrwt>
</event>
<event>
 4    1  0.2677450E+004  0.3044707E+02  0.7546771E-02  0.1593199E+00
         21   -1    0    0  503  502  0.00000000000E+00  0.00000000000E+00  0.14540445940E+02  0.14540445940E+02  0.00000000000E+00 0.  1.
         21   -1    0    0  501  503 -0.00000000000E+00 -0.00000000000E+00 -0.13465233218E+03  0.13465233218E+03  0.00000000000E+00 0. -1.
          2    1    1    2  501    0  0.49950131383E+01  0.30034542304E+02 -0.11418447957E+03  0.11817410572E+03  0.00000000000E+00 0. -1.
         -2    1    1    2    0  502 -0.49950131383E+01 -0.30034542304E+02 -0.59274066690E+01  0.31018672400E+02  0.00000000000E+00 0.  1.
<mgrwt>
<rscale>  2 0.30447067E+02</rscale>
<asrwt>0</asrwt>
<pdfrwt beam="1">  1       21 0.22369917E-02 0.30447067E+02</pdfrwt>
<pdfrwt beam="2">  1       21 0.20715744E-01 0.30447067E+02</pdfrwt>
<totfact> 0.17984717E+07</totfact>
</mgrwt>
</event>
<event>
 4    1  0.2677450E+004  0.2153945E+02  0.7546771E-02  0.1716341E+00
         21   -1    0    0  501  502  0.00000000000E+00  0.00000000000E+00  0.28491138623E+02  0.28491138623E+02  0.00000000000E+00 0.  1.
         21   -1    0    0  502  503 -0.00000000000E+00 -0.00000000000E+00 -0.20577372823E+02  0.20577372823E+02  0.00000000000E+00 0. -1.
          2    1    1    2  501    0  0.19833993399E+02  0.84000313424E+01  0.15163655624E+02  0.26341683177E+02  0.00000000000E+00 0.  1.
         -2    1    1    2    0  503 -0.19833993399E+02 -0.84000313424E+01 -0.72498898248E+01  0.22726828269E+02  0.00000000000E+00 0. -1.
<mgrwt>
<rscale>  2 0.21539448E+02</rscale>
<asrwt>0</asrwt>
<pdfrwt beam="1">  1       21 0.43832521E-02 0.21539448E+02</pdfrwt>
<pdfrwt beam="2">  1       21 0.31657497E-02 0.21539448E+02</pdfrwt>
<totfact> 0.12735709E+08</totfact>
</mgrwt>
</event>
<event>
 4    1  0.2677450E+004  0.2867381E+02  0.7546771E-02  0.1613228E+00
         21   -1    0    0  501  502  0.00000000000E+00  0.00000000000E+00  0.28329480265E+01  0.28329480265E+01  0.00000000000E+00 0.  1.
         21   -1    0    0  502  503 -0.00000000000E+00 -0.00000000000E+00 -0.34468498652E+03  0.34468498652E+03  0.00000000000E+00 0. -1.
          2    1    1    2  501    0 -0.27584989059E+02 -0.78266035389E+01 -0.10185723042E+03  0.10581626876E+03  0.00000000000E+00 0.  1.
         -2    1    1    2    0  503  0.27584989059E+02  0.78266035389E+01 -0.23999480808E+03  0.24170166579E+03  0.00000000000E+00 0. -1.
<mgrwt>
<rscale>  2 0.28673809E+02</rscale>
<asrwt>0</asrwt>
<pdfrwt beam="1">  1       21 0.43583850E-03 0.28673809E+02</pdfrwt>
<pdfrwt beam="2">  1       21 0.53028418E-01 0.28673809E+02</pdfrwt>
<totfact> 0.36759490E+07</totfact>
</mgrwt>
</event>
<event>
 4    1  0.2677450E+004  0.3795863E+02  0.7546771E-02  0.1523795E+00
         21   -1    0    0  503  502  0.00000000000E+00  0.00000000000E+00  0.46397065905E+01  0.46397065905E+01  0.00000000000E+00 0.  1.
         21   -1    0    0  501  503 -0.00000000000E+00 -0.00000000000E+00 -0.44482993892E+03  0.44482993892E+03  0.00000000000E+00 0. -1.
          2    1    1    2  501    0 -0.35912268329E+02  0.12294986879E+02 -0.34357040107E+03  0.34566092954E+03  0.00000000000E+00 0. -1.
         -2    1    1    2    0  502  0.35912268329E+02 -0.12294986879E+02 -0.96619831260E+02  0.10380871597E+03  0.00000000000E+00 0.  1.
<mgrwt>
<rscale>  2 0.37958632E+02</rscale>
<asrwt>0</asrwt>
<pdfrwt beam="1">  1       21 0.71380069E-03 0.37958632E+02</pdfrwt>
<pdfrwt beam="2">  1       21 0.68435407E-01 0.37958632E+02</pdfrwt>
<totfact> 0.10949240E+07</totfact>
</mgrwt>
</event>
<event>
 4    1  0.2677450E+004  0.2080857E+02  0.7546771E-02  0.1729711E+00
         21   -1    0    0  503  502  0.00000000000E+00  0.00000000000E+00  0.19372598178E+03  0.19372598178E+03  0.00000000000E+00 0. -1.
         21   -1    0    0  501  503 -0.00000000000E+00 -0.00000000000E+00 -0.12720645734E+02  0.12720645734E+02  0.00000000000E+00 0.  1.
          2    1    1    2  501    0 -0.20053244923E+02 -0.55555407984E+01 -0.32144159706E+01  0.21055382579E+02  0.00000000000E+00 0.  1.
         -2    1    1    2    0  502  0.20053244923E+02  0.55555407984E+01  0.18421975202E+03  0.18539124494E+03  0.00000000000E+00 0. -1.
<mgrwt>
<rscale>  2 0.20808572E+02</rscale>
<asrwt>0</asrwt>
<pdfrwt beam="1">  1       21 0.29803995E-01 0.20808572E+02</pdfrwt>
<pdfrwt beam="2">  1       21 0.19570226E-02 0.20808572E+02</pdfrwt>
<totfact> 0.10727095E+07</totfact>
</mgrwt>
</event>
<event>
 4    1  0.2677450E+004  0.2333513E+02  0.7546771E-02  0.1686135E+00
         21   -1    0    0  503  502  0.00000000000E+00  0.00000000000E+00  0.51977723889E+01  0.51977723889E+01  0.00000000000E+00 0. -1.
         21   -1    0    0  501  503 -0.00000000000E+00 -0.00000000000E+00 -0.15735696511E+03  0.15735696511E+03  0.00000000000E+00 0.  1.
          2    1    1    2  501    0  0.22335340365E+02  0.67572856392E+01 -0.12306892994E+03  0.12526168550E+03  0.00000000000E+00 0.  1.
         -2    1    1    2    0  502 -0.22335340365E+02 -0.67572856392E+01 -0.29090262776E+02  0.37293051991E+02  0.00000000000E+00 0. -1.
<mgrwt>
<rscale>  2 0.23335131E+02</rscale>
<asrwt>0</asrwt>
<pdfrwt beam="1">  1       21 0.79965746E-03 0.23335131E+02</pdfrwt>
<pdfrwt beam="2">  1       21 0.24208759E-01 0.23335131E+02</pdfrwt>
<totfact> 0.61730792E+07</totfact>
</mgrwt>
</event>
<event>
 4    1  0.2677450E+004  0.4543729E+02  0.7546771E-02  0.1471630E+00
         21   -1    0    0  503  502  0.00000000000E+00  0.00000000000E+00  0.29007738877E+02  0.29007738877E+02  0.00000000000E+00 0. -1.
         21   -1    0    0  501  503 -0.00000000000E+00 -0.00000000000E+00 -0.12680551754E+03  0.12680551754E+03  0.00000000000E+00 0.  1.
          2    1    1    2  501    0  0.13431734050E+02  0.43406637517E+02 -0.10050158624E+03  0.11029558693E+03  0.00000000000E+00 0.  1.
         -2    1    1    2    0  502 -0.13431734050E+02 -0.43406637517E+02  0.27038075736E+01  0.45517669487E+02  0.00000000000E+00 0. -1.
<mgrwt>
<rscale>  2 0.45437294E+02</rscale>
<asrwt>0</asrwt>
<pdfrwt beam="1">  1       21 0.44627291E-02 0.45437294E+02</pdfrwt>
<pdfrwt beam="2">  1       21 0.19508541E-01 0.45437294E+02</pdfrwt>
<totfact> 0.70831132E+06</totfact>
</mgrwt>
</event>
<event>
 4    1  0.2677450E+004  0.2120777E+02  0.7546771E-02  0.1722325E+00
         21   -1    0    0  503  502  0.00000000000E+00  0.00000000000E+00  0.14620339949E+02  0.14620339949E+02  0.00000000000E+00 0. -1.
         21   -1    0    0  501  503 -0.00000000000E+00 -0.00000000000E+00 -0.43521098637E+02  0.43521098637E+02  0.00000000000E+00 0.  1.
          2    1    1    2  501    0 -0.19913712282E+02 -0.72947534800E+01 -0.30190003271E+02  0.36894520768E+02  0.00000000000E+00 0.  1.
         -2    1    1    2    0  502  0.19913712282E+02  0.72947534800E+01  0.12892445840E+01  0.21246917818E+02  0.00000000000E+00 0. -1.
<mgrwt>
<rscale>  2 0.21207767E+02</rscale>
<asrwt>0</asrwt>
<pdfrwt beam="1">  1       21 0.22492831E-02 0.21207767E+02</pdfrwt>
<pdfrwt beam="2">  1       21 0.66955536E-02 0.21207767E+02</pdfrwt>
<totfact> 0.10946349E+08</totfact>
</mgrwt>
</event>
<event>
 4    1  0.2677450E+004  0.2008829E+02  0.7546771E-02  0.1743578E+00
         21   -1    0    0  501  502  0.00000000000E+00  0.00000000000E+00  0.40877649350E+02  0.40877649350E+02  0.00000000000E+00 0.  1.
         21   -1    0    0  502  503 -0.00000000000E+00 -0.00000000000E+00 -0.17612000940E+02  0.17612000940E+02  0.00000000000E+00 0. -1.
          2    1    1    2  501    0  0.59039537300E+01  0.19201113116E+02  0.31020173674E+02  0.36956604137E+02  0.00000000000E+00 0.  1.
         -2    1    1    2    0  503 -0.59039537300E+01 -0.19201113116E+02 -0.77545252641E+01  0.21533046153E+02  0.00000000000E+00 0. -1.
<mgrwt>
<rscale>  2 0.20088290E+02</rscale>
<asrwt>0</asrwt>
<pdfrwt beam="1">  1       21 0.62888691E-02 0.20088290E+02</pdfrwt>
<pdfrwt beam="2">  1       21 0.27095386E-02 0.20088290E+02</pdfrwt>
<totfact> 0.89440862E+07</totfact>
</mgrwt>
</event>
<event>
 4    1  0.2677450E+004  0.2134517E+02  0.7546771E-02  0.1719829E+00
         21   -1    0    0  501  502  0.00000000000E+00  0.00000000000E+00  0.11727160946E+02  0.11727160946E+02  0.00000000000E+00 0.  1.
         21   -1    0    0  502  503 -0.00000000000E+00 -0.00000000000E+00 -0.16425467341E+03  0.16425467341E+03  0.00000000000E+00 0. -1.
          2    1    1    2  501    0  0.63534963020E+01 -0.20377667584E+02  0.61980085706E+00  0.21354165976E+02  0.00000000000E+00 0.  1.
         -2    1    1    2    0  503 -0.63534963020E+01  0.20377667584E+02 -0.15314731332E+03  0.15462766838E+03  0.00000000000E+00 0. -1.
<mgrwt>
<rscale>  2 0.21345169E+02</rscale>
<asrwt>0</asrwt>
<pdfrwt beam="1">  1       21 0.18041788E-02 0.21345169E+02</pdfrwt>
<pdfrwt beam="2">  1       21 0.25269947E-01 0.21345169E+02</pdfrwt>
<totfact> 0.16413802E+07</totfact>
</mgrwt>
</event>
<event>
 4    1  0.2677450E+004  0.2315272E+02  0.7546771E-02  0.1689046E+00
         21   -1    0    0  503  502  0.00000000000E+00  0.00000000000E+00  0.44852960022E+03  0.44852960022E+03  0.00000000000E+00 0. -1.
         21   -1    0    0  501  503 -0.00000000000E+00 -0.00000000000E+00 -0.34409006702E+01  0.34409006702E+01  0.00000000000E+00 0.  1.
          2    1    1    2  501    0 -0.21663473618E+02 -0.81696032782E+01  0.39975236590E+02  0.46195974363E+02  0.00000000000E+00 0.  1.
         -2    1    1    2    0  502  0.21663473618E+02  0.81696032782E+01  0.40511346296E+03  0.40577452652E+03  0.00000000000E+00 0. -1.
<mgrwt>
<rscale>  2 0.23152721E+02</rscale>
<asrwt>0</asrwt>
<pdfrwt beam="1">  1       21 0.69004508E-01 0.23152721E+02</pdfrwt>
<pdfrwt beam="2">  1       21 0.52936969E-03 0.23152721E+02</pdfrwt>
<totfact> 0.15579105E+07</totfact>
</mgrwt>
</event>
<event>
 4    1  0.2677450E+004  0.2131723E+02  0.7546771E-02  0.1720335E+00
         21   -1    0    0  503  502  0.00000000000E+00  0.00000000000E+00  0.83014024979E+01  0.83014024979E+01  0.00000000000E+00 0. -1.
         21   -1    0    0  501  503 -0.00000000000E+00 -0.00000000000E+00 -0.14607278246E+03  0.14607278246E+03  0.00000000000E+00 0.  1.
          2    1    1    2  501    0  0.15663572786E+02  0.14459482534E+02 -0.12991969035E+03  0.13165694091E+03  0.00000000000E+00 0.  1.
         -2    1    1    2    0  502 -0.15663572786E+02 -0.14459482534E+02 -0.78516896095E+01  0.22717244051E+02  0.00000000000E+00 0. -1.
<mgrwt>
<rscale>  2 0.21317227E+02</rscale>
<asrwt>0</asrwt>
<pdfrwt beam="1">  1       21 0.12771390E-02 0.21317227E+02</pdfrwt>
<pdfrwt beam="2">  1       21 0.22472733E-01 0.21317227E+02</pdfrwt>
<totfact> 0.34096763E+07</totfact>
</mgrwt>
</event>
<event>
 4    1  0.2677450E+004  0.2478448E+02  0.7546771E-02  0.1664117E+00
         21   -1    0    0  501  502  0.00000000000E+00  0.00000000000E+00  0.79082658556E+01  0.79082658556E+01  0.00000000000E+00 0. -1.
         21   -1    0    0  502  503 -0.00000000000E+00 -0.00000000000E+00 -0.99638097248E+02  0.99638097248E+02  0.00000000000E+00 0.  1.
          2    1    1    2  501    0 -0.24774009166E+02  0.72023963931E+00 -0.71111646942E+02  0.75306949255E+02  0.00000000000E+00 0.  1.
         -2    1    1    2    0  503  0.24774009166E+02 -0.72023963931E+00 -0.20618184450E+02  0.32239413849E+02  0.00000000000E+00 0. -1.
<mgrwt>
<rscale>  2 0.24784476E+02</rscale>
<asrwt>0</asrwt>
<pdfrwt beam="1">  1       21 0.12166564E-02 0.24784476E+02</pdfrwt>
<pdfrwt beam="2">  1       21 0.15328937E-01 0.24784476E+02</pdfrwt>
<totfact> 0.73968662E+07</totfact>
</mgrwt>
</event>
<event>
 4    1  0.2677450E+004  0.3655745E+02  0.7546771E-02  0.1535190E+00
         21   -1    0    0  503  502  0.00000000000E+00  0.00000000000E+00  0.68582056946E+03  0.68582056946E+03  0.00000000000E+00 0. -1.
         21   -1    0    0  501  503 -0.00000000000E+00 -0.00000000000E+00 -0.19817829341E+01  0.19817829341E+01  0.00000000000E+00 0.  1.
          2    1    1    2  501    0  0.11835633898E+02 -0.34588503225E+02  0.29747467719E+03  0.29971257957E+03  0.00000000000E+00 0.  1.
         -2    1    1    2    0  502 -0.11835633898E+02  0.34588503225E+02  0.38636410934E+03  0.38808977283E+03  0.00000000000E+00 0. -1.
<mgrwt>
<rscale>  2 0.36557445E+02</rscale>
<asrwt>0</asrwt>
<pdfrwt beam="1">  1       21 0.10551067E+00 0.36557445E+02</pdfrwt>
<pdfrwt beam="2">  1       21 0.30489023E-03 0.36557445E+02</pdfrwt>
<totfact> 0.15212567E+07</totfact>
</mgrwt>
</event>
<event>
 4    1  0.2677450E+004  0.3229299E+02  0.7546771E-02  0.1574043E+00
         21   -1    0    0  501  502  0.00000000000E+00  0.00000000000E+00  0.39583772435E+01  0.39583772435E+01  0.00000000000E+00 0.  1.
         21   -1    0    0  502  503 -0.00000000000E+00 -0.00000000000E+00 -0.87543879862E+03  0.87543879862E+03  0.00000000000E+00 0. -1.
          2    1    1    2  501    0 -0.26665959550E+01 -0.32182707043E+02 -0.68107916795E+02  0.75375895994E+02  0.00000000000E+00 0.  1.
         -2    1    1    2    0  503  0.26665959550E+01  0.32182707043E+02 -0.80337250458E+03  0.80402127987E+03  0.00000000000E+00 0. -1.
<mgrwt>
<rscale>  2 0.32292993E+02</rscale>
<asrwt>0</asrwt>
<pdfrwt beam="1">  1       21 0.60898059E-03 0.32292993E+02</pdfrwt>
<pdfrwt beam="2">  1       21 0.13468301E+00 0.32292993E+02</pdfrwt>
<totfact> 0.30526568E+06</totfact>
</mgrwt>
</event>
<event>
 4    1  0.2677450E+004  0.3063805E+02  0.7546771E-02  0.1591141E+00
         21   -1    0    0  503  502  0.00000000000E+00  0.00000000000E+00  0.20081239325E+03  0.20081239325E+03  0.00000000000E+00 0.  1.
         21   -1    0    0  501  503 -0.00000000000E+00 -0.00000000000E+00 -0.46814935754E+01  0.46814935754E+01  0.00000000000E+00 0. -1.
          2    1    1    2  501    0  0.30521025674E+02 -0.26752376587E+01  0.10204746118E+03  0.10654752103E+03  0.00000000000E+00 0. -1.
         -2    1    1    2    0  502 -0.30521025674E+02  0.26752376587E+01  0.94083438491E+02  0.98946365790E+02  0.00000000000E+00 0.  1.
<mgrwt>
<rscale>  2 0.30638047E+02</rscale>
<asrwt>0</asrwt>
<pdfrwt beam="1">  1       21 0.30894208E-01 0.30638047E+02</pdfrwt>
<pdfrwt beam="2">  1       21 0.72022994E-03 0.30638047E+02</pdfrwt>
<totfact> 0.49402746E+07</totfact>
</mgrwt>
</event>
<event>
 4    1  0.2677450E+004  0.2537099E+02  0.7546771E-02  0.1655730E+00
         21   -1    0    0  503  502  0.00000000000E+00  0.00000000000E+00  0.38739004273E+01  0.38739004273E+01  0.00000000000E+00 0.  1.
         21   -1    0    0  501  503 -0.00000000000E+00 -0.00000000000E+00 -0.16729184391E+03  0.16729184391E+03  0.00000000000E+00 0. -1.
          2    1    1    2  501    0  0.16838431019E+02  0.18977732535E+02 -0.74669293204E+02  0.78861843999E+02  0.00000000000E+00 0. -1.
         -2    1    1    2    0  502 -0.16838431019E+02 -0.18977732535E+02 -0.88748650275E+02  0.92303900335E+02  0.00000000000E+00 0.  1.
<mgrwt>
<rscale>  2 0.25370989E+02</rscale>
<asrwt>0</asrwt>
<pdfrwt beam="1">  1       21 0.59598479E-03 0.25370989E+02</pdfrwt>
<pdfrwt beam="2">  1       21 0.25737202E-01 0.25370989E+02</pdfrwt>
<totfact> 0.87570978E+07</totfact>
</mgrwt>
</event>
<event>
 4    1  0.2677450E+004  0.2100867E+02  0.7546771E-02  0.1725983E+00
         21   -1    0    0  501  502  0.00000000000E+00  0.00000000000E+00  0.97871724937E+00  0.97871724937E+00  0.00000000000E+00 0.  1.
         21   -1    0    0  502  503 -0.00000000000E+00 -0.00000000000E+00 -0.51940469896E+03  0.51940469896E+03  0.00000000000E+00 0. -1.
          2    1    1    2  501    0  0.11955166037E+02 -0.17275366099E+02 -0.16476251694E+03  0.16609651187E+03  0.00000000000E+00 0.  1.
         -2    1    1    2    0  503 -0.11955166037E+02  0.17275366099E+02 -0.35366346477E+03  0.35428690433E+03  0.00000000000E+00 0. -1.
<mgrwt>
<rscale>  2 0.21008671E+02</rscale>
<asrwt>0</asrwt>
<pdfrwt beam="1">  1       21 0.15057157E-03 0.21008671E+02</pdfrwt>
<pdfrwt beam="2">  1       21 0.79908582E-01 0.21008671E+02</pdfrwt>
<totfact> 0.70016912E+07</totfact>
</mgrwt>
</event>
<event>
 4    1  0.2677450E+004  0.2436765E+02  0.7546771E-02  0.1670254E+00
         21   -1    0    0  501  502  0.00000000000E+00  0.00000000000E+00  0.97955593197E+02  0.97955593197E+02  0.00000000000E+00 0.  1.
         21   -1    0    0  502  503 -0.00000000000E+00 -0.00000000000E+00 -0.24658409238E+02  0.24658409238E+02  0.00000000000E+00 0. -1.
          2    1    1    2  501    0 -0.23934828047E+02 -0.45723536728E+01  0.89889444475E+02  0.93133745978E+02  0.00000000000E+00 0.  1.
         -2    1    1    2    0  503  0.23934828047E+02  0.45723536728E+01 -0.16592260516E+02  0.29480256458E+02  0.00000000000E+00 0. -1.
<mgrwt>
<rscale>  2 0.24367651E+02</rscale>
<asrwt>0</asrwt>
<pdfrwt beam="1">  1       21 0.15070091E-01 0.24367651E+02</pdfrwt>
<pdfrwt beam="2">  1       21 0.37936015E-02 0.24367651E+02</pdfrwt>
<totfact> 0.13122388E+07</totfact>
</mgrwt>
</event>
<event>
 4    1  0.2677450E+004  0.2269879E+02  0.7546771E-02  0.1696440E+00
         21   -1    0    0  503  502  0.00000000000E+00  0.00000000000E+00  0.65462886498E+02  0.65462886498E+02  0.00000000000E+00 0. -1.
         21   -1    0    0  501  503 -0.00000000000E+00 -0.00000000000E+00 -0.91504582102E+01  0.91504582102E+01  0.00000000000E+00 0.  1.
          2    1    1    2  501    0  0.78916858878E+01  0.21282771909E+02  0.14204148006E+02  0.26776723229E+02  0.00000000000E+00 0.  1.
         -2    1    1    2    0  502 -0.78916858878E+01 -0.21282771909E+02  0.42108280282E+02  0.47836621479E+02  0.00000000000E+00 0. -1.
<mgrwt>
<rscale>  2 0.22698790E+02</rscale>
<asrwt>0</asrwt>
<pdfrwt beam="1">  1       21 0.10071213E-01 0.22698790E+02</pdfrwt>
<pdfrwt beam="2">  1       21 0.14077628E-02 0.22698790E+02</pdfrwt>
<totfact> 0.11728465E+08</totfact>
</mgrwt>
</event>
<event>
 4    1  0.2677450E+004  0.2906128E+02  0.7546771E-02  0.1608703E+00
         21   -1    0    0  503  502  0.00000000000E+00  0.00000000000E+00  0.44269309982E+02  0.44269309982E+02  0.00000000000E+00 0. -1.
         21   -1    0    0  501  503 -0.00000000000E+00 -0.00000000000E+00 -0.19187466743E+02  0.19187466743E+02  0.00000000000E+00 0.  1.
          2    1    1    2  501    0  0.24478370391E+02 -0.15664197962E+02  0.10141395770E+02  0.30779954888E+02  0.00000000000E+00 0. -1.
         -2    1    1    2    0  502 -0.24478370391E+02  0.15664197962E+02  0.14940447469E+02  0.32676821837E+02  0.00000000000E+00 0.  1.
<mgrwt>
<rscale>  2 0.29061275E+02</rscale>
<asrwt>0</asrwt>
<pdfrwt beam="1">  1       21 0.68106631E-02 0.29061275E+02</pdfrwt>
<pdfrwt beam="2">  1       21 0.29519180E-02 0.29061275E+02</pdfrwt>
<totfact> 0.76031708E+07</totfact>
</mgrwt>
</event>
<event>
 4    1  0.2677450E+004  0.2906571E+02  0.7546771E-02  0.1608652E+00
         21   -1    0    0  501  502  0.00000000000E+00  0.00000000000E+00  0.12411040806E+03  0.12411040806E+03  0.00000000000E+00 0. -1.
         21   -1    0    0  502  503 -0.00000000000E+00 -0.00000000000E+00 -0.19684152908E+02  0.19684152908E+02  0.00000000000E+00 0.  1.
          2    1    1    2  501    0 -0.21678843759E+02  0.19360874300E+02  0.11036511271E+03  0.11412832175E+03  0.00000000000E+00 0. -1.
         -2    1    1    2    0  503  0.21678843759E+02 -0.19360874300E+02 -0.59388575623E+01  0.29666239221E+02  0.00000000000E+00 0.  1.
<mgrwt>
<rscale>  2 0.29065714E+02</rscale>
<asrwt>0</asrwt>
<pdfrwt beam="1">  1       21 0.19093908E-01 0.29065714E+02</pdfrwt>
<pdfrwt beam="2">  1       21 0.30283313E-02 0.29065714E+02</pdfrwt>
<totfact> 0.12827854E+07</totfact>
</mgrwt>
</event>
<event>
 4    1  0.2677450E+004  0.2861133E+02  0.7546771E-02  0.1613966E+00
         21   -1    0    0  503  502  0.00000000000E+00  0.00000000000E+00  0.15533678453E+04  0.15533678453E+04  0.00000000000E+00 0.  1.
         21   -1    0    0  501  503 -0.00000000000E+00 -0.00000000000E+00 -0.65124979444E+00  0.65124979444E+00  0.00000000000E+00 0. -1.
          2    1    1    2  501    0  0.18159363343E+02  0.22109852076E+02  0.43695245318E+03  0.43788817566E+03  0.00000000000E+00 0. -1.
         -2    1    1    2    0  502 -0.18159363343E+02 -0.22109852076E+02  0.11157641423E+04  0.11161309194E+04  0.00000000000E+00 0.  1.
<mgrwt>
<rscale>  2 0.28611327E+02</rscale>
<asrwt>0</asrwt>
<pdfrwt beam="1">  1       21 0.23897670E+00 0.28611327E+02</pdfrwt>
<pdfrwt beam="2">  1       21 0.10019352E-03 0.28611327E+02</pdfrwt>
<totfact> 0.98007110E+06</totfact>
</mgrwt>
</event>
<event>
 4    1  0.2677450E+004  0.2225150E+02  0.7546771E-02  0.1703938E+00
         21   -1    0    0  501  502  0.00000000000E+00  0.00000000000E+00  0.12238590324E+02  0.12238590324E+02  0.00000000000E+00 0.  1.
         21   -1    0    0  502  503 -0.00000000000E+00 -0.00000000000E+00 -0.46851228119E+02  0.46851228119E+02  0.00000000000E+00 0. -1.
          2    1    1    2  501    0  0.32150168379E+01  0.22018015354E+02 -0.63909974236E+01  0.23151116203E+02  0.00000000000E+00 0.  1.
         -2    1    1    2    0  503 -0.32150168379E+01 -0.22018015354E+02 -0.28221640371E+02  0.35938702239E+02  0.00000000000E+00 0. -1.
<mgrwt>
<rscale>  2 0.22251502E+02</rscale>
<asrwt>0</asrwt>
<pdfrwt beam="1">  1       21 0.18828601E-02 0.22251502E+02</pdfrwt>
<pdfrwt beam="2">  1       21 0.72078812E-02 0.22251502E+02</pdfrwt>
<totfact> 0.12945320E+08</totfact>
</mgrwt>
</event>
<event>
 4    1  0.2677450E+004  0.2221869E+02  0.7546771E-02  0.1704497E+00
         21   -1    0    0  503  502  0.00000000000E+00  0.00000000000E+00  0.32317661625E+02  0.32317661625E+02  0.00000000000E+00 0. -1.
         21   -1    0    0  501  503 -0.00000000000E+00 -0.00000000000E+00 -0.34495559718E+02  0.34495559718E+02  0.00000000000E+00 0.  1.
          2    1    1    2  501    0  0.15020865187E+02 -0.16372049001E+02 -0.26024990204E+02  0.34219446146E+02  0.00000000000E+00 0.  1.
         -2    1    1    2    0  502 -0.15020865187E+02  0.16372049001E+02  0.23847092110E+02  0.32593775197E+02  0.00000000000E+00 0. -1.
<mgrwt>
<rscale>  2 0.22218694E+02</rscale>
<asrwt>0</asrwt>
<pdfrwt beam="1">  1       21 0.49719480E-02 0.22218694E+02</pdfrwt>
<pdfrwt beam="2">  1       21 0.53070091E-02 0.22218694E+02</pdfrwt>
<totfact> 0.46645159E+07</totfact>
</mgrwt>
</event>
<event>
 4    1  0.2677450E+004  0.2771605E+02  0.7546771E-02  0.1624800E+00
         21   -1    0    0  503  502  0.00000000000E+00  0.00000000000E+00  0.20633716186E+01  0.20633716186E+01  0.00000000000E+00 0.  1.
         21   -1    0    0  501  503 -0.00000000000E+00 -0.00000000000E+00 -0.56970100944E+03  0.56970100944E+03  0.00000000000E+00 0. -1.
          2    1    1    2  501    0  0.27687043013E+02 -0.12676118208E+01 -0.45210396670E+03  0.45295273031E+03  0.00000000000E+00 0. -1.
         -2    1    1    2    0  502 -0.27687043013E+02  0.12676118208E+01 -0.11553367112E+03  0.11881165075E+03  0.00000000000E+00 0.  1.
<mgrwt>
<rscale>  2 0.27716046E+02</rscale>
<asrwt>0</asrwt>
<pdfrwt beam="1">  1       21 0.31744169E-03 0.27716046E+02</pdfrwt>
<pdfrwt beam="2">  1       21 0.87646337E-01 0.27716046E+02</pdfrwt>
<totfact> 0.20694164E+07</totfact>
</mgrwt>
</event>
<event>
 4    1  0.2677450E+004  0.2031184E+02  0.7546771E-02  0.1739197E+00
         21   -1    0    0  503  502  0.00000000000E+00  0.00000000000E+00  0.96266387838E+01  0.96266387838E+01  0.00000000000E+00 0. -1.
         21   -1    0    0  501  503 -0.00000000000E+00 -0.00000000000E+00 -0.71965602210E+02  0.71965602210E+02  0.00000000000E+00 0.  1.
          2    1    1    2  501    0  0.16937285413E+02  0.11211565475E+02 -0.57115189693E+02  0.60619433610E+02  0.00000000000E+00 0.  1.
         -2    1    1    2    0  502 -0.16937285413E+02 -0.11211565475E+02 -0.52237737331E+01  0.20972807384E+02  0.00000000000E+00 0. -1.
<mgrwt>
<rscale>  2 0.20311840E+02</rscale>
<asrwt>0</asrwt>
<pdfrwt beam="1">  1       21 0.14810213E-02 0.20311840E+02</pdfrwt>
<pdfrwt beam="2">  1       21 0.11071631E-01 0.20311840E+02</pdfrwt>
<totfact> 0.89913923E+07</totfact>
</mgrwt>
</event>
<event>
 4    1  0.2677450E+004  0.5710123E+02  0.7546771E-02  0.1410415E+00
         21   -1    0    0  501  502  0.00000000000E+00  0.00000000000E+00  0.29875955292E+01  0.29875955292E+01  0.00000000000E+00 0.  1.
         21   -1    0    0  502  503 -0.00000000000E+00 -0.00000000000E+00 -0.15300265845E+04  0.15300265845E+04  0.00000000000E+00 0. -1.
          2    1    1    2  501    0  0.55177576275E+02  0.14696435079E+02 -0.35309557795E+03  0.35768287252E+03  0.00000000000E+00 0.  1.
         -2    1    1    2    0  503 -0.55177576275E+02 -0.14696435079E+02 -0.11739434110E+04  0.11753313075E+04  0.00000000000E+00 0. -1.
<mgrwt>
<rscale>  2 0.57101227E+02</rscale>
<asrwt>0</asrwt>
<pdfrwt beam="1">  1       21 0.45962895E-03 0.57101227E+02</pdfrwt>
<pdfrwt beam="2">  1       21 0.23538928E+00 0.57101227E+02</pdfrwt>
<totfact> 0.10993095E+06</totfact>
</mgrwt>
</event>
<event>
 4    1  0.2677450E+004  0.2308915E+02  0.7546771E-02  0.1690069E+00
         21   -1    0    0  503  502  0.00000000000E+00  0.00000000000E+00  0.25809842934E+03  0.25809842934E+03  0.00000000000E+00 0. -1.
         21   -1    0    0  501  503 -0.00000000000E+00 -0.00000000000E+00 -0.26054206654E+01  0.26054206654E+01  0.00000000000E+00 0.  1.
          2    1    1    2  501    0 -0.18577123253E+02  0.13711285982E+02  0.68408454905E+02  0.72199900097E+02  0.00000000000E+00 0.  1.
         -2    1    1    2    0  502  0.18577123253E+02 -0.13711285982E+02  0.18708455377E+03  0.18850394990E+03  0.00000000000E+00 0. -1.
<mgrwt>
<rscale>  2 0.23089151E+02</rscale>
<asrwt>0</asrwt>
<pdfrwt beam="1">  1       21 0.39707431E-01 0.23089151E+02</pdfrwt>
<pdfrwt beam="2">  1       21 0.40083415E-03 0.23089151E+02</pdfrwt>
<totfact> 0.69260951E+07</totfact>
</mgrwt>
</event>
<event>
 4    1  0.2677450E+004  0.2387164E+02  0.7546771E-02  0.1677759E+00
         21   -1    0    0  503  502  0.00000000000E+00  0.00000000000E+00  0.40115041871E+02  0.40115041871E+02  0.00000000000E+00 0. -1.
         21   -1    0    0  501  503 -0.00000000000E+00 -0.00000000000E+00 -0.14530249506E+02  0.14530249506E+02  0.00000000000E+00 0.  1.
          2    1    1    2  501    0 -0.15595565058E+02  0.18073000962E+02  0.16876975770E+02  0.29235035905E+02  0.00000000000E+00 0. -1.
         -2    1    1    2    0  502  0.15595565058E+02 -0.18073000962E+02  0.87078165954E+01  0.25410255471E+02  0.00000000000E+00 0.  1.
<mgrwt>
<rscale>  2 0.23871636E+02</rscale>
<asrwt>0</asrwt>
<pdfrwt beam="1">  1       21 0.61715449E-02 0.23871636E+02</pdfrwt>
<pdfrwt beam="2">  1       21 0.22354230E-02 0.23871636E+02</pdfrwt>
<totfact> 0.13050129E+08</totfact>
</mgrwt>
</event>
<event>
 4    1  0.2677450E+004  0.2651102E+02  0.7546771E-02  0.1640201E+00
         21   -1    0    0  501  502  0.00000000000E+00  0.00000000000E+00  0.18898179049E+03  0.18898179049E+03  0.00000000000E+00 0.  1.
         21   -1    0    0  502  503 -0.00000000000E+00 -0.00000000000E+00 -0.50551683482E+01  0.50551683482E+01  0.00000000000E+00 0. -1.
          2    1    1    2  501    0  0.10783715832E+02  0.24218701886E+02  0.14184119045E+03  0.14429746136E+03  0.00000000000E+00 0.  1.
         -2    1    1    2    0  503 -0.10783715832E+02 -0.24218701886E+02  0.42085431694E+02  0.49739497475E+02  0.00000000000E+00 0. -1.
<mgrwt>
<rscale>  2 0.26511017E+02</rscale>
<asrwt>0</asrwt>
<pdfrwt beam="1">  1       21 0.29074116E-01 0.26511017E+02</pdfrwt>
<pdfrwt beam="2">  1       21 0.77771835E-03 0.26511017E+02</pdfrwt>
<totfact> 0.47701204E+07</totfact>
</mgrwt>
</event>
<event>
 4    1  0.2677450E+004  0.2161511E+02  0.7546771E-02  0.1714995E+00
         21   -1    0    0  503  502  0.00000000000E+00  0.00000000000E+00  0.37745040402E+01  0.37745040402E+01  0.00000000000E+00 0. -1.
         21   -1    0    0  501  503 -0.00000000000E+00 -0.00000000000E+00 -0.44816941606E+03  0.44816941606E+03  0.00000000000E+00 0.  1.
          2    1    1    2  501    0  0.18196684611E+02 -0.11665914638E+02 -0.41444727250E+03  0.41501054755E+03  0.00000000000E+00 0.  1.
         -2    1    1    2    0  502 -0.18196684611E+02  0.11665914638E+02 -0.29947639526E+02  0.36933372556E+02  0.00000000000E+00 0. -1.
<mgrwt>
<rscale>  2 0.21615108E+02</rscale>
<asrwt>0</asrwt>
<pdfrwt beam="1">  1       21 0.58069285E-03 0.21615108E+02</pdfrwt>
<pdfrwt beam="2">  1       21 0.68949150E-01 0.21615108E+02</pdfrwt>
<totfact> 0.13434765E+07</totfact>
</mgrwt>
</event>
<event>
 4    1  0.2677450E+004  0.2458507E+02  0.7546771E-02  0.1667034E+00
         21   -1    0    0  503  502  0.00000000000E+00  0.00000000000E+00  0.42859707396E+03  0.42859707396E+03  0.00000000000E+00 0.  1.
         21   -1    0    0  501  503 -0.00000000000E+00 -0.00000000000E+00 -0.14875766797E+01  0.14875766797E+01  0.00000000000E+00 0. -1.
          2    1    1    2  501    0 -0.24583100489E+02 -0.31106551260E+00  0.26258582581E+03  0.26373422514E+03  0.00000000000E+00 0.  1.
         -2    1    1    2    0  502  0.24583100489E+02  0.31106551260E+00  0.16452367147E+03  0.16635042550E+03  0.00000000000E+00 0. -1.
<mgrwt>
<rscale>  2 0.24585068E+02</rscale>
<asrwt>0</asrwt>
<pdfrwt beam="1">  1       21 0.65937913E-01 0.24585068E+02</pdfrwt>
<pdfrwt beam="2">  1       21 0.22885829E-03 0.24585068E+02</pdfrwt>
<totfact> 0.59083659E+07</totfact>
</mgrwt>
</event>
<event>
 4    1  0.2677450E+004  0.2184337E+02  0.7546771E-02  0.1710975E+00
         21   -1    0    0  503  502  0.00000000000E+00  0.00000000000E+00  0.34959971120E+03  0.34959971120E+03  0.00000000000E+00 0. -1.
         21   -1    0    0  501  503 -0.00000000000E+00 -0.00000000000E+00 -0.23540063580E+01  0.23540063580E+01  0.00000000000E+00 0.  1.
          2    1    1    2  501    0 -0.57725127257E+01 -0.21066817943E+02  0.59546454208E+02  0.63426437155E+02  0.00000000000E+00 0.  1.
         -2    1    1    2    0  502  0.57725127257E+01  0.21066817943E+02  0.28769925063E+03  0.28852728040E+03  0.00000000000E+00 0. -1.
<mgrwt>
<rscale>  2 0.21843368E+02</rscale>
<asrwt>0</asrwt>
<pdfrwt beam="1">  1       21 0.53784530E-01 0.21843368E+02</pdfrwt>
<pdfrwt beam="2">  1       21 0.36215510E-03 0.21843368E+02</pdfrwt>
<totfact> 0.44265214E+07</totfact>
</mgrwt>
</event>
<event>
 4    1  0.2677450E+004  0.2148208E+02  0.7546771E-02  0.1717366E+00
         21   -1    0    0  503  502  0.00000000000E+00  0.00000000000E+00  0.73319884485E+03  0.73319884485E+03  0.00000000000E+00 0.  1.
         21   -1    0    0  501  503 -0.00000000000E+00 -0.00000000000E+00 -0.12052267997E+01  0.12052267997E+01  0.00000000000E+00 0. -1.
          2    1    1    2  501    0 -0.68372642240E+01  0.20364964383E+02  0.11218357702E+03  0.11422186703E+03  0.00000000000E+00 0. -1.
         -2    1    1    2    0  502  0.68372642240E+01 -0.20364964383E+02  0.61981004103E+03  0.62018220461E+03  0.00000000000E+00 0.  1.
<mgrwt>
<rscale>  2 0.21482085E+02</rscale>
<asrwt>0</asrwt>
<pdfrwt beam="1">  1       21 0.11279947E+00 0.21482085E+02</pdfrwt>
<pdfrwt beam="2">  1       21 0.18542009E-03 0.21482085E+02</pdfrwt>
<totfact> 0.24809579E+07</totfact>
</mgrwt>
</event>
<event>
 4    1  0.2677450E+004  0.3286829E+02  0.7546771E-02  0.1568389E+00
         21   -1    0    0  503  502  0.00000000000E+00  0.00000000000E+00  0.18775070117E+04  0.18775070117E+04  0.00000000000E+00 0. -1.
         21   -1    0    0  501  503 -0.00000000000E+00 -0.00000000000E+00 -0.91513107735E+00  0.91513107735E+00  0.00000000000E+00 0.  1.
          2    1    1    2  501    0 -0.32392833202E+02  0.55703274335E+01  0.36604446160E+03  0.36751717247E+03  0.00000000000E+00 0.  1.
         -2    1    1    2    0  502  0.32392833202E+02 -0.55703274335E+01  0.15105474190E+04  0.15109049703E+04  0.00000000000E+00 0. -1.
<mgrwt>
<rscale>  2 0.32868285E+02</rscale>
<asrwt>0</asrwt>
<pdfrwt beam="1">  1       21 0.28884415E+00 0.32868285E+02</pdfrwt>
<pdfrwt beam="2">  1       21 0.14079090E-03 0.32868285E+02</pdfrwt>
<totfact> 0.33688631E+06</totfact>
</mgrwt>
</event>
<event>
 4    1  0.2677450E+004  0.3029457E+02  0.7546771E-02  0.1594855E+00
         21   -1    0    0  501  502  0.00000000000E+00  0.00000000000E+00  0.68679732972E+02  0.68679732972E+02  0.00000000000E+00 0.  1.
         21   -1    0    0  502  503 -0.00000000000E+00 -0.00000000000E+00 -0.79447318733E+02  0.79447318733E+02  0.00000000000E+00 0. -1.
          2    1    1    2  501    0 -0.17174588807E+02 -0.24955845701E+02  0.62164485117E+02  0.69153336472E+02  0.00000000000E+00 0.  1.
         -2    1    1    2    0  503  0.17174588807E+02  0.24955845701E+02 -0.72932070877E+02  0.78973715233E+02  0.00000000000E+00 0. -1.
<mgrwt>
<rscale>  2 0.30294566E+02</rscale>
<asrwt>0</asrwt>
<pdfrwt beam="1">  1       21 0.10566113E-01 0.30294566E+02</pdfrwt>
<pdfrwt beam="2">  1       21 0.12222664E-01 0.30294566E+02</pdfrwt>
<totfact> 0.36778578E+06</totfact>
</mgrwt>
</event>
<event>
 4    1  0.2677450E+004  0.2875203E+02  0.7546771E-02  0.1612308E+00
         21   -1    0    0  503  502  0.00000000000E+00  0.00000000000E+00  0.83525810679E+03  0.83525810679E+03  0.00000000000E+00 0.  1.
         21   -1    0    0  501  503 -0.00000000000E+00 -0.00000000000E+00 -0.24316185821E+01  0.24316185821E+01  0.00000000000E+00 0. -1.
          2    1    1    2  501    0 -0.37954215159E+01 -0.28500421445E+02  0.93882250507E+02  0.98186334117E+02  0.00000000000E+00 0. -1.
         -2    1    1    2    0  502  0.37954215159E+01  0.28500421445E+02  0.73894423770E+03  0.73950339125E+03  0.00000000000E+00 0.  1.
<mgrwt>
<rscale>  2 0.28752030E+02</rscale>
<asrwt>0</asrwt>
<pdfrwt beam="1">  1       21 0.12850102E+00 0.28752030E+02</pdfrwt>
<pdfrwt beam="2">  1       21 0.37409583E-03 0.28752030E+02</pdfrwt>
<totfact> 0.69493305E+06</totfact>
</mgrwt>
</event>
<event>
 4    1  0.2677450E+004  0.3318517E+02  0.7546771E-02  0.1565334E+00
         21   -1    0    0  503  502  0.00000000000E+00  0.00000000000E+00  0.89808282557E+01  0.89808282557E+01  0.00000000000E+00 0. -1.
         21   -1    0    0  501  503 -0.00000000000E+00 -0.00000000000E+00 -0.12478117345E+03  0.12478117345E+03  0.00000000000E+00 0.  1.
          2    1    1    2  501    0  0.33072708613E+02  0.27297866080E+01 -0.66695963841E+02  0.74495687007E+02  0.00000000000E+00 0.  1.
         -2    1    1    2    0  502 -0.33072708613E+02 -0.27297866080E+01 -0.49104381357E+02  0.59266314702E+02  0.00000000000E+00 0. -1.
<mgrwt>
<rscale>  2 0.33185174E+02</rscale>
<asrwt>0</asrwt>
<pdfrwt beam="1">  1       21 0.13816659E-02 0.33185174E+02</pdfrwt>
<pdfrwt beam="2">  1       21 0.19197103E-01 0.33185174E+02</pdfrwt>
<totfact> 0.44033655E+07</totfact>
</mgrwt>
</event>
<event>
 4    1  0.2677450E+004  0.2146286E+02  0.7546771E-02  0.1717711E+00
         21   -1    0    0  503  502  0.00000000000E+00  0.00000000000E+00  0.14840419233E+02  0.14840419233E+02  0.00000000000E+00 0.  1.
         21   -1    0    0  501  503 -0.00000000000E+00 -0.00000000000E+00 -0.54219931687E+02  0.54219931687E+02  0.00000000000E+00 0. -1.
          2    1    1    2  501    0 -0.12821029443E+02 -0.17212654757E+02 -0.42266980044E+02  0.47404133594E+02  0.00000000000E+00 0. -1.
         -2    1    1    2    0  502  0.12821029443E+02  0.17212654757E+02  0.28874675895E+01  0.21656217326E+02  0.00000000000E+00 0.  1.
<mgrwt>
<rscale>  2 0.21462858E+02</rscale>
<asrwt>0</asrwt>
<pdfrwt beam="1">  1       21 0.22831414E-02 0.21462858E+02</pdfrwt>
<pdfrwt beam="2">  1       21 0.83415280E-02 0.21462858E+02</pdfrwt>
<totfact> 0.75181393E+07</totfact>
</mgrwt>
</event>
<event>
 4    1  0.2677450E+004  0.2049026E+02  0.7546771E-02  0.1735751E+00
         21   -1    0    0  503  502  0.00000000000E+00  0.00000000000E+00  0.27136657570E+02  0.27136657570E+02  0.00000000000E+00 0. -1.
         21   -1    0    0  501  503 -0.00000000000E+00 -0.00000000000E+00 -0.15504669070E+02  0.15504669070E+02  0.00000000000E+00 0.  1.
          2    1    1    2  501    0 -0.20472932115E+02  0.84244056409E+00  0.48330739969E+01  0.21052535708E+02  0.00000000000E+00 0.  1.
         -2    1    1    2    0  502  0.20472932115E+02 -0.84244056409E+00  0.67989145029E+01  0.21588790932E+02  0.00000000000E+00 0. -1.
<mgrwt>
<rscale>  2 0.20490258E+02</rscale>
<asrwt>0</asrwt>
<pdfrwt beam="1">  1       21 0.41748704E-02 0.20490258E+02</pdfrwt>
<pdfrwt beam="2">  1       21 0.23853337E-02 0.20490258E+02</pdfrwt>
<totfact> 0.20972860E+08</totfact>
</mgrwt>
</event>
<event>
 4    1  0.2677450E+004  0.2502170E+02  0.7546771E-02  0.1660690E+00
         21   -1    0    0  501  502  0.00000000000E+00  0.00000000000E+00  0.37802978201E+01  0.37802978201E+01  0.00000000000E+00 0.  1.
         21   -1    0    0  502  503 -0.00000000000E+00 -0.00000000000E+00 -0.20655064824E+03  0.20655064824E+03  0.00000000000E+00 0. -1.
          2    1    1    2  501    0  0.81260168518E+01  0.23665441815E+02 -0.54569107790E+02  0.60032264752E+02  0.00000000000E+00 0.  1.
         -2    1    1    2    0  503 -0.81260168518E+01 -0.23665441815E+02 -0.14820124263E+03  0.15029868131E+03  0.00000000000E+00 0. -1.
<mgrwt>
<rscale>  2 0.25021696E+02</rscale>
<asrwt>0</asrwt>
<pdfrwt beam="1">  1       21 0.58158437E-03 0.25021696E+02</pdfrwt>
<pdfrwt beam="2">  1       21 0.31777018E-01 0.25021696E+02</pdfrwt>
<totfact> 0.61715215E+07</totfact>
</mgrwt>
</event>
<event>
 4    1  0.2677450E+004  0.2194889E+02  0.7546771E-02  0.1709137E+00
         21   -1    0    0  501  502  0.00000000000E+00  0.00000000000E+00  0.55627206536E+03  0.55627206536E+03  0.00000000000E+00 0.  1.
         21   -1    0    0  502  503 -0.00000000000E+00 -0.00000000000E+00 -0.20730821497E+01  0.20730821497E+01  0.00000000000E+00 0. -1.
          2    1    1    2  501    0  0.82566385222E+01  0.20336709816E+02  0.49012210908E+03  0.49061332601E+03  0.00000000000E+00 0.  1.
         -2    1    1    2    0  503 -0.82566385222E+01 -0.20336709816E+02  0.64076874128E+02  0.67731821501E+02  0.00000000000E+00 0. -1.
<mgrwt>
<rscale>  2 0.21948892E+02</rscale>
<asrwt>0</asrwt>
<pdfrwt beam="1">  1       21 0.85580199E-01 0.21948892E+02</pdfrwt>
<pdfrwt beam="2">  1       21 0.31893616E-03 0.21948892E+02</pdfrwt>
<totfact> 0.20713692E+07</totfact>
</mgrwt>
</event>
<event>
 4    1  0.2677450E+004  0.2715290E+02  0.7546771E-02  0.1631875E+00
         21   -1    0    0  501  502  0.00000000000E+00  0.00000000000E+00  0.10787119915E+03  0.10787119915E+03  0.00000000000E+00 0. -1.
         21   -1    0    0  502  503 -0.00000000000E+00 -0.00000000000E+00 -0.22978814248E+02  0.22978814248E+02  0.00000000000E+00 0.  1.
          2    1    1    2  501    0 -0.40470759834E+01 -0.26849598410E+02  0.97284687064E+02  0.10100292122E+03  0.00000000000E+00 0. -1.
         -2    1    1    2    0  503  0.40470759834E+01  0.26849598410E+02 -0.12392302157E+02  0.29847092179E+02  0.00000000000E+00 0.  1.
<mgrwt>
<rscale>  2 0.27152896E+02</rscale>
<asrwt>0</asrwt>
<pdfrwt beam="1">  1       21 0.16595569E-01 0.27152896E+02</pdfrwt>
<pdfrwt beam="2">  1       21 0.35352022E-02 0.27152896E+02</pdfrwt>
<totfact> 0.12677691E+07</totfact>
</mgrwt>
</event>
<event>
 4    1  0.2677450E+004  0.2413265E+02  0.7546771E-02  0.1673782E+00
         21   -1    0    0  501  502  0.00000000000E+00  0.00000000000E+00  0.35707411356E+02  0.35707411356E+02  0.00000000000E+00 0. -1.
         21   -1    0    0  502  503 -0.00000000000E+00 -0.00000000000E+00 -0.17280884314E+02  0.17280884314E+02  0.00000000000E+00 0.  1.
          2    1    1    2  501    0  0.11559451395E+02  0.21184044417E+02  0.15493426501E+02  0.28678056404E+02  0.00000000000E+00 0. -1.
         -2    1    1    2    0  503 -0.11559451395E+02 -0.21184044417E+02  0.29331005414E+01  0.24310239266E+02  0.00000000000E+00 0.  1.
<mgrwt>
<rscale>  2 0.24132647E+02</rscale>
<asrwt>0</asrwt>
<pdfrwt beam="1">  1       21 0.54934479E-02 0.24132647E+02</pdfrwt>
<pdfrwt beam="2">  1       21 0.26585976E-02 0.24132647E+02</pdfrwt>
<totfact> 0.12069545E+08</totfact>
</mgrwt>
</event>
<event>
 4    1  0.2677450E+004  0.3072504E+02  0.7546771E-02  0.1590210E+00
         21   -1    0    0  501  502  0.00000000000E+00  0.00000000000E+00  0.31169315024E+03  0.31169315024E+03  0.00000000000E+00 0.  1.
         21   -1    0    0  502  503 -0.00000000000E+00 -0.00000000000E+00 -0.34511907744E+01  0.34511907744E+01  0.00000000000E+00 0. -1.
          2    1    1    2  501    0  0.30162341991E+02  0.58532976803E+01  0.20925235514E+03  0.21149604275E+03  0.00000000000E+00 0. -1.
         -2    1    1    2    0  503 -0.30162341991E+02 -0.58532976803E+01  0.98989604320E+02  0.10364829826E+03  0.00000000000E+00 0.  1.
<mgrwt>
<rscale>  2 0.30725038E+02</rscale>
<asrwt>0</asrwt>
<pdfrwt beam="1">  1       21 0.47952770E-01 0.30725038E+02</pdfrwt>
<pdfrwt beam="2">  1       21 0.53095268E-03 0.30725038E+02</pdfrwt>
<totfact> 0.33859759E+07</totfact>
</mgrwt>
</event>
<event>
 4    1  0.2677450E+004  0.2756373E+02  0.7546771E-02  0.1626693E+00
         21   -1    0    0  501  502  0.00000000000E+00  0.00000000000E+00  0.27814805699E+03  0.27814805699E+03  0.00000000000E+00 0.  1.
         21   -1    0    0  502  503 -0.00000000000E+00 -0.00000000000E+00 -0.27344834451E+01  0.27344834451E+01  0.00000000000E+00 0. -1.
          2    1    1    2  501    0  0.73161357827E+01  0.26575053342E+02  0.13306196776E+03  0.13588688887E+03  0.00000000000E+00 0. -1.
         -2    1    1    2    0  503 -0.73161357827E+01 -0.26575053342E+02  0.14235160578E+03  0.14499565156E+03  0.00000000000E+00 0.  1.
<mgrwt>
<rscale>  2 0.27563732E+02</rscale>
<asrwt>0</asrwt>
<pdfrwt beam="1">  1       21 0.42791986E-01 0.27563732E+02</pdfrwt>
<pdfrwt beam="2">  1       21 0.42068998E-03 0.27563732E+02</pdfrwt>
<totfact> 0.58323188E+07</totfact>
</mgrwt>
</event>
<event>
 4    1  0.2677450E+004  0.2135732E+02  0.7546771E-02  0.1719610E+00
         21   -1    0    0  503  502  0.00000000000E+00  0.00000000000E+00  0.15331816754E+01  0.15331816754E+01  0.00000000000E+00 0. -1.
         21   -1    0    0  501  503 -0.00000000000E+00 -0.00000000000E+00 -0.35878360702E+03  0.35878360702E+03  0.00000000000E+00 0.  1.
          2    1    1    2  501    0  0.11193730393E+01  0.21327966042E+02 -0.25307765901E+03  0.25397723643E+03  0.00000000000E+00 0.  1.
         -2    1    1    2    0  502 -0.11193730393E+01 -0.21327966042E+02 -0.10417276633E+03  0.10633955227E+03  0.00000000000E+00 0. -1.
<mgrwt>
<rscale>  2 0.21357320E+02</rscale>
<asrwt>0</asrwt>
<pdfrwt beam="1">  1       21 0.23587382E-03 0.21357320E+02</pdfrwt>
<pdfrwt beam="2">  1       21 0.55197544E-01 0.21357320E+02</pdfrwt>
<totfact> 0.78011416E+07</totfact>
</mgrwt>
</event>
<event>
 4    1  0.2677450E+004  0.2254008E+02  0.7546771E-02  0.1699076E+00
         21   -1    0    0  503  502  0.00000000000E+00  0.00000000000E+00  0.69909271174E+02  0.69909271174E+02  0.00000000000E+00 0. -1.
         21   -1    0    0  501  503 -0.00000000000E+00 -0.00000000000E+00 -0.88393340593E+01  0.88393340593E+01  0.00000000000E+00 0.  1.
          2    1    1    2  501    0  0.14780288647E+02 -0.17017585523E+02  0.13930416850E+02  0.26497389742E+02  0.00000000000E+00 0.  1.
         -2    1    1    2    0  502 -0.14780288647E+02  0.17017585523E+02  0.47139520265E+02  0.52251215491E+02  0.00000000000E+00 0. -1.
<mgrwt>
<rscale>  2 0.22540079E+02</rscale>
<asrwt>0</asrwt>
<pdfrwt beam="1">  1       21 0.10755272E-01 0.22540079E+02</pdfrwt>
<pdfrwt beam="2">  1       21 0.13598976E-02 0.22540079E+02</pdfrwt>
<totfact> 0.11061734E+08</totfact>
</mgrwt>
</event>
<event>
 4    1  0.2677450E+004  0.3275825E+02  0.7546771E-02  0.1569459E+00
         21   -1    0    0  501  502  0.00000000000E+00  0.00000000000E+00  0.25782490675E+03  0.25782490675E+03  0.00000000000E+00 0.  1.
         21   -1    0    0  502  503 -0.00000000000E+00 -0.00000000000E+00 -0.45789865363E+01  0.45789865363E+01  0.00000000000E+00 0. -1.
          2    1    1    2  501    0  0.19607091622E+02  0.26242427182E+02  0.16620921010E+03  0.16940662486E+03  0.00000000000E+00 0.  1.
         -2    1    1    2    0  503 -0.19607091622E+02 -0.26242427182E+02  0.87036710115E+02  0.92997268422E+02  0.00000000000E+00 0. -1.
<mgrwt>
<rscale>  2 0.32758251E+02</rscale>
<asrwt>0</asrwt>
<pdfrwt beam="1">  1       21 0.39665359E-01 0.32758251E+02</pdfrwt>
<pdfrwt beam="2">  1       21 0.70445967E-03 0.32758251E+02</pdfrwt>
<totfact> 0.32365622E+07</totfact>
</mgrwt>
</event>
<event>
 4    1  0.2677450E+004  0.2566136E+02  0.7546771E-02  0.1651680E+00
         21   -1    0    0  501  502  0.00000000000E+00  0.00000000000E+00  0.20260175002E+02  0.20260175002E+02  0.00000000000E+00 0.  1.
         21   -1    0    0  502  503 -0.00000000000E+00 -0.00000000000E+00 -0.12708921030E+03  0.12708921030E+03  0.00000000000E+00 0. -1.
          2    1    1    2  501    0  0.21645887270E+02 -0.13782636567E+02  0.10144788419E+02  0.27593880454E+02  0.00000000000E+00 0.  1.
         -2    1    1    2    0  503 -0.21645887270E+02  0.13782636567E+02 -0.11697382372E+03  0.11975550485E+03  0.00000000000E+00 0. -1.
<mgrwt>
<rscale>  2 0.25661362E+02</rscale>
<asrwt>0</asrwt>
<pdfrwt beam="1">  1       21 0.31169500E-02 0.25661362E+02</pdfrwt>
<pdfrwt beam="2">  1       21 0.19552186E-01 0.25661362E+02</pdfrwt>
<totfact> 0.11502418E+07</totfact>
</mgrwt>
</event>
<event>
 4    1  0.2677450E+004  0.2165571E+02  0.7546771E-02  0.1714275E+00
         21   -1    0    0  501  502  0.00000000000E+00  0.00000000000E+00  0.50381853346E+03  0.50381853346E+03  0.00000000000E+00 0.  1.
         21   -1    0    0  502  503 -0.00000000000E+00 -0.00000000000E+00 -0.12641006733E+01  0.12641006733E+01  0.00000000000E+00 0. -1.
          2    1    1    2  501    0 -0.49061886650E+01  0.21092626384E+02  0.38094734454E+03  0.38156237876E+03  0.00000000000E+00 0.  1.
         -2    1    1    2    0  503  0.49061886650E+01 -0.21092626384E+02  0.12160708825E+03  0.12352025537E+03  0.00000000000E+00 0. -1.
<mgrwt>
<rscale>  2 0.21655705E+02</rscale>
<asrwt>0</asrwt>
<pdfrwt beam="1">  1       21 0.77510383E-01 0.21655705E+02</pdfrwt>
<pdfrwt beam="2">  1       21 0.19447743E-03 0.21655705E+02</pdfrwt>
<totfact> 0.52052337E+07</totfact>
</mgrwt>
</event>
<event>
 4    1  0.2677450E+004  0.2225557E+02  0.7546771E-02  0.1703869E+00
         21   -1    0    0  503  502  0.00000000000E+00  0.00000000000E+00  0.39761520285E+02  0.39761520285E+02  0.00000000000E+00 0. -1.
         21   -1    0    0  501  503 -0.00000000000E+00 -0.00000000000E+00 -0.14074196632E+02  0.14074196632E+02  0.00000000000E+00 0.  1.
          2    1    1    2  501    0  0.19920206929E+01  0.22166237723E+02  0.37192097950E+01  0.22564192047E+02  0.00000000000E+00 0.  1.
         -2    1    1    2    0  502 -0.19920206929E+01 -0.22166237723E+02  0.21968113858E+02  0.31271524870E+02  0.00000000000E+00 0. -1.
<mgrwt>
<rscale>  2 0.22255567E+02</rscale>
<asrwt>0</asrwt>
<pdfrwt beam="1">  1       21 0.61171569E-02 0.22255567E+02</pdfrwt>
<pdfrwt beam="2">  1       21 0.21652610E-02 0.22255567E+02</pdfrwt>
<totfact> 0.13615178E+08</totfact>
</mgrwt>
</event>
<event>
 4    1  0.2677450E+004  0.2019076E+02  0.7546771E-02  0.1741561E+00
         21   -1    0    0  501  502  0.00000000000E+00  0.00000000000E+00  0.67372915814E+01  0.67372915814E+01  0.00000000000E+00 0. -1.
         21   -1    0    0  502  503 -0.00000000000E+00 -0.00000000000E+00 -0.13871988826E+03  0.13871988826E+03  0.00000000000E+00 0.  1.
          2    1    1    2  501    0  0.20141656035E+02  0.14072958486E+01 -0.11381646713E+02  0.23177762432E+02  0.00000000000E+00 0. -1.
         -2    1    1    2    0  503 -0.20141656035E+02 -0.14072958486E+01 -0.12060094996E+03  0.12227941741E+03  0.00000000000E+00 0.  1.
<mgrwt>
<rscale>  2 0.20190760E+02</rscale>
<asrwt>0</asrwt>
<pdfrwt beam="1">  1       21 0.10365064E-02 0.20190760E+02</pdfrwt>
<pdfrwt beam="2">  1       21 0.21341521E-01 0.20190760E+02</pdfrwt>
<totfact> 0.50385085E+07</totfact>
</mgrwt>
</event>
<event>
 4    1  0.2677450E+004  0.2075181E+02  0.7546771E-02  0.1730778E+00
         21   -1    0    0  501  502  0.00000000000E+00  0.00000000000E+00  0.11795431835E+01  0.11795431835E+01  0.00000000000E+00 0. -1.
         21   -1    0    0  502  503 -0.00000000000E+00 -0.00000000000E+00 -0.47506032119E+03  0.47506032119E+03  0.00000000000E+00 0.  1.
          2    1    1    2  501    0 -0.18938215223E+02 -0.84841935046E+01 -0.12237266790E+03  0.12411973004E+03  0.00000000000E+00 0. -1.
         -2    1    1    2    0  503  0.18938215223E+02  0.84841935046E+01 -0.35150811011E+03  0.35212013434E+03  0.00000000000E+00 0.  1.
<mgrwt>
<rscale>  2 0.20751808E+02</rscale>
<asrwt>0</asrwt>
<pdfrwt beam="1">  1       21 0.18146796E-03 0.20751808E+02</pdfrwt>
<pdfrwt beam="2">  1       21 0.73086294E-01 0.20751808E+02</pdfrwt>
<totfact> 0.64270191E+07</totfact>
</mgrwt>
</event>
<event>
 4    1  0.2677450E+004  0.2069451E+02  0.7546771E-02  0.1731859E+00
         21   -1    0    0  503  502  0.00000000000E+00  0.00000000000E+00  0.22386107079E+03  0.22386107079E+03  0.00000000000E+00 0.  1.
         21   -1    0    0  501  503 -0.00000000000E+00 -0.00000000000E+00 -0.50180170442E+01  0.50180170442E+01  0.00000000000E+00 0. -1.
          2    1    1    2  501    0  0.10730466702E+02  0.17695193432E+02  0.19401969377E+02  0.28367220553E+02  0.00000000000E+00 0. -1.
         -2    1    1    2    0  502 -0.10730466702E+02 -0.17695193432E+02  0.19944108437E+03  0.20051186728E+03  0.00000000000E+00 0.  1.
<mgrwt>
<rscale>  2 0.20694511E+02</rscale>
<asrwt>0</asrwt>
<pdfrwt beam="1">  1       21 0.34440157E-01 0.20694511E+02</pdfrwt>
<pdfrwt beam="2">  1       21 0.77200280E-03 0.20694511E+02</pdfrwt>
<totfact> 0.33392282E+07</totfact>
</mgrwt>
</event>
<event>
 4    1  0.2677450E+004  0.3157375E+02  0.7546771E-02  0.1581317E+00
         21   -1    0    0  503  502  0.00000000000E+00  0.00000000000E+00  0.10748050286E+04  0.10748050286E+04  0.00000000000E+00 0.  1.
         21   -1    0    0  501  503 -0.00000000000E+00 -0.00000000000E+00 -0.39982305882E+01  0.39982305882E+01  0.00000000000E+00 0. -1.
          2    1    1    2  501    0 -0.20224165539E+02 -0.24246342424E+02  0.62690062003E+02  0.70192206595E+02  0.00000000000E+00 0. -1.
         -2    1    1    2    0  502  0.20224165539E+02  0.24246342424E+02  0.10081167360E+04  0.10086110526E+04  0.00000000000E+00 0.  1.
<mgrwt>
<rscale>  2 0.31573755E+02</rscale>
<asrwt>0</asrwt>
<pdfrwt beam="1">  1       21 0.16535439E+00 0.31573755E+02</pdfrwt>
<pdfrwt beam="2">  1       21 0.61511325E-03 0.31573755E+02</pdfrwt>
<totfact> 0.18284961E+06</totfact>
</mgrwt>
</event>
<event>
 4    1  0.2677450E+004  0.2411352E+02  0.7546771E-02  0.1674071E+00
         21   -1    0    0  503  502  0.00000000000E+00  0.00000000000E+00  0.14418369915E+02  0.14418369915E+02  0.00000000000E+00 0.  1.
         21   -1    0    0  501  503 -0.00000000000E+00 -0.00000000000E+00 -0.66501352708E+02  0.66501352708E+02  0.00000000000E+00 0. -1.
          2    1    1    2  501    0 -0.76581368928E+01  0.22865146846E+02 -0.51424318513E+02  0.56797205350E+02  0.00000000000E+00 0. -1.
         -2    1    1    2    0  502  0.76581368928E+01 -0.22865146846E+02 -0.65866427971E+00  0.24122517273E+02  0.00000000000E+00 0.  1.
<mgrwt>
<rscale>  2 0.24113523E+02</rscale>
<asrwt>0</asrwt>
<pdfrwt beam="1">  1       21 0.22182107E-02 0.24113523E+02</pdfrwt>
<pdfrwt beam="2">  1       21 0.10230978E-01 0.24113523E+02</pdfrwt>
<totfact> 0.57971827E+07</totfact>
</mgrwt>
</event>
<event>
 4    1  0.2677450E+004  0.5008540E+02  0.7546771E-02  0.1444881E+00
         21   -1    0    0  503  502  0.00000000000E+00  0.00000000000E+00  0.40709956991E+01  0.40709956991E+01  0.00000000000E+00 0.  1.
         21   -1    0    0  501  503 -0.00000000000E+00 -0.00000000000E+00 -0.80288741015E+03  0.80288741015E+03  0.00000000000E+00 0. -1.
          2    1    1    2  501    0  0.49898527135E+02 -0.43225218934E+01 -0.59396726035E+03  0.59607520798E+03  0.00000000000E+00 0. -1.
         -2    1    1    2    0  502 -0.49898527135E+02  0.43225218934E+01 -0.20484915410E+03  0.21088319786E+03  0.00000000000E+00 0.  1.
<mgrwt>
<rscale>  2 0.50085399E+02</rscale>
<asrwt>0</asrwt>
<pdfrwt beam="1">  1       21 0.62630762E-03 0.50085399E+02</pdfrwt>
<pdfrwt beam="2">  1       21 0.12352102E+00 0.50085399E+02</pdfrwt>
<totfact> 0.37040162E+06</totfact>
</mgrwt>
</event>
<event>
 4    1  0.2677450E+004  0.2006154E+02  0.7546771E-02  0.1744107E+00
         21   -1    0    0  501  502  0.00000000000E+00  0.00000000000E+00  0.40588021469E+02  0.40588021469E+02  0.00000000000E+00 0.  1.
         21   -1    0    0  502  503 -0.00000000000E+00 -0.00000000000E+00 -0.99428009666E+01  0.99428009666E+01  0.00000000000E+00 0. -1.
          2    1    1    2  501    0  0.18055874147E+02  0.87436135008E+01  0.16637632089E+02  0.26062927115E+02  0.00000000000E+00 0.  1.
         -2    1    1    2    0  503 -0.18055874147E+02 -0.87436135008E+01  0.14007588414E+02  0.24467895321E+02  0.00000000000E+00 0. -1.
<mgrwt>
<rscale>  2 0.20061540E+02</rscale>
<asrwt>0</asrwt>
<pdfrwt beam="1">  1       21 0.62443109E-02 0.20061540E+02</pdfrwt>
<pdfrwt beam="2">  1       21 0.15296617E-02 0.20061540E+02</pdfrwt>
<totfact> 0.21656357E+08</totfact>
</mgrwt>
</event>
<event>
 4    1  0.2677450E+004  0.2207080E+02  0.7546771E-02  0.1707030E+00
         21   -1    0    0  503  502  0.00000000000E+00  0.00000000000E+00  0.12227119428E+02  0.12227119428E+02  0.00000000000E+00 0. -1.
         21   -1    0    0  501  503 -0.00000000000E+00 -0.00000000000E+00 -0.19689382527E+03  0.19689382527E+03  0.00000000000E+00 0.  1.
          2    1    1    2  501    0  0.11050124370E+02 -0.19105361297E+02 -0.18571826039E+03  0.18702511148E+03  0.00000000000E+00 0.  1.
         -2    1    1    2    0  502 -0.11050124370E+02  0.19105361297E+02  0.10515545499E+01  0.22095833224E+02  0.00000000000E+00 0. -1.
<mgrwt>
<rscale>  2 0.22070797E+02</rscale>
<asrwt>0</asrwt>
<pdfrwt beam="1">  1       21 0.18810954E-02 0.22070797E+02</pdfrwt>
<pdfrwt beam="2">  1       21 0.30291357E-01 0.22070797E+02</pdfrwt>
<totfact> 0.11192948E+07</totfact>
</mgrwt>
</event>
<event>
 4    1  0.2677450E+004  0.2290258E+02  0.7546771E-02  0.1693094E+00
         21   -1    0    0  503  502  0.00000000000E+00  0.00000000000E+00  0.34548457637E+02  0.34548457637E+02  0.00000000000E+00 0. -1.
         21   -1    0    0  501  503 -0.00000000000E+00 -0.00000000000E+00 -0.19044966689E+02  0.19044966689E+02  0.00000000000E+00 0.  1.
          2    1    1    2  501    0  0.16038195497E+02  0.16349445304E+02 -0.43161097770E+01  0.23305726338E+02  0.00000000000E+00 0. -1.
         -2    1    1    2    0  502 -0.16038195497E+02 -0.16349445304E+02  0.19819600725E+02  0.30287697988E+02  0.00000000000E+00 0.  1.
<mgrwt>
<rscale>  2 0.22902578E+02</rscale>
<asrwt>0</asrwt>
<pdfrwt beam="1">  1       21 0.53151473E-02 0.22902578E+02</pdfrwt>
<pdfrwt beam="2">  1       21 0.29299949E-02 0.22902578E+02</pdfrwt>
<totfact> 0.10773590E+08</totfact>
</mgrwt>
</event>
<event>
 4    1  0.2677450E+004  0.2292721E+02  0.7546771E-02  0.1692693E+00
         21   -1    0    0  503  502  0.00000000000E+00  0.00000000000E+00  0.58593450232E+02  0.58593450232E+02  0.00000000000E+00 0. -1.
         21   -1    0    0  501  503 -0.00000000000E+00 -0.00000000000E+00 -0.95192975692E+01  0.95192975692E+01  0.00000000000E+00 0.  1.
          2    1    1    2  501    0 -0.22625117170E+02 -0.37096090368E+01  0.16365595196E+02  0.28168951565E+02  0.00000000000E+00 0. -1.
         -2    1    1    2    0  502  0.22625117170E+02  0.37096090368E+01  0.32708557467E+02  0.39943796236E+02  0.00000000000E+00 0.  1.
<mgrwt>
<rscale>  2 0.22927214E+02</rscale>
<asrwt>0</asrwt>
<pdfrwt beam="1">  1       21 0.90143768E-02 0.22927214E+02</pdfrwt>
<pdfrwt beam="2">  1       21 0.14645074E-02 0.22927214E+02</pdfrwt>
<totfact> 0.13299928E+08</totfact>
</mgrwt>
</event>
<event>
 4    1  0.2677450E+004  0.2073361E+02  0.7546771E-02  0.1731121E+00
         21   -1    0    0  501  502  0.00000000000E+00  0.00000000000E+00  0.88922569567E+02  0.88922569567E+02  0.00000000000E+00 0. -1.
         21   -1    0    0  502  503 -0.00000000000E+00 -0.00000000000E+00 -0.57491101493E+01  0.57491101493E+01  0.00000000000E+00 0.  1.
          2    1    1    2  501    0 -0.11883604825E+02 -0.16990072089E+02  0.60468554081E+02  0.63924397892E+02  0.00000000000E+00 0. -1.
         -2    1    1    2    0  503  0.11883604825E+02  0.16990072089E+02  0.22704905337E+02  0.30747281824E+02  0.00000000000E+00 0.  1.
<mgrwt>
<rscale>  2 0.20733611E+02</rscale>
<asrwt>0</asrwt>
<pdfrwt beam="1">  1       21 0.13680394E-01 0.20733611E+02</pdfrwt>
<pdfrwt beam="2">  1       21 0.88447854E-03 0.20733611E+02</pdfrwt>
<totfact> 0.13779019E+08</totfact>
</mgrwt>
</event>
<event>
 4    1  0.2677450E+004  0.2501113E+02  0.7546771E-02  0.1660842E+00
         21   -1    0    0  503  502  0.00000000000E+00  0.00000000000E+00  0.66115505346E+01  0.66115505346E+01  0.00000000000E+00 0.  1.
         21   -1    0    0  501  503 -0.00000000000E+00 -0.00000000000E+00 -0.94638028440E+02  0.94638028440E+02  0.00000000000E+00 0. -1.
          2    1    1    2  501    0  0.21862778371E+02 -0.12148073198E+02 -0.43236367180E+02  0.49949376447E+02  0.00000000000E+00 0. -1.
         -2    1    1    2    0  502 -0.21862778371E+02  0.12148073198E+02 -0.44790110726E+02  0.51300202528E+02  0.00000000000E+00 0.  1.
<mgrwt>
<rscale>  2 0.25011133E+02</rscale>
<asrwt>0</asrwt>
<pdfrwt beam="1">  1       21 0.10171617E-02 0.25011133E+02</pdfrwt>
<pdfrwt beam="2">  1       21 0.14559695E-01 0.25011133E+02</pdfrwt>
<totfact> 0.10610720E+08</totfact>
</mgrwt>
</event>
<event>
 4    1  0.2677450E+004  0.2271554E+02  0.7546771E-02  0.1696163E+00
         21   -1    0    0  503  502  0.00000000000E+00  0.00000000000E+00  0.65210225078E+02  0.65210225078E+02  0.00000000000E+00 0.  1.
         21   -1    0    0  501  503 -0.00000000000E+00 -0.00000000000E+00 -0.20015803480E+02  0.20015803480E+02  0.00000000000E+00 0. -1.
          2    1    1    2  501    0 -0.67874635479E+01 -0.21677774974E+02 -0.10538957505E+02  0.25041270226E+02  0.00000000000E+00 0. -1.
         -2    1    1    2    0  502  0.67874635479E+01  0.21677774974E+02  0.55733379103E+02  0.60184758332E+02  0.00000000000E+00 0.  1.
<mgrwt>
<rscale>  2 0.22715536E+02</rscale>
<asrwt>0</asrwt>
<pdfrwt beam="1">  1       21 0.10032342E-01 0.22715536E+02</pdfrwt>
<pdfrwt beam="2">  1       21 0.30793544E-02 0.22715536E+02</pdfrwt>
<totfact> 0.35472530E+07</totfact>
</mgrwt>
</event>
<event>
 4    1  0.2677450E+004  0.3563779E+02  0.7546771E-02  0.1543009E+00
         21   -1    0    0  503  502  0.00000000000E+00  0.00000000000E+00  0.16929556279E+02  0.16929556279E+02  0.00000000000E+00 0.  1.
         21   -1    0    0  501  503 -0.00000000000E+00 -0.00000000000E+00 -0.95300613139E+02  0.95300613139E+02  0.00000000000E+00 0. -1.
          2    1    1    2  501    0  0.11850329204E+02  0.33609846072E+02 -0.65072090434E+02  0.74191839233E+02  0.00000000000E+00 0.  1.
         -2    1    1    2    0  502 -0.11850329204E+02 -0.33609846072E+02 -0.13298966426E+02  0.38038330185E+02  0.00000000000E+00 0. -1.
<mgrwt>
<rscale>  2 0.35637790E+02</rscale>
<asrwt>0</asrwt>
<pdfrwt beam="1">  1       21 0.26045471E-02 0.35637790E+02</pdfrwt>
<pdfrwt beam="2">  1       21 0.14661633E-01 0.35637790E+02</pdfrwt>
<totfact> 0.26695389E+07</totfact>
</mgrwt>
</event>
<event>
 4    1  0.2677450E+004  0.3111040E+02  0.7546771E-02  0.1586129E+00
         21   -1    0    0  501  502  0.00000000000E+00  0.00000000000E+00  0.47157939235E+03  0.47157939235E+03  0.00000000000E+00 0.  1.
         21   -1    0    0  502  503 -0.00000000000E+00 -0.00000000000E+00 -0.59849056773E+01  0.59849056773E+01  0.00000000000E+00 0. -1.
          2    1    1    2  501    0  0.23106002389E+02  0.20831938317E+02  0.42635445152E+03  0.42748798268E+03  0.00000000000E+00 0.  1.
         -2    1    1    2    0  503 -0.23106002389E+02 -0.20831938317E+02  0.39240035152E+02  0.50076315351E+02  0.00000000000E+00 0. -1.
<mgrwt>
<rscale>  2 0.31110400E+02</rscale>
<asrwt>0</asrwt>
<pdfrwt beam="1">  1       21 0.72550647E-01 0.31110400E+02</pdfrwt>
<pdfrwt beam="2">  1       21 0.92075509E-03 0.31110400E+02</pdfrwt>
<totfact> 0.64294616E+06</totfact>
</mgrwt>
</event>
<event>
 4    1  0.2677450E+004  0.2194815E+02  0.7546771E-02  0.1709150E+00
         21   -1    0    0  503  502  0.00000000000E+00  0.00000000000E+00  0.17456823307E+02  0.17456823307E+02  0.00000000000E+00 0. -1.
         21   -1    0    0  501  503 -0.00000000000E+00 -0.00000000000E+00 -0.28239855355E+02  0.28239855355E+02  0.00000000000E+00 0.  1.
          2    1    1    2  501    0  0.21656552654E+02 -0.35658395652E+01 -0.19389183968E+01  0.22033630867E+02  0.00000000000E+00 0.  1.
         -2    1    1    2    0  502 -0.21656552654E+02  0.35658395652E+01 -0.88441136518E+01  0.23663047795E+02  0.00000000000E+00 0. -1.
<mgrwt>
<rscale>  2 0.21948154E+02</rscale>
<asrwt>0</asrwt>
<pdfrwt beam="1">  1       21 0.26856651E-02 0.21948154E+02</pdfrwt>
<pdfrwt beam="2">  1       21 0.43445931E-02 0.21948154E+02</pdfrwt>
<totfact> 0.16767305E+08</totfact>
</mgrwt>
</event>
<event>
 4    1  0.2677450E+004  0.2242578E+02  0.7546771E-02  0.1700991E+00
         21   -1    0    0  503  502  0.00000000000E+00  0.00000000000E+00  0.56552219799E+02  0.56552219799E+02  0.00000000000E+00 0.  1.
         21   -1    0    0  501  503 -0.00000000000E+00 -0.00000000000E+00 -0.25644565983E+02  0.25644565983E+02  0.00000000000E+00 0. -1.
          2    1    1    2  501    0  0.92348976818E-01 -0.22425592677E+02 -0.17762804886E+02  0.28608267558E+02  0.00000000000E+00 0. -1.
         -2    1    1    2    0  502 -0.92348976818E-01  0.22425592677E+02  0.48670458701E+02  0.53588518224E+02  0.00000000000E+00 0.  1.
<mgrwt>
<rscale>  2 0.22425783E+02</rscale>
<asrwt>0</asrwt>
<pdfrwt beam="1">  1       21 0.87003415E-02 0.22425783E+02</pdfrwt>
<pdfrwt beam="2">  1       21 0.39453178E-02 0.22425783E+02</pdfrwt>
<totfact> 0.30329208E+07</totfact>
</mgrwt>
</event>
<event>
 4    1  0.2677450E+004  0.2049081E+02  0.7546771E-02  0.1735740E+00
         21   -1    0    0  501  502  0.00000000000E+00  0.00000000000E+00  0.25418144148E+02  0.25418144148E+02  0.00000000000E+00 0. -1.
         21   -1    0    0  502  503 -0.00000000000E+00 -0.00000000000E+00 -0.19265930055E+02  0.19265930055E+02  0.00000000000E+00 0.  1.
          2    1    1    2  501    0 -0.79495264929E+01  0.18885930689E+02  0.11512940700E+02  0.23503641271E+02  0.00000000000E+00 0. -1.
         -2    1    1    2    0  503  0.79495264929E+01 -0.18885930689E+02 -0.53607266062E+01  0.21180432932E+02  0.00000000000E+00 0.  1.
<mgrwt>
<rscale>  2 0.20490811E+02</rscale>
<asrwt>0</asrwt>
<pdfrwt beam="1">  1       21 0.39104837E-02 0.20490811E+02</pdfrwt>
<pdfrwt beam="2">  1       21 0.29639892E-02 0.20490811E+02</pdfrwt>
<totfact> 0.16622199E+08</totfact>
</mgrwt>
</event>
<event>
 4    1  0.2677450E+004  0.2644961E+02  0.7546771E-02  0.1641013E+00
         21   -1    0    0  503  502  0.00000000000E+00  0.00000000000E+00  0.19749851562E+03  0.19749851562E+03  0.00000000000E+00 0. -1.
         21   -1    0    0  501  503 -0.00000000000E+00 -0.00000000000E+00 -0.40285673680E+01  0.40285673680E+01  0.00000000000E+00 0.  1.
          2    1    1    2  501    0 -0.15977230794E+02  0.21078665400E+02  0.61724015713E+02  0.67152335437E+02  0.00000000000E+00 0.  1.
         -2    1    1    2    0  502  0.15977230794E+02 -0.21078665400E+02  0.13174593254E+03  0.13437474755E+03  0.00000000000E+00 0. -1.
<mgrwt>
<rscale>  2 0.26449613E+02</rscale>
<asrwt>0</asrwt>
<pdfrwt beam="1">  1       21 0.30384379E-01 0.26449613E+02</pdfrwt>
<pdfrwt beam="2">  1       21 0.61977975E-03 0.26449613E+02</pdfrwt>
<totfact> 0.61748221E+07</totfact>
</mgrwt>
</event>
<event>
 4    1  0.2677450E+004  0.4069854E+02  0.7546771E-02  0.1503133E+00
         21   -1    0    0  503  502  0.00000000000E+00  0.00000000000E+00  0.14938008516E+03  0.14938008516E+03  0.00000000000E+00 0.  1.
         21   -1    0    0  501  503 -0.00000000000E+00 -0.00000000000E+00 -0.12976262923E+02  0.12976262923E+02  0.00000000000E+00 0. -1.
          2    1    1    2  501    0  0.10029566341E+01 -0.40686176746E+02  0.37237600166E+02  0.55163482182E+02  0.00000000000E+00 0. -1.
         -2    1    1    2    0  502 -0.10029566341E+01  0.40686176746E+02  0.99166222073E+02  0.10719286590E+03  0.00000000000E+00 0.  1.
<mgrwt>
<rscale>  2 0.40698537E+02</rscale>
<asrwt>0</asrwt>
<pdfrwt beam="1">  1       21 0.22981550E-01 0.40698537E+02</pdfrwt>
<pdfrwt beam="2">  1       21 0.19963482E-02 0.40698537E+02</pdfrwt>
<totfact> 0.18711777E+07</totfact>
</mgrwt>
</event>
<event>
 4    1  0.2677450E+004  0.2176270E+02  0.7546771E-02  0.1712389E+00
         21   -1    0    0  503  502  0.00000000000E+00  0.00000000000E+00  0.86315771141E+01  0.86315771141E+01  0.00000000000E+00 0. -1.
         21   -1    0    0  501  503 -0.00000000000E+00 -0.00000000000E+00 -0.26848336951E+03  0.26848336951E+03  0.00000000000E+00 0.  1.
          2    1    1    2  501    0 -0.21724374291E+02 -0.12910251902E+01 -0.25351648777E+03  0.25444886472E+03  0.00000000000E+00 0.  1.
         -2    1    1    2    0  502  0.21724374291E+02  0.12910251902E+01 -0.63353046269E+01  0.22666081909E+02  0.00000000000E+00 0. -1.
<mgrwt>
<rscale>  2 0.21762702E+02</rscale>
<asrwt>0</asrwt>
<pdfrwt beam="1">  1       21 0.13279348E-02 0.21762702E+02</pdfrwt>
<pdfrwt beam="2">  1       21 0.41305140E-01 0.21762702E+02</pdfrwt>
<totfact> 0.10673041E+07</totfact>
</mgrwt>
</event>
<event>
 4    1  0.2677450E+004  0.2605104E+02  0.7546771E-02  0.1646349E+00
         21   -1    0    0  501  502  0.00000000000E+00  0.00000000000E+00  0.12828358352E+02  0.12828358352E+02  0.00000000000E+00 0. -1.
         21   -1    0    0  502  503 -0.00000000000E+00 -0.00000000000E+00 -0.64594134623E+02  0.64594134623E+02  0.00000000000E+00 0.  1.
          2    1    1    2  501    0 -0.25485349497E+02 -0.53994011731E+01 -0.94137094675E+01  0.27699720178E+02  0.00000000000E+00 0. -1.
         -2    1    1    2    0  503  0.25485349497E+02  0.53994011731E+01 -0.42352066804E+02  0.49722772796E+02  0.00000000000E+00 0.  1.
<mgrwt>
<rscale>  2 0.26051038E+02</rscale>
<asrwt>0</asrwt>
<pdfrwt beam="1">  1       21 0.19735936E-02 0.26051038E+02</pdfrwt>
<pdfrwt beam="2">  1       21 0.99375590E-02 0.26051038E+02</pdfrwt>
<totfact> 0.74275833E+07</totfact>
</mgrwt>
</event>
<event>
 4    1  0.2677450E+004  0.3519233E+02  0.7546771E-02  0.1546899E+00
         21   -1    0    0  501  502  0.00000000000E+00  0.00000000000E+00  0.10410384717E+01  0.10410384717E+01  0.00000000000E+00 0.  1.
         21   -1    0    0  502  503 -0.00000000000E+00 -0.00000000000E+00 -0.12200192523E+04  0.12200192523E+04  0.00000000000E+00 0. -1.
          2    1    1    2  501    0  0.35187017326E+02  0.61160779445E+00 -0.51320764327E+03  0.51441285497E+03  0.00000000000E+00 0. -1.
         -2    1    1    2    0  503 -0.35187017326E+02 -0.61160779445E+00 -0.70577057060E+03  0.70664743584E+03  0.00000000000E+00 0.  1.
<mgrwt>
<rscale>  2 0.35192332E+02</rscale>
<asrwt>0</asrwt>
<pdfrwt beam="1">  1       21 0.16015861E-03 0.35192332E+02</pdfrwt>
<pdfrwt beam="2">  1       21 0.18769662E+00 0.35192332E+02</pdfrwt>
<totfact> 0.97335972E+06</totfact>
</mgrwt>
</event>
<event>
 4    1  0.2677450E+004  0.2383203E+02  0.7546771E-02  0.1678368E+00
         21   -1    0    0  501  502  0.00000000000E+00  0.00000000000E+00  0.27903993475E+01  0.27903993475E+01  0.00000000000E+00 0. -1.
         21   -1    0    0  502  503 -0.00000000000E+00 -0.00000000000E+00 -0.25383952428E+03  0.25383952428E+03  0.00000000000E+00 0.  1.
          2    1    1    2  501    0  0.25862232025E+01  0.23691288898E+02 -0.68407286055E+02  0.72439785377E+02  0.00000000000E+00 0. -1.
         -2    1    1    2    0  503 -0.25862232025E+01 -0.23691288898E+02 -0.18264183888E+03  0.18419013825E+03  0.00000000000E+00 0.  1.
<mgrwt>
<rscale>  2 0.23832031E+02</rscale>
<asrwt>0</asrwt>
<pdfrwt beam="1">  1       21 0.42929214E-03 0.23832031E+02</pdfrwt>
<pdfrwt beam="2">  1       21 0.39052241E-01 0.23832031E+02</pdfrwt>
<totfact> 0.65125448E+07</totfact>
</mgrwt>
</event>
<event>
 4    1  0.2677450E+004  0.3043958E+02  0.7546771E-02  0.1593280E+00
         21   -1    0    0  501  502  0.00000000000E+00  0.00000000000E+00  0.25008306665E+02  0.25008306665E+02  0.00000000000E+00 0. -1.
         21   -1    0    0  502  503 -0.00000000000E+00 -0.00000000000E+00 -0.61753128926E+02  0.61753128926E+02  0.00000000000E+00 0.  1.
          2    1    1    2  501    0 -0.27276595385E+02 -0.13511306689E+02  0.90647776419E+01  0.31760640075E+02  0.00000000000E+00 0. -1.
         -2    1    1    2    0  503  0.27276595385E+02  0.13511306689E+02 -0.45809599902E+02  0.55000795517E+02  0.00000000000E+00 0.  1.
<mgrwt>
<rscale>  2 0.30439581E+02</rscale>
<asrwt>0</asrwt>
<pdfrwt beam="1">  1       21 0.38474318E-02 0.30439581E+02</pdfrwt>
<pdfrwt beam="2">  1       21 0.95004813E-02 0.30439581E+02</pdfrwt>
<totfact> 0.29191289E+07</totfact>
</mgrwt>
</event>
<event>
 4    1  0.2677450E+004  0.2522767E+02  0.7546771E-02  0.1657753E+00
         21   -1    0    0  503  502  0.00000000000E+00  0.00000000000E+00  0.82399751276E+02  0.82399751276E+02  0.00000000000E+00 0. -1.
         21   -1    0    0  501  503 -0.00000000000E+00 -0.00000000000E+00 -0.11002440926E+02  0.11002440926E+02  0.00000000000E+00 0.  1.
          2    1    1    2  501    0 -0.91855316601E+00 -0.25210938287E+02  0.10204963213E+02  0.27213533828E+02  0.00000000000E+00 0.  1.
         -2    1    1    2    0  502  0.91855316601E+00  0.25210938287E+02  0.61192347137E+02  0.66188658374E+02  0.00000000000E+00 0. -1.
<mgrwt>
<rscale>  2 0.25227666E+02</rscale>
<asrwt>0</asrwt>
<pdfrwt beam="1">  1       21 0.12676884E-01 0.25227666E+02</pdfrwt>
<pdfrwt beam="2">  1       21 0.16926833E-02 0.25227666E+02</pdfrwt>
<totfact> 0.62054340E+07</totfact>
</mgrwt>
</event>
<event>
 4    1  0.2677450E+004  0.2217752E+02  0.7546771E-02  0.1705200E+00
         21   -1    0    0  503  502  0.00000000000E+00  0.00000000000E+00  0.79520567195E+03  0.79520567195E+03  0.00000000000E+00 0.  1.
         21   -1    0    0  501  503 -0.00000000000E+00 -0.00000000000E+00 -0.73785436959E+00  0.73785436959E+00  0.00000000000E+00 0. -1.
          2    1    1    2  501    0 -0.21741807947E+02  0.43744728679E+01  0.23717903846E+03  0.23821364048E+03  0.00000000000E+00 0. -1.
         -2    1    1    2    0  502  0.21741807947E+02 -0.43744728679E+01  0.55728877912E+03  0.55772988584E+03  0.00000000000E+00 0.  1.
<mgrwt>
<rscale>  2 0.22177516E+02</rscale>
<asrwt>0</asrwt>
<pdfrwt beam="1">  1       21 0.12233865E+00 0.22177516E+02</pdfrwt>
<pdfrwt beam="2">  1       21 0.11351669E-03 0.22177516E+02</pdfrwt>
<totfact> 0.42002366E+07</totfact>
</mgrwt>
</event>
<event>
 4    1  0.2677450E+004  0.2156877E+02  0.7546771E-02  0.1715818E+00
         21   -1    0    0  501  502  0.00000000000E+00  0.00000000000E+00  0.83158309087E+02  0.83158309087E+02  0.00000000000E+00 0.  1.
         21   -1    0    0  502  503 -0.00000000000E+00 -0.00000000000E+00 -0.74929546689E+01  0.74929546689E+01  0.00000000000E+00 0. -1.
          2    1    1    2  501    0 -0.36118348958E+01  0.21264207562E+02  0.60648766346E+02  0.64369905498E+02  0.00000000000E+00 0.  1.
         -2    1    1    2    0  503  0.36118348958E+01 -0.21264207562E+02  0.15016588071E+02  0.26281358257E+02  0.00000000000E+00 0. -1.
<mgrwt>
<rscale>  2 0.21568771E+02</rscale>
<asrwt>0</asrwt>
<pdfrwt beam="1">  1       21 0.12793585E-01 0.21568771E+02</pdfrwt>
<pdfrwt beam="2">  1       21 0.11527623E-02 0.21568771E+02</pdfrwt>
<totfact> 0.10491626E+08</totfact>
</mgrwt>
</event>
<event>
 4    1  0.2677450E+004  0.3229763E+02  0.7546771E-02  0.1573997E+00
         21   -1    0    0  503  502  0.00000000000E+00  0.00000000000E+00  0.23715228379E+02  0.23715228379E+02  0.00000000000E+00 0.  1.
         21   -1    0    0  501  503 -0.00000000000E+00 -0.00000000000E+00 -0.97589572217E+02  0.97589572217E+02  0.00000000000E+00 0. -1.
          2    1    1    2  501    0 -0.12901180351E+02  0.29609057836E+02 -0.81888587167E+02  0.88027708527E+02  0.00000000000E+00 0. -1.
         -2    1    1    2    0  502  0.12901180351E+02 -0.29609057836E+02  0.80142433292E+01  0.33277092068E+02  0.00000000000E+00 0.  1.
<mgrwt>
<rscale>  2 0.32297628E+02</rscale>
<asrwt>0</asrwt>
<pdfrwt beam="1">  1       21 0.36484966E-02 0.32297628E+02</pdfrwt>
<pdfrwt beam="2">  1       21 0.15013781E-01 0.32297628E+02</pdfrwt>
<totfact> 0.14778392E+07</totfact>
</mgrwt>
</event>
<event>
 4    1  0.2677450E+004  0.6413342E+02  0.7546771E-02  0.1381261E+00
         21   -1    0    0  503  502  0.00000000000E+00  0.00000000000E+00  0.72702875325E+02  0.72702875325E+02  0.00000000000E+00 0.  1.
         21   -1    0    0  501  503 -0.00000000000E+00 -0.00000000000E+00 -0.10441801902E+03  0.10441801902E+03  0.00000000000E+00 0. -1.
          2    1    1    2  501    0  0.60145554109E+02  0.22262255908E+02 -0.75804329779E+02  0.99294471802E+02  0.00000000000E+00 0. -1.
         -2    1    1    2    0  502 -0.60145554109E+02 -0.22262255908E+02  0.44089186080E+02  0.77826422547E+02  0.00000000000E+00 0.  1.
<mgrwt>
<rscale>  2 0.64133421E+02</rscale>
<asrwt>0</asrwt>
<pdfrwt beam="1">  1       21 0.11185058E-01 0.64133421E+02</pdfrwt>
<pdfrwt beam="2">  1       21 0.16064311E-01 0.64133421E+02</pdfrwt>
<totfact> 0.22186354E+06</totfact>
</mgrwt>
</event>
<event>
 4    1  0.2677450E+004  0.3265448E+02  0.7546771E-02  0.1570474E+00
         21   -1    0    0  501  502  0.00000000000E+00  0.00000000000E+00  0.46284846179E+03  0.46284846179E+03  0.00000000000E+00 0. -1.
         21   -1    0    0  502  503 -0.00000000000E+00 -0.00000000000E+00 -0.23101782426E+01  0.23101782426E+01  0.00000000000E+00 0.  1.
          2    1    1    2  501    0 -0.32635272850E+02  0.11198988394E+01  0.21805855340E+03  0.22049001773E+03  0.00000000000E+00 0.  1.
         -2    1    1    2    0  503  0.32635272850E+02 -0.11198988394E+01  0.24247973014E+03  0.24466862230E+03  0.00000000000E+00 0. -1.
<mgrwt>
<rscale>  2 0.32654482E+02</rscale>
<asrwt>0</asrwt>
<pdfrwt beam="1">  1       21 0.71207382E-01 0.32654482E+02</pdfrwt>
<pdfrwt beam="2">  1       21 0.35541241E-03 0.32654482E+02</pdfrwt>
<totfact> 0.27966747E+07</totfact>
</mgrwt>
</event>
<event>
 4    1  0.2677450E+004  0.2267686E+02  0.7546771E-02  0.1696802E+00
         21   -1    0    0  501  502  0.00000000000E+00  0.00000000000E+00  0.21313071249E+02  0.21313071249E+02  0.00000000000E+00 0.  1.
         21   -1    0    0  502  503 -0.00000000000E+00 -0.00000000000E+00 -0.29714042385E+02  0.29714042385E+02  0.00000000000E+00 0. -1.
          2    1    1    2  501    0  0.20833760824E+02 -0.89551256582E+01  0.68618224991E+01  0.23692287218E+02  0.00000000000E+00 0.  1.
         -2    1    1    2    0  503 -0.20833760824E+02  0.89551256582E+01 -0.15262793636E+02  0.27334826416E+02  0.00000000000E+00 0. -1.
<mgrwt>
<rscale>  2 0.22676857E+02</rscale>
<asrwt>0</asrwt>
<pdfrwt beam="1">  1       21 0.32789340E-02 0.22676857E+02</pdfrwt>
<pdfrwt beam="2">  1       21 0.45713912E-02 0.22676857E+02</pdfrwt>
<totfact> 0.11456222E+08</totfact>
</mgrwt>
</event>
<event>
 4    1  0.2677450E+004  0.2133550E+02  0.7546771E-02  0.1720004E+00
         21   -1    0    0  503  502  0.00000000000E+00  0.00000000000E+00  0.68908693332E+02  0.68908693332E+02  0.00000000000E+00 0. -1.
         21   -1    0    0  501  503 -0.00000000000E+00 -0.00000000000E+00 -0.67094228007E+01  0.67094228007E+01  0.00000000000E+00 0.  1.
          2    1    1    2  501    0 -0.21004139681E+02  0.37456390047E+01  0.35796182016E+02  0.41672177076E+02  0.00000000000E+00 0.  1.
         -2    1    1    2    0  502  0.21004139681E+02 -0.37456390047E+01  0.26403088515E+02  0.33945939057E+02  0.00000000000E+00 0. -1.
<mgrwt>
<rscale>  2 0.21335503E+02</rscale>
<asrwt>0</asrwt>
<pdfrwt beam="1">  1       21 0.10601337E-01 0.21335503E+02</pdfrwt>
<pdfrwt beam="2">  1       21 0.10322189E-02 0.21335503E+02</pdfrwt>
<totfact> 0.16884175E+08</totfact>
</mgrwt>
</event>
<event>
 4    1  0.2677450E+004  0.2054660E+02  0.7546771E-02  0.1734672E+00
         21   -1    0    0  501  502  0.00000000000E+00  0.00000000000E+00  0.13121879405E+02  0.13121879405E+02  0.00000000000E+00 0.  1.
         21   -1    0    0  502  503 -0.00000000000E+00 -0.00000000000E+00 -0.59540959533E+02  0.59540959533E+02  0.00000000000E+00 0. -1.
          2    1    1    2  501    0 -0.56680778818E+01 -0.19749319703E+02  0.14224891046E+01  0.20595781385E+02  0.00000000000E+00 0.  1.
         -2    1    1    2    0  503  0.56680778818E+01  0.19749319703E+02 -0.47841569232E+02  0.52067057553E+02  0.00000000000E+00 0. -1.
<mgrwt>
<rscale>  2 0.20546599E+02</rscale>
<asrwt>0</asrwt>
<pdfrwt beam="1">  1       21 0.20187507E-02 0.20546599E+02</pdfrwt>
<pdfrwt beam="2">  1       21 0.91601477E-02 0.20546599E+02</pdfrwt>
<totfact> 0.76964570E+07</totfact>
</mgrwt>
</event>
<event>
 4    1  0.2677450E+004  0.2055613E+02  0.7546771E-02  0.1734490E+00
         21   -1    0    0  501  502  0.00000000000E+00  0.00000000000E+00  0.37942453057E+03  0.37942453057E+03  0.00000000000E+00 0.  1.
         21   -1    0    0  502  503 -0.00000000000E+00 -0.00000000000E+00 -0.15575370027E+01  0.15575370027E+01  0.00000000000E+00 0. -1.
          2    1    1    2  501    0  0.68312031190E+01 -0.19387855933E+02  0.29062415040E+03  0.29135022067E+03  0.00000000000E+00 0.  1.
         -2    1    1    2    0  503 -0.68312031190E+01  0.19387855933E+02  0.87242843172E+02  0.89631846898E+02  0.00000000000E+00 0. -1.
<mgrwt>
<rscale>  2 0.20556125E+02</rscale>
<asrwt>0</asrwt>
<pdfrwt beam="1">  1       21 0.58372931E-01 0.20556125E+02</pdfrwt>
<pdfrwt beam="2">  1       21 0.23962138E-03 0.20556125E+02</pdfrwt>
<totfact> 0.67623680E+07</totfact>
</mgrwt>
</event>
<event>
 4    1  0.2677450E+004  0.2086518E+02  0.7546771E-02  0.1728651E+00
         21   -1    0    0  503  502  0.00000000000E+00  0.00000000000E+00  0.68864389613E+01  0.68864389613E+01  0.00000000000E+00 0. -1.
         21   -1    0    0  501  503 -0.00000000000E+00 -0.00000000000E+00 -0.65743791901E+02  0.65743791901E+02  0.00000000000E+00 0.  1.
          2    1    1    2  501    0 -0.19200935159E+02  0.81657803503E+01 -0.36544852493E+02  0.42081850285E+02  0.00000000000E+00 0.  1.
         -2    1    1    2    0  502  0.19200935159E+02 -0.81657803503E+01 -0.22312500447E+02  0.30548380577E+02  0.00000000000E+00 0. -1.
<mgrwt>
<rscale>  2 0.20865183E+02</rscale>
<asrwt>0</asrwt>
<pdfrwt beam="1">  1       21 0.10594521E-02 0.20865183E+02</pdfrwt>
<pdfrwt beam="2">  1       21 0.10114430E-01 0.20865183E+02</pdfrwt>
<totfact> 0.17428283E+08</totfact>
</mgrwt>
</event>
<event>
 4    1  0.2677450E+004  0.2470426E+02  0.7546771E-02  0.1665286E+00
         21   -1    0    0  501  502  0.00000000000E+00  0.00000000000E+00  0.60987369034E+00  0.60987369034E+00  0.00000000000E+00 0. -1.
         21   -1    0    0  502  503 -0.00000000000E+00 -0.00000000000E+00 -0.10884654798E+04  0.10884654798E+04  0.00000000000E+00 0.  1.
          2    1    1    2  501    0  0.15685922167E+02 -0.19085389956E+02 -0.38930133334E+03  0.39008438626E+03  0.00000000000E+00 0. -1.
         -2    1    1    2    0  503 -0.15685922167E+02  0.19085389956E+02 -0.69855427281E+03  0.69899096727E+03  0.00000000000E+00 0.  1.
<mgrwt>
<rscale>  2 0.24704256E+02</rscale>
<asrwt>0</asrwt>
<pdfrwt beam="1">  1       21 0.93826804E-04 0.24704256E+02</pdfrwt>
<pdfrwt beam="2">  1       21 0.16745608E+00 0.24704256E+02</pdfrwt>
<totfact> 0.26863229E+07</totfact>
</mgrwt>
</event>
<event>
 4    1  0.2677450E+004  0.2302562E+02  0.7546771E-02  0.1691095E+00
         21   -1    0    0  503  502  0.00000000000E+00  0.00000000000E+00  0.10978803177E+04  0.10978803177E+04  0.00000000000E+00 0. -1.
         21   -1    0    0  501  503 -0.00000000000E+00 -0.00000000000E+00 -0.91905234406E+00  0.91905234406E+00  0.00000000000E+00 0.  1.
          2    1    1    2  501    0 -0.59477707948E+01  0.22244171518E+02  0.17001050105E+03  0.17156266963E+03  0.00000000000E+00 0.  1.
         -2    1    1    2    0  502  0.59477707948E+01 -0.22244171518E+02  0.92695076427E+03  0.92723670037E+03  0.00000000000E+00 0. -1.
<mgrwt>
<rscale>  2 0.23025619E+02</rscale>
<asrwt>0</asrwt>
<pdfrwt beam="1">  1       21 0.16890361E+00 0.23025619E+02</pdfrwt>
<pdfrwt beam="2">  1       21 0.14139355E-03 0.23025619E+02</pdfrwt>
<totfact> 0.14480023E+07</totfact>
</mgrwt>
</event>
<event>
 4    1  0.2677450E+004  0.2959568E+02  0.7546771E-02  0.1602601E+00
         21   -1    0    0  503  502  0.00000000000E+00  0.00000000000E+00  0.16749375485E+03  0.16749375485E+03  0.00000000000E+00 0.  1.
         21   -1    0    0  501  503 -0.00000000000E+00 -0.00000000000E+00 -0.56067029621E+01  0.56067029621E+01  0.00000000000E+00 0. -1.
          2    1    1    2  501    0 -0.62448824389E-01 -0.29595613781E+02  0.58493497447E+02  0.65554507843E+02  0.00000000000E+00 0.  1.
         -2    1    1    2    0  502  0.62448824389E-01  0.29595613781E+02  0.10339355445E+03  0.10754594997E+03  0.00000000000E+00 0. -1.
<mgrwt>
<rscale>  2 0.29595680E+02</rscale>
<asrwt>0</asrwt>
<pdfrwt beam="1">  1       21 0.25768266E-01 0.29595680E+02</pdfrwt>
<pdfrwt beam="2">  1       21 0.86256982E-03 0.29595680E+02</pdfrwt>
<totfact> 0.52079750E+07</totfact>
</mgrwt>
</event>
<event>
 4    1  0.2677450E+004  0.3310684E+02  0.7546771E-02  0.1566085E+00
         21   -1    0    0  501  502  0.00000000000E+00  0.00000000000E+00  0.41920308670E+02  0.41920308670E+02  0.00000000000E+00 0. -1.
         21   -1    0    0  502  503 -0.00000000000E+00 -0.00000000000E+00 -0.50506739966E+02  0.50506739966E+02  0.00000000000E+00 0.  1.
          2    1    1    2  501    0  0.14463498889E+02  0.29780366759E+02  0.27801722508E+02  0.43231918982E+02  0.00000000000E+00 0. -1.
         -2    1    1    2    0  503 -0.14463498889E+02 -0.29780366759E+02 -0.36388153804E+02  0.49195129654E+02  0.00000000000E+00 0.  1.
<mgrwt>
<rscale>  2 0.33106843E+02</rscale>
<asrwt>0</asrwt>
<pdfrwt beam="1">  1       21 0.64492783E-02 0.33106843E+02</pdfrwt>
<pdfrwt beam="2">  1       21 0.77702677E-02 0.33106843E+02</pdfrwt>
<totfact> 0.18005330E+07</totfact>
</mgrwt>
</event>
<event>
 4    1  0.2677450E+004  0.2017438E+02  0.7546771E-02  0.1741882E+00
         21   -1    0    0  501  502  0.00000000000E+00  0.00000000000E+00  0.25885299028E+02  0.25885299028E+02  0.00000000000E+00 0. -1.
         21   -1    0    0  502  503 -0.00000000000E+00 -0.00000000000E+00 -0.34974199294E+02  0.34974199294E+02  0.00000000000E+00 0.  1.
          2    1    1    2  501    0 -0.27055420751E+01  0.19992139357E+02  0.18031631538E+02  0.27058184157E+02  0.00000000000E+00 0.  1.
         -2    1    1    2    0  503  0.27055420751E+01 -0.19992139357E+02 -0.27120531804E+02  0.33801314165E+02  0.00000000000E+00 0. -1.
<mgrwt>
<rscale>  2 0.20174380E+02</rscale>
<asrwt>0</asrwt>
<pdfrwt beam="1">  1       21 0.39823537E-02 0.20174380E+02</pdfrwt>
<pdfrwt beam="2">  1       21 0.53806460E-02 0.20174380E+02</pdfrwt>
<totfact> 0.63112052E+07</totfact>
</mgrwt>
</event>
<event>
 4    1  0.2677450E+004  0.2040897E+02  0.7546771E-02  0.1737315E+00
         21   -1    0    0  503  502  0.00000000000E+00  0.00000000000E+00  0.23384795767E+03  0.23384795767E+03  0.00000000000E+00 0. -1.
         21   -1    0    0  501  503 -0.00000000000E+00 -0.00000000000E+00 -0.21538635359E+01  0.21538635359E+01  0.00000000000E+00 0.  1.
          2    1    1    2  501    0  0.32057430653E+01  0.20155623750E+02  0.66762504779E+02  0.69812305518E+02  0.00000000000E+00 0.  1.
         -2    1    1    2    0  502 -0.32057430653E+01 -0.20155623750E+02  0.16493158936E+03  0.16618951569E+03  0.00000000000E+00 0. -1.
<mgrwt>
<rscale>  2 0.20408968E+02</rscale>
<asrwt>0</asrwt>
<pdfrwt beam="1">  1       21 0.35976589E-01 0.20408968E+02</pdfrwt>
<pdfrwt beam="2">  1       21 0.33136381E-03 0.20408968E+02</pdfrwt>
<totfact> 0.10640909E+08</totfact>
</mgrwt>
</event>
<event>
 4    1  0.2677450E+004  0.3969205E+02  0.7546771E-02  0.1510490E+00
         21   -1    0    0  501  502  0.00000000000E+00  0.00000000000E+00  0.97527742502E+01  0.97527742502E+01  0.00000000000E+00 0.  1.
         21   -1    0    0  502  503 -0.00000000000E+00 -0.00000000000E+00 -0.17473300183E+03  0.17473300183E+03  0.00000000000E+00 0. -1.
          2    1    1    2  501    0  0.36593846398E+02  0.15373647849E+02 -0.57143214140E+02  0.69575897872E+02  0.00000000000E+00 0.  1.
         -2    1    1    2    0  503 -0.36593846398E+02 -0.15373647849E+02 -0.10783701344E+03  0.11490987821E+03  0.00000000000E+00 0. -1.
<mgrwt>
<rscale>  2 0.39692048E+02</rscale>
<asrwt>0</asrwt>
<pdfrwt beam="1">  1       21 0.15004270E-02 0.39692048E+02</pdfrwt>
<pdfrwt beam="2">  1       21 0.26881997E-01 0.39692048E+02</pdfrwt>
<totfact> 0.21846267E+07</totfact>
</mgrwt>
</event>
<event>
 4    1  0.2677450E+004  0.2152554E+02  0.7546771E-02  0.1716589E+00
         21   -1    0    0  503  502  0.00000000000E+00  0.00000000000E+00  0.42474633396E+01  0.42474633396E+01  0.00000000000E+00 0. -1.
         21   -1    0    0  501  503 -0.00000000000E+00 -0.00000000000E+00 -0.43556494291E+03  0.43556494291E+03  0.00000000000E+00 0.  1.
          2    1    1    2  501    0  0.39044016618E+01  0.21168474791E+02 -0.40604563878E+03  0.40661580078E+03  0.00000000000E+00 0.  1.
         -2    1    1    2    0  502 -0.39044016618E+01 -0.21168474791E+02 -0.25271840791E+02  0.33196605463E+02  0.00000000000E+00 0. -1.
<mgrwt>
<rscale>  2 0.21525535E+02</rscale>
<asrwt>0</asrwt>
<pdfrwt beam="1">  1       21 0.65345583E-03 0.21525535E+02</pdfrwt>
<pdfrwt beam="2">  1       21 0.67009998E-01 0.21525535E+02</pdfrwt>
<totfact> 0.11946849E+07</totfact>
</mgrwt>
</event>
<event>
 4    1  0.2677450E+004  0.2516348E+02  0.7546771E-02  0.1658665E+00
         21   -1    0    0  503  502  0.00000000000E+00  0.00000000000E+00  0.13940442620E+01  0.13940442620E+01  0.00000000000E+00 0. -1.
         21   -1    0    0  501  503 -0.00000000000E+00 -0.00000000000E+00 -0.46842395275E+03  0.46842395275E+03  0.00000000000E+00 0.  1.
          2    1    1    2  501    0 -0.19539007230E+02  0.15856477906E+02 -0.27442289606E+03  0.27557417618E+03  0.00000000000E+00 0.  1.
         -2    1    1    2    0  502  0.19539007230E+02 -0.15856477906E+02 -0.19260701243E+03  0.19424382084E+03  0.00000000000E+00 0. -1.
<mgrwt>
<rscale>  2 0.25163479E+02</rscale>
<asrwt>0</asrwt>
<pdfrwt beam="1">  1       21 0.21446813E-03 0.25163479E+02</pdfrwt>
<pdfrwt beam="2">  1       21 0.72065297E-01 0.25163479E+02</pdfrwt>
<totfact> 0.54376100E+07</totfact>
</mgrwt>
</event>
<event>
 4    1  0.2677450E+004  0.2121197E+02  0.7546771E-02  0.1722248E+00
         21   -1    0    0  501  502  0.00000000000E+00  0.00000000000E+00  0.38023449687E+02  0.38023449687E+02  0.00000000000E+00 0.  1.
         21   -1    0    0  502  503 -0.00000000000E+00 -0.00000000000E+00 -0.20317764145E+02  0.20317764145E+02  0.00000000000E+00 0. -1.
          2    1    1    2  501    0  0.21084859735E+02 -0.23186806118E+01  0.27703068349E+02  0.34891368356E+02  0.00000000000E+00 0.  1.
         -2    1    1    2    0  503 -0.21084859735E+02  0.23186806118E+01 -0.99973828079E+01  0.23449845476E+02  0.00000000000E+00 0. -1.
<mgrwt>
<rscale>  2 0.21211968E+02</rscale>
<asrwt>0</asrwt>
<pdfrwt beam="1">  1       21 0.58497614E-02 0.21211968E+02</pdfrwt>
<pdfrwt beam="2">  1       21 0.31258099E-02 0.21211968E+02</pdfrwt>
<totfact> 0.81765349E+07</totfact>
</mgrwt>
</event>
<event>
 4    1  0.2677450E+004  0.2584674E+02  0.7546771E-02  0.1649129E+00
         21   -1    0    0  501  502  0.00000000000E+00  0.00000000000E+00  0.35124524091E+02  0.35124524091E+02  0.00000000000E+00 0. -1.
         21   -1    0    0  502  503 -0.00000000000E+00 -0.00000000000E+00 -0.30011944722E+02  0.30011944722E+02  0.00000000000E+00 0.  1.
          2    1    1    2  501    0  0.25846238284E+02 -0.16145138543E+00  0.22266555616E+02  0.34115298606E+02  0.00000000000E+00 0. -1.
         -2    1    1    2    0  503 -0.25846238284E+02  0.16145138543E+00 -0.17153976246E+02  0.31021170207E+02  0.00000000000E+00 0.  1.
<mgrwt>
<rscale>  2 0.25846743E+02</rscale>
<asrwt>0</asrwt>
<pdfrwt beam="1">  1       21 0.54037729E-02 0.25846743E+02</pdfrwt>
<pdfrwt beam="2">  1       21 0.46172223E-02 0.25846743E+02</pdfrwt>
<totfact> 0.52965969E+07</totfact>
</mgrwt>
</event>
<event>
 4    1  0.2677450E+004  0.2612913E+02  0.7546771E-02  0.1645294E+00
         21   -1    0    0  501  502  0.00000000000E+00  0.00000000000E+00  0.36349990291E+01  0.36349990291E+01  0.00000000000E+00 0.  1.
         21   -1    0    0  502  503 -0.00000000000E+00 -0.00000000000E+00 -0.84426249938E+03  0.84426249938E+03  0.00000000000E+00 0. -1.
          2    1    1    2  501    0 -0.17805236256E+02  0.19123413928E+02 -0.46485241030E+02  0.53325500767E+02  0.00000000000E+00 0.  1.
         -2    1    1    2    0  503  0.17805236256E+02 -0.19123413928E+02 -0.79414225932E+03  0.79457199764E+03  0.00000000000E+00 0. -1.
<mgrwt>
<rscale>  2 0.26129129E+02</rscale>
<asrwt>0</asrwt>
<pdfrwt beam="1">  1       21 0.55923048E-03 0.26129129E+02</pdfrwt>
<pdfrwt beam="2">  1       21 0.12988657E+00 0.26129129E+02</pdfrwt>
<totfact> 0.36976636E+06</totfact>
</mgrwt>
</event>
<event>
 4    1  0.2677450E+004  0.4008718E+02  0.7546771E-02  0.1507571E+00
         21   -1    0    0  503  502  0.00000000000E+00  0.00000000000E+00  0.32535604864E+03  0.32535604864E+03  0.00000000000E+00 0.  1.
         21   -1    0    0  501  503 -0.00000000000E+00 -0.00000000000E+00 -0.57907820562E+01  0.57907820562E+01  0.00000000000E+00 0. -1.
          2    1    1    2  501    0 -0.10345716918E+02  0.38729164642E+02  0.22327890316E+03  0.22684895999E+03  0.00000000000E+00 0.  1.
         -2    1    1    2    0  502  0.10345716918E+02 -0.38729164642E+02  0.96286363425E+02  0.10429787071E+03  0.00000000000E+00 0. -1.
<mgrwt>
<rscale>  2 0.40087181E+02</rscale>
<asrwt>0</asrwt>
<pdfrwt beam="1">  1       21 0.50054762E-01 0.40087181E+02</pdfrwt>
<pdfrwt beam="2">  1       21 0.89088980E-03 0.40087181E+02</pdfrwt>
<totfact> 0.14887063E+07</totfact>
</mgrwt>
</event>
<event>
 4    1  0.2677450E+004  0.2314681E+02  0.7546771E-02  0.1689141E+00
         21   -1    0    0  503  502  0.00000000000E+00  0.00000000000E+00  0.14886530582E+03  0.14886530582E+03  0.00000000000E+00 0. -1.
         21   -1    0    0  501  503 -0.00000000000E+00 -0.00000000000E+00 -0.39880634489E+01  0.39880634489E+01  0.00000000000E+00 0.  1.
          2    1    1    2  501    0  0.95390352304E+01 -0.21089849657E+02  0.48569219871E+02  0.53802825860E+02  0.00000000000E+00 0.  1.
         -2    1    1    2    0  502 -0.95390352304E+01  0.21089849657E+02  0.96308022501E+02  0.99050543409E+02  0.00000000000E+00 0. -1.
<mgrwt>
<rscale>  2 0.23146813E+02</rscale>
<asrwt>0</asrwt>
<pdfrwt beam="1">  1       21 0.22902350E-01 0.23146813E+02</pdfrwt>
<pdfrwt beam="2">  1       21 0.61354834E-03 0.23146813E+02</pdfrwt>
<totfact> 0.10080884E+08</totfact>
</mgrwt>
</event>
<event>
 4    1  0.2677450E+004  0.4673972E+02  0.7546771E-02  0.1463764E+00
         21   -1    0    0  501  502  0.00000000000E+00  0.00000000000E+00  0.67624449302E+01  0.67624449302E+01  0.00000000000E+00 0. -1.
         21   -1    0    0  502  503 -0.00000000000E+00 -0.00000000000E+00 -0.42851663054E+03  0.42851663054E+03  0.00000000000E+00 0.  1.
          2    1    1    2  501    0  0.12000015717E+01  0.46724311459E+02 -0.10290451157E+03  0.11302185535E+03  0.00000000000E+00 0. -1.
         -2    1    1    2    0  503 -0.12000015717E+01 -0.46724311459E+02 -0.31884967404E+03  0.32225722012E+03  0.00000000000E+00 0.  1.
<mgrwt>
<rscale>  2 0.46739718E+02</rscale>
<asrwt>0</asrwt>
<pdfrwt beam="1">  1       21 0.10403762E-02 0.46739718E+02</pdfrwt>
<pdfrwt beam="2">  1       21 0.65925631E-01 0.46739718E+02</pdfrwt>
<totfact> 0.68221844E+06</totfact>
</mgrwt>
</event>
<event>
 4    1  0.2677450E+004  0.2355758E+02  0.7546771E-02  0.1682628E+00
         21   -1    0    0  501  502  0.00000000000E+00  0.00000000000E+00  0.45716397105E+02  0.45716397105E+02  0.00000000000E+00 0. -1.
         21   -1    0    0  502  503 -0.00000000000E+00 -0.00000000000E+00 -0.14179259317E+02  0.14179259317E+02  0.00000000000E+00 0.  1.
          2    1    1    2  501    0  0.19059795659E+02  0.13844995773E+02  0.27128135157E+02  0.35929033324E+02  0.00000000000E+00 0. -1.
         -2    1    1    2    0  503 -0.19059795659E+02 -0.13844995773E+02  0.44090026314E+01  0.23966623097E+02  0.00000000000E+00 0.  1.
<mgrwt>
<rscale>  2 0.23557583E+02</rscale>
<asrwt>0</asrwt>
<pdfrwt beam="1">  1       21 0.70332918E-02 0.23557583E+02</pdfrwt>
<pdfrwt beam="2">  1       21 0.21814245E-02 0.23557583E+02</pdfrwt>
<totfact> 0.10928225E+08</totfact>
</mgrwt>
</event>
<event>
 4    1  0.2677450E+004  0.2104226E+02  0.7546771E-02  0.1725362E+00
         21   -1    0    0  501  502  0.00000000000E+00  0.00000000000E+00  0.27120089038E+02  0.27120089038E+02  0.00000000000E+00 0. -1.
         21   -1    0    0  502  503 -0.00000000000E+00 -0.00000000000E+00 -0.18636418579E+02  0.18636418579E+02  0.00000000000E+00 0.  1.
          2    1    1    2  501    0 -0.14545009631E+02  0.15205901077E+02  0.12296322605E+02  0.24371628635E+02  0.00000000000E+00 0. -1.
         -2    1    1    2    0  503  0.14545009631E+02 -0.15205901077E+02 -0.38126521459E+01  0.21384878983E+02  0.00000000000E+00 0.  1.
<mgrwt>
<rscale>  2 0.21042261E+02</rscale>
<asrwt>0</asrwt>
<pdfrwt beam="1">  1       21 0.41723214E-02 0.21042261E+02</pdfrwt>
<pdfrwt beam="2">  1       21 0.28671413E-02 0.21042261E+02</pdfrwt>
<totfact> 0.15939443E+08</totfact>
</mgrwt>
</event>
<event>
 4    1  0.2677450E+004  0.2294031E+02  0.7546771E-02  0.1692479E+00
         21   -1    0    0  503  502  0.00000000000E+00  0.00000000000E+00  0.76189542068E+01  0.76189542068E+01  0.00000000000E+00 0.  1.
         21   -1    0    0  501  503 -0.00000000000E+00 -0.00000000000E+00 -0.72536280593E+02  0.72536280593E+02  0.00000000000E+00 0. -1.
          2    1    1    2  501    0 -0.22037284107E+02 -0.63730798835E+01 -0.41216913407E+02  0.47170880730E+02  0.00000000000E+00 0.  1.
         -2    1    1    2    0  502  0.22037284107E+02  0.63730798835E+01 -0.23700412979E+02  0.32984354070E+02  0.00000000000E+00 0. -1.
<mgrwt>
<rscale>  2 0.22940315E+02</rscale>
<asrwt>0</asrwt>
<pdfrwt beam="1">  1       21 0.11721468E-02 0.22940315E+02</pdfrwt>
<pdfrwt beam="2">  1       21 0.11159428E-01 0.22940315E+02</pdfrwt>
<totfact> 0.13089664E+08</totfact>
</mgrwt>
</event>
<event>
 4    1  0.2677450E+004  0.2447405E+02  0.7546771E-02  0.1668673E+00
         21   -1    0    0  501  502  0.00000000000E+00  0.00000000000E+00  0.18779171808E+03  0.18779171808E+03  0.00000000000E+00 0. -1.
         21   -1    0    0  502  503 -0.00000000000E+00 -0.00000000000E+00 -0.57807535294E+01  0.57807535294E+01  0.00000000000E+00 0.  1.
          2    1    1    2  501    0 -0.17724634408E+02  0.16876500920E+02  0.15580452988E+03  0.15771502933E+03  0.00000000000E+00 0. -1.
         -2    1    1    2    0  503  0.17724634408E+02 -0.16876500920E+02  0.26206434679E+02  0.35857442279E+02  0.00000000000E+00 0.  1.
<mgrwt>
<rscale>  2 0.24474046E+02</rscale>
<asrwt>0</asrwt>
<pdfrwt beam="1">  1       21 0.28891029E-01 0.24474046E+02</pdfrwt>
<pdfrwt beam="2">  1       21 0.88934684E-03 0.24474046E+02</pdfrwt>
<totfact> 0.38768433E+07</totfact>
</mgrwt>
</event>
<event>
 4    1  0.2677450E+004  0.2785729E+02  0.7546771E-02  0.1623057E+00
         21   -1    0    0  503  502  0.00000000000E+00  0.00000000000E+00  0.56323034059E+03  0.56323034059E+03  0.00000000000E+00 0.  1.
         21   -1    0    0  501  503 -0.00000000000E+00 -0.00000000000E+00 -0.21592518571E+01  0.21592518571E+01  0.00000000000E+00 0. -1.
          2    1    1    2  501    0 -0.21215901270E+00  0.27856485079E+02  0.11047156426E+03  0.11392978225E+03  0.00000000000E+00 0. -1.
         -2    1    1    2    0  502  0.21215901270E+00 -0.27856485079E+02  0.45059952447E+03  0.45145981020E+03  0.00000000000E+00 0.  1.
<mgrwt>
<rscale>  2 0.27857293E+02</rscale>
<asrwt>0</asrwt>
<pdfrwt beam="1">  1       21 0.86650705E-01 0.27857293E+02</pdfrwt>
<pdfrwt beam="2">  1       21 0.33219304E-03 0.27857293E+02</pdfrwt>
<totfact> 0.19856611E+07</totfact>
</mgrwt>
</event>
<event>
 4    1  0.2677450E+004  0.2271139E+02  0.7546771E-02  0.1696232E+00
         21   -1    0    0  501  502  0.00000000000E+00  0.00000000000E+00  0.76752758060E+00  0.76752758060E+00  0.00000000000E+00 0. -1.
         21   -1    0    0  502  503 -0.00000000000E+00 -0.00000000000E+00 -0.73178139718E+03  0.73178139718E+03  0.00000000000E+00 0.  1.
          2    1    1    2  501    0  0.22317391343E+02 -0.42120274560E+01 -0.26085106136E+03  0.26183789516E+03  0.00000000000E+00 0. -1.
         -2    1    1    2    0  503 -0.22317391343E+02  0.42120274560E+01 -0.47016280824E+03  0.47071102960E+03  0.00000000000E+00 0.  1.
<mgrwt>
<rscale>  2 0.22711388E+02</rscale>
<asrwt>0</asrwt>
<pdfrwt beam="1">  1       21 0.11808103E-03 0.22711388E+02</pdfrwt>
<pdfrwt beam="2">  1       21 0.11258189E+00 0.22711388E+02</pdfrwt>
<totfact> 0.48114117E+07</totfact>
</mgrwt>
</event>
<event>
 4    1  0.2677450E+004  0.2115129E+02  0.7546771E-02  0.1723357E+00
         21   -1    0    0  501  502  0.00000000000E+00  0.00000000000E+00  0.32523719415E+01  0.32523719415E+01  0.00000000000E+00 0. -1.
         21   -1    0    0  502  503 -0.00000000000E+00 -0.00000000000E+00 -0.13911832964E+03  0.13911832964E+03  0.00000000000E+00 0.  1.
          2    1    1    2  501    0  0.20899216630E+02 -0.32557423865E+01 -0.60384700630E+02  0.63981944206E+02  0.00000000000E+00 0. -1.
         -2    1    1    2    0  503 -0.20899216630E+02  0.32557423865E+01 -0.75481257071E+02  0.78388757378E+02  0.00000000000E+00 0.  1.
<mgrwt>
<rscale>  2 0.21151291E+02</rscale>
<asrwt>0</asrwt>
<pdfrwt beam="1">  1       21 0.50036493E-03 0.21151291E+02</pdfrwt>
<pdfrwt beam="2">  1       21 0.21402819E-01 0.21151291E+02</pdfrwt>
<totfact> 0.14957058E+08</totfact>
</mgrwt>
</event>
<event>
 4    1  0.2677450E+004  0.2618773E+02  0.7546771E-02  0.1644506E+00
         21   -1    0    0  501  502  0.00000000000E+00  0.00000000000E+00  0.17279231359E+01  0.17279231359E+01  0.00000000000E+00 0.  1.
         21   -1    0    0  502  503 -0.00000000000E+00 -0.00000000000E+00 -0.41864102992E+03  0.41864102992E+03  0.00000000000E+00 0. -1.
          2    1    1    2  501    0 -0.23546349195E+02  0.11461537549E+02 -0.16054854052E+03  0.16267031465E+03  0.00000000000E+00 0. -1.
         -2    1    1    2    0  503  0.23546349195E+02 -0.11461537549E+02 -0.25636456626E+03  0.25769863840E+03  0.00000000000E+00 0.  1.
<mgrwt>
<rscale>  2 0.26187734E+02</rscale>
<asrwt>0</asrwt>
<pdfrwt beam="1">  1       21 0.26583438E-03 0.26187734E+02</pdfrwt>
<pdfrwt beam="2">  1       21 0.64406301E-01 0.26187734E+02</pdfrwt>
<totfact> 0.50528057E+07</totfact>
</mgrwt>
</event>
<event>
 4    1  0.2677450E+004  0.2584964E+02  0.7546771E-02  0.1649090E+00
         21   -1    0    0  501  502  0.00000000000E+00  0.00000000000E+00  0.49994611675E+02  0.49994611675E+02  0.00000000000E+00 0. -1.
         21   -1    0    0  502  503 -0.00000000000E+00 -0.00000000000E+00 -0.16314415404E+02  0.16314415404E+02  0.00000000000E+00 0.  1.
          2    1    1    2  501    0  0.59756703777E+01  0.25149461505E+02  0.30935792869E+02  0.40314108336E+02  0.00000000000E+00 0. -1.
         -2    1    1    2    0  503 -0.59756703777E+01 -0.25149461505E+02  0.27444034020E+01  0.25994918744E+02  0.00000000000E+00 0.  1.
<mgrwt>
<rscale>  2 0.25849643E+02</rscale>
<asrwt>0</asrwt>
<pdfrwt beam="1">  1       21 0.76914787E-02 0.25849643E+02</pdfrwt>
<pdfrwt beam="2">  1       21 0.25099101E-02 0.25849643E+02</pdfrwt>
<totfact> 0.77967599E+07</totfact>
</mgrwt>
</event>
<event>
 4    1  0.2677450E+004  0.2050527E+02  0.7546771E-02  0.1735463E+00
         21   -1    0    0  501  502  0.00000000000E+00  0.00000000000E+00  0.22087287695E+02  0.22087287695E+02  0.00000000000E+00 0.  1.
         21   -1    0    0  502  503 -0.00000000000E+00 -0.00000000000E+00 -0.73505046951E+02  0.73505046951E+02  0.00000000000E+00 0. -1.
          2    1    1    2  501    0 -0.14708928042E+02 -0.14286832366E+02  0.15435177938E+02  0.25665363064E+02  0.00000000000E+00 0.  1.
         -2    1    1    2    0  503  0.14708928042E+02  0.14286832366E+02 -0.66852937194E+02  0.69926971582E+02  0.00000000000E+00 0. -1.
<mgrwt>
<rscale>  2 0.20505271E+02</rscale>
<asrwt>0</asrwt>
<pdfrwt beam="1">  1       21 0.33980443E-02 0.20505271E+02</pdfrwt>
<pdfrwt beam="2">  1       21 0.11308469E-01 0.20505271E+02</pdfrwt>
<totfact> 0.24344313E+07</totfact>
</mgrwt>
</event>
<event>
 4    1  0.2677450E+004  0.2454201E+02  0.7546771E-02  0.1667669E+00
         21   -1    0    0  501  502  0.00000000000E+00  0.00000000000E+00  0.26244535629E+02  0.26244535629E+02  0.00000000000E+00 0.  1.
         21   -1    0    0  502  503 -0.00000000000E+00 -0.00000000000E+00 -0.22953226522E+02  0.22953226522E+02  0.00000000000E+00 0. -1.
          2    1    1    2  501    0  0.15232494192E+02  0.19242700509E+02  0.19402005657E+01  0.24618586077E+02  0.00000000000E+00 0. -1.
         -2    1    1    2    0  503 -0.15232494192E+02 -0.19242700509E+02  0.13511085407E+01  0.24579176074E+02  0.00000000000E+00 0.  1.
<mgrwt>
<rscale>  2 0.24542013E+02</rscale>
<asrwt>0</asrwt>
<pdfrwt beam="1">  1       21 0.40376209E-02 0.24542013E+02</pdfrwt>
<pdfrwt beam="2">  1       21 0.35312656E-02 0.24542013E+02</pdfrwt>
<totfact> 0.12705962E+08</totfact>
</mgrwt>
</event>
<event>
 4    1  0.2677450E+004  0.2190655E+02  0.7546771E-02  0.1709873E+00
         21   -1    0    0  503  502  0.00000000000E+00  0.00000000000E+00  0.14211773252E+02  0.14211773252E+02  0.00000000000E+00 0. -1.
         21   -1    0    0  501  503 -0.00000000000E+00 -0.00000000000E+00 -0.47357344044E+02  0.47357344044E+02  0.00000000000E+00 0.  1.
          2    1    1    2  501    0  0.21449092748E+02 -0.44534657618E+01 -0.33063728964E+02  0.39662414324E+02  0.00000000000E+00 0.  1.
         -2    1    1    2    0  502 -0.21449092748E+02  0.44534657618E+01 -0.81841828012E-01  0.21906702972E+02  0.00000000000E+00 0. -1.
<mgrwt>
<rscale>  2 0.21906550E+02</rscale>
<asrwt>0</asrwt>
<pdfrwt beam="1">  1       21 0.21864267E-02 0.21906550E+02</pdfrwt>
<pdfrwt beam="2">  1       21 0.72857452E-02 0.21906550E+02</pdfrwt>
<totfact> 0.10070506E+08</totfact>
</mgrwt>
</event>
<event>
 4    1  0.2677450E+004  0.2179113E+02  0.7546771E-02  0.1711889E+00
         21   -1    0    0  503  502  0.00000000000E+00  0.00000000000E+00  0.28220596249E+01  0.28220596249E+01  0.00000000000E+00 0. -1.
         21   -1    0    0  501  503 -0.00000000000E+00 -0.00000000000E+00 -0.48600030435E+03  0.48600030435E+03  0.00000000000E+00 0.  1.
          2    1    1    2  501    0  0.29199222132E+01  0.21594617556E+02 -0.43921127992E+03  0.43975152286E+03  0.00000000000E+00 0.  1.
         -2    1    1    2    0  502 -0.29199222132E+01 -0.21594617556E+02 -0.43966964810E+02  0.49070841115E+02  0.00000000000E+00 0. -1.
<mgrwt>
<rscale>  2 0.21791132E+02</rscale>
<asrwt>0</asrwt>
<pdfrwt beam="1">  1       21 0.43416267E-03 0.21791132E+02</pdfrwt>
<pdfrwt beam="2">  1       21 0.74769337E-01 0.21791132E+02</pdfrwt>
<totfact> 0.17480475E+07</totfact>
</mgrwt>
</event>
<event>
 4    1  0.2677450E+004  0.2420149E+02  0.7546771E-02  0.1672743E+00
         21   -1    0    0  503  502  0.00000000000E+00  0.00000000000E+00  0.86111496665E+02  0.86111496665E+02  0.00000000000E+00 0.  1.
         21   -1    0    0  501  503 -0.00000000000E+00 -0.00000000000E+00 -0.74339561496E+01  0.74339561496E+01  0.00000000000E+00 0. -1.
          2    1    1    2  501    0 -0.22926033763E+02  0.77530198119E+01  0.25699277685E+02  0.35301065335E+02  0.00000000000E+00 0.  1.
         -2    1    1    2    0  502  0.22926033763E+02 -0.77530198119E+01  0.52978262830E+02  0.58244387479E+02  0.00000000000E+00 0. -1.
<mgrwt>
<rscale>  2 0.24201495E+02</rscale>
<asrwt>0</asrwt>
<pdfrwt beam="1">  1       21 0.13247922E-01 0.24201495E+02</pdfrwt>
<pdfrwt beam="2">  1       21 0.11436856E-02 0.24201495E+02</pdfrwt>
<totfact> 0.10344494E+08</totfact>
</mgrwt>
</event>
<event>
 4    1  0.2677450E+004  0.3058062E+02  0.7546771E-02  0.1591758E+00
         21   -1    0    0  503  502  0.00000000000E+00  0.00000000000E+00  0.14096749901E+03  0.14096749901E+03  0.00000000000E+00 0.  1.
         21   -1    0    0  501  503 -0.00000000000E+00 -0.00000000000E+00 -0.10685754761E+02  0.10685754761E+02  0.00000000000E+00 0. -1.
          2    1    1    2  501    0 -0.27278974816E+02 -0.13821424819E+02  0.18448892847E+02  0.35714645432E+02  0.00000000000E+00 0. -1.
         -2    1    1    2    0  502  0.27278974816E+02  0.13821424819E+02  0.11183285140E+03  0.11593860834E+03  0.00000000000E+00 0.  1.
<mgrwt>
<rscale>  2 0.30580619E+02</rscale>
<asrwt>0</asrwt>
<pdfrwt beam="1">  1       21 0.21687306E-01 0.30580619E+02</pdfrwt>
<pdfrwt beam="2">  1       21 0.16439624E-02 0.30580619E+02</pdfrwt>
<totfact> 0.26727387E+07</totfact>
</mgrwt>
</event>
<event>
 4    1  0.2677450E+004  0.2013220E+02  0.7546771E-02  0.1742712E+00
         21   -1    0    0  503  502  0.00000000000E+00  0.00000000000E+00  0.32233498963E+03  0.32233498963E+03  0.00000000000E+00 0.  1.
         21   -1    0    0  501  503 -0.00000000000E+00 -0.00000000000E+00 -0.22400411177E+01  0.22400411177E+01  0.00000000000E+00 0. -1.
          2    1    1    2  501    0  0.14693658293E+02 -0.13762330746E+02  0.52561035587E+02  0.56284703105E+02  0.00000000000E+00 0. -1.
         -2    1    1    2    0  502 -0.14693658293E+02  0.13762330746E+02  0.26753391292E+03  0.26829032764E+03  0.00000000000E+00 0.  1.
<mgrwt>
<rscale>  2 0.20132197E+02</rscale>
<asrwt>0</asrwt>
<pdfrwt beam="1">  1       21 0.49589962E-01 0.20132197E+02</pdfrwt>
<pdfrwt beam="2">  1       21 0.34462197E-03 0.20132197E+02</pdfrwt>
<totfact> 0.54631093E+07</totfact>
</mgrwt>
</event>
<event>
 4    1  0.2677450E+004  0.4424914E+02  0.7546771E-02  0.1479084E+00
         21   -1    0    0  501  502  0.00000000000E+00  0.00000000000E+00  0.52276020999E+03  0.52276020999E+03  0.00000000000E+00 0.  1.
         21   -1    0    0  502  503 -0.00000000000E+00 -0.00000000000E+00 -0.38295259051E+01  0.38295259051E+01  0.00000000000E+00 0. -1.
          2    1    1    2  501    0 -0.23249555667E+02  0.37648967898E+02  0.29847162234E+03  0.30173381641E+03  0.00000000000E+00 0.  1.
         -2    1    1    2    0  503  0.23249555667E+02 -0.37648967898E+02  0.22045906175E+03  0.22485591949E+03  0.00000000000E+00 0. -1.
<mgrwt>
<rscale>  2 0.44249143E+02</rscale>
<asrwt>0</asrwt>
<pdfrwt beam="1">  1       21 0.80424591E-01 0.44249143E+02</pdfrwt>
<pdfrwt beam="2">  1       21 0.58915824E-03 0.44249143E+02</pdfrwt>
<totfact> 0.10584855E+07</totfact>
</mgrwt>
</event>
<event>
 4    1  0.2677450E+004  0.2272785E+02  0.7546771E-02  0.1695960E+00
         21   -1    0    0  503  502  0.00000000000E+00  0.00000000000E+00  0.36053750919E+03  0.36053750919E+03  0.00000000000E+00 0.  1.
         21   -1    0    0  501  503 -0.00000000000E+00 -0.00000000000E+00 -0.55637004857E+01  0.55637004857E+01  0.00000000000E+00 0. -1.
          2    1    1    2  501    0 -0.65078154981E+01 -0.21776216771E+02  0.19756652408E+02  0.30114458218E+02  0.00000000000E+00 0. -1.
         -2    1    1    2    0  502  0.65078154981E+01  0.21776216771E+02  0.33521715630E+03  0.33598675146E+03  0.00000000000E+00 0.  1.
<mgrwt>
<rscale>  2 0.22727853E+02</rscale>
<asrwt>0</asrwt>
<pdfrwt beam="1">  1       21 0.55467291E-01 0.22727853E+02</pdfrwt>
<pdfrwt beam="2">  1       21 0.85595420E-03 0.22727853E+02</pdfrwt>
<totfact> 0.11788767E+07</totfact>
</mgrwt>
</event>
<event>
 4    1  0.2677450E+004  0.4089994E+02  0.7546771E-02  0.1501691E+00
         21   -1    0    0  501  502  0.00000000000E+00  0.00000000000E+00  0.21292275292E+03  0.21292275292E+03  0.00000000000E+00 0.  1.
         21   -1    0    0  502  503 -0.00000000000E+00 -0.00000000000E+00 -0.19084935811E+02  0.19084935811E+02  0.00000000000E+00 0. -1.
          2    1    1    2  501    0 -0.43931446508E+01 -0.40663315420E+02  0.18589815415E+03  0.19034423726E+03  0.00000000000E+00 0.  1.
         -2    1    1    2    0  503  0.43931446508E+01  0.40663315420E+02  0.79396629612E+01  0.41663451475E+02  0.00000000000E+00 0. -1.
<mgrwt>
<rscale>  2 0.40899938E+02</rscale>
<asrwt>0</asrwt>
<pdfrwt beam="1">  1       21 0.32757345E-01 0.40899938E+02</pdfrwt>
<pdfrwt beam="2">  1       21 0.29361441E-02 0.40899938E+02</pdfrwt>
<totfact> 0.53057233E+06</totfact>
</mgrwt>
</event>
<event>
 4    1  0.2677450E+004  0.2217842E+02  0.7546771E-02  0.1705184E+00
         21   -1    0    0  501  502  0.00000000000E+00  0.00000000000E+00  0.16342019558E+03  0.16342019558E+03  0.00000000000E+00 0. -1.
         21   -1    0    0  502  503 -0.00000000000E+00 -0.00000000000E+00 -0.38378274373E+01  0.38378274373E+01  0.00000000000E+00 0.  1.
          2    1    1    2  501    0 -0.17137315258E+02  0.14078165279E+02  0.11863341589E+03  0.12068873053E+03  0.00000000000E+00 0. -1.
         -2    1    1    2    0  503  0.17137315258E+02 -0.14078165279E+02  0.40948952248E+02  0.46569292480E+02  0.00000000000E+00 0.  1.
<mgrwt>
<rscale>  2 0.22178420E+02</rscale>
<asrwt>0</asrwt>
<pdfrwt beam="1">  1       21 0.25141563E-01 0.22178420E+02</pdfrwt>
<pdfrwt beam="2">  1       21 0.59043512E-03 0.22178420E+02</pdfrwt>
<totfact> 0.89382086E+07</totfact>
</mgrwt>
</event>
<event>
 4    1  0.2677450E+004  0.2294175E+02  0.7546771E-02  0.1692456E+00
         21   -1    0    0  503  502  0.00000000000E+00  0.00000000000E+00  0.75929895333E+01  0.75929895333E+01  0.00000000000E+00 0. -1.
         21   -1    0    0  501  503 -0.00000000000E+00 -0.00000000000E+00 -0.72053226205E+02  0.72053226205E+02  0.00000000000E+00 0.  1.
          2    1    1    2  501    0  0.22463104197E+02  0.46618448458E+01 -0.39990413599E+02  0.46103763700E+02  0.00000000000E+00 0.  1.
         -2    1    1    2    0  502 -0.22463104197E+02 -0.46618448458E+01 -0.24469823073E+02  0.33542452038E+02  0.00000000000E+00 0. -1.
<mgrwt>
<rscale>  2 0.22941749E+02</rscale>
<asrwt>0</asrwt>
<pdfrwt beam="1">  1       21 0.11681522E-02 0.22941749E+02</pdfrwt>
<pdfrwt beam="2">  1       21 0.11085112E-01 0.22941749E+02</pdfrwt>
<totfact> 0.13304733E+08</totfact>
</mgrwt>
</event>
<event>
 4    1  0.2677450E+004  0.2301801E+02  0.7546771E-02  0.1691218E+00
         21   -1    0    0  503  502  0.00000000000E+00  0.00000000000E+00  0.48111196672E+03  0.48111196672E+03  0.00000000000E+00 0.  1.
         21   -1    0    0  501  503 -0.00000000000E+00 -0.00000000000E+00 -0.23954113711E+01  0.23954113711E+01  0.00000000000E+00 0. -1.
          2    1    1    2  501    0  0.15032086736E+02 -0.17431726938E+02  0.61663029541E+02  0.65819130561E+02  0.00000000000E+00 0. -1.
         -2    1    1    2    0  502 -0.15032086736E+02  0.17431726938E+02  0.41705352581E+03  0.41768824753E+03  0.00000000000E+00 0.  1.
<mgrwt>
<rscale>  2 0.23018009E+02</rscale>
<asrwt>0</asrwt>
<pdfrwt beam="1">  1       21 0.74017149E-01 0.23018009E+02</pdfrwt>
<pdfrwt beam="2">  1       21 0.36852521E-03 0.23018009E+02</pdfrwt>
<totfact> 0.22945594E+07</totfact>
</mgrwt>
</event>
<event>
 4    1  0.2677450E+004  0.2092109E+02  0.7546771E-02  0.1727608E+00
         21   -1    0    0  501  502  0.00000000000E+00  0.00000000000E+00  0.25670425981E+01  0.25670425981E+01  0.00000000000E+00 0.  1.
         21   -1    0    0  502  503 -0.00000000000E+00 -0.00000000000E+00 -0.18114811305E+03  0.18114811305E+03  0.00000000000E+00 0. -1.
          2    1    1    2  501    0 -0.20770302809E+02  0.25073329351E+01 -0.67024466046E+02  0.70213753966E+02  0.00000000000E+00 0.  1.
         -2    1    1    2    0  503  0.20770302809E+02 -0.25073329351E+01 -0.11155660440E+03  0.11350140168E+03  0.00000000000E+00 0. -1.
<mgrwt>
<rscale>  2 0.20921095E+02</rscale>
<asrwt>0</asrwt>
<pdfrwt beam="1">  1       21 0.39492968E-03 0.20921095E+02</pdfrwt>
<pdfrwt beam="2">  1       21 0.27868937E-01 0.20921095E+02</pdfrwt>
<totfact> 0.13211784E+08</totfact>
</mgrwt>
</event>
<event>
 4    1  0.2677450E+004  0.2175975E+02  0.7546771E-02  0.1712440E+00
         21   -1    0    0  503  502  0.00000000000E+00  0.00000000000E+00  0.96855291202E+01  0.96855291202E+01  0.00000000000E+00 0.  1.
         21   -1    0    0  501  503 -0.00000000000E+00 -0.00000000000E+00 -0.13289230269E+03  0.13289230269E+03  0.00000000000E+00 0. -1.
          2    1    1    2  501    0  0.18620685437E+02 -0.11258626592E+02 -0.11828315687E+03  0.12026799989E+03  0.00000000000E+00 0. -1.
         -2    1    1    2    0  502 -0.18620685437E+02  0.11258626592E+02 -0.49236167010E+01  0.22309831920E+02  0.00000000000E+00 0.  1.
<mgrwt>
<rscale>  2 0.21759747E+02</rscale>
<asrwt>0</asrwt>
<pdfrwt beam="1">  1       21 0.14900815E-02 0.21759747E+02</pdfrwt>
<pdfrwt beam="2">  1       21 0.20444969E-01 0.21759747E+02</pdfrwt>
<totfact> 0.32024230E+07</totfact>
</mgrwt>
</event>
<event>
 4    1  0.2677450E+004  0.2566298E+02  0.7546771E-02  0.1651658E+00
         21   -1    0    0  501  502  0.00000000000E+00  0.00000000000E+00  0.14385558456E+03  0.14385558456E+03  0.00000000000E+00 0.  1.
         21   -1    0    0  502  503 -0.00000000000E+00 -0.00000000000E+00 -0.13992586817E+02  0.13992586817E+02  0.00000000000E+00 0. -1.
          2    1    1    2  501    0  0.67045951639E+01 -0.24771701233E+02  0.12966935524E+03  0.13218445622E+03  0.00000000000E+00 0.  1.
         -2    1    1    2    0  503 -0.67045951639E+01  0.24771701233E+02  0.19364250581E+00  0.25663715158E+02  0.00000000000E+00 0. -1.
<mgrwt>
<rscale>  2 0.25662985E+02</rscale>
<asrwt>0</asrwt>
<pdfrwt beam="1">  1       21 0.22131627E-01 0.25662985E+02</pdfrwt>
<pdfrwt beam="2">  1       21 0.21527058E-02 0.25662985E+02</pdfrwt>
<totfact> 0.16446085E+07</totfact>
</mgrwt>
</event>
<event>
 4    1  0.2677450E+004  0.2309072E+02  0.7546771E-02  0.1690044E+00
         21   -1    0    0  503  502  0.00000000000E+00  0.00000000000E+00  0.42712422301E+02  0.42712422301E+02  0.00000000000E+00 0.  1.
         21   -1    0    0  501  503 -0.00000000000E+00 -0.00000000000E+00 -0.17654090499E+02  0.17654090499E+02  0.00000000000E+00 0. -1.
          2    1    1    2  501    0  0.23930770232E+01  0.22966374627E+02 -0.38063369689E+01  0.23402337111E+02  0.00000000000E+00 0. -1.
         -2    1    1    2    0  502 -0.23930770232E+01 -0.22966374627E+02  0.28864668771E+02  0.36964175689E+02  0.00000000000E+00 0.  1.
<mgrwt>
<rscale>  2 0.23090716E+02</rscale>
<asrwt>0</asrwt>
<pdfrwt beam="1">  1       21 0.65711419E-02 0.23090716E+02</pdfrwt>
<pdfrwt beam="2">  1       21 0.27160139E-02 0.23090716E+02</pdfrwt>
<totfact> 0.86431159E+07</totfact>
</mgrwt>
</event>
<event>
 4    1  0.2677450E+004  0.3158506E+02  0.7546771E-02  0.1581201E+00
         21   -1    0    0  501  502  0.00000000000E+00  0.00000000000E+00  0.10114954897E+04  0.10114954897E+04  0.00000000000E+00 0.  1.
         21   -1    0    0  502  503 -0.00000000000E+00 -0.00000000000E+00 -0.12363340482E+01  0.12363340482E+01  0.00000000000E+00 0. -1.
          2    1    1    2  501    0  0.22498693867E+02  0.22168107698E+02  0.73285673251E+03  0.73353705197E+03  0.00000000000E+00 0.  1.
         -2    1    1    2    0  503 -0.22498693867E+02 -0.22168107698E+02  0.27740242318E+03  0.27919477182E+03  0.00000000000E+00 0. -1.
<mgrwt>
<rscale>  2 0.31585063E+02</rscale>
<asrwt>0</asrwt>
<pdfrwt beam="1">  1       21 0.15561403E+00 0.31585063E+02</pdfrwt>
<pdfrwt beam="2">  1       21 0.19020605E-03 0.31585063E+02</pdfrwt>
<totfact> 0.12015448E+07</totfact>
</mgrwt>
</event>
<event>
 4    1  0.2677450E+004  0.2194071E+02  0.7546771E-02  0.1709279E+00
         21   -1    0    0  503  502  0.00000000000E+00  0.00000000000E+00  0.10439597490E+02  0.10439597490E+02  0.00000000000E+00 0.  1.
         21   -1    0    0  501  503 -0.00000000000E+00 -0.00000000000E+00 -0.19161362720E+03  0.19161362720E+03  0.00000000000E+00 0. -1.
          2    1    1    2  501    0  0.21760030628E+02 -0.28099498827E+01 -0.17862213131E+03  0.17996460915E+03  0.00000000000E+00 0. -1.
         -2    1    1    2    0  502 -0.21760030628E+02  0.28099498827E+01 -0.25518984025E+01  0.22088615546E+02  0.00000000000E+00 0.  1.
<mgrwt>
<rscale>  2 0.21940710E+02</rscale>
<asrwt>0</asrwt>
<pdfrwt beam="1">  1       21 0.16060919E-02 0.21940710E+02</pdfrwt>
<pdfrwt beam="2">  1       21 0.29479021E-01 0.21940710E+02</pdfrwt>
<totfact> 0.14945507E+07</totfact>
</mgrwt>
</event>
<event>
 4    1  0.2677450E+004  0.2180545E+02  0.7546771E-02  0.1711638E+00
         21   -1    0    0  501  502  0.00000000000E+00  0.00000000000E+00  0.74276981244E+00  0.74276981244E+00  0.00000000000E+00 0. -1.
         21   -1    0    0  502  503 -0.00000000000E+00 -0.00000000000E+00 -0.17694609493E+04  0.17694609493E+04  0.00000000000E+00 0.  1.
          2    1    1    2  501    0  0.21285262623E+02 -0.47344902869E+01 -0.17725856385E+03  0.17859472630E+03  0.00000000000E+00 0. -1.
         -2    1    1    2    0  503 -0.21285262623E+02  0.47344902869E+01 -0.15914596157E+04  0.15916089929E+04  0.00000000000E+00 0.  1.
<mgrwt>
<rscale>  2 0.21805454E+02</rscale>
<asrwt>0</asrwt>
<pdfrwt beam="1">  1       21 0.11427345E-03 0.21805454E+02</pdfrwt>
<pdfrwt beam="2">  1       21 0.27222196E+00 0.21805454E+02</pdfrwt>
<totfact> 0.54628113E+06</totfact>
</mgrwt>
</event>
<event>
 4    1  0.2677450E+004  0.2921281E+02  0.7546771E-02  0.1606957E+00
         21   -1    0    0  501  502  0.00000000000E+00  0.00000000000E+00  0.14140969868E+04  0.14140969868E+04  0.00000000000E+00 0.  1.
         21   -1    0    0  502  503 -0.00000000000E+00 -0.00000000000E+00 -0.10289832672E+01  0.10289832672E+01  0.00000000000E+00 0. -1.
          2    1    1    2  501    0  0.23329034568E+02  0.17582504365E+02  0.11615316246E+04  0.11618989213E+04  0.00000000000E+00 0.  1.
         -2    1    1    2    0  503 -0.23329034568E+02 -0.17582504365E+02  0.25153637896E+03  0.25322704882E+03  0.00000000000E+00 0. -1.
<mgrwt>
<rscale>  2 0.29212811E+02</rscale>
<asrwt>0</asrwt>
<pdfrwt beam="1">  1       21 0.21755183E+00 0.29212811E+02</pdfrwt>
<pdfrwt beam="2">  1       21 0.15830625E-03 0.29212811E+02</pdfrwt>
<totfact> 0.65914640E+06</totfact>
</mgrwt>
</event>
<event>
 4    1  0.2677450E+004  0.2687135E+02  0.7546771E-02  0.1635492E+00
         21   -1    0    0  503  502  0.00000000000E+00  0.00000000000E+00  0.11712286489E+03  0.11712286489E+03  0.00000000000E+00 0.  1.
         21   -1    0    0  501  503 -0.00000000000E+00 -0.00000000000E+00 -0.61720324289E+01  0.61720324289E+01  0.00000000000E+00 0. -1.
          2    1    1    2  501    0  0.20253241996E+02 -0.17660007586E+02  0.53403641417E+02  0.59783096239E+02  0.00000000000E+00 0. -1.
         -2    1    1    2    0  502 -0.20253241996E+02  0.17660007586E+02  0.57547191040E+02  0.63511801076E+02  0.00000000000E+00 0.  1.
<mgrwt>
<rscale>  2 0.26871354E+02</rscale>
<asrwt>0</asrwt>
<pdfrwt beam="1">  1       21 0.18018901E-01 0.26871354E+02</pdfrwt>
<pdfrwt beam="2">  1       21 0.94954354E-03 0.26871354E+02</pdfrwt>
<totfact> 0.83045504E+07</totfact>
</mgrwt>
</event>
<event>
 4    1  0.2677450E+004  0.2645084E+02  0.7546771E-02  0.1640997E+00
         21   -1    0    0  501  502  0.00000000000E+00  0.00000000000E+00  0.35957623800E+03  0.35957623800E+03  0.00000000000E+00 0. -1.
         21   -1    0    0  502  503 -0.00000000000E+00 -0.00000000000E+00 -0.85227617077E+01  0.85227617077E+01  0.00000000000E+00 0.  1.
          2    1    1    2  501    0 -0.10684934520E+02  0.24196678284E+02  0.33720760506E+03  0.33824342710E+03  0.00000000000E+00 0. -1.
         -2    1    1    2    0  503  0.10684934520E+02 -0.24196678284E+02  0.13845871235E+02  0.29855572611E+02  0.00000000000E+00 0.  1.
<mgrwt>
<rscale>  2 0.26450842E+02</rscale>
<asrwt>0</asrwt>
<pdfrwt beam="1">  1       21 0.55319410E-01 0.26450842E+02</pdfrwt>
<pdfrwt beam="2">  1       21 0.13111944E-02 0.26450842E+02</pdfrwt>
<totfact> 0.63879669E+06</totfact>
</mgrwt>
</event>
<event>
 4    1  0.2677450E+004  0.3085986E+02  0.7546771E-02  0.1588774E+00
         21   -1    0    0  501  502  0.00000000000E+00  0.00000000000E+00  0.32964687991E+03  0.32964687991E+03  0.00000000000E+00 0. -1.
         21   -1    0    0  502  503 -0.00000000000E+00 -0.00000000000E+00 -0.10112859434E+02  0.10112859434E+02  0.00000000000E+00 0.  1.
          2    1    1    2  501    0 -0.28647284127E+02 -0.11474489451E+02  0.30334613887E+03  0.30491180818E+03  0.00000000000E+00 0. -1.
         -2    1    1    2    0  503  0.28647284127E+02  0.11474489451E+02  0.16187881606E+02  0.34847931171E+02  0.00000000000E+00 0.  1.
<mgrwt>
<rscale>  2 0.30859857E+02</rscale>
<asrwt>0</asrwt>
<pdfrwt beam="1">  1       21 0.50714896E-01 0.30859857E+02</pdfrwt>
<pdfrwt beam="2">  1       21 0.15558248E-02 0.30859857E+02</pdfrwt>
<totfact> 0.59662333E+06</totfact>
</mgrwt>
</event>
<event>
 4    1  0.2677450E+004  0.2217297E+02  0.7546771E-02  0.1705278E+00
         21   -1    0    0  503  502  0.00000000000E+00  0.00000000000E+00  0.23650563260E+01  0.23650563260E+01  0.00000000000E+00 0. -1.
         21   -1    0    0  501  503 -0.00000000000E+00 -0.00000000000E+00 -0.23453460899E+03  0.23453460899E+03  0.00000000000E+00 0.  1.
          2    1    1    2  501    0 -0.21047861317E+02  0.69733767160E+01 -0.15601877843E+03  0.15758648315E+03  0.00000000000E+00 0.  1.
         -2    1    1    2    0  502  0.21047861317E+02 -0.69733767160E+01 -0.76150774242E+02  0.79313182174E+02  0.00000000000E+00 0. -1.
<mgrwt>
<rscale>  2 0.22172967E+02</rscale>
<asrwt>0</asrwt>
<pdfrwt beam="1">  1       21 0.36385482E-03 0.22172967E+02</pdfrwt>
<pdfrwt beam="2">  1       21 0.36082247E-01 0.22172967E+02</pdfrwt>
<totfact> 0.94451179E+07</totfact>
</mgrwt>
</event>
<event>
 4    1  0.2677450E+004  0.2748551E+02  0.7546771E-02  0.1627671E+00
         21   -1    0    0  501  502  0.00000000000E+00  0.00000000000E+00  0.21399104282E+01  0.21399104282E+01  0.00000000000E+00 0.  1.
         21   -1    0    0  502  503 -0.00000000000E+00 -0.00000000000E+00 -0.35702283980E+03  0.35702283980E+03  0.00000000000E+00 0. -1.
          2    1    1    2  501    0  0.13267787650E+02 -0.24071128044E+02 -0.15845109154E+03  0.16081729324E+03  0.00000000000E+00 0. -1.
         -2    1    1    2    0  503 -0.13267787650E+02  0.24071128044E+02 -0.19643183783E+03  0.19834545699E+03  0.00000000000E+00 0.  1.
<mgrwt>
<rscale>  2 0.27485512E+02</rscale>
<asrwt>0</asrwt>
<pdfrwt beam="1">  1       21 0.32921685E-03 0.27485512E+02</pdfrwt>
<pdfrwt beam="2">  1       21 0.54926613E-01 0.27485512E+02</pdfrwt>
<totfact> 0.51402298E+07</totfact>
</mgrwt>
</event>
<event>
 4    1  0.2677450E+004  0.2653255E+02  0.7546771E-02  0.1639917E+00
         21   -1    0    0  501  502  0.00000000000E+00  0.00000000000E+00  0.38346971702E+02  0.38346971702E+02  0.00000000000E+00 0. -1.
         21   -1    0    0  502  503 -0.00000000000E+00 -0.00000000000E+00 -0.23255746989E+02  0.23255746989E+02  0.00000000000E+00 0.  1.
          2    1    1    2  501    0 -0.86833133358E+01  0.25071421594E+02  0.21680752849E+02  0.34264138036E+02  0.00000000000E+00 0. -1.
         -2    1    1    2    0  503  0.86833133358E+01 -0.25071421594E+02 -0.65895281362E+01  0.27338580656E+02  0.00000000000E+00 0.  1.
<mgrwt>
<rscale>  2 0.26532548E+02</rscale>
<asrwt>0</asrwt>
<pdfrwt beam="1">  1       21 0.58995341E-02 0.26532548E+02</pdfrwt>
<pdfrwt beam="2">  1       21 0.35778072E-02 0.26532548E+02</pdfrwt>
<totfact> 0.69338936E+07</totfact>
</mgrwt>
</event>
<event>
 4    1  0.2677450E+004  0.2319040E+02  0.7546771E-02  0.1688442E+00
         21   -1    0    0  503  502  0.00000000000E+00  0.00000000000E+00  0.45727199841E+01  0.45727199841E+01  0.00000000000E+00 0. -1.
         21   -1    0    0  501  503 -0.00000000000E+00 -0.00000000000E+00 -0.14208760056E+03  0.14208760056E+03  0.00000000000E+00 0.  1.
          2    1    1    2  501    0 -0.22675878367E+02  0.48579140482E+01 -0.38320960978E+02  0.44791638047E+02  0.00000000000E+00 0. -1.
         -2    1    1    2    0  502  0.22675878367E+02 -0.48579140482E+01 -0.99193919599E+02  0.10186868250E+03  0.00000000000E+00 0.  1.
<mgrwt>
<rscale>  2 0.23190403E+02</rscale>
<asrwt>0</asrwt>
<pdfrwt beam="1">  1       21 0.70349538E-03 0.23190403E+02</pdfrwt>
<pdfrwt beam="2">  1       21 0.21859631E-01 0.23190403E+02</pdfrwt>
<totfact> 0.89364423E+07</totfact>
</mgrwt>
</event>
<event>
 4    1  0.2677450E+004  0.2540323E+02  0.7546771E-02  0.1655277E+00
         21   -1    0    0  503  502  0.00000000000E+00  0.00000000000E+00  0.16937502825E+02  0.16937502825E+02  0.00000000000E+00 0. -1.
         21   -1    0    0  501  503 -0.00000000000E+00 -0.00000000000E+00 -0.65972951479E+02  0.65972951479E+02  0.00000000000E+00 0.  1.
          2    1    1    2  501    0 -0.24996073967E+02  0.45299311204E+01 -0.51463175580E+02  0.57391483954E+02  0.00000000000E+00 0.  1.
         -2    1    1    2    0  502  0.24996073967E+02 -0.45299311204E+01  0.24277269263E+01  0.25518970350E+02  0.00000000000E+00 0. -1.
<mgrwt>
<rscale>  2 0.25403228E+02</rscale>
<asrwt>0</asrwt>
<pdfrwt beam="1">  1       21 0.26057697E-02 0.25403228E+02</pdfrwt>
<pdfrwt beam="2">  1       21 0.10149685E-01 0.25403228E+02</pdfrwt>
<totfact> 0.46365122E+07</totfact>
</mgrwt>
</event>
<event>
 4    1  0.2677450E+004  0.2063563E+02  0.7546771E-02  0.1732975E+00
         21   -1    0    0  501  502  0.00000000000E+00  0.00000000000E+00  0.17625074019E+02  0.17625074019E+02  0.00000000000E+00 0. -1.
         21   -1    0    0  502  503 -0.00000000000E+00 -0.00000000000E+00 -0.67769671499E+02  0.67769671499E+02  0.00000000000E+00 0.  1.
          2    1    1    2  501    0  0.15599204715E+02  0.13509036775E+02  0.91786620688E+01  0.22584886533E+02  0.00000000000E+00 0. -1.
         -2    1    1    2    0  503 -0.15599204715E+02 -0.13509036775E+02 -0.59323259549E+02  0.62809858986E+02  0.00000000000E+00 0.  1.
<mgrwt>
<rscale>  2 0.20635631E+02</rscale>
<asrwt>0</asrwt>
<pdfrwt beam="1">  1       21 0.27115498E-02 0.20635631E+02</pdfrwt>
<pdfrwt beam="2">  1       21 0.10426103E-01 0.20635631E+02</pdfrwt>
<totfact> 0.39582798E+07</totfact>
</mgrwt>
</event>
<event>
 4    1  0.2677450E+004  0.2447964E+02  0.7546771E-02  0.1668591E+00
         21   -1    0    0  501  502  0.00000000000E+00  0.00000000000E+00  0.42113124322E+02  0.42113124322E+02  0.00000000000E+00 0. -1.
         21   -1    0    0  502  503 -0.00000000000E+00 -0.00000000000E+00 -0.14513620744E+02  0.14513620744E+02  0.00000000000E+00 0.  1.
          2    1    1    2  501    0  0.24466550954E+02  0.80027478568E+00  0.98389304080E+01  0.26382894210E+02  0.00000000000E+00 0.  1.
         -2    1    1    2    0  503 -0.24466550954E+02 -0.80027478568E+00  0.17760573170E+02  0.30243850856E+02  0.00000000000E+00 0. -1.
<mgrwt>
<rscale>  2 0.24479636E+02</rscale>
<asrwt>0</asrwt>
<pdfrwt beam="1">  1       21 0.64789422E-02 0.24479636E+02</pdfrwt>
<pdfrwt beam="2">  1       21 0.22328647E-02 0.24479636E+02</pdfrwt>
<totfact> 0.12175864E+08</totfact>
</mgrwt>
</event>
<event>
 4    1  0.2677450E+004  0.2788430E+02  0.7546771E-02  0.1622726E+00
         21   -1    0    0  503  502  0.00000000000E+00  0.00000000000E+00  0.15693119494E+01  0.15693119494E+01  0.00000000000E+00 0. -1.
         21   -1    0    0  501  503 -0.00000000000E+00 -0.00000000000E+00 -0.99644802268E+03  0.99644802268E+03  0.00000000000E+00 0.  1.
          2    1    1    2  501    0 -0.24186405828E+02  0.13876302020E+02 -0.85126857434E+03  0.85172514325E+03  0.00000000000E+00 0.  1.
         -2    1    1    2    0  502  0.24186405828E+02 -0.13876302020E+02 -0.14361013640E+03  0.14629219139E+03  0.00000000000E+00 0. -1.
<mgrwt>
<rscale>  2 0.27884296E+02</rscale>
<asrwt>0</asrwt>
<pdfrwt beam="1">  1       21 0.24143292E-03 0.27884296E+02</pdfrwt>
<pdfrwt beam="2">  1       21 0.15329950E+00 0.27884296E+02</pdfrwt>
<totfact> 0.86720712E+06</totfact>
</mgrwt>
</event>
<event>
 4    1  0.2677450E+004  0.2425713E+02  0.7546771E-02  0.1671907E+00
         21   -1    0    0  503  502  0.00000000000E+00  0.00000000000E+00  0.24538260359E+01  0.24538260359E+01  0.00000000000E+00 0. -1.
         21   -1    0    0  501  503 -0.00000000000E+00 -0.00000000000E+00 -0.94551307285E+03  0.94551307285E+03  0.00000000000E+00 0.  1.
          2    1    1    2  501    0 -0.13322482939E+02  0.20271161215E+02 -0.88102204278E+03  0.88135591470E+03  0.00000000000E+00 0.  1.
         -2    1    1    2    0  502  0.13322482939E+02 -0.20271161215E+02 -0.62037204039E+02  0.66610984182E+02  0.00000000000E+00 0. -1.
<mgrwt>
<rscale>  2 0.24257134E+02</rscale>
<asrwt>0</asrwt>
<pdfrwt beam="1">  1       21 0.37751211E-03 0.24257134E+02</pdfrwt>
<pdfrwt beam="2">  1       21 0.14546339E+00 0.24257134E+02</pdfrwt>
<totfact> 0.50253559E+06</totfact>
</mgrwt>
</event>
<event>
 4    1  0.2677450E+004  0.2345128E+02  0.7546771E-02  0.1684298E+00
         21   -1    0    0  501  502  0.00000000000E+00  0.00000000000E+00  0.98841044109E+02  0.98841044109E+02  0.00000000000E+00 0. -1.
         21   -1    0    0  502  503 -0.00000000000E+00 -0.00000000000E+00 -0.69912146063E+02  0.69912146063E+02  0.00000000000E+00 0.  1.
          2    1    1    2  501    0  0.18048480859E+02 -0.14973803919E+02  0.95413791711E+02  0.98253519600E+02  0.00000000000E+00 0. -1.
         -2    1    1    2    0  503 -0.18048480859E+02  0.14973803919E+02 -0.66484893665E+02  0.70499670572E+02  0.00000000000E+00 0.  1.
<mgrwt>
<rscale>  2 0.23451279E+02</rscale>
<asrwt>0</asrwt>
<pdfrwt beam="1">  1       21 0.15206315E-01 0.23451279E+02</pdfrwt>
<pdfrwt beam="2">  1       21 0.10755715E-01 0.23451279E+02</pdfrwt>
<totfact> 0.23833080E+06</totfact>
</mgrwt>
</event>
<event>
 4    1  0.2677450E+004  0.2036453E+02  0.7546771E-02  0.1738175E+00
         21   -1    0    0  503  502  0.00000000000E+00  0.00000000000E+00  0.66367365099E+00  0.66367365099E+00  0.00000000000E+00 0.  1.
         21   -1    0    0  501  503 -0.00000000000E+00 -0.00000000000E+00 -0.94512675369E+03  0.94512675369E+03  0.00000000000E+00 0. -1.
          2    1    1    2  501    0 -0.13537937671E+02 -0.15213100632E+02 -0.74750510642E+03  0.74778245387E+03  0.00000000000E+00 0. -1.
         -2    1    1    2    0  502  0.13537937671E+02  0.15213100632E+02 -0.19695797362E+03  0.19800797347E+03  0.00000000000E+00 0.  1.
<mgrwt>
<rscale>  2 0.20364533E+02</rscale>
<asrwt>0</asrwt>
<pdfrwt beam="1">  1       21 0.10210444E-03 0.20364533E+02</pdfrwt>
<pdfrwt beam="2">  1       21 0.14540298E+00 0.20364533E+02</pdfrwt>
<totfact> 0.32232253E+07</totfact>
</mgrwt>
</event>
<event>
 4    1  0.2677450E+004  0.2207638E+02  0.7546771E-02  0.1706934E+00
         21   -1    0    0  503  502  0.00000000000E+00  0.00000000000E+00  0.48166368905E+02  0.48166368905E+02  0.00000000000E+00 0. -1.
         21   -1    0    0  501  503 -0.00000000000E+00 -0.00000000000E+00 -0.33638949288E+02  0.33638949288E+02  0.00000000000E+00 0.  1.
          2    1    1    2  501    0  0.16370706421E+02 -0.14811027690E+02 -0.26938491960E+02  0.34828851820E+02  0.00000000000E+00 0.  1.
         -2    1    1    2    0  502 -0.16370706421E+02  0.14811027690E+02  0.41465911578E+02  0.46976466374E+02  0.00000000000E+00 0. -1.
<mgrwt>
<rscale>  2 0.22076380E+02</rscale>
<asrwt>0</asrwt>
<pdfrwt beam="1">  1       21 0.74102107E-02 0.22076380E+02</pdfrwt>
<pdfrwt beam="2">  1       21 0.51752229E-02 0.22076380E+02</pdfrwt>
<totfact> 0.25547519E+07</totfact>
</mgrwt>
</event>
<event>
 4    1  0.2677450E+004  0.2043752E+02  0.7546771E-02  0.1736765E+00
         21   -1    0    0  503  502  0.00000000000E+00  0.00000000000E+00  0.24759963538E+00  0.24759963538E+00  0.00000000000E+00 0. -1.
         21   -1    0    0  501  503 -0.00000000000E+00 -0.00000000000E+00 -0.19535257211E+04  0.19535257211E+04  0.00000000000E+00 0.  1.
          2    1    1    2  501    0 -0.92385762617E+01 -0.18230217959E+02 -0.13374934300E+04  0.13376495683E+04  0.00000000000E+00 0.  1.
         -2    1    1    2    0  502  0.92385762617E+01  0.18230217959E+02 -0.61578469145E+03  0.61612375248E+03  0.00000000000E+00 0. -1.
<mgrwt>
<rscale>  2 0.20437518E+02</rscale>
<asrwt>0</asrwt>
<pdfrwt beam="1">  1       21 0.38094244E-04 0.20437518E+02</pdfrwt>
<pdfrwt beam="2">  1       21 0.30052670E+00 0.20437518E+02</pdfrwt>
<totfact> 0.18762800E+07</totfact>
</mgrwt>
</event>
<event>
 4    1  0.2677450E+004  0.2677961E+02  0.7546771E-02  0.1636682E+00
         21   -1    0    0  503  502  0.00000000000E+00  0.00000000000E+00  0.29173620631E+02  0.29173620631E+02  0.00000000000E+00 0.  1.
         21   -1    0    0  501  503 -0.00000000000E+00 -0.00000000000E+00 -0.26113168161E+02  0.26113168161E+02  0.00000000000E+00 0. -1.
          2    1    1    2  501    0  0.12881764448E+02  0.23477806315E+02 -0.51634808099E+01  0.27272857913E+02  0.00000000000E+00 0.  1.
         -2    1    1    2    0  502 -0.12881764448E+02 -0.23477806315E+02  0.82239332795E+01  0.28013930879E+02  0.00000000000E+00 0. -1.
<mgrwt>
<rscale>  2 0.26779605E+02</rscale>
<asrwt>0</asrwt>
<pdfrwt beam="1">  1       21 0.44882494E-02 0.26779605E+02</pdfrwt>
<pdfrwt beam="2">  1       21 0.40174105E-02 0.26779605E+02</pdfrwt>
<totfact> 0.89705366E+07</totfact>
</mgrwt>
</event>
<event>
 4    1  0.2677450E+004  0.3520257E+02  0.7546771E-02  0.1546809E+00
         21   -1    0    0  503  502  0.00000000000E+00  0.00000000000E+00  0.33260801170E+03  0.33260801170E+03  0.00000000000E+00 0. -1.
         21   -1    0    0  501  503 -0.00000000000E+00 -0.00000000000E+00 -0.76352398506E+01  0.76352398506E+01  0.00000000000E+00 0.  1.
          2    1    1    2  501    0 -0.28105063871E+02  0.21197323906E+02  0.40753734251E+02  0.53852465230E+02  0.00000000000E+00 0.  1.
         -2    1    1    2    0  502  0.28105063871E+02 -0.21197323906E+02  0.28421903760E+03  0.28639078632E+03  0.00000000000E+00 0. -1.
<mgrwt>
<rscale>  2 0.35202573E+02</rscale>
<asrwt>0</asrwt>
<pdfrwt beam="1">  1       21 0.51170452E-01 0.35202573E+02</pdfrwt>
<pdfrwt beam="2">  1       21 0.11746525E-02 0.35202573E+02</pdfrwt>
<totfact> 0.91796160E+06</totfact>
</mgrwt>
</event>
<event>
 4    1  0.2677450E+004  0.4626967E+02  0.7546771E-02  0.1466568E+00
         21   -1    0    0  503  502  0.00000000000E+00  0.00000000000E+00  0.14072894204E+02  0.14072894204E+02  0.00000000000E+00 0. -1.
         21   -1    0    0  501  503 -0.00000000000E+00 -0.00000000000E+00 -0.20173548493E+03  0.20173548493E+03  0.00000000000E+00 0.  1.
          2    1    1    2  501    0 -0.52345494201E+00 -0.46266707602E+02 -0.40323081249E+02  0.61374531516E+02  0.00000000000E+00 0. -1.
         -2    1    1    2    0  502  0.52345494201E+00  0.46266707602E+02 -0.14733950948E+03  0.15443384762E+03  0.00000000000E+00 0.  1.
<mgrwt>
<rscale>  2 0.46269669E+02</rscale>
<asrwt>0</asrwt>
<pdfrwt beam="1">  1       21 0.21650605E-02 0.46269669E+02</pdfrwt>
<pdfrwt beam="2">  1       21 0.31036230E-01 0.46269669E+02</pdfrwt>
<totfact> 0.96393686E+06</totfact>
</mgrwt>
</event>
<event>
 4    1  0.2677450E+004  0.2173533E+02  0.7546771E-02  0.1712870E+00
         21   -1    0    0  503  502  0.00000000000E+00  0.00000000000E+00  0.84496373093E+01  0.84496373093E+01  0.00000000000E+00 0. -1.
         21   -1    0    0  501  503 -0.00000000000E+00 -0.00000000000E+00 -0.64142652578E+02  0.64142652578E+02  0.00000000000E+00 0.  1.
          2    1    1    2  501    0 -0.20573049140E+02  0.70124246988E+01 -0.40849419325E+02  0.46272016492E+02  0.00000000000E+00 0.  1.
         -2    1    1    2    0  502  0.20573049140E+02 -0.70124246988E+01 -0.14843595943E+02  0.26320273395E+02  0.00000000000E+00 0. -1.
<mgrwt>
<rscale>  2 0.21735327E+02</rscale>
<asrwt>0</asrwt>
<pdfrwt beam="1">  1       21 0.12999442E-02 0.21735327E+02</pdfrwt>
<pdfrwt beam="2">  1       21 0.98681005E-02 0.21735327E+02</pdfrwt>
<totfact> 0.13509941E+08</totfact>
</mgrwt>
</event>
<event>
 4    1  0.2677450E+004  0.4553508E+02  0.7546771E-02  0.1471029E+00
         21   -1    0    0  501  502  0.00000000000E+00  0.00000000000E+00  0.89998125327E+03  0.89998125327E+03  0.00000000000E+00 0.  1.
         21   -1    0    0  502  503 -0.00000000000E+00 -0.00000000000E+00 -0.32406783904E+01  0.32406783904E+01  0.00000000000E+00 0. -1.
          2    1    1    2  501    0  0.31021423299E+02  0.33333394488E+02  0.69118267915E+03  0.69268097985E+03  0.00000000000E+00 0.  1.
         -2    1    1    2    0  503 -0.31021423299E+02 -0.33333394488E+02  0.20555789573E+03  0.21054095181E+03  0.00000000000E+00 0. -1.
<mgrwt>
<rscale>  2 0.45535084E+02</rscale>
<asrwt>0</asrwt>
<pdfrwt beam="1">  1       21 0.13845846E+00 0.45535084E+02</pdfrwt>
<pdfrwt beam="2">  1       21 0.49856662E-03 0.45535084E+02</pdfrwt>
<totfact> 0.39575542E+06</totfact>
</mgrwt>
</event>
<event>
 4    1  0.2677450E+004  0.2022206E+02  0.7546771E-02  0.1740948E+00
         21   -1    0    0  501  502  0.00000000000E+00  0.00000000000E+00  0.62402934235E+02  0.62402934235E+02  0.00000000000E+00 0.  1.
         21   -1    0    0  502  503 -0.00000000000E+00 -0.00000000000E+00 -0.98032552820E+01  0.98032552820E+01  0.00000000000E+00 0. -1.
          2    1    1    2  501    0  0.11969163144E+02  0.16299407592E+02  0.47087830633E+02  0.51246417903E+02  0.00000000000E+00 0.  1.
         -2    1    1    2    0  503 -0.11969163144E+02 -0.16299407592E+02  0.55118483208E+01  0.20959771614E+02  0.00000000000E+00 0. -1.
<mgrwt>
<rscale>  2 0.20222056E+02</rscale>
<asrwt>0</asrwt>
<pdfrwt beam="1">  1       21 0.96004512E-02 0.20222056E+02</pdfrwt>
<pdfrwt beam="2">  1       21 0.15081932E-02 0.20222056E+02</pdfrwt>
<totfact> 0.11050846E+08</totfact>
</mgrwt>
</event>
<event>
 4    1  0.2677450E+004  0.2120915E+02  0.7546771E-02  0.1722299E+00
         21   -1    0    0  501  502  0.00000000000E+00  0.00000000000E+00  0.60326271665E+02  0.60326271665E+02  0.00000000000E+00 0. -1.
         21   -1    0    0  502  503 -0.00000000000E+00 -0.00000000000E+00 -0.24732157888E+02  0.24732157888E+02  0.00000000000E+00 0.  1.
          2    1    1    2  501    0  0.18183923937E+02 -0.10916641242E+02  0.53341568571E+02  0.57403406548E+02  0.00000000000E+00 0. -1.
         -2    1    1    2    0  503 -0.18183923937E+02  0.10916641242E+02 -0.17747454794E+02  0.27655023005E+02  0.00000000000E+00 0.  1.
<mgrwt>
<rscale>  2 0.21209152E+02</rscale>
<asrwt>0</asrwt>
<pdfrwt beam="1">  1       21 0.92809648E-02 0.21209152E+02</pdfrwt>
<pdfrwt beam="2">  1       21 0.38049474E-02 0.21209152E+02</pdfrwt>
<totfact> 0.28491907E+07</totfact>
</mgrwt>
</event>
<event>
 4    1  0.2677450E+004  0.2024729E+02  0.7546771E-02  0.1740455E+00
         21   -1    0    0  503  502  0.00000000000E+00  0.00000000000E+00  0.95936104020E+00  0.95936104020E+00  0.00000000000E+00 0. -1.
         21   -1    0    0  501  503 -0.00000000000E+00 -0.00000000000E+00 -0.67397707339E+03  0.67397707339E+03  0.00000000000E+00 0.  1.
          2    1    1    2  501    0  0.20233225478E+02 -0.75465873535E+00 -0.54066301784E+03  0.54104200556E+03  0.00000000000E+00 0.  1.
         -2    1    1    2    0  502 -0.20233225478E+02  0.75465873535E+00 -0.13235469451E+03  0.13389442886E+03  0.00000000000E+00 0. -1.
<mgrwt>
<rscale>  2 0.20247294E+02</rscale>
<asrwt>0</asrwt>
<pdfrwt beam="1">  1       21 0.14759443E-03 0.20247294E+02</pdfrwt>
<pdfrwt beam="2">  1       21 0.10368848E+00 0.20247294E+02</pdfrwt>
<totfact> 0.40927240E+07</totfact>
</mgrwt>
</event>
<event>
 4    1  0.2677450E+004  0.2923305E+02  0.7546771E-02  0.1606724E+00
         21   -1    0    0  501  502  0.00000000000E+00  0.00000000000E+00  0.11679696725E+02  0.11679696725E+02  0.00000000000E+00 0. -1.
         21   -1    0    0  502  503 -0.00000000000E+00 -0.00000000000E+00 -0.15635201784E+03  0.15635201784E+03  0.00000000000E+00 0.  1.
          2    1    1    2  501    0  0.20813756836E+02 -0.20527017650E+02 -0.11054361915E+02  0.31253317337E+02  0.00000000000E+00 0. -1.
         -2    1    1    2    0  503 -0.20813756836E+02  0.20527017650E+02 -0.13361795920E+03  0.13677839722E+03  0.00000000000E+00 0.  1.
<mgrwt>
<rscale>  2 0.29233045E+02</rscale>
<asrwt>0</asrwt>
<pdfrwt beam="1">  1       21 0.17968764E-02 0.29233045E+02</pdfrwt>
<pdfrwt beam="2">  1       21 0.24054156E-01 0.29233045E+02</pdfrwt>
<totfact> 0.19207623E+07</totfact>
</mgrwt>
</event>
<event>
 4    1  0.2677450E+004  0.2567132E+02  0.7546771E-02  0.1651543E+00
         21   -1    0    0  501  502  0.00000000000E+00  0.00000000000E+00  0.92623951242E+01  0.92623951242E+01  0.00000000000E+00 0. -1.
         21   -1    0    0  502  503 -0.00000000000E+00 -0.00000000000E+00 -0.12490901729E+03  0.12490901729E+03  0.00000000000E+00 0.  1.
          2    1    1    2  501    0 -0.54838548141E+01  0.25078760364E+02 -0.13812450253E+02  0.29151340741E+02  0.00000000000E+00 0.  1.
         -2    1    1    2    0  503  0.54838548141E+01 -0.25078760364E+02 -0.10183417191E+03  0.10502007167E+03  0.00000000000E+00 0. -1.
<mgrwt>
<rscale>  2 0.25671324E+02</rscale>
<asrwt>0</asrwt>
<pdfrwt beam="1">  1       21 0.14249840E-02 0.25671324E+02</pdfrwt>
<pdfrwt beam="2">  1       21 0.19216770E-01 0.25671324E+02</pdfrwt>
<totfact> 0.39695339E+07</totfact>
</mgrwt>
</event>
<event>
 4    1  0.2677450E+004  0.2138407E+02  0.7546771E-02  0.1719127E+00
         21   -1    0    0  501  502  0.00000000000E+00  0.00000000000E+00  0.67240391864E+02  0.67240391864E+02  0.00000000000E+00 0. -1.
         21   -1    0    0  502  503 -0.00000000000E+00 -0.00000000000E+00 -0.11393080286E+02  0.11393080286E+02  0.00000000000E+00 0.  1.
          2    1    1    2  501    0 -0.21047271948E+02 -0.37803188169E+01  0.52885582114E+02  0.57045273795E+02  0.00000000000E+00 0.  1.
         -2    1    1    2    0  503  0.21047271948E+02  0.37803188169E+01  0.29617294648E+01  0.21588198355E+02  0.00000000000E+00 0. -1.
<mgrwt>
<rscale>  2 0.21384070E+02</rscale>
<asrwt>0</asrwt>
<pdfrwt beam="1">  1       21 0.10344675E-01 0.21384070E+02</pdfrwt>
<pdfrwt beam="2">  1       21 0.17527816E-02 0.21384070E+02</pdfrwt>
<totfact> 0.79050621E+07</totfact>
</mgrwt>
</event>
<event>
 4    1  0.2677450E+004  0.3406977E+02  0.7546771E-02  0.1557020E+00
         21   -1    0    0  503  502  0.00000000000E+00  0.00000000000E+00  0.60014220883E+01  0.60014220883E+01  0.00000000000E+00 0. -1.
         21   -1    0    0  501  503 -0.00000000000E+00 -0.00000000000E+00 -0.20585955758E+03  0.20585955758E+03  0.00000000000E+00 0.  1.
          2    1    1    2  501    0  0.42426592676E+01  0.33804576245E+02 -0.12597682373E+03  0.13050252737E+03  0.00000000000E+00 0. -1.
         -2    1    1    2    0  502 -0.42426592676E+01 -0.33804576245E+02 -0.73881311762E+02  0.81358452299E+02  0.00000000000E+00 0.  1.
<mgrwt>
<rscale>  2 0.34069774E+02</rscale>
<asrwt>0</asrwt>
<pdfrwt beam="1">  1       21 0.92329589E-03 0.34069774E+02</pdfrwt>
<pdfrwt beam="2">  1       21 0.31670695E-01 0.34069774E+02</pdfrwt>
<totfact> 0.33098250E+07</totfact>
</mgrwt>
</event>
<event>
 4    1  0.2677450E+004  0.2097794E+02  0.7546771E-02  0.1726552E+00
         21   -1    0    0  501  502  0.00000000000E+00  0.00000000000E+00  0.28143785830E+03  0.28143785830E+03  0.00000000000E+00 0. -1.
         21   -1    0    0  502  503 -0.00000000000E+00 -0.00000000000E+00 -0.24362116741E+01  0.24362116741E+01  0.00000000000E+00 0.  1.
          2    1    1    2  501    0 -0.23423730813E+01  0.20846755480E+02  0.22444489719E+03  0.22542312614E+03  0.00000000000E+00 0.  1.
         -2    1    1    2    0  503  0.23423730813E+01 -0.20846755480E+02  0.54556749440E+02  0.58450943835E+02  0.00000000000E+00 0. -1.
<mgrwt>
<rscale>  2 0.20977939E+02</rscale>
<asrwt>0</asrwt>
<pdfrwt beam="1">  1       21 0.43298106E-01 0.20977939E+02</pdfrwt>
<pdfrwt beam="2">  1       21 0.37480202E-03 0.20977939E+02</pdfrwt>
<totfact> 0.63325451E+07</totfact>
</mgrwt>
</event>
<event>
 4    1  0.2677450E+004  0.2420270E+02  0.7546771E-02  0.1672725E+00
         21   -1    0    0  501  502  0.00000000000E+00  0.00000000000E+00  0.44675468703E+02  0.44675468703E+02  0.00000000000E+00 0. -1.
         21   -1    0    0  502  503 -0.00000000000E+00 -0.00000000000E+00 -0.24633038529E+02  0.24633038529E+02  0.00000000000E+00 0.  1.
          2    1    1    2  501    0  0.22411744700E+02 -0.91369819502E+01  0.33721266039E+02  0.41507764610E+02  0.00000000000E+00 0. -1.
         -2    1    1    2    0  503 -0.22411744700E+02  0.91369819502E+01 -0.13678835865E+02  0.27800742621E+02  0.00000000000E+00 0.  1.
<mgrwt>
<rscale>  2 0.24202701E+02</rscale>
<asrwt>0</asrwt>
<pdfrwt beam="1">  1       21 0.68731490E-02 0.24202701E+02</pdfrwt>
<pdfrwt beam="2">  1       21 0.37896982E-02 0.24202701E+02</pdfrwt>
<totfact> 0.48357253E+07</totfact>
</mgrwt>
</event>
<event>
 4    1  0.2677450E+004  0.2148788E+02  0.7546771E-02  0.1717262E+00
         21   -1    0    0  503  502  0.00000000000E+00  0.00000000000E+00  0.91719369170E+00  0.91719369170E+00  0.00000000000E+00 0.  1.
         21   -1    0    0  501  503 -0.00000000000E+00 -0.00000000000E+00 -0.78797983430E+03  0.78797983430E+03  0.00000000000E+00 0. -1.
          2    1    1    2  501    0  0.17016734405E+02  0.13120973371E+02 -0.63057221616E+03  0.63093822913E+03  0.00000000000E+00 0. -1.
         -2    1    1    2    0  502 -0.17016734405E+02 -0.13120973371E+02 -0.15649042445E+03  0.15795879886E+03  0.00000000000E+00 0.  1.
<mgrwt>
<rscale>  2 0.21487885E+02</rscale>
<asrwt>0</asrwt>
<pdfrwt beam="1">  1       21 0.14110641E-03 0.21487885E+02</pdfrwt>
<pdfrwt beam="2">  1       21 0.12122794E+00 0.21487885E+02</pdfrwt>
<totfact> 0.31227208E+07</totfact>
</mgrwt>
</event>
<event>
 4    1  0.2677450E+004  0.2736809E+02  0.7546771E-02  0.1629147E+00
         21   -1    0    0  503  502  0.00000000000E+00  0.00000000000E+00  0.24054419726E+02  0.24054419726E+02  0.00000000000E+00 0.  1.
         21   -1    0    0  501  503 -0.00000000000E+00 -0.00000000000E+00 -0.31139452619E+02  0.31139452619E+02  0.00000000000E+00 0. -1.
          2    1    1    2  501    0 -0.24007553048E+02 -0.13139630265E+02 -0.37141612376E+01  0.27618969578E+02  0.00000000000E+00 0. -1.
         -2    1    1    2    0  502  0.24007553048E+02  0.13139630265E+02 -0.33708716558E+01  0.27574902767E+02  0.00000000000E+00 0.  1.
<mgrwt>
<rscale>  2 0.27368092E+02</rscale>
<asrwt>0</asrwt>
<pdfrwt beam="1">  1       21 0.37006800E-02 0.27368092E+02</pdfrwt>
<pdfrwt beam="2">  1       21 0.47906850E-02 0.27368092E+02</pdfrwt>
<totfact> 0.92578699E+07</totfact>
</mgrwt>
</event>
<event>
 4    1  0.2677450E+004  0.2392049E+02  0.7546771E-02  0.1677010E+00
         21   -1    0    0  501  502  0.00000000000E+00  0.00000000000E+00  0.20488673239E+02  0.20488673239E+02  0.00000000000E+00 0.  1.
         21   -1    0    0  502  503 -0.00000000000E+00 -0.00000000000E+00 -0.58096842017E+02  0.58096842017E+02  0.00000000000E+00 0. -1.
          2    1    1    2  501    0  0.77763185190E+01  0.22621199535E+02  0.95112597150E+01  0.25742064010E+02  0.00000000000E+00 0.  1.
         -2    1    1    2    0  503 -0.77763185190E+01 -0.22621199535E+02 -0.47119428493E+02  0.52843451246E+02  0.00000000000E+00 0. -1.
<mgrwt>
<rscale>  2 0.23920489E+02</rscale>
<asrwt>0</asrwt>
<pdfrwt beam="1">  1       21 0.31521036E-02 0.23920489E+02</pdfrwt>
<pdfrwt beam="2">  1       21 0.89379755E-02 0.23920489E+02</pdfrwt>
<totfact> 0.41917987E+07</totfact>
</mgrwt>
</event>
<event>
 4    1  0.2677450E+004  0.2424291E+02  0.7546771E-02  0.1672120E+00
         21   -1    0    0  501  502  0.00000000000E+00  0.00000000000E+00  0.93393462373E+02  0.93393462373E+02  0.00000000000E+00 0. -1.
         21   -1    0    0  502  503 -0.00000000000E+00 -0.00000000000E+00 -0.68170827575E+01  0.68170827575E+01  0.00000000000E+00 0.  1.
          2    1    1    2  501    0  0.11249795354E+02 -0.21474658702E+02  0.57181686820E+02  0.62108487097E+02  0.00000000000E+00 0.  1.
         -2    1    1    2    0  503 -0.11249795354E+02  0.21474658702E+02  0.29394692795E+02  0.38102058034E+02  0.00000000000E+00 0. -1.
<mgrwt>
<rscale>  2 0.24242914E+02</rscale>
<asrwt>0</asrwt>
<pdfrwt beam="1">  1       21 0.14368224E-01 0.24242914E+02</pdfrwt>
<pdfrwt beam="2">  1       21 0.10487820E-02 0.24242914E+02</pdfrwt>
<totfact> 0.10277671E+08</totfact>
</mgrwt>
</event>
<event>
 4    1  0.2677450E+004  0.2049607E+02  0.7546771E-02  0.1735639E+00
         21   -1    0    0  501  502  0.00000000000E+00  0.00000000000E+00  0.75620089753E+02  0.75620089753E+02  0.00000000000E+00 0.  1.
         21   -1    0    0  502  503 -0.00000000000E+00 -0.00000000000E+00 -0.56671938358E+01  0.56671938358E+01  0.00000000000E+00 0. -1.
          2    1    1    2  501    0 -0.19344005884E+02 -0.67748411282E+01  0.40688537640E+02  0.45559259556E+02  0.00000000000E+00 0. -1.
         -2    1    1    2    0  503  0.19344005884E+02  0.67748411282E+01  0.29264358277E+02  0.35728024033E+02  0.00000000000E+00 0.  1.
<mgrwt>
<rscale>  2 0.20496074E+02</rscale>
<asrwt>0</asrwt>
<pdfrwt beam="1">  1       21 0.11633859E-01 0.20496074E+02</pdfrwt>
<pdfrwt beam="2">  1       21 0.87187603E-03 0.20496074E+02</pdfrwt>
<totfact> 0.18394403E+08</totfact>
</mgrwt>
</event>
<event>
 4    1  0.2677450E+004  0.2190949E+02  0.7546771E-02  0.1709822E+00
         21   -1    0    0  503  502  0.00000000000E+00  0.00000000000E+00  0.44816201437E+02  0.44816201437E+02  0.00000000000E+00 0. -1.
         21   -1    0    0  501  503 -0.00000000000E+00 -0.00000000000E+00 -0.38912237967E+02  0.38912237967E+02  0.00000000000E+00 0.  1.
          2    1    1    2  501    0  0.53406675423E+01  0.21248596738E+02 -0.32687724048E+02  0.39351148606E+02  0.00000000000E+00 0.  1.
         -2    1    1    2    0  502 -0.53406675423E+01 -0.21248596738E+02  0.38591687517E+02  0.44377290798E+02  0.00000000000E+00 0. -1.
<mgrwt>
<rscale>  2 0.21909486E+02</rscale>
<asrwt>0</asrwt>
<pdfrwt beam="1">  1       21 0.68948002E-02 0.21909486E+02</pdfrwt>
<pdfrwt beam="2">  1       21 0.59864982E-02 0.21909486E+02</pdfrwt>
<totfact> 0.22710718E+07</totfact>
</mgrwt>
</event>
<event>
 4    1  0.2677450E+004  0.2068973E+02  0.7546771E-02  0.1731950E+00
         21   -1    0    0  501  502  0.00000000000E+00  0.00000000000E+00  0.89537169141E+02  0.89537169141E+02  0.00000000000E+00 0. -1.
         21   -1    0    0  502  503 -0.00000000000E+00 -0.00000000000E+00 -0.84753581887E+01  0.84753581887E+01  0.00000000000E+00 0.  1.
          2    1    1    2  501    0 -0.20668695936E+02  0.93265148362E+00  0.72886559691E+02  0.75766189122E+02  0.00000000000E+00 0. -1.
         -2    1    1    2    0  503  0.20668695936E+02 -0.93265148362E+00  0.81752512613E+01  0.22246338208E+02  0.00000000000E+00 0.  1.
<mgrwt>
<rscale>  2 0.20689728E+02</rscale>
<asrwt>0</asrwt>
<pdfrwt beam="1">  1       21 0.13774948E-01 0.20689728E+02</pdfrwt>
<pdfrwt beam="2">  1       21 0.13039013E-02 0.20689728E+02</pdfrwt>
<totfact> 0.76066942E+07</totfact>
</mgrwt>
</event>
<event>
 4    1  0.2677450E+004  0.3322770E+02  0.7546771E-02  0.1564927E+00
         21   -1    0    0  503  502  0.00000000000E+00  0.00000000000E+00  0.14813548135E+03  0.14813548135E+03  0.00000000000E+00 0.  1.
         21   -1    0    0  501  503 -0.00000000000E+00 -0.00000000000E+00 -0.75971422627E+01  0.75971422627E+01  0.00000000000E+00 0. -1.
          2    1    1    2  501    0 -0.32325417481E+02  0.76907268402E+01  0.59550175674E+02  0.68193132480E+02  0.00000000000E+00 0.  1.
         -2    1    1    2    0  502  0.32325417481E+02 -0.76907268402E+01  0.80988163410E+02  0.87539491129E+02  0.00000000000E+00 0. -1.
<mgrwt>
<rscale>  2 0.33227698E+02</rscale>
<asrwt>0</asrwt>
<pdfrwt beam="1">  1       21 0.22790072E-01 0.33227698E+02</pdfrwt>
<pdfrwt beam="2">  1       21 0.11687912E-02 0.33227698E+02</pdfrwt>
<totfact> 0.41941706E+07</totfact>
</mgrwt>
</event>
<event>
 4    1  0.2677450E+004  0.2161548E+02  0.7546771E-02  0.1714988E+00
         21   -1    0    0  501  502  0.00000000000E+00  0.00000000000E+00  0.50397992077E+03  0.50397992077E+03  0.00000000000E+00 0. -1.
         21   -1    0    0  502  503 -0.00000000000E+00 -0.00000000000E+00 -0.14867587002E+01  0.14867587002E+01  0.00000000000E+00 0.  1.
          2    1    1    2  501    0 -0.94448277766E+01 -0.19442844859E+02  0.40631102766E+03  0.40688558612E+03  0.00000000000E+00 0. -1.
         -2    1    1    2    0  503  0.94448277766E+01  0.19442844859E+02  0.96182134404E+02  0.98581093352E+02  0.00000000000E+00 0.  1.
<mgrwt>
<rscale>  2 0.21615480E+02</rscale>
<asrwt>0</asrwt>
<pdfrwt beam="1">  1       21 0.77535236E-01 0.21615480E+02</pdfrwt>
<pdfrwt beam="2">  1       21 0.22873251E-03 0.21615480E+02</pdfrwt>
<totfact> 0.41145522E+07</totfact>
</mgrwt>
</event>
<event>
 4    1  0.2677450E+004  0.2082698E+02  0.7546771E-02  0.1729366E+00
         21   -1    0    0  501  502  0.00000000000E+00  0.00000000000E+00  0.27252685091E+02  0.27252685091E+02  0.00000000000E+00 0.  1.
         21   -1    0    0  502  503 -0.00000000000E+00 -0.00000000000E+00 -0.24005923965E+02  0.24005923965E+02  0.00000000000E+00 0. -1.
          2    1    1    2  501    0 -0.18003005573E+02 -0.10471614706E+02  0.16501251204E+02  0.26571680705E+02  0.00000000000E+00 0.  1.
         -2    1    1    2    0  503  0.18003005573E+02  0.10471614706E+02 -0.13254490077E+02  0.24686928351E+02  0.00000000000E+00 0. -1.
<mgrwt>
<rscale>  2 0.20826976E+02</rscale>
<asrwt>0</asrwt>
<pdfrwt beam="1">  1       21 0.41927208E-02 0.20826976E+02</pdfrwt>
<pdfrwt beam="2">  1       21 0.36932191E-02 0.20826976E+02</pdfrwt>
<totfact> 0.10632194E+08</totfact>
</mgrwt>
</event>
<event>
 4    1  0.2677450E+004  0.2225525E+02  0.7546771E-02  0.1703875E+00
         21   -1    0    0  503  502  0.00000000000E+00  0.00000000000E+00  0.62648565979E+02  0.62648565979E+02  0.00000000000E+00 0. -1.
         21   -1    0    0  501  503 -0.00000000000E+00 -0.00000000000E+00 -0.16791675641E+02  0.16791675641E+02  0.00000000000E+00 0.  1.
          2    1    1    2  501    0 -0.17212595500E+02 -0.14107546267E+02 -0.59657126760E+01  0.23040964243E+02  0.00000000000E+00 0.  1.
         -2    1    1    2    0  502  0.17212595500E+02  0.14107546267E+02  0.51822603013E+02  0.56399277377E+02  0.00000000000E+00 0. -1.
<mgrwt>
<rscale>  2 0.22255253E+02</rscale>
<asrwt>0</asrwt>
<pdfrwt beam="1">  1       21 0.96382408E-02 0.22255253E+02</pdfrwt>
<pdfrwt beam="2">  1       21 0.25833347E-02 0.22255253E+02</pdfrwt>
<totfact> 0.49518537E+07</totfact>
</mgrwt>
</event>
<event>
 4    1  0.2677450E+004  0.4979378E+02  0.7546771E-02  0.1446457E+00
         21   -1    0    0  503  502  0.00000000000E+00  0.00000000000E+00  0.62550320678E+03  0.62550320678E+03  0.00000000000E+00 0.  1.
         21   -1    0    0  501  503 -0.00000000000E+00 -0.00000000000E+00 -0.10979928500E+02  0.10979928500E+02  0.00000000000E+00 0. -1.
          2    1    1    2  501    0  0.14890822270E+02  0.47515095843E+02  0.52869681424E+02  0.72626607622E+02  0.00000000000E+00 0. -1.
         -2    1    1    2    0  502 -0.14890822270E+02 -0.47515095843E+02  0.56165359686E+03  0.56385652766E+03  0.00000000000E+00 0.  1.
<mgrwt>
<rscale>  2 0.49793784E+02</rscale>
<asrwt>0</asrwt>
<pdfrwt beam="1">  1       21 0.96231235E-01 0.49793784E+02</pdfrwt>
<pdfrwt beam="2">  1       21 0.16892203E-02 0.49793784E+02</pdfrwt>
<totfact> 0.14266029E+06</totfact>
</mgrwt>
</event>
<event>
 4    1  0.2677450E+004  0.2191431E+02  0.7546771E-02  0.1709738E+00
         21   -1    0    0  503  502  0.00000000000E+00  0.00000000000E+00  0.10699743742E+02  0.10699743742E+02  0.00000000000E+00 0. -1.
         21   -1    0    0  501  503 -0.00000000000E+00 -0.00000000000E+00 -0.70532551377E+02  0.70532551377E+02  0.00000000000E+00 0.  1.
          2    1    1    2  501    0 -0.72226741418E+01  0.20689847484E+02 -0.54409497862E+02  0.58656885941E+02  0.00000000000E+00 0.  1.
         -2    1    1    2    0  502  0.72226741418E+01 -0.20689847484E+02 -0.54233097728E+01  0.22575409178E+02  0.00000000000E+00 0. -1.
<mgrwt>
<rscale>  2 0.21914306E+02</rscale>
<asrwt>0</asrwt>
<pdfrwt beam="1">  1       21 0.16461144E-02 0.21914306E+02</pdfrwt>
<pdfrwt beam="2">  1       21 0.10851162E-01 0.21914306E+02</pdfrwt>
<totfact> 0.80912951E+07</totfact>
</mgrwt>
</event>
<event>
 4    1  0.2677450E+004  0.2185794E+02  0.7546771E-02  0.1710720E+00
         21   -1    0    0  501  502  0.00000000000E+00  0.00000000000E+00  0.53092630572E+01  0.53092630572E+01  0.00000000000E+00 0.  1.
         21   -1    0    0  502  503 -0.00000000000E+00 -0.00000000000E+00 -0.11679982621E+03  0.11679982621E+03  0.00000000000E+00 0. -1.
          2    1    1    2  501    0 -0.27419131976E+01 -0.21685284442E+02 -0.26492944039E+02  0.34345971135E+02  0.00000000000E+00 0.  1.
         -2    1    1    2    0  503  0.27419131976E+01  0.21685284442E+02 -0.84997619109E+02  0.87763118128E+02  0.00000000000E+00 0. -1.
<mgrwt>
<rscale>  2 0.21857942E+02</rscale>
<asrwt>0</asrwt>
<pdfrwt beam="1">  1       21 0.81680973E-03 0.21857942E+02</pdfrwt>
<pdfrwt beam="2">  1       21 0.17969203E-01 0.21857942E+02</pdfrwt>
<totfact> 0.99020605E+07</totfact>
</mgrwt>
</event>
<event>
 4    1  0.2677450E+004  0.2172737E+02  0.7546771E-02  0.1713010E+00
         21   -1    0    0  501  502  0.00000000000E+00  0.00000000000E+00  0.19800005836E+03  0.19800005836E+03  0.00000000000E+00 0.  1.
         21   -1    0    0  502  503 -0.00000000000E+00 -0.00000000000E+00 -0.25290763126E+01  0.25290763126E+01  0.00000000000E+00 0. -1.
          2    1    1    2  501    0 -0.20787038391E+02 -0.63227794123E+01  0.12173011725E+03  0.12365395243E+03  0.00000000000E+00 0. -1.
         -2    1    1    2    0  503  0.20787038391E+02  0.63227794123E+01  0.73740864799E+02  0.76875182249E+02  0.00000000000E+00 0.  1.
<mgrwt>
<rscale>  2 0.21727368E+02</rscale>
<asrwt>0</asrwt>
<pdfrwt beam="1">  1       21 0.30461535E-01 0.21727368E+02</pdfrwt>
<pdfrwt beam="2">  1       21 0.38908882E-03 0.21727368E+02</pdfrwt>
<totfact> 0.11621794E+08</totfact>
</mgrwt>
</event>
<event>
 4    1  0.2677450E+004  0.2007750E+02  0.7546771E-02  0.1743791E+00
         21   -1    0    0  503  502  0.00000000000E+00  0.00000000000E+00  0.36569597318E+02  0.36569597318E+02  0.00000000000E+00 0.  1.
         21   -1    0    0  501  503 -0.00000000000E+00 -0.00000000000E+00 -0.52995484725E+02  0.52995484725E+02  0.00000000000E+00 0. -1.
          2    1    1    2  501    0 -0.18012357970E+02  0.88690992484E+01 -0.48066927356E+02  0.52091606488E+02  0.00000000000E+00 0. -1.
         -2    1    1    2    0  502  0.18012357970E+02 -0.88690992484E+01  0.31641039949E+02  0.37473475555E+02  0.00000000000E+00 0.  1.
<mgrwt>
<rscale>  2 0.20077499E+02</rscale>
<asrwt>0</asrwt>
<pdfrwt beam="1">  1       21 0.56260919E-02 0.20077499E+02</pdfrwt>
<pdfrwt beam="2">  1       21 0.81531515E-02 0.20077499E+02</pdfrwt>
<totfact> 0.18735133E+07</totfact>
</mgrwt>
</event>
<event>
 4    1  0.2677450E+004  0.2279657E+02  0.7546771E-02  0.1694829E+00
         21   -1    0    0  501  502  0.00000000000E+00  0.00000000000E+00  0.30712739497E+00  0.30712739497E+00  0.00000000000E+00 0.  1.
         21   -1    0    0  502  503 -0.00000000000E+00 -0.00000000000E+00 -0.21615305875E+04  0.21615305875E+04  0.00000000000E+00 0. -1.
          2    1    1    2  501    0 -0.21734199558E+02  0.68781039744E+01 -0.57687001881E+03  0.57732027710E+03  0.00000000000E+00 0.  1.
         -2    1    1    2    0  503  0.21734199558E+02 -0.68781039744E+01 -0.15843534413E+04  0.15845174378E+04  0.00000000000E+00 0. -1.
<mgrwt>
<rscale>  2 0.22796573E+02</rscale>
<asrwt>0</asrwt>
<pdfrwt beam="1">  1       21 0.47249303E-04 0.22796573E+02</pdfrwt>
<pdfrwt beam="2">  1       21 0.33255066E+00 0.22796573E+02</pdfrwt>
<totfact> 0.97604223E+06</totfact>
</mgrwt>
</event>
<event>
 4    1  0.2677450E+004  0.2368173E+02  0.7546771E-02  0.1680692E+00
         21   -1    0    0  503  502  0.00000000000E+00  0.00000000000E+00  0.11313483213E+02  0.11313483213E+02  0.00000000000E+00 0.  1.
         21   -1    0    0  501  503 -0.00000000000E+00 -0.00000000000E+00 -0.55177104765E+02  0.55177104765E+02  0.00000000000E+00 0. -1.
          2    1    1    2  501    0  0.65444412008E+01  0.22759492725E+02 -0.32528475568E+02  0.40235878796E+02  0.00000000000E+00 0. -1.
         -2    1    1    2    0  502 -0.65444412008E+01 -0.22759492725E+02 -0.11335145985E+02  0.26254709182E+02  0.00000000000E+00 0.  1.
<mgrwt>
<rscale>  2 0.23681728E+02</rscale>
<asrwt>0</asrwt>
<pdfrwt beam="1">  1       21 0.17405360E-02 0.23681728E+02</pdfrwt>
<pdfrwt beam="2">  1       21 0.84887850E-02 0.23681728E+02</pdfrwt>
<totfact> 0.11389731E+08</totfact>
</mgrwt>
</event>
<event>
 4    1  0.2677450E+004  0.2076432E+02  0.7546771E-02  0.1730542E+00
         21   -1    0    0  501  502  0.00000000000E+00  0.00000000000E+00  0.26395831215E+03  0.26395831215E+03  0.00000000000E+00 0.  1.
         21   -1    0    0  502  503 -0.00000000000E+00 -0.00000000000E+00 -0.16392714298E+01  0.16392714298E+01  0.00000000000E+00 0. -1.
          2    1    1    2  501    0  0.80417516044E+00 -0.20748740505E+02  0.13908814853E+03  0.14062954879E+03  0.00000000000E+00 0. -1.
         -2    1    1    2    0  503 -0.80417516044E+00  0.20748740505E+02  0.12323089219E+03  0.12496803479E+03  0.00000000000E+00 0.  1.
<mgrwt>
<rscale>  2 0.20764319E+02</rscale>
<asrwt>0</asrwt>
<pdfrwt beam="1">  1       21 0.40608937E-01 0.20764319E+02</pdfrwt>
<pdfrwt beam="2">  1       21 0.25219581E-03 0.20764319E+02</pdfrwt>
<totfact> 0.12676590E+08</totfact>
</mgrwt>
</event>
<event>
 4    1  0.2677450E+004  0.2029064E+02  0.7546771E-02  0.1739609E+00
         21   -1    0    0  503  502  0.00000000000E+00  0.00000000000E+00  0.58492071778E+01  0.58492071778E+01  0.00000000000E+00 0.  1.
         21   -1    0    0  501  503 -0.00000000000E+00 -0.00000000000E+00 -0.22796168831E+03  0.22796168831E+03  0.00000000000E+00 0. -1.
          2    1    1    2  501    0  0.14589515237E+02 -0.14101636063E+02 -0.20825183639E+03  0.20923799238E+03  0.00000000000E+00 0. -1.
         -2    1    1    2    0  502 -0.14589515237E+02  0.14101636063E+02 -0.13860644738E+02  0.24572903105E+02  0.00000000000E+00 0.  1.
<mgrwt>
<rscale>  2 0.20290641E+02</rscale>
<asrwt>0</asrwt>
<pdfrwt beam="1">  1       21 0.89987797E-03 0.20290641E+02</pdfrwt>
<pdfrwt beam="2">  1       21 0.35071031E-01 0.20290641E+02</pdfrwt>
<totfact> 0.25590607E+07</totfact>
</mgrwt>
</event>
<event>
 4    1  0.2677450E+004  0.2168166E+02  0.7546771E-02  0.1713816E+00
         21   -1    0    0  503  502  0.00000000000E+00  0.00000000000E+00  0.50849167344E+01  0.50849167344E+01  0.00000000000E+00 0.  1.
         21   -1    0    0  501  503 -0.00000000000E+00 -0.00000000000E+00 -0.92474991752E+02  0.92474991752E+02  0.00000000000E+00 0. -1.
          2    1    1    2  501    0 -0.17450685084E+02 -0.12867316269E+02 -0.44516631802E+02  0.49515903959E+02  0.00000000000E+00 0.  1.
         -2    1    1    2    0  502  0.17450685084E+02  0.12867316269E+02 -0.42873443216E+02  0.48044004527E+02  0.00000000000E+00 0. -1.
<mgrwt>
<rscale>  2 0.21681657E+02</rscale>
<asrwt>0</asrwt>
<pdfrwt beam="1">  1       21 0.78229486E-03 0.21681657E+02</pdfrwt>
<pdfrwt beam="2">  1       21 0.14226922E-01 0.21681657E+02</pdfrwt>
<totfact> 0.15696187E+08</totfact>
</mgrwt>
</event>
<event>
 4    1  0.2677450E+004  0.2916676E+02  0.7546771E-02  0.1607486E+00
         21   -1    0    0  503  502  0.00000000000E+00  0.00000000000E+00  0.51487276803E+01  0.51487276803E+01  0.00000000000E+00 0. -1.
         21   -1    0    0  501  503 -0.00000000000E+00 -0.00000000000E+00 -0.27925858802E+03  0.27925858802E+03  0.00000000000E+00 0.  1.
          2    1    1    2  501    0  0.25266946612E+02  0.14569881517E+02 -0.22792551769E+03  0.22978411967E+03  0.00000000000E+00 0.  1.
         -2    1    1    2    0  502 -0.25266946612E+02 -0.14569881517E+02 -0.46184342648E+02  0.54623196028E+02  0.00000000000E+00 0. -1.
<mgrwt>
<rscale>  2 0.29166763E+02</rscale>
<asrwt>0</asrwt>
<pdfrwt beam="1">  1       21 0.79211197E-03 0.29166763E+02</pdfrwt>
<pdfrwt beam="2">  1       21 0.42962858E-01 0.29166763E+02</pdfrwt>
<totfact> 0.22796597E+07</totfact>
</mgrwt>
</event>
<event>
 4    1  0.2677450E+004  0.2034812E+02  0.7546771E-02  0.1738492E+00
         21   -1    0    0  501  502  0.00000000000E+00  0.00000000000E+00  0.44145915300E+02  0.44145915300E+02  0.00000000000E+00 0.  1.
         21   -1    0    0  502  503 -0.00000000000E+00 -0.00000000000E+00 -0.37763507806E+02  0.37763507806E+02  0.00000000000E+00 0. -1.
          2    1    1    2  501    0  0.17426844664E+02  0.10504820644E+02  0.38697723682E+02  0.43721390530E+02  0.00000000000E+00 0.  1.
         -2    1    1    2    0  503 -0.17426844664E+02 -0.10504820644E+02 -0.32315316188E+02  0.38188032576E+02  0.00000000000E+00 0. -1.
<mgrwt>
<rscale>  2 0.20348125E+02</rscale>
<asrwt>0</asrwt>
<pdfrwt beam="1">  1       21 0.67916793E-02 0.20348125E+02</pdfrwt>
<pdfrwt beam="2">  1       21 0.58097704E-02 0.20348125E+02</pdfrwt>
<totfact> 0.23992920E+07</totfact>
</mgrwt>
</event>
<event>
 4    1  0.2677450E+004  0.2751776E+02  0.7546771E-02  0.1627267E+00
         21   -1    0    0  501  502  0.00000000000E+00  0.00000000000E+00  0.10887699412E+03  0.10887699412E+03  0.00000000000E+00 0. -1.
         21   -1    0    0  502  503 -0.00000000000E+00 -0.00000000000E+00 -0.54852360896E+02  0.54852360896E+02  0.00000000000E+00 0.  1.
          2    1    1    2  501    0  0.27516725497E+02 -0.23805225762E+00  0.10351122039E+03  0.10710648719E+03  0.00000000000E+00 0. -1.
         -2    1    1    2    0  503 -0.27516725497E+02  0.23805225762E+00 -0.49486587170E+02  0.56622867824E+02  0.00000000000E+00 0.  1.
<mgrwt>
<rscale>  2 0.27517755E+02</rscale>
<asrwt>0</asrwt>
<pdfrwt beam="1">  1       21 0.16750307E-01 0.27517755E+02</pdfrwt>
<pdfrwt beam="2">  1       21 0.84388248E-02 0.27517755E+02</pdfrwt>
<totfact> 0.30785071E+06</totfact>
</mgrwt>
</event>
<event>
 4    1  0.2677450E+004  0.2962339E+02  0.7546771E-02  0.1602289E+00
         21   -1    0    0  503  502  0.00000000000E+00  0.00000000000E+00  0.54145313871E+02  0.54145313871E+02  0.00000000000E+00 0. -1.
         21   -1    0    0  501  503 -0.00000000000E+00 -0.00000000000E+00 -0.56007669177E+02  0.56007669177E+02  0.00000000000E+00 0.  1.
          2    1    1    2  501    0  0.16503314037E+02 -0.24600523036E+02 -0.47359874554E+02  0.55861461006E+02  0.00000000000E+00 0.  1.
         -2    1    1    2    0  502 -0.16503314037E+02  0.24600523036E+02  0.45497519248E+02  0.54291522042E+02  0.00000000000E+00 0. -1.
<mgrwt>
<rscale>  2 0.29623388E+02</rscale>
<asrwt>0</asrwt>
<pdfrwt beam="1">  1       21 0.83300483E-02 0.29623388E+02</pdfrwt>
<pdfrwt beam="2">  1       21 0.86165645E-02 0.29623388E+02</pdfrwt>
<totfact> 0.97832076E+06</totfact>
</mgrwt>
</event>
<event>
 4    1  0.2677450E+004  0.3200433E+02  0.7546771E-02  0.1576935E+00
         21   -1    0    0  501  502  0.00000000000E+00  0.00000000000E+00  0.61493430852E+02  0.61493430852E+02  0.00000000000E+00 0.  1.
         21   -1    0    0  502  503 -0.00000000000E+00 -0.00000000000E+00 -0.17163488258E+02  0.17163488258E+02  0.00000000000E+00 0. -1.
          2    1    1    2  501    0  0.14681308283E+01 -0.31970638584E+02  0.15406929955E+02  0.35519721709E+02  0.00000000000E+00 0.  1.
         -2    1    1    2    0  503 -0.14681308283E+01  0.31970638584E+02  0.28923012638E+02  0.43137197402E+02  0.00000000000E+00 0. -1.
<mgrwt>
<rscale>  2 0.32004330E+02</rscale>
<asrwt>0</asrwt>
<pdfrwt beam="1">  1       21 0.94605278E-02 0.32004330E+02</pdfrwt>
<pdfrwt beam="2">  1       21 0.26405367E-02 0.32004330E+02</pdfrwt>
<totfact> 0.53810960E+07</totfact>
</mgrwt>
</event>
<event>
 4    1  0.2677450E+004  0.2109047E+02  0.7546771E-02  0.1724474E+00
         21   -1    0    0  503  502  0.00000000000E+00  0.00000000000E+00  0.18550387665E+01  0.18550387665E+01  0.00000000000E+00 0. -1.
         21   -1    0    0  501  503 -0.00000000000E+00 -0.00000000000E+00 -0.35754570167E+03  0.35754570167E+03  0.00000000000E+00 0.  1.
          2    1    1    2  501    0  0.21052288488E+02 -0.12685188240E+01 -0.28097552878E+03  0.28176595919E+03  0.00000000000E+00 0.  1.
         -2    1    1    2    0  502 -0.21052288488E+02  0.12685188240E+01 -0.74715134126E+02  0.77634781239E+02  0.00000000000E+00 0. -1.
<mgrwt>
<rscale>  2 0.21090472E+02</rscale>
<asrwt>0</asrwt>
<pdfrwt beam="1">  1       21 0.28539063E-03 0.21090472E+02</pdfrwt>
<pdfrwt beam="2">  1       21 0.55007021E-01 0.21090472E+02</pdfrwt>
<totfact> 0.59410961E+07</totfact>
</mgrwt>
</event>
<event>
 4    1  0.2677450E+004  0.2022049E+02  0.7546771E-02  0.1740979E+00
         21   -1    0    0  503  502  0.00000000000E+00  0.00000000000E+00  0.17232327904E+02  0.17232327904E+02  0.00000000000E+00 0.  1.
         21   -1    0    0  501  503 -0.00000000000E+00 -0.00000000000E+00 -0.58693878526E+02  0.58693878526E+02  0.00000000000E+00 0. -1.
          2    1    1    2  501    0 -0.19974687529E+02  0.31432378357E+01 -0.50032618770E+02  0.53964164285E+02  0.00000000000E+00 0. -1.
         -2    1    1    2    0  502  0.19974687529E+02 -0.31432378357E+01  0.85710681476E+01  0.21962042145E+02  0.00000000000E+00 0.  1.
<mgrwt>
<rscale>  2 0.20220487E+02</rscale>
<asrwt>0</asrwt>
<pdfrwt beam="1">  1       21 0.26511274E-02 0.20220487E+02</pdfrwt>
<pdfrwt beam="2">  1       21 0.90298273E-02 0.20220487E+02</pdfrwt>
<totfact> 0.51627489E+07</totfact>
</mgrwt>
</event>
<event>
 4    1  0.2677450E+004  0.2035197E+02  0.7546771E-02  0.1738418E+00
         21   -1    0    0  503  502  0.00000000000E+00  0.00000000000E+00  0.16802327810E+04  0.16802327810E+04  0.00000000000E+00 0.  1.
         21   -1    0    0  501  503 -0.00000000000E+00 -0.00000000000E+00 -0.29290788983E+00  0.29290788983E+00  0.00000000000E+00 0. -1.
          2    1    1    2  501    0  0.17464738722E+02  0.10449189096E+02  0.50556309812E+03  0.50597257715E+03  0.00000000000E+00 0. -1.
         -2    1    1    2    0  502 -0.17464738722E+02 -0.10449189096E+02  0.11743767750E+04  0.11745531117E+04  0.00000000000E+00 0.  1.
<mgrwt>
<rscale>  2 0.20351969E+02</rscale>
<asrwt>0</asrwt>
<pdfrwt beam="1">  1       21 0.25848963E+00 0.20351969E+02</pdfrwt>
<pdfrwt beam="2">  1       21 0.45064098E-04 0.20351969E+02</pdfrwt>
<totfact> 0.23550426E+07</totfact>
</mgrwt>
</event>
<event>
 4    1  0.2677450E+004  0.2187306E+02  0.7546771E-02  0.1710457E+00
         21   -1    0    0  501  502  0.00000000000E+00  0.00000000000E+00  0.78065918294E+01  0.78065918294E+01  0.00000000000E+00 0.  1.
         21   -1    0    0  502  503 -0.00000000000E+00 -0.00000000000E+00 -0.79444773002E+02  0.79444773002E+02  0.00000000000E+00 0. -1.
          2    1    1    2  501    0 -0.35016508569E+01 -0.21590948128E+02 -0.14961735599E+02  0.26500643991E+02  0.00000000000E+00 0.  1.
         -2    1    1    2    0  503  0.35016508569E+01  0.21590948128E+02 -0.56676445574E+02  0.60750720841E+02  0.00000000000E+00 0. -1.
<mgrwt>
<rscale>  2 0.21873056E+02</rscale>
<asrwt>0</asrwt>
<pdfrwt beam="1">  1       21 0.12010141E-02 0.21873056E+02</pdfrwt>
<pdfrwt beam="2">  1       21 0.12222273E-01 0.21873056E+02</pdfrwt>
<totfact> 0.10690941E+08</totfact>
</mgrwt>
</event>
<event>
 4    1  0.2677450E+004  0.2412668E+02  0.7546771E-02  0.1673872E+00
         21   -1    0    0  503  502  0.00000000000E+00  0.00000000000E+00  0.45790264657E+01  0.45790264657E+01  0.00000000000E+00 0.  1.
         21   -1    0    0  501  503 -0.00000000000E+00 -0.00000000000E+00 -0.13034579470E+03  0.13034579470E+03  0.00000000000E+00 0. -1.
          2    1    1    2  501    0  0.23986267494E+02 -0.25991867488E+01 -0.73492289745E+02  0.77351234328E+02  0.00000000000E+00 0. -1.
         -2    1    1    2    0  502 -0.23986267494E+02  0.25991867488E+01 -0.52274478487E+02  0.57573586836E+02  0.00000000000E+00 0.  1.
<mgrwt>
<rscale>  2 0.24126682E+02</rscale>
<asrwt>0</asrwt>
<pdfrwt beam="1">  1       21 0.70446561E-03 0.24126682E+02</pdfrwt>
<pdfrwt beam="2">  1       21 0.20053199E-01 0.24126682E+02</pdfrwt>
<totfact> 0.10487720E+08</totfact>
</mgrwt>
</event>
<event>
 4    1  0.2677450E+004  0.2005532E+02  0.7546771E-02  0.1744230E+00
         21   -1    0    0  501  502  0.00000000000E+00  0.00000000000E+00  0.10373976398E+03  0.10373976398E+03  0.00000000000E+00 0. -1.
         21   -1    0    0  502  503 -0.00000000000E+00 -0.00000000000E+00 -0.18693511879E+02  0.18693511879E+02  0.00000000000E+00 0.  1.
          2    1    1    2  501    0 -0.77923475966E+00 -0.20040172866E+02  0.97022894433E+02  0.99074001531E+02  0.00000000000E+00 0. -1.
         -2    1    1    2    0  503  0.77923475966E+00  0.20040172866E+02 -0.11976642336E+02  0.23359274324E+02  0.00000000000E+00 0.  1.
<mgrwt>
<rscale>  2 0.20055317E+02</rscale>
<asrwt>0</asrwt>
<pdfrwt beam="1">  1       21 0.15959963E-01 0.20055317E+02</pdfrwt>
<pdfrwt beam="2">  1       21 0.28759250E-02 0.20055317E+02</pdfrwt>
<totfact> 0.17590650E+07</totfact>
</mgrwt>
</event>
<event>
 4    1  0.2677450E+004  0.2237943E+02  0.7546771E-02  0.1701771E+00
         21   -1    0    0  503  502  0.00000000000E+00  0.00000000000E+00  0.32228178409E+03  0.32228178409E+03  0.00000000000E+00 0.  1.
         21   -1    0    0  501  503 -0.00000000000E+00 -0.00000000000E+00 -0.15909465633E+01  0.15909465633E+01  0.00000000000E+00 0. -1.
          2    1    1    2  501    0 -0.22377454866E+02  0.29769261386E+00  0.18500936071E+03  0.18635799595E+03  0.00000000000E+00 0.  1.
         -2    1    1    2    0  502  0.22377454866E+02 -0.29769261386E+00  0.13568147682E+03  0.13751473470E+03  0.00000000000E+00 0. -1.
<mgrwt>
<rscale>  2 0.22379435E+02</rscale>
<asrwt>0</asrwt>
<pdfrwt beam="1">  1       21 0.49581761E-01 0.22379435E+02</pdfrwt>
<pdfrwt beam="2">  1       21 0.24476127E-03 0.22379435E+02</pdfrwt>
<totfact> 0.92281292E+07</totfact>
</mgrwt>
</event>
<event>
 4    1  0.2677450E+004  0.2908031E+02  0.7546771E-02  0.1608483E+00
         21   -1    0    0  501  502  0.00000000000E+00  0.00000000000E+00  0.56447336289E+01  0.56447336289E+01  0.00000000000E+00 0.  1.
         21   -1    0    0  502  503 -0.00000000000E+00 -0.00000000000E+00 -0.16751787467E+03  0.16751787467E+03  0.00000000000E+00 0. -1.
          2    1    1    2  501    0 -0.95481918872E+01  0.27468096680E+02 -0.52790444551E+02  0.60270186157E+02  0.00000000000E+00 0.  1.
         -2    1    1    2    0  503  0.95481918872E+01 -0.27468096680E+02 -0.10908269649E+03  0.11289242214E+03  0.00000000000E+00 0. -1.
<mgrwt>
<rscale>  2 0.29080308E+02</rscale>
<asrwt>0</asrwt>
<pdfrwt beam="1">  1       21 0.86842056E-03 0.29080308E+02</pdfrwt>
<pdfrwt beam="2">  1       21 0.25771981E-01 0.29080308E+02</pdfrwt>
<totfact> 0.51340281E+07</totfact>
</mgrwt>
</event>
<event>
 4    1  0.2677450E+004  0.2515045E+02  0.7546771E-02  0.1658850E+00
         21   -1    0    0  503  502  0.00000000000E+00  0.00000000000E+00  0.27087342525E+01  0.27087342525E+01  0.00000000000E+00 0. -1.
         21   -1    0    0  501  503 -0.00000000000E+00 -0.00000000000E+00 -0.92426694769E+03  0.92426694769E+03  0.00000000000E+00 0.  1.
          2    1    1    2  501    0  0.21504641221E+02  0.13042062356E+02 -0.86146030444E+03  0.86182736154E+03  0.00000000000E+00 0.  1.
         -2    1    1    2    0  502 -0.21504641221E+02 -0.13042062356E+02 -0.60097908998E+02  0.65148320397E+02  0.00000000000E+00 0. -1.
<mgrwt>
<rscale>  2 0.25150447E+02</rscale>
<asrwt>0</asrwt>
<pdfrwt beam="1">  1       21 0.41672857E-03 0.25150447E+02</pdfrwt>
<pdfrwt beam="2">  1       21 0.14219484E+00 0.25150447E+02</pdfrwt>
<totfact> 0.46046696E+06</totfact>
</mgrwt>
</event>
<event>
 4    1  0.2677450E+004  0.2200347E+02  0.7546771E-02  0.1708192E+00
         21   -1    0    0  503  502  0.00000000000E+00  0.00000000000E+00  0.87570386049E+03  0.87570386049E+03  0.00000000000E+00 0. -1.
         21   -1    0    0  501  503 -0.00000000000E+00 -0.00000000000E+00 -0.77559401039E+00  0.77559401039E+00  0.00000000000E+00 0.  1.
          2    1    1    2  501    0 -0.21586542672E+02 -0.42630931143E+01  0.20262234708E+03  0.20381356266E+03  0.00000000000E+00 0.  1.
         -2    1    1    2    0  502  0.21586542672E+02  0.42630931143E+01  0.67230591940E+03  0.67266589184E+03  0.00000000000E+00 0. -1.
<mgrwt>
<rscale>  2 0.22003472E+02</rscale>
<asrwt>0</asrwt>
<pdfrwt beam="1">  1       21 0.13472288E+00 0.22003472E+02</pdfrwt>
<pdfrwt beam="2">  1       21 0.11932286E-03 0.22003472E+02</pdfrwt>
<totfact> 0.31317543E+07</totfact>
</mgrwt>
</event>
<event>
 4    1  0.2677450E+004  0.3154594E+02  0.7546771E-02  0.1581603E+00
         21   -1    0    0  501  502  0.00000000000E+00  0.00000000000E+00  0.62271862848E+02  0.62271862848E+02  0.00000000000E+00 0.  1.
         21   -1    0    0  502  503 -0.00000000000E+00 -0.00000000000E+00 -0.60051359530E+02  0.60051359530E+02  0.00000000000E+00 0. -1.
          2    1    1    2  501    0  0.24444807059E+02 -0.19939860386E+02  0.53505557056E+02  0.62112730259E+02  0.00000000000E+00 0.  1.
         -2    1    1    2    0  503 -0.24444807059E+02  0.19939860386E+02 -0.51285053737E+02  0.60210492119E+02  0.00000000000E+00 0. -1.
<mgrwt>
<rscale>  2 0.31545945E+02</rscale>
<asrwt>0</asrwt>
<pdfrwt beam="1">  1       21 0.95802866E-02 0.31545945E+02</pdfrwt>
<pdfrwt beam="2">  1       21 0.92386707E-02 0.31545945E+02</pdfrwt>
<totfact> 0.69727632E+06</totfact>
</mgrwt>
</event>
<event>
 4    1  0.2677450E+004  0.2516993E+02  0.7546771E-02  0.1658573E+00
         21   -1    0    0  501  502  0.00000000000E+00  0.00000000000E+00  0.17335052275E+01  0.17335052275E+01  0.00000000000E+00 0. -1.
         21   -1    0    0  502  503 -0.00000000000E+00 -0.00000000000E+00 -0.61034978240E+03  0.61034978240E+03  0.00000000000E+00 0.  1.
          2    1    1    2  501    0  0.22166414308E+02  0.11923726726E+02 -0.11045300801E+03  0.11328456276E+03  0.00000000000E+00 0. -1.
         -2    1    1    2    0  503 -0.22166414308E+02 -0.11923726726E+02 -0.49816326917E+03  0.49879872487E+03  0.00000000000E+00 0.  1.
<mgrwt>
<rscale>  2 0.25169926E+02</rscale>
<asrwt>0</asrwt>
<pdfrwt beam="1">  1       21 0.26669351E-03 0.25169926E+02</pdfrwt>
<pdfrwt beam="2">  1       21 0.93899826E-01 0.25169926E+02</pdfrwt>
<totfact> 0.22620943E+07</totfact>
</mgrwt>
</event>
<event>
 4    1  0.2677450E+004  0.2000214E+02  0.7546771E-02  0.1745286E+00
         21   -1    0    0  503  502  0.00000000000E+00  0.00000000000E+00  0.36797551828E+02  0.36797551828E+02  0.00000000000E+00 0.  1.
         21   -1    0    0  501  503 -0.00000000000E+00 -0.00000000000E+00 -0.22776554752E+02  0.22776554752E+02  0.00000000000E+00 0. -1.
          2    1    1    2  501    0  0.14952147802E+02  0.13286035499E+02 -0.14523712318E+02  0.24718893233E+02  0.00000000000E+00 0. -1.
         -2    1    1    2    0  502 -0.14952147802E+02 -0.13286035499E+02  0.28544709393E+02  0.34855213348E+02  0.00000000000E+00 0.  1.
<mgrwt>
<rscale>  2 0.20002136E+02</rscale>
<asrwt>0</asrwt>
<pdfrwt beam="1">  1       21 0.56611618E-02 0.20002136E+02</pdfrwt>
<pdfrwt beam="2">  1       21 0.35040854E-02 0.20002136E+02</pdfrwt>
<totfact> 0.70911843E+07</totfact>
</mgrwt>
</event>
<event>
 4    1  0.2677450E+004  0.2188370E+02  0.7546771E-02  0.1710271E+00
         21   -1    0    0  503  502  0.00000000000E+00  0.00000000000E+00  0.24675704889E+02  0.24675704889E+02  0.00000000000E+00 0.  1.
         21   -1    0    0  501  503 -0.00000000000E+00 -0.00000000000E+00 -0.24616936861E+02  0.24616936861E+02  0.00000000000E+00 0. -1.
          2    1    1    2  501    0  0.21090388712E+02  0.58388374845E+01 -0.11308337661E+02  0.24632803735E+02  0.00000000000E+00 0. -1.
         -2    1    1    2    0  502 -0.21090388712E+02 -0.58388374845E+01  0.11367105688E+02  0.24659838015E+02  0.00000000000E+00 0.  1.
<mgrwt>
<rscale>  2 0.21883704E+02</rscale>
<asrwt>0</asrwt>
<pdfrwt beam="1">  1       21 0.37962623E-02 0.21883704E+02</pdfrwt>
<pdfrwt beam="2">  1       21 0.37872210E-02 0.21883704E+02</pdfrwt>
<totfact> 0.12125409E+08</totfact>
</mgrwt>
</event>
<event>
 4    1  0.2677450E+004  0.2405604E+02  0.7546771E-02  0.1674942E+00
         21   -1    0    0  501  502  0.00000000000E+00  0.00000000000E+00  0.12139492429E+03  0.12139492429E+03  0.00000000000E+00 0. -1.
         21   -1    0    0  502  503 -0.00000000000E+00 -0.00000000000E+00 -0.16063962674E+02  0.16063962674E+02  0.00000000000E+00 0.  1.
          2    1    1    2  501    0  0.12482505643E+01  0.24023636304E+02  0.11030186888E+03  0.11289462126E+03  0.00000000000E+00 0. -1.
         -2    1    1    2    0  503 -0.12482505643E+01 -0.24023636304E+02 -0.49709072619E+01  0.24564265707E+02  0.00000000000E+00 0.  1.
<mgrwt>
<rscale>  2 0.24056044E+02</rscale>
<asrwt>0</asrwt>
<pdfrwt beam="1">  1       21 0.18676142E-01 0.24056044E+02</pdfrwt>
<pdfrwt beam="2">  1       21 0.24713789E-02 0.24056044E+02</pdfrwt>
<totfact> 0.17663404E+07</totfact>
</mgrwt>
</event>
<event>
 4    1  0.2677450E+004  0.3649578E+02  0.7546771E-02  0.1535705E+00
         21   -1    0    0  501  502  0.00000000000E+00  0.00000000000E+00  0.11934753881E+02  0.11934753881E+02  0.00000000000E+00 0.  1.
         21   -1    0    0  502  503 -0.00000000000E+00 -0.00000000000E+00 -0.15635301617E+03  0.15635301617E+03  0.00000000000E+00 0. -1.
          2    1    1    2  501    0 -0.34389999344E+02 -0.12217598506E+02 -0.27192692196E+02  0.45512462876E+02  0.00000000000E+00 0.  1.
         -2    1    1    2    0  503  0.34389999344E+02  0.12217598506E+02 -0.11722557010E+03  0.12277530718E+03  0.00000000000E+00 0. -1.
<mgrwt>
<rscale>  2 0.36495777E+02</rscale>
<asrwt>0</asrwt>
<pdfrwt beam="1">  1       21 0.18361160E-02 0.36495777E+02</pdfrwt>
<pdfrwt beam="2">  1       21 0.24054310E-01 0.36495777E+02</pdfrwt>
<totfact> 0.19299872E+07</totfact>
</mgrwt>
</event>
<event>
 4    1  0.2677450E+004  0.2408787E+02  0.7546771E-02  0.1674460E+00
         21   -1    0    0  501  502  0.00000000000E+00  0.00000000000E+00  0.10199948560E+02  0.10199948560E+02  0.00000000000E+00 0. -1.
         21   -1    0    0  502  503 -0.00000000000E+00 -0.00000000000E+00 -0.15223327444E+03  0.15223327444E+03  0.00000000000E+00 0.  1.
          2    1    1    2  501    0  0.10911169420E+02  0.21474915123E+02 -0.67410613328E+01  0.25013346548E+02  0.00000000000E+00 0. -1.
         -2    1    1    2    0  503 -0.10911169420E+02 -0.21474915123E+02 -0.13529226455E+03  0.13741987646E+03  0.00000000000E+00 0.  1.
<mgrwt>
<rscale>  2 0.24087872E+02</rscale>
<asrwt>0</asrwt>
<pdfrwt beam="1">  1       21 0.15692229E-02 0.24087872E+02</pdfrwt>
<pdfrwt beam="2">  1       21 0.23420503E-01 0.24087872E+02</pdfrwt>
<totfact> 0.23857719E+07</totfact>
</mgrwt>
</event>
<event>
 4    1  0.2677450E+004  0.3487976E+02  0.7546771E-02  0.1549671E+00
         21   -1    0    0  501  502  0.00000000000E+00  0.00000000000E+00  0.86699348348E+01  0.86699348348E+01  0.00000000000E+00 0. -1.
         21   -1    0    0  502  503 -0.00000000000E+00 -0.00000000000E+00 -0.14974616890E+03  0.14974616890E+03  0.00000000000E+00 0.  1.
          2    1    1    2  501    0 -0.22173615047E+02  0.26924497882E+02 -0.90406961806E+02  0.96902097673E+02  0.00000000000E+00 0.  1.
         -2    1    1    2    0  503  0.22173615047E+02 -0.26924497882E+02 -0.50669272258E+02  0.61514006061E+02  0.00000000000E+00 0. -1.
<mgrwt>
<rscale>  2 0.34879762E+02</rscale>
<asrwt>0</asrwt>
<pdfrwt beam="1">  1       21 0.13338362E-02 0.34879762E+02</pdfrwt>
<pdfrwt beam="2">  1       21 0.23037870E-01 0.34879762E+02</pdfrwt>
<totfact> 0.33918351E+07</totfact>
</mgrwt>
</event>
<event>
 4    1  0.2677450E+004  0.2442689E+02  0.7546771E-02  0.1669373E+00
         21   -1    0    0  501  502  0.00000000000E+00  0.00000000000E+00  0.15509561533E+03  0.15509561533E+03  0.00000000000E+00 0.  1.
         21   -1    0    0  502  503 -0.00000000000E+00 -0.00000000000E+00 -0.19075017353E+02  0.19075017353E+02  0.00000000000E+00 0. -1.
          2    1    1    2  501    0 -0.18850141196E+02 -0.15535280210E+02  0.14581974313E+03  0.14785151416E+03  0.00000000000E+00 0.  1.
         -2    1    1    2    0  503  0.18850141196E+02  0.15535280210E+02 -0.97991451470E+01  0.26319118525E+02  0.00000000000E+00 0. -1.
<mgrwt>
<rscale>  2 0.24426886E+02</rscale>
<asrwt>0</asrwt>
<pdfrwt beam="1">  1       21 0.23860863E-01 0.24426886E+02</pdfrwt>
<pdfrwt beam="2">  1       21 0.29346182E-02 0.24426886E+02</pdfrwt>
<totfact> 0.88189663E+06</totfact>
</mgrwt>
</event>
<event>
 4    1  0.2677450E+004  0.3456555E+02  0.7546771E-02  0.1552493E+00
         21   -1    0    0  501  502  0.00000000000E+00  0.00000000000E+00  0.73514991944E+01  0.73514991944E+01  0.00000000000E+00 0. -1.
         21   -1    0    0  502  503 -0.00000000000E+00 -0.00000000000E+00 -0.33945551388E+03  0.33945551388E+03  0.00000000000E+00 0.  1.
          2    1    1    2  501    0  0.15714257962E+02 -0.30787002675E+02 -0.40861332732E+02  0.53520332114E+02  0.00000000000E+00 0. -1.
         -2    1    1    2    0  503 -0.15714257962E+02  0.30787002675E+02 -0.29124268195E+03  0.29328668096E+03  0.00000000000E+00 0.  1.
<mgrwt>
<rscale>  2 0.34565553E+02</rscale>
<asrwt>0</asrwt>
<pdfrwt beam="1">  1       21 0.11309996E-02 0.34565553E+02</pdfrwt>
<pdfrwt beam="2">  1       21 0.52223937E-01 0.34565553E+02</pdfrwt>
<totfact> 0.93175545E+06</totfact>
</mgrwt>
</event>
<event>
 4    1  0.2677450E+004  0.2421359E+02  0.7546771E-02  0.1672561E+00
         21   -1    0    0  503  502  0.00000000000E+00  0.00000000000E+00  0.19020230367E+01  0.19020230367E+01  0.00000000000E+00 0. -1.
         21   -1    0    0  501  503 -0.00000000000E+00 -0.00000000000E+00 -0.31062285569E+03  0.31062285569E+03  0.00000000000E+00 0.  1.
          2    1    1    2  501    0  0.17500635397E+02 -0.16733967645E+02 -0.16801903215E+03  0.16975480281E+03  0.00000000000E+00 0. -1.
         -2    1    1    2    0  502 -0.17500635397E+02  0.16733967645E+02 -0.14070180050E+03  0.14277007592E+03  0.00000000000E+00 0.  1.
<mgrwt>
<rscale>  2 0.24213589E+02</rscale>
<asrwt>0</asrwt>
<pdfrwt beam="1">  1       21 0.29261905E-03 0.24213589E+02</pdfrwt>
<pdfrwt beam="2">  1       21 0.47788112E-01 0.24213589E+02</pdfrwt>
<totfact> 0.77984397E+07</totfact>
</mgrwt>
</event>
<event>
 4    1  0.2677450E+004  0.2100053E+02  0.7546771E-02  0.1726133E+00
         21   -1    0    0  503  502  0.00000000000E+00  0.00000000000E+00  0.14734739718E+02  0.14734739718E+02  0.00000000000E+00 0. -1.
         21   -1    0    0  501  503 -0.00000000000E+00 -0.00000000000E+00 -0.31457902104E+02  0.31457902104E+02  0.00000000000E+00 0.  1.
          2    1    1    2  501    0  0.20595941806E+02 -0.41023876918E+01 -0.13450357416E+02  0.24938615003E+02  0.00000000000E+00 0.  1.
         -2    1    1    2    0  502 -0.20595941806E+02  0.41023876918E+01 -0.32728049699E+01  0.21254026819E+02  0.00000000000E+00 0. -1.
<mgrwt>
<rscale>  2 0.21000533E+02</rscale>
<asrwt>0</asrwt>
<pdfrwt beam="1">  1       21 0.22668831E-02 0.21000533E+02</pdfrwt>
<pdfrwt beam="2">  1       21 0.48396772E-02 0.21000533E+02</pdfrwt>
<totfact> 0.18106424E+08</totfact>
</mgrwt>
</event>
<event>
 4    1  0.2677450E+004  0.3091435E+02  0.7546771E-02  0.1588196E+00
         21   -1    0    0  501  502  0.00000000000E+00  0.00000000000E+00  0.29394806970E+02  0.29394806970E+02  0.00000000000E+00 0.  1.
         21   -1    0    0  502  503 -0.00000000000E+00 -0.00000000000E+00 -0.33621506438E+02  0.33621506438E+02  0.00000000000E+00 0. -1.
          2    1    1    2  501    0  0.29519200903E+02  0.91822386192E+01  0.36092625871E+01  0.31124323357E+02  0.00000000000E+00 0.  1.
         -2    1    1    2    0  503 -0.29519200903E+02 -0.91822386192E+01 -0.78359620550E+01  0.31891990050E+02  0.00000000000E+00 0. -1.
<mgrwt>
<rscale>  2 0.30914345E+02</rscale>
<asrwt>0</asrwt>
<pdfrwt beam="1">  1       21 0.45222780E-02 0.30914345E+02</pdfrwt>
<pdfrwt beam="2">  1       21 0.51725394E-02 0.30914345E+02</pdfrwt>
<totfact> 0.61274493E+07</totfact>
</mgrwt>
</event>
<event>
 4    1  0.2677450E+004  0.2195244E+02  0.7546771E-02  0.1709076E+00
         21   -1    0    0  503  502  0.00000000000E+00  0.00000000000E+00  0.82953528882E+02  0.82953528882E+02  0.00000000000E+00 0.  1.
         21   -1    0    0  501  503 -0.00000000000E+00 -0.00000000000E+00 -0.12529202549E+02  0.12529202549E+02  0.00000000000E+00 0. -1.
          2    1    1    2  501    0  0.17689521047E+02 -0.12999632669E+02  0.24892702121E+00  0.21953850894E+02  0.00000000000E+00 0. -1.
         -2    1    1    2    0  502 -0.17689521047E+02  0.12999632669E+02  0.70175399312E+02  0.73528880536E+02  0.00000000000E+00 0.  1.
<mgrwt>
<rscale>  2 0.21952440E+02</rscale>
<asrwt>0</asrwt>
<pdfrwt beam="1">  1       21 0.12762081E-01 0.21952440E+02</pdfrwt>
<pdfrwt beam="2">  1       21 0.19275697E-02 0.21952440E+02</pdfrwt>
<totfact> 0.48537164E+07</totfact>
</mgrwt>
</event>
<event>
 4    1  0.2677450E+004  0.2815619E+02  0.7546771E-02  0.1619412E+00
         21   -1    0    0  501  502  0.00000000000E+00  0.00000000000E+00  0.73639589073E+00  0.73639589073E+00  0.00000000000E+00 0.  1.
         21   -1    0    0  502  503 -0.00000000000E+00 -0.00000000000E+00 -0.10772046988E+04  0.10772046988E+04  0.00000000000E+00 0. -1.
          2    1    1    2  501    0  0.39069112204E+00  0.28153477230E+02 -0.55146727244E+03  0.55218558791E+03  0.00000000000E+00 0. -1.
         -2    1    1    2    0  503 -0.39069112204E+00 -0.28153477230E+02 -0.52500103047E+03  0.52575550679E+03  0.00000000000E+00 0.  1.
<mgrwt>
<rscale>  2 0.28156188E+02</rscale>
<asrwt>0</asrwt>
<pdfrwt beam="1">  1       21 0.11329137E-03 0.28156188E+02</pdfrwt>
<pdfrwt beam="2">  1       21 0.16572424E+00 0.28156188E+02</pdfrwt>
<totfact> 0.21462905E+07</totfact>
</mgrwt>
</event>
<event>
 4    1  0.2677450E+004  0.2456973E+02  0.7546771E-02  0.1667260E+00
         21   -1    0    0  503  502  0.00000000000E+00  0.00000000000E+00  0.63016748455E+01  0.63016748455E+01  0.00000000000E+00 0. -1.
         21   -1    0    0  501  503 -0.00000000000E+00 -0.00000000000E+00 -0.12023771265E+03  0.12023771265E+03  0.00000000000E+00 0.  1.
          2    1    1    2  501    0  0.52357820841E+01 -0.24005377712E+02 -0.85494379712E+02  0.88954823003E+02  0.00000000000E+00 0.  1.
         -2    1    1    2    0  502 -0.52357820841E+01  0.24005377712E+02 -0.28441658098E+02  0.37584564498E+02  0.00000000000E+00 0. -1.
<mgrwt>
<rscale>  2 0.24569729E+02</rscale>
<asrwt>0</asrwt>
<pdfrwt beam="1">  1       21 0.96948854E-03 0.24569729E+02</pdfrwt>
<pdfrwt beam="2">  1       21 0.18498108E-01 0.24569729E+02</pdfrwt>
<totfact> 0.75208820E+07</totfact>
</mgrwt>
</event>
<event>
 4    1  0.2677450E+004  0.2160805E+02  0.7546771E-02  0.1715120E+00
         21   -1    0    0  503  502  0.00000000000E+00  0.00000000000E+00  0.17769205910E+01  0.17769205910E+01  0.00000000000E+00 0.  1.
         21   -1    0    0  501  503 -0.00000000000E+00 -0.00000000000E+00 -0.27929193088E+03  0.27929193088E+03  0.00000000000E+00 0. -1.
          2    1    1    2  501    0 -0.20960068075E+02 -0.52519689442E+01 -0.17294646747E+03  0.17429110201E+03  0.00000000000E+00 0. -1.
         -2    1    1    2    0  502  0.20960068075E+02  0.52519689442E+01 -0.10456854283E+03  0.10677774946E+03  0.00000000000E+00 0.  1.
<mgrwt>
<rscale>  2 0.21608046E+02</rscale>
<asrwt>0</asrwt>
<pdfrwt beam="1">  1       21 0.27337246E-03 0.21608046E+02</pdfrwt>
<pdfrwt beam="2">  1       21 0.42967980E-01 0.21608046E+02</pdfrwt>
<totfact> 0.10249922E+08</totfact>
</mgrwt>
</event>
<event>
 4    1  0.2677450E+004  0.2937056E+02  0.7546771E-02  0.1605152E+00
         21   -1    0    0  503  502  0.00000000000E+00  0.00000000000E+00  0.31217916420E+02  0.31217916420E+02  0.00000000000E+00 0. -1.
         21   -1    0    0  501  503 -0.00000000000E+00 -0.00000000000E+00 -0.33251699411E+02  0.33251699411E+02  0.00000000000E+00 0.  1.
          2    1    1    2  501    0  0.29060059645E+02  0.42594418607E+01 -0.14268065319E+02  0.32652834479E+02  0.00000000000E+00 0.  1.
         -2    1    1    2    0  502 -0.29060059645E+02 -0.42594418607E+01  0.12234282327E+02  0.31816781352E+02  0.00000000000E+00 0. -1.
<mgrwt>
<rscale>  2 0.29370562E+02</rscale>
<asrwt>0</asrwt>
<pdfrwt beam="1">  1       21 0.48027564E-02 0.29370562E+02</pdfrwt>
<pdfrwt beam="2">  1       21 0.51156461E-02 0.29370562E+02</pdfrwt>
<totfact> 0.55996041E+07</totfact>
</mgrwt>
</event>
<event>
 4    1  0.2677450E+004  0.2377203E+02  0.7546771E-02  0.1679293E+00
         21   -1    0    0  503  502  0.00000000000E+00  0.00000000000E+00  0.40774477502E+03  0.40774477502E+03  0.00000000000E+00 0.  1.
         21   -1    0    0  501  503 -0.00000000000E+00 -0.00000000000E+00 -0.34082534947E+01  0.34082534947E+01  0.00000000000E+00 0. -1.
          2    1    1    2  501    0 -0.23757243383E+02 -0.83821089469E+00  0.43813200099E+02  0.49846822502E+02  0.00000000000E+00 0. -1.
         -2    1    1    2    0  502  0.23757243383E+02  0.83821089469E+00  0.36052332143E+03  0.36130620601E+03  0.00000000000E+00 0.  1.
<mgrwt>
<rscale>  2 0.23772026E+02</rscale>
<asrwt>0</asrwt>
<pdfrwt beam="1">  1       21 0.62729927E-01 0.23772026E+02</pdfrwt>
<pdfrwt beam="2">  1       21 0.52434701E-03 0.23772026E+02</pdfrwt>
<totfact> 0.19273786E+07</totfact>
</mgrwt>
</event>
<event>
 4    1  0.2677450E+004  0.2164801E+02  0.7546771E-02  0.1714411E+00
         21   -1    0    0  503  502  0.00000000000E+00  0.00000000000E+00  0.15218316659E+02  0.15218316659E+02  0.00000000000E+00 0.  1.
         21   -1    0    0  501  503 -0.00000000000E+00 -0.00000000000E+00 -0.31408721022E+02  0.31408721022E+02  0.00000000000E+00 0. -1.
          2    1    1    2  501    0  0.19692816750E+02 -0.89905219016E+01 -0.48343097322E+01  0.22181232297E+02  0.00000000000E+00 0. -1.
         -2    1    1    2    0  502 -0.19692816750E+02  0.89905219016E+01 -0.11356094630E+02  0.24445805384E+02  0.00000000000E+00 0.  1.
<mgrwt>
<rscale>  2 0.21648014E+02</rscale>
<asrwt>0</asrwt>
<pdfrwt beam="1">  1       21 0.23412795E-02 0.21648014E+02</pdfrwt>
<pdfrwt beam="2">  1       21 0.48321109E-02 0.21648014E+02</pdfrwt>
<totfact> 0.17438418E+08</totfact>
</mgrwt>
</event>
<event>
 4    1  0.2677450E+004  0.4563094E+02  0.7546771E-02  0.1470441E+00
         21   -1    0    0  503  502  0.00000000000E+00  0.00000000000E+00  0.74784937666E+02  0.74784937666E+02  0.00000000000E+00 0. -1.
         21   -1    0    0  501  503 -0.00000000000E+00 -0.00000000000E+00 -0.41227639885E+02  0.41227639885E+02  0.00000000000E+00 0.  1.
          2    1    1    2  501    0  0.38536785588E+02 -0.24435611226E+02 -0.16273212324E+02  0.48445849965E+02  0.00000000000E+00 0.  1.
         -2    1    1    2    0  502 -0.38536785588E+02  0.24435611226E+02  0.49830510105E+02  0.67566727587E+02  0.00000000000E+00 0. -1.
<mgrwt>
<rscale>  2 0.45630943E+02</rscale>
<asrwt>0</asrwt>
<pdfrwt beam="1">  1       21 0.11505375E-01 0.45630943E+02</pdfrwt>
<pdfrwt beam="2">  1       21 0.63427138E-02 0.45630943E+02</pdfrwt>
<totfact> 0.10034660E+07</totfact>
</mgrwt>
</event>
<event>
 4    1  0.2677450E+004  0.2375077E+02  0.7546771E-02  0.1679622E+00
         21   -1    0    0  503  502  0.00000000000E+00  0.00000000000E+00  0.74624962937E+02  0.74624962937E+02  0.00000000000E+00 0. -1.
         21   -1    0    0  501  503 -0.00000000000E+00 -0.00000000000E+00 -0.89351121733E+01  0.89351121733E+01  0.00000000000E+00 0.  1.
          2    1    1    2  501    0  0.10124793426E+02 -0.21484587995E+02  0.16449337764E+02  0.28890823389E+02  0.00000000000E+00 0. -1.
         -2    1    1    2    0  502 -0.10124793426E+02  0.21484587995E+02  0.49240513000E+02  0.54669251721E+02  0.00000000000E+00 0.  1.
<mgrwt>
<rscale>  2 0.23750768E+02</rscale>
<asrwt>0</asrwt>
<pdfrwt beam="1">  1       21 0.11480763E-01 0.23750768E+02</pdfrwt>
<pdfrwt beam="2">  1       21 0.13746327E-02 0.23750768E+02</pdfrwt>
<totfact> 0.99078337E+07</totfact>
</mgrwt>
</event>
<event>
 4    1  0.2677450E+004  0.2091725E+02  0.7546771E-02  0.1727680E+00
         21   -1    0    0  501  502  0.00000000000E+00  0.00000000000E+00  0.29839644768E+01  0.29839644768E+01  0.00000000000E+00 0.  1.
         21   -1    0    0  502  503 -0.00000000000E+00 -0.00000000000E+00 -0.20152630493E+03  0.20152630493E+03  0.00000000000E+00 0. -1.
          2    1    1    2  501    0  0.17291388205E+02  0.11770264103E+02 -0.45900735930E+02  0.50442133005E+02  0.00000000000E+00 0.  1.
         -2    1    1    2    0  503 -0.17291388205E+02 -0.11770264103E+02 -0.15264160452E+03  0.15406813640E+03  0.00000000000E+00 0. -1.
<mgrwt>
<rscale>  2 0.20917247E+02</rscale>
<asrwt>0</asrwt>
<pdfrwt beam="1">  1       21 0.45907136E-03 0.20917247E+02</pdfrwt>
<pdfrwt beam="2">  1       21 0.31004054E-01 0.20917247E+02</pdfrwt>
<totfact> 0.87408749E+07</totfact>
</mgrwt>
</event>
<event>
 4    1  0.2677450E+004  0.2155310E+02  0.7546771E-02  0.1716098E+00
         21   -1    0    0  503  502  0.00000000000E+00  0.00000000000E+00  0.15156646241E+04  0.15156646241E+04  0.00000000000E+00 0.  1.
         21   -1    0    0  501  503 -0.00000000000E+00 -0.00000000000E+00 -0.42605677759E+00  0.42605677759E+00  0.00000000000E+00 0. -1.
          2    1    1    2  501    0 -0.96407682670E+01 -0.19276710518E+02  0.35604417177E+03  0.35669593246E+03  0.00000000000E+00 0. -1.
         -2    1    1    2    0  502  0.96407682670E+01  0.19276710518E+02  0.11591943955E+04  0.11593947484E+04  0.00000000000E+00 0.  1.
<mgrwt>
<rscale>  2 0.21553097E+02</rscale>
<asrwt>0</asrwt>
<pdfrwt beam="1">  1       21 0.23317486E+00 0.21553097E+02</pdfrwt>
<pdfrwt beam="2">  1       21 0.65548410E-04 0.21553097E+02</pdfrwt>
<totfact> 0.18691944E+07</totfact>
</mgrwt>
</event>
<event>
 4    1  0.2677450E+004  0.2471296E+02  0.7546771E-02  0.1665159E+00
         21   -1    0    0  503  502  0.00000000000E+00  0.00000000000E+00  0.26439629687E+02  0.26439629687E+02  0.00000000000E+00 0. -1.
         21   -1    0    0  501  503 -0.00000000000E+00 -0.00000000000E+00 -0.27672886265E+02  0.27672886265E+02  0.00000000000E+00 0.  1.
          2    1    1    2  501    0  0.24703882517E+02  0.66960877764E+00 -0.11616333889E+02  0.27306947841E+02  0.00000000000E+00 0. -1.
         -2    1    1    2    0  502 -0.24703882517E+02 -0.66960877764E+00  0.10383077311E+02  0.26805568112E+02  0.00000000000E+00 0.  1.
<mgrwt>
<rscale>  2 0.24712956E+02</rscale>
<asrwt>0</asrwt>
<pdfrwt beam="1">  1       21 0.40676353E-02 0.24712956E+02</pdfrwt>
<pdfrwt beam="2">  1       21 0.42573671E-02 0.24712956E+02</pdfrwt>
<totfact> 0.93669691E+07</totfact>
</mgrwt>
</event>
<event>
 4    1  0.2677450E+004  0.2714867E+02  0.7546771E-02  0.1631929E+00
         21   -1    0    0  501  502  0.00000000000E+00  0.00000000000E+00  0.19210754972E+02  0.19210754972E+02  0.00000000000E+00 0. -1.
         21   -1    0    0  502  503 -0.00000000000E+00 -0.00000000000E+00 -0.41620074464E+02  0.41620074464E+02  0.00000000000E+00 0.  1.
          2    1    1    2  501    0 -0.58824216993E+01 -0.26503729157E+02 -0.27007464717E+01  0.27282679043E+02  0.00000000000E+00 0. -1.
         -2    1    1    2    0  503  0.58824216993E+01  0.26503729157E+02 -0.19708573021E+02  0.33548150393E+02  0.00000000000E+00 0.  1.
<mgrwt>
<rscale>  2 0.27148675E+02</rscale>
<asrwt>0</asrwt>
<pdfrwt beam="1">  1       21 0.29555008E-02 0.27148675E+02</pdfrwt>
<pdfrwt beam="2">  1       21 0.64030883E-02 0.27148675E+02</pdfrwt>
<totfact> 0.82478142E+07</totfact>
</mgrwt>
</event>
<event>
 4    1  0.2677450E+004  0.4853465E+02  0.7546771E-02  0.1453409E+00
         21   -1    0    0  501  502  0.00000000000E+00  0.00000000000E+00  0.13698116796E+02  0.13698116796E+02  0.00000000000E+00 0. -1.
         21   -1    0    0  502  503 -0.00000000000E+00 -0.00000000000E+00 -0.17477067826E+03  0.17477067826E+03  0.00000000000E+00 0.  1.
          2    1    1    2  501    0 -0.35227231546E+02  0.33386433994E+02 -0.68598917167E+02  0.84032275072E+02  0.00000000000E+00 0. -1.
         -2    1    1    2    0  503  0.35227231546E+02 -0.33386433994E+02 -0.92473644300E+02  0.10443651999E+03  0.00000000000E+00 0.  1.
<mgrwt>
<rscale>  2 0.48534646E+02</rscale>
<asrwt>0</asrwt>
<pdfrwt beam="1">  1       21 0.21074027E-02 0.48534646E+02</pdfrwt>
<pdfrwt beam="2">  1       21 0.26887795E-01 0.48534646E+02</pdfrwt>
<totfact> 0.13217315E+07</totfact>
</mgrwt>
</event>
<event>
 4    1  0.2677450E+004  0.3017001E+02  0.7546771E-02  0.1596217E+00
         21   -1    0    0  503  502  0.00000000000E+00  0.00000000000E+00  0.11836630800E+02  0.11836630800E+02  0.00000000000E+00 0. -1.
         21   -1    0    0  501  503 -0.00000000000E+00 -0.00000000000E+00 -0.81378448274E+02  0.81378448274E+02  0.00000000000E+00 0.  1.
          2    1    1    2  501    0 -0.20540338237E+02 -0.22098055541E+02 -0.45705319434E+02  0.54765005050E+02  0.00000000000E+00 0. -1.
         -2    1    1    2    0  502  0.20540338237E+02  0.22098055541E+02 -0.23836498040E+02  0.38450074023E+02  0.00000000000E+00 0.  1.
<mgrwt>
<rscale>  2 0.30170011E+02</rscale>
<asrwt>0</asrwt>
<pdfrwt beam="1">  1       21 0.18210201E-02 0.30170011E+02</pdfrwt>
<pdfrwt beam="2">  1       21 0.12519761E-01 0.30170011E+02</pdfrwt>
<totfact> 0.59094894E+07</totfact>
</mgrwt>
</event>
<event>
 4    1  0.2677450E+004  0.2104885E+02  0.7546771E-02  0.1725240E+00
         21   -1    0    0  501  502  0.00000000000E+00  0.00000000000E+00  0.28146183582E+03  0.28146183582E+03  0.00000000000E+00 0. -1.
         21   -1    0    0  502  503 -0.00000000000E+00 -0.00000000000E+00 -0.27867668446E+01  0.27867668446E+01  0.00000000000E+00 0.  1.
          2    1    1    2  501    0 -0.12055876426E+02  0.17254270138E+02  0.23309063688E+03  0.23403909715E+03  0.00000000000E+00 0. -1.
         -2    1    1    2    0  503  0.12055876426E+02 -0.17254270138E+02  0.45584432093E+02  0.50209505510E+02  0.00000000000E+00 0.  1.
<mgrwt>
<rscale>  2 0.21048848E+02</rscale>
<asrwt>0</asrwt>
<pdfrwt beam="1">  1       21 0.43301798E-01 0.21048848E+02</pdfrwt>
<pdfrwt beam="2">  1       21 0.42873358E-03 0.21048848E+02</pdfrwt>
<totfact> 0.52058341E+07</totfact>
</mgrwt>
</event>
<event>
 4    1  0.2677450E+004  0.3776341E+02  0.7546771E-02  0.1525346E+00
         21   -1    0    0  503  502  0.00000000000E+00  0.00000000000E+00  0.29942594074E+01  0.29942594074E+01  0.00000000000E+00 0.  1.
         21   -1    0    0  501  503 -0.00000000000E+00 -0.00000000000E+00 -0.72296408143E+03  0.72296408143E+03  0.00000000000E+00 0. -1.
          2    1    1    2  501    0  0.13401251366E+02 -0.35305549275E+02 -0.57201762822E+03  0.57326280390E+03  0.00000000000E+00 0. -1.
         -2    1    1    2    0  502 -0.13401251366E+02  0.35305549275E+02 -0.14795219380E+03  0.15269553693E+03  0.00000000000E+00 0.  1.
<mgrwt>
<rscale>  2 0.37763413E+02</rscale>
<asrwt>0</asrwt>
<pdfrwt beam="1">  1       21 0.46065455E-03 0.37763413E+02</pdfrwt>
<pdfrwt beam="2">  1       21 0.11122542E+00 0.37763413E+02</pdfrwt>
<totfact> 0.73338958E+06</totfact>
</mgrwt>
</event>
<event>
 4    1  0.2677450E+004  0.2682930E+02  0.7546771E-02  0.1636037E+00
         21   -1    0    0  501  502  0.00000000000E+00  0.00000000000E+00  0.43290720777E+03  0.43290720777E+03  0.00000000000E+00 0. -1.
         21   -1    0    0  502  503 -0.00000000000E+00 -0.00000000000E+00 -0.21625104229E+01  0.21625104229E+01  0.00000000000E+00 0.  1.
          2    1    1    2  501    0 -0.26318580690E+02 -0.52099349130E+01  0.31994931864E+03  0.32107223114E+03  0.00000000000E+00 0. -1.
         -2    1    1    2    0  503  0.26318580690E+02  0.52099349130E+01  0.11079537870E+03  0.11399748704E+03  0.00000000000E+00 0.  1.
<mgrwt>
<rscale>  2 0.26829296E+02</rscale>
<asrwt>0</asrwt>
<pdfrwt beam="1">  1       21 0.66601040E-01 0.26829296E+02</pdfrwt>
<pdfrwt beam="2">  1       21 0.33269426E-03 0.26829296E+02</pdfrwt>
<totfact> 0.34149965E+07</totfact>
</mgrwt>
</event>
<event>
 4    1  0.2677450E+004  0.4079117E+02  0.7546771E-02  0.1502469E+00
         21   -1    0    0  501  502  0.00000000000E+00  0.00000000000E+00  0.15822848110E+02  0.15822848110E+02  0.00000000000E+00 0. -1.
         21   -1    0    0  502  503 -0.00000000000E+00 -0.00000000000E+00 -0.11392000789E+03  0.11392000789E+03  0.00000000000E+00 0.  1.
          2    1    1    2  501    0  0.25355980026E+02  0.31952997162E+02 -0.31058923526E+02  0.51269644833E+02  0.00000000000E+00 0. -1.
         -2    1    1    2    0  503 -0.25355980026E+02 -0.31952997162E+02 -0.67038236258E+02  0.78473211169E+02  0.00000000000E+00 0.  1.
<mgrwt>
<rscale>  2 0.40791172E+02</rscale>
<asrwt>0</asrwt>
<pdfrwt beam="1">  1       21 0.24342843E-02 0.40791172E+02</pdfrwt>
<pdfrwt beam="2">  1       21 0.17526156E-01 0.40791172E+02</pdfrwt>
<totfact> 0.22240370E+07</totfact>
</mgrwt>
</event>
<event>
 4    1  0.2677450E+004  0.5044099E+02  0.7546771E-02  0.1442977E+00
         21   -1    0    0  501  502  0.00000000000E+00  0.00000000000E+00  0.27509890368E+03  0.27509890368E+03  0.00000000000E+00 0. -1.
         21   -1    0    0  502  503 -0.00000000000E+00 -0.00000000000E+00 -0.14339760843E+02  0.14339760843E+02  0.00000000000E+00 0.  1.
          2    1    1    2  501    0 -0.89231192361E+01  0.49645461036E+02  0.21661025179E+03  0.22240569921E+03  0.00000000000E+00 0. -1.
         -2    1    1    2    0  503  0.89231192361E+01 -0.49645461036E+02  0.44148891044E+02  0.67032965314E+02  0.00000000000E+00 0.  1.
<mgrwt>
<rscale>  2 0.50440994E+02</rscale>
<asrwt>0</asrwt>
<pdfrwt beam="1">  1       21 0.42322904E-01 0.50440994E+02</pdfrwt>
<pdfrwt beam="2">  1       21 0.22061173E-02 0.50440994E+02</pdfrwt>
<totfact> 0.52136269E+06</totfact>
</mgrwt>
</event>
<event>
 4    1  0.2677450E+004  0.2290915E+02  0.7546771E-02  0.1692987E+00
         21   -1    0    0  503  502  0.00000000000E+00  0.00000000000E+00  0.62264170939E+01  0.62264170939E+01  0.00000000000E+00 0.  1.
         21   -1    0    0  501  503 -0.00000000000E+00 -0.00000000000E+00 -0.11068225572E+03  0.11068225572E+03  0.00000000000E+00 0. -1.
          2    1    1    2  501    0  0.21222211740E+02 -0.86282620470E+01 -0.80771606206E+02  0.83957617559E+02  0.00000000000E+00 0. -1.
         -2    1    1    2    0  502 -0.21222211740E+02  0.86282620470E+01 -0.23684232422E+02  0.32951055257E+02  0.00000000000E+00 0.  1.
<mgrwt>
<rscale>  2 0.22909151E+02</rscale>
<asrwt>0</asrwt>
<pdfrwt beam="1">  1       21 0.95791030E-03 0.22909151E+02</pdfrwt>
<pdfrwt beam="2">  1       21 0.17028040E-01 0.22909151E+02</pdfrwt>
<totfact> 0.86723049E+07</totfact>
</mgrwt>
</event>
<event>
 4    1  0.2677450E+004  0.3144952E+02  0.7546771E-02  0.1582597E+00
         21   -1    0    0  501  502  0.00000000000E+00  0.00000000000E+00  0.17308974118E+02  0.17308974118E+02  0.00000000000E+00 0. -1.
         21   -1    0    0  502  503 -0.00000000000E+00 -0.00000000000E+00 -0.61986478462E+02  0.61986478462E+02  0.00000000000E+00 0.  1.
          2    1    1    2  501    0 -0.28127112965E+02  0.14069044366E+02 -0.11255038282E+02  0.33402819939E+02  0.00000000000E+00 0. -1.
         -2    1    1    2    0  503  0.28127112965E+02 -0.14069044366E+02 -0.33422466061E+02  0.45892632641E+02  0.00000000000E+00 0.  1.
<mgrwt>
<rscale>  2 0.31449523E+02</rscale>
<asrwt>0</asrwt>
<pdfrwt beam="1">  1       21 0.26629190E-02 0.31449523E+02</pdfrwt>
<pdfrwt beam="2">  1       21 0.95363815E-02 0.31449523E+02</pdfrwt>
<totfact> 0.52203148E+07</totfact>
</mgrwt>
</event>
<event>
 4    1  0.2677450E+004  0.3264937E+02  0.7546771E-02  0.1570524E+00
         21   -1    0    0  501  502  0.00000000000E+00  0.00000000000E+00  0.35850461838E+01  0.35850461838E+01  0.00000000000E+00 0. -1.
         21   -1    0    0  502  503 -0.00000000000E+00 -0.00000000000E+00 -0.30363736835E+03  0.30363736835E+03  0.00000000000E+00 0.  1.
          2    1    1    2  501    0  0.18205172122E+02 -0.27102634702E+02 -0.12790583691E+03  0.13200713699E+03  0.00000000000E+00 0. -1.
         -2    1    1    2    0  503 -0.18205172122E+02  0.27102634702E+02 -0.17214648526E+03  0.17521527755E+03  0.00000000000E+00 0.  1.
<mgrwt>
<rscale>  2 0.32649366E+02</rscale>
<asrwt>0</asrwt>
<pdfrwt beam="1">  1       21 0.55154546E-03 0.32649366E+02</pdfrwt>
<pdfrwt beam="2">  1       21 0.46713450E-01 0.32649366E+02</pdfrwt>
<totfact> 0.34046982E+07</totfact>
</mgrwt>
</event>
<event>
 4    1  0.2677450E+004  0.3316327E+02  0.7546771E-02  0.1565543E+00
         21   -1    0    0  503  502  0.00000000000E+00  0.00000000000E+00  0.82972075757E+02  0.82972075757E+02  0.00000000000E+00 0. -1.
         21   -1    0    0  501  503 -0.00000000000E+00 -0.00000000000E+00 -0.20830786410E+02  0.20830786410E+02  0.00000000000E+00 0.  1.
          2    1    1    2  501    0  0.18403630630E+02 -0.27588202341E+02 -0.22887789290E+00  0.33164060576E+02  0.00000000000E+00 0.  1.
         -2    1    1    2    0  502 -0.18403630630E+02  0.27588202341E+02  0.62370167240E+02  0.70638801592E+02  0.00000000000E+00 0. -1.
<mgrwt>
<rscale>  2 0.33163271E+02</rscale>
<asrwt>0</asrwt>
<pdfrwt beam="1">  1       21 0.12764935E-01 0.33163271E+02</pdfrwt>
<pdfrwt beam="2">  1       21 0.32047364E-02 0.33163271E+02</pdfrwt>
<totfact> 0.24094955E+07</totfact>
</mgrwt>
</event>
<event>
 4    1  0.2677450E+004  0.2181973E+02  0.7546771E-02  0.1711388E+00
         21   -1    0    0  503  502  0.00000000000E+00  0.00000000000E+00  0.55855664676E+02  0.55855664676E+02  0.00000000000E+00 0. -1.
         21   -1    0    0  501  503 -0.00000000000E+00 -0.00000000000E+00 -0.85239485548E+01  0.85239485548E+01  0.00000000000E+00 0.  1.
          2    1    1    2  501    0 -0.21359167960E+02  0.44594441818E+01  0.23517496136E+02  0.32080731333E+02  0.00000000000E+00 0.  1.
         -2    1    1    2    0  502  0.21359167960E+02 -0.44594441818E+01  0.23814219986E+02  0.32298881898E+02  0.00000000000E+00 0. -1.
<mgrwt>
<rscale>  2 0.21819732E+02</rscale>
<asrwt>0</asrwt>
<pdfrwt beam="1">  1       21 0.85931789E-02 0.21819732E+02</pdfrwt>
<pdfrwt beam="2">  1       21 0.13113767E-02 0.21819732E+02</pdfrwt>
<totfact> 0.16751888E+08</totfact>
</mgrwt>
</event>
