<event>
 4    1  0.2761157E+004  0.2494981E+02  0.7546771E-02  0.1661724E+00
         21   -1    0    0  503  502  0.00000000000E+00  0.00000000000E+00  0.60922856321E+02  0.60922856321E+02  0.00000000000E+00 0.  1.
         21   -1    0    0  501  503 -0.00000000000E+00 -0.00000000000E+00 -0.13386575966E+02  0.13386575966E+02  0.00000000000E+00 0. -1.
          2    1    1    2  501    0  0.52207831502E+01  0.24397465231E+02  0.56909794112E+01  0.25590625883E+02  0.00000000000E+00 0. -1.
         -2    1    1    2    0  502 -0.52207831502E+01 -0.24397465231E+02  0.41845300943E+02  0.48718806404E+02  0.00000000000E+00 0.  1.
<mgrwt>
<rscale>  2 0.24949807E+02</rscale>
<asrwt>0</asrwt>
<pdfrwt beam="1">  1       21 0.93727470E-02 0.24949807E+02</pdfrwt>
<pdfrwt beam="2">  1       21 0.20594733E-02 0.24949807E+02</pdfrwt>
<totfact> 0.75812814E+07</totfact>
</mgrwt>
</event>
<event>
 4    1  0.2761157E+004  0.2288497E+02  0.7546771E-02  0.1693382E+00
         21   -1    0    0  501  502  0.00000000000E+00  0.00000000000E+00  0.19809753269E+02  0.19809753269E+02  0.00000000000E+00 0. -1.
         21   -1    0    0  502  503 -0.00000000000E+00 -0.00000000000E+00 -0.34174229834E+02  0.34174229834E+02  0.00000000000E+00 0.  1.
          2    1    1    2  501    0 -0.16157864784E+02 -0.16206332122E+02  0.56606360313E+01  0.23574660030E+02  0.00000000000E+00 0. -1.
         -2    1    1    2    0  503  0.16157864784E+02  0.16206332122E+02 -0.20025112597E+02  0.30409323073E+02  0.00000000000E+00 0.  1.
<mgrwt>
<rscale>  2 0.22884969E+02</rscale>
<asrwt>0</asrwt>
<pdfrwt beam="1">  1       21 0.30476544E-02 0.22884969E+02</pdfrwt>
<pdfrwt beam="2">  1       21 0.52575737E-02 0.22884969E+02</pdfrwt>
<totfact> 0.10308403E+08</totfact>
</mgrwt>
</event>
<event>
 4    1  0.2761157E+004  0.2144164E+02  0.7546771E-02  0.1718091E+00
         21   -1    0    0  501  502  0.00000000000E+00  0.00000000000E+00  0.41451805601E+02  0.41451805601E+02  0.00000000000E+00 0. -1.
         21   -1    0    0  502  503 -0.00000000000E+00 -0.00000000000E+00 -0.25657761997E+02  0.25657761997E+02  0.00000000000E+00 0.  1.
          2    1    1    2  501    0  0.11217904677E+02 -0.18273001838E+02  0.33179861420E+02  0.39505027344E+02  0.00000000000E+00 0. -1.
         -2    1    1    2    0  503 -0.11217904677E+02  0.18273001838E+02 -0.17385817817E+02  0.27604540255E+02  0.00000000000E+00 0.  1.
<mgrwt>
<rscale>  2 0.21441641E+02</rscale>
<asrwt>0</asrwt>
<pdfrwt beam="1">  1       21 0.63772008E-02 0.21441641E+02</pdfrwt>
<pdfrwt beam="2">  1       21 0.39473480E-02 0.21441641E+02</pdfrwt>
<totfact> 0.49591315E+07</totfact>
</mgrwt>
</event>
<event>
 4    1  0.2761157E+004  0.3034984E+02  0.7546771E-02  0.1594254E+00
         21   -1    0    0  503  502  0.00000000000E+00  0.00000000000E+00  0.13301841444E+02  0.13301841444E+02  0.00000000000E+00 0.  1.
         21   -1    0    0  501  503 -0.00000000000E+00 -0.00000000000E+00 -0.97968040603E+02  0.97968040603E+02  0.00000000000E+00 0. -1.
          2    1    1    2  501    0  0.87124275827E+01 -0.29072428518E+02 -0.72456609587E+02  0.78556175869E+02  0.00000000000E+00 0. -1.
         -2    1    1    2    0  502 -0.87124275827E+01  0.29072428518E+02 -0.12209589572E+02  0.32713706177E+02  0.00000000000E+00 0.  1.
<mgrwt>
<rscale>  2 0.30349835E+02</rscale>
<asrwt>0</asrwt>
<pdfrwt beam="1">  1       21 0.20464371E-02 0.30349835E+02</pdfrwt>
<pdfrwt beam="2">  1       21 0.15072007E-01 0.30349835E+02</pdfrwt>
<totfact> 0.35963486E+07</totfact>
</mgrwt>
</event>
<event>
 4    1  0.2761157E+004  0.2491018E+02  0.7546771E-02  0.1662295E+00
         21   -1    0    0  501  502  0.00000000000E+00  0.00000000000E+00  0.17373736237E+02  0.17373736237E+02  0.00000000000E+00 0.  1.
         21   -1    0    0  502  503 -0.00000000000E+00 -0.00000000000E+00 -0.95247519626E+02  0.95247519626E+02  0.00000000000E+00 0. -1.
          2    1    1    2  501    0 -0.22643727751E+02  0.10381646078E+02  0.55813217257E+01  0.25527791403E+02  0.00000000000E+00 0.  1.
         -2    1    1    2    0  503  0.22643727751E+02 -0.10381646078E+02 -0.83455105115E+02  0.87093464459E+02  0.00000000000E+00 0. -1.
<mgrwt>
<rscale>  2 0.24910178E+02</rscale>
<asrwt>0</asrwt>
<pdfrwt beam="1">  1       21 0.26728825E-02 0.24910178E+02</pdfrwt>
<pdfrwt beam="2">  1       21 0.14653464E-01 0.24910178E+02</pdfrwt>
<totfact> 0.23917033E+07</totfact>
</mgrwt>
</event>
<event>
 4    1  0.2761157E+004  0.4615134E+02  0.7546771E-02  0.1467279E+00
         21   -1    0    0  503  502  0.00000000000E+00  0.00000000000E+00  0.12513124203E+03  0.12513124203E+03  0.00000000000E+00 0.  1.
         21   -1    0    0  501  503 -0.00000000000E+00 -0.00000000000E+00 -0.25528203834E+02  0.25528203834E+02  0.00000000000E+00 0. -1.
          2    1    1    2  501    0  0.37856693449E+02 -0.26397294973E+02  0.63172874977E+01  0.46581697501E+02  0.00000000000E+00 0. -1.
         -2    1    1    2    0  502 -0.37856693449E+02  0.26397294973E+02  0.93285750697E+02  0.10407774836E+03  0.00000000000E+00 0.  1.
<mgrwt>
<rscale>  2 0.46151343E+02</rscale>
<asrwt>0</asrwt>
<pdfrwt beam="1">  1       21 0.19250960E-01 0.46151343E+02</pdfrwt>
<pdfrwt beam="2">  1       21 0.39274160E-02 0.46151343E+02</pdfrwt>
<totfact> 0.89350292E+06</totfact>
</mgrwt>
</event>
<event>
 4    1  0.2761157E+004  0.2017081E+02  0.7546771E-02  0.1741952E+00
         21   -1    0    0  501  502  0.00000000000E+00  0.00000000000E+00  0.71398130194E+01  0.71398130194E+01  0.00000000000E+00 0. -1.
         21   -1    0    0  502  503 -0.00000000000E+00 -0.00000000000E+00 -0.12227922378E+03  0.12227922378E+03  0.00000000000E+00 0.  1.
          2    1    1    2  501    0  0.87272763475E+01  0.18185055166E+02 -0.10284038258E+02  0.22641179888E+02  0.00000000000E+00 0. -1.
         -2    1    1    2    0  503 -0.87272763475E+01 -0.18185055166E+02 -0.10485537250E+03  0.10677785691E+03  0.00000000000E+00 0.  1.
<mgrwt>
<rscale>  2 0.20170810E+02</rscale>
<asrwt>0</asrwt>
<pdfrwt beam="1">  1       21 0.10984328E-02 0.20170810E+02</pdfrwt>
<pdfrwt beam="2">  1       21 0.18812187E-01 0.20170810E+02</pdfrwt>
<totfact> 0.57479554E+07</totfact>
</mgrwt>
</event>
<event>
 4    1  0.2761157E+004  0.2235989E+02  0.7546771E-02  0.1702101E+00
         21   -1    0    0  501  502  0.00000000000E+00  0.00000000000E+00  0.29842190614E+02  0.29842190614E+02  0.00000000000E+00 0.  1.
         21   -1    0    0  502  503 -0.00000000000E+00 -0.00000000000E+00 -0.17143989471E+02  0.17143989471E+02  0.00000000000E+00 0. -1.
          2    1    1    2  501    0  0.97274933560E+01  0.20133068649E+02  0.98941700762E+01  0.24451159108E+02  0.00000000000E+00 0.  1.
         -2    1    1    2    0  503 -0.97274933560E+01 -0.20133068649E+02  0.28040310659E+01  0.22535020977E+02  0.00000000000E+00 0. -1.
<mgrwt>
<rscale>  2 0.22359888E+02</rscale>
<asrwt>0</asrwt>
<pdfrwt beam="1">  1       21 0.45911062E-02 0.22359888E+02</pdfrwt>
<pdfrwt beam="2">  1       21 0.26375368E-02 0.22359888E+02</pdfrwt>
<totfact> 0.15893479E+08</totfact>
</mgrwt>
</event>
<event>
 4    1  0.2761157E+004  0.4127818E+02  0.7546771E-02  0.1499011E+00
         21   -1    0    0  501  502  0.00000000000E+00  0.00000000000E+00  0.53652735782E+02  0.53652735782E+02  0.00000000000E+00 0. -1.
         21   -1    0    0  502  503 -0.00000000000E+00 -0.00000000000E+00 -0.10800459762E+03  0.10800459762E+03  0.00000000000E+00 0.  1.
          2    1    1    2  501    0 -0.30286370366E+02  0.28046818351E+02  0.40737448479E+02  0.57995068395E+02  0.00000000000E+00 0. -1.
         -2    1    1    2    0  503  0.30286370366E+02 -0.28046818351E+02 -0.95089310317E+02  0.10366226501E+03  0.00000000000E+00 0.  1.
<mgrwt>
<rscale>  2 0.41278181E+02</rscale>
<asrwt>0</asrwt>
<pdfrwt beam="1">  1       21 0.82542672E-02 0.41278181E+02</pdfrwt>
<pdfrwt beam="2">  1       21 0.16616092E-01 0.41278181E+02</pdfrwt>
<totfact> 0.33873190E+06</totfact>
</mgrwt>
</event>
<event>
 4    1  0.2761157E+004  0.2244925E+02  0.7546771E-02  0.1700596E+00
         21   -1    0    0  501  502  0.00000000000E+00  0.00000000000E+00  0.11958449403E+03  0.11958449403E+03  0.00000000000E+00 0. -1.
         21   -1    0    0  502  503 -0.00000000000E+00 -0.00000000000E+00 -0.40240546754E+02  0.40240546754E+02  0.00000000000E+00 0.  1.
          2    1    1    2  501    0 -0.66358839355E+01 -0.21446074096E+02  0.11528422927E+03  0.11744965972E+03  0.00000000000E+00 0. -1.
         -2    1    1    2    0  503  0.66358839355E+01  0.21446074096E+02 -0.35940281999E+02  0.42375381059E+02  0.00000000000E+00 0.  1.
<mgrwt>
<rscale>  2 0.22449255E+02</rscale>
<asrwt>0</asrwt>
<pdfrwt beam="1">  1       21 0.18397614E-01 0.22449255E+02</pdfrwt>
<pdfrwt beam="2">  1       21 0.61908534E-02 0.22449255E+02</pdfrwt>
<totfact> 0.42100571E+06</totfact>
</mgrwt>
</event>
<event>
 4    1  0.2761157E+004  0.2555188E+02  0.7546771E-02  0.1653199E+00
         21   -1    0    0  503  502  0.00000000000E+00  0.00000000000E+00  0.12586556998E+02  0.12586556998E+02  0.00000000000E+00 0.  1.
         21   -1    0    0  501  503 -0.00000000000E+00 -0.00000000000E+00 -0.53331504362E+02  0.53331504362E+02  0.00000000000E+00 0. -1.
          2    1    1    2  501    0  0.23222805232E+02  0.10658325271E+02 -0.25823551696E+02  0.36328424169E+02  0.00000000000E+00 0. -1.
         -2    1    1    2    0  502 -0.23222805232E+02 -0.10658325271E+02 -0.14921395668E+02  0.29589637191E+02  0.00000000000E+00 0.  1.
<mgrwt>
<rscale>  2 0.25551880E+02</rscale>
<asrwt>0</asrwt>
<pdfrwt beam="1">  1       21 0.19363933E-02 0.25551880E+02</pdfrwt>
<pdfrwt beam="2">  1       21 0.82048470E-02 0.25551880E+02</pdfrwt>
<totfact> 0.10442653E+08</totfact>
</mgrwt>
</event>
<event>
 4    1  0.2761157E+004  0.2058620E+02  0.7546771E-02  0.1733916E+00
         21   -1    0    0  503  502  0.00000000000E+00  0.00000000000E+00  0.79704611304E+01  0.79704611304E+01  0.00000000000E+00 0.  1.
         21   -1    0    0  501  503 -0.00000000000E+00 -0.00000000000E+00 -0.85476296672E+02  0.85476296672E+02  0.00000000000E+00 0. -1.
          2    1    1    2  501    0 -0.48004526159E+01 -0.20018670459E+02 -0.67477466592E+02  0.70547856168E+02  0.00000000000E+00 0. -1.
         -2    1    1    2    0  502  0.48004526159E+01  0.20018670459E+02 -0.10028368949E+02  0.22898901634E+02  0.00000000000E+00 0.  1.
<mgrwt>
<rscale>  2 0.20586197E+02</rscale>
<asrwt>0</asrwt>
<pdfrwt beam="1">  1       21 0.12262248E-02 0.20586197E+02</pdfrwt>
<pdfrwt beam="2">  1       21 0.13150200E-01 0.20586197E+02</pdfrwt>
<totfact> 0.90082003E+07</totfact>
</mgrwt>
</event>
<event>
 4    1  0.2761157E+004  0.2099025E+02  0.7546771E-02  0.1726324E+00
         21   -1    0    0  501  502  0.00000000000E+00  0.00000000000E+00  0.17822809338E+01  0.17822809338E+01  0.00000000000E+00 0. -1.
         21   -1    0    0  502  503 -0.00000000000E+00 -0.00000000000E+00 -0.31207825235E+03  0.31207825235E+03  0.00000000000E+00 0.  1.
          2    1    1    2  501    0 -0.19278427344E+02  0.83025858072E+01 -0.83598887545E+02  0.86193762482E+02  0.00000000000E+00 0. -1.
         -2    1    1    2    0  503  0.19278427344E+02 -0.83025858072E+01 -0.22669708387E+03  0.22766677080E+03  0.00000000000E+00 0.  1.
<mgrwt>
<rscale>  2 0.20990252E+02</rscale>
<asrwt>0</asrwt>
<pdfrwt beam="1">  1       21 0.27419699E-03 0.20990252E+02</pdfrwt>
<pdfrwt beam="2">  1       21 0.48012053E-01 0.20990252E+02</pdfrwt>
<totfact> 0.81915594E+07</totfact>
</mgrwt>
</event>
<event>
 4    1  0.2761157E+004  0.4150925E+02  0.7546771E-02  0.1497390E+00
         21   -1    0    0  503  502  0.00000000000E+00  0.00000000000E+00  0.89791860540E+03  0.89791860540E+03  0.00000000000E+00 0.  1.
         21   -1    0    0  501  503 -0.00000000000E+00 -0.00000000000E+00 -0.26510352628E+01  0.26510352628E+01  0.00000000000E+00 0. -1.
          2    1    1    2  501    0  0.28399918972E+02 -0.30273129342E+02  0.21100114992E+03  0.21504535109E+03  0.00000000000E+00 0. -1.
         -2    1    1    2    0  502 -0.28399918972E+02  0.30273129342E+02  0.68426642021E+03  0.68552428957E+03  0.00000000000E+00 0.  1.
<mgrwt>
<rscale>  2 0.41509249E+02</rscale>
<asrwt>0</asrwt>
<pdfrwt beam="1">  1       21 0.13814108E+00 0.41509249E+02</pdfrwt>
<pdfrwt beam="2">  1       21 0.40785230E-03 0.41509249E+02</pdfrwt>
<totfact> 0.53433305E+06</totfact>
</mgrwt>
</event>
<event>
 4    1  0.2761157E+004  0.2084067E+02  0.7546771E-02  0.1729109E+00
         21   -1    0    0  501  502  0.00000000000E+00  0.00000000000E+00  0.35981531892E+00  0.35981531892E+00  0.00000000000E+00 0. -1.
         21   -1    0    0  502  503 -0.00000000000E+00 -0.00000000000E+00 -0.15420507822E+04  0.15420507822E+04  0.00000000000E+00 0.  1.
          2    1    1    2  501    0  0.75158176591E+01  0.19438264719E+02 -0.41141896017E+03  0.41194647035E+03  0.00000000000E+00 0. -1.
         -2    1    1    2    0  503 -0.75158176591E+01 -0.19438264719E+02 -0.11302720068E+04  0.11304641272E+04  0.00000000000E+00 0.  1.
<mgrwt>
<rscale>  2 0.20840673E+02</rscale>
<asrwt>0</asrwt>
<pdfrwt beam="1">  1       21 0.55355263E-04 0.20840673E+02</pdfrwt>
<pdfrwt beam="2">  1       21 0.23724261E+00 0.20840673E+02</pdfrwt>
<totfact> 0.22522899E+07</totfact>
</mgrwt>
</event>
<event>
 4    1  0.2761157E+004  0.2164220E+02  0.7546771E-02  0.1714514E+00
         21   -1    0    0  501  502  0.00000000000E+00  0.00000000000E+00  0.39409850557E+01  0.39409850557E+01  0.00000000000E+00 0. -1.
         21   -1    0    0  502  503 -0.00000000000E+00 -0.00000000000E+00 -0.12830160026E+03  0.12830160026E+03  0.00000000000E+00 0.  1.
          2    1    1    2  501    0 -0.20713610189E+02  0.62714515982E+01 -0.44233563259E+02  0.49244216623E+02  0.00000000000E+00 0. -1.
         -2    1    1    2    0  503  0.20713610189E+02 -0.62714515982E+01 -0.80127051946E+02  0.82998368693E+02  0.00000000000E+00 0.  1.
<mgrwt>
<rscale>  2 0.21642198E+02</rscale>
<asrwt>0</asrwt>
<pdfrwt beam="1">  1       21 0.60630547E-03 0.21642198E+02</pdfrwt>
<pdfrwt beam="2">  1       21 0.19738705E-01 0.21642198E+02</pdfrwt>
<totfact> 0.13063686E+08</totfact>
</mgrwt>
</event>
<event>
 4    1  0.2761157E+004  0.2026161E+02  0.7546771E-02  0.1740175E+00
         21   -1    0    0  501  502  0.00000000000E+00  0.00000000000E+00  0.46368015690E+01  0.46368015690E+01  0.00000000000E+00 0.  1.
         21   -1    0    0  502  503 -0.00000000000E+00 -0.00000000000E+00 -0.37668089880E+03  0.37668089880E+03  0.00000000000E+00 0. -1.
          2    1    1    2  501    0  0.18962958571E+02  0.71371711226E+01 -0.19268858195E+02  0.27961078404E+02  0.00000000000E+00 0.  1.
         -2    1    1    2    0  503 -0.18962958571E+02 -0.71371711226E+01 -0.35277523904E+03  0.35335662197E+03  0.00000000000E+00 0. -1.
<mgrwt>
<rscale>  2 0.20261614E+02</rscale>
<asrwt>0</asrwt>
<pdfrwt beam="1">  1       21 0.71335391E-03 0.20261614E+02</pdfrwt>
<pdfrwt beam="2">  1       21 0.57950922E-01 0.20261614E+02</pdfrwt>
<totfact> 0.13871081E+07</totfact>
</mgrwt>
</event>
<event>
 4    1  0.2761157E+004  0.2219728E+02  0.7546771E-02  0.1704862E+00
         21   -1    0    0  503  502  0.00000000000E+00  0.00000000000E+00  0.44657830380E+02  0.44657830380E+02  0.00000000000E+00 0.  1.
         21   -1    0    0  501  503 -0.00000000000E+00 -0.00000000000E+00 -0.13912591030E+02  0.13912591030E+02  0.00000000000E+00 0. -1.
          2    1    1    2  501    0 -0.14800225489E+02 -0.16543046584E+02  0.20498605344E+01  0.22291724765E+02  0.00000000000E+00 0. -1.
         -2    1    1    2    0  502  0.14800225489E+02  0.16543046584E+02  0.28695378816E+02  0.36278696645E+02  0.00000000000E+00 0.  1.
<mgrwt>
<rscale>  2 0.22197276E+02</rscale>
<asrwt>0</asrwt>
<pdfrwt beam="1">  1       21 0.68704354E-02 0.22197276E+02</pdfrwt>
<pdfrwt beam="2">  1       21 0.21403986E-02 0.22197276E+02</pdfrwt>
<totfact> 0.11485630E+08</totfact>
</mgrwt>
</event>
<event>
 4    1  0.2761157E+004  0.2256878E+02  0.7546771E-02  0.1698597E+00
         21   -1    0    0  501  502  0.00000000000E+00  0.00000000000E+00  0.42572113427E+01  0.42572113427E+01  0.00000000000E+00 0. -1.
         21   -1    0    0  502  503 -0.00000000000E+00 -0.00000000000E+00 -0.12628870901E+03  0.12628870901E+03  0.00000000000E+00 0.  1.
          2    1    1    2  501    0  0.26961251030E+01 -0.22407156974E+02 -0.46043426057E+02  0.51277157266E+02  0.00000000000E+00 0. -1.
         -2    1    1    2    0  503 -0.26961251030E+01  0.22407156974E+02 -0.75988071606E+02  0.79268763083E+02  0.00000000000E+00 0.  1.
<mgrwt>
<rscale>  2 0.22568779E+02</rscale>
<asrwt>0</asrwt>
<pdfrwt beam="1">  1       21 0.65495561E-03 0.22568779E+02</pdfrwt>
<pdfrwt beam="2">  1       21 0.19429032E-01 0.22568779E+02</pdfrwt>
<totfact> 0.12122302E+08</totfact>
</mgrwt>
</event>
<event>
 4    1  0.2761157E+004  0.2194719E+02  0.7546771E-02  0.1709167E+00
         21   -1    0    0  503  502  0.00000000000E+00  0.00000000000E+00  0.60522997413E+03  0.60522997413E+03  0.00000000000E+00 0.  1.
         21   -1    0    0  501  503 -0.00000000000E+00 -0.00000000000E+00 -0.14481616593E+01  0.14481616593E+01  0.00000000000E+00 0. -1.
          2    1    1    2  501    0 -0.13872571655E+02 -0.17006783634E+02  0.98306863960E+02  0.10072694990E+03  0.00000000000E+00 0. -1.
         -2    1    1    2    0  502  0.13872571655E+02  0.17006783634E+02  0.50547494851E+03  0.50595118589E+03  0.00000000000E+00 0.  1.
<mgrwt>
<rscale>  2 0.21947185E+02</rscale>
<asrwt>0</asrwt>
<pdfrwt beam="1">  1       21 0.93112102E-01 0.21947185E+02</pdfrwt>
<pdfrwt beam="2">  1       21 0.22279458E-03 0.21947185E+02</pdfrwt>
<totfact> 0.29115971E+07</totfact>
</mgrwt>
</event>
<event>
 4    1  0.2761157E+004  0.2650802E+02  0.7546771E-02  0.1640241E+00
         21   -1    0    0  503  502  0.00000000000E+00  0.00000000000E+00  0.41637519110E+02  0.41637519110E+02  0.00000000000E+00 0. -1.
         21   -1    0    0  501  503 -0.00000000000E+00 -0.00000000000E+00 -0.32614162774E+02  0.32614162774E+02  0.00000000000E+00 0.  1.
          2    1    1    2  501    0  0.19107248316E+02 -0.18373575223E+02 -0.21278245436E+02  0.33991748021E+02  0.00000000000E+00 0.  1.
         -2    1    1    2    0  502 -0.19107248316E+02  0.18373575223E+02  0.30301601772E+02  0.40259933863E+02  0.00000000000E+00 0. -1.
<mgrwt>
<rscale>  2 0.26508022E+02</rscale>
<asrwt>0</asrwt>
<pdfrwt beam="1">  1       21 0.64057722E-02 0.26508022E+02</pdfrwt>
<pdfrwt beam="2">  1       21 0.50175635E-02 0.26508022E+02</pdfrwt>
<totfact> 0.35458210E+07</totfact>
</mgrwt>
</event>
<event>
 4    1  0.2761157E+004  0.2575431E+02  0.7546771E-02  0.1650398E+00
         21   -1    0    0  503  502  0.00000000000E+00  0.00000000000E+00  0.83109128549E+01  0.83109128549E+01  0.00000000000E+00 0. -1.
         21   -1    0    0  501  503 -0.00000000000E+00 -0.00000000000E+00 -0.93493658610E+02  0.93493658610E+02  0.00000000000E+00 0.  1.
          2    1    1    2  501    0 -0.18072586923E+02  0.18348465208E+02 -0.62065824375E+02  0.67197106552E+02  0.00000000000E+00 0.  1.
         -2    1    1    2    0  502  0.18072586923E+02 -0.18348465208E+02 -0.23116921380E+02  0.34607464913E+02  0.00000000000E+00 0. -1.
<mgrwt>
<rscale>  2 0.25754312E+02</rscale>
<asrwt>0</asrwt>
<pdfrwt beam="1">  1       21 0.12786020E-02 0.25754312E+02</pdfrwt>
<pdfrwt beam="2">  1       21 0.14383640E-01 0.25754312E+02</pdfrwt>
<totfact> 0.77216767E+07</totfact>
</mgrwt>
</event>
<event>
 4    1  0.2761157E+004  0.2216093E+02  0.7546771E-02  0.1705483E+00
         21   -1    0    0  503  502  0.00000000000E+00  0.00000000000E+00  0.16392030047E+02  0.16392030047E+02  0.00000000000E+00 0. -1.
         21   -1    0    0  501  503 -0.00000000000E+00 -0.00000000000E+00 -0.54502834389E+02  0.54502834389E+02  0.00000000000E+00 0.  1.
          2    1    1    2  501    0 -0.17308250219E+02 -0.13839491077E+02 -0.42842234619E+02  0.48234470102E+02  0.00000000000E+00 0.  1.
         -2    1    1    2    0  502  0.17308250219E+02  0.13839491077E+02  0.47314302763E+01  0.22660394334E+02  0.00000000000E+00 0. -1.
<mgrwt>
<rscale>  2 0.22160935E+02</rscale>
<asrwt>0</asrwt>
<pdfrwt beam="1">  1       21 0.25218508E-02 0.22160935E+02</pdfrwt>
<pdfrwt beam="2">  1       21 0.83850514E-02 0.22160935E+02</pdfrwt>
<totfact> 0.64520478E+07</totfact>
</mgrwt>
</event>
<event>
 4    1  0.2761157E+004  0.2426243E+02  0.7546771E-02  0.1671827E+00
         21   -1    0    0  503  502  0.00000000000E+00  0.00000000000E+00  0.26289828620E+03  0.26289828620E+03  0.00000000000E+00 0. -1.
         21   -1    0    0  501  503 -0.00000000000E+00 -0.00000000000E+00 -0.41458856110E+01  0.41458856110E+01  0.00000000000E+00 0.  1.
          2    1    1    2  501    0  0.71746190330E+01 -0.23177371553E+02  0.38825673020E+02  0.45783169351E+02  0.00000000000E+00 0.  1.
         -2    1    1    2    0  502 -0.71746190330E+01  0.23177371553E+02  0.21992672757E+03  0.22126100246E+03  0.00000000000E+00 0. -1.
<mgrwt>
<rscale>  2 0.24262434E+02</rscale>
<asrwt>0</asrwt>
<pdfrwt beam="1">  1       21 0.40445877E-01 0.24262434E+02</pdfrwt>
<pdfrwt beam="2">  1       21 0.63782876E-03 0.24262434E+02</pdfrwt>
<totfact> 0.34085921E+07</totfact>
</mgrwt>
</event>
<event>
 4    1  0.2761157E+004  0.2249298E+02  0.7546771E-02  0.1699863E+00
         21   -1    0    0  501  502  0.00000000000E+00  0.00000000000E+00  0.10384122410E+04  0.10384122410E+04  0.00000000000E+00 0. -1.
         21   -1    0    0  502  503 -0.00000000000E+00 -0.00000000000E+00 -0.52031447219E+00  0.52031447219E+00  0.00000000000E+00 0.  1.
          2    1    1    2  501    0 -0.21306086893E+02 -0.72100346183E+01  0.64995769500E+03  0.65034678382E+03  0.00000000000E+00 0. -1.
         -2    1    1    2    0  503  0.21306086893E+02  0.72100346183E+01  0.38793423154E+03  0.38858577166E+03  0.00000000000E+00 0.  1.
<mgrwt>
<rscale>  2 0.22492975E+02</rscale>
<asrwt>0</asrwt>
<pdfrwt beam="1">  1       21 0.15975407E+00 0.22492975E+02</pdfrwt>
<pdfrwt beam="2">  1       21 0.80049211E-04 0.22492975E+02</pdfrwt>
<totfact> 0.37133213E+07</totfact>
</mgrwt>
</event>
<event>
 4    1  0.2761157E+004  0.2325233E+02  0.7546771E-02  0.1687452E+00
         21   -1    0    0  501  502  0.00000000000E+00  0.00000000000E+00  0.27624913628E+02  0.27624913628E+02  0.00000000000E+00 0.  1.
         21   -1    0    0  502  503 -0.00000000000E+00 -0.00000000000E+00 -0.31445474292E+02  0.31445474292E+02  0.00000000000E+00 0. -1.
          2    1    1    2  501    0 -0.77861101244E+01  0.21909982927E+02  0.16238701818E+02  0.28361352214E+02  0.00000000000E+00 0.  1.
         -2    1    1    2    0  503  0.77861101244E+01 -0.21909982927E+02 -0.20059262481E+02  0.30709035706E+02  0.00000000000E+00 0. -1.
<mgrwt>
<rscale>  2 0.23252330E+02</rscale>
<asrwt>0</asrwt>
<pdfrwt beam="1">  1       21 0.42499867E-02 0.23252330E+02</pdfrwt>
<pdfrwt beam="2">  1       21 0.48377652E-02 0.23252330E+02</pdfrwt>
<totfact> 0.70162434E+07</totfact>
</mgrwt>
</event>
<event>
 4    1  0.2761157E+004  0.2001053E+02  0.7546771E-02  0.1745119E+00
         21   -1    0    0  503  502  0.00000000000E+00  0.00000000000E+00  0.33486209389E+02  0.33486209389E+02  0.00000000000E+00 0.  1.
         21   -1    0    0  501  503 -0.00000000000E+00 -0.00000000000E+00 -0.21363549623E+02  0.21363549623E+02  0.00000000000E+00 0. -1.
          2    1    1    2  501    0  0.16309741616E+02 -0.11593681260E+02 -0.12135884842E+02  0.23403008730E+02  0.00000000000E+00 0. -1.
         -2    1    1    2    0  502 -0.16309741616E+02  0.11593681260E+02  0.24258544608E+02  0.31446750281E+02  0.00000000000E+00 0.  1.
<mgrwt>
<rscale>  2 0.20010525E+02</rscale>
<asrwt>0</asrwt>
<pdfrwt beam="1">  1       21 0.51517246E-02 0.20010525E+02</pdfrwt>
<pdfrwt beam="2">  1       21 0.32866999E-02 0.20010525E+02</pdfrwt>
<totfact> 0.91017558E+07</totfact>
</mgrwt>
</event>
<event>
 4    1  0.2761157E+004  0.3662812E+02  0.7546771E-02  0.1534600E+00
         21   -1    0    0  503  502  0.00000000000E+00  0.00000000000E+00  0.33645149699E+03  0.33645149699E+03  0.00000000000E+00 0.  1.
         21   -1    0    0  501  503 -0.00000000000E+00 -0.00000000000E+00 -0.44046495398E+01  0.44046495398E+01  0.00000000000E+00 0. -1.
          2    1    1    2  501    0 -0.12293176057E+02 -0.34503576394E+02  0.11357861173E+03  0.11933867773E+03  0.00000000000E+00 0.  1.
         -2    1    1    2    0  502  0.12293176057E+02  0.34503576394E+02  0.21846823572E+03  0.22151746879E+03  0.00000000000E+00 0. -1.
<mgrwt>
<rscale>  2 0.36628117E+02</rscale>
<asrwt>0</asrwt>
<pdfrwt beam="1">  1       21 0.51761748E-01 0.36628117E+02</pdfrwt>
<pdfrwt beam="2">  1       21 0.67763866E-03 0.36628117E+02</pdfrwt>
<totfact> 0.20813373E+07</totfact>
</mgrwt>
</event>
<event>
 4    1  0.2761157E+004  0.2166055E+02  0.7546771E-02  0.1714190E+00
         21   -1    0    0  503  502  0.00000000000E+00  0.00000000000E+00  0.22407801129E+01  0.22407801129E+01  0.00000000000E+00 0. -1.
         21   -1    0    0  501  503 -0.00000000000E+00 -0.00000000000E+00 -0.26378197885E+03  0.26378197885E+03  0.00000000000E+00 0.  1.
          2    1    1    2  501    0  0.17608930503E+02  0.12613677315E+02 -0.19117451968E+03  0.19239770337E+03  0.00000000000E+00 0.  1.
         -2    1    1    2    0  502 -0.17608930503E+02 -0.12613677315E+02 -0.70366679055E+02  0.73625055587E+02  0.00000000000E+00 0. -1.
<mgrwt>
<rscale>  2 0.21660547E+02</rscale>
<asrwt>0</asrwt>
<pdfrwt beam="1">  1       21 0.34473561E-03 0.21660547E+02</pdfrwt>
<pdfrwt beam="2">  1       21 0.40581819E-01 0.21660547E+02</pdfrwt>
<totfact> 0.81536695E+07</totfact>
</mgrwt>
</event>
<event>
 4    1  0.2761157E+004  0.3125445E+02  0.7546771E-02  0.1584622E+00
         21   -1    0    0  501  502  0.00000000000E+00  0.00000000000E+00  0.86170305806E+02  0.86170305806E+02  0.00000000000E+00 0.  1.
         21   -1    0    0  502  503 -0.00000000000E+00 -0.00000000000E+00 -0.56148642124E+02  0.56148642124E+02  0.00000000000E+00 0. -1.
          2    1    1    2  501    0  0.16419145672E+02 -0.26594209825E+02  0.78582352746E+02  0.84569654746E+02  0.00000000000E+00 0.  1.
         -2    1    1    2    0  503 -0.16419145672E+02  0.26594209825E+02 -0.48560689064E+02  0.57749293183E+02  0.00000000000E+00 0. -1.
<mgrwt>
<rscale>  2 0.31254445E+02</rscale>
<asrwt>0</asrwt>
<pdfrwt beam="1">  1       21 0.13256970E-01 0.31254445E+02</pdfrwt>
<pdfrwt beam="2">  1       21 0.86382526E-02 0.31254445E+02</pdfrwt>
<totfact> 0.45001210E+06</totfact>
</mgrwt>
</event>
<event>
 4    1  0.2761157E+004  0.2249409E+02  0.7546771E-02  0.1699844E+00
         21   -1    0    0  501  502  0.00000000000E+00  0.00000000000E+00  0.96070043841E+02  0.96070043841E+02  0.00000000000E+00 0. -1.
         21   -1    0    0  502  503 -0.00000000000E+00 -0.00000000000E+00 -0.53928349403E+01  0.53928349403E+01  0.00000000000E+00 0.  1.
          2    1    1    2  501    0 -0.21830350363E+02  0.54240071519E+01  0.53093430585E+02  0.57661914830E+02  0.00000000000E+00 0. -1.
         -2    1    1    2    0  503  0.21830350363E+02 -0.54240071519E+01  0.37583778316E+02  0.43800963951E+02  0.00000000000E+00 0.  1.
<mgrwt>
<rscale>  2 0.22494089E+02</rscale>
<asrwt>0</asrwt>
<pdfrwt beam="1">  1       21 0.14780006E-01 0.22494089E+02</pdfrwt>
<pdfrwt beam="2">  1       21 0.82966698E-03 0.22494089E+02</pdfrwt>
<totfact> 0.13626801E+08</totfact>
</mgrwt>
</event>
<event>
 4    1  0.2761157E+004  0.2472845E+02  0.7546771E-02  0.1664933E+00
         21   -1    0    0  503  502  0.00000000000E+00  0.00000000000E+00  0.49229925857E+02  0.49229925857E+02  0.00000000000E+00 0. -1.
         21   -1    0    0  501  503 -0.00000000000E+00 -0.00000000000E+00 -0.21999464587E+02  0.21999464587E+02  0.00000000000E+00 0.  1.
          2    1    1    2  501    0 -0.70696727300E+01  0.23696331371E+02 -0.98846597809E+01  0.26630863523E+02  0.00000000000E+00 0.  1.
         -2    1    1    2    0  502  0.70696727300E+01 -0.23696331371E+02  0.37115121051E+02  0.44598526922E+02  0.00000000000E+00 0. -1.
<mgrwt>
<rscale>  2 0.24728453E+02</rscale>
<asrwt>0</asrwt>
<pdfrwt beam="1">  1       21 0.75738347E-02 0.24728453E+02</pdfrwt>
<pdfrwt beam="2">  1       21 0.33845330E-02 0.24728453E+02</pdfrwt>
<totfact> 0.49590848E+07</totfact>
</mgrwt>
</event>
<event>
 4    1  0.2761157E+004  0.2372255E+02  0.7546771E-02  0.1680059E+00
         21   -1    0    0  503  502  0.00000000000E+00  0.00000000000E+00  0.30996482086E+03  0.30996482086E+03  0.00000000000E+00 0. -1.
         21   -1    0    0  501  503 -0.00000000000E+00 -0.00000000000E+00 -0.28256608387E+01  0.28256608387E+01  0.00000000000E+00 0.  1.
          2    1    1    2  501    0 -0.22952226506E+02  0.59962072178E+01  0.60062122488E+02  0.64577223232E+02  0.00000000000E+00 0.  1.
         -2    1    1    2    0  502  0.22952226506E+02 -0.59962072178E+01  0.24707703754E+03  0.24821325847E+03  0.00000000000E+00 0. -1.
<mgrwt>
<rscale>  2 0.23722546E+02</rscale>
<asrwt>0</asrwt>
<pdfrwt beam="1">  1       21 0.47686869E-01 0.23722546E+02</pdfrwt>
<pdfrwt beam="2">  1       21 0.43471730E-03 0.23722546E+02</pdfrwt>
<totfact> 0.43634558E+07</totfact>
</mgrwt>
</event>
<event>
 4    1  0.2761157E+004  0.2198666E+02  0.7546771E-02  0.1708483E+00
         21   -1    0    0  503  502  0.00000000000E+00  0.00000000000E+00  0.36653169751E+02  0.36653169751E+02  0.00000000000E+00 0. -1.
         21   -1    0    0  501  503 -0.00000000000E+00 -0.00000000000E+00 -0.14175274411E+02  0.14175274411E+02  0.00000000000E+00 0.  1.
          2    1    1    2  501    0 -0.15904324201E+02 -0.15181092421E+02  0.45348032035E+01  0.22449443990E+02  0.00000000000E+00 0. -1.
         -2    1    1    2    0  502  0.15904324201E+02  0.15181092421E+02  0.17943092136E+02  0.28379000173E+02  0.00000000000E+00 0.  1.
<mgrwt>
<rscale>  2 0.21986657E+02</rscale>
<asrwt>0</asrwt>
<pdfrwt beam="1">  1       21 0.56389492E-02 0.21986657E+02</pdfrwt>
<pdfrwt beam="2">  1       21 0.21808115E-02 0.21986657E+02</pdfrwt>
<totfact> 0.15285153E+08</totfact>
</mgrwt>
</event>
<event>
 4    1  0.2761157E+004  0.2064788E+02  0.7546771E-02  0.1732743E+00
         21   -1    0    0  501  502  0.00000000000E+00  0.00000000000E+00  0.76834384106E+02  0.76834384106E+02  0.00000000000E+00 0.  1.
         21   -1    0    0  502  503 -0.00000000000E+00 -0.00000000000E+00 -0.15616748309E+02  0.15616748309E+02  0.00000000000E+00 0. -1.
          2    1    1    2  501    0 -0.50954448739E+01  0.20009283982E+02  0.67724584970E+02  0.70802220398E+02  0.00000000000E+00 0.  1.
         -2    1    1    2    0  503  0.50954448739E+01 -0.20009283982E+02 -0.65069491739E+01  0.21648912017E+02  0.00000000000E+00 0. -1.
<mgrwt>
<rscale>  2 0.20647881E+02</rscale>
<asrwt>0</asrwt>
<pdfrwt beam="1">  1       21 0.11820674E-01 0.20647881E+02</pdfrwt>
<pdfrwt beam="2">  1       21 0.24025767E-02 0.20647881E+02</pdfrwt>
<totfact> 0.38739887E+07</totfact>
</mgrwt>
</event>
<event>
 4    1  0.2761157E+004  0.2232902E+02  0.7546771E-02  0.1702623E+00
         21   -1    0    0  503  502  0.00000000000E+00  0.00000000000E+00  0.38120977930E+03  0.38120977930E+03  0.00000000000E+00 0. -1.
         21   -1    0    0  501  503 -0.00000000000E+00 -0.00000000000E+00 -0.35363910272E+01  0.35363910272E+01  0.00000000000E+00 0.  1.
          2    1    1    2  501    0 -0.18425168778E+02  0.12613421323E+02  0.36126029773E+02  0.42469698247E+02  0.00000000000E+00 0.  1.
         -2    1    1    2    0  502  0.18425168778E+02 -0.12613421323E+02  0.34154735850E+03  0.34227647209E+03  0.00000000000E+00 0. -1.
<mgrwt>
<rscale>  2 0.22329022E+02</rscale>
<asrwt>0</asrwt>
<pdfrwt beam="1">  1       21 0.58647626E-01 0.22329022E+02</pdfrwt>
<pdfrwt beam="2">  1       21 0.54406046E-03 0.22329022E+02</pdfrwt>
<totfact> 0.20623107E+07</totfact>
</mgrwt>
</event>
<event>
 4    1  0.2761157E+004  0.2595863E+02  0.7546771E-02  0.1647603E+00
         21   -1    0    0  501  502  0.00000000000E+00  0.00000000000E+00  0.77075899105E+01  0.77075899105E+01  0.00000000000E+00 0.  1.
         21   -1    0    0  502  503 -0.00000000000E+00 -0.00000000000E+00 -0.89860890982E+02  0.89860890982E+02  0.00000000000E+00 0. -1.
          2    1    1    2  501    0  0.23318229166E+02  0.11406614820E+02 -0.33047790396E+02  0.42023887530E+02  0.00000000000E+00 0. -1.
         -2    1    1    2    0  503 -0.23318229166E+02 -0.11406614820E+02 -0.49105510676E+02  0.55544593363E+02  0.00000000000E+00 0.  1.
<mgrwt>
<rscale>  2 0.25958634E+02</rscale>
<asrwt>0</asrwt>
<pdfrwt beam="1">  1       21 0.11857831E-02 0.25958634E+02</pdfrwt>
<pdfrwt beam="2">  1       21 0.13824752E-01 0.25958634E+02</pdfrwt>
<totfact> 0.92799221E+07</totfact>
</mgrwt>
</event>
<event>
 4    1  0.2761157E+004  0.2524803E+02  0.7546771E-02  0.1657465E+00
         21   -1    0    0  501  502  0.00000000000E+00  0.00000000000E+00  0.17339457797E+02  0.17339457797E+02  0.00000000000E+00 0. -1.
         21   -1    0    0  502  503 -0.00000000000E+00 -0.00000000000E+00 -0.38876140382E+02  0.38876140382E+02  0.00000000000E+00 0.  1.
          2    1    1    2  501    0  0.16803024388E+02  0.18844670938E+02 -0.42163428651E+01  0.25597671740E+02  0.00000000000E+00 0. -1.
         -2    1    1    2    0  503 -0.16803024388E+02 -0.18844670938E+02 -0.17320339720E+02  0.30617926438E+02  0.00000000000E+00 0.  1.
<mgrwt>
<rscale>  2 0.25248035E+02</rscale>
<asrwt>0</asrwt>
<pdfrwt beam="1">  1       21 0.26676089E-02 0.25248035E+02</pdfrwt>
<pdfrwt beam="2">  1       21 0.59809447E-02 0.25248035E+02</pdfrwt>
<totfact> 0.10604251E+08</totfact>
</mgrwt>
</event>
<event>
 4    1  0.2761157E+004  0.2351086E+02  0.7546771E-02  0.1683361E+00
         21   -1    0    0  503  502  0.00000000000E+00  0.00000000000E+00  0.26815417793E+01  0.26815417793E+01  0.00000000000E+00 0. -1.
         21   -1    0    0  501  503 -0.00000000000E+00 -0.00000000000E+00 -0.25447163586E+03  0.25447163586E+03  0.00000000000E+00 0.  1.
          2    1    1    2  501    0  0.18404782322E+02  0.14629574179E+02 -0.18193258098E+03  0.18344542642E+03  0.00000000000E+00 0.  1.
         -2    1    1    2    0  502 -0.18404782322E+02 -0.14629574179E+02 -0.69857513101E+02  0.73707751218E+02  0.00000000000E+00 0. -1.
<mgrwt>
<rscale>  2 0.23510858E+02</rscale>
<asrwt>0</asrwt>
<pdfrwt beam="1">  1       21 0.41254500E-03 0.23510858E+02</pdfrwt>
<pdfrwt beam="2">  1       21 0.39149472E-01 0.23510858E+02</pdfrwt>
<totfact> 0.68495366E+07</totfact>
</mgrwt>
</event>
<event>
 4    1  0.2761157E+004  0.2119382E+02  0.7546771E-02  0.1722579E+00
         21   -1    0    0  501  502  0.00000000000E+00  0.00000000000E+00  0.46357625524E+00  0.46357625524E+00  0.00000000000E+00 0. -1.
         21   -1    0    0  502  503 -0.00000000000E+00 -0.00000000000E+00 -0.12828645785E+04  0.12828645785E+04  0.00000000000E+00 0.  1.
          2    1    1    2  501    0  0.19049822118E+02  0.92888201875E+01 -0.32378400557E+03  0.32447690236E+03  0.00000000000E+00 0. -1.
         -2    1    1    2    0  503 -0.19049822118E+02 -0.92888201875E+01 -0.95861699669E+03  0.95885125241E+03  0.00000000000E+00 0.  1.
<mgrwt>
<rscale>  2 0.21193818E+02</rscale>
<asrwt>0</asrwt>
<pdfrwt beam="1">  1       21 0.71318720E-04 0.21193818E+02</pdfrwt>
<pdfrwt beam="2">  1       21 0.19736573E+00 0.21193818E+02</pdfrwt>
<totfact> 0.25659661E+07</totfact>
</mgrwt>
</event>
<event>
 4    1  0.2761157E+004  0.3145363E+02  0.7546771E-02  0.1582555E+00
         21   -1    0    0  501  502  0.00000000000E+00  0.00000000000E+00  0.17495751547E+02  0.17495751547E+02  0.00000000000E+00 0.  1.
         21   -1    0    0  502  503 -0.00000000000E+00 -0.00000000000E+00 -0.62169047943E+02  0.62169047943E+02  0.00000000000E+00 0. -1.
          2    1    1    2  501    0 -0.31438352254E+02 -0.98037847216E+00 -0.10358239504E+02  0.33115317604E+02  0.00000000000E+00 0. -1.
         -2    1    1    2    0  503  0.31438352254E+02  0.98037847216E+00 -0.34315056892E+02  0.46549481886E+02  0.00000000000E+00 0.  1.
<mgrwt>
<rscale>  2 0.31453635E+02</rscale>
<asrwt>0</asrwt>
<pdfrwt beam="1">  1       21 0.26916541E-02 0.31453635E+02</pdfrwt>
<pdfrwt beam="2">  1       21 0.95644690E-02 0.31453635E+02</pdfrwt>
<totfact> 0.51081894E+07</totfact>
</mgrwt>
</event>
<event>
 4    1  0.2761157E+004  0.2025451E+02  0.7546771E-02  0.1740314E+00
         21   -1    0    0  501  502  0.00000000000E+00  0.00000000000E+00  0.74076571844E+01  0.74076571844E+01  0.00000000000E+00 0.  1.
         21   -1    0    0  502  503 -0.00000000000E+00 -0.00000000000E+00 -0.55391125932E+02  0.55391125932E+02  0.00000000000E+00 0. -1.
          2    1    1    2  501    0 -0.93756424280E+01 -0.17953901293E+02 -0.23572261974E+02  0.31078879921E+02  0.00000000000E+00 0. -1.
         -2    1    1    2    0  503  0.93756424280E+01  0.17953901293E+02 -0.24411206774E+02  0.31719903195E+02  0.00000000000E+00 0.  1.
<mgrwt>
<rscale>  2 0.20254512E+02</rscale>
<asrwt>0</asrwt>
<pdfrwt beam="1">  1       21 0.11396396E-02 0.20254512E+02</pdfrwt>
<pdfrwt beam="2">  1       21 0.85217116E-02 0.20254512E+02</pdfrwt>
<totfact> 0.20492400E+08</totfact>
</mgrwt>
</event>
<event>
 4    1  0.2761157E+004  0.2134724E+02  0.7546771E-02  0.1719792E+00
         21   -1    0    0  501  502  0.00000000000E+00  0.00000000000E+00  0.20404324089E+01  0.20404324089E+01  0.00000000000E+00 0.  1.
         21   -1    0    0  502  503 -0.00000000000E+00 -0.00000000000E+00 -0.26005194442E+03  0.26005194442E+03  0.00000000000E+00 0. -1.
          2    1    1    2  501    0 -0.44335367102E+01  0.20881776966E+02 -0.79766277153E+02  0.82573384500E+02  0.00000000000E+00 0.  1.
         -2    1    1    2    0  503  0.44335367102E+01 -0.20881776966E+02 -0.17824523486E+03  0.17951899233E+03  0.00000000000E+00 0. -1.
<mgrwt>
<rscale>  2 0.21347245E+02</rscale>
<asrwt>0</asrwt>
<pdfrwt beam="1">  1       21 0.31391267E-03 0.21347245E+02</pdfrwt>
<pdfrwt beam="2">  1       21 0.40007992E-01 0.21347245E+02</pdfrwt>
<totfact> 0.95624408E+07</totfact>
</mgrwt>
</event>
<event>
 4    1  0.2761157E+004  0.2145662E+02  0.7546771E-02  0.1717822E+00
         21   -1    0    0  503  502  0.00000000000E+00  0.00000000000E+00  0.95336252597E+01  0.95336252597E+01  0.00000000000E+00 0.  1.
         21   -1    0    0  501  503 -0.00000000000E+00 -0.00000000000E+00 -0.83209739045E+02  0.83209739045E+02  0.00000000000E+00 0. -1.
          2    1    1    2  501    0  0.59493083012E+01  0.20615342850E+02 -0.66877794453E+02  0.70235503992E+02  0.00000000000E+00 0. -1.
         -2    1    1    2    0  502 -0.59493083012E+01 -0.20615342850E+02 -0.67983193317E+01  0.22507860312E+02  0.00000000000E+00 0.  1.
<mgrwt>
<rscale>  2 0.21456622E+02</rscale>
<asrwt>0</asrwt>
<pdfrwt beam="1">  1       21 0.14667116E-02 0.21456622E+02</pdfrwt>
<pdfrwt beam="2">  1       21 0.12801498E-01 0.21456622E+02</pdfrwt>
<totfact> 0.72749266E+07</totfact>
</mgrwt>
</event>
<event>
 4    1  0.2761157E+004  0.2018360E+02  0.7546771E-02  0.1741701E+00
         21   -1    0    0  503  502  0.00000000000E+00  0.00000000000E+00  0.34386463632E+01  0.34386463632E+01  0.00000000000E+00 0.  1.
         21   -1    0    0  501  503 -0.00000000000E+00 -0.00000000000E+00 -0.16100116692E+03  0.16100116692E+03  0.00000000000E+00 0. -1.
          2    1    1    2  501    0 -0.17042397624E+02  0.10813629849E+02 -0.12103974595E+03  0.12271103458E+03  0.00000000000E+00 0. -1.
         -2    1    1    2    0  502  0.17042397624E+02 -0.10813629849E+02 -0.36522774601E+02  0.41728778700E+02  0.00000000000E+00 0.  1.
<mgrwt>
<rscale>  2 0.20183605E+02</rscale>
<asrwt>0</asrwt>
<pdfrwt beam="1">  1       21 0.52902241E-03 0.20183605E+02</pdfrwt>
<pdfrwt beam="2">  1       21 0.24769415E-01 0.20183605E+02</pdfrwt>
<totfact> 0.10512208E+08</totfact>
</mgrwt>
</event>
<event>
 4    1  0.2761157E+004  0.2259326E+02  0.7546771E-02  0.1698189E+00
         21   -1    0    0  503  502  0.00000000000E+00  0.00000000000E+00  0.25420767845E+02  0.25420767845E+02  0.00000000000E+00 0.  1.
         21   -1    0    0  501  503 -0.00000000000E+00 -0.00000000000E+00 -0.54994760806E+02  0.54994760806E+02  0.00000000000E+00 0. -1.
          2    1    1    2  501    0 -0.16547292912E+02 -0.15383192572E+02 -0.46824023883E+02  0.51989852173E+02  0.00000000000E+00 0. -1.
         -2    1    1    2    0  502  0.16547292912E+02  0.15383192572E+02  0.17250030922E+02  0.28425676478E+02  0.00000000000E+00 0.  1.
<mgrwt>
<rscale>  2 0.22593263E+02</rscale>
<asrwt>0</asrwt>
<pdfrwt beam="1">  1       21 0.39108874E-02 0.22593263E+02</pdfrwt>
<pdfrwt beam="2">  1       21 0.84607324E-02 0.22593263E+02</pdfrwt>
<totfact> 0.32246737E+07</totfact>
</mgrwt>
</event>
<event>
 4    1  0.2761157E+004  0.5277450E+02  0.7546771E-02  0.1430926E+00
         21   -1    0    0  501  502  0.00000000000E+00  0.00000000000E+00  0.85599638010E+02  0.85599638010E+02  0.00000000000E+00 0. -1.
         21   -1    0    0  502  503 -0.00000000000E+00 -0.00000000000E+00 -0.52049033940E+02  0.52049033940E+02  0.00000000000E+00 0.  1.
          2    1    1    2  501    0  0.50287186969E+02  0.16010813875E+02  0.58914669879E+02  0.79095421240E+02  0.00000000000E+00 0. -1.
         -2    1    1    2    0  503 -0.50287186969E+02 -0.16010813875E+02 -0.25364065810E+02  0.58553250709E+02  0.00000000000E+00 0.  1.
<mgrwt>
<rscale>  2 0.52774495E+02</rscale>
<asrwt>0</asrwt>
<pdfrwt beam="1">  1       21 0.13169175E-01 0.52774495E+02</pdfrwt>
<pdfrwt beam="2">  1       21 0.80075437E-02 0.52774495E+02</pdfrwt>
<totfact> 0.54789776E+06</totfact>
</mgrwt>
</event>
<event>
 4    1  0.2761157E+004  0.2532978E+02  0.7546771E-02  0.1656310E+00
         21   -1    0    0  503  502  0.00000000000E+00  0.00000000000E+00  0.21982846043E+03  0.21982846043E+03  0.00000000000E+00 0. -1.
         21   -1    0    0  501  503 -0.00000000000E+00 -0.00000000000E+00 -0.38130026774E+01  0.38130026774E+01  0.00000000000E+00 0.  1.
          2    1    1    2  501    0  0.16264781378E+02 -0.19417895729E+02  0.53851526410E+02  0.59511214779E+02  0.00000000000E+00 0.  1.
         -2    1    1    2    0  502 -0.16264781378E+02  0.19417895729E+02  0.16216393134E+03  0.16413024833E+03  0.00000000000E+00 0. -1.
<mgrwt>
<rscale>  2 0.25329781E+02</rscale>
<asrwt>0</asrwt>
<pdfrwt beam="1">  1       21 0.33819753E-01 0.25329781E+02</pdfrwt>
<pdfrwt beam="2">  1       21 0.58661597E-03 0.25329781E+02</pdfrwt>
<totfact> 0.54468482E+07</totfact>
</mgrwt>
</event>
<event>
 4    1  0.2761157E+004  0.2305151E+02  0.7546771E-02  0.1690677E+00
         21   -1    0    0  503  502  0.00000000000E+00  0.00000000000E+00  0.49428241078E+02  0.49428241078E+02  0.00000000000E+00 0. -1.
         21   -1    0    0  501  503 -0.00000000000E+00 -0.00000000000E+00 -0.10988797483E+02  0.10988797483E+02  0.00000000000E+00 0.  1.
          2    1    1    2  501    0  0.16407636619E+02  0.16191403177E+02  0.23669402971E+02  0.33039562849E+02  0.00000000000E+00 0.  1.
         -2    1    1    2    0  502 -0.16407636619E+02 -0.16191403177E+02  0.14770040625E+02  0.27377475712E+02  0.00000000000E+00 0. -1.
<mgrwt>
<rscale>  2 0.23051509E+02</rscale>
<asrwt>0</asrwt>
<pdfrwt beam="1">  1       21 0.76043447E-02 0.23051509E+02</pdfrwt>
<pdfrwt beam="2">  1       21 0.16905843E-02 0.23051509E+02</pdfrwt>
<totfact> 0.14138867E+08</totfact>
</mgrwt>
</event>
<event>
 4    1  0.2761157E+004  0.2004976E+02  0.7546771E-02  0.1744340E+00
         21   -1    0    0  503  502  0.00000000000E+00  0.00000000000E+00  0.11288019148E+03  0.11288019148E+03  0.00000000000E+00 0.  1.
         21   -1    0    0  501  503 -0.00000000000E+00 -0.00000000000E+00 -0.12520958739E+02  0.12520958739E+02  0.00000000000E+00 0. -1.
          2    1    1    2  501    0  0.13063199520E+02  0.15210058654E+02 -0.28599547359E+01  0.20252713572E+02  0.00000000000E+00 0. -1.
         -2    1    1    2    0  502 -0.13063199520E+02 -0.15210058654E+02  0.10321918748E+03  0.10514843665E+03  0.00000000000E+00 0.  1.
<mgrwt>
<rscale>  2 0.20049765E+02</rscale>
<asrwt>0</asrwt>
<pdfrwt beam="1">  1       21 0.17366183E-01 0.20049765E+02</pdfrwt>
<pdfrwt beam="2">  1       21 0.19263014E-02 0.20049765E+02</pdfrwt>
<totfact> 0.28174221E+07</totfact>
</mgrwt>
</event>
<event>
 4    1  0.2761157E+004  0.2748414E+02  0.7546771E-02  0.1627688E+00
         21   -1    0    0  501  502  0.00000000000E+00  0.00000000000E+00  0.71239666187E+02  0.71239666187E+02  0.00000000000E+00 0.  1.
         21   -1    0    0  502  503 -0.00000000000E+00 -0.00000000000E+00 -0.11209725423E+02  0.11209725423E+02  0.00000000000E+00 0. -1.
          2    1    1    2  501    0 -0.98702944495E+01  0.25650633288E+02  0.39603187831E+02  0.48205706996E+02  0.00000000000E+00 0.  1.
         -2    1    1    2    0  503  0.98702944495E+01 -0.25650633288E+02  0.20426752933E+02  0.34243684614E+02  0.00000000000E+00 0. -1.
<mgrwt>
<rscale>  2 0.27484135E+02</rscale>
<asrwt>0</asrwt>
<pdfrwt beam="1">  1       21 0.10959948E-01 0.27484135E+02</pdfrwt>
<pdfrwt beam="2">  1       21 0.17245732E-02 0.27484135E+02</pdfrwt>
<totfact> 0.78668372E+07</totfact>
</mgrwt>
</event>
<event>
 4    1  0.2761157E+004  0.2133804E+02  0.7546771E-02  0.1719958E+00
         21   -1    0    0  503  502  0.00000000000E+00  0.00000000000E+00  0.19515563660E+02  0.19515563660E+02  0.00000000000E+00 0. -1.
         21   -1    0    0  501  503 -0.00000000000E+00 -0.00000000000E+00 -0.36729665744E+02  0.36729665744E+02  0.00000000000E+00 0.  1.
          2    1    1    2  501    0  0.13141862809E+02 -0.16810814224E+02 -0.25592718658E+02  0.33321153661E+02  0.00000000000E+00 0.  1.
         -2    1    1    2    0  502 -0.13141862809E+02  0.16810814224E+02  0.83786165739E+01  0.22924075743E+02  0.00000000000E+00 0. -1.
<mgrwt>
<rscale>  2 0.21338042E+02</rscale>
<asrwt>0</asrwt>
<pdfrwt beam="1">  1       21 0.30023944E-02 0.21338042E+02</pdfrwt>
<pdfrwt beam="2">  1       21 0.56507177E-02 0.21338042E+02</pdfrwt>
<totfact> 0.92153630E+07</totfact>
</mgrwt>
</event>
<event>
 4    1  0.2761157E+004  0.2121402E+02  0.7546771E-02  0.1722211E+00
         21   -1    0    0  503  502  0.00000000000E+00  0.00000000000E+00  0.13253077041E+03  0.13253077041E+03  0.00000000000E+00 0.  1.
         21   -1    0    0  501  503 -0.00000000000E+00 -0.00000000000E+00 -0.39026784436E+01  0.39026784436E+01  0.00000000000E+00 0. -1.
          2    1    1    2  501    0 -0.29360431270E+01 -0.21009864943E+02  0.39727127333E+02  0.45036423263E+02  0.00000000000E+00 0. -1.
         -2    1    1    2    0  502  0.29360431270E+01  0.21009864943E+02  0.88900964637E+02  0.91397025595E+02  0.00000000000E+00 0.  1.
<mgrwt>
<rscale>  2 0.21214023E+02</rscale>
<asrwt>0</asrwt>
<pdfrwt beam="1">  1       21 0.20389346E-01 0.21214023E+02</pdfrwt>
<pdfrwt beam="2">  1       21 0.60041217E-03 0.21214023E+02</pdfrwt>
<totfact> 0.12454064E+08</totfact>
</mgrwt>
</event>
<event>
 4    1  0.2761157E+004  0.2144912E+02  0.7546771E-02  0.1717957E+00
         21   -1    0    0  503  502  0.00000000000E+00  0.00000000000E+00  0.26234324340E+02  0.26234324340E+02  0.00000000000E+00 0.  1.
         21   -1    0    0  501  503 -0.00000000000E+00 -0.00000000000E+00 -0.35180002570E+02  0.35180002570E+02  0.00000000000E+00 0. -1.
          2    1    1    2  501    0  0.11402083602E+02  0.18167478518E+02 -0.26218924730E+02  0.33874722141E+02  0.00000000000E+00 0.  1.
         -2    1    1    2    0  502 -0.11402083602E+02 -0.18167478518E+02  0.17273246500E+02  0.27539604769E+02  0.00000000000E+00 0. -1.
<mgrwt>
<rscale>  2 0.21449121E+02</rscale>
<asrwt>0</asrwt>
<pdfrwt beam="1">  1       21 0.40360499E-02 0.21449121E+02</pdfrwt>
<pdfrwt beam="2">  1       21 0.54123081E-02 0.21449121E+02</pdfrwt>
<totfact> 0.62269939E+07</totfact>
</mgrwt>
</event>
<event>
 4    1  0.2761157E+004  0.2304102E+02  0.7546771E-02  0.1690846E+00
         21   -1    0    0  503  502  0.00000000000E+00  0.00000000000E+00  0.18255946742E+02  0.18255946742E+02  0.00000000000E+00 0. -1.
         21   -1    0    0  501  503 -0.00000000000E+00 -0.00000000000E+00 -0.29873222135E+02  0.29873222135E+02  0.00000000000E+00 0.  1.
          2    1    1    2  501    0  0.22517031200E+02 -0.48858678668E+01 -0.97292395484E+01  0.25010927633E+02  0.00000000000E+00 0.  1.
         -2    1    1    2    0  502 -0.22517031200E+02  0.48858678668E+01 -0.18880358452E+01  0.23118241244E+02  0.00000000000E+00 0. -1.
<mgrwt>
<rscale>  2 0.23041016E+02</rscale>
<asrwt>0</asrwt>
<pdfrwt beam="1">  1       21 0.28086072E-02 0.23041016E+02</pdfrwt>
<pdfrwt beam="2">  1       21 0.45958803E-02 0.23041016E+02</pdfrwt>
<totfact> 0.14526811E+08</totfact>
</mgrwt>
</event>
<event>
 4    1  0.2761157E+004  0.4700228E+02  0.7546771E-02  0.1462215E+00
         21   -1    0    0  503  502  0.00000000000E+00  0.00000000000E+00  0.24465085425E+02  0.24465085425E+02  0.00000000000E+00 0.  1.
         21   -1    0    0  501  503 -0.00000000000E+00 -0.00000000000E+00 -0.90837012023E+02  0.90837012023E+02  0.00000000000E+00 0. -1.
          2    1    1    2  501    0 -0.10241318941E+02 -0.45872976992E+02 -0.37615718435E+02  0.60200970965E+02  0.00000000000E+00 0. -1.
         -2    1    1    2    0  502  0.10241318941E+02  0.45872976992E+02 -0.28756208162E+02  0.55101126482E+02  0.00000000000E+00 0.  1.
<mgrwt>
<rscale>  2 0.47002283E+02</rscale>
<asrwt>0</asrwt>
<pdfrwt beam="1">  1       21 0.37638594E-02 0.47002283E+02</pdfrwt>
<pdfrwt beam="2">  1       21 0.13974925E-01 0.47002283E+02</pdfrwt>
<totfact> 0.16865691E+07</totfact>
</mgrwt>
</event>
<event>
 4    1  0.2761157E+004  0.2201000E+02  0.7546771E-02  0.1708079E+00
         21   -1    0    0  501  502  0.00000000000E+00  0.00000000000E+00  0.44749120134E+03  0.44749120134E+03  0.00000000000E+00 0.  1.
         21   -1    0    0  502  503 -0.00000000000E+00 -0.00000000000E+00 -0.18575594464E+01  0.18575594464E+01  0.00000000000E+00 0. -1.
          2    1    1    2  501    0 -0.12738760379E+02  0.17948933788E+02  0.36793782693E+03  0.36859555711E+03  0.00000000000E+00 0.  1.
         -2    1    1    2    0  503  0.12738760379E+02 -0.17948933788E+02  0.77695814971E+02  0.80753203677E+02  0.00000000000E+00 0. -1.
<mgrwt>
<rscale>  2 0.22010003E+02</rscale>
<asrwt>0</asrwt>
<pdfrwt beam="1">  1       21 0.68844714E-01 0.22010003E+02</pdfrwt>
<pdfrwt beam="2">  1       21 0.28577873E-03 0.22010003E+02</pdfrwt>
<totfact> 0.38221977E+07</totfact>
</mgrwt>
</event>
<event>
 4    1  0.2761157E+004  0.3132979E+02  0.7546771E-02  0.1583838E+00
         21   -1    0    0  501  502  0.00000000000E+00  0.00000000000E+00  0.26406006578E+03  0.26406006578E+03  0.00000000000E+00 0. -1.
         21   -1    0    0  502  503 -0.00000000000E+00 -0.00000000000E+00 -0.37539538307E+01  0.37539538307E+01  0.00000000000E+00 0.  1.
          2    1    1    2  501    0  0.31231901806E+02  0.24747238007E+01  0.14340842856E+03  0.14679078081E+03  0.00000000000E+00 0. -1.
         -2    1    1    2    0  503 -0.31231901806E+02 -0.24747238007E+01  0.11689768339E+03  0.12102323880E+03  0.00000000000E+00 0.  1.
<mgrwt>
<rscale>  2 0.31329793E+02</rscale>
<asrwt>0</asrwt>
<pdfrwt beam="1">  1       21 0.40624611E-01 0.31329793E+02</pdfrwt>
<pdfrwt beam="2">  1       21 0.57753156E-03 0.31329793E+02</pdfrwt>
<totfact> 0.41308029E+07</totfact>
</mgrwt>
</event>
<event>
 4    1  0.2761157E+004  0.2396007E+02  0.7546771E-02  0.1676404E+00
         21   -1    0    0  503  502  0.00000000000E+00  0.00000000000E+00  0.13399581489E+02  0.13399581489E+02  0.00000000000E+00 0. -1.
         21   -1    0    0  501  503 -0.00000000000E+00 -0.00000000000E+00 -0.42950953339E+02  0.42950953339E+02  0.00000000000E+00 0.  1.
          2    1    1    2  501    0  0.23167545007E+02  0.61114369418E+01 -0.16185028892E+02  0.28914355663E+02  0.00000000000E+00 0.  1.
         -2    1    1    2    0  502 -0.23167545007E+02 -0.61114369418E+01 -0.13366342957E+02  0.27436179166E+02  0.00000000000E+00 0. -1.
<mgrwt>
<rscale>  2 0.23960067E+02</rscale>
<asrwt>0</asrwt>
<pdfrwt beam="1">  1       21 0.20614741E-02 0.23960067E+02</pdfrwt>
<pdfrwt beam="2">  1       21 0.66078389E-02 0.23960067E+02</pdfrwt>
<totfact> 0.13255579E+08</totfact>
</mgrwt>
</event>
<event>
 4    1  0.2761157E+004  0.2925669E+02  0.7546771E-02  0.1606453E+00
         21   -1    0    0  501  502  0.00000000000E+00  0.00000000000E+00  0.42347218538E+02  0.42347218538E+02  0.00000000000E+00 0. -1.
         21   -1    0    0  502  503 -0.00000000000E+00 -0.00000000000E+00 -0.20888622142E+02  0.20888622142E+02  0.00000000000E+00 0.  1.
          2    1    1    2  501    0 -0.24667321107E+02 -0.15731404602E+02  0.16416649714E+02  0.33547879354E+02  0.00000000000E+00 0.  1.
         -2    1    1    2    0  503  0.24667321107E+02  0.15731404602E+02  0.50419466825E+01  0.29687961326E+02  0.00000000000E+00 0. -1.
<mgrwt>
<rscale>  2 0.29256688E+02</rscale>
<asrwt>0</asrwt>
<pdfrwt beam="1">  1       21 0.65149567E-02 0.29256688E+02</pdfrwt>
<pdfrwt beam="2">  1       21 0.32136342E-02 0.29256688E+02</pdfrwt>
<totfact> 0.71634591E+07</totfact>
</mgrwt>
</event>
<event>
 4    1  0.2761157E+004  0.2521191E+02  0.7546771E-02  0.1657977E+00
         21   -1    0    0  501  502  0.00000000000E+00  0.00000000000E+00  0.35803121069E+01  0.35803121069E+01  0.00000000000E+00 0. -1.
         21   -1    0    0  502  503 -0.00000000000E+00 -0.00000000000E+00 -0.22323884407E+03  0.22323884407E+03  0.00000000000E+00 0.  1.
          2    1    1    2  501    0  0.10601980107E+02 -0.22874406028E+02 -0.58516158821E+02  0.63716412929E+02  0.00000000000E+00 0. -1.
         -2    1    1    2    0  503 -0.10601980107E+02  0.22874406028E+02 -0.16114237314E+03  0.16310274325E+03  0.00000000000E+00 0.  1.
<mgrwt>
<rscale>  2 0.25211911E+02</rscale>
<asrwt>0</asrwt>
<pdfrwt beam="1">  1       21 0.55081703E-03 0.25211911E+02</pdfrwt>
<pdfrwt beam="2">  1       21 0.34344451E-01 0.25211911E+02</pdfrwt>
<totfact> 0.58059980E+07</totfact>
</mgrwt>
</event>
<event>
 4    1  0.2761157E+004  0.6173557E+02  0.7546771E-02  0.1390689E+00
         21   -1    0    0  501  502  0.00000000000E+00  0.00000000000E+00  0.45028784596E+03  0.45028784596E+03  0.00000000000E+00 0. -1.
         21   -1    0    0  502  503 -0.00000000000E+00 -0.00000000000E+00 -0.12075504003E+02  0.12075504003E+02  0.00000000000E+00 0.  1.
          2    1    1    2  501    0  0.24110407640E+02 -0.56832812047E+02  0.34553291521E+03  0.35100466631E+03  0.00000000000E+00 0. -1.
         -2    1    1    2    0  503 -0.24110407640E+02  0.56832812047E+02  0.92679426752E+02  0.11135868365E+03  0.00000000000E+00 0.  1.
<mgrwt>
<rscale>  2 0.61735567E+02</rscale>
<asrwt>0</asrwt>
<pdfrwt beam="1">  1       21 0.69275040E-01 0.61735567E+02</pdfrwt>
<pdfrwt beam="2">  1       21 0.18577702E-02 0.61735567E+02</pdfrwt>
<totfact> 0.25433768E+06</totfact>
</mgrwt>
</event>
<event>
 4    1  0.2761157E+004  0.2420455E+02  0.7546771E-02  0.1672697E+00
         21   -1    0    0  501  502  0.00000000000E+00  0.00000000000E+00  0.86668614665E+01  0.86668614665E+01  0.00000000000E+00 0. -1.
         21   -1    0    0  502  503 -0.00000000000E+00 -0.00000000000E+00 -0.19429226625E+03  0.19429226625E+03  0.00000000000E+00 0.  1.
          2    1    1    2  501    0  0.17991732911E+02 -0.16191289324E+02 -0.10866326765E+02  0.26531817888E+02  0.00000000000E+00 0. -1.
         -2    1    1    2    0  503 -0.17991732911E+02  0.16191289324E+02 -0.17475907802E+03  0.17642730983E+03  0.00000000000E+00 0.  1.
<mgrwt>
<rscale>  2 0.24204551E+02</rscale>
<asrwt>0</asrwt>
<pdfrwt beam="1">  1       21 0.13333633E-02 0.24204551E+02</pdfrwt>
<pdfrwt beam="2">  1       21 0.29891118E-01 0.24204551E+02</pdfrwt>
<totfact> 0.19733401E+07</totfact>
</mgrwt>
</event>
<event>
 4    1  0.2761157E+004  0.2946962E+02  0.7546771E-02  0.1604026E+00
         21   -1    0    0  503  502  0.00000000000E+00  0.00000000000E+00  0.18788872252E+03  0.18788872252E+03  0.00000000000E+00 0.  1.
         21   -1    0    0  501  503 -0.00000000000E+00 -0.00000000000E+00 -0.19438308802E+02  0.19438308802E+02  0.00000000000E+00 0. -1.
          2    1    1    2  501    0 -0.28427804943E+02  0.77665061896E+01 -0.62779683837E+01  0.30130907708E+02  0.00000000000E+00 0. -1.
         -2    1    1    2    0  502  0.28427804943E+02 -0.77665061896E+01  0.17472838210E+03  0.17719612361E+03  0.00000000000E+00 0.  1.
<mgrwt>
<rscale>  2 0.29469624E+02</rscale>
<asrwt>0</asrwt>
<pdfrwt beam="1">  1       21 0.28905956E-01 0.29469624E+02</pdfrwt>
<pdfrwt beam="2">  1       21 0.29905092E-02 0.29469624E+02</pdfrwt>
<totfact> 0.62408636E+06</totfact>
</mgrwt>
</event>
<event>
 4    1  0.2761157E+004  0.2183370E+02  0.7546771E-02  0.1711144E+00
         21   -1    0    0  501  502  0.00000000000E+00  0.00000000000E+00  0.34217247016E+02  0.34217247016E+02  0.00000000000E+00 0.  1.
         21   -1    0    0  502  503 -0.00000000000E+00 -0.00000000000E+00 -0.26129578544E+02  0.26129578544E+02  0.00000000000E+00 0. -1.
          2    1    1    2  501    0 -0.74913468628E+01  0.20508298013E+02  0.24659491573E+02  0.32936318705E+02  0.00000000000E+00 0.  1.
         -2    1    1    2    0  503  0.74913468628E+01 -0.20508298013E+02 -0.16571823100E+02  0.27410506855E+02  0.00000000000E+00 0. -1.
<mgrwt>
<rscale>  2 0.21833703E+02</rscale>
<asrwt>0</asrwt>
<pdfrwt beam="1">  1       21 0.52641919E-02 0.21833703E+02</pdfrwt>
<pdfrwt beam="2">  1       21 0.40199351E-02 0.21833703E+02</pdfrwt>
<totfact> 0.65814663E+07</totfact>
</mgrwt>
</event>
<event>
 4    1  0.2761157E+004  0.4610769E+02  0.7546771E-02  0.1467543E+00
         21   -1    0    0  501  502  0.00000000000E+00  0.00000000000E+00  0.10338804243E+03  0.10338804243E+03  0.00000000000E+00 0.  1.
         21   -1    0    0  502  503 -0.00000000000E+00 -0.00000000000E+00 -0.24432552900E+02  0.24432552900E+02  0.00000000000E+00 0. -1.
          2    1    1    2  501    0  0.45483186655E+02  0.75630164842E+01  0.64913422424E+02  0.79622056601E+02  0.00000000000E+00 0.  1.
         -2    1    1    2    0  503 -0.45483186655E+02 -0.75630164842E+01  0.14042067103E+02  0.48198538724E+02  0.00000000000E+00 0. -1.
<mgrwt>
<rscale>  2 0.46107694E+02</rscale>
<asrwt>0</asrwt>
<pdfrwt beam="1">  1       21 0.15905852E-01 0.46107694E+02</pdfrwt>
<pdfrwt beam="2">  1       21 0.37588543E-02 0.46107694E+02</pdfrwt>
<totfact> 0.13444446E+07</totfact>
</mgrwt>
</event>
<event>
 4    1  0.2761157E+004  0.2031955E+02  0.7546771E-02  0.1739047E+00
         21   -1    0    0  501  502  0.00000000000E+00  0.00000000000E+00  0.48645248732E+02  0.48645248732E+02  0.00000000000E+00 0.  1.
         21   -1    0    0  502  503 -0.00000000000E+00 -0.00000000000E+00 -0.86191542748E+01  0.86191542748E+01  0.00000000000E+00 0. -1.
          2    1    1    2  501    0 -0.73465728934E+01  0.18944969070E+02  0.16476434010E+02  0.26160215290E+02  0.00000000000E+00 0.  1.
         -2    1    1    2    0  503  0.73465728934E+01 -0.18944969070E+02  0.23549660448E+02  0.31104187717E+02  0.00000000000E+00 0. -1.
<mgrwt>
<rscale>  2 0.20319547E+02</rscale>
<asrwt>0</asrwt>
<pdfrwt beam="1">  1       21 0.74838843E-02 0.20319547E+02</pdfrwt>
<pdfrwt beam="2">  1       21 0.13260238E-02 0.20319547E+02</pdfrwt>
<totfact> 0.20166993E+08</totfact>
</mgrwt>
</event>
<event>
 4    1  0.2761157E+004  0.2434084E+02  0.7546771E-02  0.1670654E+00
         21   -1    0    0  501  502  0.00000000000E+00  0.00000000000E+00  0.20729673421E+03  0.20729673421E+03  0.00000000000E+00 0. -1.
         21   -1    0    0  502  503 -0.00000000000E+00 -0.00000000000E+00 -0.52931957925E+01  0.52931957925E+01  0.00000000000E+00 0.  1.
          2    1    1    2  501    0 -0.23410057526E+01  0.24228000856E+02  0.17309775389E+03  0.17480076870E+03  0.00000000000E+00 0. -1.
         -2    1    1    2    0  503  0.23410057526E+01 -0.24228000856E+02  0.28905784528E+02  0.37789161311E+02  0.00000000000E+00 0.  1.
<mgrwt>
<rscale>  2 0.24340837E+02</rscale>
<asrwt>0</asrwt>
<pdfrwt beam="1">  1       21 0.31891799E-01 0.24340837E+02</pdfrwt>
<pdfrwt beam="2">  1       21 0.81433797E-03 0.24340837E+02</pdfrwt>
<totfact> 0.36889258E+07</totfact>
</mgrwt>
</event>
<event>
 4    1  0.2761157E+004  0.3976953E+02  0.7546771E-02  0.1509914E+00
         21   -1    0    0  503  502  0.00000000000E+00  0.00000000000E+00  0.10278656749E+02  0.10278656749E+02  0.00000000000E+00 0. -1.
         21   -1    0    0  501  503 -0.00000000000E+00 -0.00000000000E+00 -0.30978844724E+03  0.30978844724E+03  0.00000000000E+00 0.  1.
          2    1    1    2  501    0  0.65902819458E+01 -0.39219685117E+02 -0.26328785392E+03  0.26627450035E+03  0.00000000000E+00 0.  1.
         -2    1    1    2    0  502 -0.65902819458E+01  0.39219685117E+02 -0.36221936570E+02  0.53792603633E+02  0.00000000000E+00 0. -1.
<mgrwt>
<rscale>  2 0.39769530E+02</rscale>
<asrwt>0</asrwt>
<pdfrwt beam="1">  1       21 0.15813318E-02 0.39769530E+02</pdfrwt>
<pdfrwt beam="2">  1       21 0.47659763E-01 0.39769530E+02</pdfrwt>
<totfact> 0.67839994E+06</totfact>
</mgrwt>
</event>
<event>
 4    1  0.2761157E+004  0.2653801E+02  0.7546771E-02  0.1639845E+00
         21   -1    0    0  503  502  0.00000000000E+00  0.00000000000E+00  0.89024822381E+01  0.89024822381E+01  0.00000000000E+00 0. -1.
         21   -1    0    0  501  503 -0.00000000000E+00 -0.00000000000E+00 -0.15550440241E+03  0.15550440241E+03  0.00000000000E+00 0.  1.
          2    1    1    2  501    0  0.24042757073E+02 -0.11234404577E+02 -0.13091819551E+03  0.13358083668E+03  0.00000000000E+00 0.  1.
         -2    1    1    2    0  502 -0.24042757073E+02  0.11234404577E+02 -0.15683724665E+02  0.30826047966E+02  0.00000000000E+00 0. -1.
<mgrwt>
<rscale>  2 0.26538011E+02</rscale>
<asrwt>0</asrwt>
<pdfrwt beam="1">  1       21 0.13696128E-02 0.26538011E+02</pdfrwt>
<pdfrwt beam="2">  1       21 0.23923752E-01 0.26538011E+02</pdfrwt>
<totfact> 0.28844202E+07</totfact>
</mgrwt>
</event>
<event>
 4    1  0.2761157E+004  0.2203849E+02  0.7546771E-02  0.1707587E+00
         21   -1    0    0  501  502  0.00000000000E+00  0.00000000000E+00  0.92258701227E+02  0.92258701227E+02  0.00000000000E+00 0.  1.
         21   -1    0    0  502  503 -0.00000000000E+00 -0.00000000000E+00 -0.24455869178E+02  0.24455869178E+02  0.00000000000E+00 0. -1.
          2    1    1    2  501    0  0.21501243322E+02 -0.48364765753E+01  0.85597378676E+02  0.88388948440E+02  0.00000000000E+00 0.  1.
         -2    1    1    2    0  503 -0.21501243322E+02  0.48364765753E+01 -0.17794546627E+02  0.28325621965E+02  0.00000000000E+00 0. -1.
<mgrwt>
<rscale>  2 0.22038488E+02</rscale>
<asrwt>0</asrwt>
<pdfrwt beam="1">  1       21 0.14193646E-01 0.22038488E+02</pdfrwt>
<pdfrwt beam="2">  1       21 0.37624415E-02 0.22038488E+02</pdfrwt>
<totfact> 0.14416376E+07</totfact>
</mgrwt>
</event>
<event>
 4    1  0.2761157E+004  0.2457492E+02  0.7546771E-02  0.1667184E+00
         21   -1    0    0  503  502  0.00000000000E+00  0.00000000000E+00  0.26334646267E+02  0.26334646267E+02  0.00000000000E+00 0. -1.
         21   -1    0    0  501  503 -0.00000000000E+00 -0.00000000000E+00 -0.23144064069E+02  0.23144064069E+02  0.00000000000E+00 0.  1.
          2    1    1    2  501    0 -0.16277190437E+02  0.18411399995E+02  0.39590583262E+01  0.24891780193E+02  0.00000000000E+00 0. -1.
         -2    1    1    2    0  502  0.16277190437E+02 -0.18411399995E+02 -0.76847612802E+00  0.24586930144E+02  0.00000000000E+00 0.  1.
<mgrwt>
<rscale>  2 0.24574918E+02</rscale>
<asrwt>0</asrwt>
<pdfrwt beam="1">  1       21 0.40514840E-02 0.24574918E+02</pdfrwt>
<pdfrwt beam="2">  1       21 0.35606253E-02 0.24574918E+02</pdfrwt>
<totfact> 0.12478533E+08</totfact>
</mgrwt>
</event>
<event>
 4    1  0.2761157E+004  0.3743601E+02  0.7546771E-02  0.1527974E+00
         21   -1    0    0  503  502  0.00000000000E+00  0.00000000000E+00  0.23529634380E+02  0.23529634380E+02  0.00000000000E+00 0.  1.
         21   -1    0    0  501  503 -0.00000000000E+00 -0.00000000000E+00 -0.63466795972E+02  0.63466795972E+02  0.00000000000E+00 0. -1.
          2    1    1    2  501    0 -0.12916913261E+02 -0.35136995598E+02 -0.30758978183E+02  0.48451726973E+02  0.00000000000E+00 0. -1.
         -2    1    1    2    0  502  0.12916913261E+02  0.35136995598E+02 -0.91781834088E+01  0.38544703378E+02  0.00000000000E+00 0.  1.
<mgrwt>
<rscale>  2 0.37436014E+02</rscale>
<asrwt>0</asrwt>
<pdfrwt beam="1">  1       21 0.36199438E-02 0.37436014E+02</pdfrwt>
<pdfrwt beam="2">  1       21 0.97641224E-02 0.37436014E+02</pdfrwt>
<totfact> 0.31964033E+07</totfact>
</mgrwt>
</event>
<event>
 4    1  0.2761157E+004  0.2416696E+02  0.7546771E-02  0.1673264E+00
         21   -1    0    0  501  502  0.00000000000E+00  0.00000000000E+00  0.25287440145E+02  0.25287440145E+02  0.00000000000E+00 0.  1.
         21   -1    0    0  502  503 -0.00000000000E+00 -0.00000000000E+00 -0.23216148315E+02  0.23216148315E+02  0.00000000000E+00 0. -1.
          2    1    1    2  501    0  0.12694856747E+01  0.24133592881E+02  0.27793794398E+01  0.24326258432E+02  0.00000000000E+00 0. -1.
         -2    1    1    2    0  503 -0.12694856747E+01 -0.24133592881E+02 -0.70808761036E+00  0.24177330028E+02  0.00000000000E+00 0.  1.
<mgrwt>
<rscale>  2 0.24166959E+02</rscale>
<asrwt>0</asrwt>
<pdfrwt beam="1">  1       21 0.38903754E-02 0.24166959E+02</pdfrwt>
<pdfrwt beam="2">  1       21 0.35717151E-02 0.24166959E+02</pdfrwt>
<totfact> 0.13175460E+08</totfact>
</mgrwt>
</event>
<event>
 4    1  0.2761157E+004  0.2612797E+02  0.7546771E-02  0.1645310E+00
         21   -1    0    0  501  502  0.00000000000E+00  0.00000000000E+00  0.14023362073E+04  0.14023362073E+04  0.00000000000E+00 0.  1.
         21   -1    0    0  502  503 -0.00000000000E+00 -0.00000000000E+00 -0.82599474865E+00  0.82599474865E+00  0.00000000000E+00 0. -1.
          2    1    1    2  501    0 -0.25658967766E+02  0.49283041914E+01  0.11503357613E+04  0.11506324498E+04  0.00000000000E+00 0.  1.
         -2    1    1    2    0  503  0.25658967766E+02 -0.49283041914E+01  0.25117445128E+03  0.25252975228E+03  0.00000000000E+00 0. -1.
<mgrwt>
<rscale>  2 0.26127970E+02</rscale>
<asrwt>0</asrwt>
<pdfrwt beam="1">  1       21 0.21574213E+00 0.26127970E+02</pdfrwt>
<pdfrwt beam="2">  1       21 0.12707724E-03 0.26127970E+02</pdfrwt>
<totfact> 0.91738095E+06</totfact>
</mgrwt>
</event>
<event>
 4    1  0.2761157E+004  0.2432287E+02  0.7546771E-02  0.1670923E+00
         21   -1    0    0  503  502  0.00000000000E+00  0.00000000000E+00  0.14007217228E+04  0.14007217228E+04  0.00000000000E+00 0. -1.
         21   -1    0    0  501  503 -0.00000000000E+00 -0.00000000000E+00 -0.71359286102E+00  0.71359286102E+00  0.00000000000E+00 0.  1.
          2    1    1    2  501    0  0.18464107879E+02  0.15832829435E+02  0.25235079696E+03  0.25352026841E+03  0.00000000000E+00 0.  1.
         -2    1    1    2    0  502 -0.18464107879E+02 -0.15832829435E+02  0.11476573330E+04  0.11479150473E+04  0.00000000000E+00 0. -1.
<mgrwt>
<rscale>  2 0.24322865E+02</rscale>
<asrwt>0</asrwt>
<pdfrwt beam="1">  1       21 0.21549345E+00 0.24322865E+02</pdfrwt>
<pdfrwt beam="2">  1       21 0.10978464E-03 0.24322865E+02</pdfrwt>
<totfact> 0.11265772E+07</totfact>
</mgrwt>
</event>
<event>
 4    1  0.2761157E+004  0.2778476E+02  0.7546771E-02  0.1623951E+00
         21   -1    0    0  501  502  0.00000000000E+00  0.00000000000E+00  0.34852827625E+03  0.34852827625E+03  0.00000000000E+00 0.  1.
         21   -1    0    0  502  503 -0.00000000000E+00 -0.00000000000E+00 -0.22163746874E+01  0.22163746874E+01  0.00000000000E+00 0. -1.
          2    1    1    2  501    0  0.27709264286E+02 -0.20468437505E+01  0.17751091694E+03  0.17967225309E+03  0.00000000000E+00 0. -1.
         -2    1    1    2    0  503 -0.27709264286E+02  0.20468437505E+01  0.16880098462E+03  0.17107239784E+03  0.00000000000E+00 0.  1.
<mgrwt>
<rscale>  2 0.27784760E+02</rscale>
<asrwt>0</asrwt>
<pdfrwt beam="1">  1       21 0.53619691E-01 0.27784760E+02</pdfrwt>
<pdfrwt beam="2">  1       21 0.34098100E-03 0.27784760E+02</pdfrwt>
<totfact> 0.51322321E+07</totfact>
</mgrwt>
</event>
<event>
 4    1  0.2761157E+004  0.2953262E+02  0.7546771E-02  0.1603313E+00
         21   -1    0    0  503  502  0.00000000000E+00  0.00000000000E+00  0.21839764699E+02  0.21839764699E+02  0.00000000000E+00 0.  1.
         21   -1    0    0  501  503 -0.00000000000E+00 -0.00000000000E+00 -0.63670565232E+02  0.63670565232E+02  0.00000000000E+00 0. -1.
          2    1    1    2  501    0  0.99881521596E+01 -0.27792309047E+02 -0.47020002894E+02  0.55525276207E+02  0.00000000000E+00 0. -1.
         -2    1    1    2    0  502 -0.99881521596E+01  0.27792309047E+02  0.51892023608E+01  0.29985053724E+02  0.00000000000E+00 0.  1.
<mgrwt>
<rscale>  2 0.29532620E+02</rscale>
<asrwt>0</asrwt>
<pdfrwt beam="1">  1       21 0.33599638E-02 0.29532620E+02</pdfrwt>
<pdfrwt beam="2">  1       21 0.97954714E-02 0.29532620E+02</pdfrwt>
<totfact> 0.34174570E+07</totfact>
</mgrwt>
</event>
<event>
 4    1  0.2761157E+004  0.3995305E+02  0.7546771E-02  0.1508557E+00
         21   -1    0    0  501  502  0.00000000000E+00  0.00000000000E+00  0.68798940134E+03  0.68798940134E+03  0.00000000000E+00 0. -1.
         21   -1    0    0  502  503 -0.00000000000E+00 -0.00000000000E+00 -0.31828307423E+01  0.31828307423E+01  0.00000000000E+00 0.  1.
          2    1    1    2  501    0  0.16615623830E+02  0.36334101778E+02  0.52232015894E+03  0.52384596433E+03  0.00000000000E+00 0. -1.
         -2    1    1    2    0  503 -0.16615623830E+02 -0.36334101778E+02  0.16248641165E+03  0.16732626775E+03  0.00000000000E+00 0.  1.
<mgrwt>
<rscale>  2 0.39953046E+02</rscale>
<asrwt>0</asrwt>
<pdfrwt beam="1">  1       21 0.10584440E+00 0.39953046E+02</pdfrwt>
<pdfrwt beam="2">  1       21 0.48966682E-03 0.39953046E+02</pdfrwt>
<totfact> 0.75362198E+06</totfact>
</mgrwt>
</event>
<event>
 4    1  0.2761157E+004  0.2034404E+02  0.7546771E-02  0.1738572E+00
         21   -1    0    0  501  502  0.00000000000E+00  0.00000000000E+00  0.23327780215E+01  0.23327780215E+01  0.00000000000E+00 0.  1.
         21   -1    0    0  502  503 -0.00000000000E+00 -0.00000000000E+00 -0.20666777234E+03  0.20666777234E+03  0.00000000000E+00 0. -1.
          2    1    1    2  501    0 -0.18753998292E+02 -0.78846396068E+01 -0.62854860612E+02  0.66065221533E+02  0.00000000000E+00 0.  1.
         -2    1    1    2    0  503  0.18753998292E+02  0.78846396068E+01 -0.14148013371E+03  0.14293532883E+03  0.00000000000E+00 0. -1.
<mgrwt>
<rscale>  2 0.20344041E+02</rscale>
<asrwt>0</asrwt>
<pdfrwt beam="1">  1       21 0.35888900E-03 0.20344041E+02</pdfrwt>
<pdfrwt beam="2">  1       21 0.31795036E-01 0.20344041E+02</pdfrwt>
<totfact> 0.11873988E+08</totfact>
</mgrwt>
</event>
<event>
 4    1  0.2761157E+004  0.2437104E+02  0.7546771E-02  0.1670204E+00
         21   -1    0    0  503  502  0.00000000000E+00  0.00000000000E+00  0.11562221266E+01  0.11562221266E+01  0.00000000000E+00 0.  1.
         21   -1    0    0  501  503 -0.00000000000E+00 -0.00000000000E+00 -0.58169122780E+03  0.58169122780E+03  0.00000000000E+00 0. -1.
          2    1    1    2  501    0  0.15477811869E+02 -0.18825113005E+02 -0.38990332148E+03  0.39066423901E+03  0.00000000000E+00 0. -1.
         -2    1    1    2    0  502 -0.15477811869E+02  0.18825113005E+02 -0.19063168420E+03  0.19218321092E+03  0.00000000000E+00 0.  1.
<mgrwt>
<rscale>  2 0.24371039E+02</rscale>
<asrwt>0</asrwt>
<pdfrwt beam="1">  1       21 0.17787985E-03 0.24371039E+02</pdfrwt>
<pdfrwt beam="2">  1       21 0.89491200E-01 0.24371039E+02</pdfrwt>
<totfact> 0.44861051E+07</totfact>
</mgrwt>
</event>
<event>
 4    1  0.2761157E+004  0.2864596E+02  0.7546771E-02  0.1613557E+00
         21   -1    0    0  501  502  0.00000000000E+00  0.00000000000E+00  0.98090127884E+02  0.98090127884E+02  0.00000000000E+00 0. -1.
         21   -1    0    0  502  503 -0.00000000000E+00 -0.00000000000E+00 -0.88462959513E+01  0.88462959513E+01  0.00000000000E+00 0.  1.
          2    1    1    2  501    0 -0.15553503042E+02 -0.24055764638E+02  0.57084584179E+02  0.63868936269E+02  0.00000000000E+00 0.  1.
         -2    1    1    2    0  503  0.15553503042E+02  0.24055764638E+02  0.32159247753E+02  0.43067487566E+02  0.00000000000E+00 0. -1.
<mgrwt>
<rscale>  2 0.28645964E+02</rscale>
<asrwt>0</asrwt>
<pdfrwt beam="1">  1       21 0.15090788E-01 0.28645964E+02</pdfrwt>
<pdfrwt beam="2">  1       21 0.13609687E-02 0.28645964E+02</pdfrwt>
<totfact> 0.66376167E+07</totfact>
</mgrwt>
</event>
<event>
 4    1  0.2761157E+004  0.2455154E+02  0.7546771E-02  0.1667528E+00
         21   -1    0    0  503  502  0.00000000000E+00  0.00000000000E+00  0.34795076247E+03  0.34795076247E+03  0.00000000000E+00 0. -1.
         21   -1    0    0  501  503 -0.00000000000E+00 -0.00000000000E+00 -0.79860660198E+01  0.79860660198E+01  0.00000000000E+00 0.  1.
          2    1    1    2  501    0 -0.78091635109E+01 -0.23276489127E+02  0.12495237979E+02  0.27548302180E+02  0.00000000000E+00 0.  1.
         -2    1    1    2    0  502  0.78091635109E+01  0.23276489127E+02  0.32746945848E+03  0.32838852631E+03  0.00000000000E+00 0. -1.
<mgrwt>
<rscale>  2 0.24551537E+02</rscale>
<asrwt>0</asrwt>
<pdfrwt beam="1">  1       21 0.53530875E-01 0.24551537E+02</pdfrwt>
<pdfrwt beam="2">  1       21 0.12286258E-02 0.24551537E+02</pdfrwt>
<totfact> 0.74403061E+06</totfact>
</mgrwt>
</event>
<event>
 4    1  0.2761157E+004  0.2030418E+02  0.7546771E-02  0.1739346E+00
         21   -1    0    0  501  502  0.00000000000E+00  0.00000000000E+00  0.96735703307E+03  0.96735703307E+03  0.00000000000E+00 0. -1.
         21   -1    0    0  502  503 -0.00000000000E+00 -0.00000000000E+00 -0.52485391116E+00  0.52485391116E+00  0.00000000000E+00 0.  1.
          2    1    1    2  501    0 -0.19511247819E+02 -0.56188041418E+01  0.69325865376E+03  0.69355592476E+03  0.00000000000E+00 0.  1.
         -2    1    1    2    0  503  0.19511247819E+02  0.56188041418E+01  0.27357352540E+03  0.27432596222E+03  0.00000000000E+00 0. -1.
<mgrwt>
<rscale>  2 0.20304181E+02</rscale>
<asrwt>0</asrwt>
<pdfrwt beam="1">  1       21 0.14882273E+00 0.20304181E+02</pdfrwt>
<pdfrwt beam="2">  1       21 0.80747530E-04 0.20304181E+02</pdfrwt>
<totfact> 0.42523996E+07</totfact>
</mgrwt>
</event>
<event>
 4    1  0.2761157E+004  0.2264825E+02  0.7546771E-02  0.1697276E+00
         21   -1    0    0  503  502  0.00000000000E+00  0.00000000000E+00  0.40354006319E+02  0.40354006319E+02  0.00000000000E+00 0.  1.
         21   -1    0    0  501  503 -0.00000000000E+00 -0.00000000000E+00 -0.13415725609E+02  0.13415725609E+02  0.00000000000E+00 0. -1.
          2    1    1    2  501    0  0.49564149858E+01  0.22099257593E+02  0.73076696533E+01  0.23798009821E+02  0.00000000000E+00 0.  1.
         -2    1    1    2    0  502 -0.49564149858E+01 -0.22099257593E+02  0.19630611057E+02  0.29971722108E+02  0.00000000000E+00 0. -1.
<mgrwt>
<rscale>  2 0.22648250E+02</rscale>
<asrwt>0</asrwt>
<pdfrwt beam="1">  1       21 0.62083086E-02 0.22648250E+02</pdfrwt>
<pdfrwt beam="2">  1       21 0.20639578E-02 0.22648250E+02</pdfrwt>
<totfact> 0.14386620E+08</totfact>
</mgrwt>
</event>
<event>
 4    1  0.2761157E+004  0.8109305E+02  0.7546771E-02  0.1325978E+00
         21   -1    0    0  503  502  0.00000000000E+00  0.00000000000E+00  0.28791715268E+03  0.28791715268E+03  0.00000000000E+00 0. -1.
         21   -1    0    0  501  503 -0.00000000000E+00 -0.00000000000E+00 -0.38551479712E+02  0.38551479712E+02  0.00000000000E+00 0.  1.
          2    1    1    2  501    0  0.75019632833E+02 -0.30791853699E+02  0.20475857844E+02  0.83638175011E+02  0.00000000000E+00 0.  1.
         -2    1    1    2    0  502 -0.75019632833E+02  0.30791853699E+02  0.22888981512E+03  0.24283045738E+03  0.00000000000E+00 0. -1.
<mgrwt>
<rscale>  2 0.81093055E+02</rscale>
<asrwt>0</asrwt>
<pdfrwt beam="1">  1       21 0.44294945E-01 0.81093055E+02</pdfrwt>
<pdfrwt beam="2">  1       21 0.59309971E-02 0.81093055E+02</pdfrwt>
<totfact> 0.98051022E+05</totfact>
</mgrwt>
</event>
<event>
 4    1  0.2761157E+004  0.2126884E+02  0.7546771E-02  0.1721213E+00
         21   -1    0    0  503  502  0.00000000000E+00  0.00000000000E+00  0.11877825754E+01  0.11877825754E+01  0.00000000000E+00 0.  1.
         21   -1    0    0  501  503 -0.00000000000E+00 -0.00000000000E+00 -0.56007325601E+03  0.56007325601E+03  0.00000000000E+00 0. -1.
          2    1    1    2  501    0 -0.29128113892E+01  0.21068441359E+02 -0.43819248026E+03  0.43870834668E+03  0.00000000000E+00 0. -1.
         -2    1    1    2    0  502  0.29128113892E+01 -0.21068441359E+02 -0.12069299317E+03  0.12255269190E+03  0.00000000000E+00 0.  1.
<mgrwt>
<rscale>  2 0.21268843E+02</rscale>
<asrwt>0</asrwt>
<pdfrwt beam="1">  1       21 0.18273607E-03 0.21268843E+02</pdfrwt>
<pdfrwt beam="2">  1       21 0.86164978E-01 0.21268843E+02</pdfrwt>
<totfact> 0.45400350E+07</totfact>
</mgrwt>
</event>
<event>
 4    1  0.2761157E+004  0.4467507E+02  0.7546771E-02  0.1476380E+00
         21   -1    0    0  501  502  0.00000000000E+00  0.00000000000E+00  0.15263644636E+03  0.15263644636E+03  0.00000000000E+00 0. -1.
         21   -1    0    0  502  503 -0.00000000000E+00 -0.00000000000E+00 -0.10631787804E+03  0.10631787804E+03  0.00000000000E+00 0.  1.
          2    1    1    2  501    0  0.28592498274E+02 -0.34326828820E+02  0.14441318302E+03  0.15116557004E+03  0.00000000000E+00 0. -1.
         -2    1    1    2    0  503 -0.28592498274E+02  0.34326828820E+02 -0.98094614703E+02  0.10778875437E+03  0.00000000000E+00 0.  1.
<mgrwt>
<rscale>  2 0.44675073E+02</rscale>
<asrwt>0</asrwt>
<pdfrwt beam="1">  1       21 0.23482530E-01 0.44675073E+02</pdfrwt>
<pdfrwt beam="2">  1       21 0.16356597E-01 0.44675073E+02</pdfrwt>
<totfact> 0.56908845E+05</totfact>
</mgrwt>
</event>
<event>
 4    1  0.2761157E+004  0.3442061E+02  0.7546771E-02  0.1553807E+00
         21   -1    0    0  501  502  0.00000000000E+00  0.00000000000E+00  0.20144945244E+04  0.20144945244E+04  0.00000000000E+00 0. -1.
         21   -1    0    0  502  503 -0.00000000000E+00 -0.00000000000E+00 -0.12351727327E+01  0.12351727327E+01  0.00000000000E+00 0.  1.
          2    1    1    2  501    0 -0.30571005705E+02 -0.15817464005E+02  0.17360971799E+04  0.17364383653E+04  0.00000000000E+00 0. -1.
         -2    1    1    2    0  503  0.30571005705E+02  0.15817464005E+02  0.27716217173E+03  0.27929133176E+03  0.00000000000E+00 0.  1.
<mgrwt>
<rscale>  2 0.34420612E+02</rscale>
<asrwt>0</asrwt>
<pdfrwt beam="1">  1       21 0.30991961E+00 0.34420612E+02</pdfrwt>
<pdfrwt beam="2">  1       21 0.19002819E-03 0.34420612E+02</pdfrwt>
<totfact> 0.17025208E+06</totfact>
</mgrwt>
</event>
<event>
 4    1  0.2761157E+004  0.7152131E+02  0.7546771E-02  0.1354995E+00
         21   -1    0    0  503  502  0.00000000000E+00  0.00000000000E+00  0.13854312741E+02  0.13854312741E+02  0.00000000000E+00 0.  1.
         21   -1    0    0  501  503 -0.00000000000E+00 -0.00000000000E+00 -0.39072163151E+03  0.39072163151E+03  0.00000000000E+00 0. -1.
          2    1    1    2  501    0 -0.89827366174E+01  0.70954977804E+02 -0.23588685014E+03  0.24649118544E+03  0.00000000000E+00 0. -1.
         -2    1    1    2    0  502  0.89827366174E+01 -0.70954977804E+02 -0.14098046863E+03  0.15808475881E+03  0.00000000000E+00 0.  1.
<mgrwt>
<rscale>  2 0.71521315E+02</rscale>
<asrwt>0</asrwt>
<pdfrwt beam="1">  1       21 0.21314328E-02 0.71521315E+02</pdfrwt>
<pdfrwt beam="2">  1       21 0.60111019E-01 0.71521315E+02</pdfrwt>
<totfact> 0.27787994E+06</totfact>
</mgrwt>
</event>
<event>
 4    1  0.2761157E+004  0.2113666E+02  0.7546771E-02  0.1723625E+00
         21   -1    0    0  501  502  0.00000000000E+00  0.00000000000E+00  0.42269143889E+00  0.42269143889E+00  0.00000000000E+00 0. -1.
         21   -1    0    0  502  503 -0.00000000000E+00 -0.00000000000E+00 -0.15722689177E+04  0.15722689177E+04  0.00000000000E+00 0.  1.
          2    1    1    2  501    0  0.10360018327E+02  0.18423586437E+02 -0.33573566114E+03  0.33640034584E+03  0.00000000000E+00 0. -1.
         -2    1    1    2    0  503 -0.10360018327E+02 -0.18423586437E+02 -0.12361105651E+04  0.12362912633E+04  0.00000000000E+00 0.  1.
<mgrwt>
<rscale>  2 0.21136663E+02</rscale>
<asrwt>0</asrwt>
<pdfrwt beam="1">  1       21 0.65029617E-04 0.21136663E+02</pdfrwt>
<pdfrwt beam="2">  1       21 0.24188691E+00 0.21136663E+02</pdfrwt>
<totfact> 0.17048495E+07</totfact>
</mgrwt>
</event>
<event>
 4    1  0.2761157E+004  0.2034883E+02  0.7546771E-02  0.1738479E+00
         21   -1    0    0  501  502  0.00000000000E+00  0.00000000000E+00  0.12341804406E+04  0.12341804406E+04  0.00000000000E+00 0. -1.
         21   -1    0    0  502  503 -0.00000000000E+00 -0.00000000000E+00 -0.80701600172E+00  0.80701600172E+00  0.00000000000E+00 0.  1.
          2    1    1    2  501    0  0.17902914158E+02 -0.96726621460E+01  0.10886812935E+04  0.10888714495E+04  0.00000000000E+00 0. -1.
         -2    1    1    2    0  503 -0.17902914158E+02  0.96726621460E+01  0.14469213108E+03  0.14611600708E+03  0.00000000000E+00 0.  1.
<mgrwt>
<rscale>  2 0.20348826E+02</rscale>
<asrwt>0</asrwt>
<pdfrwt beam="1">  1       21 0.18987240E+00 0.20348826E+02</pdfrwt>
<pdfrwt beam="2">  1       21 0.12415730E-03 0.20348826E+02</pdfrwt>
<totfact> 0.12813431E+07</totfact>
</mgrwt>
</event>
<event>
 4    1  0.2761157E+004  0.2490106E+02  0.7546771E-02  0.1662427E+00
         21   -1    0    0  501  502  0.00000000000E+00  0.00000000000E+00  0.24283263081E+02  0.24283263081E+02  0.00000000000E+00 0.  1.
         21   -1    0    0  502  503 -0.00000000000E+00 -0.00000000000E+00 -0.28369997441E+02  0.28369997441E+02  0.00000000000E+00 0. -1.
          2    1    1    2  501    0 -0.16640293630E+02 -0.18524671141E+02  0.62795290248E+01  0.25680640525E+02  0.00000000000E+00 0.  1.
         -2    1    1    2    0  503  0.16640293630E+02  0.18524671141E+02 -0.10366263385E+02  0.26972619998E+02  0.00000000000E+00 0. -1.
<mgrwt>
<rscale>  2 0.24901060E+02</rscale>
<asrwt>0</asrwt>
<pdfrwt beam="1">  1       21 0.37358867E-02 0.24901060E+02</pdfrwt>
<pdfrwt beam="2">  1       21 0.43646150E-02 0.24901060E+02</pdfrwt>
<totfact> 0.10319676E+08</totfact>
</mgrwt>
</event>
<event>
 4    1  0.2761157E+004  0.2397832E+02  0.7546771E-02  0.1676126E+00
         21   -1    0    0  503  502  0.00000000000E+00  0.00000000000E+00  0.56261239307E+02  0.56261239307E+02  0.00000000000E+00 0. -1.
         21   -1    0    0  501  503 -0.00000000000E+00 -0.00000000000E+00 -0.20021308891E+02  0.20021308891E+02  0.00000000000E+00 0.  1.
          2    1    1    2  501    0  0.22291917487E+02  0.88334799391E+01 -0.85672206667E+01  0.25462859679E+02  0.00000000000E+00 0.  1.
         -2    1    1    2    0  502 -0.22291917487E+02 -0.88334799391E+01  0.44807151082E+02  0.50819688519E+02  0.00000000000E+00 0. -1.
<mgrwt>
<rscale>  2 0.23978323E+02</rscale>
<asrwt>0</asrwt>
<pdfrwt beam="1">  1       21 0.86555752E-02 0.23978323E+02</pdfrwt>
<pdfrwt beam="2">  1       21 0.30802014E-02 0.23978323E+02</pdfrwt>
<totfact> 0.45839077E+07</totfact>
</mgrwt>
</event>
<event>
 4    1  0.2761157E+004  0.2968740E+02  0.7546771E-02  0.1601570E+00
         21   -1    0    0  501  502  0.00000000000E+00  0.00000000000E+00  0.41174124818E+02  0.41174124818E+02  0.00000000000E+00 0. -1.
         21   -1    0    0  502  503 -0.00000000000E+00 -0.00000000000E+00 -0.93010125222E+02  0.93010125222E+02  0.00000000000E+00 0.  1.
          2    1    1    2  501    0 -0.11019373238E+02 -0.27566560327E+02  0.32949795417E+02  0.44351221549E+02  0.00000000000E+00 0. -1.
         -2    1    1    2    0  503  0.11019373238E+02  0.27566560327E+02 -0.84785795822E+02  0.89833028492E+02  0.00000000000E+00 0.  1.
<mgrwt>
<rscale>  2 0.29687402E+02</rscale>
<asrwt>0</asrwt>
<pdfrwt beam="1">  1       21 0.63344808E-02 0.29687402E+02</pdfrwt>
<pdfrwt beam="2">  1       21 0.14309250E-01 0.29687402E+02</pdfrwt>
<totfact> 0.65276576E+06</totfact>
</mgrwt>
</event>
<event>
 4    1  0.2761157E+004  0.2067171E+02  0.7546771E-02  0.1732291E+00
         21   -1    0    0  503  502  0.00000000000E+00  0.00000000000E+00  0.18514468097E+02  0.18514468097E+02  0.00000000000E+00 0.  1.
         21   -1    0    0  501  503 -0.00000000000E+00 -0.00000000000E+00 -0.35158387334E+02  0.35158387334E+02  0.00000000000E+00 0. -1.
          2    1    1    2  501    0 -0.11321624497E+02 -0.17295681537E+02 -0.24051246024E+02  0.31714069691E+02  0.00000000000E+00 0. -1.
         -2    1    1    2    0  502  0.11321624497E+02  0.17295681537E+02  0.74073267872E+01  0.21958785740E+02  0.00000000000E+00 0.  1.
<mgrwt>
<rscale>  2 0.20671715E+02</rscale>
<asrwt>0</asrwt>
<pdfrwt beam="1">  1       21 0.28483797E-02 0.20671715E+02</pdfrwt>
<pdfrwt beam="2">  1       21 0.54089826E-02 0.20671715E+02</pdfrwt>
<totfact> 0.10621594E+08</totfact>
</mgrwt>
</event>
<event>
 4    1  0.2761157E+004  0.2851698E+02  0.7546771E-02  0.1615085E+00
         21   -1    0    0  503  502  0.00000000000E+00  0.00000000000E+00  0.79088214896E+03  0.79088214896E+03  0.00000000000E+00 0. -1.
         21   -1    0    0  501  503 -0.00000000000E+00 -0.00000000000E+00 -0.15221367707E+01  0.15221367707E+01  0.00000000000E+00 0.  1.
          2    1    1    2  501    0  0.71095555848E+01 -0.27616521010E+02  0.16899260117E+03  0.17138178801E+03  0.00000000000E+00 0.  1.
         -2    1    1    2    0  502 -0.71095555848E+01  0.27616521010E+02  0.62036741103E+03  0.62102249772E+03  0.00000000000E+00 0. -1.
<mgrwt>
<rscale>  2 0.28516978E+02</rscale>
<asrwt>0</asrwt>
<pdfrwt beam="1">  1       21 0.12167385E+00 0.28516978E+02</pdfrwt>
<pdfrwt beam="2">  1       21 0.23417552E-03 0.28516978E+02</pdfrwt>
<totfact> 0.15657379E+07</totfact>
</mgrwt>
</event>
<event>
 4    1  0.2761157E+004  0.2639152E+02  0.7546771E-02  0.1641784E+00
         21   -1    0    0  501  502  0.00000000000E+00  0.00000000000E+00  0.18301801514E+02  0.18301801514E+02  0.00000000000E+00 0.  1.
         21   -1    0    0  502  503 -0.00000000000E+00 -0.00000000000E+00 -0.38852689613E+02  0.38852689613E+02  0.00000000000E+00 0. -1.
          2    1    1    2  501    0 -0.21215631912E+02  0.15697426641E+02 -0.14364970418E+02  0.30047705664E+02  0.00000000000E+00 0. -1.
         -2    1    1    2    0  503  0.21215631912E+02 -0.15697426641E+02 -0.61859176817E+01  0.27106785463E+02  0.00000000000E+00 0.  1.
<mgrwt>
<rscale>  2 0.26391518E+02</rscale>
<asrwt>0</asrwt>
<pdfrwt beam="1">  1       21 0.28156618E-02 0.26391518E+02</pdfrwt>
<pdfrwt beam="2">  1       21 0.59773367E-02 0.26391518E+02</pdfrwt>
<totfact> 0.98728353E+07</totfact>
</mgrwt>
</event>
<event>
 4    1  0.2761157E+004  0.2713890E+02  0.7546771E-02  0.1632054E+00
         21   -1    0    0  501  502  0.00000000000E+00  0.00000000000E+00  0.46097567797E+01  0.46097567797E+01  0.00000000000E+00 0. -1.
         21   -1    0    0  502  503 -0.00000000000E+00 -0.00000000000E+00 -0.50805571346E+03  0.50805571346E+03  0.00000000000E+00 0.  1.
          2    1    1    2  501    0 -0.21573711650E+02 -0.16464955434E+02 -0.39489609085E+02  0.47916062208E+02  0.00000000000E+00 0. -1.
         -2    1    1    2    0  503  0.21573711650E+02  0.16464955434E+02 -0.46395634760E+03  0.46474940803E+03  0.00000000000E+00 0.  1.
<mgrwt>
<rscale>  2 0.27138898E+02</rscale>
<asrwt>0</asrwt>
<pdfrwt beam="1">  1       21 0.70919354E-03 0.27138898E+02</pdfrwt>
<pdfrwt beam="2">  1       21 0.78162396E-01 0.27138898E+02</pdfrwt>
<totfact> 0.79961223E+06</totfact>
</mgrwt>
</event>
<event>
 4    1  0.2761157E+004  0.2062050E+02  0.7546771E-02  0.1733263E+00
         21   -1    0    0  503  502  0.00000000000E+00  0.00000000000E+00  0.14017128162E+02  0.14017128162E+02  0.00000000000E+00 0.  1.
         21   -1    0    0  501  503 -0.00000000000E+00 -0.00000000000E+00 -0.30540769074E+02  0.30540769074E+02  0.00000000000E+00 0. -1.
          2    1    1    2  501    0 -0.17301122265E+02  0.11219462625E+02 -0.10091927468E+02  0.22957616889E+02  0.00000000000E+00 0. -1.
         -2    1    1    2    0  502  0.17301122265E+02 -0.11219462625E+02 -0.64317134447E+01  0.21600280347E+02  0.00000000000E+00 0.  1.
<mgrwt>
<rscale>  2 0.20620504E+02</rscale>
<asrwt>0</asrwt>
<pdfrwt beam="1">  1       21 0.21564813E-02 0.20620504E+02</pdfrwt>
<pdfrwt beam="2">  1       21 0.46985799E-02 0.20620504E+02</pdfrwt>
<totfact> 0.20364921E+08</totfact>
</mgrwt>
</event>
<event>
 4    1  0.2761157E+004  0.3703149E+02  0.7546771E-02  0.1531267E+00
         21   -1    0    0  501  502  0.00000000000E+00  0.00000000000E+00  0.95087461226E+00  0.95087461226E+00  0.00000000000E+00 0. -1.
         21   -1    0    0  502  503 -0.00000000000E+00 -0.00000000000E+00 -0.18430792025E+04  0.18430792025E+04  0.00000000000E+00 0.  1.
          2    1    1    2  501    0  0.17427661644E+02  0.32674271660E+02 -0.49104864324E+03  0.49244299309E+03  0.00000000000E+00 0. -1.
         -2    1    1    2    0  503 -0.17427661644E+02 -0.32674271660E+02 -0.13510796847E+04  0.13515870841E+04  0.00000000000E+00 0.  1.
<mgrwt>
<rscale>  2 0.37031492E+02</rscale>
<asrwt>0</asrwt>
<pdfrwt beam="1">  1       21 0.14628920E-03 0.37031492E+02</pdfrwt>
<pdfrwt beam="2">  1       21 0.28354910E+00 0.37031492E+02</pdfrwt>
<totfact> 0.33813590E+06</totfact>
</mgrwt>
</event>
<event>
 4    1  0.2761157E+004  0.2166250E+02  0.7546771E-02  0.1714155E+00
         21   -1    0    0  501  502  0.00000000000E+00  0.00000000000E+00  0.10125617315E+02  0.10125617315E+02  0.00000000000E+00 0.  1.
         21   -1    0    0  502  503 -0.00000000000E+00 -0.00000000000E+00 -0.67001231079E+02  0.67001231079E+02  0.00000000000E+00 0. -1.
          2    1    1    2  501    0  0.21622439400E+02  0.13168925600E+01 -0.70252921512E+01  0.22773204022E+02  0.00000000000E+00 0.  1.
         -2    1    1    2    0  503 -0.21622439400E+02 -0.13168925600E+01 -0.49850321613E+02  0.54353644372E+02  0.00000000000E+00 0. -1.
<mgrwt>
<rscale>  2 0.21662504E+02</rscale>
<asrwt>0</asrwt>
<pdfrwt beam="1">  1       21 0.15577873E-02 0.21662504E+02</pdfrwt>
<pdfrwt beam="2">  1       21 0.10307882E-01 0.21662504E+02</pdfrwt>
<totfact> 0.95490076E+07</totfact>
</mgrwt>
</event>
<event>
 4    1  0.2761157E+004  0.2160397E+02  0.7546771E-02  0.1715193E+00
         21   -1    0    0  503  502  0.00000000000E+00  0.00000000000E+00  0.11806442238E+02  0.11806442238E+02  0.00000000000E+00 0. -1.
         21   -1    0    0  501  503 -0.00000000000E+00 -0.00000000000E+00 -0.62368916738E+02  0.62368916738E+02  0.00000000000E+00 0.  1.
          2    1    1    2  501    0 -0.96368455959E+01  0.19335528704E+02 -0.47723412438E+02  0.52385642671E+02  0.00000000000E+00 0.  1.
         -2    1    1    2    0  502  0.96368455959E+01 -0.19335528704E+02 -0.28390620622E+01  0.21789716306E+02  0.00000000000E+00 0. -1.
<mgrwt>
<rscale>  2 0.21603969E+02</rscale>
<asrwt>0</asrwt>
<pdfrwt beam="1">  1       21 0.18163757E-02 0.21603969E+02</pdfrwt>
<pdfrwt beam="2">  1       21 0.95952181E-02 0.21603969E+02</pdfrwt>
<totfact> 0.85000423E+07</totfact>
</mgrwt>
</event>
<event>
 4    1  0.2761157E+004  0.3933886E+02  0.7546771E-02  0.1513134E+00
         21   -1    0    0  501  502  0.00000000000E+00  0.00000000000E+00  0.58155657227E+03  0.58155657227E+03  0.00000000000E+00 0.  1.
         21   -1    0    0  502  503 -0.00000000000E+00 -0.00000000000E+00 -0.74656544642E+01  0.74656544642E+01  0.00000000000E+00 0. -1.
          2    1    1    2  501    0  0.34601165731E+02 -0.18716435788E+02  0.52330915338E+03  0.52478568544E+03  0.00000000000E+00 0.  1.
         -2    1    1    2    0  503 -0.34601165731E+02  0.18716435788E+02  0.50781764433E+02  0.64236541294E+02  0.00000000000E+00 0. -1.
<mgrwt>
<rscale>  2 0.39338857E+02</rscale>
<asrwt>0</asrwt>
<pdfrwt beam="1">  1       21 0.89470207E-01 0.39338857E+02</pdfrwt>
<pdfrwt beam="2">  1       21 0.11485627E-02 0.39338857E+02</pdfrwt>
<totfact> 0.30039226E+06</totfact>
</mgrwt>
</event>
<event>
 4    1  0.2761157E+004  0.3737043E+02  0.7546771E-02  0.1528505E+00
         21   -1    0    0  501  502  0.00000000000E+00  0.00000000000E+00  0.39937337558E+01  0.39937337558E+01  0.00000000000E+00 0.  1.
         21   -1    0    0  502  503 -0.00000000000E+00 -0.00000000000E+00 -0.44014638249E+03  0.44014638249E+03  0.00000000000E+00 0. -1.
          2    1    1    2  501    0 -0.12201955275E+02 -0.35322254121E+02 -0.11740107561E+03  0.12320536475E+03  0.00000000000E+00 0.  1.
         -2    1    1    2    0  503  0.12201955275E+02  0.35322254121E+02 -0.31875157312E+03  0.32093475149E+03  0.00000000000E+00 0. -1.
<mgrwt>
<rscale>  2 0.37370434E+02</rscale>
<asrwt>0</asrwt>
<pdfrwt beam="1">  1       21 0.61442021E-03 0.37370434E+02</pdfrwt>
<pdfrwt beam="2">  1       21 0.67714869E-01 0.37370434E+02</pdfrwt>
<totfact> 0.14006306E+07</totfact>
</mgrwt>
</event>
<event>
 4    1  0.2761157E+004  0.2249145E+02  0.7546771E-02  0.1699889E+00
         21   -1    0    0  503  502  0.00000000000E+00  0.00000000000E+00  0.45382365878E+01  0.45382365878E+01  0.00000000000E+00 0.  1.
         21   -1    0    0  501  503 -0.00000000000E+00 -0.00000000000E+00 -0.17544258887E+03  0.17544258887E+03  0.00000000000E+00 0. -1.
          2    1    1    2  501    0 -0.20623136039E+02  0.89750522074E+01 -0.13979405077E+03  0.14159181450E+03  0.00000000000E+00 0. -1.
         -2    1    1    2    0  502  0.20623136039E+02 -0.89750522074E+01 -0.31110301506E+02  0.38389010953E+02  0.00000000000E+00 0.  1.
<mgrwt>
<rscale>  2 0.22491450E+02</rscale>
<asrwt>0</asrwt>
<pdfrwt beam="1">  1       21 0.69819034E-03 0.22491450E+02</pdfrwt>
<pdfrwt beam="2">  1       21 0.26991164E-01 0.22491450E+02</pdfrwt>
<totfact> 0.61629366E+07</totfact>
</mgrwt>
</event>
<event>
 4    1  0.2761157E+004  0.2206647E+02  0.7546771E-02  0.1707105E+00
         21   -1    0    0  503  502  0.00000000000E+00  0.00000000000E+00  0.17528789230E+03  0.17528789230E+03  0.00000000000E+00 0.  1.
         21   -1    0    0  501  503 -0.00000000000E+00 -0.00000000000E+00 -0.34078853417E+01  0.34078853417E+01  0.00000000000E+00 0. -1.
          2    1    1    2  501    0  0.42982991719E+01  0.21643795000E+02  0.47523934208E+02  0.52397075876E+02  0.00000000000E+00 0. -1.
         -2    1    1    2    0  502 -0.42982991719E+01 -0.21643795000E+02  0.12435607275E+03  0.12629870176E+03  0.00000000000E+00 0.  1.
<mgrwt>
<rscale>  2 0.22066473E+02</rscale>
<asrwt>0</asrwt>
<pdfrwt beam="1">  1       21 0.26967361E-01 0.22066473E+02</pdfrwt>
<pdfrwt beam="2">  1       21 0.52429019E-03 0.22066473E+02</pdfrwt>
<totfact> 0.93851343E+07</totfact>
</mgrwt>
</event>
<event>
 4    1  0.2761157E+004  0.2166397E+02  0.7546771E-02  0.1714129E+00
         21   -1    0    0  501  502  0.00000000000E+00  0.00000000000E+00  0.25080053613E+02  0.25080053613E+02  0.00000000000E+00 0. -1.
         21   -1    0    0  502  503 -0.00000000000E+00 -0.00000000000E+00 -0.21292778749E+02  0.21292778749E+02  0.00000000000E+00 0.  1.
          2    1    1    2  501    0 -0.20116443082E+02  0.80409232210E+01  0.99639984272E+01  0.23845523546E+02  0.00000000000E+00 0.  1.
         -2    1    1    2    0  503  0.20116443082E+02 -0.80409232210E+01 -0.61767235632E+01  0.22527308816E+02  0.00000000000E+00 0. -1.
<mgrwt>
<rscale>  2 0.21663973E+02</rscale>
<asrwt>0</asrwt>
<pdfrwt beam="1">  1       21 0.38584698E-02 0.21663973E+02</pdfrwt>
<pdfrwt beam="2">  1       21 0.32758121E-02 0.21663973E+02</pdfrwt>
<totfact> 0.14785038E+08</totfact>
</mgrwt>
</event>
<event>
 4    1  0.2761157E+004  0.2557855E+02  0.7546771E-02  0.1652828E+00
         21   -1    0    0  503  502  0.00000000000E+00  0.00000000000E+00  0.10286751930E+03  0.10286751930E+03  0.00000000000E+00 0. -1.
         21   -1    0    0  501  503 -0.00000000000E+00 -0.00000000000E+00 -0.10888901048E+02  0.10888901048E+02  0.00000000000E+00 0.  1.
          2    1    1    2  501    0 -0.25312388435E+02 -0.36803697709E+01  0.93085094112E+01  0.27219670780E+02  0.00000000000E+00 0.  1.
         -2    1    1    2    0  502  0.25312388435E+02  0.36803697709E+01  0.82670108842E+02  0.86536749569E+02  0.00000000000E+00 0. -1.
<mgrwt>
<rscale>  2 0.25578548E+02</rscale>
<asrwt>0</asrwt>
<pdfrwt beam="1">  1       21 0.15825772E-01 0.25578548E+02</pdfrwt>
<pdfrwt beam="2">  1       21 0.16752156E-02 0.25578548E+02</pdfrwt>
<totfact> 0.43357549E+07</totfact>
</mgrwt>
</event>
<event>
 4    1  0.2761157E+004  0.2034471E+02  0.7546771E-02  0.1738559E+00
         21   -1    0    0  501  502  0.00000000000E+00  0.00000000000E+00  0.38068720521E+02  0.38068720521E+02  0.00000000000E+00 0. -1.
         21   -1    0    0  502  503 -0.00000000000E+00 -0.00000000000E+00 -0.14514327960E+02  0.14514327960E+02  0.00000000000E+00 0.  1.
          2    1    1    2  501    0  0.18149373729E+02 -0.91927982209E+01  0.24946686311E+02  0.32190751215E+02  0.00000000000E+00 0. -1.
         -2    1    1    2    0  503 -0.18149373729E+02  0.91927982209E+01 -0.13922937506E+01  0.20392297266E+02  0.00000000000E+00 0.  1.
<mgrwt>
<rscale>  2 0.20344712E+02</rscale>
<asrwt>0</asrwt>
<pdfrwt beam="1">  1       21 0.58567262E-02 0.20344712E+02</pdfrwt>
<pdfrwt beam="2">  1       21 0.22329736E-02 0.20344712E+02</pdfrwt>
<totfact> 0.13548059E+08</totfact>
</mgrwt>
</event>
<event>
 4    1  0.2761157E+004  0.2167432E+02  0.7546771E-02  0.1713946E+00
         21   -1    0    0  503  502  0.00000000000E+00  0.00000000000E+00  0.11032080842E+01  0.11032080842E+01  0.00000000000E+00 0. -1.
         21   -1    0    0  501  503 -0.00000000000E+00 -0.00000000000E+00 -0.11824576712E+04  0.11824576712E+04  0.00000000000E+00 0.  1.
          2    1    1    2  501    0 -0.13260250156E+01 -0.21633716774E+02 -0.10640570179E+04  0.10642777426E+04  0.00000000000E+00 0.  1.
         -2    1    1    2    0  502  0.13260250156E+01  0.21633716774E+02 -0.11729744518E+03  0.11928313666E+03  0.00000000000E+00 0. -1.
<mgrwt>
<rscale>  2 0.21674318E+02</rscale>
<asrwt>0</asrwt>
<pdfrwt beam="1">  1       21 0.16972452E-03 0.21674318E+02</pdfrwt>
<pdfrwt beam="2">  1       21 0.18191635E+00 0.21674318E+02</pdfrwt>
<totfact> 0.92009921E+06</totfact>
</mgrwt>
</event>
<event>
 4    1  0.2761157E+004  0.2115976E+02  0.7546771E-02  0.1723202E+00
         21   -1    0    0  503  502  0.00000000000E+00  0.00000000000E+00  0.83481413660E+01  0.83481413660E+01  0.00000000000E+00 0.  1.
         21   -1    0    0  501  503 -0.00000000000E+00 -0.00000000000E+00 -0.86800412534E+02  0.86800412534E+02  0.00000000000E+00 0. -1.
          2    1    1    2  501    0  0.16482391763E+02 -0.13268990906E+02 -0.68634271473E+02  0.71821992304E+02  0.00000000000E+00 0. -1.
         -2    1    1    2    0  502 -0.16482391763E+02  0.13268990906E+02 -0.98179996945E+01  0.23326561596E+02  0.00000000000E+00 0.  1.
<mgrwt>
<rscale>  2 0.21159758E+02</rscale>
<asrwt>0</asrwt>
<pdfrwt beam="1">  1       21 0.12843295E-02 0.21159758E+02</pdfrwt>
<pdfrwt beam="2">  1       21 0.13353909E-01 0.21159758E+02</pdfrwt>
<totfact> 0.82510461E+07</totfact>
</mgrwt>
</event>
<event>
 4    1  0.2761157E+004  0.2433854E+02  0.7546771E-02  0.1670688E+00
         21   -1    0    0  501  502  0.00000000000E+00  0.00000000000E+00  0.89531646579E+01  0.89531646579E+01  0.00000000000E+00 0.  1.
         21   -1    0    0  502  503 -0.00000000000E+00 -0.00000000000E+00 -0.77779369256E+02  0.77779369256E+02  0.00000000000E+00 0. -1.
          2    1    1    2  501    0  0.16240859554E+02  0.18127306061E+02 -0.17653553603E+02  0.30066803935E+02  0.00000000000E+00 0.  1.
         -2    1    1    2    0  503 -0.16240859554E+02 -0.18127306061E+02 -0.51172650995E+02  0.56665729978E+02  0.00000000000E+00 0. -1.
<mgrwt>
<rscale>  2 0.24338544E+02</rscale>
<asrwt>0</asrwt>
<pdfrwt beam="1">  1       21 0.13774099E-02 0.24338544E+02</pdfrwt>
<pdfrwt beam="2">  1       21 0.11966057E-01 0.24338544E+02</pdfrwt>
<totfact> 0.92789876E+07</totfact>
</mgrwt>
</event>
<event>
 4    1  0.2761157E+004  0.3032212E+02  0.7546771E-02  0.1594555E+00
         21   -1    0    0  503  502  0.00000000000E+00  0.00000000000E+00  0.88206335066E+02  0.88206335066E+02  0.00000000000E+00 0. -1.
         21   -1    0    0  501  503 -0.00000000000E+00 -0.00000000000E+00 -0.11007636842E+02  0.11007636842E+02  0.00000000000E+00 0.  1.
          2    1    1    2  501    0 -0.24709130466E+02  0.17575263907E+02  0.27173163739E+02  0.40716235796E+02  0.00000000000E+00 0.  1.
         -2    1    1    2    0  502  0.24709130466E+02 -0.17575263907E+02  0.50025534485E+02  0.58497736113E+02  0.00000000000E+00 0. -1.
<mgrwt>
<rscale>  2 0.30322121E+02</rscale>
<asrwt>0</asrwt>
<pdfrwt beam="1">  1       21 0.13570205E-01 0.30322121E+02</pdfrwt>
<pdfrwt beam="2">  1       21 0.16934826E-02 0.30322121E+02</pdfrwt>
<totfact> 0.57685875E+07</totfact>
</mgrwt>
</event>
<event>
 4    1  0.2761157E+004  0.2166357E+02  0.7546771E-02  0.1714136E+00
         21   -1    0    0  503  502  0.00000000000E+00  0.00000000000E+00  0.21025946736E+01  0.21025946736E+01  0.00000000000E+00 0. -1.
         21   -1    0    0  501  503 -0.00000000000E+00 -0.00000000000E+00 -0.34619286331E+03  0.34619286331E+03  0.00000000000E+00 0.  1.
          2    1    1    2  501    0  0.18191136133E+02 -0.11764039714E+02 -0.27584326575E+03  0.27669264053E+03  0.00000000000E+00 0.  1.
         -2    1    1    2    0  502 -0.18191136133E+02  0.11764039714E+02 -0.68247002883E+02  0.71602817450E+02  0.00000000000E+00 0. -1.
<mgrwt>
<rscale>  2 0.21663565E+02</rscale>
<asrwt>0</asrwt>
<pdfrwt beam="1">  1       21 0.32347607E-03 0.21663565E+02</pdfrwt>
<pdfrwt beam="2">  1       21 0.53260446E-01 0.21663565E+02</pdfrwt>
<totfact> 0.53099946E+07</totfact>
</mgrwt>
</event>
<event>
 4    1  0.2761157E+004  0.3140454E+02  0.7546771E-02  0.1583063E+00
         21   -1    0    0  503  502  0.00000000000E+00  0.00000000000E+00  0.43079686231E+03  0.43079686231E+03  0.00000000000E+00 0.  1.
         21   -1    0    0  501  503 -0.00000000000E+00 -0.00000000000E+00 -0.23203243516E+01  0.23203243516E+01  0.00000000000E+00 0. -1.
          2    1    1    2  501    0 -0.31275976912E+02 -0.28387474078E+01  0.18921780730E+03  0.19180621423E+03  0.00000000000E+00 0. -1.
         -2    1    1    2    0  502  0.31275976912E+02  0.28387474078E+01  0.23925873065E+03  0.24131097242E+03  0.00000000000E+00 0.  1.
<mgrwt>
<rscale>  2 0.31404541E+02</rscale>
<asrwt>0</asrwt>
<pdfrwt beam="1">  1       21 0.66276377E-01 0.31404541E+02</pdfrwt>
<pdfrwt beam="2">  1       21 0.35697332E-03 0.31404541E+02</pdfrwt>
<totfact> 0.32025568E+07</totfact>
</mgrwt>
</event>
<event>
 4    1  0.2761157E+004  0.2434969E+02  0.7546771E-02  0.1670522E+00
         21   -1    0    0  503  502  0.00000000000E+00  0.00000000000E+00  0.18917803862E+02  0.18917803862E+02  0.00000000000E+00 0. -1.
         21   -1    0    0  501  503 -0.00000000000E+00 -0.00000000000E+00 -0.13389472784E+03  0.13389472784E+03  0.00000000000E+00 0.  1.
          2    1    1    2  501    0 -0.24147568251E+02  0.31308424077E+01 -0.12435709997E+03  0.12671856825E+03  0.00000000000E+00 0.  1.
         -2    1    1    2    0  502  0.24147568251E+02 -0.31308424077E+01  0.93801759970E+01  0.26093963446E+02  0.00000000000E+00 0. -1.
<mgrwt>
<rscale>  2 0.24349686E+02</rscale>
<asrwt>0</asrwt>
<pdfrwt beam="1">  1       21 0.29104314E-02 0.24349686E+02</pdfrwt>
<pdfrwt beam="2">  1       21 0.20599189E-01 0.24349686E+02</pdfrwt>
<totfact> 0.11575031E+07</totfact>
</mgrwt>
</event>
<event>
 4    1  0.2761157E+004  0.2622416E+02  0.7546771E-02  0.1644017E+00
         21   -1    0    0  501  502  0.00000000000E+00  0.00000000000E+00  0.14084113566E+03  0.14084113566E+03  0.00000000000E+00 0.  1.
         21   -1    0    0  502  503 -0.00000000000E+00 -0.00000000000E+00 -0.65264917933E+01  0.65264917933E+01  0.00000000000E+00 0. -1.
          2    1    1    2  501    0 -0.26085382912E+02  0.26943601786E+01  0.10413462103E+03  0.10738587465E+03  0.00000000000E+00 0.  1.
         -2    1    1    2    0  503  0.26085382912E+02 -0.26943601786E+01  0.30180022839E+02  0.39981752801E+02  0.00000000000E+00 0. -1.
<mgrwt>
<rscale>  2 0.26224164E+02</rscale>
<asrwt>0</asrwt>
<pdfrwt beam="1">  1       21 0.21667865E-01 0.26224164E+02</pdfrwt>
<pdfrwt beam="2">  1       21 0.10040758E-02 0.26224164E+02</pdfrwt>
<totfact> 0.54923305E+07</totfact>
</mgrwt>
</event>
<event>
 4    1  0.2761157E+004  0.2688842E+02  0.7546771E-02  0.1635271E+00
         21   -1    0    0  501  502  0.00000000000E+00  0.00000000000E+00  0.15342122169E+02  0.15342122169E+02  0.00000000000E+00 0.  1.
         21   -1    0    0  502  503 -0.00000000000E+00 -0.00000000000E+00 -0.13324446074E+03  0.13324446074E+03  0.00000000000E+00 0. -1.
          2    1    1    2  501    0  0.15507673160E+02  0.21965868358E+02  0.77674457772E+00  0.26899639992E+02  0.00000000000E+00 0.  1.
         -2    1    1    2    0  503 -0.15507673160E+02 -0.21965868358E+02 -0.11867908315E+03  0.12168694292E+03  0.00000000000E+00 0. -1.
<mgrwt>
<rscale>  2 0.26888423E+02</rscale>
<asrwt>0</asrwt>
<pdfrwt beam="1">  1       21 0.23603265E-02 0.26888423E+02</pdfrwt>
<pdfrwt beam="2">  1       21 0.20499147E-01 0.26888423E+02</pdfrwt>
<totfact> 0.16471531E+07</totfact>
</mgrwt>
</event>
<event>
 4    1  0.2761157E+004  0.3844620E+02  0.7546771E-02  0.1519967E+00
         21   -1    0    0  503  502  0.00000000000E+00  0.00000000000E+00  0.76680134232E+02  0.76680134232E+02  0.00000000000E+00 0.  1.
         21   -1    0    0  501  503 -0.00000000000E+00 -0.00000000000E+00 -0.77860270822E+03  0.77860270822E+03  0.00000000000E+00 0. -1.
          2    1    1    2  501    0 -0.65735472826E+01 -0.37880055016E+02 -0.77327585046E+03  0.77423100623E+03  0.00000000000E+00 0. -1.
         -2    1    1    2    0  502  0.65735472826E+01  0.37880055016E+02  0.71353276475E+02  0.81051836227E+02  0.00000000000E+00 0.  1.
<mgrwt>
<rscale>  2 0.38446197E+02</rscale>
<asrwt>0</asrwt>
<pdfrwt beam="1">  1       21 0.11796944E-01 0.38446197E+02</pdfrwt>
<pdfrwt beam="2">  1       21 0.11978503E+00 0.38446197E+02</pdfrwt>
<totfact> 0.36864771E+04</totfact>
</mgrwt>
</event>
<event>
 4    1  0.2761157E+004  0.2690142E+02  0.7546771E-02  0.1635103E+00
         21   -1    0    0  501  502  0.00000000000E+00  0.00000000000E+00  0.11072334619E+03  0.11072334619E+03  0.00000000000E+00 0. -1.
         21   -1    0    0  502  503 -0.00000000000E+00 -0.00000000000E+00 -0.65545159804E+01  0.65545159804E+01  0.00000000000E+00 0.  1.
          2    1    1    2  501    0 -0.91485003936E+01  0.25298054964E+02  0.55201943843E+02  0.61407990102E+02  0.00000000000E+00 0. -1.
         -2    1    1    2    0  503  0.91485003936E+01 -0.25298054964E+02  0.48966886366E+02  0.55869872067E+02  0.00000000000E+00 0.  1.
<mgrwt>
<rscale>  2 0.26901425E+02</rscale>
<asrwt>0</asrwt>
<pdfrwt beam="1">  1       21 0.17034360E-01 0.26901425E+02</pdfrwt>
<pdfrwt beam="2">  1       21 0.10083872E-02 0.26901425E+02</pdfrwt>
<totfact> 0.83632834E+07</totfact>
</mgrwt>
</event>
<event>
 4    1  0.2761157E+004  0.2951270E+02  0.7546771E-02  0.1603538E+00
         21   -1    0    0  503  502  0.00000000000E+00  0.00000000000E+00  0.13825467672E+02  0.13825467672E+02  0.00000000000E+00 0. -1.
         21   -1    0    0  501  503 -0.00000000000E+00 -0.00000000000E+00 -0.14742144741E+03  0.14742144741E+03  0.00000000000E+00 0.  1.
          2    1    1    2  501    0 -0.11342525877E+02  0.27246033320E+02 -0.12780903366E+03  0.13117220860E+03  0.00000000000E+00 0.  1.
         -2    1    1    2    0  502  0.11342525877E+02 -0.27246033320E+02 -0.57869460799E+01  0.30074706480E+02  0.00000000000E+00 0. -1.
<mgrwt>
<rscale>  2 0.29512696E+02</rscale>
<asrwt>0</asrwt>
<pdfrwt beam="1">  1       21 0.21269952E-02 0.29512696E+02</pdfrwt>
<pdfrwt beam="2">  1       21 0.22680221E-01 0.29512696E+02</pdfrwt>
<totfact> 0.16468255E+07</totfact>
</mgrwt>
</event>
<event>
 4    1  0.2761157E+004  0.2310001E+02  0.7546771E-02  0.1689894E+00
         21   -1    0    0  503  502  0.00000000000E+00  0.00000000000E+00  0.19219435878E+01  0.19219435878E+01  0.00000000000E+00 0.  1.
         21   -1    0    0  501  503 -0.00000000000E+00 -0.00000000000E+00 -0.37883074788E+03  0.37883074788E+03  0.00000000000E+00 0. -1.
          2    1    1    2  501    0 -0.19132295573E+02 -0.12944722120E+02 -0.28684608334E+03  0.28777471413E+03  0.00000000000E+00 0. -1.
         -2    1    1    2    0  502  0.19132295573E+02  0.12944722120E+02 -0.90062720952E+02  0.92977977338E+02  0.00000000000E+00 0.  1.
<mgrwt>
<rscale>  2 0.23100012E+02</rscale>
<asrwt>0</asrwt>
<pdfrwt beam="1">  1       21 0.29568331E-03 0.23100012E+02</pdfrwt>
<pdfrwt beam="2">  1       21 0.58281717E-01 0.23100012E+02</pdfrwt>
<totfact> 0.51446403E+07</totfact>
</mgrwt>
</event>
<event>
 4    1  0.2761157E+004  0.2555654E+02  0.7546771E-02  0.1653134E+00
         21   -1    0    0  503  502  0.00000000000E+00  0.00000000000E+00  0.50779742718E+03  0.50779742718E+03  0.00000000000E+00 0. -1.
         21   -1    0    0  501  503 -0.00000000000E+00 -0.00000000000E+00 -0.15909895798E+01  0.15909895798E+01  0.00000000000E+00 0.  1.
          2    1    1    2  501    0 -0.10836671656E+02  0.23145266747E+02  0.14162897079E+03  0.14391630273E+03  0.00000000000E+00 0.  1.
         -2    1    1    2    0  502  0.10836671656E+02 -0.23145266747E+02  0.36457746681E+03  0.36547211402E+03  0.00000000000E+00 0. -1.
<mgrwt>
<rscale>  2 0.25556542E+02</rscale>
<asrwt>0</asrwt>
<pdfrwt beam="1">  1       21 0.78122552E-01 0.25556542E+02</pdfrwt>
<pdfrwt beam="2">  1       21 0.24476803E-03 0.25556542E+02</pdfrwt>
<totfact> 0.38053942E+07</totfact>
</mgrwt>
</event>
<event>
 4    1  0.2761157E+004  0.3460908E+02  0.7546771E-02  0.1552100E+00
         21   -1    0    0  501  502  0.00000000000E+00  0.00000000000E+00  0.40613885508E+02  0.40613885508E+02  0.00000000000E+00 0. -1.
         21   -1    0    0  502  503 -0.00000000000E+00 -0.00000000000E+00 -0.28061374515E+03  0.28061374515E+03  0.00000000000E+00 0.  1.
          2    1    1    2  501    0 -0.34270104045E+02  0.48320121176E+01  0.31939506605E+02  0.47094802840E+02  0.00000000000E+00 0. -1.
         -2    1    1    2    0  503  0.34270104045E+02 -0.48320121176E+01 -0.27193936625E+03  0.27413282782E+03  0.00000000000E+00 0.  1.
<mgrwt>
<rscale>  2 0.34609079E+02</rscale>
<asrwt>0</asrwt>
<pdfrwt beam="1">  1       21 0.62482900E-02 0.34609079E+02</pdfrwt>
<pdfrwt beam="2">  1       21 0.43171346E-01 0.34609079E+02</pdfrwt>
<totfact> 0.91626177E+05</totfact>
</mgrwt>
</event>
<event>
 4    1  0.2761157E+004  0.2238834E+02  0.7546771E-02  0.1701621E+00
         21   -1    0    0  501  502  0.00000000000E+00  0.00000000000E+00  0.15654197190E+03  0.15654197190E+03  0.00000000000E+00 0. -1.
         21   -1    0    0  502  503 -0.00000000000E+00 -0.00000000000E+00 -0.75719649044E+01  0.75719649044E+01  0.00000000000E+00 0.  1.
          2    1    1    2  501    0  0.13146649856E+02  0.18121904201E+02  0.13682304978E+03  0.13864265133E+03  0.00000000000E+00 0. -1.
         -2    1    1    2    0  503 -0.13146649856E+02 -0.18121904201E+02  0.12146957207E+02  0.25471285474E+02  0.00000000000E+00 0.  1.
<mgrwt>
<rscale>  2 0.22388341E+02</rscale>
<asrwt>0</asrwt>
<pdfrwt beam="1">  1       21 0.24083378E-01 0.22388341E+02</pdfrwt>
<pdfrwt beam="2">  1       21 0.11649178E-02 0.22388341E+02</pdfrwt>
<totfact> 0.35070922E+07</totfact>
</mgrwt>
</event>
<event>
 4    1  0.2761157E+004  0.3294763E+02  0.7546771E-02  0.1567620E+00
         21   -1    0    0  503  502  0.00000000000E+00  0.00000000000E+00  0.88511983736E+02  0.88511983736E+02  0.00000000000E+00 0. -1.
         21   -1    0    0  501  503 -0.00000000000E+00 -0.00000000000E+00 -0.15679106923E+02  0.15679106923E+02  0.00000000000E+00 0.  1.
          2    1    1    2  501    0 -0.92983487554E+01  0.31608338391E+02  0.12104663551E+02  0.35100843653E+02  0.00000000000E+00 0. -1.
         -2    1    1    2    0  502  0.92983487554E+01 -0.31608338391E+02  0.60728213262E+02  0.69090247007E+02  0.00000000000E+00 0.  1.
<mgrwt>
<rscale>  2 0.32947630E+02</rscale>
<asrwt>0</asrwt>
<pdfrwt beam="1">  1       21 0.13617228E-01 0.32947630E+02</pdfrwt>
<pdfrwt beam="2">  1       21 0.24121703E-02 0.32947630E+02</pdfrwt>
<totfact> 0.33687689E+07</totfact>
</mgrwt>
</event>
<event>
 4    1  0.2761157E+004  0.2701604E+02  0.7546771E-02  0.1633626E+00
         21   -1    0    0  501  502  0.00000000000E+00  0.00000000000E+00  0.13972174656E+03  0.13972174656E+03  0.00000000000E+00 0.  1.
         21   -1    0    0  502  503 -0.00000000000E+00 -0.00000000000E+00 -0.52672481452E+01  0.52672481452E+01  0.00000000000E+00 0. -1.
          2    1    1    2  501    0 -0.82602073287E+01 -0.25722271607E+02  0.60636512791E+02  0.66382625476E+02  0.00000000000E+00 0.  1.
         -2    1    1    2    0  503  0.82602073287E+01  0.25722271607E+02  0.73817985623E+02  0.78606369228E+02  0.00000000000E+00 0. -1.
<mgrwt>
<rscale>  2 0.27016037E+02</rscale>
<asrwt>0</asrwt>
<pdfrwt beam="1">  1       21 0.21495651E-01 0.27016037E+02</pdfrwt>
<pdfrwt beam="2">  1       21 0.81034597E-03 0.27016037E+02</pdfrwt>
<totfact> 0.77459375E+07</totfact>
</mgrwt>
</event>
<event>
 4    1  0.2761157E+004  0.2703742E+02  0.7546771E-02  0.1633352E+00
         21   -1    0    0  503  502  0.00000000000E+00  0.00000000000E+00  0.37037355672E+01  0.37037355672E+01  0.00000000000E+00 0. -1.
         21   -1    0    0  501  503 -0.00000000000E+00 -0.00000000000E+00 -0.27966320459E+03  0.27966320459E+03  0.00000000000E+00 0.  1.
          2    1    1    2  501    0  0.26875747041E+02  0.29523229235E+01 -0.21483476889E+03  0.21652944352E+03  0.00000000000E+00 0.  1.
         -2    1    1    2    0  502 -0.26875747041E+02 -0.29523229235E+01 -0.61124700137E+02  0.66837496636E+02  0.00000000000E+00 0. -1.
<mgrwt>
<rscale>  2 0.27037418E+02</rscale>
<asrwt>0</asrwt>
<pdfrwt beam="1">  1       21 0.56980542E-03 0.27037418E+02</pdfrwt>
<pdfrwt beam="2">  1       21 0.43025112E-01 0.27037418E+02</pdfrwt>
<totfact> 0.36659390E+07</totfact>
</mgrwt>
</event>
<event>
 4    1  0.2761157E+004  0.2970979E+02  0.7546771E-02  0.1601319E+00
         21   -1    0    0  503  502  0.00000000000E+00  0.00000000000E+00  0.12818532764E+02  0.12818532764E+02  0.00000000000E+00 0.  1.
         21   -1    0    0  501  503 -0.00000000000E+00 -0.00000000000E+00 -0.69555976433E+02  0.69555976433E+02  0.00000000000E+00 0. -1.
          2    1    1    2  501    0 -0.10499179665E+02  0.27792787039E+02 -0.24245905076E+02  0.38347564433E+02  0.00000000000E+00 0. -1.
         -2    1    1    2    0  502  0.10499179665E+02 -0.27792787039E+02 -0.32491538594E+02  0.44026944763E+02  0.00000000000E+00 0.  1.
<mgrwt>
<rscale>  2 0.29709793E+02</rscale>
<asrwt>0</asrwt>
<pdfrwt beam="1">  1       21 0.19720820E-02 0.29709793E+02</pdfrwt>
<pdfrwt beam="2">  1       21 0.10700919E-01 0.29709793E+02</pdfrwt>
<totfact> 0.67865190E+07</totfact>
</mgrwt>
</event>
<event>
 4    1  0.2761157E+004  0.2064865E+02  0.7546771E-02  0.1732728E+00
         21   -1    0    0  501  502  0.00000000000E+00  0.00000000000E+00  0.32617663638E+02  0.32617663638E+02  0.00000000000E+00 0. -1.
         21   -1    0    0  502  503 -0.00000000000E+00 -0.00000000000E+00 -0.18200435829E+02  0.18200435829E+02  0.00000000000E+00 0.  1.
          2    1    1    2  501    0  0.19274394128E+02 -0.74070637664E+01  0.20696831953E+02  0.29235692492E+02  0.00000000000E+00 0. -1.
         -2    1    1    2    0  503 -0.19274394128E+02  0.74070637664E+01 -0.62796041436E+01  0.21582406975E+02  0.00000000000E+00 0.  1.
<mgrwt>
<rscale>  2 0.20648653E+02</rscale>
<asrwt>0</asrwt>
<pdfrwt beam="1">  1       21 0.50181021E-02 0.20648653E+02</pdfrwt>
<pdfrwt beam="2">  1       21 0.28000670E-02 0.20648653E+02</pdfrwt>
<totfact> 0.12282079E+08</totfact>
</mgrwt>
</event>
<event>
 4    1  0.2761157E+004  0.2333134E+02  0.7546771E-02  0.1686195E+00
         21   -1    0    0  501  502  0.00000000000E+00  0.00000000000E+00  0.44828852540E+01  0.44828852540E+01  0.00000000000E+00 0.  1.
         21   -1    0    0  502  503 -0.00000000000E+00 -0.00000000000E+00 -0.17077533623E+03  0.17077533623E+03  0.00000000000E+00 0. -1.
          2    1    1    2  501    0 -0.22137234260E+02 -0.73684738922E+01 -0.36041551893E+02  0.42934193961E+02  0.00000000000E+00 0.  1.
         -2    1    1    2    0  503  0.22137234260E+02  0.73684738922E+01 -0.13025089908E+03  0.13232402752E+03  0.00000000000E+00 0. -1.
<mgrwt>
<rscale>  2 0.23331343E+02</rscale>
<asrwt>0</asrwt>
<pdfrwt beam="1">  1       21 0.68967465E-03 0.23331343E+02</pdfrwt>
<pdfrwt beam="2">  1       21 0.26273129E-01 0.23331343E+02</pdfrwt>
<totfact> 0.66498226E+07</totfact>
</mgrwt>
</event>
<event>
 4    1  0.2761157E+004  0.2956988E+02  0.7546771E-02  0.1602892E+00
         21   -1    0    0  501  502  0.00000000000E+00  0.00000000000E+00  0.41012922159E+03  0.41012922159E+03  0.00000000000E+00 0. -1.
         21   -1    0    0  502  503 -0.00000000000E+00 -0.00000000000E+00 -0.23305849693E+01  0.23305849693E+01  0.00000000000E+00 0.  1.
          2    1    1    2  501    0 -0.23056098406E+02 -0.18514693816E+02  0.26410537445E+03  0.26575557637E+03  0.00000000000E+00 0. -1.
         -2    1    1    2    0  503  0.23056098406E+02  0.18514693816E+02  0.14369326217E+03  0.14670423018E+03  0.00000000000E+00 0.  1.
<mgrwt>
<rscale>  2 0.29569876E+02</rscale>
<asrwt>0</asrwt>
<pdfrwt beam="1">  1       21 0.63096746E-01 0.29569876E+02</pdfrwt>
<pdfrwt beam="2">  1       21 0.35855186E-03 0.29569876E+02</pdfrwt>
<totfact> 0.34807513E+07</totfact>
</mgrwt>
</event>
<event>
 4    1  0.2761157E+004  0.1080253E+03  0.7546771E-02  0.1264271E+00
         21   -1    0    0  503  502  0.00000000000E+00  0.00000000000E+00  0.23984844443E+02  0.23984844443E+02  0.00000000000E+00 0. -1.
         21   -1    0    0  501  503 -0.00000000000E+00 -0.00000000000E+00 -0.68508536022E+03  0.68508536022E+03  0.00000000000E+00 0.  1.
          2    1    1    2  501    0 -0.98118930873E+02  0.45190121317E+02 -0.52141336617E+03  0.53248602806E+03  0.00000000000E+00 0.  1.
         -2    1    1    2    0  502  0.98118930873E+02 -0.45190121317E+02 -0.13968714960E+03  0.17658417660E+03  0.00000000000E+00 0. -1.
<mgrwt>
<rscale>  2 0.10802533E+03</rscale>
<asrwt>0</asrwt>
<pdfrwt beam="1">  1       21 0.36899759E-02 0.10802533E+03</pdfrwt>
<pdfrwt beam="2">  1       21 0.10539775E+00 0.10802533E+03</pdfrwt>
<totfact> 0.33168116E+05</totfact>
</mgrwt>
</event>
<event>
 4    1  0.2761157E+004  0.3547418E+02  0.7546771E-02  0.1544430E+00
         21   -1    0    0  503  502  0.00000000000E+00  0.00000000000E+00  0.58263905942E+03  0.58263905942E+03  0.00000000000E+00 0. -1.
         21   -1    0    0  501  503 -0.00000000000E+00 -0.00000000000E+00 -0.28926309836E+01  0.28926309836E+01  0.00000000000E+00 0.  1.
          2    1    1    2  501    0  0.25896345307E+02  0.24244514865E+02  0.14252026348E+03  0.14686879418E+03  0.00000000000E+00 0.  1.
         -2    1    1    2    0  502 -0.25896345307E+02 -0.24244514865E+02  0.43722616496E+03  0.43866289623E+03  0.00000000000E+00 0. -1.
<mgrwt>
<rscale>  2 0.35474177E+02</rscale>
<asrwt>0</asrwt>
<pdfrwt beam="1">  1       21 0.89636685E-01 0.35474177E+02</pdfrwt>
<pdfrwt beam="2">  1       21 0.44502062E-03 0.35474177E+02</pdfrwt>
<totfact> 0.12412374E+07</totfact>
</mgrwt>
</event>
<event>
 4    1  0.2761157E+004  0.2145386E+02  0.7546771E-02  0.1717872E+00
         21   -1    0    0  503  502  0.00000000000E+00  0.00000000000E+00  0.67363749395E+02  0.67363749395E+02  0.00000000000E+00 0. -1.
         21   -1    0    0  501  503 -0.00000000000E+00 -0.00000000000E+00 -0.16813794993E+02  0.16813794993E+02  0.00000000000E+00 0.  1.
          2    1    1    2  501    0  0.20197675853E+02  0.72333981140E+01 -0.71533916148E+01  0.22615020887E+02  0.00000000000E+00 0.  1.
         -2    1    1    2    0  502 -0.20197675853E+02 -0.72333981140E+01  0.57703346017E+02  0.61562523500E+02  0.00000000000E+00 0. -1.
<mgrwt>
<rscale>  2 0.21453861E+02</rscale>
<asrwt>0</asrwt>
<pdfrwt beam="1">  1       21 0.10363654E-01 0.21453861E+02</pdfrwt>
<pdfrwt beam="2">  1       21 0.25867377E-02 0.21453861E+02</pdfrwt>
<totfact> 0.43425546E+07</totfact>
</mgrwt>
</event>
<event>
 4    1  0.2761157E+004  0.2004878E+02  0.7546771E-02  0.1744360E+00
         21   -1    0    0  503  502  0.00000000000E+00  0.00000000000E+00  0.11684602679E+02  0.11684602679E+02  0.00000000000E+00 0.  1.
         21   -1    0    0  501  503 -0.00000000000E+00 -0.00000000000E+00 -0.19532451405E+03  0.19532451405E+03  0.00000000000E+00 0. -1.
          2    1    1    2  501    0  0.47535386865E+01  0.19477104638E+02 -0.18576887971E+03  0.18684761278E+03  0.00000000000E+00 0. -1.
         -2    1    1    2    0  502 -0.47535386865E+01 -0.19477104638E+02  0.21289683367E+01  0.20161503944E+02  0.00000000000E+00 0.  1.
<mgrwt>
<rscale>  2 0.20048784E+02</rscale>
<asrwt>0</asrwt>
<pdfrwt beam="1">  1       21 0.17976312E-02 0.20048784E+02</pdfrwt>
<pdfrwt beam="2">  1       21 0.30049925E-01 0.20048784E+02</pdfrwt>
<totfact> 0.11939692E+07</totfact>
</mgrwt>
</event>
<event>
 4    1  0.2761157E+004  0.2176018E+02  0.7546771E-02  0.1712433E+00
         21   -1    0    0  503  502  0.00000000000E+00  0.00000000000E+00  0.28823603719E+03  0.28823603719E+03  0.00000000000E+00 0. -1.
         21   -1    0    0  501  503 -0.00000000000E+00 -0.00000000000E+00 -0.20889687341E+01  0.20889687341E+01  0.00000000000E+00 0.  1.
          2    1    1    2  501    0 -0.92672628183E+00 -0.21740440451E+02  0.75984344404E+02  0.79038763700E+02  0.00000000000E+00 0.  1.
         -2    1    1    2    0  502  0.92672628183E+00  0.21740440451E+02  0.21016272405E+03  0.21128624223E+03  0.00000000000E+00 0. -1.
<mgrwt>
<rscale>  2 0.21760183E+02</rscale>
<asrwt>0</asrwt>
<pdfrwt beam="1">  1       21 0.44343974E-01 0.21760183E+02</pdfrwt>
<pdfrwt beam="2">  1       21 0.32138003E-03 0.21760183E+02</pdfrwt>
<totfact> 0.76443092E+07</totfact>
</mgrwt>
</event>
<event>
 4    1  0.2761157E+004  0.2855898E+02  0.7546771E-02  0.1614586E+00
         21   -1    0    0  503  502  0.00000000000E+00  0.00000000000E+00  0.71828636914E+02  0.71828636914E+02  0.00000000000E+00 0.  1.
         21   -1    0    0  501  503 -0.00000000000E+00 -0.00000000000E+00 -0.14623152129E+02  0.14623152129E+02  0.00000000000E+00 0. -1.
          2    1    1    2  501    0 -0.33090015336E+01 -0.28366636900E+02  0.81678045983E+01  0.29704016767E+02  0.00000000000E+00 0. -1.
         -2    1    1    2    0  502  0.33090015336E+01  0.28366636900E+02  0.49037680187E+02  0.56747772276E+02  0.00000000000E+00 0.  1.
<mgrwt>
<rscale>  2 0.28558984E+02</rscale>
<asrwt>0</asrwt>
<pdfrwt beam="1">  1       21 0.11050559E-01 0.28558984E+02</pdfrwt>
<pdfrwt beam="2">  1       21 0.22497158E-02 0.28558984E+02</pdfrwt>
<totfact> 0.51940491E+07</totfact>
</mgrwt>
</event>
<event>
 4    1  0.2761157E+004  0.4641303E+02  0.7546771E-02  0.1465708E+00
         21   -1    0    0  501  502  0.00000000000E+00  0.00000000000E+00  0.23580845457E+03  0.23580845457E+03  0.00000000000E+00 0. -1.
         21   -1    0    0  502  503 -0.00000000000E+00 -0.00000000000E+00 -0.92899920186E+01  0.92899920186E+01  0.00000000000E+00 0.  1.
          2    1    1    2  501    0 -0.20487265029E+02 -0.41646622248E+02  0.12907561128E+03  0.13716662349E+03  0.00000000000E+00 0. -1.
         -2    1    1    2    0  503  0.20487265029E+02  0.41646622248E+02  0.97442851275E+02  0.10793182310E+03  0.00000000000E+00 0.  1.
<mgrwt>
<rscale>  2 0.46413028E+02</rscale>
<asrwt>0</asrwt>
<pdfrwt beam="1">  1       21 0.36278219E-01 0.46413028E+02</pdfrwt>
<pdfrwt beam="2">  1       21 0.14292297E-02 0.46413028E+02</pdfrwt>
<totfact> 0.13737311E+07</totfact>
</mgrwt>
</event>
<event>
 4    1  0.2761157E+004  0.2757264E+02  0.7546771E-02  0.1626582E+00
         21   -1    0    0  501  502  0.00000000000E+00  0.00000000000E+00  0.98999467716E+01  0.98999467716E+01  0.00000000000E+00 0.  1.
         21   -1    0    0  502  503 -0.00000000000E+00 -0.00000000000E+00 -0.10679155900E+03  0.10679155900E+03  0.00000000000E+00 0. -1.
          2    1    1    2  501    0 -0.20050268120E+02 -0.18927160152E+02 -0.17522349401E+02  0.32669303200E+02  0.00000000000E+00 0.  1.
         -2    1    1    2    0  503  0.20050268120E+02  0.18927160152E+02 -0.79369262825E+02  0.84022202568E+02  0.00000000000E+00 0. -1.
<mgrwt>
<rscale>  2 0.27572643E+02</rscale>
<asrwt>0</asrwt>
<pdfrwt beam="1">  1       21 0.15230687E-02 0.27572643E+02</pdfrwt>
<pdfrwt beam="2">  1       21 0.16429471E-01 0.27572643E+02</pdfrwt>
<totfact> 0.47841904E+07</totfact>
</mgrwt>
</event>
<event>
 4    1  0.2761157E+004  0.2544045E+02  0.7546771E-02  0.1654755E+00
         21   -1    0    0  501  502  0.00000000000E+00  0.00000000000E+00  0.89046272395E+02  0.89046272395E+02  0.00000000000E+00 0. -1.
         21   -1    0    0  502  503 -0.00000000000E+00 -0.00000000000E+00 -0.33457962141E+02  0.33457962141E+02  0.00000000000E+00 0.  1.
          2    1    1    2  501    0 -0.96939952690E+00  0.25421978491E+02  0.81986276485E+02  0.85842683192E+02  0.00000000000E+00 0. -1.
         -2    1    1    2    0  503  0.96939952690E+00 -0.25421978491E+02 -0.26397966231E+02  0.36661551344E+02  0.00000000000E+00 0.  1.
<mgrwt>
<rscale>  2 0.25440455E+02</rscale>
<asrwt>0</asrwt>
<pdfrwt beam="1">  1       21 0.13699426E-01 0.25440455E+02</pdfrwt>
<pdfrwt beam="2">  1       21 0.51473788E-02 0.25440455E+02</pdfrwt>
<totfact> 0.95821417E+06</totfact>
</mgrwt>
</event>
<event>
 4    1  0.2761157E+004  0.2228340E+02  0.7546771E-02  0.1703396E+00
         21   -1    0    0  503  502  0.00000000000E+00  0.00000000000E+00  0.47407550424E+01  0.47407550424E+01  0.00000000000E+00 0. -1.
         21   -1    0    0  501  503 -0.00000000000E+00 -0.00000000000E+00 -0.34562263852E+03  0.34562263852E+03  0.00000000000E+00 0.  1.
          2    1    1    2  501    0 -0.10758457442E+02 -0.19514241828E+02 -0.31668887897E+03  0.31747188238E+03  0.00000000000E+00 0.  1.
         -2    1    1    2    0  502  0.10758457442E+02  0.19514241828E+02 -0.24193004514E+02  0.32891511186E+02  0.00000000000E+00 0. -1.
<mgrwt>
<rscale>  2 0.22283403E+02</rscale>
<asrwt>0</asrwt>
<pdfrwt beam="1">  1       21 0.72934689E-03 0.22283403E+02</pdfrwt>
<pdfrwt beam="2">  1       21 0.53172717E-01 0.22283403E+02</pdfrwt>
<totfact> 0.16201188E+07</totfact>
</mgrwt>
</event>
<event>
 4    1  0.2761157E+004  0.2866105E+02  0.7546771E-02  0.1613379E+00
         21   -1    0    0  503  502  0.00000000000E+00  0.00000000000E+00  0.44991963480E+02  0.44991963480E+02  0.00000000000E+00 0.  1.
         21   -1    0    0  501  503 -0.00000000000E+00 -0.00000000000E+00 -0.96080007498E+02  0.96080007498E+02  0.00000000000E+00 0. -1.
          2    1    1    2  501    0  0.25363162533E+02  0.13347866419E+02 -0.89025337489E+02  0.93525217276E+02  0.00000000000E+00 0. -1.
         -2    1    1    2    0  502 -0.25363162533E+02 -0.13347866419E+02  0.37937293471E+02  0.47546753701E+02  0.00000000000E+00 0.  1.
<mgrwt>
<rscale>  2 0.28661046E+02</rscale>
<asrwt>0</asrwt>
<pdfrwt beam="1">  1       21 0.69218405E-02 0.28661046E+02</pdfrwt>
<pdfrwt beam="2">  1       21 0.14781540E-01 0.28661046E+02</pdfrwt>
<totfact> 0.53153172E+06</totfact>
</mgrwt>
</event>
<event>
 4    1  0.2761157E+004  0.2222746E+02  0.7546771E-02  0.1704348E+00
         21   -1    0    0  503  502  0.00000000000E+00  0.00000000000E+00  0.22946056946E+02  0.22946056946E+02  0.00000000000E+00 0. -1.
         21   -1    0    0  501  503 -0.00000000000E+00 -0.00000000000E+00 -0.36728662176E+02  0.36728662176E+02  0.00000000000E+00 0.  1.
          2    1    1    2  501    0  0.21624983784E+02  0.51400419866E+01 -0.26084219989E+02  0.34270198245E+02  0.00000000000E+00 0.  1.
         -2    1    1    2    0  502 -0.21624983784E+02 -0.51400419866E+01  0.12301614759E+02  0.25404520877E+02  0.00000000000E+00 0. -1.
<mgrwt>
<rscale>  2 0.22227459E+02</rscale>
<asrwt>0</asrwt>
<pdfrwt beam="1">  1       21 0.35301626E-02 0.22227459E+02</pdfrwt>
<pdfrwt beam="2">  1       21 0.56505634E-02 0.22227459E+02</pdfrwt>
<totfact> 0.72429173E+07</totfact>
</mgrwt>
</event>
<event>
 4    1  0.2761157E+004  0.2197876E+02  0.7546771E-02  0.1708620E+00
         21   -1    0    0  503  502  0.00000000000E+00  0.00000000000E+00  0.22166904115E+03  0.22166904115E+03  0.00000000000E+00 0.  1.
         21   -1    0    0  501  503 -0.00000000000E+00 -0.00000000000E+00 -0.36512020436E+01  0.36512020436E+01  0.00000000000E+00 0. -1.
          2    1    1    2  501    0 -0.21617513448E+02  0.39684832208E+01  0.37476412494E+02  0.43445911662E+02  0.00000000000E+00 0. -1.
         -2    1    1    2    0  502  0.21617513448E+02 -0.39684832208E+01  0.18054142661E+03  0.18187433153E+03  0.00000000000E+00 0.  1.
<mgrwt>
<rscale>  2 0.21978757E+02</rscale>
<asrwt>0</asrwt>
<pdfrwt beam="1">  1       21 0.34102919E-01 0.21978757E+02</pdfrwt>
<pdfrwt beam="2">  1       21 0.56172357E-03 0.21978757E+02</pdfrwt>
<totfact> 0.55263558E+07</totfact>
</mgrwt>
</event>
<event>
 4    1  0.2761157E+004  0.5845362E+02  0.7546771E-02  0.1404438E+00
         21   -1    0    0  503  502  0.00000000000E+00  0.00000000000E+00  0.71368315507E+02  0.71368315507E+02  0.00000000000E+00 0.  1.
         21   -1    0    0  501  503 -0.00000000000E+00 -0.00000000000E+00 -0.59598083693E+02  0.59598083693E+02  0.00000000000E+00 0. -1.
          2    1    1    2  501    0 -0.16118204578E+02  0.56187445951E+02 -0.23156257942E+02  0.62873188906E+02  0.00000000000E+00 0. -1.
         -2    1    1    2    0  502  0.16118204578E+02 -0.56187445951E+02  0.34926489757E+02  0.68093210294E+02  0.00000000000E+00 0.  1.
<mgrwt>
<rscale>  2 0.58453619E+02</rscale>
<asrwt>0</asrwt>
<pdfrwt beam="1">  1       21 0.10979741E-01 0.58453619E+02</pdfrwt>
<pdfrwt beam="2">  1       21 0.91689359E-02 0.58453619E+02</pdfrwt>
<totfact> 0.60252496E+06</totfact>
</mgrwt>
</event>
<event>
 4    1  0.2761157E+004  0.2467187E+02  0.7546771E-02  0.1665760E+00
         21   -1    0    0  503  502  0.00000000000E+00  0.00000000000E+00  0.18364733227E+01  0.18364733227E+01  0.00000000000E+00 0.  1.
         21   -1    0    0  501  503 -0.00000000000E+00 -0.00000000000E+00 -0.33955674119E+03  0.33955674119E+03  0.00000000000E+00 0. -1.
          2    1    1    2  501    0  0.15982946427E+02 -0.18794856453E+02 -0.19523321690E+03  0.19678595017E+03  0.00000000000E+00 0.  1.
         -2    1    1    2    0  502 -0.15982946427E+02  0.18794856453E+02 -0.14248705097E+03  0.14460726434E+03  0.00000000000E+00 0. -1.
<mgrwt>
<rscale>  2 0.24671871E+02</rscale>
<asrwt>0</asrwt>
<pdfrwt beam="1">  1       21 0.28253428E-03 0.24671871E+02</pdfrwt>
<pdfrwt beam="2">  1       21 0.52239513E-01 0.24671871E+02</pdfrwt>
<totfact> 0.69309541E+07</totfact>
</mgrwt>
</event>
<event>
 4    1  0.2761157E+004  0.2943289E+02  0.7546771E-02  0.1604443E+00
         21   -1    0    0  503  502  0.00000000000E+00  0.00000000000E+00  0.22890042791E+02  0.22890042791E+02  0.00000000000E+00 0.  1.
         21   -1    0    0  501  503 -0.00000000000E+00 -0.00000000000E+00 -0.39877425498E+02  0.39877425498E+02  0.00000000000E+00 0. -1.
          2    1    1    2  501    0  0.24918936851E+02 -0.15663383692E+02 -0.15577205743E+02  0.33300815924E+02  0.00000000000E+00 0.  1.
         -2    1    1    2    0  502 -0.24918936851E+02  0.15663383692E+02 -0.14101769638E+01  0.29466652364E+02  0.00000000000E+00 0. -1.
<mgrwt>
<rscale>  2 0.29432890E+02</rscale>
<asrwt>0</asrwt>
<pdfrwt beam="1">  1       21 0.35215451E-02 0.29432890E+02</pdfrwt>
<pdfrwt beam="2">  1       21 0.61349884E-02 0.29432890E+02</pdfrwt>
<totfact> 0.68465358E+07</totfact>
</mgrwt>
</event>
<event>
 4    1  0.2761157E+004  0.4650658E+02  0.7546771E-02  0.1465150E+00
         21   -1    0    0  503  502  0.00000000000E+00  0.00000000000E+00  0.61599992472E+02  0.61599992472E+02  0.00000000000E+00 0.  1.
         21   -1    0    0  501  503 -0.00000000000E+00 -0.00000000000E+00 -0.58870172874E+02  0.58870172874E+02  0.00000000000E+00 0. -1.
          2    1    1    2  501    0 -0.33388117167E+02 -0.32374305184E+02 -0.36901159519E+02  0.59367984452E+02  0.00000000000E+00 0. -1.
         -2    1    1    2    0  502  0.33388117167E+02  0.32374305184E+02  0.39630979117E+02  0.61102180893E+02  0.00000000000E+00 0.  1.
<mgrwt>
<rscale>  2 0.46506580E+02</rscale>
<asrwt>0</asrwt>
<pdfrwt beam="1">  1       21 0.94769219E-02 0.46506580E+02</pdfrwt>
<pdfrwt beam="2">  1       21 0.90569497E-02 0.46506580E+02</pdfrwt>
<totfact> 0.77218566E+06</totfact>
</mgrwt>
</event>
<event>
 4    1  0.2761157E+004  0.2564696E+02  0.7546771E-02  0.1651880E+00
         21   -1    0    0  503  502  0.00000000000E+00  0.00000000000E+00  0.72742362374E+02  0.72742362374E+02  0.00000000000E+00 0. -1.
         21   -1    0    0  501  503 -0.00000000000E+00 -0.00000000000E+00 -0.63111034223E+02  0.63111034223E+02  0.00000000000E+00 0.  1.
          2    1    1    2  501    0 -0.14152009741E+02 -0.21388946931E+02 -0.58056803741E+02  0.63469353953E+02  0.00000000000E+00 0.  1.
         -2    1    1    2    0  502  0.14152009741E+02  0.21388946931E+02  0.67688131892E+02  0.72384042644E+02  0.00000000000E+00 0. -1.
<mgrwt>
<rscale>  2 0.25646958E+02</rscale>
<asrwt>0</asrwt>
<pdfrwt beam="1">  1       21 0.11191133E-01 0.25646958E+02</pdfrwt>
<pdfrwt beam="2">  1       21 0.97093899E-02 0.25646958E+02</pdfrwt>
<totfact> 0.48018362E+06</totfact>
</mgrwt>
</event>
<event>
 4    1  0.2761157E+004  0.2057187E+02  0.7546771E-02  0.1734189E+00
         21   -1    0    0  501  502  0.00000000000E+00  0.00000000000E+00  0.33126579661E+02  0.33126579661E+02  0.00000000000E+00 0.  1.
         21   -1    0    0  502  503 -0.00000000000E+00 -0.00000000000E+00 -0.34015227731E+02  0.34015227731E+02  0.00000000000E+00 0. -1.
          2    1    1    2  501    0  0.11604217394E+02 -0.16986583262E+02  0.26083577411E+02  0.33219796549E+02  0.00000000000E+00 0.  1.
         -2    1    1    2    0  503 -0.11604217394E+02  0.16986583262E+02 -0.26972225481E+02  0.33922010843E+02  0.00000000000E+00 0. -1.
<mgrwt>
<rscale>  2 0.20571871E+02</rscale>
<asrwt>0</asrwt>
<pdfrwt beam="1">  1       21 0.50963969E-02 0.20571871E+02</pdfrwt>
<pdfrwt beam="2">  1       21 0.52331119E-02 0.20571871E+02</pdfrwt>
<totfact> 0.44948584E+07</totfact>
</mgrwt>
</event>
<event>
 4    1  0.2761157E+004  0.2291515E+02  0.7546771E-02  0.1692889E+00
         21   -1    0    0  501  502  0.00000000000E+00  0.00000000000E+00  0.92751916249E+02  0.92751916249E+02  0.00000000000E+00 0. -1.
         21   -1    0    0  502  503 -0.00000000000E+00 -0.00000000000E+00 -0.16195186303E+02  0.16195186303E+02  0.00000000000E+00 0.  1.
          2    1    1    2  501    0 -0.44000703646E+01 -0.22488746248E+02  0.82210799607E+02  0.85344712191E+02  0.00000000000E+00 0. -1.
         -2    1    1    2    0  503  0.44000703646E+01  0.22488746248E+02 -0.56540696611E+01  0.23602390361E+02  0.00000000000E+00 0.  1.
<mgrwt>
<rscale>  2 0.22915155E+02</rscale>
<asrwt>0</asrwt>
<pdfrwt beam="1">  1       21 0.14269525E-01 0.22915155E+02</pdfrwt>
<pdfrwt beam="2">  1       21 0.24915672E-02 0.22915155E+02</pdfrwt>
<totfact> 0.27380565E+07</totfact>
</mgrwt>
</event>
<event>
 4    1  0.2761157E+004  0.3183002E+02  0.7546771E-02  0.1578699E+00
         21   -1    0    0  503  502  0.00000000000E+00  0.00000000000E+00  0.73778279974E+01  0.73778279974E+01  0.00000000000E+00 0.  1.
         21   -1    0    0  501  503 -0.00000000000E+00 -0.00000000000E+00 -0.29971269030E+03  0.29971269030E+03  0.00000000000E+00 0. -1.
          2    1    1    2  501    0 -0.79451719215E+01  0.30822466164E+02 -0.25918923126E+03  0.26113637774E+03  0.00000000000E+00 0. -1.
         -2    1    1    2    0  502  0.79451719215E+01 -0.30822466164E+02 -0.33145631044E+02  0.45954140560E+02  0.00000000000E+00 0.  1.
<mgrwt>
<rscale>  2 0.31830020E+02</rscale>
<asrwt>0</asrwt>
<pdfrwt beam="1">  1       21 0.11350505E-02 0.31830020E+02</pdfrwt>
<pdfrwt beam="2">  1       21 0.46109642E-01 0.31830020E+02</pdfrwt>
<totfact> 0.11700315E+07</totfact>
</mgrwt>
</event>
<event>
 4    1  0.2761157E+004  0.2063110E+02  0.7546771E-02  0.1733061E+00
         21   -1    0    0  501  502  0.00000000000E+00  0.00000000000E+00  0.77422790568E+02  0.77422790568E+02  0.00000000000E+00 0.  1.
         21   -1    0    0  502  503 -0.00000000000E+00 -0.00000000000E+00 -0.17369620623E+03  0.17369620623E+03  0.00000000000E+00 0. -1.
          2    1    1    2  501    0 -0.17750969874E+02 -0.10514059059E+02  0.75419779981E+02  0.78190700097E+02  0.00000000000E+00 0.  1.
         -2    1    1    2    0  503  0.17750969874E+02  0.10514059059E+02 -0.17169319564E+03  0.17292829670E+03  0.00000000000E+00 0. -1.
<mgrwt>
<rscale>  2 0.20631102E+02</rscale>
<asrwt>0</asrwt>
<pdfrwt beam="1">  1       21 0.11911199E-01 0.20631102E+02</pdfrwt>
<pdfrwt beam="2">  1       21 0.26722493E-01 0.20631102E+02</pdfrwt>
<totfact> 0.74174273E+05</totfact>
</mgrwt>
</event>
<event>
 4    1  0.2761157E+004  0.2527180E+02  0.7546771E-02  0.1657128E+00
         21   -1    0    0  501  502  0.00000000000E+00  0.00000000000E+00  0.56046426577E+03  0.56046426577E+03  0.00000000000E+00 0.  1.
         21   -1    0    0  502  503 -0.00000000000E+00 -0.00000000000E+00 -0.53815595857E+01  0.53815595857E+01  0.00000000000E+00 0. -1.
          2    1    1    2  501    0 -0.82439739774E+01 -0.23889341245E+02  0.52873062286E+03  0.52933423778E+03  0.00000000000E+00 0.  1.
         -2    1    1    2    0  503  0.82439739774E+01  0.23889341245E+02  0.26352083324E+02  0.36511587580E+02  0.00000000000E+00 0. -1.
<mgrwt>
<rscale>  2 0.25271797E+02</rscale>
<asrwt>0</asrwt>
<pdfrwt beam="1">  1       21 0.86225226E-01 0.25271797E+02</pdfrwt>
<pdfrwt beam="2">  1       21 0.82793269E-03 0.25271797E+02</pdfrwt>
<totfact> 0.50993905E+06</totfact>
</mgrwt>
</event>
<event>
 4    1  0.2761157E+004  0.3250287E+02  0.7546771E-02  0.1571964E+00
         21   -1    0    0  501  502  0.00000000000E+00  0.00000000000E+00  0.34112711147E+02  0.34112711147E+02  0.00000000000E+00 0. -1.
         21   -1    0    0  502  503 -0.00000000000E+00 -0.00000000000E+00 -0.33034803311E+02  0.33034803311E+02  0.00000000000E+00 0.  1.
          2    1    1    2  501    0 -0.19691068912E+02  0.25859199293E+02  0.89346959714E+01  0.33708532674E+02  0.00000000000E+00 0. -1.
         -2    1    1    2    0  503  0.19691068912E+02 -0.25859199293E+02 -0.78567881355E+01  0.33438981784E+02  0.00000000000E+00 0.  1.
<mgrwt>
<rscale>  2 0.32502867E+02</rscale>
<asrwt>0</asrwt>
<pdfrwt beam="1">  1       21 0.52481094E-02 0.32502867E+02</pdfrwt>
<pdfrwt beam="2">  1       21 0.50822775E-02 0.32502867E+02</pdfrwt>
<totfact> 0.50156246E+07</totfact>
</mgrwt>
</event>
<event>
 4    1  0.2761157E+004  0.2090783E+02  0.7546771E-02  0.1727855E+00
         21   -1    0    0  503  502  0.00000000000E+00  0.00000000000E+00  0.29848879214E+02  0.29848879214E+02  0.00000000000E+00 0. -1.
         21   -1    0    0  501  503 -0.00000000000E+00 -0.00000000000E+00 -0.19109117239E+02  0.19109117239E+02  0.00000000000E+00 0.  1.
          2    1    1    2  501    0  0.20867828979E+02  0.12927734457E+01 -0.64616231980E+01  0.21883558299E+02  0.00000000000E+00 0.  1.
         -2    1    1    2    0  502 -0.20867828979E+02 -0.12927734457E+01  0.17201385173E+02  0.27074438154E+02  0.00000000000E+00 0. -1.
<mgrwt>
<rscale>  2 0.20907835E+02</rscale>
<asrwt>0</asrwt>
<pdfrwt beam="1">  1       21 0.45921353E-02 0.20907835E+02</pdfrwt>
<pdfrwt beam="2">  1       21 0.29398642E-02 0.20907835E+02</pdfrwt>
<totfact> 0.13155897E+08</totfact>
</mgrwt>
</event>
<event>
 4    1  0.2761157E+004  0.4687098E+02  0.7546771E-02  0.1462988E+00
         21   -1    0    0  501  502  0.00000000000E+00  0.00000000000E+00  0.14500031259E+03  0.14500031259E+03  0.00000000000E+00 0.  1.
         21   -1    0    0  502  503 -0.00000000000E+00 -0.00000000000E+00 -0.61611457308E+02  0.61611457308E+02  0.00000000000E+00 0. -1.
          2    1    1    2  501    0  0.19873262088E+02 -0.42449294931E+02  0.13140350743E+03  0.13951261932E+03  0.00000000000E+00 0.  1.
         -2    1    1    2    0  503 -0.19873262088E+02  0.42449294931E+02 -0.48014652151E+02  0.67099150571E+02  0.00000000000E+00 0. -1.
<mgrwt>
<rscale>  2 0.46870984E+02</rscale>
<asrwt>0</asrwt>
<pdfrwt beam="1">  1       21 0.22307740E-01 0.46870984E+02</pdfrwt>
<pdfrwt beam="2">  1       21 0.94786858E-02 0.46870984E+02</pdfrwt>
<totfact> 0.16034712E+06</totfact>
</mgrwt>
</event>
<event>
 4    1  0.2761157E+004  0.2024991E+02  0.7546771E-02  0.1740403E+00
         21   -1    0    0  503  502  0.00000000000E+00  0.00000000000E+00  0.36024684265E+01  0.36024684265E+01  0.00000000000E+00 0. -1.
         21   -1    0    0  501  503 -0.00000000000E+00 -0.00000000000E+00 -0.51225489260E+03  0.51225489260E+03  0.00000000000E+00 0.  1.
          2    1    1    2  501    0  0.61435468517E+01  0.19295483554E+02 -0.48179999141E+03  0.48222535248E+03  0.00000000000E+00 0.  1.
         -2    1    1    2    0  502 -0.61435468517E+01 -0.19295483554E+02 -0.26852432770E+02  0.33632008551E+02  0.00000000000E+00 0. -1.
<mgrwt>
<rscale>  2 0.20249910E+02</rscale>
<asrwt>0</asrwt>
<pdfrwt beam="1">  1       21 0.55422573E-03 0.20249910E+02</pdfrwt>
<pdfrwt beam="2">  1       21 0.78808471E-01 0.20249910E+02</pdfrwt>
<totfact> 0.10795959E+07</totfact>
</mgrwt>
</event>
<event>
 4    1  0.2761157E+004  0.5686760E+02  0.7546771E-02  0.1411468E+00
         21   -1    0    0  501  502  0.00000000000E+00  0.00000000000E+00  0.58473593402E+03  0.58473593402E+03  0.00000000000E+00 0.  1.
         21   -1    0    0  502  503 -0.00000000000E+00 -0.00000000000E+00 -0.81000531022E+01  0.81000531022E+01  0.00000000000E+00 0. -1.
          2    1    1    2  501    0  0.50878342488E+02 -0.25403122806E+02  0.45526674573E+03  0.45880467974E+03  0.00000000000E+00 0.  1.
         -2    1    1    2    0  503 -0.50878342488E+02  0.25403122806E+02  0.12136913519E+03  0.13403130738E+03  0.00000000000E+00 0. -1.
<mgrwt>
<rscale>  2 0.56867604E+02</rscale>
<asrwt>0</asrwt>
<pdfrwt beam="1">  1       21 0.89959341E-01 0.56867604E+02</pdfrwt>
<pdfrwt beam="2">  1       21 0.12461625E-02 0.56867604E+02</pdfrwt>
<totfact> 0.26824910E+06</totfact>
</mgrwt>
</event>
<event>
 4    1  0.2761157E+004  0.2027109E+02  0.7546771E-02  0.1739990E+00
         21   -1    0    0  501  502  0.00000000000E+00  0.00000000000E+00  0.40060893762E+01  0.40060893762E+01  0.00000000000E+00 0. -1.
         21   -1    0    0  502  503 -0.00000000000E+00 -0.00000000000E+00 -0.10312079522E+03  0.10312079522E+03  0.00000000000E+00 0.  1.
          2    1    1    2  501    0 -0.66894963929E+01 -0.19135508833E+02 -0.53460900469E+02  0.57175037729E+02  0.00000000000E+00 0. -1.
         -2    1    1    2    0  503  0.66894963929E+01  0.19135508833E+02 -0.45653805376E+02  0.49951846869E+02  0.00000000000E+00 0.  1.
<mgrwt>
<rscale>  2 0.20271089E+02</rscale>
<asrwt>0</asrwt>
<pdfrwt beam="1">  1       21 0.61632145E-03 0.20271089E+02</pdfrwt>
<pdfrwt beam="2">  1       21 0.15864738E-01 0.20271089E+02</pdfrwt>
<totfact> 0.18202118E+08</totfact>
</mgrwt>
</event>
<event>
 4    1  0.2761157E+004  0.2197388E+02  0.7546771E-02  0.1708704E+00
         21   -1    0    0  501  502  0.00000000000E+00  0.00000000000E+00  0.35450548286E+03  0.35450548286E+03  0.00000000000E+00 0. -1.
         21   -1    0    0  502  503 -0.00000000000E+00 -0.00000000000E+00 -0.13671923639E+01  0.13671923639E+01  0.00000000000E+00 0.  1.
          2    1    1    2  501    0  0.83290149113E+01  0.20334180922E+02  0.18749016737E+03  0.18877344692E+03  0.00000000000E+00 0.  1.
         -2    1    1    2    0  503 -0.83290149113E+01 -0.20334180922E+02  0.16564812313E+03  0.16709922830E+03  0.00000000000E+00 0. -1.
<mgrwt>
<rscale>  2 0.21973880E+02</rscale>
<asrwt>0</asrwt>
<pdfrwt beam="1">  1       21 0.54539232E-01 0.21973880E+02</pdfrwt>
<pdfrwt beam="2">  1       21 0.21033757E-03 0.21973880E+02</pdfrwt>
<totfact> 0.94944402E+07</totfact>
</mgrwt>
</event>
<event>
 4    1  0.2761157E+004  0.2698667E+02  0.7546771E-02  0.1634004E+00
         21   -1    0    0  503  502  0.00000000000E+00  0.00000000000E+00  0.18778054029E+02  0.18778054029E+02  0.00000000000E+00 0. -1.
         21   -1    0    0  501  503 -0.00000000000E+00 -0.00000000000E+00 -0.13288941489E+03  0.13288941489E+03  0.00000000000E+00 0.  1.
          2    1    1    2  501    0 -0.26926680924E+02  0.17984063091E+01 -0.12087108019E+03  0.12384707683E+03  0.00000000000E+00 0.  1.
         -2    1    1    2    0  502  0.26926680924E+02 -0.17984063091E+01  0.67597193328E+01  0.27820392094E+02  0.00000000000E+00 0. -1.
<mgrwt>
<rscale>  2 0.26986671E+02</rscale>
<asrwt>0</asrwt>
<pdfrwt beam="1">  1       21 0.28889313E-02 0.26986671E+02</pdfrwt>
<pdfrwt beam="2">  1       21 0.20444526E-01 0.26986671E+02</pdfrwt>
<totfact> 0.12087060E+07</totfact>
</mgrwt>
</event>
<event>
 4    1  0.2761157E+004  0.3257688E+02  0.7546771E-02  0.1571235E+00
         21   -1    0    0  503  502  0.00000000000E+00  0.00000000000E+00  0.34018898158E+02  0.34018898158E+02  0.00000000000E+00 0.  1.
         21   -1    0    0  501  503 -0.00000000000E+00 -0.00000000000E+00 -0.10799538127E+03  0.10799538127E+03  0.00000000000E+00 0. -1.
          2    1    1    2  501    0 -0.28593699165E+02  0.15609408544E+02 -0.96867761743E+02  0.10219890671E+03  0.00000000000E+00 0. -1.
         -2    1    1    2    0  502  0.28593699165E+02 -0.15609408544E+02  0.22891278634E+02  0.39815372717E+02  0.00000000000E+00 0.  1.
<mgrwt>
<rscale>  2 0.32576882E+02</rscale>
<asrwt>0</asrwt>
<pdfrwt beam="1">  1       21 0.52336767E-02 0.32576882E+02</pdfrwt>
<pdfrwt beam="2">  1       21 0.16614674E-01 0.32576882E+02</pdfrwt>
<totfact> 0.69632315E+06</totfact>
</mgrwt>
</event>
<event>
 4    1  0.2761157E+004  0.2094186E+02  0.7546771E-02  0.1727222E+00
         21   -1    0    0  501  502  0.00000000000E+00  0.00000000000E+00  0.78561665035E+01  0.78561665035E+01  0.00000000000E+00 0. -1.
         21   -1    0    0  502  503 -0.00000000000E+00 -0.00000000000E+00 -0.22165242942E+03  0.22165242942E+03  0.00000000000E+00 0.  1.
          2    1    1    2  501    0  0.17022412851E+01 -0.20872563544E+02 -0.76408467545E+01  0.22292242449E+02  0.00000000000E+00 0. -1.
         -2    1    1    2    0  503 -0.17022412851E+01  0.20872563544E+02 -0.20615541616E+03  0.20721635348E+03  0.00000000000E+00 0.  1.
<mgrwt>
<rscale>  2 0.20941861E+02</rscale>
<asrwt>0</asrwt>
<pdfrwt beam="1">  1       21 0.12086413E-02 0.20941861E+02</pdfrwt>
<pdfrwt beam="2">  1       21 0.34100365E-01 0.20941861E+02</pdfrwt>
<totfact> 0.17443926E+07</totfact>
</mgrwt>
</event>
<event>
 4    1  0.2761157E+004  0.2031263E+02  0.7546771E-02  0.1739182E+00
         21   -1    0    0  503  502  0.00000000000E+00  0.00000000000E+00  0.10968112180E+02  0.10968112180E+02  0.00000000000E+00 0.  1.
         21   -1    0    0  501  503 -0.00000000000E+00 -0.00000000000E+00 -0.40510243896E+02  0.40510243896E+02  0.00000000000E+00 0. -1.
          2    1    1    2  501    0 -0.19879682339E+02  0.41714568735E+01 -0.21648077011E+02  0.29685721494E+02  0.00000000000E+00 0.  1.
         -2    1    1    2    0  502  0.19879682339E+02 -0.41714568735E+01 -0.78940547045E+01  0.21792634582E+02  0.00000000000E+00 0. -1.
<mgrwt>
<rscale>  2 0.20312627E+02</rscale>
<asrwt>0</asrwt>
<pdfrwt beam="1">  1       21 0.16874019E-02 0.20312627E+02</pdfrwt>
<pdfrwt beam="2">  1       21 0.62323452E-02 0.20312627E+02</pdfrwt>
<totfact> 0.18798575E+08</totfact>
</mgrwt>
</event>
<event>
 4    1  0.2761157E+004  0.2689754E+02  0.7546771E-02  0.1635153E+00
         21   -1    0    0  501  502  0.00000000000E+00  0.00000000000E+00  0.32583302600E+02  0.32583302600E+02  0.00000000000E+00 0. -1.
         21   -1    0    0  502  503 -0.00000000000E+00 -0.00000000000E+00 -0.24141418514E+02  0.24141418514E+02  0.00000000000E+00 0.  1.
          2    1    1    2  501    0 -0.94315099129E+01 -0.25189765505E+02  0.12255824606E+02  0.29558127515E+02  0.00000000000E+00 0. -1.
         -2    1    1    2    0  503  0.94315099129E+01  0.25189765505E+02 -0.38139405194E+01  0.27166593598E+02  0.00000000000E+00 0.  1.
<mgrwt>
<rscale>  2 0.26897540E+02</rscale>
<asrwt>0</asrwt>
<pdfrwt beam="1">  1       21 0.50128157E-02 0.26897540E+02</pdfrwt>
<pdfrwt beam="2">  1       21 0.37140644E-02 0.26897540E+02</pdfrwt>
<totfact> 0.85227958E+07</totfact>
</mgrwt>
</event>
<event>
 4    1  0.2761157E+004  0.5492659E+02  0.7546771E-02  0.1420446E+00
         21   -1    0    0  501  502  0.00000000000E+00  0.00000000000E+00  0.10961023882E+03  0.10961023882E+03  0.00000000000E+00 0.  1.
         21   -1    0    0  502  503 -0.00000000000E+00 -0.00000000000E+00 -0.27682088485E+02  0.27682088485E+02  0.00000000000E+00 0. -1.
          2    1    1    2  501    0  0.15649479220E+02 -0.52650016090E+02  0.46148958747E+02  0.71740203426E+02  0.00000000000E+00 0.  1.
         -2    1    1    2    0  503 -0.15649479220E+02  0.52650016090E+02  0.35779191587E+02  0.65552123877E+02  0.00000000000E+00 0. -1.
<mgrwt>
<rscale>  2 0.54926591E+02</rscale>
<asrwt>0</asrwt>
<pdfrwt beam="1">  1       21 0.16863113E-01 0.54926591E+02</pdfrwt>
<pdfrwt beam="2">  1       21 0.42587829E-02 0.54926591E+02</pdfrwt>
<totfact> 0.10121827E+07</totfact>
</mgrwt>
</event>
<event>
 4    1  0.2761157E+004  0.4242071E+02  0.7546771E-02  0.1491117E+00
         21   -1    0    0  501  502  0.00000000000E+00  0.00000000000E+00  0.17819791105E+04  0.17819791105E+04  0.00000000000E+00 0. -1.
         21   -1    0    0  502  503 -0.00000000000E+00 -0.00000000000E+00 -0.11003790354E+01  0.11003790354E+01  0.00000000000E+00 0.  1.
          2    1    1    2  501    0 -0.32906059808E+02  0.26771406181E+02  0.11461702685E+04  0.11469550128E+04  0.00000000000E+00 0. -1.
         -2    1    1    2    0  503  0.32906059808E+02 -0.26771406181E+02  0.63470846290E+03  0.63612447668E+03  0.00000000000E+00 0.  1.
<mgrwt>
<rscale>  2 0.42420714E+02</rscale>
<asrwt>0</asrwt>
<pdfrwt beam="1">  1       21 0.27414832E+00 0.42420714E+02</pdfrwt>
<pdfrwt beam="2">  1       21 0.16929051E-03 0.42420714E+02</pdfrwt>
<totfact> 0.30438488E+06</totfact>
</mgrwt>
</event>
<event>
 4    1  0.2761157E+004  0.2239643E+02  0.7546771E-02  0.1701485E+00
         21   -1    0    0  503  502  0.00000000000E+00  0.00000000000E+00  0.29921512934E+02  0.29921512934E+02  0.00000000000E+00 0.  1.
         21   -1    0    0  501  503 -0.00000000000E+00 -0.00000000000E+00 -0.16787926810E+02  0.16787926810E+02  0.00000000000E+00 0. -1.
          2    1    1    2  501    0 -0.56545984531E+01  0.21670850513E+02  0.74509463139E+01  0.23603322787E+02  0.00000000000E+00 0.  1.
         -2    1    1    2    0  502  0.56545984531E+01 -0.21670850513E+02  0.56826398099E+01  0.23106116957E+02  0.00000000000E+00 0. -1.
<mgrwt>
<rscale>  2 0.22396434E+02</rscale>
<asrwt>0</asrwt>
<pdfrwt beam="1">  1       21 0.46033097E-02 0.22396434E+02</pdfrwt>
<pdfrwt beam="2">  1       21 0.25827580E-02 0.22396434E+02</pdfrwt>
<totfact> 0.16357433E+08</totfact>
</mgrwt>
</event>
<event>
 4    1  0.2761157E+004  0.2286986E+02  0.7546771E-02  0.1693628E+00
         21   -1    0    0  501  502  0.00000000000E+00  0.00000000000E+00  0.26357015893E+01  0.26357015893E+01  0.00000000000E+00 0.  1.
         21   -1    0    0  502  503 -0.00000000000E+00 -0.00000000000E+00 -0.20406303824E+03  0.20406303824E+03  0.00000000000E+00 0. -1.
          2    1    1    2  501    0 -0.81491442206E+01  0.21368708811E+02 -0.83558812095E+02  0.86632011096E+02  0.00000000000E+00 0.  1.
         -2    1    1    2    0  503  0.81491442206E+01 -0.21368708811E+02 -0.11786852456E+03  0.12006672873E+03  0.00000000000E+00 0. -1.
<mgrwt>
<rscale>  2 0.22869855E+02</rscale>
<asrwt>0</asrwt>
<pdfrwt beam="1">  1       21 0.40549255E-03 0.22869855E+02</pdfrwt>
<pdfrwt beam="2">  1       21 0.31394314E-01 0.22869855E+02</pdfrwt>
<totfact> 0.10501136E+08</totfact>
</mgrwt>
</event>
<event>
 4    1  0.2761157E+004  0.2382657E+02  0.7546771E-02  0.1678452E+00
         21   -1    0    0  503  502  0.00000000000E+00  0.00000000000E+00  0.21241274548E+03  0.21241274548E+03  0.00000000000E+00 0.  1.
         21   -1    0    0  501  503 -0.00000000000E+00 -0.00000000000E+00 -0.59170621445E+01  0.59170621445E+01  0.00000000000E+00 0. -1.
          2    1    1    2  501    0 -0.77189086472E+01  0.22541604159E+02  0.22413145777E+02  0.32711688620E+02  0.00000000000E+00 0. -1.
         -2    1    1    2    0  502  0.77189086472E+01 -0.22541604159E+02  0.18408253755E+03  0.18561811900E+03  0.00000000000E+00 0.  1.
<mgrwt>
<rscale>  2 0.23826571E+02</rscale>
<asrwt>0</asrwt>
<pdfrwt beam="1">  1       21 0.32678878E-01 0.23826571E+02</pdfrwt>
<pdfrwt beam="2">  1       21 0.91031742E-03 0.23826571E+02</pdfrwt>
<totfact> 0.29705686E+07</totfact>
</mgrwt>
</event>
<event>
 4    1  0.2761157E+004  0.2068394E+02  0.7546771E-02  0.1732059E+00
         21   -1    0    0  501  502  0.00000000000E+00  0.00000000000E+00  0.43336434606E+01  0.43336434606E+01  0.00000000000E+00 0. -1.
         21   -1    0    0  502  503 -0.00000000000E+00 -0.00000000000E+00 -0.98729896297E+02  0.98729896297E+02  0.00000000000E+00 0.  1.
          2    1    1    2  501    0  0.16447785787E+02 -0.12541760456E+02 -0.47662582018E+02  0.51957166370E+02  0.00000000000E+00 0. -1.
         -2    1    1    2    0  503 -0.16447785787E+02  0.12541760456E+02 -0.46733670818E+02  0.51106373387E+02  0.00000000000E+00 0.  1.
<mgrwt>
<rscale>  2 0.20683941E+02</rscale>
<asrwt>0</asrwt>
<pdfrwt beam="1">  1       21 0.66671449E-03 0.20683941E+02</pdfrwt>
<pdfrwt beam="2">  1       21 0.15189212E-01 0.20683941E+02</pdfrwt>
<totfact> 0.17558222E+08</totfact>
</mgrwt>
</event>
<event>
 4    1  0.2761157E+004  0.2713195E+02  0.7546771E-02  0.1632142E+00
         21   -1    0    0  501  502  0.00000000000E+00  0.00000000000E+00  0.51056769177E+03  0.51056769177E+03  0.00000000000E+00 0.  1.
         21   -1    0    0  502  503 -0.00000000000E+00 -0.00000000000E+00 -0.80536437240E+01  0.80536437240E+01  0.00000000000E+00 0. -1.
          2    1    1    2  501    0  0.16929447183E+02  0.21202277055E+02  0.48621222647E+03  0.48696865597E+03  0.00000000000E+00 0.  1.
         -2    1    1    2    0  503 -0.16929447183E+02 -0.21202277055E+02  0.16301821585E+02  0.31652679527E+02  0.00000000000E+00 0. -1.
<mgrwt>
<rscale>  2 0.27131950E+02</rscale>
<asrwt>0</asrwt>
<pdfrwt beam="1">  1       21 0.78548850E-01 0.27131950E+02</pdfrwt>
<pdfrwt beam="2">  1       21 0.12390225E-02 0.27131950E+02</pdfrwt>
<totfact> 0.34116873E+06</totfact>
</mgrwt>
</event>
<event>
 4    1  0.2761157E+004  0.2438708E+02  0.7546771E-02  0.1669965E+00
         21   -1    0    0  501  502  0.00000000000E+00  0.00000000000E+00  0.51654558516E+03  0.51654558516E+03  0.00000000000E+00 0.  1.
         21   -1    0    0  502  503 -0.00000000000E+00 -0.00000000000E+00 -0.16433357017E+01  0.16433357017E+01  0.00000000000E+00 0. -1.
          2    1    1    2  501    0  0.24339982341E+02  0.15148573482E+01  0.39921551167E+03  0.39995969083E+03  0.00000000000E+00 0.  1.
         -2    1    1    2    0  503 -0.24339982341E+02 -0.15148573482E+01  0.11568673779E+03  0.11822923003E+03  0.00000000000E+00 0. -1.
<mgrwt>
<rscale>  2 0.24387077E+02</rscale>
<asrwt>0</asrwt>
<pdfrwt beam="1">  1       21 0.79468422E-01 0.24387077E+02</pdfrwt>
<pdfrwt beam="2">  1       21 0.25282129E-03 0.24387077E+02</pdfrwt>
<totfact> 0.34695006E+07</totfact>
</mgrwt>
</event>
<event>
 4    1  0.2761157E+004  0.2173374E+02  0.7546771E-02  0.1712898E+00
         21   -1    0    0  501  502  0.00000000000E+00  0.00000000000E+00  0.11248986024E+02  0.11248986024E+02  0.00000000000E+00 0.  1.
         21   -1    0    0  502  503 -0.00000000000E+00 -0.00000000000E+00 -0.88958618194E+02  0.88958618194E+02  0.00000000000E+00 0. -1.
          2    1    1    2  501    0 -0.49232139215E+01 -0.21168784323E+02 -0.24485425053E+01  0.21871232828E+02  0.00000000000E+00 0.  1.
         -2    1    1    2    0  503  0.49232139215E+01  0.21168784323E+02 -0.75261089665E+02  0.78336371390E+02  0.00000000000E+00 0. -1.
<mgrwt>
<rscale>  2 0.21733740E+02</rscale>
<asrwt>0</asrwt>
<pdfrwt beam="1">  1       21 0.17306132E-02 0.21733740E+02</pdfrwt>
<pdfrwt beam="2">  1       21 0.13685942E-01 0.21733740E+02</pdfrwt>
<totfact> 0.50738661E+07</totfact>
</mgrwt>
</event>
<event>
 4    1  0.2761157E+004  0.2166771E+02  0.7546771E-02  0.1714063E+00
         21   -1    0    0  501  502  0.00000000000E+00  0.00000000000E+00  0.10819053188E+03  0.10819053188E+03  0.00000000000E+00 0.  1.
         21   -1    0    0  502  503 -0.00000000000E+00 -0.00000000000E+00 -0.43955106357E+01  0.43955106357E+01  0.00000000000E+00 0. -1.
          2    1    1    2  501    0  0.18303285306E+02  0.11596526007E+02  0.58253714191E+02  0.62152915342E+02  0.00000000000E+00 0.  1.
         -2    1    1    2    0  503 -0.18303285306E+02 -0.11596526007E+02  0.45541307054E+02  0.50433127175E+02  0.00000000000E+00 0. -1.
<mgrwt>
<rscale>  2 0.21667710E+02</rscale>
<asrwt>0</asrwt>
<pdfrwt beam="1">  1       21 0.16644695E-01 0.21667710E+02</pdfrwt>
<pdfrwt beam="2">  1       21 0.67623248E-03 0.21667710E+02</pdfrwt>
<totfact> 0.14918791E+08</totfact>
</mgrwt>
</event>
<event>
 4    1  0.2761157E+004  0.3549324E+02  0.7546771E-02  0.1544264E+00
         21   -1    0    0  503  502  0.00000000000E+00  0.00000000000E+00  0.96151432427E+02  0.96151432427E+02  0.00000000000E+00 0. -1.
         21   -1    0    0  501  503 -0.00000000000E+00 -0.00000000000E+00 -0.43086985529E+02  0.43086985529E+02  0.00000000000E+00 0.  1.
          2    1    1    2  501    0  0.34633251426E+02  0.77658159151E+01 -0.31545342648E+02  0.47485562479E+02  0.00000000000E+00 0.  1.
         -2    1    1    2    0  502 -0.34633251426E+02 -0.77658159151E+01  0.84609789546E+02  0.91752855477E+02  0.00000000000E+00 0. -1.
<mgrwt>
<rscale>  2 0.35493239E+02</rscale>
<asrwt>0</asrwt>
<pdfrwt beam="1">  1       21 0.14792528E-01 0.35493239E+02</pdfrwt>
<pdfrwt beam="2">  1       21 0.66287670E-02 0.35493239E+02</pdfrwt>
<totfact> 0.58658854E+06</totfact>
</mgrwt>
</event>
<event>
 4    1  0.2761157E+004  0.2568658E+02  0.7546771E-02  0.1651332E+00
         21   -1    0    0  503  502  0.00000000000E+00  0.00000000000E+00  0.55022348705E+02  0.55022348705E+02  0.00000000000E+00 0.  1.
         21   -1    0    0  501  503 -0.00000000000E+00 -0.00000000000E+00 -0.25480384031E+02  0.25480384031E+02  0.00000000000E+00 0. -1.
          2    1    1    2  501    0  0.17683687502E+01  0.25625631862E+02 -0.14515402039E+02  0.29504186698E+02  0.00000000000E+00 0. -1.
         -2    1    1    2    0  502 -0.17683687502E+01 -0.25625631862E+02  0.44057366713E+02  0.50998546038E+02  0.00000000000E+00 0.  1.
<mgrwt>
<rscale>  2 0.25686575E+02</rscale>
<asrwt>0</asrwt>
<pdfrwt beam="1">  1       21 0.84649767E-02 0.25686575E+02</pdfrwt>
<pdfrwt beam="2">  1       21 0.39200591E-02 0.25686575E+02</pdfrwt>
<totfact> 0.33083225E+07</totfact>
</mgrwt>
</event>
<event>
 4    1  0.2761157E+004  0.2557056E+02  0.7546771E-02  0.1652939E+00
         21   -1    0    0  503  502  0.00000000000E+00  0.00000000000E+00  0.25803063114E+02  0.25803063114E+02  0.00000000000E+00 0. -1.
         21   -1    0    0  501  503 -0.00000000000E+00 -0.00000000000E+00 -0.65088161454E+02  0.65088161454E+02  0.00000000000E+00 0.  1.
          2    1    1    2  501    0 -0.25392378647E+02  0.30134075081E+01 -0.55156472604E+02  0.60795476709E+02  0.00000000000E+00 0.  1.
         -2    1    1    2    0  502  0.25392378647E+02 -0.30134075081E+01  0.15871374264E+02  0.30095747859E+02  0.00000000000E+00 0. -1.
<mgrwt>
<rscale>  2 0.25570560E+02</rscale>
<asrwt>0</asrwt>
<pdfrwt beam="1">  1       21 0.39697021E-02 0.25570560E+02</pdfrwt>
<pdfrwt beam="2">  1       21 0.10013563E-01 0.25570560E+02</pdfrwt>
<totfact> 0.24543746E+07</totfact>
</mgrwt>
</event>
<event>
 4    1  0.2761157E+004  0.2208870E+02  0.7546771E-02  0.1706722E+00
         21   -1    0    0  503  502  0.00000000000E+00  0.00000000000E+00  0.19452832362E+02  0.19452832362E+02  0.00000000000E+00 0. -1.
         21   -1    0    0  501  503 -0.00000000000E+00 -0.00000000000E+00 -0.67108497083E+02  0.67108497083E+02  0.00000000000E+00 0.  1.
          2    1    1    2  501    0  0.15724054371E+02 -0.15513378848E+02 -0.58078427760E+02  0.62137062855E+02  0.00000000000E+00 0.  1.
         -2    1    1    2    0  502 -0.15724054371E+02  0.15513378848E+02  0.10422763039E+02  0.24424266591E+02  0.00000000000E+00 0. -1.
<mgrwt>
<rscale>  2 0.22088703E+02</rscale>
<asrwt>0</asrwt>
<pdfrwt beam="1">  1       21 0.29927434E-02 0.22088703E+02</pdfrwt>
<pdfrwt beam="2">  1       21 0.10324384E-01 0.22088703E+02</pdfrwt>
<totfact> 0.35120601E+07</totfact>
</mgrwt>
</event>
<event>
 4    1  0.2761157E+004  0.3295639E+02  0.7546771E-02  0.1567535E+00
         21   -1    0    0  503  502  0.00000000000E+00  0.00000000000E+00  0.63233557629E+02  0.63233557629E+02  0.00000000000E+00 0. -1.
         21   -1    0    0  501  503 -0.00000000000E+00 -0.00000000000E+00 -0.18157015609E+02  0.18157015609E+02  0.00000000000E+00 0.  1.
          2    1    1    2  501    0 -0.21521693852E+02  0.24958766204E+02  0.13080762275E+02  0.35457434458E+02  0.00000000000E+00 0. -1.
         -2    1    1    2    0  502  0.21521693852E+02 -0.24958766204E+02  0.31995779745E+02  0.45933138780E+02  0.00000000000E+00 0.  1.
<mgrwt>
<rscale>  2 0.32956385E+02</rscale>
<asrwt>0</asrwt>
<pdfrwt beam="1">  1       21 0.97282395E-02 0.32956385E+02</pdfrwt>
<pdfrwt beam="2">  1       21 0.27933870E-02 0.32956385E+02</pdfrwt>
<totfact> 0.47307293E+07</totfact>
</mgrwt>
</event>
<event>
 4    1  0.2761157E+004  0.2225967E+02  0.7546771E-02  0.1703799E+00
         21   -1    0    0  503  502  0.00000000000E+00  0.00000000000E+00  0.11391136354E+03  0.11391136354E+03  0.00000000000E+00 0.  1.
         21   -1    0    0  501  503 -0.00000000000E+00 -0.00000000000E+00 -0.24606424991E+03  0.24606424991E+03  0.00000000000E+00 0. -1.
          2    1    1    2  501    0  0.21237380347E+02  0.66683303965E+01 -0.24446628527E+03  0.24547761117E+03  0.00000000000E+00 0. -1.
         -2    1    1    2    0  502 -0.21237380347E+02 -0.66683303965E+01  0.11231339890E+03  0.11449800228E+03  0.00000000000E+00 0.  1.
<mgrwt>
<rscale>  2 0.22259671E+02</rscale>
<asrwt>0</asrwt>
<pdfrwt beam="1">  1       21 0.17524825E-01 0.22259671E+02</pdfrwt>
<pdfrwt beam="2">  1       21 0.37856038E-01 0.22259671E+02</pdfrwt>
<totfact> 0.20513824E+05</totfact>
</mgrwt>
</event>
<event>
 4    1  0.2761157E+004  0.2223153E+02  0.7546771E-02  0.1704278E+00
         21   -1    0    0  503  502  0.00000000000E+00  0.00000000000E+00  0.48427428655E+01  0.48427428655E+01  0.00000000000E+00 0.  1.
         21   -1    0    0  501  503 -0.00000000000E+00 -0.00000000000E+00 -0.10246218906E+03  0.10246218906E+03  0.00000000000E+00 0. -1.
          2    1    1    2  501    0 -0.16778528691E+02 -0.14584995609E+02 -0.52179087174E+02  0.56717706761E+02  0.00000000000E+00 0.  1.
         -2    1    1    2    0  502  0.16778528691E+02  0.14584995609E+02 -0.45440359024E+02  0.50587225168E+02  0.00000000000E+00 0. -1.
<mgrwt>
<rscale>  2 0.22231534E+02</rscale>
<asrwt>0</asrwt>
<pdfrwt beam="1">  1       21 0.74503735E-03 0.22231534E+02</pdfrwt>
<pdfrwt beam="2">  1       21 0.15763414E-01 0.22231534E+02</pdfrwt>
<totfact> 0.14285848E+08</totfact>
</mgrwt>
</event>
<event>
 4    1  0.2761157E+004  0.2622202E+02  0.7546771E-02  0.1644046E+00
         21   -1    0    0  501  502  0.00000000000E+00  0.00000000000E+00  0.29991165913E+02  0.29991165913E+02  0.00000000000E+00 0. -1.
         21   -1    0    0  502  503 -0.00000000000E+00 -0.00000000000E+00 -0.57993850139E+02  0.57993850139E+02  0.00000000000E+00 0.  1.
          2    1    1    2  501    0  0.22005760519E+02 -0.14259757627E+02  0.20207539101E+02  0.33104966699E+02  0.00000000000E+00 0. -1.
         -2    1    1    2    0  503 -0.22005760519E+02  0.14259757627E+02 -0.48210223328E+02  0.54880049353E+02  0.00000000000E+00 0.  1.
<mgrwt>
<rscale>  2 0.26222017E+02</rscale>
<asrwt>0</asrwt>
<pdfrwt beam="1">  1       21 0.46140256E-02 0.26222017E+02</pdfrwt>
<pdfrwt beam="2">  1       21 0.89221307E-02 0.26222017E+02</pdfrwt>
<totfact> 0.23524659E+07</totfact>
</mgrwt>
</event>
<event>
 4    1  0.2761157E+004  0.2281751E+02  0.7546771E-02  0.1694485E+00
         21   -1    0    0  503  502  0.00000000000E+00  0.00000000000E+00  0.21955359706E+03  0.21955359706E+03  0.00000000000E+00 0. -1.
         21   -1    0    0  501  503 -0.00000000000E+00 -0.00000000000E+00 -0.24086764764E+01  0.24086764764E+01  0.00000000000E+00 0.  1.
          2    1    1    2  501    0  0.94977178807E+00  0.22797735963E+02  0.94757247126E+02  0.97465761754E+02  0.00000000000E+00 0.  1.
         -2    1    1    2    0  502 -0.94977178807E+00 -0.22797735963E+02  0.12238767346E+03  0.12449651178E+03  0.00000000000E+00 0. -1.
<mgrwt>
<rscale>  2 0.22817512E+02</rscale>
<asrwt>0</asrwt>
<pdfrwt beam="1">  1       21 0.33777460E-01 0.22817512E+02</pdfrwt>
<pdfrwt beam="2">  1       21 0.37056579E-03 0.22817512E+02</pdfrwt>
<totfact> 0.10470362E+08</totfact>
</mgrwt>
</event>
<event>
 4    1  0.2761157E+004  0.4101748E+02  0.7546771E-02  0.1500855E+00
         21   -1    0    0  501  502  0.00000000000E+00  0.00000000000E+00  0.27543793772E+03  0.27543793772E+03  0.00000000000E+00 0. -1.
         21   -1    0    0  502  503 -0.00000000000E+00 -0.00000000000E+00 -0.84461487135E+01  0.84461487135E+01  0.00000000000E+00 0.  1.
          2    1    1    2  501    0 -0.30456312309E+02  0.27474475356E+02  0.20817479547E+03  0.21217723541E+03  0.00000000000E+00 0. -1.
         -2    1    1    2    0  503  0.30456312309E+02 -0.27474475356E+02  0.58816993535E+02  0.71706851026E+02  0.00000000000E+00 0.  1.
<mgrwt>
<rscale>  2 0.41017481E+02</rscale>
<asrwt>0</asrwt>
<pdfrwt beam="1">  1       21 0.42375060E-01 0.41017481E+02</pdfrwt>
<pdfrwt beam="2">  1       21 0.12994077E-02 0.41017481E+02</pdfrwt>
<totfact> 0.11614211E+07</totfact>
</mgrwt>
</event>
<event>
 4    1  0.2761157E+004  0.2030125E+02  0.7546771E-02  0.1739403E+00
         21   -1    0    0  503  502  0.00000000000E+00  0.00000000000E+00  0.53413878878E+01  0.53413878878E+01  0.00000000000E+00 0.  1.
         21   -1    0    0  501  503 -0.00000000000E+00 -0.00000000000E+00 -0.77256157071E+02  0.77256157071E+02  0.00000000000E+00 0. -1.
          2    1    1    2  501    0  0.91527374858E+01 -0.18120932395E+02 -0.37415375713E+02  0.42568193925E+02  0.00000000000E+00 0. -1.
         -2    1    1    2    0  502 -0.91527374858E+01  0.18120932395E+02 -0.34499393471E+02  0.40029351034E+02  0.00000000000E+00 0.  1.
<mgrwt>
<rscale>  2 0.20301251E+02</rscale>
<asrwt>0</asrwt>
<pdfrwt beam="1">  1       21 0.82175204E-03 0.20301251E+02</pdfrwt>
<pdfrwt beam="2">  1       21 0.11885562E-01 0.20301251E+02</pdfrwt>
<totfact> 0.19328358E+08</totfact>
</mgrwt>
</event>
<event>
 4    1  0.2761157E+004  0.2338703E+02  0.7546771E-02  0.1685312E+00
         21   -1    0    0  503  502  0.00000000000E+00  0.00000000000E+00  0.59306202417E+02  0.59306202417E+02  0.00000000000E+00 0.  1.
         21   -1    0    0  501  503 -0.00000000000E+00 -0.00000000000E+00 -0.92398439247E+01  0.92398439247E+01  0.00000000000E+00 0. -1.
          2    1    1    2  501    0  0.21537582332E+02 -0.91151325329E+01  0.26516881887E+02  0.35356726641E+02  0.00000000000E+00 0. -1.
         -2    1    1    2    0  502 -0.21537582332E+02  0.91151325329E+01  0.23549476605E+02  0.33189319700E+02  0.00000000000E+00 0.  1.
<mgrwt>
<rscale>  2 0.23387028E+02</rscale>
<asrwt>0</asrwt>
<pdfrwt beam="1">  1       21 0.91240309E-02 0.23387028E+02</pdfrwt>
<pdfrwt beam="2">  1       21 0.14215145E-02 0.23387028E+02</pdfrwt>
<totfact> 0.13722115E+08</totfact>
</mgrwt>
</event>
<event>
 4    1  0.2761157E+004  0.3480324E+02  0.7546771E-02  0.1550355E+00
         21   -1    0    0  503  502  0.00000000000E+00  0.00000000000E+00  0.53956465244E+01  0.53956465244E+01  0.00000000000E+00 0.  1.
         21   -1    0    0  501  503 -0.00000000000E+00 -0.00000000000E+00 -0.23312876374E+03  0.23312876374E+03  0.00000000000E+00 0. -1.
          2    1    1    2  501    0  0.21923426220E+02 -0.27030151079E+02 -0.13682512130E+03  0.14118207926E+03  0.00000000000E+00 0. -1.
         -2    1    1    2    0  502 -0.21923426220E+02  0.27030151079E+02 -0.90907995914E+02  0.97342331006E+02  0.00000000000E+00 0.  1.
<mgrwt>
<rscale>  2 0.34803242E+02</rscale>
<asrwt>0</asrwt>
<pdfrwt beam="1">  1       21 0.83009941E-03 0.34803242E+02</pdfrwt>
<pdfrwt beam="2">  1       21 0.35865966E-01 0.34803242E+02</pdfrwt>
<totfact> 0.30924536E+07</totfact>
</mgrwt>
</event>
<event>
 4    1  0.2761157E+004  0.2187401E+02  0.7546771E-02  0.1710440E+00
         21   -1    0    0  503  502  0.00000000000E+00  0.00000000000E+00  0.12965640143E+03  0.12965640143E+03  0.00000000000E+00 0. -1.
         21   -1    0    0  501  503 -0.00000000000E+00 -0.00000000000E+00 -0.37420498426E+01  0.37420498426E+01  0.00000000000E+00 0.  1.
          2    1    1    2  501    0  0.18669815888E+02 -0.11397812252E+02  0.55114145169E+02  0.59296215285E+02  0.00000000000E+00 0.  1.
         -2    1    1    2    0  502 -0.18669815888E+02  0.11397812252E+02  0.70800206413E+02  0.74102235983E+02  0.00000000000E+00 0. -1.
<mgrwt>
<rscale>  2 0.21874006E+02</rscale>
<asrwt>0</asrwt>
<pdfrwt beam="1">  1       21 0.19947135E-01 0.21874006E+02</pdfrwt>
<pdfrwt beam="2">  1       21 0.57570008E-03 0.21874006E+02</pdfrwt>
<totfact> 0.13890830E+08</totfact>
</mgrwt>
</event>
<event>
 4    1  0.2761157E+004  0.2005156E+02  0.7546771E-02  0.1744305E+00
         21   -1    0    0  503  502  0.00000000000E+00  0.00000000000E+00  0.20564291455E+02  0.20564291455E+02  0.00000000000E+00 0.  1.
         21   -1    0    0  501  503 -0.00000000000E+00 -0.00000000000E+00 -0.30737128403E+02  0.30737128403E+02  0.00000000000E+00 0. -1.
          2    1    1    2  501    0 -0.19657301421E+02 -0.39566914090E+01 -0.20560179909E+02  0.28719086057E+02  0.00000000000E+00 0. -1.
         -2    1    1    2    0  502  0.19657301421E+02  0.39566914090E+01  0.10387342962E+02  0.22582333800E+02  0.00000000000E+00 0.  1.
<mgrwt>
<rscale>  2 0.20051556E+02</rscale>
<asrwt>0</asrwt>
<pdfrwt beam="1">  1       21 0.31637372E-02 0.20051556E+02</pdfrwt>
<pdfrwt beam="2">  1       21 0.47287890E-02 0.20051556E+02</pdfrwt>
<totfact> 0.11065857E+08</totfact>
</mgrwt>
</event>
<event>
 4    1  0.2761157E+004  0.2059408E+02  0.7546771E-02  0.1733766E+00
         21   -1    0    0  503  502  0.00000000000E+00  0.00000000000E+00  0.14361629666E+02  0.14361629666E+02  0.00000000000E+00 0.  1.
         21   -1    0    0  501  503 -0.00000000000E+00 -0.00000000000E+00 -0.33080120110E+02  0.33080120110E+02  0.00000000000E+00 0. -1.
          2    1    1    2  501    0 -0.12952025087E+02 -0.16011277099E+02 -0.17128800650E+02  0.26786409986E+02  0.00000000000E+00 0. -1.
         -2    1    1    2    0  502  0.12952025087E+02  0.16011277099E+02 -0.15896897938E+01  0.20655339790E+02  0.00000000000E+00 0.  1.
<mgrwt>
<rscale>  2 0.20594076E+02</rscale>
<asrwt>0</asrwt>
<pdfrwt beam="1">  1       21 0.22094815E-02 0.20594076E+02</pdfrwt>
<pdfrwt beam="2">  1       21 0.50892492E-02 0.20594076E+02</pdfrwt>
<totfact> 0.17283267E+08</totfact>
</mgrwt>
</event>
<event>
 4    1  0.2761157E+004  0.6054763E+02  0.7546771E-02  0.1395548E+00
         21   -1    0    0  501  502  0.00000000000E+00  0.00000000000E+00  0.62863526964E+01  0.62863526964E+01  0.00000000000E+00 0. -1.
         21   -1    0    0  502  503 -0.00000000000E+00 -0.00000000000E+00 -0.10592217059E+04  0.10592217059E+04  0.00000000000E+00 0.  1.
          2    1    1    2  501    0  0.59740324957E+02  0.98544238034E+01 -0.16930991310E+03  0.17981063029E+03  0.00000000000E+00 0. -1.
         -2    1    1    2    0  503 -0.59740324957E+02 -0.98544238034E+01 -0.88362544007E+03  0.88569742826E+03  0.00000000000E+00 0.  1.
<mgrwt>
<rscale>  2 0.60547635E+02</rscale>
<asrwt>0</asrwt>
<pdfrwt beam="1">  1       21 0.96713290E-03 0.60547635E+02</pdfrwt>
<pdfrwt beam="2">  1       21 0.16295690E+00 0.60547635E+02</pdfrwt>
<totfact> 0.96922778E+05</totfact>
</mgrwt>
</event>
<event>
 4    1  0.2761157E+004  0.3170383E+02  0.7546771E-02  0.1579984E+00
         21   -1    0    0  503  502  0.00000000000E+00  0.00000000000E+00  0.19301424710E+02  0.19301424710E+02  0.00000000000E+00 0. -1.
         21   -1    0    0  501  503 -0.00000000000E+00 -0.00000000000E+00 -0.82510516504E+02  0.82510516504E+02  0.00000000000E+00 0.  1.
          2    1    1    2  501    0 -0.27845601436E+02  0.15157681612E+02 -0.62521755483E+02  0.70100661479E+02  0.00000000000E+00 0.  1.
         -2    1    1    2    0  502  0.27845601436E+02 -0.15157681612E+02 -0.68733631140E+00  0.31711279735E+02  0.00000000000E+00 0. -1.
<mgrwt>
<rscale>  2 0.31703830E+02</rscale>
<asrwt>0</asrwt>
<pdfrwt beam="1">  1       21 0.29694499E-02 0.31703830E+02</pdfrwt>
<pdfrwt beam="2">  1       21 0.12693926E-01 0.31703830E+02</pdfrwt>
<totfact> 0.27205685E+07</totfact>
</mgrwt>
</event>
<event>
 4    1  0.2761157E+004  0.4246590E+02  0.7546771E-02  0.1490811E+00
         21   -1    0    0  501  502  0.00000000000E+00  0.00000000000E+00  0.10767464886E+03  0.10767464886E+03  0.00000000000E+00 0. -1.
         21   -1    0    0  502  503 -0.00000000000E+00 -0.00000000000E+00 -0.20972259127E+02  0.20972259127E+02  0.00000000000E+00 0.  1.
          2    1    1    2  501    0  0.42375071041E+02  0.27760369969E+01  0.72218977560E+02  0.83779077024E+02  0.00000000000E+00 0. -1.
         -2    1    1    2    0  503 -0.42375071041E+02 -0.27760369969E+01  0.14483412172E+02  0.44867830962E+02  0.00000000000E+00 0.  1.
<mgrwt>
<rscale>  2 0.42465904E+02</rscale>
<asrwt>0</asrwt>
<pdfrwt beam="1">  1       21 0.16565330E-01 0.42465904E+02</pdfrwt>
<pdfrwt beam="2">  1       21 0.32265015E-02 0.42465904E+02</pdfrwt>
<totfact> 0.15811098E+07</totfact>
</mgrwt>
</event>
<event>
 4    1  0.2761157E+004  0.2638853E+02  0.7546771E-02  0.1641823E+00
         21   -1    0    0  501  502  0.00000000000E+00  0.00000000000E+00  0.29752682039E+03  0.29752682039E+03  0.00000000000E+00 0.  1.
         21   -1    0    0  502  503 -0.00000000000E+00 -0.00000000000E+00 -0.23819591337E+01  0.23819591337E+01  0.00000000000E+00 0. -1.
          2    1    1    2  501    0 -0.24021945153E+02 -0.10922493227E+02  0.16736135076E+03  0.16942897166E+03  0.00000000000E+00 0. -1.
         -2    1    1    2    0  503  0.24021945153E+02  0.10922493227E+02  0.12778351049E+03  0.13047980787E+03  0.00000000000E+00 0.  1.
<mgrwt>
<rscale>  2 0.26388534E+02</rscale>
<asrwt>0</asrwt>
<pdfrwt beam="1">  1       21 0.45773328E-01 0.26388534E+02</pdfrwt>
<pdfrwt beam="2">  1       21 0.36645549E-03 0.26388534E+02</pdfrwt>
<totfact> 0.62190316E+07</totfact>
</mgrwt>
</event>
<event>
 4    1  0.2761157E+004  0.2062439E+02  0.7546771E-02  0.1733189E+00
         21   -1    0    0  501  502  0.00000000000E+00  0.00000000000E+00  0.25764213233E+01  0.25764213233E+01  0.00000000000E+00 0.  1.
         21   -1    0    0  502  503 -0.00000000000E+00 -0.00000000000E+00 -0.34192046169E+03  0.34192046169E+03  0.00000000000E+00 0. -1.
          2    1    1    2  501    0 -0.11068971789E+02 -0.17402390393E+02 -0.45803802364E+02  0.50232993529E+02  0.00000000000E+00 0. -1.
         -2    1    1    2    0  503  0.11068971789E+02  0.17402390393E+02 -0.29354023800E+03  0.29426388949E+03  0.00000000000E+00 0.  1.
<mgrwt>
<rscale>  2 0.20624387E+02</rscale>
<asrwt>0</asrwt>
<pdfrwt beam="1">  1       21 0.39637279E-03 0.20624387E+02</pdfrwt>
<pdfrwt beam="2">  1       21 0.52603111E-01 0.20624387E+02</pdfrwt>
<totfact> 0.39971145E+07</totfact>
</mgrwt>
</event>
<event>
 4    1  0.2761157E+004  0.2051174E+02  0.7546771E-02  0.1735339E+00
         21   -1    0    0  503  502  0.00000000000E+00  0.00000000000E+00  0.21736192032E+03  0.21736192032E+03  0.00000000000E+00 0. -1.
         21   -1    0    0  501  503 -0.00000000000E+00 -0.00000000000E+00 -0.27389280576E+01  0.27389280576E+01  0.00000000000E+00 0.  1.
          2    1    1    2  501    0 -0.10937776282E+02 -0.17352131079E+02  0.47712241960E+02  0.51934472519E+02  0.00000000000E+00 0.  1.
         -2    1    1    2    0  502  0.10937776282E+02  0.17352131079E+02  0.16691075030E+03  0.16816637586E+03  0.00000000000E+00 0. -1.
<mgrwt>
<rscale>  2 0.20511738E+02</rscale>
<asrwt>0</asrwt>
<pdfrwt beam="1">  1       21 0.33440282E-01 0.20511738E+02</pdfrwt>
<pdfrwt beam="2">  1       21 0.42137372E-03 0.20511738E+02</pdfrwt>
<totfact> 0.85859762E+07</totfact>
</mgrwt>
</event>
<event>
 4    1  0.2761157E+004  0.3115798E+02  0.7546771E-02  0.1585630E+00
         21   -1    0    0  503  502  0.00000000000E+00  0.00000000000E+00  0.12736080176E+02  0.12736080176E+02  0.00000000000E+00 0.  1.
         21   -1    0    0  501  503 -0.00000000000E+00 -0.00000000000E+00 -0.76974994556E+02  0.76974994556E+02  0.00000000000E+00 0. -1.
          2    1    1    2  501    0  0.15711002485E+02 -0.26906951490E+02 -0.36544311719E+02  0.48024018539E+02  0.00000000000E+00 0. -1.
         -2    1    1    2    0  502 -0.15711002485E+02  0.26906951490E+02 -0.27694602660E+02  0.41687056194E+02  0.00000000000E+00 0.  1.
<mgrwt>
<rscale>  2 0.31157979E+02</rscale>
<asrwt>0</asrwt>
<pdfrwt beam="1">  1       21 0.19593969E-02 0.31157979E+02</pdfrwt>
<pdfrwt beam="2">  1       21 0.11842307E-01 0.31157979E+02</pdfrwt>
<totfact> 0.58393588E+07</totfact>
</mgrwt>
</event>
<event>
 4    1  0.2761157E+004  0.5647674E+02  0.7546771E-02  0.1413242E+00
         21   -1    0    0  501  502  0.00000000000E+00  0.00000000000E+00  0.14591711392E+03  0.14591711392E+03  0.00000000000E+00 0.  1.
         21   -1    0    0  502  503 -0.00000000000E+00 -0.00000000000E+00 -0.40697422368E+02  0.40697422368E+02  0.00000000000E+00 0. -1.
          2    1    1    2  501    0  0.37904901514E+02 -0.41866942298E+02  0.11609215117E+03  0.12910077451E+03  0.00000000000E+00 0.  1.
         -2    1    1    2    0  503 -0.37904901514E+02  0.41866942298E+02 -0.10872459613E+02  0.57513761781E+02  0.00000000000E+00 0. -1.
<mgrwt>
<rscale>  2 0.56476742E+02</rscale>
<asrwt>0</asrwt>
<pdfrwt beam="1">  1       21 0.22448786E-01 0.56476742E+02</pdfrwt>
<pdfrwt beam="2">  1       21 0.62611420E-02 0.56476742E+02</pdfrwt>
<totfact> 0.32179145E+06</totfact>
</mgrwt>
</event>
<event>
 4    1  0.2761157E+004  0.2301453E+02  0.7546771E-02  0.1691275E+00
         21   -1    0    0  501  502  0.00000000000E+00  0.00000000000E+00  0.58943002993E+02  0.58943002993E+02  0.00000000000E+00 0. -1.
         21   -1    0    0  502  503 -0.00000000000E+00 -0.00000000000E+00 -0.11135459045E+02  0.11135459045E+02  0.00000000000E+00 0.  1.
          2    1    1    2  501    0  0.22984559827E+02  0.11741479286E+01  0.39297841911E+02  0.45541069296E+02  0.00000000000E+00 0. -1.
         -2    1    1    2    0  503 -0.22984559827E+02 -0.11741479286E+01  0.85097020382E+01  0.24537392742E+02  0.00000000000E+00 0.  1.
<mgrwt>
<rscale>  2 0.23014530E+02</rscale>
<asrwt>0</asrwt>
<pdfrwt beam="1">  1       21 0.90681541E-02 0.23014530E+02</pdfrwt>
<pdfrwt beam="2">  1       21 0.17131476E-02 0.23014530E+02</pdfrwt>
<totfact> 0.10384572E+08</totfact>
</mgrwt>
</event>
<event>
 4    1  0.2761157E+004  0.4251885E+02  0.7546771E-02  0.1490453E+00
         21   -1    0    0  503  502  0.00000000000E+00  0.00000000000E+00  0.20289318194E+03  0.20289318194E+03  0.00000000000E+00 0.  1.
         21   -1    0    0  501  503 -0.00000000000E+00 -0.00000000000E+00 -0.11272776116E+02  0.11272776116E+02  0.00000000000E+00 0. -1.
          2    1    1    2  501    0 -0.31838647097E+02  0.28180722925E+02  0.46789152529E+02  0.63222443704E+02  0.00000000000E+00 0. -1.
         -2    1    1    2    0  502  0.31838647097E+02 -0.28180722925E+02  0.14483125329E+03  0.15094351435E+03  0.00000000000E+00 0.  1.
<mgrwt>
<rscale>  2 0.42518850E+02</rscale>
<asrwt>0</asrwt>
<pdfrwt beam="1">  1       21 0.31214333E-01 0.42518850E+02</pdfrwt>
<pdfrwt beam="2">  1       21 0.17342734E-02 0.42518850E+02</pdfrwt>
<totfact> 0.13359486E+07</totfact>
</mgrwt>
</event>
<event>
 4    1  0.2761157E+004  0.2903233E+02  0.7546771E-02  0.1609038E+00
         21   -1    0    0  501  502  0.00000000000E+00  0.00000000000E+00  0.45314466080E+02  0.45314466080E+02  0.00000000000E+00 0.  1.
         21   -1    0    0  502  503 -0.00000000000E+00 -0.00000000000E+00 -0.27364649392E+02  0.27364649392E+02  0.00000000000E+00 0. -1.
          2    1    1    2  501    0  0.48938999164E+00 -0.29028206671E+02  0.29540304826E+02  0.41418666013E+02  0.00000000000E+00 0.  1.
         -2    1    1    2    0  503 -0.48938999164E+00  0.29028206671E+02 -0.11590488139E+02  0.31260449459E+02  0.00000000000E+00 0. -1.
<mgrwt>
<rscale>  2 0.29032332E+02</rscale>
<asrwt>0</asrwt>
<pdfrwt beam="1">  1       21 0.69714563E-02 0.29032332E+02</pdfrwt>
<pdfrwt beam="2">  1       21 0.42099461E-02 0.29032332E+02</pdfrwt>
<totfact> 0.41739983E+07</totfact>
</mgrwt>
</event>
<event>
 4    1  0.2761157E+004  0.2105665E+02  0.7546771E-02  0.1725097E+00
         21   -1    0    0  501  502  0.00000000000E+00  0.00000000000E+00  0.29114500332E+01  0.29114500332E+01  0.00000000000E+00 0. -1.
         21   -1    0    0  502  503 -0.00000000000E+00 -0.00000000000E+00 -0.26016627898E+03  0.26016627898E+03  0.00000000000E+00 0.  1.
          2    1    1    2  501    0 -0.23198686342E+01  0.20928467903E+02 -0.43925532022E+02  0.48711753435E+02  0.00000000000E+00 0. -1.
         -2    1    1    2    0  503  0.23198686342E+01 -0.20928467903E+02 -0.21332929692E+03  0.21436597557E+03  0.00000000000E+00 0.  1.
<mgrwt>
<rscale>  2 0.21056651E+02</rscale>
<asrwt>0</asrwt>
<pdfrwt beam="1">  1       21 0.44791535E-03 0.21056651E+02</pdfrwt>
<pdfrwt beam="2">  1       21 0.40025585E-01 0.21056651E+02</pdfrwt>
<totfact> 0.56644119E+07</totfact>
</mgrwt>
</event>
<event>
 4    1  0.2761157E+004  0.6229241E+02  0.7546771E-02  0.1388456E+00
         21   -1    0    0  503  502  0.00000000000E+00  0.00000000000E+00  0.38473635167E+02  0.38473635167E+02  0.00000000000E+00 0. -1.
         21   -1    0    0  501  503 -0.00000000000E+00 -0.00000000000E+00 -0.45882614028E+03  0.45882614028E+03  0.00000000000E+00 0.  1.
          2    1    1    2  501    0  0.52893897817E+02  0.32902591175E+02 -0.42980381199E+03  0.43429444128E+03  0.00000000000E+00 0.  1.
         -2    1    1    2    0  502 -0.52893897817E+02 -0.32902591175E+02  0.94513068678E+01  0.63005334169E+02  0.00000000000E+00 0. -1.
<mgrwt>
<rscale>  2 0.62292415E+02</rscale>
<asrwt>0</asrwt>
<pdfrwt beam="1">  1       21 0.59190205E-02 0.62292415E+02</pdfrwt>
<pdfrwt beam="2">  1       21 0.70588641E-01 0.62292415E+02</pdfrwt>
<totfact> 0.37512510E+05</totfact>
</mgrwt>
</event>
<event>
 4    1  0.2761157E+004  0.2172962E+02  0.7546771E-02  0.1712970E+00
         21   -1    0    0  503  502  0.00000000000E+00  0.00000000000E+00  0.10950050179E+02  0.10950050179E+02  0.00000000000E+00 0.  1.
         21   -1    0    0  501  503 -0.00000000000E+00 -0.00000000000E+00 -0.11153919846E+03  0.11153919846E+03  0.00000000000E+00 0. -1.
          2    1    1    2  501    0 -0.97983350673E+01  0.19395079707E+02 -0.98261315365E+02  0.10063529492E+03  0.00000000000E+00 0. -1.
         -2    1    1    2    0  502  0.97983350673E+01 -0.19395079707E+02 -0.23278329152E+01  0.21853953716E+02  0.00000000000E+00 0.  1.
<mgrwt>
<rscale>  2 0.21729622E+02</rscale>
<asrwt>0</asrwt>
<pdfrwt beam="1">  1       21 0.16846232E-02 0.21729622E+02</pdfrwt>
<pdfrwt beam="2">  1       21 0.17159876E-01 0.21729622E+02</pdfrwt>
<totfact> 0.35973476E+07</totfact>
</mgrwt>
</event>
<event>
 4    1  0.2761157E+004  0.2244896E+02  0.7546771E-02  0.1700601E+00
         21   -1    0    0  501  502  0.00000000000E+00  0.00000000000E+00  0.11724705161E+03  0.11724705161E+03  0.00000000000E+00 0. -1.
         21   -1    0    0  502  503 -0.00000000000E+00 -0.00000000000E+00 -0.78074462034E+01  0.78074462034E+01  0.00000000000E+00 0.  1.
          2    1    1    2  501    0  0.24210090844E+00  0.22447658098E+02  0.96639608785E+02  0.99212750960E+02  0.00000000000E+00 0.  1.
         -2    1    1    2    0  503 -0.24210090844E+00 -0.22447658098E+02  0.12799996622E+02  0.25841746854E+02  0.00000000000E+00 0. -1.
<mgrwt>
<rscale>  2 0.22448964E+02</rscale>
<asrwt>0</asrwt>
<pdfrwt beam="1">  1       21 0.18038007E-01 0.22448964E+02</pdfrwt>
<pdfrwt beam="2">  1       21 0.12011457E-02 0.22448964E+02</pdfrwt>
<totfact> 0.55570686E+07</totfact>
</mgrwt>
</event>
<event>
 4    1  0.2761157E+004  0.2089722E+02  0.7546771E-02  0.1728053E+00
         21   -1    0    0  501  502  0.00000000000E+00  0.00000000000E+00  0.88000989914E+00  0.88000989914E+00  0.00000000000E+00 0. -1.
         21   -1    0    0  502  503 -0.00000000000E+00 -0.00000000000E+00 -0.59436142756E+03  0.59436142756E+03  0.00000000000E+00 0.  1.
          2    1    1    2  501    0 -0.55600211109E+01 -0.20143978683E+02 -0.17581300181E+03  0.17705057276E+03  0.00000000000E+00 0. -1.
         -2    1    1    2    0  503  0.55600211109E+01  0.20143978683E+02 -0.41766841585E+03  0.41819086469E+03  0.00000000000E+00 0.  1.
<mgrwt>
<rscale>  2 0.20897218E+02</rscale>
<asrwt>0</asrwt>
<pdfrwt beam="1">  1       21 0.13538575E-03 0.20897218E+02</pdfrwt>
<pdfrwt beam="2">  1       21 0.91440479E-01 0.20897218E+02</pdfrwt>
<totfact> 0.61222625E+07</totfact>
</mgrwt>
</event>
<event>
 4    1  0.2761157E+004  0.5226192E+02  0.7546771E-02  0.1433510E+00
         21   -1    0    0  501  502  0.00000000000E+00  0.00000000000E+00  0.21972430088E+03  0.21972430088E+03  0.00000000000E+00 0. -1.
         21   -1    0    0  502  503 -0.00000000000E+00 -0.00000000000E+00 -0.15749362501E+02  0.15749362501E+02  0.00000000000E+00 0.  1.
          2    1    1    2  501    0  0.50961165657E+02 -0.11587394612E+02  0.15603401989E+03  0.16455371002E+03  0.00000000000E+00 0. -1.
         -2    1    1    2    0  503 -0.50961165657E+02  0.11587394612E+02  0.47940918494E+02  0.70919953363E+02  0.00000000000E+00 0.  1.
<mgrwt>
<rscale>  2 0.52261918E+02</rscale>
<asrwt>0</asrwt>
<pdfrwt beam="1">  1       21 0.33803736E-01 0.52261918E+02</pdfrwt>
<pdfrwt beam="2">  1       21 0.24229790E-02 0.52261918E+02</pdfrwt>
<totfact> 0.69579849E+06</totfact>
</mgrwt>
</event>
<event>
 4    1  0.2761157E+004  0.2102000E+02  0.7546771E-02  0.1725773E+00
         21   -1    0    0  503  502  0.00000000000E+00  0.00000000000E+00  0.13580405484E+03  0.13580405484E+03  0.00000000000E+00 0.  1.
         21   -1    0    0  501  503 -0.00000000000E+00 -0.00000000000E+00 -0.39753133994E+01  0.39753133994E+01  0.00000000000E+00 0. -1.
          2    1    1    2  501    0 -0.18628607526E+02 -0.97373186384E+01  0.36133619283E+02  0.41802856782E+02  0.00000000000E+00 0. -1.
         -2    1    1    2    0  502  0.18628607526E+02  0.97373186384E+01  0.95695122154E+02  0.97976511454E+02  0.00000000000E+00 0.  1.
<mgrwt>
<rscale>  2 0.21020000E+02</rscale>
<asrwt>0</asrwt>
<pdfrwt beam="1">  1       21 0.20892928E-01 0.21020000E+02</pdfrwt>
<pdfrwt beam="2">  1       21 0.61158678E-03 0.21020000E+02</pdfrwt>
<totfact> 0.11583842E+08</totfact>
</mgrwt>
</event>
<event>
 4    1  0.2761157E+004  0.2019657E+02  0.7546771E-02  0.1741447E+00
         21   -1    0    0  503  502  0.00000000000E+00  0.00000000000E+00  0.96161370810E+00  0.96161370810E+00  0.00000000000E+00 0.  1.
         21   -1    0    0  501  503 -0.00000000000E+00 -0.00000000000E+00 -0.43979032724E+03  0.43979032724E+03  0.00000000000E+00 0. -1.
          2    1    1    2  501    0 -0.19113779431E+01  0.20105924947E+02 -0.26092748582E+03  0.26170795639E+03  0.00000000000E+00 0.  1.
         -2    1    1    2    0  502  0.19113779431E+01 -0.20105924947E+02 -0.17790122771E+03  0.17904398456E+03  0.00000000000E+00 0. -1.
<mgrwt>
<rscale>  2 0.20196574E+02</rscale>
<asrwt>0</asrwt>
<pdfrwt beam="1">  1       21 0.14794071E-03 0.20196574E+02</pdfrwt>
<pdfrwt beam="2">  1       21 0.67659985E-01 0.20196574E+02</pdfrwt>
<totfact> 0.10009321E+08</totfact>
</mgrwt>
</event>
<event>
 4    1  0.2761157E+004  0.2358982E+02  0.7546771E-02  0.1682124E+00
         21   -1    0    0  501  502  0.00000000000E+00  0.00000000000E+00  0.18129302504E+02  0.18129302504E+02  0.00000000000E+00 0. -1.
         21   -1    0    0  502  503 -0.00000000000E+00 -0.00000000000E+00 -0.62163791559E+02  0.62163791559E+02  0.00000000000E+00 0.  1.
          2    1    1    2  501    0 -0.21828684621E+02  0.89436160668E+01  0.65467656056E+01  0.24481419087E+02  0.00000000000E+00 0. -1.
         -2    1    1    2    0  503  0.21828684621E+02 -0.89436160668E+01 -0.50581254660E+02  0.55811674976E+02  0.00000000000E+00 0.  1.
<mgrwt>
<rscale>  2 0.23589823E+02</rscale>
<asrwt>0</asrwt>
<pdfrwt beam="1">  1       21 0.27891235E-02 0.23589823E+02</pdfrwt>
<pdfrwt beam="2">  1       21 0.95636602E-02 0.23589823E+02</pdfrwt>
<totfact> 0.45210784E+07</totfact>
</mgrwt>
</event>
<event>
 4    1  0.2761157E+004  0.2984814E+02  0.7546771E-02  0.1599773E+00
         21   -1    0    0  503  502  0.00000000000E+00  0.00000000000E+00  0.22071432619E+02  0.22071432619E+02  0.00000000000E+00 0.  1.
         21   -1    0    0  501  503 -0.00000000000E+00 -0.00000000000E+00 -0.10648333914E+03  0.10648333914E+03  0.00000000000E+00 0. -1.
          2    1    1    2  501    0  0.13701604101E+02 -0.26517491529E+02 -0.92855860055E+02  0.97535234959E+02  0.00000000000E+00 0. -1.
         -2    1    1    2    0  502 -0.13701604101E+02  0.26517491529E+02  0.84439535350E+01  0.31019536799E+02  0.00000000000E+00 0.  1.
<mgrwt>
<rscale>  2 0.29848137E+02</rscale>
<asrwt>0</asrwt>
<pdfrwt beam="1">  1       21 0.33956051E-02 0.29848137E+02</pdfrwt>
<pdfrwt beam="2">  1       21 0.16382052E-01 0.29848137E+02</pdfrwt>
<totfact> 0.14053986E+07</totfact>
</mgrwt>
</event>
<event>
 4    1  0.2761157E+004  0.2024736E+02  0.7546771E-02  0.1740453E+00
         21   -1    0    0  503  502  0.00000000000E+00  0.00000000000E+00  0.35020109536E+01  0.35020109536E+01  0.00000000000E+00 0. -1.
         21   -1    0    0  501  503 -0.00000000000E+00 -0.00000000000E+00 -0.13446693138E+03  0.13446693138E+03  0.00000000000E+00 0.  1.
          2    1    1    2  501    0 -0.14318805002E+02  0.14315283392E+02 -0.90300568414E+02  0.92542682969E+02  0.00000000000E+00 0.  1.
         -2    1    1    2    0  502  0.14318805002E+02 -0.14315283392E+02 -0.40664352015E+02  0.45426259367E+02  0.00000000000E+00 0. -1.
<mgrwt>
<rscale>  2 0.20247358E+02</rscale>
<asrwt>0</asrwt>
<pdfrwt beam="1">  1       21 0.53877080E-03 0.20247358E+02</pdfrwt>
<pdfrwt beam="2">  1       21 0.20687225E-01 0.20247358E+02</pdfrwt>
<totfact> 0.14052445E+08</totfact>
</mgrwt>
</event>
<event>
 4    1  0.2761157E+004  0.2291796E+02  0.7546771E-02  0.1692843E+00
         21   -1    0    0  501  502  0.00000000000E+00  0.00000000000E+00  0.28666507569E+03  0.28666507569E+03  0.00000000000E+00 0. -1.
         21   -1    0    0  502  503 -0.00000000000E+00 -0.00000000000E+00 -0.18460458865E+01  0.18460458865E+01  0.00000000000E+00 0.  1.
          2    1    1    2  501    0  0.86849074944E+01  0.21208617549E+02  0.12992475516E+03  0.13193056916E+03  0.00000000000E+00 0. -1.
         -2    1    1    2    0  503 -0.86849074944E+01 -0.21208617549E+02  0.15489427464E+03  0.15658055241E+03  0.00000000000E+00 0.  1.
<mgrwt>
<rscale>  2 0.22917964E+02</rscale>
<asrwt>0</asrwt>
<pdfrwt beam="1">  1       21 0.44102284E-01 0.22917964E+02</pdfrwt>
<pdfrwt beam="2">  1       21 0.28400729E-03 0.22917964E+02</pdfrwt>
<totfact> 0.93725581E+07</totfact>
</mgrwt>
</event>
<event>
 4    1  0.2761157E+004  0.3738360E+02  0.7546771E-02  0.1528398E+00
         21   -1    0    0  501  502  0.00000000000E+00  0.00000000000E+00  0.22461082880E+03  0.22461082880E+03  0.00000000000E+00 0.  1.
         21   -1    0    0  502  503 -0.00000000000E+00 -0.00000000000E+00 -0.90170876493E+01  0.90170876493E+01  0.00000000000E+00 0. -1.
          2    1    1    2  501    0  0.26447285125E+02 -0.26421097470E+02  0.17283344867E+03  0.17683024137E+03  0.00000000000E+00 0.  1.
         -2    1    1    2    0  503 -0.26447285125E+02  0.26421097470E+02  0.42760292480E+02  0.56797675084E+02  0.00000000000E+00 0. -1.
<mgrwt>
<rscale>  2 0.37383596E+02</rscale>
<asrwt>0</asrwt>
<pdfrwt beam="1">  1       21 0.34555508E-01 0.37383596E+02</pdfrwt>
<pdfrwt beam="2">  1       21 0.13872444E-02 0.37383596E+02</pdfrwt>
<totfact> 0.15315420E+07</totfact>
</mgrwt>
</event>
<event>
 4    1  0.2761157E+004  0.2197552E+02  0.7546771E-02  0.1708676E+00
         21   -1    0    0  503  502  0.00000000000E+00  0.00000000000E+00  0.27282178000E+01  0.27282178000E+01  0.00000000000E+00 0. -1.
         21   -1    0    0  501  503 -0.00000000000E+00 -0.00000000000E+00 -0.27264996646E+03  0.27264996646E+03  0.00000000000E+00 0.  1.
          2    1    1    2  501    0 -0.21783907545E+02 -0.28956430794E+01 -0.21650923494E+03  0.21762162620E+03  0.00000000000E+00 0.  1.
         -2    1    1    2    0  502  0.21783907545E+02  0.28956430794E+01 -0.53412513724E+02  0.57756558062E+02  0.00000000000E+00 0. -1.
<mgrwt>
<rscale>  2 0.21975518E+02</rscale>
<asrwt>0</asrwt>
<pdfrwt beam="1">  1       21 0.41972562E-03 0.21975518E+02</pdfrwt>
<pdfrwt beam="2">  1       21 0.41946168E-01 0.21975518E+02</pdfrwt>
<totfact> 0.57652871E+07</totfact>
</mgrwt>
</event>
<event>
 4    1  0.2761157E+004  0.2721361E+02  0.7546771E-02  0.1631102E+00
         21   -1    0    0  501  502  0.00000000000E+00  0.00000000000E+00  0.18065708849E+03  0.18065708849E+03  0.00000000000E+00 0.  1.
         21   -1    0    0  502  503 -0.00000000000E+00 -0.00000000000E+00 -0.41004907396E+01  0.41004907396E+01  0.00000000000E+00 0. -1.
          2    1    1    2  501    0  0.26630634399E+02 -0.56026754623E+01  0.89803982252E+02  0.93836751271E+02  0.00000000000E+00 0. -1.
         -2    1    1    2    0  503 -0.26630634399E+02  0.56026754623E+01  0.86752615498E+02  0.90920827958E+02  0.00000000000E+00 0.  1.
<mgrwt>
<rscale>  2 0.27213612E+02</rscale>
<asrwt>0</asrwt>
<pdfrwt beam="1">  1       21 0.27793392E-01 0.27213612E+02</pdfrwt>
<pdfrwt beam="2">  1       21 0.63084487E-03 0.27213612E+02</pdfrwt>
<totfact> 0.71231335E+07</totfact>
</mgrwt>
</event>
<event>
 4    1  0.2761157E+004  0.5820876E+02  0.7546771E-02  0.1405506E+00
         21   -1    0    0  503  502  0.00000000000E+00  0.00000000000E+00  0.54613288366E+02  0.54613288366E+02  0.00000000000E+00 0. -1.
         21   -1    0    0  501  503 -0.00000000000E+00 -0.00000000000E+00 -0.10077047083E+03  0.10077047083E+03  0.00000000000E+00 0.  1.
          2    1    1    2  501    0  0.58199560726E+02  0.10345589153E+01 -0.71243435528E+02  0.91999381991E+02  0.00000000000E+00 0.  1.
         -2    1    1    2    0  502 -0.58199560726E+02 -0.10345589153E+01  0.25086253064E+02  0.63384377205E+02  0.00000000000E+00 0. -1.
<mgrwt>
<rscale>  2 0.58208755E+02</rscale>
<asrwt>0</asrwt>
<pdfrwt beam="1">  1       21 0.84020446E-02 0.58208755E+02</pdfrwt>
<pdfrwt beam="2">  1       21 0.15503149E-01 0.58208755E+02</pdfrwt>
<totfact> 0.38279885E+06</totfact>
</mgrwt>
</event>
<event>
 4    1  0.2761157E+004  0.5549490E+02  0.7546771E-02  0.1417773E+00
         21   -1    0    0  503  502  0.00000000000E+00  0.00000000000E+00  0.16631460926E+03  0.16631460926E+03  0.00000000000E+00 0. -1.
         21   -1    0    0  501  503 -0.00000000000E+00 -0.00000000000E+00 -0.21148226980E+02  0.21148226980E+02  0.00000000000E+00 0.  1.
          2    1    1    2  501    0 -0.53555238753E+02  0.14543727990E+02  0.39522685022E+02  0.68130215419E+02  0.00000000000E+00 0.  1.
         -2    1    1    2    0  502  0.53555238753E+02 -0.14543727990E+02  0.10564369726E+03  0.11933262082E+03  0.00000000000E+00 0. -1.
<mgrwt>
<rscale>  2 0.55494897E+02</rscale>
<asrwt>0</asrwt>
<pdfrwt beam="1">  1       21 0.25586862E-01 0.55494897E+02</pdfrwt>
<pdfrwt beam="2">  1       21 0.32535735E-02 0.55494897E+02</pdfrwt>
<totfact> 0.73653399E+06</totfact>
</mgrwt>
</event>
<event>
 4    1  0.2761157E+004  0.2040939E+02  0.7546771E-02  0.1737307E+00
         21   -1    0    0  501  502  0.00000000000E+00  0.00000000000E+00  0.58030601915E+02  0.58030601915E+02  0.00000000000E+00 0.  1.
         21   -1    0    0  502  503 -0.00000000000E+00 -0.00000000000E+00 -0.71920576826E+01  0.71920576826E+01  0.00000000000E+00 0. -1.
          2    1    1    2  501    0  0.18062204142E+02 -0.95026292864E+01  0.23977069820E+02  0.31487188807E+02  0.00000000000E+00 0. -1.
         -2    1    1    2    0  503 -0.18062204142E+02  0.95026292864E+01  0.26861474413E+02  0.33735470790E+02  0.00000000000E+00 0.  1.
<mgrwt>
<rscale>  2 0.20409390E+02</rscale>
<asrwt>0</asrwt>
<pdfrwt beam="1">  1       21 0.89277846E-02 0.20409390E+02</pdfrwt>
<pdfrwt beam="2">  1       21 0.11064705E-02 0.20409390E+02</pdfrwt>
<totfact> 0.19902727E+08</totfact>
</mgrwt>
</event>
<event>
 4    1  0.2761157E+004  0.2219732E+02  0.7546771E-02  0.1704862E+00
         21   -1    0    0  503  502  0.00000000000E+00  0.00000000000E+00  0.22851813704E+02  0.22851813704E+02  0.00000000000E+00 0.  1.
         21   -1    0    0  501  503 -0.00000000000E+00 -0.00000000000E+00 -0.79576508967E+02  0.79576508967E+02  0.00000000000E+00 0. -1.
          2    1    1    2  501    0  0.15695842596E+02 -0.15695906804E+02 -0.72091146290E+02  0.75431123143E+02  0.00000000000E+00 0. -1.
         -2    1    1    2    0  502 -0.15695842596E+02  0.15695906804E+02  0.15366451027E+02  0.26997199528E+02  0.00000000000E+00 0.  1.
<mgrwt>
<rscale>  2 0.22197319E+02</rscale>
<asrwt>0</asrwt>
<pdfrwt beam="1">  1       21 0.35156636E-02 0.22197319E+02</pdfrwt>
<pdfrwt beam="2">  1       21 0.12242540E-01 0.22197319E+02</pdfrwt>
<totfact> 0.20596839E+07</totfact>
</mgrwt>
</event>
<event>
 4    1  0.2761157E+004  0.2035158E+02  0.7546771E-02  0.1738425E+00
         21   -1    0    0  501  502  0.00000000000E+00  0.00000000000E+00  0.25174074780E+01  0.25174074780E+01  0.00000000000E+00 0. -1.
         21   -1    0    0  502  503 -0.00000000000E+00 -0.00000000000E+00 -0.16596396025E+03  0.16596396025E+03  0.00000000000E+00 0.  1.
          2    1    1    2  501    0 -0.10483200608E+02  0.17443890619E+02 -0.89556095466E+02  0.91839430802E+02  0.00000000000E+00 0. -1.
         -2    1    1    2    0  503  0.10483200608E+02 -0.17443890619E+02 -0.73890457310E+02  0.76641936930E+02  0.00000000000E+00 0.  1.
<mgrwt>
<rscale>  2 0.20351580E+02</rscale>
<asrwt>0</asrwt>
<pdfrwt beam="1">  1       21 0.38729357E-03 0.20351580E+02</pdfrwt>
<pdfrwt beam="2">  1       21 0.25532909E-01 0.20351580E+02</pdfrwt>
<totfact> 0.15767405E+08</totfact>
</mgrwt>
</event>
<event>
 4    1  0.2761157E+004  0.2106329E+02  0.7546771E-02  0.1724974E+00
         21   -1    0    0  503  502  0.00000000000E+00  0.00000000000E+00  0.38406625145E+02  0.38406625145E+02  0.00000000000E+00 0. -1.
         21   -1    0    0  501  503 -0.00000000000E+00 -0.00000000000E+00 -0.31742803990E+02  0.31742803990E+02  0.00000000000E+00 0.  1.
          2    1    1    2  501    0 -0.16196561648E+02  0.13466022261E+02 -0.24641883894E+02  0.32417353479E+02  0.00000000000E+00 0.  1.
         -2    1    1    2    0  502  0.16196561648E+02 -0.13466022261E+02  0.31305705048E+02  0.37732075656E+02  0.00000000000E+00 0. -1.
<mgrwt>
<rscale>  2 0.21063294E+02</rscale>
<asrwt>0</asrwt>
<pdfrwt beam="1">  1       21 0.59087116E-02 0.21063294E+02</pdfrwt>
<pdfrwt beam="2">  1       21 0.48835083E-02 0.21063294E+02</pdfrwt>
<totfact> 0.39876440E+07</totfact>
</mgrwt>
</event>
<event>
 4    1  0.2761157E+004  0.2150012E+02  0.7546771E-02  0.1717043E+00
         21   -1    0    0  503  502  0.00000000000E+00  0.00000000000E+00  0.12818629045E+02  0.12818629045E+02  0.00000000000E+00 0. -1.
         21   -1    0    0  501  503 -0.00000000000E+00 -0.00000000000E+00 -0.36091222378E+02  0.36091222378E+02  0.00000000000E+00 0.  1.
          2    1    1    2  501    0  0.17039471804E+01  0.21432494398E+02 -0.12341522255E+02  0.24790490590E+02  0.00000000000E+00 0.  1.
         -2    1    1    2    0  502 -0.17039471804E+01 -0.21432494398E+02 -0.10931071078E+02  0.24119360833E+02  0.00000000000E+00 0. -1.
<mgrwt>
<rscale>  2 0.21500122E+02</rscale>
<asrwt>0</asrwt>
<pdfrwt beam="1">  1       21 0.19720968E-02 0.21500122E+02</pdfrwt>
<pdfrwt beam="2">  1       21 0.55524957E-02 0.21500122E+02</pdfrwt>
<totfact> 0.18152675E+08</totfact>
</mgrwt>
</event>
<event>
 4    1  0.2761157E+004  0.2674792E+02  0.7546771E-02  0.1637095E+00
         21   -1    0    0  501  502  0.00000000000E+00  0.00000000000E+00  0.29782175259E+01  0.29782175259E+01  0.00000000000E+00 0. -1.
         21   -1    0    0  502  503 -0.00000000000E+00 -0.00000000000E+00 -0.24823465302E+03  0.24823465302E+03  0.00000000000E+00 0.  1.
          2    1    1    2  501    0 -0.26342235956E+02  0.46409095156E+01 -0.10007001991E+03  0.10358310828E+03  0.00000000000E+00 0. -1.
         -2    1    1    2    0  503  0.26342235956E+02 -0.46409095156E+01 -0.14518641559E+03  0.14762976227E+03  0.00000000000E+00 0.  1.
<mgrwt>
<rscale>  2 0.26747924E+02</rscale>
<asrwt>0</asrwt>
<pdfrwt beam="1">  1       21 0.45818720E-03 0.26747924E+02</pdfrwt>
<pdfrwt beam="2">  1       21 0.38189956E-01 0.26747924E+02</pdfrwt>
<totfact> 0.63388049E+07</totfact>
</mgrwt>
</event>
<event>
 4    1  0.2761157E+004  0.2626376E+02  0.7546771E-02  0.1643487E+00
         21   -1    0    0  503  502  0.00000000000E+00  0.00000000000E+00  0.14519051447E+01  0.14519051447E+01  0.00000000000E+00 0. -1.
         21   -1    0    0  501  503 -0.00000000000E+00 -0.00000000000E+00 -0.54136850295E+03  0.54136850295E+03  0.00000000000E+00 0.  1.
          2    1    1    2  501    0  0.26134662291E+02  0.26008459303E+01 -0.36492415210E+03  0.36586803872E+03  0.00000000000E+00 0.  1.
         -2    1    1    2    0  502 -0.26134662291E+02 -0.26008459303E+01 -0.17499244570E+03  0.17695236937E+03  0.00000000000E+00 0. -1.
<mgrwt>
<rscale>  2 0.26263758E+02</rscale>
<asrwt>0</asrwt>
<pdfrwt beam="1">  1       21 0.22336957E-03 0.26263758E+02</pdfrwt>
<pdfrwt beam="2">  1       21 0.83287631E-01 0.26263758E+02</pdfrwt>
<totfact> 0.38179855E+07</totfact>
</mgrwt>
</event>
<event>
 4    1  0.2761157E+004  0.2554909E+02  0.7546771E-02  0.1653238E+00
         21   -1    0    0  503  502  0.00000000000E+00  0.00000000000E+00  0.26352162516E+03  0.26352162516E+03  0.00000000000E+00 0. -1.
         21   -1    0    0  501  503 -0.00000000000E+00 -0.00000000000E+00 -0.28545932457E+01  0.28545932457E+01  0.00000000000E+00 0.  1.
          2    1    1    2  501    0 -0.15429875527E+02  0.20363572369E+02  0.81896551909E+02  0.85789284604E+02  0.00000000000E+00 0.  1.
         -2    1    1    2    0  502  0.15429875527E+02 -0.20363572369E+02  0.17877048000E+03  0.18058693380E+03  0.00000000000E+00 0. -1.
<mgrwt>
<rscale>  2 0.25549093E+02</rscale>
<asrwt>0</asrwt>
<pdfrwt beam="1">  1       21 0.40541769E-01 0.25549093E+02</pdfrwt>
<pdfrwt beam="2">  1       21 0.43916840E-03 0.25549093E+02</pdfrwt>
<totfact> 0.59650469E+07</totfact>
</mgrwt>
</event>
<event>
 4    1  0.2761157E+004  0.2010117E+02  0.7546771E-02  0.1743324E+00
         21   -1    0    0  503  502  0.00000000000E+00  0.00000000000E+00  0.14390531478E+02  0.14390531478E+02  0.00000000000E+00 0. -1.
         21   -1    0    0  501  503 -0.00000000000E+00 -0.00000000000E+00 -0.12475788939E+03  0.12475788939E+03  0.00000000000E+00 0.  1.
          2    1    1    2  501    0  0.15917080082E+02  0.12276143076E+02 -0.11643033515E+03  0.11815278275E+03  0.00000000000E+00 0.  1.
         -2    1    1    2    0  502 -0.15917080082E+02 -0.12276143076E+02  0.60629772391E+01  0.20995638122E+02  0.00000000000E+00 0. -1.
<mgrwt>
<rscale>  2 0.20101172E+02</rscale>
<asrwt>0</asrwt>
<pdfrwt beam="1">  1       21 0.22139279E-02 0.20101172E+02</pdfrwt>
<pdfrwt beam="2">  1       21 0.19193522E-01 0.20101172E+02</pdfrwt>
<totfact> 0.19187989E+07</totfact>
</mgrwt>
</event>
<event>
 4    1  0.2761157E+004  0.2090575E+02  0.7546771E-02  0.1727894E+00
         21   -1    0    0  501  502  0.00000000000E+00  0.00000000000E+00  0.16878524692E+03  0.16878524692E+03  0.00000000000E+00 0. -1.
         21   -1    0    0  502  503 -0.00000000000E+00 -0.00000000000E+00 -0.31350806057E+01  0.31350806057E+01  0.00000000000E+00 0.  1.
          2    1    1    2  501    0  0.50791724629E+01  0.20279359161E+02  0.11868812559E+03  0.12051523371E+03  0.00000000000E+00 0. -1.
         -2    1    1    2    0  503 -0.50791724629E+01 -0.20279359161E+02  0.46962040725E+02  0.51405093813E+02  0.00000000000E+00 0.  1.
<mgrwt>
<rscale>  2 0.20905750E+02</rscale>
<asrwt>0</asrwt>
<pdfrwt beam="1">  1       21 0.25966954E-01 0.20905750E+02</pdfrwt>
<pdfrwt beam="2">  1       21 0.48232022E-03 0.20905750E+02</pdfrwt>
<totfact> 0.11184092E+08</totfact>
</mgrwt>
</event>
<event>
 4    1  0.2761157E+004  0.2281012E+02  0.7546771E-02  0.1694607E+00
         21   -1    0    0  501  502  0.00000000000E+00  0.00000000000E+00  0.90099494177E+00  0.90099494177E+00  0.00000000000E+00 0.  1.
         21   -1    0    0  502  503 -0.00000000000E+00 -0.00000000000E+00 -0.82535024992E+03  0.82535024992E+03  0.00000000000E+00 0. -1.
          2    1    1    2  501    0 -0.21314295966E+02  0.81241915455E+01 -0.18582280758E+03  0.18721756733E+03  0.00000000000E+00 0.  1.
         -2    1    1    2    0  503  0.21314295966E+02 -0.81241915455E+01 -0.63862644740E+03  0.63903367753E+03  0.00000000000E+00 0. -1.
<mgrwt>
<rscale>  2 0.22810123E+02</rscale>
<asrwt>0</asrwt>
<pdfrwt beam="1">  1       21 0.13861366E-03 0.22810123E+02</pdfrwt>
<pdfrwt beam="2">  1       21 0.12697783E+00 0.22810123E+02</pdfrwt>
<totfact> 0.29167472E+07</totfact>
</mgrwt>
</event>
<event>
 4    1  0.2761157E+004  0.2601068E+02  0.7546771E-02  0.1646896E+00
         21   -1    0    0  503  502  0.00000000000E+00  0.00000000000E+00  0.98562509021E+01  0.98562509021E+01  0.00000000000E+00 0. -1.
         21   -1    0    0  501  503 -0.00000000000E+00 -0.00000000000E+00 -0.70496443411E+02  0.70496443411E+02  0.00000000000E+00 0.  1.
          2    1    1    2  501    0 -0.25186247542E+02 -0.64968008461E+01 -0.36835801274E+02  0.45093588702E+02  0.00000000000E+00 0.  1.
         -2    1    1    2    0  502  0.25186247542E+02  0.64968008461E+01 -0.23804391235E+02  0.35259105612E+02  0.00000000000E+00 0. -1.
<mgrwt>
<rscale>  2 0.26010680E+02</rscale>
<asrwt>0</asrwt>
<pdfrwt beam="1">  1       21 0.15163464E-02 0.26010680E+02</pdfrwt>
<pdfrwt beam="2">  1       21 0.10845606E-01 0.26010680E+02</pdfrwt>
<totfact> 0.96150064E+07</totfact>
</mgrwt>
</event>
<event>
 4    1  0.2761157E+004  0.2071176E+02  0.7546771E-02  0.1731533E+00
         21   -1    0    0  501  502  0.00000000000E+00  0.00000000000E+00  0.52929683872E+02  0.52929683872E+02  0.00000000000E+00 0.  1.
         21   -1    0    0  502  503 -0.00000000000E+00 -0.00000000000E+00 -0.11316999763E+02  0.11316999763E+02  0.00000000000E+00 0. -1.
          2    1    1    2  501    0 -0.15052660312E+01 -0.20656985984E+02  0.37920914439E+02  0.43208478887E+02  0.00000000000E+00 0.  1.
         -2    1    1    2    0  503  0.15052660312E+01  0.20656985984E+02  0.36917696698E+01  0.21038204749E+02  0.00000000000E+00 0. -1.
<mgrwt>
<rscale>  2 0.20711757E+02</rscale>
<asrwt>0</asrwt>
<pdfrwt beam="1">  1       21 0.81430281E-02 0.20711757E+02</pdfrwt>
<pdfrwt beam="2">  1       21 0.17410769E-02 0.20711757E+02</pdfrwt>
<totfact> 0.11713429E+08</totfact>
</mgrwt>
</event>
<event>
 4    1  0.2761157E+004  0.2048892E+02  0.7546771E-02  0.1735776E+00
         21   -1    0    0  503  502  0.00000000000E+00  0.00000000000E+00  0.35839872398E+02  0.35839872398E+02  0.00000000000E+00 0. -1.
         21   -1    0    0  501  503 -0.00000000000E+00 -0.00000000000E+00 -0.43604733533E+02  0.43604733533E+02  0.00000000000E+00 0.  1.
          2    1    1    2  501    0 -0.14943355130E+02 -0.14017565220E+02 -0.37853247102E+02  0.43042587206E+02  0.00000000000E+00 0.  1.
         -2    1    1    2    0  502  0.14943355130E+02  0.14017565220E+02  0.30088385967E+02  0.36402018726E+02  0.00000000000E+00 0. -1.
<mgrwt>
<rscale>  2 0.20488924E+02</rscale>
<asrwt>0</asrwt>
<pdfrwt beam="1">  1       21 0.55138265E-02 0.20488924E+02</pdfrwt>
<pdfrwt beam="2">  1       21 0.67084205E-02 0.20488924E+02</pdfrwt>
<totfact> 0.26643976E+07</totfact>
</mgrwt>
</event>
<event>
 4    1  0.2761157E+004  0.2879108E+02  0.7546771E-02  0.1611849E+00
         21   -1    0    0  501  502  0.00000000000E+00  0.00000000000E+00  0.87473689937E+00  0.87473689937E+00  0.00000000000E+00 0.  1.
         21   -1    0    0  502  503 -0.00000000000E+00 -0.00000000000E+00 -0.10623710909E+04  0.10623710909E+04  0.00000000000E+00 0. -1.
          2    1    1    2  501    0  0.12870141835E+02  0.25754329114E+02 -0.35603445195E+03  0.35719666431E+03  0.00000000000E+00 0.  1.
         -2    1    1    2    0  503 -0.12870141835E+02 -0.25754329114E+02 -0.70546190206E+03  0.70604916349E+03  0.00000000000E+00 0. -1.
<mgrwt>
<rscale>  2 0.28791075E+02</rscale>
<asrwt>0</asrwt>
<pdfrwt beam="1">  1       21 0.13457458E-03 0.28791075E+02</pdfrwt>
<pdfrwt beam="2">  1       21 0.16344211E+00 0.28791075E+02</pdfrwt>
<totfact> 0.17387234E+07</totfact>
</mgrwt>
</event>
<event>
 4    1  0.2761157E+004  0.2119287E+02  0.7546771E-02  0.1722597E+00
         21   -1    0    0  503  502  0.00000000000E+00  0.00000000000E+00  0.13538275914E+01  0.13538275914E+01  0.00000000000E+00 0.  1.
         21   -1    0    0  501  503 -0.00000000000E+00 -0.00000000000E+00 -0.33445082150E+03  0.33445082150E+03  0.00000000000E+00 0. -1.
          2    1    1    2  501    0  0.17131869783E+02  0.12475454472E+02 -0.15147186554E+03  0.15294725881E+03  0.00000000000E+00 0. -1.
         -2    1    1    2    0  502 -0.17131869783E+02 -0.12475454472E+02 -0.18162512837E+03  0.18285739028E+03  0.00000000000E+00 0.  1.
<mgrwt>
<rscale>  2 0.21192874E+02</rscale>
<asrwt>0</asrwt>
<pdfrwt beam="1">  1       21 0.20828102E-03 0.21192874E+02</pdfrwt>
<pdfrwt beam="2">  1       21 0.51454009E-01 0.21192874E+02</pdfrwt>
<totfact> 0.10688114E+08</totfact>
</mgrwt>
</event>
<event>
 4    1  0.2761157E+004  0.3028260E+02  0.7546771E-02  0.1594986E+00
         21   -1    0    0  503  502  0.00000000000E+00  0.00000000000E+00  0.92516062065E+02  0.92516062065E+02  0.00000000000E+00 0. -1.
         21   -1    0    0  501  503 -0.00000000000E+00 -0.00000000000E+00 -0.45146128430E+02  0.45146128430E+02  0.00000000000E+00 0.  1.
          2    1    1    2  501    0  0.26152127133E+02  0.15267677671E+02 -0.37122244868E+02  0.47907168556E+02  0.00000000000E+00 0.  1.
         -2    1    1    2    0  502 -0.26152127133E+02 -0.15267677671E+02  0.84492178503E+02  0.89755021939E+02  0.00000000000E+00 0. -1.
<mgrwt>
<rscale>  2 0.30282598E+02</rscale>
<asrwt>0</asrwt>
<pdfrwt beam="1">  1       21 0.14233240E-01 0.30282598E+02</pdfrwt>
<pdfrwt beam="2">  1       21 0.69455582E-02 0.30282598E+02</pdfrwt>
<totfact> 0.56839920E+06</totfact>
</mgrwt>
</event>
<event>
 4    1  0.2761157E+004  0.2140885E+02  0.7546771E-02  0.1718681E+00
         21   -1    0    0  503  502  0.00000000000E+00  0.00000000000E+00  0.62433032977E+02  0.62433032977E+02  0.00000000000E+00 0.  1.
         21   -1    0    0  501  503 -0.00000000000E+00 -0.00000000000E+00 -0.12126525925E+02  0.12126525925E+02  0.00000000000E+00 0. -1.
          2    1    1    2  501    0 -0.14849781007E+02 -0.15421500616E+02  0.17348628431E+01  0.21479022936E+02  0.00000000000E+00 0. -1.
         -2    1    1    2    0  502  0.14849781007E+02  0.15421500616E+02  0.48571644209E+02  0.53080535966E+02  0.00000000000E+00 0.  1.
<mgrwt>
<rscale>  2 0.21408846E+02</rscale>
<asrwt>0</asrwt>
<pdfrwt beam="1">  1       21 0.96050818E-02 0.21408846E+02</pdfrwt>
<pdfrwt beam="2">  1       21 0.18656194E-02 0.21408846E+02</pdfrwt>
<totfact> 0.81253998E+07</totfact>
</mgrwt>
</event>
<event>
 4    1  0.2761157E+004  0.2873561E+02  0.7546771E-02  0.1612500E+00
         21   -1    0    0  501  502  0.00000000000E+00  0.00000000000E+00  0.39657539209E+02  0.39657539209E+02  0.00000000000E+00 0.  1.
         21   -1    0    0  502  503 -0.00000000000E+00 -0.00000000000E+00 -0.54312041347E+02  0.54312041347E+02  0.00000000000E+00 0. -1.
          2    1    1    2  501    0  0.28713652439E+02 -0.11232267265E+01  0.29567903045E+02  0.41231012177E+02  0.00000000000E+00 0.  1.
         -2    1    1    2    0  503 -0.28713652439E+02  0.11232267265E+01 -0.44222405182E+02  0.52738568380E+02  0.00000000000E+00 0. -1.
<mgrwt>
<rscale>  2 0.28735613E+02</rscale>
<asrwt>0</asrwt>
<pdfrwt beam="1">  1       21 0.61011599E-02 0.28735613E+02</pdfrwt>
<pdfrwt beam="2">  1       21 0.83556986E-02 0.28735613E+02</pdfrwt>
<totfact> 0.17040492E+07</totfact>
</mgrwt>
</event>
<event>
 4    1  0.2761157E+004  0.2747023E+02  0.7546771E-02  0.1627863E+00
         21   -1    0    0  501  502  0.00000000000E+00  0.00000000000E+00  0.31966559004E+03  0.31966559004E+03  0.00000000000E+00 0.  1.
         21   -1    0    0  502  503 -0.00000000000E+00 -0.00000000000E+00 -0.75795599535E+01  0.75795599535E+01  0.00000000000E+00 0. -1.
          2    1    1    2  501    0  0.27447654606E+02  0.11134099151E+01  0.29181551008E+03  0.29310562149E+03  0.00000000000E+00 0.  1.
         -2    1    1    2    0  503 -0.27447654606E+02 -0.11134099151E+01  0.20270520000E+02  0.34139528499E+02  0.00000000000E+00 0. -1.
<mgrwt>
<rscale>  2 0.27470228E+02</rscale>
<asrwt>0</asrwt>
<pdfrwt beam="1">  1       21 0.49179311E-01 0.27470228E+02</pdfrwt>
<pdfrwt beam="2">  1       21 0.11660864E-02 0.27470228E+02</pdfrwt>
<totfact> 0.96801312E+06</totfact>
</mgrwt>
</event>
<event>
 4    1  0.2761157E+004  0.2867224E+02  0.7546771E-02  0.1613247E+00
         21   -1    0    0  501  502  0.00000000000E+00  0.00000000000E+00  0.42023137138E+00  0.42023137138E+00  0.00000000000E+00 0.  1.
         21   -1    0    0  502  503 -0.00000000000E+00 -0.00000000000E+00 -0.19647632642E+04  0.19647632642E+04  0.00000000000E+00 0. -1.
          2    1    1    2  501    0 -0.22368526512E+02 -0.17937295633E+02 -0.91767254190E+03  0.91812035797E+03  0.00000000000E+00 0.  1.
         -2    1    1    2    0  503  0.22368526512E+02  0.17937295633E+02 -0.10466704909E+04  0.10470631376E+04  0.00000000000E+00 0. -1.
<mgrwt>
<rscale>  2 0.28672244E+02</rscale>
<asrwt>0</asrwt>
<pdfrwt beam="1">  1       21 0.64648926E-04 0.28672244E+02</pdfrwt>
<pdfrwt beam="2">  1       21 0.30228088E+00 0.28672244E+02</pdfrwt>
<totfact> 0.88286464E+06</totfact>
</mgrwt>
</event>
<event>
 4    1  0.2761157E+004  0.2366646E+02  0.7546771E-02  0.1680929E+00
         21   -1    0    0  501  502  0.00000000000E+00  0.00000000000E+00  0.61253530720E+00  0.61253530720E+00  0.00000000000E+00 0.  1.
         21   -1    0    0  502  503 -0.00000000000E+00 -0.00000000000E+00 -0.12725111274E+04  0.12725111274E+04  0.00000000000E+00 0. -1.
          2    1    1    2  501    0 -0.19774973048E+02  0.13001988292E+02 -0.29825811108E+03  0.29919559169E+03  0.00000000000E+00 0.  1.
         -2    1    1    2    0  503  0.19774973048E+02 -0.13001988292E+02 -0.97364048104E+03  0.97392807105E+03  0.00000000000E+00 0. -1.
<mgrwt>
<rscale>  2 0.23666459E+02</rscale>
<asrwt>0</asrwt>
<pdfrwt beam="1">  1       21 0.94238023E-04 0.23666459E+02</pdfrwt>
<pdfrwt beam="2">  1       21 0.19576716E+00 0.23666459E+02</pdfrwt>
<totfact> 0.17939252E+07</totfact>
</mgrwt>
</event>
<event>
 4    1  0.2761157E+004  0.2111498E+02  0.7546771E-02  0.1724023E+00
         21   -1    0    0  501  502  0.00000000000E+00  0.00000000000E+00  0.96099941180E+01  0.96099941180E+01  0.00000000000E+00 0.  1.
         21   -1    0    0  502  503 -0.00000000000E+00 -0.00000000000E+00 -0.12592648828E+03  0.12592648828E+03  0.00000000000E+00 0. -1.
          2    1    1    2  501    0  0.13090189220E+02  0.16567720515E+02 -0.43013918967E+01  0.21548651677E+02  0.00000000000E+00 0.  1.
         -2    1    1    2    0  503 -0.13090189220E+02 -0.16567720515E+02 -0.11201510227E+03  0.11398783072E+03  0.00000000000E+00 0. -1.
<mgrwt>
<rscale>  2 0.21114981E+02</rscale>
<asrwt>0</asrwt>
<pdfrwt beam="1">  1       21 0.14784607E-02 0.21114981E+02</pdfrwt>
<pdfrwt beam="2">  1       21 0.19373305E-01 0.21114981E+02</pdfrwt>
<totfact> 0.35329311E+07</totfact>
</mgrwt>
</event>
<event>
 4    1  0.2761157E+004  0.3929831E+02  0.7546771E-02  0.1513440E+00
         21   -1    0    0  503  502  0.00000000000E+00  0.00000000000E+00  0.13702130552E+02  0.13702130552E+02  0.00000000000E+00 0. -1.
         21   -1    0    0  501  503 -0.00000000000E+00 -0.00000000000E+00 -0.32257899402E+03  0.32257899402E+03  0.00000000000E+00 0.  1.
          2    1    1    2  501    0  0.36847280802E+02 -0.13661434909E+02 -0.29006018878E+03  0.29271021510E+03  0.00000000000E+00 0.  1.
         -2    1    1    2    0  502 -0.36847280802E+02  0.13661434909E+02 -0.18816674690E+02  0.43570909478E+02  0.00000000000E+00 0. -1.
<mgrwt>
<rscale>  2 0.39298307E+02</rscale>
<asrwt>0</asrwt>
<pdfrwt beam="1">  1       21 0.21080200E-02 0.39298307E+02</pdfrwt>
<pdfrwt beam="2">  1       21 0.49627540E-01 0.39298307E+02</pdfrwt>
<totfact> 0.39960763E+06</totfact>
</mgrwt>
</event>
<event>
 4    1  0.2761157E+004  0.3065119E+02  0.7546771E-02  0.1591000E+00
         21   -1    0    0  503  502  0.00000000000E+00  0.00000000000E+00  0.31904443287E+03  0.31904443287E+03  0.00000000000E+00 0.  1.
         21   -1    0    0  501  503 -0.00000000000E+00 -0.00000000000E+00 -0.37911921328E+01  0.37911921328E+01  0.00000000000E+00 0. -1.
          2    1    1    2  501    0  0.20669315434E+02  0.22633493607E+02  0.81353659174E+02  0.86936261101E+02  0.00000000000E+00 0. -1.
         -2    1    1    2    0  502 -0.20669315434E+02 -0.22633493607E+02  0.23389958156E+03  0.23589936390E+03  0.00000000000E+00 0.  1.
<mgrwt>
<rscale>  2 0.30651193E+02</rscale>
<asrwt>0</asrwt>
<pdfrwt beam="1">  1       21 0.49083738E-01 0.30651193E+02</pdfrwt>
<pdfrwt beam="2">  1       21 0.58326058E-03 0.30651193E+02</pdfrwt>
<totfact> 0.28102726E+07</totfact>
</mgrwt>
</event>
<event>
 4    1  0.2761157E+004  0.5296773E+02  0.7546771E-02  0.1429962E+00
         21   -1    0    0  501  502  0.00000000000E+00  0.00000000000E+00  0.13879914714E+03  0.13879914714E+03  0.00000000000E+00 0.  1.
         21   -1    0    0  502  503 -0.00000000000E+00 -0.00000000000E+00 -0.23660301493E+02  0.23660301493E+02  0.00000000000E+00 0. -1.
          2    1    1    2  501    0 -0.44194618689E+02  0.29196172256E+02  0.88574242596E+02  0.10320357187E+03  0.00000000000E+00 0. -1.
         -2    1    1    2    0  503  0.44194618689E+02 -0.29196172256E+02  0.26564603049E+02  0.59255876760E+02  0.00000000000E+00 0.  1.
<mgrwt>
<rscale>  2 0.52967734E+02</rscale>
<asrwt>0</asrwt>
<pdfrwt beam="1">  1       21 0.21353714E-01 0.52967734E+02</pdfrwt>
<pdfrwt beam="2">  1       21 0.36400465E-02 0.52967734E+02</pdfrwt>
<totfact> 0.85161107E+06</totfact>
</mgrwt>
</event>
<event>
 4    1  0.2761157E+004  0.2007251E+02  0.7546771E-02  0.1743890E+00
         21   -1    0    0  501  502  0.00000000000E+00  0.00000000000E+00  0.11355246376E+02  0.11355246376E+02  0.00000000000E+00 0.  1.
         21   -1    0    0  502  503 -0.00000000000E+00 -0.00000000000E+00 -0.45917566579E+02  0.45917566579E+02  0.00000000000E+00 0. -1.
          2    1    1    2  501    0 -0.43902393154E+01 -0.19586510927E+02 -0.36293771216E+01  0.20397989847E+02  0.00000000000E+00 0.  1.
         -2    1    1    2    0  503  0.43902393154E+01  0.19586510927E+02 -0.30932943081E+02  0.36874823107E+02  0.00000000000E+00 0. -1.
<mgrwt>
<rscale>  2 0.20072509E+02</rscale>
<asrwt>0</asrwt>
<pdfrwt beam="1">  1       21 0.17469610E-02 0.20072509E+02</pdfrwt>
<pdfrwt beam="2">  1       21 0.70642410E-02 0.20072509E+02</pdfrwt>
<totfact> 0.14525909E+08</totfact>
</mgrwt>
</event>
<event>
 4    1  0.2761157E+004  0.2165161E+02  0.7546771E-02  0.1714348E+00
         21   -1    0    0  501  502  0.00000000000E+00  0.00000000000E+00  0.91607516071E+01  0.91607516071E+01  0.00000000000E+00 0.  1.
         21   -1    0    0  502  503 -0.00000000000E+00 -0.00000000000E+00 -0.72378198609E+02  0.72378198609E+02  0.00000000000E+00 0. -1.
          2    1    1    2  501    0  0.14770154710E+02  0.15831449229E+02 -0.95417781032E+01  0.23660891450E+02  0.00000000000E+00 0. -1.
         -2    1    1    2    0  503 -0.14770154710E+02 -0.15831449229E+02 -0.53675668898E+02  0.57878058766E+02  0.00000000000E+00 0.  1.
<mgrwt>
<rscale>  2 0.21651611E+02</rscale>
<asrwt>0</asrwt>
<pdfrwt beam="1">  1       21 0.14093464E-02 0.21651611E+02</pdfrwt>
<pdfrwt beam="2">  1       21 0.11135108E-01 0.21651611E+02</pdfrwt>
<totfact> 0.97784793E+07</totfact>
</mgrwt>
</event>
<event>
 4    1  0.2761157E+004  0.2951292E+02  0.7546771E-02  0.1603536E+00
         21   -1    0    0  503  502  0.00000000000E+00  0.00000000000E+00  0.71525433073E+03  0.71525433073E+03  0.00000000000E+00 0.  1.
         21   -1    0    0  501  503 -0.00000000000E+00 -0.00000000000E+00 -0.13265184719E+01  0.13265184719E+01  0.00000000000E+00 0. -1.
          2    1    1    2  501    0 -0.28909076584E+02  0.59395223278E+01  0.45955212263E+03  0.46049882307E+03  0.00000000000E+00 0.  1.
         -2    1    1    2    0  502  0.28909076584E+02 -0.59395223278E+01  0.25437568962E+03  0.25608202613E+03  0.00000000000E+00 0. -1.
<mgrwt>
<rscale>  2 0.29512923E+02</rscale>
<asrwt>0</asrwt>
<pdfrwt beam="1">  1       21 0.11003882E+00 0.29512923E+02</pdfrwt>
<pdfrwt beam="2">  1       21 0.20408034E-03 0.29512923E+02</pdfrwt>
<totfact> 0.24171836E+07</totfact>
</mgrwt>
</event>
<event>
 4    1  0.2761157E+004  0.2026122E+02  0.7546771E-02  0.1740183E+00
         21   -1    0    0  501  502  0.00000000000E+00  0.00000000000E+00  0.65496711318E+01  0.65496711318E+01  0.00000000000E+00 0.  1.
         21   -1    0    0  502  503 -0.00000000000E+00 -0.00000000000E+00 -0.13190928884E+03  0.13190928884E+03  0.00000000000E+00 0. -1.
          2    1    1    2  501    0 -0.53712211050E+00  0.20254096961E+02 -0.12525737973E+02  0.23820391593E+02  0.00000000000E+00 0.  1.
         -2    1    1    2    0  503  0.53712211050E+00 -0.20254096961E+02 -0.11283387974E+03  0.11463856838E+03  0.00000000000E+00 0. -1.
<mgrwt>
<rscale>  2 0.20261218E+02</rscale>
<asrwt>0</asrwt>
<pdfrwt beam="1">  1       21 0.10076418E-02 0.20261218E+02</pdfrwt>
<pdfrwt beam="2">  1       21 0.20293736E-01 0.20261218E+02</pdfrwt>
<totfact> 0.57429890E+07</totfact>
</mgrwt>
</event>
<event>
 4    1  0.2761157E+004  0.2465292E+02  0.7546771E-02  0.1666038E+00
         21   -1    0    0  503  502  0.00000000000E+00  0.00000000000E+00  0.18696739708E+02  0.18696739708E+02  0.00000000000E+00 0.  1.
         21   -1    0    0  501  503 -0.00000000000E+00 -0.00000000000E+00 -0.67426683093E+02  0.67426683093E+02  0.00000000000E+00 0. -1.
          2    1    1    2  501    0 -0.18801234287E+01  0.24581121155E+02 -0.55354386407E+02  0.60595993893E+02  0.00000000000E+00 0. -1.
         -2    1    1    2    0  502  0.18801234287E+01 -0.24581121155E+02  0.66244430213E+01  0.25527428908E+02  0.00000000000E+00 0.  1.
<mgrwt>
<rscale>  2 0.24652918E+02</rscale>
<asrwt>0</asrwt>
<pdfrwt beam="1">  1       21 0.28764215E-02 0.24652918E+02</pdfrwt>
<pdfrwt beam="2">  1       21 0.10373336E-01 0.24652918E+02</pdfrwt>
<totfact> 0.38074882E+07</totfact>
</mgrwt>
</event>
<event>
 4    1  0.2761157E+004  0.2184698E+02  0.7546771E-02  0.1710912E+00
         21   -1    0    0  501  502  0.00000000000E+00  0.00000000000E+00  0.13030353269E+03  0.13030353269E+03  0.00000000000E+00 0.  1.
         21   -1    0    0  502  503 -0.00000000000E+00 -0.00000000000E+00 -0.65353533467E+01  0.65353533467E+01  0.00000000000E+00 0. -1.
          2    1    1    2  501    0 -0.21825640253E+02 -0.96539950609E+00  0.10724382054E+03  0.10944646003E+03  0.00000000000E+00 0.  1.
         -2    1    1    2    0  503  0.21825640253E+02  0.96539950609E+00  0.16524358798E+02  0.27392426003E+02  0.00000000000E+00 0. -1.
<mgrwt>
<rscale>  2 0.21846981E+02</rscale>
<asrwt>0</asrwt>
<pdfrwt beam="1">  1       21 0.20046695E-01 0.21846981E+02</pdfrwt>
<pdfrwt beam="2">  1       21 0.10054391E-02 0.21846981E+02</pdfrwt>
<totfact> 0.60038183E+07</totfact>
</mgrwt>
</event>
<event>
 4    1  0.2761157E+004  0.2751482E+02  0.7546771E-02  0.1627304E+00
         21   -1    0    0  503  502  0.00000000000E+00  0.00000000000E+00  0.37124631398E+01  0.37124631398E+01  0.00000000000E+00 0. -1.
         21   -1    0    0  501  503 -0.00000000000E+00 -0.00000000000E+00 -0.66319400305E+03  0.66319400305E+03  0.00000000000E+00 0.  1.
          2    1    1    2  501    0 -0.37398305436E+01 -0.27259473298E+02 -0.60723122924E+03  0.60785428433E+03  0.00000000000E+00 0.  1.
         -2    1    1    2    0  502  0.37398305436E+01  0.27259473298E+02 -0.52250310671E+02  0.59052181858E+02  0.00000000000E+00 0. -1.
<mgrwt>
<rscale>  2 0.27514818E+02</rscale>
<asrwt>0</asrwt>
<pdfrwt beam="1">  1       21 0.57114782E-03 0.27514818E+02</pdfrwt>
<pdfrwt beam="2">  1       21 0.10202991E+00 0.27514818E+02</pdfrwt>
<totfact> 0.62287176E+06</totfact>
</mgrwt>
</event>
<event>
 4    1  0.2761157E+004  0.2362084E+02  0.7546771E-02  0.1681640E+00
         21   -1    0    0  503  502  0.00000000000E+00  0.00000000000E+00  0.30253758895E+02  0.30253758895E+02  0.00000000000E+00 0. -1.
         21   -1    0    0  501  503 -0.00000000000E+00 -0.00000000000E+00 -0.64390401749E+02  0.64390401749E+02  0.00000000000E+00 0.  1.
          2    1    1    2  501    0 -0.23303206982E+02 -0.38606386452E+01 -0.57043260934E+02  0.61740404958E+02  0.00000000000E+00 0.  1.
         -2    1    1    2    0  502  0.23303206982E+02  0.38606386452E+01  0.22906618080E+02  0.32903755687E+02  0.00000000000E+00 0. -1.
<mgrwt>
<rscale>  2 0.23620838E+02</rscale>
<asrwt>0</asrwt>
<pdfrwt beam="1">  1       21 0.46544245E-02 0.23620838E+02</pdfrwt>
<pdfrwt beam="2">  1       21 0.99062156E-02 0.23620838E+02</pdfrwt>
<totfact> 0.19089170E+07</totfact>
</mgrwt>
</event>
<event>
 4    1  0.2761157E+004  0.2556809E+02  0.7546771E-02  0.1652974E+00
         21   -1    0    0  503  502  0.00000000000E+00  0.00000000000E+00  0.14634578774E+02  0.14634578774E+02  0.00000000000E+00 0. -1.
         21   -1    0    0  501  503 -0.00000000000E+00 -0.00000000000E+00 -0.44671926326E+02  0.44671926326E+02  0.00000000000E+00 0.  1.
          2    1    1    2  501    0 -0.23761974375E+02 -0.94390672126E+01 -0.14826670064E+02  0.29556007194E+02  0.00000000000E+00 0.  1.
         -2    1    1    2    0  502  0.23761974375E+02  0.94390672126E+01 -0.15210677487E+02  0.29750497906E+02  0.00000000000E+00 0. -1.
<mgrwt>
<rscale>  2 0.25568094E+02</rscale>
<asrwt>0</asrwt>
<pdfrwt beam="1">  1       21 0.22514737E-02 0.25568094E+02</pdfrwt>
<pdfrwt beam="2">  1       21 0.68726039E-02 0.25568094E+02</pdfrwt>
<totfact> 0.11054051E+08</totfact>
</mgrwt>
</event>
<event>
 4    1  0.2761157E+004  0.3190111E+02  0.7546771E-02  0.1577978E+00
         21   -1    0    0  503  502  0.00000000000E+00  0.00000000000E+00  0.17305933640E+01  0.17305933640E+01  0.00000000000E+00 0.  1.
         21   -1    0    0  501  503 -0.00000000000E+00 -0.00000000000E+00 -0.88170664345E+03  0.88170664345E+03  0.00000000000E+00 0. -1.
          2    1    1    2  501    0 -0.29629888914E+02  0.11821609538E+02 -0.69490648226E+03  0.69563833984E+03  0.00000000000E+00 0. -1.
         -2    1    1    2    0  502  0.29629888914E+02 -0.11821609538E+02 -0.18506956783E+03  0.18779889697E+03  0.00000000000E+00 0.  1.
<mgrwt>
<rscale>  2 0.31901109E+02</rscale>
<asrwt>0</asrwt>
<pdfrwt beam="1">  1       21 0.26624466E-03 0.31901109E+02</pdfrwt>
<pdfrwt beam="2">  1       21 0.13564742E+00 0.31901109E+02</pdfrwt>
<totfact> 0.10226843E+07</totfact>
</mgrwt>
</event>
<event>
 4    1  0.2761157E+004  0.2010806E+02  0.7546771E-02  0.1743188E+00
         21   -1    0    0  503  502  0.00000000000E+00  0.00000000000E+00  0.42453787080E+01  0.42453787080E+01  0.00000000000E+00 0. -1.
         21   -1    0    0  501  503 -0.00000000000E+00 -0.00000000000E+00 -0.98924743071E+02  0.98924743071E+02  0.00000000000E+00 0.  1.
          2    1    1    2  501    0 -0.11822837909E+02 -0.16265132962E+02 -0.57294127813E+02  0.60720269501E+02  0.00000000000E+00 0. -1.
         -2    1    1    2    0  502  0.11822837909E+02  0.16265132962E+02 -0.37385236551E+02  0.42449852278E+02  0.00000000000E+00 0.  1.
<mgrwt>
<rscale>  2 0.20108059E+02</rscale>
<asrwt>0</asrwt>
<pdfrwt beam="1">  1       21 0.65313522E-03 0.20108059E+02</pdfrwt>
<pdfrwt beam="2">  1       21 0.15219190E-01 0.20108059E+02</pdfrwt>
<totfact> 0.17881563E+08</totfact>
</mgrwt>
</event>
<event>
 4    1  0.2761157E+004  0.9852467E+02  0.7546771E-02  0.1283429E+00
         21   -1    0    0  501  502  0.00000000000E+00  0.00000000000E+00  0.38063430140E+02  0.38063430140E+02  0.00000000000E+00 0.  1.
         21   -1    0    0  502  503 -0.00000000000E+00 -0.00000000000E+00 -0.51797125156E+03  0.51797125156E+03  0.00000000000E+00 0. -1.
          2    1    1    2  501    0  0.64437090389E+02  0.74531685138E+02 -0.41868319160E+02  0.10705170179E+03  0.00000000000E+00 0.  1.
         -2    1    1    2    0  503 -0.64437090389E+02 -0.74531685138E+02 -0.43803950226E+03  0.44898297990E+03  0.00000000000E+00 0. -1.
<mgrwt>
<rscale>  2 0.98524671E+02</rscale>
<asrwt>0</asrwt>
<pdfrwt beam="1">  1       21 0.58559128E-02 0.98524671E+02</pdfrwt>
<pdfrwt beam="2">  1       21 0.79687879E-01 0.98524671E+02</pdfrwt>
<totfact> 0.29170231E+05</totfact>
</mgrwt>
</event>
<event>
 4    1  0.2761157E+004  0.3373502E+02  0.7546771E-02  0.1560130E+00
         21   -1    0    0  501  502  0.00000000000E+00  0.00000000000E+00  0.43821184002E+02  0.43821184002E+02  0.00000000000E+00 0.  1.
         21   -1    0    0  502  503 -0.00000000000E+00 -0.00000000000E+00 -0.27258084281E+02  0.27258084281E+02  0.00000000000E+00 0. -1.
          2    1    1    2  501    0 -0.33652088204E+02  0.23640523927E+01  0.16006172429E+02  0.37339648365E+02  0.00000000000E+00 0. -1.
         -2    1    1    2    0  503  0.33652088204E+02 -0.23640523927E+01  0.55692729215E+00  0.33739619918E+02  0.00000000000E+00 0.  1.
<mgrwt>
<rscale>  2 0.33735023E+02</rscale>
<asrwt>0</asrwt>
<pdfrwt beam="1">  1       21 0.67417206E-02 0.33735023E+02</pdfrwt>
<pdfrwt beam="2">  1       21 0.41935514E-02 0.33735023E+02</pdfrwt>
<totfact> 0.45802085E+07</totfact>
</mgrwt>
</event>
<event>
 4    1  0.2761157E+004  0.2595478E+02  0.7546771E-02  0.1647655E+00
         21   -1    0    0  501  502  0.00000000000E+00  0.00000000000E+00  0.28998900315E+03  0.28998900315E+03  0.00000000000E+00 0. -1.
         21   -1    0    0  502  503 -0.00000000000E+00 -0.00000000000E+00 -0.24240861213E+01  0.24240861213E+01  0.00000000000E+00 0.  1.
          2    1    1    2  501    0 -0.18396143833E+02  0.18309351544E+02  0.17363587572E+03  0.17556499594E+03  0.00000000000E+00 0. -1.
         -2    1    1    2    0  503  0.18396143833E+02 -0.18309351544E+02  0.11392904130E+03  0.11684809333E+03  0.00000000000E+00 0.  1.
<mgrwt>
<rscale>  2 0.25954777E+02</rscale>
<asrwt>0</asrwt>
<pdfrwt beam="1">  1       21 0.44613665E-01 0.25954777E+02</pdfrwt>
<pdfrwt beam="2">  1       21 0.37293656E-03 0.25954777E+02</pdfrwt>
<totfact> 0.63441351E+07</totfact>
</mgrwt>
</event>
<event>
 4    1  0.2761157E+004  0.2816915E+02  0.7546771E-02  0.1619255E+00
         21   -1    0    0  503  502  0.00000000000E+00  0.00000000000E+00  0.27185820636E+02  0.27185820636E+02  0.00000000000E+00 0. -1.
         21   -1    0    0  501  503 -0.00000000000E+00 -0.00000000000E+00 -0.30460713599E+02  0.30460713599E+02  0.00000000000E+00 0.  1.
          2    1    1    2  501    0 -0.43495493204E+01 -0.27831325865E+02 -0.75289861949E+01  0.29157964810E+02  0.00000000000E+00 0.  1.
         -2    1    1    2    0  502  0.43495493204E+01  0.27831325865E+02  0.42540932319E+01  0.28488569426E+02  0.00000000000E+00 0. -1.
<mgrwt>
<rscale>  2 0.28169155E+02</rscale>
<asrwt>0</asrwt>
<pdfrwt beam="1">  1       21 0.41824339E-02 0.28169155E+02</pdfrwt>
<pdfrwt beam="2">  1       21 0.46862636E-02 0.28169155E+02</pdfrwt>
<totfact> 0.79567777E+07</totfact>
</mgrwt>
</event>
<event>
 4    1  0.2761157E+004  0.2046232E+02  0.7546771E-02  0.1736288E+00
         21   -1    0    0  503  502  0.00000000000E+00  0.00000000000E+00  0.10514328605E+03  0.10514328605E+03  0.00000000000E+00 0.  1.
         21   -1    0    0  501  503 -0.00000000000E+00 -0.00000000000E+00 -0.55790437963E+01  0.55790437963E+01  0.00000000000E+00 0. -1.
          2    1    1    2  501    0  0.20046209178E+02 -0.41056015989E+01  0.20164494786E+02  0.28728266862E+02  0.00000000000E+00 0. -1.
         -2    1    1    2    0  502 -0.20046209178E+02  0.41056015989E+01  0.79399747469E+02  0.81994062986E+02  0.00000000000E+00 0.  1.
<mgrwt>
<rscale>  2 0.20462318E+02</rscale>
<asrwt>0</asrwt>
<pdfrwt beam="1">  1       21 0.16175889E-01 0.20462318E+02</pdfrwt>
<pdfrwt beam="2">  1       21 0.85831451E-03 0.20462318E+02</pdfrwt>
<totfact> 0.10807578E+08</totfact>
</mgrwt>
</event>
<event>
 4    1  0.2761157E+004  0.2386478E+02  0.7546771E-02  0.1677864E+00
         21   -1    0    0  503  502  0.00000000000E+00  0.00000000000E+00  0.54897424307E+00  0.54897424307E+00  0.00000000000E+00 0. -1.
         21   -1    0    0  501  503 -0.00000000000E+00 -0.00000000000E+00 -0.10486100079E+04  0.10486100079E+04  0.00000000000E+00 0.  1.
          2    1    1    2  501    0 -0.17683257434E+02 -0.16025915991E+02 -0.57817326856E+03  0.57866558223E+03  0.00000000000E+00 0. -1.
         -2    1    1    2    0  502  0.17683257434E+02  0.16025915991E+02 -0.46988776514E+03  0.47049339996E+03  0.00000000000E+00 0.  1.
<mgrwt>
<rscale>  2 0.23864777E+02</rscale>
<asrwt>0</asrwt>
<pdfrwt beam="1">  1       21 0.84458922E-04 0.23864777E+02</pdfrwt>
<pdfrwt beam="2">  1       21 0.16132205E+00 0.23864777E+02</pdfrwt>
<totfact> 0.33971428E+07</totfact>
</mgrwt>
</event>
<event>
 4    1  0.2761157E+004  0.3123936E+02  0.7546771E-02  0.1584780E+00
         21   -1    0    0  503  502  0.00000000000E+00  0.00000000000E+00  0.14038408418E+02  0.14038408418E+02  0.00000000000E+00 0.  1.
         21   -1    0    0  501  503 -0.00000000000E+00 -0.00000000000E+00 -0.41096782745E+03  0.41096782745E+03  0.00000000000E+00 0. -1.
          2    1    1    2  501    0 -0.96536170082E+00  0.31224443885E+02 -0.39216306877E+03  0.39340535116E+03  0.00000000000E+00 0. -1.
         -2    1    1    2    0  502  0.96536170082E+00 -0.31224443885E+02 -0.47663502631E+01  0.31600884703E+02  0.00000000000E+00 0.  1.
<mgrwt>
<rscale>  2 0.31239363E+02</rscale>
<asrwt>0</asrwt>
<pdfrwt beam="1">  1       21 0.21597552E-02 0.31239363E+02</pdfrwt>
<pdfrwt beam="2">  1       21 0.63225817E-01 0.31239363E+02</pdfrwt>
<totfact> 0.23117260E+06</totfact>
</mgrwt>
</event>
<event>
 4    1  0.2761157E+004  0.3834840E+02  0.7546771E-02  0.1520729E+00
         21   -1    0    0  503  502  0.00000000000E+00  0.00000000000E+00  0.17761426368E+03  0.17761426368E+03  0.00000000000E+00 0. -1.
         21   -1    0    0  501  503 -0.00000000000E+00 -0.00000000000E+00 -0.85866271125E+01  0.85866271125E+01  0.00000000000E+00 0.  1.
          2    1    1    2  501    0  0.80074893574E+01 -0.37503066975E+02  0.66913123848E+02  0.77123057910E+02  0.00000000000E+00 0.  1.
         -2    1    1    2    0  502 -0.80074893574E+01  0.37503066975E+02  0.10211451272E+03  0.10907783288E+03  0.00000000000E+00 0. -1.
<mgrwt>
<rscale>  2 0.38348402E+02</rscale>
<asrwt>0</asrwt>
<pdfrwt beam="1">  1       21 0.27325269E-01 0.38348402E+02</pdfrwt>
<pdfrwt beam="2">  1       21 0.13210197E-02 0.38348402E+02</pdfrwt>
<totfact> 0.25663878E+07</totfact>
</mgrwt>
</event>
<event>
 4    1  0.2761157E+004  0.3659375E+02  0.7546771E-02  0.1534887E+00
         21   -1    0    0  503  502  0.00000000000E+00  0.00000000000E+00  0.35724844289E+02  0.35724844289E+02  0.00000000000E+00 0.  1.
         21   -1    0    0  501  503 -0.00000000000E+00 -0.00000000000E+00 -0.18227576206E+03  0.18227576206E+03  0.00000000000E+00 0. -1.
          2    1    1    2  501    0 -0.19757985878E+02  0.30801377875E+02 -0.17042381869E+03  0.17430829258E+03  0.00000000000E+00 0. -1.
         -2    1    1    2    0  502  0.19757985878E+02 -0.30801377875E+02  0.23872900913E+02  0.43692313775E+02  0.00000000000E+00 0.  1.
<mgrwt>
<rscale>  2 0.36593755E+02</rscale>
<asrwt>0</asrwt>
<pdfrwt beam="1">  1       21 0.54961299E-02 0.36593755E+02</pdfrwt>
<pdfrwt beam="2">  1       21 0.28042425E-01 0.36593755E+02</pdfrwt>
<totfact> 0.25584502E+06</totfact>
</mgrwt>
</event>
<event>
 4    1  0.2761157E+004  0.2273537E+02  0.7546771E-02  0.1695836E+00
         21   -1    0    0  501  502  0.00000000000E+00  0.00000000000E+00  0.11211053092E+02  0.11211053092E+02  0.00000000000E+00 0.  1.
         21   -1    0    0  502  503 -0.00000000000E+00 -0.00000000000E+00 -0.46775015384E+02  0.46775015384E+02  0.00000000000E+00 0. -1.
          2    1    1    2  501    0  0.18229121390E+02 -0.13586617963E+02 -0.14314630287E+02  0.26866441792E+02  0.00000000000E+00 0.  1.
         -2    1    1    2    0  503 -0.18229121390E+02  0.13586617963E+02 -0.21249332005E+02  0.31119626684E+02  0.00000000000E+00 0. -1.
<mgrwt>
<rscale>  2 0.22735370E+02</rscale>
<asrwt>0</asrwt>
<pdfrwt beam="1">  1       21 0.17247774E-02 0.22735370E+02</pdfrwt>
<pdfrwt beam="2">  1       21 0.71961562E-02 0.22735370E+02</pdfrwt>
<totfact> 0.14936635E+08</totfact>
</mgrwt>
</event>
<event>
 4    1  0.2761157E+004  0.2032889E+02  0.7546771E-02  0.1738866E+00
         21   -1    0    0  501  502  0.00000000000E+00  0.00000000000E+00  0.41433743817E+01  0.41433743817E+01  0.00000000000E+00 0. -1.
         21   -1    0    0  502  503 -0.00000000000E+00 -0.00000000000E+00 -0.19999374157E+03  0.19999374157E+03  0.00000000000E+00 0.  1.
          2    1    1    2  501    0 -0.42681735739E+01 -0.19875780532E+02 -0.25659504758E+02  0.32736434470E+02  0.00000000000E+00 0. -1.
         -2    1    1    2    0  503  0.42681735739E+01  0.19875780532E+02 -0.17019086244E+03  0.17140068149E+03  0.00000000000E+00 0.  1.
<mgrwt>
<rscale>  2 0.20328895E+02</rscale>
<asrwt>0</asrwt>
<pdfrwt beam="1">  1       21 0.63744238E-03 0.20328895E+02</pdfrwt>
<pdfrwt beam="2">  1       21 0.30768260E-01 0.20328895E+02</pdfrwt>
<totfact> 0.54253274E+07</totfact>
</mgrwt>
</event>
<event>
 4    1  0.2761157E+004  0.2115039E+02  0.7546771E-02  0.1723374E+00
         21   -1    0    0  503  502  0.00000000000E+00  0.00000000000E+00  0.84700491136E+03  0.84700491136E+03  0.00000000000E+00 0. -1.
         21   -1    0    0  501  503 -0.00000000000E+00 -0.00000000000E+00 -0.11754997054E+01  0.11754997054E+01  0.00000000000E+00 0.  1.
          2    1    1    2  501    0  0.20955167232E+02  0.28670506353E+01  0.10819851690E+03  0.11024635174E+03  0.00000000000E+00 0.  1.
         -2    1    1    2    0  502 -0.20955167232E+02 -0.28670506353E+01  0.73763089475E+03  0.73793405932E+03  0.00000000000E+00 0. -1.
<mgrwt>
<rscale>  2 0.21150390E+02</rscale>
<asrwt>0</asrwt>
<pdfrwt beam="1">  1       21 0.13030796E+00 0.21150390E+02</pdfrwt>
<pdfrwt beam="2">  1       21 0.18084679E-03 0.21150390E+02</pdfrwt>
<totfact> 0.18504321E+07</totfact>
</mgrwt>
</event>
<event>
 4    1  0.2761157E+004  0.2207576E+02  0.7546771E-02  0.1706945E+00
         21   -1    0    0  503  502  0.00000000000E+00  0.00000000000E+00  0.12452362489E+03  0.12452362489E+03  0.00000000000E+00 0. -1.
         21   -1    0    0  501  503 -0.00000000000E+00 -0.00000000000E+00 -0.12652841533E+02  0.12652841533E+02  0.00000000000E+00 0.  1.
          2    1    1    2  501    0 -0.12882127555E+02  0.17927356157E+02 -0.10668223109E+01  0.22101525263E+02  0.00000000000E+00 0.  1.
         -2    1    1    2    0  502  0.12882127555E+02 -0.17927356157E+02  0.11293760567E+03  0.11507494116E+03  0.00000000000E+00 0. -1.
<mgrwt>
<rscale>  2 0.22075763E+02</rscale>
<asrwt>0</asrwt>
<pdfrwt beam="1">  1       21 0.19157480E-01 0.22075763E+02</pdfrwt>
<pdfrwt beam="2">  1       21 0.19465911E-02 0.22075763E+02</pdfrwt>
<totfact> 0.23947243E+07</totfact>
</mgrwt>
</event>
<event>
 4    1  0.2761157E+004  0.2490265E+02  0.7546771E-02  0.1662404E+00
         21   -1    0    0  501  502  0.00000000000E+00  0.00000000000E+00  0.23868163875E+02  0.23868163875E+02  0.00000000000E+00 0. -1.
         21   -1    0    0  502  503 -0.00000000000E+00 -0.00000000000E+00 -0.13954124961E+03  0.13954124961E+03  0.00000000000E+00 0.  1.
          2    1    1    2  501    0  0.24235827067E+02  0.57242162403E+01  0.15870176626E+02  0.29529721830E+02  0.00000000000E+00 0. -1.
         -2    1    1    2    0  503 -0.24235827067E+02 -0.57242162403E+01 -0.13154326236E+03  0.13387969165E+03  0.00000000000E+00 0.  1.
<mgrwt>
<rscale>  2 0.24902650E+02</rscale>
<asrwt>0</asrwt>
<pdfrwt beam="1">  1       21 0.36720252E-02 0.24902650E+02</pdfrwt>
<pdfrwt beam="2">  1       21 0.21467885E-01 0.24902650E+02</pdfrwt>
<totfact> 0.75077383E+06</totfact>
</mgrwt>
</event>
<event>
 4    1  0.2761157E+004  0.2051688E+02  0.7546771E-02  0.1735240E+00
         21   -1    0    0  503  502  0.00000000000E+00  0.00000000000E+00  0.96691716002E+02  0.96691716002E+02  0.00000000000E+00 0. -1.
         21   -1    0    0  501  503 -0.00000000000E+00 -0.00000000000E+00 -0.53000458667E+01  0.53000458667E+01  0.00000000000E+00 0.  1.
          2    1    1    2  501    0  0.18288712966E+02  0.92986744366E+01  0.24144309398E+02  0.31684223906E+02  0.00000000000E+00 0.  1.
         -2    1    1    2    0  502 -0.18288712966E+02 -0.92986744366E+01  0.67247360738E+02  0.70307537963E+02  0.00000000000E+00 0. -1.
<mgrwt>
<rscale>  2 0.20516880E+02</rscale>
<asrwt>0</asrwt>
<pdfrwt beam="1">  1       21 0.14875647E-01 0.20516880E+02</pdfrwt>
<pdfrwt beam="2">  1       21 0.81539174E-03 0.20516880E+02</pdfrwt>
<totfact> 0.13460032E+08</totfact>
</mgrwt>
</event>
<event>
 4    1  0.2761157E+004  0.2013445E+02  0.7546771E-02  0.1742667E+00
         21   -1    0    0  503  502  0.00000000000E+00  0.00000000000E+00  0.56522236712E+01  0.56522236712E+01  0.00000000000E+00 0.  1.
         21   -1    0    0  501  503 -0.00000000000E+00 -0.00000000000E+00 -0.76883328201E+02  0.76883328201E+02  0.00000000000E+00 0. -1.
          2    1    1    2  501    0 -0.80265490487E+01 -0.18465393438E+02 -0.46306598105E+02  0.50494527154E+02  0.00000000000E+00 0. -1.
         -2    1    1    2    0  502  0.80265490487E+01  0.18465393438E+02 -0.24924506424E+02  0.32041024717E+02  0.00000000000E+00 0.  1.
<mgrwt>
<rscale>  2 0.20134454E+02</rscale>
<asrwt>0</asrwt>
<pdfrwt beam="1">  1       21 0.86957292E-03 0.20134454E+02</pdfrwt>
<pdfrwt beam="2">  1       21 0.11828204E-01 0.20134454E+02</pdfrwt>
<totfact> 0.17863649E+08</totfact>
</mgrwt>
</event>
<event>
 4    1  0.2761157E+004  0.2848732E+02  0.7546771E-02  0.1615438E+00
         21   -1    0    0  501  502  0.00000000000E+00  0.00000000000E+00  0.46355592860E+01  0.46355592860E+01  0.00000000000E+00 0.  1.
         21   -1    0    0  502  503 -0.00000000000E+00 -0.00000000000E+00 -0.29684163297E+03  0.29684163297E+03  0.00000000000E+00 0. -1.
          2    1    1    2  501    0  0.13999256668E+02  0.24810239074E+02 -0.49555121456E+02  0.57159751684E+02  0.00000000000E+00 0.  1.
         -2    1    1    2    0  503 -0.13999256668E+02 -0.24810239074E+02 -0.24265095223E+03  0.24431744058E+03  0.00000000000E+00 0. -1.
<mgrwt>
<rscale>  2 0.28487316E+02</rscale>
<asrwt>0</asrwt>
<pdfrwt beam="1">  1       21 0.71316301E-03 0.28487316E+02</pdfrwt>
<pdfrwt beam="2">  1       21 0.45667941E-01 0.28487316E+02</pdfrwt>
<totfact> 0.23619323E+07</totfact>
</mgrwt>
</event>
<event>
 4    1  0.2761157E+004  0.2047538E+02  0.7546771E-02  0.1736037E+00
         21   -1    0    0  501  502  0.00000000000E+00  0.00000000000E+00  0.26829783990E+02  0.26829783990E+02  0.00000000000E+00 0. -1.
         21   -1    0    0  502  503 -0.00000000000E+00 -0.00000000000E+00 -0.18911969375E+02  0.18911969375E+02  0.00000000000E+00 0.  1.
          2    1    1    2  501    0 -0.62329906622E+01  0.19503613812E+02  0.13492330037E+02  0.24521094881E+02  0.00000000000E+00 0. -1.
         -2    1    1    2    0  503  0.62329906622E+01 -0.19503613812E+02 -0.55745154228E+01  0.21220658485E+02  0.00000000000E+00 0.  1.
<mgrwt>
<rscale>  2 0.20475378E+02</rscale>
<asrwt>0</asrwt>
<pdfrwt beam="1">  1       21 0.41276591E-02 0.20475378E+02</pdfrwt>
<pdfrwt beam="2">  1       21 0.29095337E-02 0.20475378E+02</pdfrwt>
<totfact> 0.15712189E+08</totfact>
</mgrwt>
</event>
<event>
 4    1  0.2761157E+004  0.2155125E+02  0.7546771E-02  0.1716130E+00
         21   -1    0    0  503  502  0.00000000000E+00  0.00000000000E+00  0.20701470541E+02  0.20701470541E+02  0.00000000000E+00 0. -1.
         21   -1    0    0  501  503 -0.00000000000E+00 -0.00000000000E+00 -0.22436249268E+02  0.22436249268E+02  0.00000000000E+00 0.  1.
          2    1    1    2  501    0 -0.21464751806E+02 -0.19289209730E+01 -0.78337462823E+00  0.21565481261E+02  0.00000000000E+00 0.  1.
         -2    1    1    2    0  502  0.21464751806E+02  0.19289209730E+01 -0.95140409907E+00  0.21572238548E+02  0.00000000000E+00 0. -1.
<mgrwt>
<rscale>  2 0.21551248E+02</rscale>
<asrwt>0</asrwt>
<pdfrwt beam="1">  1       21 0.31848416E-02 0.21551248E+02</pdfrwt>
<pdfrwt beam="2">  1       21 0.34517306E-02 0.21551248E+02</pdfrwt>
<totfact> 0.18362080E+08</totfact>
</mgrwt>
</event>
<event>
 4    1  0.2761157E+004  0.3130497E+02  0.7546771E-02  0.1584096E+00
         21   -1    0    0  501  502  0.00000000000E+00  0.00000000000E+00  0.98296734213E+03  0.98296734213E+03  0.00000000000E+00 0.  1.
         21   -1    0    0  502  503 -0.00000000000E+00 -0.00000000000E+00 -0.84219660683E+01  0.84219660683E+01  0.00000000000E+00 0. -1.
          2    1    1    2  501    0 -0.28764516107E+02  0.12353293005E+02  0.95270361731E+03  0.95321780495E+03  0.00000000000E+00 0.  1.
         -2    1    1    2    0  503  0.28764516107E+02 -0.12353293005E+02  0.21841758750E+02  0.38171503248E+02  0.00000000000E+00 0. -1.
<mgrwt>
<rscale>  2 0.31304971E+02</rscale>
<asrwt>0</asrwt>
<pdfrwt beam="1">  1       21 0.15122565E+00 0.31304971E+02</pdfrwt>
<pdfrwt beam="2">  1       21 0.12956879E-02 0.31304971E+02</pdfrwt>
<totfact> 0.73687090E+05</totfact>
</mgrwt>
</event>
<event>
 4    1  0.2761157E+004  0.2464721E+02  0.7546771E-02  0.1666121E+00
         21   -1    0    0  503  502  0.00000000000E+00  0.00000000000E+00  0.69315016393E+01  0.69315016393E+01  0.00000000000E+00 0.  1.
         21   -1    0    0  501  503 -0.00000000000E+00 -0.00000000000E+00 -0.89069733237E+02  0.89069733237E+02  0.00000000000E+00 0. -1.
          2    1    1    2  501    0  0.75427609930E+01  0.23464695082E+02 -0.34990200295E+02  0.42799524242E+02  0.00000000000E+00 0.  1.
         -2    1    1    2    0  502 -0.75427609930E+01 -0.23464695082E+02 -0.47148031303E+02  0.53201710634E+02  0.00000000000E+00 0. -1.
<mgrwt>
<rscale>  2 0.24647214E+02</rscale>
<asrwt>0</asrwt>
<pdfrwt beam="1">  1       21 0.10663849E-02 0.24647214E+02</pdfrwt>
<pdfrwt beam="2">  1       21 0.13703036E-01 0.24647214E+02</pdfrwt>
<totfact> 0.10911971E+08</totfact>
</mgrwt>
</event>
<event>
 4    1  0.2761157E+004  0.2038617E+02  0.7546771E-02  0.1737756E+00
         21   -1    0    0  503  502  0.00000000000E+00  0.00000000000E+00  0.13982614300E+01  0.13982614300E+01  0.00000000000E+00 0. -1.
         21   -1    0    0  501  503 -0.00000000000E+00 -0.00000000000E+00 -0.30574533699E+03  0.30574533699E+03  0.00000000000E+00 0.  1.
          2    1    1    2  501    0  0.12903245741E+02 -0.15782972215E+02 -0.12653450192E+03  0.12816620514E+03  0.00000000000E+00 0.  1.
         -2    1    1    2    0  502 -0.12903245741E+02  0.15782972215E+02 -0.17781257364E+03  0.17897739328E+03  0.00000000000E+00 0. -1.
<mgrwt>
<rscale>  2 0.20386171E+02</rscale>
<asrwt>0</asrwt>
<pdfrwt beam="1">  1       21 0.21511697E-03 0.20386171E+02</pdfrwt>
<pdfrwt beam="2">  1       21 0.47037782E-01 0.20386171E+02</pdfrwt>
<totfact> 0.12003686E+08</totfact>
</mgrwt>
</event>
<event>
 4    1  0.2761157E+004  0.2210183E+02  0.7546771E-02  0.1706497E+00
         21   -1    0    0  501  502  0.00000000000E+00  0.00000000000E+00  0.25793122074E+03  0.25793122074E+03  0.00000000000E+00 0.  1.
         21   -1    0    0  502  503 -0.00000000000E+00 -0.00000000000E+00 -0.30412426239E+01  0.30412426239E+01  0.00000000000E+00 0. -1.
          2    1    1    2  501    0 -0.18206906693E+02 -0.12529949911E+02  0.20759235845E+03  0.20876560632E+03  0.00000000000E+00 0.  1.
         -2    1    1    2    0  503  0.18206906693E+02  0.12529949911E+02  0.47297619662E+02  0.52206857038E+02  0.00000000000E+00 0. -1.
<mgrwt>
<rscale>  2 0.22101835E+02</rscale>
<asrwt>0</asrwt>
<pdfrwt beam="1">  1       21 0.39681709E-01 0.22101835E+02</pdfrwt>
<pdfrwt beam="2">  1       21 0.46788368E-03 0.22101835E+02</pdfrwt>
<totfact> 0.54654267E+07</totfact>
</mgrwt>
</event>
<event>
 4    1  0.2761157E+004  0.4082912E+02  0.7546771E-02  0.1502197E+00
         21   -1    0    0  503  502  0.00000000000E+00  0.00000000000E+00  0.42715197396E+02  0.42715197396E+02  0.00000000000E+00 0. -1.
         21   -1    0    0  501  503 -0.00000000000E+00 -0.00000000000E+00 -0.40588661045E+02  0.40588661045E+02  0.00000000000E+00 0.  1.
          2    1    1    2  501    0  0.86913875859E+01  0.39893314429E+02 -0.71086001061E+01  0.41443322137E+02  0.00000000000E+00 0.  1.
         -2    1    1    2    0  502 -0.86913875859E+01 -0.39893314429E+02  0.92351364567E+01  0.41860536304E+02  0.00000000000E+00 0. -1.
<mgrwt>
<rscale>  2 0.40829117E+02</rscale>
<asrwt>0</asrwt>
<pdfrwt beam="1">  1       21 0.65715688E-02 0.40829117E+02</pdfrwt>
<pdfrwt beam="2">  1       21 0.62444094E-02 0.40829117E+02</pdfrwt>
<totfact> 0.25947667E+07</totfact>
</mgrwt>
</event>
<event>
 4    1  0.2761157E+004  0.2641367E+02  0.7546771E-02  0.1641489E+00
         21   -1    0    0  501  502  0.00000000000E+00  0.00000000000E+00  0.31238544067E+02  0.31238544067E+02  0.00000000000E+00 0.  1.
         21   -1    0    0  502  503 -0.00000000000E+00 -0.00000000000E+00 -0.15069390550E+03  0.15069390550E+03  0.00000000000E+00 0. -1.
          2    1    1    2  501    0 -0.23302151047E+01 -0.26310682562E+02  0.24227404431E+02  0.35842001127E+02  0.00000000000E+00 0.  1.
         -2    1    1    2    0  503  0.23302151047E+01  0.26310682562E+02 -0.14368276586E+03  0.14609044844E+03  0.00000000000E+00 0. -1.
<mgrwt>
<rscale>  2 0.26413669E+02</rscale>
<asrwt>0</asrwt>
<pdfrwt beam="1">  1       21 0.48059297E-02 0.26413669E+02</pdfrwt>
<pdfrwt beam="2">  1       21 0.23183678E-01 0.26413669E+02</pdfrwt>
<totfact> 0.43139679E+06</totfact>
</mgrwt>
</event>
<event>
 4    1  0.2761157E+004  0.2093860E+02  0.7546771E-02  0.1727282E+00
         21   -1    0    0  503  502  0.00000000000E+00  0.00000000000E+00  0.41543522451E+03  0.41543522451E+03  0.00000000000E+00 0.  1.
         21   -1    0    0  501  503 -0.00000000000E+00 -0.00000000000E+00 -0.22061640657E+01  0.22061640657E+01  0.00000000000E+00 0. -1.
          2    1    1    2  501    0 -0.10651083747E+00 -0.20938324801E+02  0.55794375759E+02  0.59593935567E+02  0.00000000000E+00 0. -1.
         -2    1    1    2    0  502  0.10651083747E+00  0.20938324801E+02  0.35743468468E+03  0.35804745301E+03  0.00000000000E+00 0.  1.
<mgrwt>
<rscale>  2 0.20938596E+02</rscale>
<asrwt>0</asrwt>
<pdfrwt beam="1">  1       21 0.63913049E-01 0.20938596E+02</pdfrwt>
<pdfrwt beam="2">  1       21 0.33941019E-03 0.20938596E+02</pdfrwt>
<totfact> 0.34209190E+07</totfact>
</mgrwt>
</event>
<event>
 4    1  0.2761157E+004  0.5139597E+02  0.7546771E-02  0.1437954E+00
         21   -1    0    0  503  502  0.00000000000E+00  0.00000000000E+00  0.62195964994E+02  0.62195964994E+02  0.00000000000E+00 0. -1.
         21   -1    0    0  501  503 -0.00000000000E+00 -0.00000000000E+00 -0.69051637696E+02  0.69051637696E+02  0.00000000000E+00 0.  1.
          2    1    1    2  501    0 -0.36017191288E+02 -0.36664797933E+02 -0.44142830647E+02  0.67750534857E+02  0.00000000000E+00 0.  1.
         -2    1    1    2    0  502  0.36017191288E+02  0.36664797933E+02  0.37287157945E+02  0.63497067833E+02  0.00000000000E+00 0. -1.
<mgrwt>
<rscale>  2 0.51395968E+02</rscale>
<asrwt>0</asrwt>
<pdfrwt beam="1">  1       21 0.95686100E-02 0.51395968E+02</pdfrwt>
<pdfrwt beam="2">  1       21 0.10623329E-01 0.51395968E+02</pdfrwt>
<totfact> 0.58577885E+06</totfact>
</mgrwt>
</event>
<event>
 4    1  0.2761157E+004  0.2433504E+02  0.7546771E-02  0.1670741E+00
         21   -1    0    0  501  502  0.00000000000E+00  0.00000000000E+00  0.32382701790E+03  0.32382701790E+03  0.00000000000E+00 0.  1.
         21   -1    0    0  502  503 -0.00000000000E+00 -0.00000000000E+00 -0.34018285943E+01  0.34018285943E+01  0.00000000000E+00 0. -1.
          2    1    1    2  501    0 -0.24328552992E+02  0.56205111910E+00  0.27147345187E+03  0.27256197362E+03  0.00000000000E+00 0.  1.
         -2    1    1    2    0  503  0.24328552992E+02 -0.56205111910E+00  0.48951737435E+02  0.54666872876E+02  0.00000000000E+00 0. -1.
<mgrwt>
<rscale>  2 0.24335045E+02</rscale>
<asrwt>0</asrwt>
<pdfrwt beam="1">  1       21 0.49819517E-01 0.24335045E+02</pdfrwt>
<pdfrwt beam="2">  1       21 0.52335850E-03 0.24335045E+02</pdfrwt>
<totfact> 0.30656951E+07</totfact>
</mgrwt>
</event>
<event>
 4    1  0.2761157E+004  0.2151679E+02  0.7546771E-02  0.1716745E+00
         21   -1    0    0  501  502  0.00000000000E+00  0.00000000000E+00  0.14353012147E+02  0.14353012147E+02  0.00000000000E+00 0. -1.
         21   -1    0    0  502  503 -0.00000000000E+00 -0.00000000000E+00 -0.33598645143E+02  0.33598645143E+02  0.00000000000E+00 0.  1.
          2    1    1    2  501    0 -0.19347511762E+02  0.94152061523E+01 -0.48301654998E+01  0.22052274645E+02  0.00000000000E+00 0. -1.
         -2    1    1    2    0  503  0.19347511762E+02 -0.94152061523E+01 -0.14415467496E+02  0.25899382645E+02  0.00000000000E+00 0.  1.
<mgrwt>
<rscale>  2 0.21516792E+02</rscale>
<asrwt>0</asrwt>
<pdfrwt beam="1">  1       21 0.22081557E-02 0.21516792E+02</pdfrwt>
<pdfrwt beam="2">  1       21 0.51690223E-02 0.21516792E+02</pdfrwt>
<totfact> 0.17111601E+08</totfact>
</mgrwt>
</event>
<event>
 4    1  0.2761157E+004  0.2887123E+02  0.7546771E-02  0.1610912E+00
         21   -1    0    0  501  502  0.00000000000E+00  0.00000000000E+00  0.41437965614E+02  0.41437965614E+02  0.00000000000E+00 0. -1.
         21   -1    0    0  502  503 -0.00000000000E+00 -0.00000000000E+00 -0.14691830313E+03  0.14691830313E+03  0.00000000000E+00 0.  1.
          2    1    1    2  501    0  0.26976548557E+02  0.10286584538E+02  0.34753464417E+02  0.45181315635E+02  0.00000000000E+00 0. -1.
         -2    1    1    2    0  503 -0.26976548557E+02 -0.10286584538E+02 -0.14023380193E+03  0.14317495311E+03  0.00000000000E+00 0.  1.
<mgrwt>
<rscale>  2 0.28871231E+02</rscale>
<asrwt>0</asrwt>
<pdfrwt beam="1">  1       21 0.63750716E-02 0.28871231E+02</pdfrwt>
<pdfrwt beam="2">  1       21 0.22602816E-01 0.28871231E+02</pdfrwt>
<totfact> 0.28964134E+06</totfact>
</mgrwt>
</event>
<event>
 4    1  0.2761157E+004  0.6600990E+02  0.7546771E-02  0.1374212E+00
         21   -1    0    0  501  502  0.00000000000E+00  0.00000000000E+00  0.75015600907E+03  0.75015600907E+03  0.00000000000E+00 0. -1.
         21   -1    0    0  502  503 -0.00000000000E+00 -0.00000000000E+00 -0.61594428305E+01  0.61594428305E+01  0.00000000000E+00 0.  1.
          2    1    1    2  501    0 -0.65987987686E+02 -0.17008045923E+01  0.46225903375E+03  0.46694830713E+03  0.00000000000E+00 0.  1.
         -2    1    1    2    0  503  0.65987987686E+02  0.17008045923E+01  0.28173753249E+03  0.28936714477E+03  0.00000000000E+00 0. -1.
<mgrwt>
<rscale>  2 0.66009903E+02</rscale>
<asrwt>0</asrwt>
<pdfrwt beam="1">  1       21 0.11540854E+00 0.66009903E+02</pdfrwt>
<pdfrwt beam="2">  1       21 0.94760718E-03 0.66009903E+02</pdfrwt>
<totfact> 0.23359925E+06</totfact>
</mgrwt>
</event>
<event>
 4    1  0.2761157E+004  0.2773393E+02  0.7546771E-02  0.1624578E+00
         21   -1    0    0  501  502  0.00000000000E+00  0.00000000000E+00  0.54723586102E+02  0.54723586102E+02  0.00000000000E+00 0.  1.
         21   -1    0    0  502  503 -0.00000000000E+00 -0.00000000000E+00 -0.18430627984E+02  0.18430627984E+02  0.00000000000E+00 0. -1.
          2    1    1    2  501    0 -0.21072633515E+02  0.18030950487E+02  0.35967448153E+02  0.45418370571E+02  0.00000000000E+00 0.  1.
         -2    1    1    2    0  503  0.21072633515E+02 -0.18030950487E+02  0.32550996575E+00  0.27735843514E+02  0.00000000000E+00 0. -1.
<mgrwt>
<rscale>  2 0.27733933E+02</rscale>
<asrwt>0</asrwt>
<pdfrwt beam="1">  1       21 0.84190131E-02 0.27733933E+02</pdfrwt>
<pdfrwt beam="2">  1       21 0.28354813E-02 0.27733933E+02</pdfrwt>
<totfact> 0.56547578E+07</totfact>
</mgrwt>
</event>
<event>
 4    1  0.2761157E+004  0.4184755E+02  0.7546771E-02  0.1495039E+00
         21   -1    0    0  501  502  0.00000000000E+00  0.00000000000E+00  0.15592833060E+01  0.15592833060E+01  0.00000000000E+00 0. -1.
         21   -1    0    0  502  503 -0.00000000000E+00 -0.00000000000E+00 -0.15639203426E+04  0.15639203426E+04  0.00000000000E+00 0.  1.
          2    1    1    2  501    0  0.23316781358E+02 -0.34749753211E+02 -0.36560959078E+03  0.36799672623E+03  0.00000000000E+00 0. -1.
         -2    1    1    2    0  503 -0.23316781358E+02  0.34749753211E+02 -0.11967514685E+04  0.11974828997E+04  0.00000000000E+00 0.  1.
<mgrwt>
<rscale>  2 0.41847552E+02</rscale>
<asrwt>0</asrwt>
<pdfrwt beam="1">  1       21 0.23988860E-03 0.41847552E+02</pdfrwt>
<pdfrwt beam="2">  1       21 0.24060427E+00 0.41847552E+02</pdfrwt>
<totfact> 0.27334753E+06</totfact>
</mgrwt>
</event>
<event>
 4    1  0.2761157E+004  0.2808228E+02  0.7546771E-02  0.1620308E+00
         21   -1    0    0  501  502  0.00000000000E+00  0.00000000000E+00  0.82418207582E+02  0.82418207582E+02  0.00000000000E+00 0. -1.
         21   -1    0    0  502  503 -0.00000000000E+00 -0.00000000000E+00 -0.99352095455E+01  0.99352095455E+01  0.00000000000E+00 0.  1.
          2    1    1    2  501    0 -0.10878492878E+02  0.25889624246E+02  0.27369388391E+02  0.39213488390E+02  0.00000000000E+00 0.  1.
         -2    1    1    2    0  503  0.10878492878E+02 -0.25889624246E+02  0.45113609646E+02  0.53139928737E+02  0.00000000000E+00 0. -1.
<mgrwt>
<rscale>  2 0.28082276E+02</rscale>
<asrwt>0</asrwt>
<pdfrwt beam="1">  1       21 0.12679724E-01 0.28082276E+02</pdfrwt>
<pdfrwt beam="2">  1       21 0.15284938E-02 0.28082276E+02</pdfrwt>
<totfact> 0.74447459E+07</totfact>
</mgrwt>
</event>
<event>
 4    1  0.2761157E+004  0.2662616E+02  0.7546771E-02  0.1638687E+00
         21   -1    0    0  503  502  0.00000000000E+00  0.00000000000E+00  0.43420946042E+01  0.43420946042E+01  0.00000000000E+00 0. -1.
         21   -1    0    0  501  503 -0.00000000000E+00 -0.00000000000E+00 -0.23433307382E+03  0.23433307382E+03  0.00000000000E+00 0.  1.
          2    1    1    2  501    0 -0.11434973298E+02 -0.24045662271E+02 -0.18071121102E+03  0.18266224097E+03  0.00000000000E+00 0.  1.
         -2    1    1    2    0  502  0.11434973298E+02  0.24045662271E+02 -0.49279768195E+02  0.56012927452E+02  0.00000000000E+00 0. -1.
<mgrwt>
<rscale>  2 0.26626162E+02</rscale>
<asrwt>0</asrwt>
<pdfrwt beam="1">  1       21 0.66801459E-03 0.26626162E+02</pdfrwt>
<pdfrwt beam="2">  1       21 0.36051240E-01 0.26626162E+02</pdfrwt>
<totfact> 0.40293886E+07</totfact>
</mgrwt>
</event>
<event>
 4    1  0.2761157E+004  0.2188850E+02  0.7546771E-02  0.1710187E+00
         21   -1    0    0  503  502  0.00000000000E+00  0.00000000000E+00  0.80427278696E+03  0.80427278696E+03  0.00000000000E+00 0. -1.
         21   -1    0    0  501  503 -0.00000000000E+00 -0.00000000000E+00 -0.71400225847E+00  0.71400225847E+00  0.00000000000E+00 0.  1.
          2    1    1    2  501    0 -0.96265193191E+01 -0.19657994274E+02  0.23794597733E+03  0.23895061151E+03  0.00000000000E+00 0.  1.
         -2    1    1    2    0  502  0.96265193191E+01  0.19657994274E+02  0.56561280737E+03  0.56603617771E+03  0.00000000000E+00 0. -1.
<mgrwt>
<rscale>  2 0.21888504E+02</rscale>
<asrwt>0</asrwt>
<pdfrwt beam="1">  1       21 0.12373355E+00 0.21888504E+02</pdfrwt>
<pdfrwt beam="2">  1       21 0.10984714E-03 0.21888504E+02</pdfrwt>
<totfact> 0.42776688E+07</totfact>
</mgrwt>
</event>
<event>
 4    1  0.2761157E+004  0.2087334E+02  0.7546771E-02  0.1728498E+00
         21   -1    0    0  501  502  0.00000000000E+00  0.00000000000E+00  0.11381939702E+02  0.11381939702E+02  0.00000000000E+00 0. -1.
         21   -1    0    0  502  503 -0.00000000000E+00 -0.00000000000E+00 -0.83491997696E+02  0.83491997696E+02  0.00000000000E+00 0.  1.
          2    1    1    2  501    0 -0.28372038087E+01  0.20679614534E+02 -0.11471680679E+01  0.20904836218E+02  0.00000000000E+00 0. -1.
         -2    1    1    2    0  503  0.28372038087E+01 -0.20679614534E+02 -0.70962889926E+02  0.73969101180E+02  0.00000000000E+00 0.  1.
<mgrwt>
<rscale>  2 0.20873337E+02</rscale>
<asrwt>0</asrwt>
<pdfrwt beam="1">  1       21 0.17510676E-02 0.20873337E+02</pdfrwt>
<pdfrwt beam="2">  1       21 0.12844923E-01 0.20873337E+02</pdfrwt>
<totfact> 0.54860828E+07</totfact>
</mgrwt>
</event>
<event>
 4    1  0.2761157E+004  0.2496811E+02  0.7546771E-02  0.1661460E+00
         21   -1    0    0  501  502  0.00000000000E+00  0.00000000000E+00  0.11905781180E+03  0.11905781180E+03  0.00000000000E+00 0.  1.
         21   -1    0    0  502  503 -0.00000000000E+00 -0.00000000000E+00 -0.92322976377E+01  0.92322976377E+01  0.00000000000E+00 0. -1.
          2    1    1    2  501    0  0.24782888459E+02  0.30356414252E+01  0.97114275490E+02  0.10027257443E+03  0.00000000000E+00 0.  1.
         -2    1    1    2    0  503 -0.24782888459E+02 -0.30356414252E+01  0.12711238672E+02  0.28017535006E+02  0.00000000000E+00 0. -1.
<mgrwt>
<rscale>  2 0.24968113E+02</rscale>
<asrwt>0</asrwt>
<pdfrwt beam="1">  1       21 0.18316585E-01 0.24968113E+02</pdfrwt>
<pdfrwt beam="2">  1       21 0.14203536E-02 0.24968113E+02</pdfrwt>
<totfact> 0.43098399E+07</totfact>
</mgrwt>
</event>
<event>
 4    1  0.2761157E+004  0.2212171E+02  0.7546771E-02  0.1706155E+00
         21   -1    0    0  501  502  0.00000000000E+00  0.00000000000E+00  0.14431644664E+02  0.14431644664E+02  0.00000000000E+00 0. -1.
         21   -1    0    0  502  503 -0.00000000000E+00 -0.00000000000E+00 -0.38397087141E+02  0.38397087141E+02  0.00000000000E+00 0.  1.
          2    1    1    2  501    0  0.64681599569E+01 -0.21154977931E+02 -0.21012900914E+02  0.30510853631E+02  0.00000000000E+00 0.  1.
         -2    1    1    2    0  503 -0.64681599569E+01  0.21154977931E+02 -0.29525415629E+01  0.22317878173E+02  0.00000000000E+00 0. -1.
<mgrwt>
<rscale>  2 0.22121713E+02</rscale>
<asrwt>0</asrwt>
<pdfrwt beam="1">  1       21 0.22202530E-02 0.22121713E+02</pdfrwt>
<pdfrwt beam="2">  1       21 0.59072441E-02 0.22121713E+02</pdfrwt>
<totfact> 0.13829648E+08</totfact>
</mgrwt>
</event>
<event>
 4    1  0.2761157E+004  0.2236607E+02  0.7546771E-02  0.1701997E+00
         21   -1    0    0  503  502  0.00000000000E+00  0.00000000000E+00  0.69706670465E+02  0.69706670465E+02  0.00000000000E+00 0. -1.
         21   -1    0    0  501  503 -0.00000000000E+00 -0.00000000000E+00 -0.73226104350E+01  0.73226104350E+01  0.00000000000E+00 0.  1.
          2    1    1    2  501    0  0.19678347436E+02 -0.10630316258E+02  0.25749209648E+02  0.34106638343E+02  0.00000000000E+00 0. -1.
         -2    1    1    2    0  502 -0.19678347436E+02  0.10630316258E+02  0.36634850383E+02  0.42922642558E+02  0.00000000000E+00 0.  1.
<mgrwt>
<rscale>  2 0.22366068E+02</rscale>
<asrwt>0</asrwt>
<pdfrwt beam="1">  1       21 0.10724103E-01 0.22366068E+02</pdfrwt>
<pdfrwt beam="2">  1       21 0.11265555E-02 0.22366068E+02</pdfrwt>
<totfact> 0.14735366E+08</totfact>
</mgrwt>
</event>
<event>
 4    1  0.2761157E+004  0.2995180E+02  0.7546771E-02  0.1598622E+00
         21   -1    0    0  503  502  0.00000000000E+00  0.00000000000E+00  0.45764238375E+03  0.45764238375E+03  0.00000000000E+00 0.  1.
         21   -1    0    0  501  503 -0.00000000000E+00 -0.00000000000E+00 -0.21649215527E+01  0.21649215527E+01  0.00000000000E+00 0. -1.
          2    1    1    2  501    0 -0.26201207571E+02 -0.14512302706E+02  0.15705576694E+03  0.15988628502E+03  0.00000000000E+00 0.  1.
         -2    1    1    2    0  502  0.26201207571E+02  0.14512302706E+02  0.29842169525E+03  0.29992102028E+03  0.00000000000E+00 0. -1.
<mgrwt>
<rscale>  2 0.29951798E+02</rscale>
<asrwt>0</asrwt>
<pdfrwt beam="1">  1       21 0.70406443E-01 0.29951798E+02</pdfrwt>
<pdfrwt beam="2">  1       21 0.33306522E-03 0.29951798E+02</pdfrwt>
<totfact> 0.31045713E+07</totfact>
</mgrwt>
</event>
<event>
 4    1  0.2761157E+004  0.2368259E+02  0.7546771E-02  0.1680679E+00
         21   -1    0    0  501  502  0.00000000000E+00  0.00000000000E+00  0.39855016365E+01  0.39855016365E+01  0.00000000000E+00 0.  1.
         21   -1    0    0  502  503 -0.00000000000E+00 -0.00000000000E+00 -0.14431098585E+03  0.14431098585E+03  0.00000000000E+00 0. -1.
          2    1    1    2  501    0 -0.13073338127E+02 -0.19747229524E+02 -0.58476591384E+02  0.63090228908E+02  0.00000000000E+00 0.  1.
         -2    1    1    2    0  503  0.13073338127E+02  0.19747229524E+02 -0.81848892832E+02  0.85206258582E+02  0.00000000000E+00 0. -1.
<mgrwt>
<rscale>  2 0.23682594E+02</rscale>
<asrwt>0</asrwt>
<pdfrwt beam="1">  1       21 0.61315409E-03 0.23682594E+02</pdfrwt>
<pdfrwt beam="2">  1       21 0.22201690E-01 0.23682594E+02</pdfrwt>
<totfact> 0.10726844E+08</totfact>
</mgrwt>
</event>
<event>
 4    1  0.2761157E+004  0.2936454E+02  0.7546771E-02  0.1605221E+00
         21   -1    0    0  503  502  0.00000000000E+00  0.00000000000E+00  0.18581615439E+02  0.18581615439E+02  0.00000000000E+00 0. -1.
         21   -1    0    0  501  503 -0.00000000000E+00 -0.00000000000E+00 -0.98940581490E+02  0.98940581490E+02  0.00000000000E+00 0.  1.
          2    1    1    2  501    0  0.19242608110E+02  0.22181034502E+02 -0.82997864840E+02  0.88039319775E+02  0.00000000000E+00 0.  1.
         -2    1    1    2    0  502 -0.19242608110E+02 -0.22181034502E+02  0.26388987884E+01  0.29482877154E+02  0.00000000000E+00 0. -1.
<mgrwt>
<rscale>  2 0.29364541E+02</rscale>
<asrwt>0</asrwt>
<pdfrwt beam="1">  1       21 0.28587100E-02 0.29364541E+02</pdfrwt>
<pdfrwt beam="2">  1       21 0.15221628E-01 0.29364541E+02</pdfrwt>
<totfact> 0.20860291E+07</totfact>
</mgrwt>
</event>
<event>
 4    1  0.2761157E+004  0.2051639E+02  0.7546771E-02  0.1735250E+00
         21   -1    0    0  501  502  0.00000000000E+00  0.00000000000E+00  0.24398976681E+01  0.24398976681E+01  0.00000000000E+00 0.  1.
         21   -1    0    0  502  503 -0.00000000000E+00 -0.00000000000E+00 -0.22968953243E+03  0.22968953243E+03  0.00000000000E+00 0. -1.
          2    1    1    2  501    0  0.19542158095E+02 -0.62471150966E+01 -0.55718551818E+02  0.59375747631E+02  0.00000000000E+00 0.  1.
         -2    1    1    2    0  503 -0.19542158095E+02  0.62471150966E+01 -0.17153108294E+03  0.17275368246E+03  0.00000000000E+00 0. -1.
<mgrwt>
<rscale>  2 0.20516393E+02</rscale>
<asrwt>0</asrwt>
<pdfrwt beam="1">  1       21 0.37536882E-03 0.20516393E+02</pdfrwt>
<pdfrwt beam="2">  1       21 0.35336856E-01 0.20516393E+02</pdfrwt>
<totfact> 0.91857189E+07</totfact>
</mgrwt>
</event>
<event>
 4    1  0.2761157E+004  0.2180455E+02  0.7546771E-02  0.1711654E+00
         21   -1    0    0  503  502  0.00000000000E+00  0.00000000000E+00  0.20569683761E+03  0.20569683761E+03  0.00000000000E+00 0. -1.
         21   -1    0    0  501  503 -0.00000000000E+00 -0.00000000000E+00 -0.50257494421E+01  0.50257494421E+01  0.00000000000E+00 0.  1.
          2    1    1    2  501    0 -0.21715207096E+02 -0.19718308130E+01  0.22904130756E+02  0.31623370182E+02  0.00000000000E+00 0.  1.
         -2    1    1    2    0  502  0.21715207096E+02  0.19718308130E+01  0.17776695741E+03  0.17909921687E+03  0.00000000000E+00 0. -1.
<mgrwt>
<rscale>  2 0.21804549E+02</rscale>
<asrwt>0</asrwt>
<pdfrwt beam="1">  1       21 0.31645661E-01 0.21804549E+02</pdfrwt>
<pdfrwt beam="2">  1       21 0.77319238E-03 0.21804549E+02</pdfrwt>
<totfact> 0.39392977E+07</totfact>
</mgrwt>
</event>
<event>
 4    1  0.2761157E+004  0.2024014E+02  0.7546771E-02  0.1740594E+00
         21   -1    0    0  501  502  0.00000000000E+00  0.00000000000E+00  0.11035803650E+02  0.11035803650E+02  0.00000000000E+00 0. -1.
         21   -1    0    0  502  503 -0.00000000000E+00 -0.00000000000E+00 -0.89117335923E+02  0.89117335923E+02  0.00000000000E+00 0.  1.
          2    1    1    2  501    0  0.12410530131E+02  0.15988803347E+02 -0.79012657728E+00  0.20255552093E+02  0.00000000000E+00 0. -1.
         -2    1    1    2    0  503 -0.12410530131E+02 -0.15988803347E+02 -0.77291405696E+02  0.79897587480E+02  0.00000000000E+00 0.  1.
<mgrwt>
<rscale>  2 0.20240136E+02</rscale>
<asrwt>0</asrwt>
<pdfrwt beam="1">  1       21 0.16978160E-02 0.20240136E+02</pdfrwt>
<pdfrwt beam="2">  1       21 0.13710359E-01 0.20240136E+02</pdfrwt>
<totfact> 0.51117726E+07</totfact>
</mgrwt>
</event>
<event>
 4    1  0.2761157E+004  0.4257581E+02  0.7546771E-02  0.1490069E+00
         21   -1    0    0  503  502  0.00000000000E+00  0.00000000000E+00  0.22495859205E+02  0.22495859205E+02  0.00000000000E+00 0. -1.
         21   -1    0    0  501  503 -0.00000000000E+00 -0.00000000000E+00 -0.10242505086E+03  0.10242505086E+03  0.00000000000E+00 0.  1.
          2    1    1    2  501    0  0.41806936251E+02  0.80547777734E+01 -0.68810627674E+02  0.80917253071E+02  0.00000000000E+00 0.  1.
         -2    1    1    2    0  502 -0.41806936251E+02 -0.80547777734E+01 -0.11118563978E+02  0.44003656991E+02  0.00000000000E+00 0. -1.
<mgrwt>
<rscale>  2 0.42575807E+02</rscale>
<asrwt>0</asrwt>
<pdfrwt beam="1">  1       21 0.34609014E-02 0.42575807E+02</pdfrwt>
<pdfrwt beam="2">  1       21 0.15757700E-01 0.42575807E+02</pdfrwt>
<totfact> 0.15435749E+07</totfact>
</mgrwt>
</event>
<event>
 4    1  0.2761157E+004  0.5007986E+02  0.7546771E-02  0.1444911E+00
         21   -1    0    0  503  502  0.00000000000E+00  0.00000000000E+00  0.97724991917E+02  0.97724991917E+02  0.00000000000E+00 0. -1.
         21   -1    0    0  501  503 -0.00000000000E+00 -0.00000000000E+00 -0.41315691297E+02  0.41315691297E+02  0.00000000000E+00 0.  1.
          2    1    1    2  501    0 -0.43468167801E+02 -0.24869871687E+02 -0.14584942582E+02  0.52160451300E+02  0.00000000000E+00 0.  1.
         -2    1    1    2    0  502  0.43468167801E+02  0.24869871687E+02  0.70994243202E+02  0.86880231915E+02  0.00000000000E+00 0. -1.
<mgrwt>
<rscale>  2 0.50079858E+02</rscale>
<asrwt>0</asrwt>
<pdfrwt beam="1">  1       21 0.15034614E-01 0.50079858E+02</pdfrwt>
<pdfrwt beam="2">  1       21 0.63562602E-02 0.50079858E+02</pdfrwt>
<totfact> 0.63578675E+06</totfact>
</mgrwt>
</event>
<event>
 4    1  0.2761157E+004  0.2080835E+02  0.7546771E-02  0.1729715E+00
         21   -1    0    0  503  502  0.00000000000E+00  0.00000000000E+00  0.64087266903E+01  0.64087266903E+01  0.00000000000E+00 0. -1.
         21   -1    0    0  501  503 -0.00000000000E+00 -0.00000000000E+00 -0.67842175800E+02  0.67842175800E+02  0.00000000000E+00 0.  1.
          2    1    1    2  501    0  0.87179466645E+01  0.18894040921E+02 -0.28331560981E+02  0.35152023043E+02  0.00000000000E+00 0.  1.
         -2    1    1    2    0  502 -0.87179466645E+01 -0.18894040921E+02 -0.33101888129E+02  0.39098879448E+02  0.00000000000E+00 0. -1.
<mgrwt>
<rscale>  2 0.20808349E+02</rscale>
<asrwt>0</asrwt>
<pdfrwt beam="1">  1       21 0.98595799E-03 0.20808349E+02</pdfrwt>
<pdfrwt beam="2">  1       21 0.10437257E-01 0.20808349E+02</pdfrwt>
<totfact> 0.18413060E+08</totfact>
</mgrwt>
</event>
<event>
 4    1  0.2761157E+004  0.2826228E+02  0.7546771E-02  0.1618131E+00
         21   -1    0    0  503  502  0.00000000000E+00  0.00000000000E+00  0.10880520651E+04  0.10880520651E+04  0.00000000000E+00 0.  1.
         21   -1    0    0  501  503 -0.00000000000E+00 -0.00000000000E+00 -0.91284775178E+00  0.91284775178E+00  0.00000000000E+00 0. -1.
          2    1    1    2  501    0 -0.23499308986E+02  0.15701558468E+02  0.30264257312E+03  0.30395934518E+03  0.00000000000E+00 0.  1.
         -2    1    1    2    0  502  0.23499308986E+02 -0.15701558468E+02  0.78449664427E+03  0.78500556770E+03  0.00000000000E+00 0. -1.
<mgrwt>
<rscale>  2 0.28262280E+02</rscale>
<asrwt>0</asrwt>
<pdfrwt beam="1">  1       21 0.16739159E+00 0.28262280E+02</pdfrwt>
<pdfrwt beam="2">  1       21 0.14043899E-03 0.28262280E+02</pdfrwt>
<totfact> 0.15378413E+07</totfact>
</mgrwt>
</event>
<event>
 4    1  0.2761157E+004  0.3407499E+02  0.7546771E-02  0.1556972E+00
         21   -1    0    0  501  502  0.00000000000E+00  0.00000000000E+00  0.79802834949E+02  0.79802834949E+02  0.00000000000E+00 0. -1.
         21   -1    0    0  502  503 -0.00000000000E+00 -0.00000000000E+00 -0.22476348267E+02  0.22476348267E+02  0.00000000000E+00 0.  1.
          2    1    1    2  501    0 -0.26650555129E+02  0.21233299290E+02  0.59032903701E+02  0.68161490643E+02  0.00000000000E+00 0. -1.
         -2    1    1    2    0  503  0.26650555129E+02 -0.21233299290E+02 -0.17064170179E+01  0.34117692572E+02  0.00000000000E+00 0.  1.
<mgrwt>
<rscale>  2 0.34074992E+02</rscale>
<asrwt>0</asrwt>
<pdfrwt beam="1">  1       21 0.12277359E-01 0.34074992E+02</pdfrwt>
<pdfrwt beam="2">  1       21 0.34578998E-02 0.34074992E+02</pdfrwt>
<totfact> 0.22939060E+07</totfact>
</mgrwt>
</event>
<event>
 4    1  0.2761157E+004  0.2405359E+02  0.7546771E-02  0.1674980E+00
         21   -1    0    0  503  502  0.00000000000E+00  0.00000000000E+00  0.61863445350E+03  0.61863445350E+03  0.00000000000E+00 0.  1.
         21   -1    0    0  501  503 -0.00000000000E+00 -0.00000000000E+00 -0.93701902362E+00  0.93701902362E+00  0.00000000000E+00 0. -1.
          2    1    1    2  501    0 -0.24053316420E+02  0.11444337970E+00  0.29537157161E+03  0.29634935540E+03  0.00000000000E+00 0. -1.
         -2    1    1    2    0  502  0.24053316420E+02 -0.11444337970E+00  0.32232586286E+03  0.32322211712E+03  0.00000000000E+00 0.  1.
<mgrwt>
<rscale>  2 0.24053589E+02</rscale>
<asrwt>0</asrwt>
<pdfrwt beam="1">  1       21 0.95174205E-01 0.24053589E+02</pdfrwt>
<pdfrwt beam="2">  1       21 0.14415727E-03 0.24053589E+02</pdfrwt>
<totfact> 0.53012194E+07</totfact>
</mgrwt>
</event>
<event>
 4    1  0.2761157E+004  0.2471429E+02  0.7546771E-02  0.1665140E+00
         21   -1    0    0  503  502  0.00000000000E+00  0.00000000000E+00  0.12738357131E+02  0.12738357131E+02  0.00000000000E+00 0. -1.
         21   -1    0    0  501  503 -0.00000000000E+00 -0.00000000000E+00 -0.11393312079E+03  0.11393312079E+03  0.00000000000E+00 0.  1.
          2    1    1    2  501    0 -0.22238819843E+02 -0.10781038869E+02 -0.98796869306E+02  0.10184113752E+03  0.00000000000E+00 0.  1.
         -2    1    1    2    0  502  0.22238819843E+02  0.10781038869E+02 -0.23978943557E+01  0.24830340401E+02  0.00000000000E+00 0. -1.
<mgrwt>
<rscale>  2 0.24714285E+02</rscale>
<asrwt>0</asrwt>
<pdfrwt beam="1">  1       21 0.19597472E-02 0.24714285E+02</pdfrwt>
<pdfrwt beam="2">  1       21 0.17528172E-01 0.24714285E+02</pdfrwt>
<totfact> 0.28363955E+07</totfact>
</mgrwt>
</event>
<event>
 4    1  0.2761157E+004  0.3734882E+02  0.7546771E-02  0.1528680E+00
         21   -1    0    0  501  502  0.00000000000E+00  0.00000000000E+00  0.17085115677E+03  0.17085115677E+03  0.00000000000E+00 0. -1.
         21   -1    0    0  502  503 -0.00000000000E+00 -0.00000000000E+00 -0.93187224960E+01  0.93187224960E+01  0.00000000000E+00 0.  1.
          2    1    1    2  501    0  0.30578580831E+02 -0.21444930195E+02  0.11246892370E+03  0.11850819987E+03  0.00000000000E+00 0. -1.
         -2    1    1    2    0  503 -0.30578580831E+02  0.21444930195E+02  0.49063510567E+02  0.61661679396E+02  0.00000000000E+00 0.  1.
<mgrwt>
<rscale>  2 0.37348824E+02</rscale>
<asrwt>0</asrwt>
<pdfrwt beam="1">  1       21 0.26284791E-01 0.37348824E+02</pdfrwt>
<pdfrwt beam="2">  1       21 0.14336497E-02 0.37348824E+02</pdfrwt>
<totfact> 0.24185603E+07</totfact>
</mgrwt>
</event>
<event>
 4    1  0.2761157E+004  0.2411286E+02  0.7546771E-02  0.1674081E+00
         21   -1    0    0  503  502  0.00000000000E+00  0.00000000000E+00  0.65167468436E+01  0.65167468436E+01  0.00000000000E+00 0. -1.
         21   -1    0    0  501  503 -0.00000000000E+00 -0.00000000000E+00 -0.11033305061E+03  0.11033305061E+03  0.00000000000E+00 0.  1.
          2    1    1    2  501    0 -0.23533427262E+02  0.52543188746E+01 -0.77465236953E+02  0.81131331813E+02  0.00000000000E+00 0.  1.
         -2    1    1    2    0  502  0.23533427262E+02 -0.52543188746E+01 -0.26351066814E+02  0.35718465641E+02  0.00000000000E+00 0. -1.
<mgrwt>
<rscale>  2 0.24112861E+02</rscale>
<asrwt>0</asrwt>
<pdfrwt beam="1">  1       21 0.10025764E-02 0.24112861E+02</pdfrwt>
<pdfrwt beam="2">  1       21 0.16974317E-01 0.24112861E+02</pdfrwt>
<totfact> 0.82566452E+07</totfact>
</mgrwt>
</event>
<event>
 4    1  0.2761157E+004  0.2302761E+02  0.7546771E-02  0.1691063E+00
         21   -1    0    0  501  502  0.00000000000E+00  0.00000000000E+00  0.43877823934E+01  0.43877823934E+01  0.00000000000E+00 0. -1.
         21   -1    0    0  502  503 -0.00000000000E+00 -0.00000000000E+00 -0.12131821721E+03  0.12131821721E+03  0.00000000000E+00 0.  1.
          2    1    1    2  501    0 -0.20113031520E+01 -0.22939603066E+02 -0.62363034669E+02  0.66478709541E+02  0.00000000000E+00 0.  1.
         -2    1    1    2    0  503  0.20113031520E+01  0.22939603066E+02 -0.54567400150E+02  0.59227290064E+02  0.00000000000E+00 0. -1.
<mgrwt>
<rscale>  2 0.23027608E+02</rscale>
<asrwt>0</asrwt>
<pdfrwt beam="1">  1       21 0.67504343E-03 0.23027608E+02</pdfrwt>
<pdfrwt beam="2">  1       21 0.18664341E-01 0.23027608E+02</pdfrwt>
<totfact> 0.12498970E+08</totfact>
</mgrwt>
</event>
<event>
 4    1  0.2761157E+004  0.3671844E+02  0.7546771E-02  0.1533849E+00
         21   -1    0    0  501  502  0.00000000000E+00  0.00000000000E+00  0.45015471332E+01  0.45015471332E+01  0.00000000000E+00 0.  1.
         21   -1    0    0  502  503 -0.00000000000E+00 -0.00000000000E+00 -0.35231042850E+03  0.35231042850E+03  0.00000000000E+00 0. -1.
          2    1    1    2  501    0  0.15243047125E+02 -0.33404988268E+02 -0.10483613713E+03  0.11108041850E+03  0.00000000000E+00 0.  1.
         -2    1    1    2    0  503 -0.15243047125E+02  0.33404988268E+02 -0.24297274424E+03  0.24573155713E+03  0.00000000000E+00 0. -1.
<mgrwt>
<rscale>  2 0.36718439E+02</rscale>
<asrwt>0</asrwt>
<pdfrwt beam="1">  1       21 0.69254542E-03 0.36718439E+02</pdfrwt>
<pdfrwt beam="2">  1       21 0.54201627E-01 0.36718439E+02</pdfrwt>
<totfact> 0.18377078E+07</totfact>
</mgrwt>
</event>
<event>
 4    1  0.2761157E+004  0.2095195E+02  0.7546771E-02  0.1727034E+00
         21   -1    0    0  501  502  0.00000000000E+00  0.00000000000E+00  0.11963766734E+04  0.11963766734E+04  0.00000000000E+00 0. -1.
         21   -1    0    0  502  503 -0.00000000000E+00 -0.00000000000E+00 -0.38204877016E+00  0.38204877016E+00  0.00000000000E+00 0.  1.
          2    1    1    2  501    0  0.11527356006E+02  0.17495837280E+02  0.71703987160E+03  0.71734591497E+03  0.00000000000E+00 0. -1.
         -2    1    1    2    0  503 -0.11527356006E+02 -0.17495837280E+02  0.47895475305E+03  0.47941280723E+03  0.00000000000E+00 0.  1.
<mgrwt>
<rscale>  2 0.20951951E+02</rscale>
<asrwt>0</asrwt>
<pdfrwt beam="1">  1       21 0.18405495E+00 0.20951951E+02</pdfrwt>
<pdfrwt beam="2">  1       21 0.58777692E-04 0.20951951E+02</pdfrwt>
<totfact> 0.40094866E+07</totfact>
</mgrwt>
</event>
<event>
 4    1  0.2761157E+004  0.2339145E+02  0.7546771E-02  0.1685242E+00
         21   -1    0    0  501  502  0.00000000000E+00  0.00000000000E+00  0.43331634033E+01  0.43331634033E+01  0.00000000000E+00 0. -1.
         21   -1    0    0  502  503 -0.00000000000E+00 -0.00000000000E+00 -0.31205641516E+03  0.31205641516E+03  0.00000000000E+00 0.  1.
          2    1    1    2  501    0 -0.22804475582E+02  0.52073060448E+01 -0.31799911524E+02  0.39476505871E+02  0.00000000000E+00 0. -1.
         -2    1    1    2    0  503  0.22804475582E+02 -0.52073060448E+01 -0.27592334023E+03  0.27691307269E+03  0.00000000000E+00 0.  1.
<mgrwt>
<rscale>  2 0.23391454E+02</rscale>
<asrwt>0</asrwt>
<pdfrwt beam="1">  1       21 0.66664067E-03 0.23391454E+02</pdfrwt>
<pdfrwt beam="2">  1       21 0.48008668E-01 0.23391454E+02</pdfrwt>
<totfact> 0.22816425E+07</totfact>
</mgrwt>
</event>
<event>
 4    1  0.2761157E+004  0.5839190E+02  0.7546771E-02  0.1404707E+00
         21   -1    0    0  503  502  0.00000000000E+00  0.00000000000E+00  0.41414729190E+02  0.41414729190E+02  0.00000000000E+00 0. -1.
         21   -1    0    0  501  503 -0.00000000000E+00 -0.00000000000E+00 -0.27423238996E+03  0.27423238996E+03  0.00000000000E+00 0.  1.
          2    1    1    2  501    0 -0.58014776148E+02  0.66257202658E+01 -0.24843325927E+03  0.25520324984E+03  0.00000000000E+00 0.  1.
         -2    1    1    2    0  502  0.58014776148E+02 -0.66257202658E+01  0.15615598495E+02  0.60443869308E+02  0.00000000000E+00 0. -1.
<mgrwt>
<rscale>  2 0.58391904E+02</rscale>
<asrwt>0</asrwt>
<pdfrwt beam="1">  1       21 0.63714966E-02 0.58391904E+02</pdfrwt>
<pdfrwt beam="2">  1       21 0.42189600E-01 0.58391904E+02</pdfrwt>
<totfact> 0.94998129E+05</totfact>
</mgrwt>
</event>
<event>
 4    1  0.2761157E+004  0.2113936E+02  0.7546771E-02  0.1723576E+00
         21   -1    0    0  503  502  0.00000000000E+00  0.00000000000E+00  0.98669546081E+02  0.98669546081E+02  0.00000000000E+00 0. -1.
         21   -1    0    0  501  503 -0.00000000000E+00 -0.00000000000E+00 -0.24515434775E+02  0.24515434775E+02  0.00000000000E+00 0.  1.
          2    1    1    2  501    0 -0.16000407627E+02  0.13815195162E+02 -0.18535879719E+02  0.28114969297E+02  0.00000000000E+00 0.  1.
         -2    1    1    2    0  502  0.16000407627E+02 -0.13815195162E+02  0.92689991025E+02  0.95070011559E+02  0.00000000000E+00 0. -1.
<mgrwt>
<rscale>  2 0.21139363E+02</rscale>
<asrwt>0</asrwt>
<pdfrwt beam="1">  1       21 0.15179930E-01 0.21139363E+02</pdfrwt>
<pdfrwt beam="2">  1       21 0.37716054E-02 0.21139363E+02</pdfrwt>
<totfact> 0.12704890E+07</totfact>
</mgrwt>
</event>
<event>
 4    1  0.2761157E+004  0.2348038E+02  0.7546771E-02  0.1683840E+00
         21   -1    0    0  503  502  0.00000000000E+00  0.00000000000E+00  0.12730758445E+04  0.12730758445E+04  0.00000000000E+00 0.  1.
         21   -1    0    0  501  503 -0.00000000000E+00 -0.00000000000E+00 -0.11377500330E+01  0.11377500330E+01  0.00000000000E+00 0. -1.
          2    1    1    2  501    0 -0.23415197928E+02  0.17483506258E+01  0.13456774855E+03  0.13660090473E+03  0.00000000000E+00 0. -1.
         -2    1    1    2    0  502  0.23415197928E+02 -0.17483506258E+01  0.11373703460E+04  0.11376126898E+04  0.00000000000E+00 0.  1.
<mgrwt>
<rscale>  2 0.23480380E+02</rscale>
<asrwt>0</asrwt>
<pdfrwt beam="1">  1       21 0.19585668E+00 0.23480380E+02</pdfrwt>
<pdfrwt beam="2">  1       21 0.17503948E-03 0.23480380E+02</pdfrwt>
<totfact> 0.73766360E+06</totfact>
</mgrwt>
</event>
<event>
 4    1  0.2761157E+004  0.4087916E+02  0.7546771E-02  0.1501840E+00
         21   -1    0    0  503  502  0.00000000000E+00  0.00000000000E+00  0.10350709077E+02  0.10350709077E+02  0.00000000000E+00 0.  1.
         21   -1    0    0  501  503 -0.00000000000E+00 -0.00000000000E+00 -0.29495338470E+03  0.29495338470E+03  0.00000000000E+00 0. -1.
          2    1    1    2  501    0  0.31855291803E+02  0.25619251963E+02 -0.24500232982E+03  0.24838930594E+03  0.00000000000E+00 0. -1.
         -2    1    1    2    0  502 -0.31855291803E+02 -0.25619251963E+02 -0.39600345804E+02  0.56914787839E+02  0.00000000000E+00 0.  1.
<mgrwt>
<rscale>  2 0.40879160E+02</rscale>
<asrwt>0</asrwt>
<pdfrwt beam="1">  1       21 0.15924168E-02 0.40879160E+02</pdfrwt>
<pdfrwt beam="2">  1       21 0.45377443E-01 0.40879160E+02</pdfrwt>
<totfact> 0.74148144E+06</totfact>
</mgrwt>
</event>
<event>
 4    1  0.2761157E+004  0.2571363E+02  0.7546771E-02  0.1650958E+00
         21   -1    0    0  503  502  0.00000000000E+00  0.00000000000E+00  0.28946899025E+02  0.28946899025E+02  0.00000000000E+00 0. -1.
         21   -1    0    0  501  503 -0.00000000000E+00 -0.00000000000E+00 -0.23720094125E+02  0.23720094125E+02  0.00000000000E+00 0.  1.
          2    1    1    2  501    0  0.16905202373E+02 -0.19375372821E+02 -0.24546549515E+01  0.25830529808E+02  0.00000000000E+00 0.  1.
         -2    1    1    2    0  502 -0.16905202373E+02  0.19375372821E+02  0.76814598517E+01  0.26836463341E+02  0.00000000000E+00 0. -1.
<mgrwt>
<rscale>  2 0.25713633E+02</rscale>
<asrwt>0</asrwt>
<pdfrwt beam="1">  1       21 0.44533691E-02 0.25713633E+02</pdfrwt>
<pdfrwt beam="2">  1       21 0.36492452E-02 0.25713633E+02</pdfrwt>
<totfact> 0.10460741E+08</totfact>
</mgrwt>
</event>
<event>
 4    1  0.2761157E+004  0.2277923E+02  0.7546771E-02  0.1695114E+00
         21   -1    0    0  501  502  0.00000000000E+00  0.00000000000E+00  0.34103931464E+03  0.34103931464E+03  0.00000000000E+00 0.  1.
         21   -1    0    0  502  503 -0.00000000000E+00 -0.00000000000E+00 -0.19593789531E+01  0.19593789531E+01  0.00000000000E+00 0. -1.
          2    1    1    2  501    0  0.22266363762E+02 -0.48064961723E+01  0.25061316783E+03  0.25164628599E+03  0.00000000000E+00 0.  1.
         -2    1    1    2    0  503 -0.22266363762E+02  0.48064961723E+01  0.88466767860E+02  0.91352407610E+02  0.00000000000E+00 0. -1.
<mgrwt>
<rscale>  2 0.22779231E+02</rscale>
<asrwt>0</asrwt>
<pdfrwt beam="1">  1       21 0.52467540E-01 0.22779231E+02</pdfrwt>
<pdfrwt beam="2">  1       21 0.30144319E-03 0.22779231E+02</pdfrwt>
<totfact> 0.61341853E+07</totfact>
</mgrwt>
</event>
<event>
 4    1  0.2761157E+004  0.3739926E+02  0.7546771E-02  0.1528271E+00
         21   -1    0    0  501  502  0.00000000000E+00  0.00000000000E+00  0.24741765539E+03  0.24741765539E+03  0.00000000000E+00 0.  1.
         21   -1    0    0  502  503 -0.00000000000E+00 -0.00000000000E+00 -0.57410895593E+01  0.57410895593E+01  0.00000000000E+00 0. -1.
          2    1    1    2  501    0 -0.14128772752E+01  0.37372566442E+02  0.13649857704E+03  0.14152938380E+03  0.00000000000E+00 0.  1.
         -2    1    1    2    0  503  0.14128772752E+01 -0.37372566442E+02  0.10517798878E+03  0.11162936114E+03  0.00000000000E+00 0. -1.
<mgrwt>
<rscale>  2 0.37399264E+02</rscale>
<asrwt>0</asrwt>
<pdfrwt beam="1">  1       21 0.38064246E-01 0.37399264E+02</pdfrwt>
<pdfrwt beam="2">  1       21 0.88324474E-03 0.37399264E+02</pdfrwt>
<totfact> 0.25445584E+07</totfact>
</mgrwt>
</event>
<event>
 4    1  0.2761157E+004  0.2518244E+02  0.7546771E-02  0.1658395E+00
         21   -1    0    0  503  502  0.00000000000E+00  0.00000000000E+00  0.51155789261E+02  0.51155789261E+02  0.00000000000E+00 0. -1.
         21   -1    0    0  501  503 -0.00000000000E+00 -0.00000000000E+00 -0.18885608399E+02  0.18885608399E+02  0.00000000000E+00 0.  1.
          2    1    1    2  501    0  0.12285464716E+02 -0.21982328696E+02 -0.43930722913E+01  0.25562756157E+02  0.00000000000E+00 0.  1.
         -2    1    1    2    0  502 -0.12285464716E+02  0.21982328696E+02  0.36663253153E+02  0.44478641503E+02  0.00000000000E+00 0. -1.
<mgrwt>
<rscale>  2 0.25182443E+02</rscale>
<asrwt>0</asrwt>
<pdfrwt beam="1">  1       21 0.78701214E-02 0.25182443E+02</pdfrwt>
<pdfrwt beam="2">  1       21 0.29054782E-02 0.25182443E+02</pdfrwt>
<totfact> 0.59403422E+07</totfact>
</mgrwt>
</event>
<event>
 4    1  0.2761157E+004  0.2535788E+02  0.7546771E-02  0.1655914E+00
         21   -1    0    0  503  502  0.00000000000E+00  0.00000000000E+00  0.30500889864E+01  0.30500889864E+01  0.00000000000E+00 0. -1.
         21   -1    0    0  501  503 -0.00000000000E+00 -0.00000000000E+00 -0.21221016322E+03  0.21221016322E+03  0.00000000000E+00 0.  1.
          2    1    1    2  501    0 -0.21431765596E+02  0.13553661027E+02 -0.11328873753E+03  0.11609203398E+03  0.00000000000E+00 0. -1.
         -2    1    1    2    0  502  0.21431765596E+02 -0.13553661027E+02 -0.95871336704E+02  0.99168218221E+02  0.00000000000E+00 0.  1.
<mgrwt>
<rscale>  2 0.25357884E+02</rscale>
<asrwt>0</asrwt>
<pdfrwt beam="1">  1       21 0.46924453E-03 0.25357884E+02</pdfrwt>
<pdfrwt beam="2">  1       21 0.32647712E-01 0.25357884E+02</pdfrwt>
<totfact> 0.80948105E+07</totfact>
</mgrwt>
</event>
<event>
 4    1  0.2761157E+004  0.2108955E+02  0.7546771E-02  0.1724491E+00
         21   -1    0    0  501  502  0.00000000000E+00  0.00000000000E+00  0.12100663955E+02  0.12100663955E+02  0.00000000000E+00 0. -1.
         21   -1    0    0  502  503 -0.00000000000E+00 -0.00000000000E+00 -0.44287236904E+02  0.44287236904E+02  0.00000000000E+00 0.  1.
          2    1    1    2  501    0  0.12484671560E+02 -0.16997124918E+02 -0.44665913012E+01  0.21557358774E+02  0.00000000000E+00 0.  1.
         -2    1    1    2    0  503 -0.12484671560E+02  0.16997124918E+02 -0.27719981647E+02  0.34830542086E+02  0.00000000000E+00 0. -1.
<mgrwt>
<rscale>  2 0.21089554E+02</rscale>
<asrwt>0</asrwt>
<pdfrwt beam="1">  1       21 0.18616406E-02 0.21089554E+02</pdfrwt>
<pdfrwt beam="2">  1       21 0.68134210E-02 0.21089554E+02</pdfrwt>
<totfact> 0.14193103E+08</totfact>
</mgrwt>
</event>
<event>
 4    1  0.2761157E+004  0.4782740E+02  0.7546771E-02  0.1457425E+00
         21   -1    0    0  501  502  0.00000000000E+00  0.00000000000E+00  0.74322298209E+02  0.74322298209E+02  0.00000000000E+00 0. -1.
         21   -1    0    0  502  503 -0.00000000000E+00 -0.00000000000E+00 -0.50917069933E+02  0.50917069933E+02  0.00000000000E+00 0.  1.
          2    1    1    2  501    0 -0.42659820901E+02 -0.21624064961E+02  0.51085124874E+02  0.69979643384E+02  0.00000000000E+00 0. -1.
         -2    1    1    2    0  503  0.42659820901E+02  0.21624064961E+02 -0.27679896597E+02  0.55259724758E+02  0.00000000000E+00 0.  1.
<mgrwt>
<rscale>  2 0.47827403E+02</rscale>
<asrwt>0</asrwt>
<pdfrwt beam="1">  1       21 0.11434200E-01 0.47827403E+02</pdfrwt>
<pdfrwt beam="2">  1       21 0.78333954E-02 0.47827403E+02</pdfrwt>
<totfact> 0.71799949E+06</totfact>
</mgrwt>
</event>
<event>
 4    1  0.2761157E+004  0.2626106E+02  0.7546771E-02  0.1643523E+00
         21   -1    0    0  501  502  0.00000000000E+00  0.00000000000E+00  0.74251292560E+03  0.74251292560E+03  0.00000000000E+00 0.  1.
         21   -1    0    0  502  503 -0.00000000000E+00 -0.00000000000E+00 -0.10664436435E+01  0.10664436435E+01  0.00000000000E+00 0. -1.
          2    1    1    2  501    0 -0.24602364172E+02 -0.91851602100E+01  0.50429412591E+03  0.50497743407E+03  0.00000000000E+00 0. -1.
         -2    1    1    2    0  503  0.24602364172E+02  0.91851602100E+01  0.23715235604E+03  0.23860193517E+03  0.00000000000E+00 0.  1.
<mgrwt>
<rscale>  2 0.26261064E+02</rscale>
<asrwt>0</asrwt>
<pdfrwt beam="1">  1       21 0.11423234E+00 0.26261064E+02</pdfrwt>
<pdfrwt beam="2">  1       21 0.16406885E-03 0.26261064E+02</pdfrwt>
<totfact> 0.29884183E+07</totfact>
</mgrwt>
</event>
<event>
 4    1  0.2761157E+004  0.2457510E+02  0.7546771E-02  0.1667181E+00
         21   -1    0    0  501  502  0.00000000000E+00  0.00000000000E+00  0.16618272462E+02  0.16618272462E+02  0.00000000000E+00 0.  1.
         21   -1    0    0  502  503 -0.00000000000E+00 -0.00000000000E+00 -0.37475197164E+02  0.37475197164E+02  0.00000000000E+00 0. -1.
          2    1    1    2  501    0  0.13442873467E+01  0.24538307351E+02 -0.57245368762E+01  0.25233033083E+02  0.00000000000E+00 0.  1.
         -2    1    1    2    0  503 -0.13442873467E+01 -0.24538307351E+02 -0.15132387825E+02  0.28860436542E+02  0.00000000000E+00 0. -1.
<mgrwt>
<rscale>  2 0.24575102E+02</rscale>
<asrwt>0</asrwt>
<pdfrwt beam="1">  1       21 0.25566573E-02 0.24575102E+02</pdfrwt>
<pdfrwt beam="2">  1       21 0.57654149E-02 0.24575102E+02</pdfrwt>
<totfact> 0.11929640E+08</totfact>
</mgrwt>
</event>
<event>
 4    1  0.2761157E+004  0.2238053E+02  0.7546771E-02  0.1701753E+00
         21   -1    0    0  503  502  0.00000000000E+00  0.00000000000E+00  0.79816093628E+01  0.79816093628E+01  0.00000000000E+00 0. -1.
         21   -1    0    0  501  503 -0.00000000000E+00 -0.00000000000E+00 -0.25503663354E+03  0.25503663354E+03  0.00000000000E+00 0.  1.
          2    1    1    2  501    0  0.22336717143E+02 -0.13996312724E+01 -0.23771623367E+03  0.23876745098E+03  0.00000000000E+00 0.  1.
         -2    1    1    2    0  502 -0.22336717143E+02  0.13996312724E+01 -0.93387905075E+01  0.24250791916E+02  0.00000000000E+00 0. -1.
<mgrwt>
<rscale>  2 0.22380525E+02</rscale>
<asrwt>0</asrwt>
<pdfrwt beam="1">  1       21 0.12279400E-02 0.22380525E+02</pdfrwt>
<pdfrwt beam="2">  1       21 0.39236402E-01 0.22380525E+02</pdfrwt>
<totfact> 0.13304292E+07</totfact>
</mgrwt>
</event>
<event>
 4    1  0.2761157E+004  0.2493805E+02  0.7546771E-02  0.1661893E+00
         21   -1    0    0  503  502  0.00000000000E+00  0.00000000000E+00  0.22301480147E+03  0.22301480147E+03  0.00000000000E+00 0. -1.
         21   -1    0    0  501  503 -0.00000000000E+00 -0.00000000000E+00 -0.28220164279E+01  0.28220164279E+01  0.00000000000E+00 0.  1.
          2    1    1    2  501    0 -0.24892255817E+02 -0.15106101350E+01  0.97814843791E+02  0.10094379629E+03  0.00000000000E+00 0. -1.
         -2    1    1    2    0  502  0.24892255817E+02  0.15106101350E+01  0.12237794125E+03  0.12489302161E+03  0.00000000000E+00 0.  1.
<mgrwt>
<rscale>  2 0.24938050E+02</rscale>
<asrwt>0</asrwt>
<pdfrwt beam="1">  1       21 0.34309956E-01 0.24938050E+02</pdfrwt>
<pdfrwt beam="2">  1       21 0.43415655E-03 0.24938050E+02</pdfrwt>
<totfact> 0.82484101E+07</totfact>
</mgrwt>
</event>
<event>
 4    1  0.2761157E+004  0.3981591E+02  0.7546771E-02  0.1509571E+00
         21   -1    0    0  503  502  0.00000000000E+00  0.00000000000E+00  0.80565242963E+02  0.80565242963E+02  0.00000000000E+00 0.  1.
         21   -1    0    0  501  503 -0.00000000000E+00 -0.00000000000E+00 -0.19850896520E+02  0.19850896520E+02  0.00000000000E+00 0. -1.
          2    1    1    2  501    0  0.56572369789E+01 -0.39411954669E+02  0.35052364181E+02  0.53046910709E+02  0.00000000000E+00 0. -1.
         -2    1    1    2    0  502 -0.56572369789E+01  0.39411954669E+02  0.25661982262E+02  0.47369228774E+02  0.00000000000E+00 0.  1.
<mgrwt>
<rscale>  2 0.39815908E+02</rscale>
<asrwt>0</asrwt>
<pdfrwt beam="1">  1       21 0.12394653E-01 0.39815908E+02</pdfrwt>
<pdfrwt beam="2">  1       21 0.30539841E-02 0.39815908E+02</pdfrwt>
<totfact> 0.28251478E+07</totfact>
</mgrwt>
</event>
<event>
 4    1  0.2761157E+004  0.3327518E+02  0.7546771E-02  0.1564473E+00
         21   -1    0    0  501  502  0.00000000000E+00  0.00000000000E+00  0.54468307375E+03  0.54468307375E+03  0.00000000000E+00 0.  1.
         21   -1    0    0  502  503 -0.00000000000E+00 -0.00000000000E+00 -0.22073722427E+01  0.22073722427E+01  0.00000000000E+00 0. -1.
          2    1    1    2  501    0 -0.26222860329E+02 -0.20484122703E+02  0.34813435466E+03  0.34972098391E+03  0.00000000000E+00 0.  1.
         -2    1    1    2    0  503  0.26222860329E+02  0.20484122703E+02  0.19434134685E+03  0.19716946209E+03  0.00000000000E+00 0. -1.
<mgrwt>
<rscale>  2 0.33275181E+02</rscale>
<asrwt>0</asrwt>
<pdfrwt beam="1">  1       21 0.83797289E-01 0.33275181E+02</pdfrwt>
<pdfrwt beam="2">  1       21 0.33959616E-03 0.33275181E+02</pdfrwt>
<totfact> 0.21256785E+07</totfact>
</mgrwt>
</event>
<event>
 4    1  0.2761157E+004  0.2097115E+02  0.7546771E-02  0.1726678E+00
         21   -1    0    0  501  502  0.00000000000E+00  0.00000000000E+00  0.28299103162E+02  0.28299103162E+02  0.00000000000E+00 0.  1.
         21   -1    0    0  502  503 -0.00000000000E+00 -0.00000000000E+00 -0.15905115795E+02  0.15905115795E+02  0.00000000000E+00 0. -1.
          2    1    1    2  501    0 -0.17017095505E+02  0.12255928210E+02  0.95422816929E+01  0.23040061970E+02  0.00000000000E+00 0.  1.
         -2    1    1    2    0  503  0.17017095505E+02 -0.12255928210E+02  0.28517056748E+01  0.21164156986E+02  0.00000000000E+00 0. -1.
<mgrwt>
<rscale>  2 0.20971154E+02</rscale>
<asrwt>0</asrwt>
<pdfrwt beam="1">  1       21 0.43537082E-02 0.20971154E+02</pdfrwt>
<pdfrwt beam="2">  1       21 0.24469409E-02 0.20971154E+02</pdfrwt>
<totfact> 0.19019494E+08</totfact>
</mgrwt>
</event>
<event>
 4    1  0.2761157E+004  0.7557818E+02  0.7546771E-02  0.1342090E+00
         21   -1    0    0  503  502  0.00000000000E+00  0.00000000000E+00  0.53169421821E+02  0.53169421821E+02  0.00000000000E+00 0. -1.
         21   -1    0    0  501  503 -0.00000000000E+00 -0.00000000000E+00 -0.10783936377E+03  0.10783936377E+03  0.00000000000E+00 0.  1.
          2    1    1    2  501    0 -0.74589360320E+02  0.12185613933E+02 -0.32286933983E+02  0.82185813653E+02  0.00000000000E+00 0.  1.
         -2    1    1    2    0  502  0.74589360320E+02 -0.12185613933E+02 -0.22383007969E+02  0.78822971941E+02  0.00000000000E+00 0. -1.
<mgrwt>
<rscale>  2 0.75578184E+02</rscale>
<asrwt>0</asrwt>
<pdfrwt beam="1">  1       21 0.81799111E-02 0.75578184E+02</pdfrwt>
<pdfrwt beam="2">  1       21 0.16590671E-01 0.75578184E+02</pdfrwt>
<totfact> 0.36182191E+06</totfact>
</mgrwt>
</event>
<event>
 4    1  0.2761157E+004  0.2815627E+02  0.7546771E-02  0.1619411E+00
         21   -1    0    0  503  502  0.00000000000E+00  0.00000000000E+00  0.11529882494E+02  0.11529882494E+02  0.00000000000E+00 0.  1.
         21   -1    0    0  501  503 -0.00000000000E+00 -0.00000000000E+00 -0.20843480876E+03  0.20843480876E+03  0.00000000000E+00 0. -1.
          2    1    1    2  501    0  0.26512619038E+02  0.94792665405E+01 -0.18848500114E+03  0.19057641805E+03  0.00000000000E+00 0. -1.
         -2    1    1    2    0  502 -0.26512619038E+02 -0.94792665405E+01 -0.84199251178E+01  0.29388273195E+02  0.00000000000E+00 0.  1.
<mgrwt>
<rscale>  2 0.28156269E+02</rscale>
<asrwt>0</asrwt>
<pdfrwt beam="1">  1       21 0.17738281E-02 0.28156269E+02</pdfrwt>
<pdfrwt beam="2">  1       21 0.32066893E-01 0.28156269E+02</pdfrwt>
<totfact> 0.11530821E+07</totfact>
</mgrwt>
</event>
<event>
 4    1  0.2761157E+004  0.2819742E+02  0.7546771E-02  0.1618913E+00
         21   -1    0    0  501  502  0.00000000000E+00  0.00000000000E+00  0.83354207738E+02  0.83354207738E+02  0.00000000000E+00 0. -1.
         21   -1    0    0  502  503 -0.00000000000E+00 -0.00000000000E+00 -0.10282742406E+02  0.10282742406E+02  0.00000000000E+00 0.  1.
          2    1    1    2  501    0 -0.13258689669E+02  0.24885770550E+02  0.49129302742E+02  0.56646119157E+02  0.00000000000E+00 0.  1.
         -2    1    1    2    0  503  0.13258689669E+02 -0.24885770550E+02  0.23942162590E+02  0.36990830987E+02  0.00000000000E+00 0. -1.
<mgrwt>
<rscale>  2 0.28197419E+02</rscale>
<asrwt>0</asrwt>
<pdfrwt beam="1">  1       21 0.12823724E-01 0.28197419E+02</pdfrwt>
<pdfrwt beam="2">  1       21 0.15819604E-02 0.28197419E+02</pdfrwt>
<totfact> 0.69355623E+07</totfact>
</mgrwt>
</event>
<event>
 4    1  0.2761157E+004  0.2020776E+02  0.7546771E-02  0.1741228E+00
         21   -1    0    0  503  502  0.00000000000E+00  0.00000000000E+00  0.13922274933E+02  0.13922274933E+02  0.00000000000E+00 0. -1.
         21   -1    0    0  501  503 -0.00000000000E+00 -0.00000000000E+00 -0.30940454738E+02  0.30940454738E+02  0.00000000000E+00 0.  1.
          2    1    1    2  501    0 -0.16051960474E+02  0.12275516364E+02 -0.33930176474E+01  0.20490639468E+02  0.00000000000E+00 0. -1.
         -2    1    1    2    0  502  0.16051960474E+02 -0.12275516364E+02 -0.13625162157E+02  0.24372090203E+02  0.00000000000E+00 0.  1.
<mgrwt>
<rscale>  2 0.20207764E+02</rscale>
<asrwt>0</asrwt>
<pdfrwt beam="1">  1       21 0.21418885E-02 0.20207764E+02</pdfrwt>
<pdfrwt beam="2">  1       21 0.47600699E-02 0.20207764E+02</pdfrwt>
<totfact> 0.20027360E+08</totfact>
</mgrwt>
</event>
<event>
 4    1  0.2761157E+004  0.2328530E+02  0.7546771E-02  0.1686927E+00
         21   -1    0    0  501  502  0.00000000000E+00  0.00000000000E+00  0.50712380114E+03  0.50712380114E+03  0.00000000000E+00 0.  1.
         21   -1    0    0  502  503 -0.00000000000E+00 -0.00000000000E+00 -0.31292616057E+01  0.31292616057E+01  0.00000000000E+00 0. -1.
          2    1    1    2  501    0 -0.48494373610E+01  0.22774726461E+02  0.45900053480E+03  0.45959079207E+03  0.00000000000E+00 0.  1.
         -2    1    1    2    0  503  0.48494373610E+01 -0.22774726461E+02  0.44994004737E+02  0.50662270679E+02  0.00000000000E+00 0. -1.
<mgrwt>
<rscale>  2 0.23285300E+02</rscale>
<asrwt>0</asrwt>
<pdfrwt beam="1">  1       21 0.78018981E-01 0.23285300E+02</pdfrwt>
<pdfrwt beam="2">  1       21 0.48142527E-03 0.23285300E+02</pdfrwt>
<totfact> 0.13918738E+07</totfact>
</mgrwt>
</event>
<event>
 4    1  0.2761157E+004  0.2323712E+02  0.7546771E-02  0.1687695E+00
         21   -1    0    0  503  502  0.00000000000E+00  0.00000000000E+00  0.13507762052E+03  0.13507762052E+03  0.00000000000E+00 0.  1.
         21   -1    0    0  501  503 -0.00000000000E+00 -0.00000000000E+00 -0.58090267755E+01  0.58090267755E+01  0.00000000000E+00 0. -1.
          2    1    1    2  501    0  0.14896265651E+02  0.17834371881E+02  0.25295712687E+02  0.34348750066E+02  0.00000000000E+00 0. -1.
         -2    1    1    2    0  502 -0.14896265651E+02 -0.17834371881E+02  0.10397288106E+03  0.10653789723E+03  0.00000000000E+00 0.  1.
<mgrwt>
<rscale>  2 0.23237116E+02</rscale>
<asrwt>0</asrwt>
<pdfrwt beam="1">  1       21 0.20781170E-01 0.23237116E+02</pdfrwt>
<pdfrwt beam="2">  1       21 0.89369653E-03 0.23237116E+02</pdfrwt>
<totfact> 0.68363509E+07</totfact>
</mgrwt>
</event>
<event>
 4    1  0.2761157E+004  0.2095198E+02  0.7546771E-02  0.1727034E+00
         21   -1    0    0  503  502  0.00000000000E+00  0.00000000000E+00  0.31665065068E+02  0.31665065068E+02  0.00000000000E+00 0. -1.
         21   -1    0    0  501  503 -0.00000000000E+00 -0.00000000000E+00 -0.16095010311E+02  0.16095010311E+02  0.00000000000E+00 0.  1.
          2    1    1    2  501    0  0.87503720406E+01  0.19037238515E+02 -0.11069543981E+01  0.20981201328E+02  0.00000000000E+00 0.  1.
         -2    1    1    2    0  502 -0.87503720406E+01 -0.19037238515E+02  0.16677009155E+02  0.26778874051E+02  0.00000000000E+00 0. -1.
<mgrwt>
<rscale>  2 0.20951980E+02</rscale>
<asrwt>0</asrwt>
<pdfrwt beam="1">  1       21 0.48715485E-02 0.20951980E+02</pdfrwt>
<pdfrwt beam="2">  1       21 0.24761554E-02 0.20951980E+02</pdfrwt>
<totfact> 0.15632147E+08</totfact>
</mgrwt>
</event>
<event>
 4    1  0.2761157E+004  0.2658392E+02  0.7546771E-02  0.1639241E+00
         21   -1    0    0  501  502  0.00000000000E+00  0.00000000000E+00  0.34863006020E+01  0.34863006020E+01  0.00000000000E+00 0.  1.
         21   -1    0    0  502  503 -0.00000000000E+00 -0.00000000000E+00 -0.24857107095E+03  0.24857107095E+03  0.00000000000E+00 0. -1.
          2    1    1    2  501    0  0.26485227967E+02  0.22885947704E+01 -0.68408359446E+02  0.73392156315E+02  0.00000000000E+00 0.  1.
         -2    1    1    2    0  503 -0.26485227967E+02 -0.22885947704E+01 -0.17667641090E+03  0.17866521523E+03  0.00000000000E+00 0. -1.
<mgrwt>
<rscale>  2 0.26583923E+02</rscale>
<asrwt>0</asrwt>
<pdfrwt beam="1">  1       21 0.53635367E-03 0.26583923E+02</pdfrwt>
<pdfrwt beam="2">  1       21 0.38241722E-01 0.26583923E+02</pdfrwt>
<totfact> 0.49995202E+07</totfact>
</mgrwt>
</event>
<event>
 4    1  0.2761157E+004  0.2612406E+02  0.7546771E-02  0.1645362E+00
         21   -1    0    0  501  502  0.00000000000E+00  0.00000000000E+00  0.23560560997E+01  0.23560560997E+01  0.00000000000E+00 0.  1.
         21   -1    0    0  502  503 -0.00000000000E+00 -0.00000000000E+00 -0.39713768037E+03  0.39713768037E+03  0.00000000000E+00 0. -1.
          2    1    1    2  501    0  0.11702707976E+01  0.26097830672E+02 -0.93480400829E+02  0.97062101969E+02  0.00000000000E+00 0.  1.
         -2    1    1    2    0  503 -0.11702707976E+01 -0.26097830672E+02 -0.30130122344E+03  0.30243163450E+03  0.00000000000E+00 0. -1.
<mgrwt>
<rscale>  2 0.26124056E+02</rscale>
<asrwt>0</asrwt>
<pdfrwt beam="1">  1       21 0.36247047E-03 0.26124056E+02</pdfrwt>
<pdfrwt beam="2">  1       21 0.61098054E-01 0.26124056E+02</pdfrwt>
<totfact> 0.35684756E+07</totfact>
</mgrwt>
</event>
<event>
 4    1  0.2761157E+004  0.2215675E+02  0.7546771E-02  0.1705555E+00
         21   -1    0    0  503  502  0.00000000000E+00  0.00000000000E+00  0.14507784593E+01  0.14507784593E+01  0.00000000000E+00 0.  1.
         21   -1    0    0  501  503 -0.00000000000E+00 -0.00000000000E+00 -0.38720690639E+03  0.38720690639E+03  0.00000000000E+00 0. -1.
          2    1    1    2  501    0 -0.12944371330E+02  0.17982345519E+02 -0.26188195848E+03  0.26281758251E+03  0.00000000000E+00 0. -1.
         -2    1    1    2    0  502  0.12944371330E+02 -0.17982345519E+02 -0.12387416945E+03  0.12584010234E+03  0.00000000000E+00 0.  1.
<mgrwt>
<rscale>  2 0.22156748E+02</rscale>
<asrwt>0</asrwt>
<pdfrwt beam="1">  1       21 0.22319643E-03 0.22156748E+02</pdfrwt>
<pdfrwt beam="2">  1       21 0.59570361E-01 0.22156748E+02</pdfrwt>
<totfact> 0.73336423E+07</totfact>
</mgrwt>
</event>
<event>
 4    1  0.2761157E+004  0.2644592E+02  0.7546771E-02  0.1641062E+00
         21   -1    0    0  501  502  0.00000000000E+00  0.00000000000E+00  0.28815021706E+01  0.28815021706E+01  0.00000000000E+00 0.  1.
         21   -1    0    0  502  503 -0.00000000000E+00 -0.00000000000E+00 -0.24305120674E+03  0.24305120674E+03  0.00000000000E+00 0. -1.
          2    1    1    2  501    0 -0.10229999927E+02 -0.24387163915E+02 -0.12465150457E+03  0.12742599521E+03  0.00000000000E+00 0. -1.
         -2    1    1    2    0  503  0.10229999927E+02  0.24387163915E+02 -0.11551820000E+03  0.11850671370E+03  0.00000000000E+00 0.  1.
<mgrwt>
<rscale>  2 0.26445920E+02</rscale>
<asrwt>0</asrwt>
<pdfrwt beam="1">  1       21 0.44330805E-03 0.26445920E+02</pdfrwt>
<pdfrwt beam="2">  1       21 0.37392491E-01 0.26445920E+02</pdfrwt>
<totfact> 0.69073837E+07</totfact>
</mgrwt>
</event>
<event>
 4    1  0.2761157E+004  0.3356644E+02  0.7546771E-02  0.1561712E+00
         21   -1    0    0  503  502  0.00000000000E+00  0.00000000000E+00  0.14931791823E+02  0.14931791823E+02  0.00000000000E+00 0. -1.
         21   -1    0    0  501  503 -0.00000000000E+00 -0.00000000000E+00 -0.93123928184E+02  0.93123928184E+02  0.00000000000E+00 0.  1.
          2    1    1    2  501    0 -0.27362090228E+02  0.19442792715E+02 -0.62628636473E+02  0.71056683547E+02  0.00000000000E+00 0.  1.
         -2    1    1    2    0  502  0.27362090228E+02 -0.19442792715E+02 -0.15563499888E+02  0.36999036460E+02  0.00000000000E+00 0. -1.
<mgrwt>
<rscale>  2 0.33566444E+02</rscale>
<asrwt>0</asrwt>
<pdfrwt beam="1">  1       21 0.22971987E-02 0.33566444E+02</pdfrwt>
<pdfrwt beam="2">  1       21 0.14326758E-01 0.33566444E+02</pdfrwt>
<totfact> 0.33443172E+07</totfact>
</mgrwt>
</event>
<event>
 4    1  0.2761157E+004  0.2298850E+02  0.7546771E-02  0.1691697E+00
         21   -1    0    0  501  502  0.00000000000E+00  0.00000000000E+00  0.79696973961E+02  0.79696973961E+02  0.00000000000E+00 0. -1.
         21   -1    0    0  502  503 -0.00000000000E+00 -0.00000000000E+00 -0.70917749923E+01  0.70917749923E+01  0.00000000000E+00 0.  1.
          2    1    1    2  501    0  0.60237320861E+01  0.22185259890E+02  0.47363681889E+02  0.52647786912E+02  0.00000000000E+00 0. -1.
         -2    1    1    2    0  503 -0.60237320861E+01 -0.22185259890E+02  0.25241517079E+02  0.34140962041E+02  0.00000000000E+00 0.  1.
<mgrwt>
<rscale>  2 0.22988499E+02</rscale>
<asrwt>0</asrwt>
<pdfrwt beam="1">  1       21 0.12261072E-01 0.22988499E+02</pdfrwt>
<pdfrwt beam="2">  1       21 0.10910424E-02 0.22988499E+02</pdfrwt>
<totfact> 0.12467892E+08</totfact>
</mgrwt>
</event>
<event>
 4    1  0.2761157E+004  0.2026348E+02  0.7546771E-02  0.1740139E+00
         21   -1    0    0  503  502  0.00000000000E+00  0.00000000000E+00  0.13893638006E+03  0.13893638006E+03  0.00000000000E+00 0.  1.
         21   -1    0    0  501  503 -0.00000000000E+00 -0.00000000000E+00 -0.38649819318E+01  0.38649819318E+01  0.00000000000E+00 0. -1.
          2    1    1    2  501    0  0.11894674384E+02 -0.16405041029E+02  0.32897422033E+02  0.38637404497E+02  0.00000000000E+00 0.  1.
         -2    1    1    2    0  502 -0.11894674384E+02  0.16405041029E+02  0.10217397610E+03  0.10416395750E+03  0.00000000000E+00 0. -1.
<mgrwt>
<rscale>  2 0.20263481E+02</rscale>
<asrwt>0</asrwt>
<pdfrwt beam="1">  1       21 0.21374824E-01 0.20263481E+02</pdfrwt>
<pdfrwt beam="2">  1       21 0.59461271E-03 0.20263481E+02</pdfrwt>
<totfact> 0.11481978E+08</totfact>
</mgrwt>
</event>
<event>
 4    1  0.2761157E+004  0.2017960E+02  0.7546771E-02  0.1741780E+00
         21   -1    0    0  501  502  0.00000000000E+00  0.00000000000E+00  0.22460305118E+02  0.22460305118E+02  0.00000000000E+00 0. -1.
         21   -1    0    0  502  503 -0.00000000000E+00 -0.00000000000E+00 -0.30918248818E+02  0.30918248818E+02  0.00000000000E+00 0.  1.
          2    1    1    2  501    0  0.29901095071E+01 -0.19956844187E+02  0.12935345957E+02  0.23969554852E+02  0.00000000000E+00 0. -1.
         -2    1    1    2    0  503 -0.29901095071E+01  0.19956844187E+02 -0.21393289657E+02  0.29408999084E+02  0.00000000000E+00 0.  1.
<mgrwt>
<rscale>  2 0.20179603E+02</rscale>
<asrwt>0</asrwt>
<pdfrwt beam="1">  1       21 0.34554316E-02 0.20179603E+02</pdfrwt>
<pdfrwt beam="2">  1       21 0.47566537E-02 0.20179603E+02</pdfrwt>
<totfact> 0.95779464E+07</totfact>
</mgrwt>
</event>
<event>
 4    1  0.2761157E+004  0.2787802E+02  0.7546771E-02  0.1622803E+00
         21   -1    0    0  503  502  0.00000000000E+00  0.00000000000E+00  0.63377100301E+01  0.63377100301E+01  0.00000000000E+00 0.  1.
         21   -1    0    0  501  503 -0.00000000000E+00 -0.00000000000E+00 -0.18474762808E+03  0.18474762808E+03  0.00000000000E+00 0. -1.
          2    1    1    2  501    0  0.10178176702E+02 -0.25953582950E+02 -0.14460635125E+03  0.14726907541E+03  0.00000000000E+00 0. -1.
         -2    1    1    2    0  502 -0.10178176702E+02  0.25953582950E+02 -0.33803566794E+02  0.43816262699E+02  0.00000000000E+00 0.  1.
<mgrwt>
<rscale>  2 0.27878016E+02</rscale>
<asrwt>0</asrwt>
<pdfrwt beam="1">  1       21 0.97503231E-03 0.27878016E+02</pdfrwt>
<pdfrwt beam="2">  1       21 0.28422712E-01 0.27878016E+02</pdfrwt>
<totfact> 0.35763984E+07</totfact>
</mgrwt>
</event>
<event>
 4    1  0.2761157E+004  0.2797239E+02  0.7546771E-02  0.1621647E+00
         21   -1    0    0  503  502  0.00000000000E+00  0.00000000000E+00  0.56359167990E+03  0.56359167990E+03  0.00000000000E+00 0. -1.
         21   -1    0    0  501  503 -0.00000000000E+00 -0.00000000000E+00 -0.13924977631E+01  0.13924977631E+01  0.00000000000E+00 0.  1.
          2    1    1    2  501    0  0.29576934723E+01  0.27815582453E+02  0.26565588685E+03  0.26712451178E+03  0.00000000000E+00 0.  1.
         -2    1    1    2    0  502 -0.29576934723E+01 -0.27815582453E+02  0.29654329529E+03  0.29785966588E+03  0.00000000000E+00 0. -1.
<mgrwt>
<rscale>  2 0.27972390E+02</rscale>
<asrwt>0</asrwt>
<pdfrwt beam="1">  1       21 0.86706230E-01 0.27972390E+02</pdfrwt>
<pdfrwt beam="2">  1       21 0.21423088E-03 0.27972390E+02</pdfrwt>
<totfact> 0.37689461E+07</totfact>
</mgrwt>
</event>
<event>
 4    1  0.2761157E+004  0.3077583E+02  0.7546771E-02  0.1589668E+00
         21   -1    0    0  503  502  0.00000000000E+00  0.00000000000E+00  0.41838180779E+02  0.41838180779E+02  0.00000000000E+00 0.  1.
         21   -1    0    0  501  503 -0.00000000000E+00 -0.00000000000E+00 -0.30089380706E+02  0.30089380706E+02  0.00000000000E+00 0. -1.
          2    1    1    2  501    0 -0.30750696580E+02 -0.12435583056E+01 -0.12021923807E+02  0.33040557342E+02  0.00000000000E+00 0. -1.
         -2    1    1    2    0  502  0.30750696580E+02  0.12435583056E+01  0.23770723881E+02  0.38887004143E+02  0.00000000000E+00 0.  1.
<mgrwt>
<rscale>  2 0.30775831E+02</rscale>
<asrwt>0</asrwt>
<pdfrwt beam="1">  1       21 0.64366432E-02 0.30775831E+02</pdfrwt>
<pdfrwt beam="2">  1       21 0.46291355E-02 0.30775831E+02</pdfrwt>
<totfact> 0.41366487E+07</totfact>
</mgrwt>
</event>
<event>
 4    1  0.2761157E+004  0.2642348E+02  0.7546771E-02  0.1641359E+00
         21   -1    0    0  501  502  0.00000000000E+00  0.00000000000E+00  0.14088643714E+02  0.14088643714E+02  0.00000000000E+00 0. -1.
         21   -1    0    0  502  503 -0.00000000000E+00 -0.00000000000E+00 -0.54299157508E+02  0.54299157508E+02  0.00000000000E+00 0.  1.
          2    1    1    2  501    0  0.21229094547E+01 -0.26338060993E+02 -0.10000871396E+02  0.28252745532E+02  0.00000000000E+00 0. -1.
         -2    1    1    2    0  503 -0.21229094547E+01  0.26338060993E+02 -0.30209642398E+02  0.40135055690E+02  0.00000000000E+00 0.  1.
<mgrwt>
<rscale>  2 0.26423478E+02</rscale>
<asrwt>0</asrwt>
<pdfrwt beam="1">  1       21 0.21674836E-02 0.26423478E+02</pdfrwt>
<pdfrwt beam="2">  1       21 0.83537165E-02 0.26423478E+02</pdfrwt>
<totfact> 0.85950604E+07</totfact>
</mgrwt>
</event>
<event>
 4    1  0.2761157E+004  0.2766577E+02  0.7546771E-02  0.1625423E+00
         21   -1    0    0  503  502  0.00000000000E+00  0.00000000000E+00  0.53458580252E+00  0.53458580252E+00  0.00000000000E+00 0. -1.
         21   -1    0    0  501  503 -0.00000000000E+00 -0.00000000000E+00 -0.17955414327E+04  0.17955414327E+04  0.00000000000E+00 0.  1.
          2    1    1    2  501    0  0.23559971713E+02 -0.14502507077E+02 -0.13017266608E+04  0.13020206198E+04  0.00000000000E+00 0. -1.
         -2    1    1    2    0  502 -0.23559971713E+02  0.14502507077E+02 -0.49328018606E+03  0.49405539865E+03  0.00000000000E+00 0.  1.
<mgrwt>
<rscale>  2 0.27665773E+02</rscale>
<asrwt>0</asrwt>
<pdfrwt beam="1">  1       21 0.82244123E-04 0.27665773E+02</pdfrwt>
<pdfrwt beam="2">  1       21 0.27623663E+00 0.27665773E+02</pdfrwt>
<totfact> 0.84217350E+06</totfact>
</mgrwt>
</event>
<event>
 4    1  0.2761157E+004  0.2231715E+02  0.7546771E-02  0.1702824E+00
         21   -1    0    0  501  502  0.00000000000E+00  0.00000000000E+00  0.12490851273E+03  0.12490851273E+03  0.00000000000E+00 0. -1.
         21   -1    0    0  502  503 -0.00000000000E+00 -0.00000000000E+00 -0.85053080834E+01  0.85053080834E+01  0.00000000000E+00 0.  1.
          2    1    1    2  501    0  0.13818478305E+02  0.17524402467E+02  0.10681953523E+03  0.10912592786E+03  0.00000000000E+00 0. -1.
         -2    1    1    2    0  503 -0.13818478305E+02 -0.17524402467E+02  0.95836694112E+01  0.24287892948E+02  0.00000000000E+00 0.  1.
<mgrwt>
<rscale>  2 0.22317146E+02</rscale>
<asrwt>0</asrwt>
<pdfrwt beam="1">  1       21 0.19216693E-01 0.22317146E+02</pdfrwt>
<pdfrwt beam="2">  1       21 0.13085090E-02 0.22317146E+02</pdfrwt>
<totfact> 0.43696500E+07</totfact>
</mgrwt>
</event>
<event>
 4    1  0.2761157E+004  0.2216860E+02  0.7546771E-02  0.1705352E+00
         21   -1    0    0  503  502  0.00000000000E+00  0.00000000000E+00  0.87055569171E+02  0.87055569171E+02  0.00000000000E+00 0.  1.
         21   -1    0    0  501  503 -0.00000000000E+00 -0.00000000000E+00 -0.85849989709E+01  0.85849989709E+01  0.00000000000E+00 0. -1.
          2    1    1    2  501    0 -0.15104534868E+02 -0.16226516702E+02  0.11251900921E+02  0.24860653495E+02  0.00000000000E+00 0. -1.
         -2    1    1    2    0  502  0.15104534868E+02  0.16226516702E+02  0.67218669279E+02  0.70779914647E+02  0.00000000000E+00 0.  1.
<mgrwt>
<rscale>  2 0.22168600E+02</rscale>
<asrwt>0</asrwt>
<pdfrwt beam="1">  1       21 0.13393164E-01 0.22168600E+02</pdfrwt>
<pdfrwt beam="2">  1       21 0.13207691E-02 0.22168600E+02</pdfrwt>
<totfact> 0.79732915E+07</totfact>
</mgrwt>
</event>
<event>
 4    1  0.2761157E+004  0.2144533E+02  0.7546771E-02  0.1718025E+00
         21   -1    0    0  501  502  0.00000000000E+00  0.00000000000E+00  0.19710772507E+03  0.19710772507E+03  0.00000000000E+00 0. -1.
         21   -1    0    0  502  503 -0.00000000000E+00 -0.00000000000E+00 -0.54572321854E+01  0.54572321854E+01  0.00000000000E+00 0.  1.
          2    1    1    2  501    0 -0.21436862189E+02  0.60257220247E+00  0.17245583903E+03  0.17378411484E+03  0.00000000000E+00 0. -1.
         -2    1    1    2    0  503  0.21436862189E+02 -0.60257220247E+00  0.19194653853E+02  0.28780842418E+02  0.00000000000E+00 0.  1.
<mgrwt>
<rscale>  2 0.21445329E+02</rscale>
<asrwt>0</asrwt>
<pdfrwt beam="1">  1       21 0.30324260E-01 0.21445329E+02</pdfrwt>
<pdfrwt beam="2">  1       21 0.83957433E-03 0.21445329E+02</pdfrwt>
<totfact> 0.37507690E+07</totfact>
</mgrwt>
</event>
<event>
 4    1  0.2761157E+004  0.2013976E+02  0.7546771E-02  0.1742563E+00
         21   -1    0    0  501  502  0.00000000000E+00  0.00000000000E+00  0.95202739356E+02  0.95202739356E+02  0.00000000000E+00 0. -1.
         21   -1    0    0  502  503 -0.00000000000E+00 -0.00000000000E+00 -0.17145498318E+02  0.17145498318E+02  0.00000000000E+00 0.  1.
          2    1    1    2  501    0  0.75812020317E+01  0.18658383393E+02  0.87725781111E+02  0.90007902801E+02  0.00000000000E+00 0. -1.
         -2    1    1    2    0  503 -0.75812020317E+01 -0.18658383393E+02 -0.96685400740E+01  0.22340334873E+02  0.00000000000E+00 0.  1.
<mgrwt>
<rscale>  2 0.20139759E+02</rscale>
<asrwt>0</asrwt>
<pdfrwt beam="1">  1       21 0.14646575E-01 0.20139759E+02</pdfrwt>
<pdfrwt beam="2">  1       21 0.26377690E-02 0.20139759E+02</pdfrwt>
<totfact> 0.23276200E+07</totfact>
</mgrwt>
</event>
<event>
 4    1  0.2761157E+004  0.2532559E+02  0.7546771E-02  0.1656369E+00
         21   -1    0    0  503  502  0.00000000000E+00  0.00000000000E+00  0.69064997761E+01  0.69064997761E+01  0.00000000000E+00 0.  1.
         21   -1    0    0  501  503 -0.00000000000E+00 -0.00000000000E+00 -0.97538744352E+02  0.97538744352E+02  0.00000000000E+00 0. -1.
          2    1    1    2  501    0 -0.23354386683E+02 -0.97958241140E+01 -0.56745224063E+02  0.62140212434E+02  0.00000000000E+00 0. -1.
         -2    1    1    2    0  502  0.23354386683E+02  0.97958241140E+01 -0.33887020513E+02  0.42305031694E+02  0.00000000000E+00 0.  1.
<mgrwt>
<rscale>  2 0.25325591E+02</rscale>
<asrwt>0</asrwt>
<pdfrwt beam="1">  1       21 0.10625384E-02 0.25325591E+02</pdfrwt>
<pdfrwt beam="2">  1       21 0.15005961E-01 0.25325591E+02</pdfrwt>
<totfact> 0.94662691E+07</totfact>
</mgrwt>
</event>
<event>
 4    1  0.2761157E+004  0.2402819E+02  0.7546771E-02  0.1675366E+00
         21   -1    0    0  503  502  0.00000000000E+00  0.00000000000E+00  0.70898534471E+02  0.70898534471E+02  0.00000000000E+00 0.  1.
         21   -1    0    0  501  503 -0.00000000000E+00 -0.00000000000E+00 -0.23625040327E+02  0.23625040327E+02  0.00000000000E+00 0. -1.
          2    1    1    2  501    0  0.23567623981E+02  0.46819712474E+01 -0.14622165413E+02  0.28127592791E+02  0.00000000000E+00 0. -1.
         -2    1    1    2    0  502 -0.23567623981E+02 -0.46819712474E+01  0.61895659556E+02  0.66395982007E+02  0.00000000000E+00 0.  1.
<mgrwt>
<rscale>  2 0.24028187E+02</rscale>
<asrwt>0</asrwt>
<pdfrwt beam="1">  1       21 0.10907467E-01 0.24028187E+02</pdfrwt>
<pdfrwt beam="2">  1       21 0.36346216E-02 0.24028187E+02</pdfrwt>
<totfact> 0.24138651E+07</totfact>
</mgrwt>
</event>
<event>
 4    1  0.2761157E+004  0.2097267E+02  0.7546771E-02  0.1726650E+00
         21   -1    0    0  503  502  0.00000000000E+00  0.00000000000E+00  0.29552540335E+00  0.29552540335E+00  0.00000000000E+00 0.  1.
         21   -1    0    0  501  503 -0.00000000000E+00 -0.00000000000E+00 -0.14947507120E+04  0.14947507120E+04  0.00000000000E+00 0. -1.
          2    1    1    2  501    0 -0.18294117011E+02 -0.10255635281E+02 -0.79604641575E+03  0.79632264115E+03  0.00000000000E+00 0. -1.
         -2    1    1    2    0  502  0.18294117011E+02  0.10255635281E+02 -0.69840877085E+03  0.69872359626E+03  0.00000000000E+00 0.  1.
<mgrwt>
<rscale>  2 0.20972667E+02</rscale>
<asrwt>0</asrwt>
<pdfrwt beam="1">  1       21 0.45464917E-04 0.20972667E+02</pdfrwt>
<pdfrwt beam="2">  1       21 0.22996433E+00 0.20972667E+02</pdfrwt>
<totfact> 0.32350395E+07</totfact>
</mgrwt>
</event>
<event>
 4    1  0.2761157E+004  0.2264718E+02  0.7546771E-02  0.1697294E+00
         21   -1    0    0  503  502  0.00000000000E+00  0.00000000000E+00  0.25359359032E+03  0.25359359032E+03  0.00000000000E+00 0. -1.
         21   -1    0    0  501  503 -0.00000000000E+00 -0.00000000000E+00 -0.12660231550E+02  0.12660231550E+02  0.00000000000E+00 0.  1.
          2    1    1    2  501    0  0.16570782724E+02  0.15437094130E+02 -0.15641065853E+01  0.22701126507E+02  0.00000000000E+00 0.  1.
         -2    1    1    2    0  502 -0.16570782724E+02 -0.15437094130E+02  0.24249746535E+03  0.24355269536E+03  0.00000000000E+00 0. -1.
<mgrwt>
<rscale>  2 0.22647179E+02</rscale>
<asrwt>0</asrwt>
<pdfrwt beam="1">  1       21 0.39014395E-01 0.22647179E+02</pdfrwt>
<pdfrwt beam="2">  1       21 0.19477281E-02 0.22647179E+02</pdfrwt>
<totfact> 0.66824992E+06</totfact>
</mgrwt>
</event>
<event>
 4    1  0.2761157E+004  0.2197708E+02  0.7546771E-02  0.1708649E+00
         21   -1    0    0  503  502  0.00000000000E+00  0.00000000000E+00  0.30920242475E+02  0.30920242475E+02  0.00000000000E+00 0.  1.
         21   -1    0    0  501  503 -0.00000000000E+00 -0.00000000000E+00 -0.18288455919E+02  0.18288455919E+02  0.00000000000E+00 0. -1.
          2    1    1    2  501    0  0.14325232245E+02  0.16666721355E+02 -0.30814872204E+01  0.22192058108E+02  0.00000000000E+00 0.  1.
         -2    1    1    2    0  502 -0.14325232245E+02 -0.16666721355E+02  0.15713273776E+02  0.27016640286E+02  0.00000000000E+00 0. -1.
<mgrwt>
<rscale>  2 0.21977076E+02</rscale>
<asrwt>0</asrwt>
<pdfrwt beam="1">  1       21 0.47569604E-02 0.21977076E+02</pdfrwt>
<pdfrwt beam="2">  1       21 0.28136086E-02 0.21977076E+02</pdfrwt>
<totfact> 0.13521517E+08</totfact>
</mgrwt>
</event>
<event>
 4    1  0.2761157E+004  0.2228611E+02  0.7546771E-02  0.1703350E+00
         21   -1    0    0  501  502  0.00000000000E+00  0.00000000000E+00  0.47884977244E+02  0.47884977244E+02  0.00000000000E+00 0.  1.
         21   -1    0    0  502  503 -0.00000000000E+00 -0.00000000000E+00 -0.11467343733E+02  0.11467343733E+02  0.00000000000E+00 0. -1.
          2    1    1    2  501    0 -0.17322379426E+02 -0.14021623533E+02  0.27379872491E+02  0.35303373396E+02  0.00000000000E+00 0.  1.
         -2    1    1    2    0  503  0.17322379426E+02  0.14021623533E+02  0.90377610198E+01  0.24048947581E+02  0.00000000000E+00 0. -1.
<mgrwt>
<rscale>  2 0.22286111E+02</rscale>
<asrwt>0</asrwt>
<pdfrwt beam="1">  1       21 0.73669195E-02 0.22286111E+02</pdfrwt>
<pdfrwt beam="2">  1       21 0.17642067E-02 0.22286111E+02</pdfrwt>
<totfact> 0.13808208E+08</totfact>
</mgrwt>
</event>
<event>
 4    1  0.2761157E+004  0.3189393E+02  0.7546771E-02  0.1578050E+00
         21   -1    0    0  503  502  0.00000000000E+00  0.00000000000E+00  0.69428087348E+02  0.69428087348E+02  0.00000000000E+00 0. -1.
         21   -1    0    0  501  503 -0.00000000000E+00 -0.00000000000E+00 -0.15247995202E+02  0.15247995202E+02  0.00000000000E+00 0.  1.
          2    1    1    2  501    0 -0.31666974005E+02  0.37980812200E+01  0.18715845159E+02  0.36979798858E+02  0.00000000000E+00 0.  1.
         -2    1    1    2    0  502  0.31666974005E+02 -0.37980812200E+01  0.35464246988E+02  0.47696283692E+02  0.00000000000E+00 0. -1.
<mgrwt>
<rscale>  2 0.31893928E+02</rscale>
<asrwt>0</asrwt>
<pdfrwt beam="1">  1       21 0.10681244E-01 0.31893928E+02</pdfrwt>
<pdfrwt beam="2">  1       21 0.23458455E-02 0.31893928E+02</pdfrwt>
<totfact> 0.52795994E+07</totfact>
</mgrwt>
</event>
<event>
 4    1  0.2761157E+004  0.2156648E+02  0.7546771E-02  0.1715859E+00
         21   -1    0    0  503  502  0.00000000000E+00  0.00000000000E+00  0.28904763730E+03  0.28904763730E+03  0.00000000000E+00 0.  1.
         21   -1    0    0  501  503 -0.00000000000E+00 -0.00000000000E+00 -0.16520453832E+01  0.16520453832E+01  0.00000000000E+00 0. -1.
          2    1    1    2  501    0  0.12232350571E+02 -0.17761829771E+02  0.12026904917E+03  0.12218738554E+03  0.00000000000E+00 0. -1.
         -2    1    1    2    0  502 -0.12232350571E+02  0.17761829771E+02  0.16712654276E+03  0.16851229715E+03  0.00000000000E+00 0.  1.
<mgrwt>
<rscale>  2 0.21566479E+02</rscale>
<asrwt>0</asrwt>
<pdfrwt beam="1">  1       21 0.44468827E-01 0.21566479E+02</pdfrwt>
<pdfrwt beam="2">  1       21 0.25416106E-03 0.21566479E+02</pdfrwt>
<totfact> 0.10666333E+08</totfact>
</mgrwt>
</event>
<event>
 4    1  0.2761157E+004  0.2535570E+02  0.7546771E-02  0.1655945E+00
         21   -1    0    0  501  502  0.00000000000E+00  0.00000000000E+00  0.80052417688E+02  0.80052417688E+02  0.00000000000E+00 0.  1.
         21   -1    0    0  502  503 -0.00000000000E+00 -0.00000000000E+00 -0.80322231368E+01  0.80322231368E+01  0.00000000000E+00 0. -1.
          2    1    1    2  501    0  0.16891632368E+02 -0.18909903030E+02  0.36523000538E+02  0.44461682885E+02  0.00000000000E+00 0. -1.
         -2    1    1    2    0  503 -0.16891632368E+02  0.18909903030E+02  0.35497194013E+02  0.43622957940E+02  0.00000000000E+00 0.  1.
<mgrwt>
<rscale>  2 0.25355703E+02</rscale>
<asrwt>0</asrwt>
<pdfrwt beam="1">  1       21 0.12315756E-01 0.25355703E+02</pdfrwt>
<pdfrwt beam="2">  1       21 0.12357267E-02 0.25355703E+02</pdfrwt>
<totfact> 0.10536267E+08</totfact>
</mgrwt>
</event>
<event>
 4    1  0.2761157E+004  0.2000649E+02  0.7546771E-02  0.1745199E+00
         21   -1    0    0  501  502  0.00000000000E+00  0.00000000000E+00  0.12976224075E+02  0.12976224075E+02  0.00000000000E+00 0. -1.
         21   -1    0    0  502  503 -0.00000000000E+00 -0.00000000000E+00 -0.38926893878E+02  0.38926893878E+02  0.00000000000E+00 0.  1.
          2    1    1    2  501    0 -0.64664966304E+01 -0.18932621863E+02 -0.11509559590E+01  0.20039572073E+02  0.00000000000E+00 0.  1.
         -2    1    1    2    0  503  0.64664966304E+01  0.18932621863E+02 -0.24799713844E+02  0.31863545880E+02  0.00000000000E+00 0. -1.
<mgrwt>
<rscale>  2 0.20006493E+02</rscale>
<asrwt>0</asrwt>
<pdfrwt beam="1">  1       21 0.19963422E-02 0.20006493E+02</pdfrwt>
<pdfrwt beam="2">  1       21 0.59887528E-02 0.20006493E+02</pdfrwt>
<totfact> 0.15433895E+08</totfact>
</mgrwt>
</event>
<event>
 4    1  0.2761157E+004  0.2024393E+02  0.7546771E-02  0.1740520E+00
         21   -1    0    0  501  502  0.00000000000E+00  0.00000000000E+00  0.10853332831E+02  0.10853332831E+02  0.00000000000E+00 0.  1.
         21   -1    0    0  502  503 -0.00000000000E+00 -0.00000000000E+00 -0.54910333933E+02  0.54910333933E+02  0.00000000000E+00 0. -1.
          2    1    1    2  501    0  0.19947248351E+02 -0.34530840764E+01 -0.36516322389E+01  0.20570632573E+02  0.00000000000E+00 0.  1.
         -2    1    1    2    0  503 -0.19947248351E+02  0.34530840764E+01 -0.40405368864E+02  0.45193034191E+02  0.00000000000E+00 0. -1.
<mgrwt>
<rscale>  2 0.20243925E+02</rscale>
<asrwt>0</asrwt>
<pdfrwt beam="1">  1       21 0.16697435E-02 0.20243925E+02</pdfrwt>
<pdfrwt beam="2">  1       21 0.84477436E-02 0.20243925E+02</pdfrwt>
<totfact> 0.11677877E+08</totfact>
</mgrwt>
</event>
<event>
 4    1  0.2761157E+004  0.2720876E+02  0.7546771E-02  0.1631164E+00
         21   -1    0    0  503  502  0.00000000000E+00  0.00000000000E+00  0.26844099592E+02  0.26844099592E+02  0.00000000000E+00 0.  1.
         21   -1    0    0  501  503 -0.00000000000E+00 -0.00000000000E+00 -0.31263624796E+02  0.31263624796E+02  0.00000000000E+00 0. -1.
          2    1    1    2  501    0 -0.17950558657E+02  0.20447352902E+02 -0.12184864474E+02  0.29812542982E+02  0.00000000000E+00 0. -1.
         -2    1    1    2    0  502  0.17950558657E+02 -0.20447352902E+02  0.77653392694E+01  0.28295181406E+02  0.00000000000E+00 0.  1.
<mgrwt>
<rscale>  2 0.27208763E+02</rscale>
<asrwt>0</asrwt>
<pdfrwt beam="1">  1       21 0.41298615E-02 0.27208763E+02</pdfrwt>
<pdfrwt beam="2">  1       21 0.48097884E-02 0.27208763E+02</pdfrwt>
<totfact> 0.77195469E+07</totfact>
</mgrwt>
</event>
<event>
 4    1  0.2761157E+004  0.2063664E+02  0.7546771E-02  0.1732956E+00
         21   -1    0    0  501  502  0.00000000000E+00  0.00000000000E+00  0.20418410550E+02  0.20418410550E+02  0.00000000000E+00 0. -1.
         21   -1    0    0  502  503 -0.00000000000E+00 -0.00000000000E+00 -0.21220158252E+02  0.21220158252E+02  0.00000000000E+00 0.  1.
          2    1    1    2  501    0  0.19930080807E+02 -0.53537592437E+01  0.23219542365E+01  0.20766856539E+02  0.00000000000E+00 0. -1.
         -2    1    1    2    0  503 -0.19930080807E+02  0.53537592437E+01 -0.31237019377E+01  0.20871712263E+02  0.00000000000E+00 0.  1.
<mgrwt>
<rscale>  2 0.20636639E+02</rscale>
<asrwt>0</asrwt>
<pdfrwt beam="1">  1       21 0.31412939E-02 0.20636639E+02</pdfrwt>
<pdfrwt beam="2">  1       21 0.32646397E-02 0.20636639E+02</pdfrwt>
<totfact> 0.20180188E+08</totfact>
</mgrwt>
</event>
<event>
 4    1  0.2761157E+004  0.2578734E+02  0.7546771E-02  0.1649944E+00
         21   -1    0    0  501  502  0.00000000000E+00  0.00000000000E+00  0.91609718459E+00  0.91609718459E+00  0.00000000000E+00 0.  1.
         21   -1    0    0  502  503 -0.00000000000E+00 -0.00000000000E+00 -0.83802585730E+03  0.83802585730E+03  0.00000000000E+00 0. -1.
          2    1    1    2  501    0  0.28982716149E+00  0.25785711473E+02 -0.26511329640E+03  0.26636449997E+03  0.00000000000E+00 0.  1.
         -2    1    1    2    0  503 -0.28982716149E+00 -0.25785711473E+02 -0.57199646372E+03  0.57257745452E+03  0.00000000000E+00 0. -1.
<mgrwt>
<rscale>  2 0.25787340E+02</rscale>
<asrwt>0</asrwt>
<pdfrwt beam="1">  1       21 0.14093853E-03 0.25787340E+02</pdfrwt>
<pdfrwt beam="2">  1       21 0.12892660E+00 0.25787340E+02</pdfrwt>
<totfact> 0.28124940E+07</totfact>
</mgrwt>
</event>
<event>
 4    1  0.2761157E+004  0.3247408E+02  0.7546771E-02  0.1572248E+00
         21   -1    0    0  501  502  0.00000000000E+00  0.00000000000E+00  0.21830983291E+01  0.21830983291E+01  0.00000000000E+00 0. -1.
         21   -1    0    0  502  503 -0.00000000000E+00 -0.00000000000E+00 -0.61261952185E+03  0.61261952185E+03  0.00000000000E+00 0.  1.
          2    1    1    2  501    0 -0.17340806095E+02 -0.27456550183E+02 -0.16385176930E+03  0.16703882185E+03  0.00000000000E+00 0. -1.
         -2    1    1    2    0  503  0.17340806095E+02  0.27456550183E+02 -0.44658465422E+03  0.44776379832E+03  0.00000000000E+00 0.  1.
<mgrwt>
<rscale>  2 0.32474077E+02</rscale>
<asrwt>0</asrwt>
<pdfrwt beam="1">  1       21 0.33586144E-03 0.32474077E+02</pdfrwt>
<pdfrwt beam="2">  1       21 0.94249112E-01 0.32474077E+02</pdfrwt>
<totfact> 0.16679688E+07</totfact>
</mgrwt>
</event>
<event>
 4    1  0.2761157E+004  0.2378153E+02  0.7546771E-02  0.1679146E+00
         21   -1    0    0  501  502  0.00000000000E+00  0.00000000000E+00  0.69927377073E+01  0.69927377073E+01  0.00000000000E+00 0. -1.
         21   -1    0    0  502  503 -0.00000000000E+00 -0.00000000000E+00 -0.10397516556E+03  0.10397516556E+03  0.00000000000E+00 0.  1.
          2    1    1    2  501    0  0.21900149063E+02  0.92706450775E+01 -0.22340820798E+02  0.32629337459E+02  0.00000000000E+00 0. -1.
         -2    1    1    2    0  503 -0.21900149063E+02 -0.92706450775E+01 -0.74641607055E+02  0.78338565808E+02  0.00000000000E+00 0.  1.
<mgrwt>
<rscale>  2 0.23781535E+02</rscale>
<asrwt>0</asrwt>
<pdfrwt beam="1">  1       21 0.10758059E-02 0.23781535E+02</pdfrwt>
<pdfrwt beam="2">  1       21 0.15996178E-01 0.23781535E+02</pdfrwt>
<totfact> 0.81917349E+07</totfact>
</mgrwt>
</event>
<event>
 4    1  0.2761157E+004  0.2041707E+02  0.7546771E-02  0.1737159E+00
         21   -1    0    0  501  502  0.00000000000E+00  0.00000000000E+00  0.93259055503E+01  0.93259055503E+01  0.00000000000E+00 0.  1.
         21   -1    0    0  502  503 -0.00000000000E+00 -0.00000000000E+00 -0.98808251146E+02  0.98808251146E+02  0.00000000000E+00 0. -1.
          2    1    1    2  501    0 -0.19075900512E+02 -0.72778340738E+01 -0.47307783133E+01  0.20957984459E+02  0.00000000000E+00 0.  1.
         -2    1    1    2    0  503  0.19075900512E+02  0.72778340738E+01 -0.84751567283E+02  0.87176172238E+02  0.00000000000E+00 0. -1.
<mgrwt>
<rscale>  2 0.20417072E+02</rscale>
<asrwt>0</asrwt>
<pdfrwt beam="1">  1       21 0.14347547E-02 0.20417072E+02</pdfrwt>
<pdfrwt beam="2">  1       21 0.15201269E-01 0.20417072E+02</pdfrwt>
<totfact> 0.55543886E+07</totfact>
</mgrwt>
</event>
<event>
 4    1  0.2761157E+004  0.2083438E+02  0.7546771E-02  0.1729227E+00
         21   -1    0    0  501  502  0.00000000000E+00  0.00000000000E+00  0.31894823093E+02  0.31894823093E+02  0.00000000000E+00 0. -1.
         21   -1    0    0  502  503 -0.00000000000E+00 -0.00000000000E+00 -0.27724459554E+02  0.27724459554E+02  0.00000000000E+00 0.  1.
          2    1    1    2  501    0  0.53639837740E+01  0.20132043391E+02  0.23355087081E+02  0.31297469316E+02  0.00000000000E+00 0. -1.
         -2    1    1    2    0  503 -0.53639837740E+01 -0.20132043391E+02 -0.19184723542E+02  0.28321813332E+02  0.00000000000E+00 0.  1.
<mgrwt>
<rscale>  2 0.20834382E+02</rscale>
<asrwt>0</asrwt>
<pdfrwt beam="1">  1       21 0.49068958E-02 0.20834382E+02</pdfrwt>
<pdfrwt beam="2">  1       21 0.42653015E-02 0.20834382E+02</pdfrwt>
<totfact> 0.66176479E+07</totfact>
</mgrwt>
</event>
<event>
 4    1  0.2761157E+004  0.2663747E+02  0.7546771E-02  0.1638538E+00
         21   -1    0    0  501  502  0.00000000000E+00  0.00000000000E+00  0.85251693729E+02  0.85251693729E+02  0.00000000000E+00 0.  1.
         21   -1    0    0  502  503 -0.00000000000E+00 -0.00000000000E+00 -0.14517201103E+02  0.14517201103E+02  0.00000000000E+00 0. -1.
          2    1    1    2  501    0  0.25928402125E+02  0.61051632430E+01  0.67951983927E+02  0.72986486246E+02  0.00000000000E+00 0.  1.
         -2    1    1    2    0  503 -0.25928402125E+02 -0.61051632430E+01  0.27825086994E+01  0.26782408585E+02  0.00000000000E+00 0. -1.
<mgrwt>
<rscale>  2 0.26637475E+02</rscale>
<asrwt>0</asrwt>
<pdfrwt beam="1">  1       21 0.13115645E-01 0.26637475E+02</pdfrwt>
<pdfrwt beam="2">  1       21 0.22334156E-02 0.26637475E+02</pdfrwt>
<totfact> 0.38720259E+07</totfact>
</mgrwt>
</event>
<event>
 4    1  0.2761157E+004  0.2563372E+02  0.7546771E-02  0.1652063E+00
         21   -1    0    0  501  502  0.00000000000E+00  0.00000000000E+00  0.16056282210E+02  0.16056282210E+02  0.00000000000E+00 0. -1.
         21   -1    0    0  502  503 -0.00000000000E+00 -0.00000000000E+00 -0.14660448789E+03  0.14660448789E+03  0.00000000000E+00 0.  1.
          2    1    1    2  501    0  0.11418851226E+02 -0.22949887158E+02  0.37779471392E+01  0.25910622695E+02  0.00000000000E+00 0. -1.
         -2    1    1    2    0  503 -0.11418851226E+02  0.22949887158E+02 -0.13432615282E+03  0.13675014741E+03  0.00000000000E+00 0.  1.
<mgrwt>
<rscale>  2 0.25633718E+02</rscale>
<asrwt>0</asrwt>
<pdfrwt beam="1">  1       21 0.24701973E-02 0.25633718E+02</pdfrwt>
<pdfrwt beam="2">  1       21 0.22554536E-01 0.25633718E+02</pdfrwt>
<totfact> 0.12850023E+07</totfact>
</mgrwt>
</event>
<event>
 4    1  0.2761157E+004  0.2104819E+02  0.7546771E-02  0.1725253E+00
         21   -1    0    0  503  502  0.00000000000E+00  0.00000000000E+00  0.21953994005E+01  0.21953994005E+01  0.00000000000E+00 0. -1.
         21   -1    0    0  501  503 -0.00000000000E+00 -0.00000000000E+00 -0.52278063664E+03  0.52278063664E+03  0.00000000000E+00 0.  1.
          2    1    1    2  501    0 -0.21048176276E+02 -0.21502594359E-01 -0.46597203049E+03  0.46644716676E+03  0.00000000000E+00 0.  1.
         -2    1    1    2    0  502  0.21048176276E+02  0.21502594359E-01 -0.54613206756E+02  0.58528869279E+02  0.00000000000E+00 0. -1.
<mgrwt>
<rscale>  2 0.21048187E+02</rscale>
<asrwt>0</asrwt>
<pdfrwt beam="1">  1       21 0.33775336E-03 0.21048187E+02</pdfrwt>
<pdfrwt beam="2">  1       21 0.80427885E-01 0.21048187E+02</pdfrwt>
<totfact> 0.21530693E+07</totfact>
</mgrwt>
</event>
<event>
 4    1  0.2761157E+004  0.2906624E+02  0.7546771E-02  0.1608646E+00
         21   -1    0    0  503  502  0.00000000000E+00  0.00000000000E+00  0.40253339681E+03  0.40253339681E+03  0.00000000000E+00 0. -1.
         21   -1    0    0  501  503 -0.00000000000E+00 -0.00000000000E+00 -0.69165932448E+01  0.69165932448E+01  0.00000000000E+00 0.  1.
          2    1    1    2  501    0  0.95344710360E+01  0.27457971954E+02  0.26945494192E+02  0.39634656792E+02  0.00000000000E+00 0.  1.
         -2    1    1    2    0  502 -0.95344710360E+01 -0.27457971954E+02  0.36867130938E+03  0.36981533327E+03  0.00000000000E+00 0. -1.
<mgrwt>
<rscale>  2 0.29066241E+02</rscale>
<asrwt>0</asrwt>
<pdfrwt beam="1">  1       21 0.61928197E-01 0.29066241E+02</pdfrwt>
<pdfrwt beam="2">  1       21 0.10640916E-02 0.29066241E+02</pdfrwt>
<totfact> 0.70900331E+06</totfact>
</mgrwt>
</event>
<event>
 4    1  0.2761157E+004  0.2083522E+02  0.7546771E-02  0.1729211E+00
         21   -1    0    0  501  502  0.00000000000E+00  0.00000000000E+00  0.81424684699E+02  0.81424684699E+02  0.00000000000E+00 0. -1.
         21   -1    0    0  502  503 -0.00000000000E+00 -0.00000000000E+00 -0.24614938445E+02  0.24614938445E+02  0.00000000000E+00 0.  1.
          2    1    1    2  501    0  0.19670625065E+02 -0.68682459920E+01  0.75332905220E+02  0.78161070249E+02  0.00000000000E+00 0. -1.
         -2    1    1    2    0  503 -0.19670625065E+02  0.68682459920E+01 -0.18523158966E+02  0.27878552896E+02  0.00000000000E+00 0.  1.
<mgrwt>
<rscale>  2 0.20835218E+02</rscale>
<asrwt>0</asrwt>
<pdfrwt beam="1">  1       21 0.12526874E-01 0.20835218E+02</pdfrwt>
<pdfrwt beam="2">  1       21 0.37869136E-02 0.20835218E+02</pdfrwt>
<totfact> 0.17396200E+07</totfact>
</mgrwt>
</event>
<event>
 4    1  0.2761157E+004  0.2025328E+02  0.7546771E-02  0.1740338E+00
         21   -1    0    0  501  502  0.00000000000E+00  0.00000000000E+00  0.89555711535E+02  0.89555711535E+02  0.00000000000E+00 0.  1.
         21   -1    0    0  502  503 -0.00000000000E+00 -0.00000000000E+00 -0.62967094843E+01  0.62967094843E+01  0.00000000000E+00 0. -1.
          2    1    1    2  501    0  0.18706262465E+02  0.77634406370E+01  0.66651507837E+02  0.69660740470E+02  0.00000000000E+00 0.  1.
         -2    1    1    2    0  503 -0.18706262465E+02 -0.77634406370E+01  0.16607494213E+02  0.26191680549E+02  0.00000000000E+00 0. -1.
<mgrwt>
<rscale>  2 0.20253278E+02</rscale>
<asrwt>0</asrwt>
<pdfrwt beam="1">  1       21 0.13777801E-01 0.20253278E+02</pdfrwt>
<pdfrwt beam="2">  1       21 0.96872460E-03 0.20253278E+02</pdfrwt>
<totfact> 0.11803984E+08</totfact>
</mgrwt>
</event>
<event>
 4    1  0.2761157E+004  0.2420184E+02  0.7546771E-02  0.1672738E+00
         21   -1    0    0  501  502  0.00000000000E+00  0.00000000000E+00  0.13115039525E+01  0.13115039525E+01  0.00000000000E+00 0. -1.
         21   -1    0    0  502  503 -0.00000000000E+00 -0.00000000000E+00 -0.55018168034E+03  0.55018168034E+03  0.00000000000E+00 0.  1.
          2    1    1    2  501    0 -0.16810039122E+02 -0.17411256895E+02 -0.15479409836E+03  0.15667463793E+03  0.00000000000E+00 0. -1.
         -2    1    1    2    0  503  0.16810039122E+02  0.17411256895E+02 -0.39407607802E+03  0.39481854636E+03  0.00000000000E+00 0.  1.
<mgrwt>
<rscale>  2 0.24201845E+02</rscale>
<asrwt>0</asrwt>
<pdfrwt beam="1">  1       21 0.20177002E-03 0.24201845E+02</pdfrwt>
<pdfrwt beam="2">  1       21 0.84643260E-01 0.24201845E+02</pdfrwt>
<totfact> 0.42051379E+07</totfact>
</mgrwt>
</event>
<event>
 4    1  0.2761157E+004  0.4003462E+02  0.7546771E-02  0.1507957E+00
         21   -1    0    0  503  502  0.00000000000E+00  0.00000000000E+00  0.20716773288E+03  0.20716773288E+03  0.00000000000E+00 0.  1.
         21   -1    0    0  501  503 -0.00000000000E+00 -0.00000000000E+00 -0.92492582285E+01  0.92492582285E+01  0.00000000000E+00 0. -1.
          2    1    1    2  501    0 -0.22784954419E+02  0.32918337896E+02  0.55198943499E+02  0.68188668275E+02  0.00000000000E+00 0. -1.
         -2    1    1    2    0  502  0.22784954419E+02 -0.32918337896E+02  0.14271953115E+03  0.14822832284E+03  0.00000000000E+00 0.  1.
<mgrwt>
<rscale>  2 0.40034624E+02</rscale>
<asrwt>0</asrwt>
<pdfrwt beam="1">  1       21 0.31871955E-01 0.40034624E+02</pdfrwt>
<pdfrwt beam="2">  1       21 0.14229630E-02 0.40034624E+02</pdfrwt>
<totfact> 0.17316102E+07</totfact>
</mgrwt>
</event>
<event>
 4    1  0.2761157E+004  0.2123660E+02  0.7546771E-02  0.1721799E+00
         21   -1    0    0  501  502  0.00000000000E+00  0.00000000000E+00  0.28877721353E+01  0.28877721353E+01  0.00000000000E+00 0.  1.
         21   -1    0    0  502  503 -0.00000000000E+00 -0.00000000000E+00 -0.23925423789E+03  0.23925423789E+03  0.00000000000E+00 0. -1.
          2    1    1    2  501    0  0.17924999543E+02 -0.11388039927E+02 -0.46838670191E+02  0.51428144894E+02  0.00000000000E+00 0.  1.
         -2    1    1    2    0  503 -0.17924999543E+02  0.11388039927E+02 -0.18952779556E+03  0.19071386513E+03  0.00000000000E+00 0. -1.
<mgrwt>
<rscale>  2 0.21236597E+02</rscale>
<asrwt>0</asrwt>
<pdfrwt beam="1">  1       21 0.44427237E-03 0.21236597E+02</pdfrwt>
<pdfrwt beam="2">  1       21 0.36808367E-01 0.21236597E+02</pdfrwt>
<totfact> 0.67179845E+07</totfact>
</mgrwt>
</event>
<event>
 4    1  0.2761157E+004  0.2358581E+02  0.7546771E-02  0.1682187E+00
         21   -1    0    0  503  502  0.00000000000E+00  0.00000000000E+00  0.76551168806E+01  0.76551168806E+01  0.00000000000E+00 0.  1.
         21   -1    0    0  501  503 -0.00000000000E+00 -0.00000000000E+00 -0.10416947777E+03  0.10416947777E+03  0.00000000000E+00 0. -1.
          2    1    1    2  501    0 -0.22840210240E+02  0.58834859384E+01 -0.79003620144E+02  0.82449151641E+02  0.00000000000E+00 0. -1.
         -2    1    1    2    0  502  0.22840210240E+02 -0.58834859384E+01 -0.17510740748E+02  0.29375443012E+02  0.00000000000E+00 0.  1.
<mgrwt>
<rscale>  2 0.23585814E+02</rscale>
<asrwt>0</asrwt>
<pdfrwt beam="1">  1       21 0.11777103E-02 0.23585814E+02</pdfrwt>
<pdfrwt beam="2">  1       21 0.16026073E-01 0.23585814E+02</pdfrwt>
<totfact> 0.71077041E+07</totfact>
</mgrwt>
</event>
<event>
 4    1  0.2761157E+004  0.2420627E+02  0.7546771E-02  0.1672671E+00
         21   -1    0    0  501  502  0.00000000000E+00  0.00000000000E+00  0.17890712537E+02  0.17890712537E+02  0.00000000000E+00 0.  1.
         21   -1    0    0  502  503 -0.00000000000E+00 -0.00000000000E+00 -0.11426975415E+03  0.11426975415E+03  0.00000000000E+00 0. -1.
          2    1    1    2  501    0 -0.18174003041E+02 -0.15989027415E+02  0.76233028560E+01  0.25378300389E+02  0.00000000000E+00 0.  1.
         -2    1    1    2    0  503  0.18174003041E+02  0.15989027415E+02 -0.10400234447E+03  0.10678216630E+03  0.00000000000E+00 0. -1.
<mgrwt>
<rscale>  2 0.24206267E+02</rscale>
<asrwt>0</asrwt>
<pdfrwt beam="1">  1       21 0.27524175E-02 0.24206267E+02</pdfrwt>
<pdfrwt beam="2">  1       21 0.17579961E-01 0.24206267E+02</pdfrwt>
<totfact> 0.16618225E+07</totfact>
</mgrwt>
</event>
<event>
 4    1  0.2761157E+004  0.3403094E+02  0.7546771E-02  0.1557378E+00
         21   -1    0    0  501  502  0.00000000000E+00  0.00000000000E+00  0.11122371968E+02  0.11122371968E+02  0.00000000000E+00 0.  1.
         21   -1    0    0  502  503 -0.00000000000E+00 -0.00000000000E+00 -0.21687849513E+03  0.21687849513E+03  0.00000000000E+00 0. -1.
          2    1    1    2  501    0 -0.31037932782E+02  0.13955337298E+02 -0.20679278391E+02  0.39821316719E+02  0.00000000000E+00 0.  1.
         -2    1    1    2    0  503  0.31037932782E+02 -0.13955337298E+02 -0.18507684477E+03  0.18817955038E+03  0.00000000000E+00 0. -1.
<mgrwt>
<rscale>  2 0.34030938E+02</rscale>
<asrwt>0</asrwt>
<pdfrwt beam="1">  1       21 0.17111341E-02 0.34030938E+02</pdfrwt>
<pdfrwt beam="2">  1       21 0.33365923E-01 0.34030938E+02</pdfrwt>
<totfact> 0.11665528E+07</totfact>
</mgrwt>
</event>
<event>
 4    1  0.2761157E+004  0.4901288E+02  0.7546771E-02  0.1450740E+00
         21   -1    0    0  501  502  0.00000000000E+00  0.00000000000E+00  0.24631690004E+03  0.24631690004E+03  0.00000000000E+00 0.  1.
         21   -1    0    0  502  503 -0.00000000000E+00 -0.00000000000E+00 -0.32296005291E+02  0.32296005291E+02  0.00000000000E+00 0. -1.
          2    1    1    2  501    0  0.26935674029E+02  0.40947911748E+02  0.22339768082E+03  0.22871114054E+03  0.00000000000E+00 0.  1.
         -2    1    1    2    0  503 -0.26935674029E+02 -0.40947911748E+02 -0.93767860730E+01  0.49901764788E+02  0.00000000000E+00 0. -1.
<mgrwt>
<rscale>  2 0.49012876E+02</rscale>
<asrwt>0</asrwt>
<pdfrwt beam="1">  1       21 0.37894906E-01 0.49012876E+02</pdfrwt>
<pdfrwt beam="2">  1       21 0.49686164E-02 0.49012876E+02</pdfrwt>
<totfact> 0.17501313E+06</totfact>
</mgrwt>
</event>
<event>
 4    1  0.2761157E+004  0.2352007E+02  0.7546771E-02  0.1683216E+00
         21   -1    0    0  501  502  0.00000000000E+00  0.00000000000E+00  0.53664429981E+01  0.53664429981E+01  0.00000000000E+00 0. -1.
         21   -1    0    0  502  503 -0.00000000000E+00 -0.00000000000E+00 -0.13182488753E+03  0.13182488753E+03  0.00000000000E+00 0.  1.
          2    1    1    2  501    0 -0.75650252470E+01 -0.22270256398E+02 -0.31199827277E+02  0.39072025148E+02  0.00000000000E+00 0. -1.
         -2    1    1    2    0  503  0.75650252470E+01  0.22270256398E+02 -0.95258617254E+02  0.98119305379E+02  0.00000000000E+00 0.  1.
<mgrwt>
<rscale>  2 0.23520075E+02</rscale>
<asrwt>0</asrwt>
<pdfrwt beam="1">  1       21 0.82560665E-03 0.23520075E+02</pdfrwt>
<pdfrwt beam="2">  1       21 0.20280751E-01 0.23520075E+02</pdfrwt>
<totfact> 0.80583786E+07</totfact>
</mgrwt>
</event>
<event>
 4    1  0.2761157E+004  0.2049142E+02  0.7546771E-02  0.1735729E+00
         21   -1    0    0  501  502  0.00000000000E+00  0.00000000000E+00  0.11876304012E+03  0.11876304012E+03  0.00000000000E+00 0.  1.
         21   -1    0    0  502  503 -0.00000000000E+00 -0.00000000000E+00 -0.10467516142E+02  0.10467516142E+02  0.00000000000E+00 0. -1.
          2    1    1    2  501    0 -0.14276777048E+02 -0.14699381083E+02  0.10673013286E+03  0.10867943424E+03  0.00000000000E+00 0.  1.
         -2    1    1    2    0  503  0.14276777048E+02  0.14699381083E+02  0.15653911245E+01  0.20551122025E+02  0.00000000000E+00 0. -1.
<mgrwt>
<rscale>  2 0.20491417E+02</rscale>
<asrwt>0</asrwt>
<pdfrwt beam="1">  1       21 0.18271236E-01 0.20491417E+02</pdfrwt>
<pdfrwt beam="2">  1       21 0.16103872E-02 0.20491417E+02</pdfrwt>
<totfact> 0.34089695E+07</totfact>
</mgrwt>
</event>
<event>
 4    1  0.2761157E+004  0.2403646E+02  0.7546771E-02  0.1675240E+00
         21   -1    0    0  503  502  0.00000000000E+00  0.00000000000E+00  0.21235946706E+01  0.21235946706E+01  0.00000000000E+00 0.  1.
         21   -1    0    0  501  503 -0.00000000000E+00 -0.00000000000E+00 -0.36004731887E+03  0.36004731887E+03  0.00000000000E+00 0. -1.
          2    1    1    2  501    0  0.23853227944E+02  0.29622269458E+01 -0.26847911136E+03  0.26955293452E+03  0.00000000000E+00 0. -1.
         -2    1    1    2    0  502 -0.23853227944E+02 -0.29622269458E+01 -0.89444612841E+02  0.92617979021E+02  0.00000000000E+00 0.  1.
<mgrwt>
<rscale>  2 0.24036457E+02</rscale>
<asrwt>0</asrwt>
<pdfrwt beam="1">  1       21 0.32670710E-03 0.24036457E+02</pdfrwt>
<pdfrwt beam="2">  1       21 0.55391856E-01 0.24036457E+02</pdfrwt>
<totfact> 0.49650579E+07</totfact>
</mgrwt>
</event>
<event>
 4    1  0.2761157E+004  0.2217829E+02  0.7546771E-02  0.1705187E+00
         21   -1    0    0  501  502  0.00000000000E+00  0.00000000000E+00  0.41936568185E+02  0.41936568185E+02  0.00000000000E+00 0.  1.
         21   -1    0    0  502  503 -0.00000000000E+00 -0.00000000000E+00 -0.14150494568E+02  0.14150494568E+02  0.00000000000E+00 0. -1.
          2    1    1    2  501    0 -0.22176197664E+02  0.30456612542E+00  0.25493713033E+02  0.33790618633E+02  0.00000000000E+00 0.  1.
         -2    1    1    2    0  503  0.22176197664E+02 -0.30456612542E+00  0.22923605847E+01  0.22296444120E+02  0.00000000000E+00 0. -1.
<mgrwt>
<rscale>  2 0.22178289E+02</rscale>
<asrwt>0</asrwt>
<pdfrwt beam="1">  1       21 0.64517797E-02 0.22178289E+02</pdfrwt>
<pdfrwt beam="2">  1       21 0.21769992E-02 0.22178289E+02</pdfrwt>
<totfact> 0.12381382E+08</totfact>
</mgrwt>
</event>
<event>
 4    1  0.2761157E+004  0.2364659E+02  0.7546771E-02  0.1681239E+00
         21   -1    0    0  501  502  0.00000000000E+00  0.00000000000E+00  0.39339419322E+03  0.39339419322E+03  0.00000000000E+00 0. -1.
         21   -1    0    0  502  503 -0.00000000000E+00 -0.00000000000E+00 -0.15102134177E+02  0.15102134177E+02  0.00000000000E+00 0.  1.
          2    1    1    2  501    0  0.31719158412E+00  0.23644461253E+02  0.38354505246E+03  0.38427329913E+03  0.00000000000E+00 0. -1.
         -2    1    1    2    0  503 -0.31719158412E+00 -0.23644461253E+02 -0.52529934187E+01  0.24223028265E+02  0.00000000000E+00 0.  1.
<mgrwt>
<rscale>  2 0.23646589E+02</rscale>
<asrwt>0</asrwt>
<pdfrwt beam="1">  1       21 0.60522176E-01 0.23646589E+02</pdfrwt>
<pdfrwt beam="2">  1       21 0.23234056E-02 0.23646589E+02</pdfrwt>
<totfact> 0.21896987E+06</totfact>
</mgrwt>
</event>
<event>
 4    1  0.2761157E+004  0.2133685E+02  0.7546771E-02  0.1719980E+00
         21   -1    0    0  503  502  0.00000000000E+00  0.00000000000E+00  0.49100459102E+02  0.49100459102E+02  0.00000000000E+00 0. -1.
         21   -1    0    0  501  503 -0.00000000000E+00 -0.00000000000E+00 -0.12013817220E+02  0.12013817220E+02  0.00000000000E+00 0.  1.
          2    1    1    2  501    0 -0.18218519360E+02 -0.11106162691E+02  0.39454860014E+01  0.21698575003E+02  0.00000000000E+00 0.  1.
         -2    1    1    2    0  502  0.18218519360E+02  0.11106162691E+02  0.33141155881E+02  0.39415701319E+02  0.00000000000E+00 0. -1.
<mgrwt>
<rscale>  2 0.21336853E+02</rscale>
<asrwt>0</asrwt>
<pdfrwt beam="1">  1       21 0.75539167E-02 0.21336853E+02</pdfrwt>
<pdfrwt beam="2">  1       21 0.18482796E-02 0.21336853E+02</pdfrwt>
<totfact> 0.12188766E+08</totfact>
</mgrwt>
</event>
<event>
 4    1  0.2761157E+004  0.3074797E+02  0.7546771E-02  0.1589965E+00
         21   -1    0    0  501  502  0.00000000000E+00  0.00000000000E+00  0.83301244204E+02  0.83301244204E+02  0.00000000000E+00 0. -1.
         21   -1    0    0  502  503 -0.00000000000E+00 -0.00000000000E+00 -0.12027130688E+02  0.12027130688E+02  0.00000000000E+00 0.  1.
          2    1    1    2  501    0 -0.12496027859E+02 -0.28094250058E+02  0.24324292190E+02  0.39205978997E+02  0.00000000000E+00 0.  1.
         -2    1    1    2    0  503  0.12496027859E+02  0.28094250058E+02  0.46949821326E+02  0.56122395896E+02  0.00000000000E+00 0. -1.
<mgrwt>
<rscale>  2 0.30747969E+02</rscale>
<asrwt>0</asrwt>
<pdfrwt beam="1">  1       21 0.12815576E-01 0.30747969E+02</pdfrwt>
<pdfrwt beam="2">  1       21 0.18503278E-02 0.30747969E+02</pdfrwt>
<totfact> 0.55640341E+07</totfact>
</mgrwt>
</event>
<event>
 4    1  0.2761157E+004  0.2239056E+02  0.7546771E-02  0.1701584E+00
         21   -1    0    0  501  502  0.00000000000E+00  0.00000000000E+00  0.89450678494E+01  0.89450678494E+01  0.00000000000E+00 0. -1.
         21   -1    0    0  502  503 -0.00000000000E+00 -0.00000000000E+00 -0.88693743582E+02  0.88693743582E+02  0.00000000000E+00 0.  1.
          2    1    1    2  501    0  0.14001938745E+02  0.17472340988E+02 -0.10255275567E+02  0.24627376336E+02  0.00000000000E+00 0. -1.
         -2    1    1    2    0  503 -0.14001938745E+02 -0.17472340988E+02 -0.69493400165E+02  0.73011435096E+02  0.00000000000E+00 0.  1.
<mgrwt>
<rscale>  2 0.22390556E+02</rscale>
<asrwt>0</asrwt>
<pdfrwt beam="1">  1       21 0.13761644E-02 0.22390556E+02</pdfrwt>
<pdfrwt beam="2">  1       21 0.13645191E-01 0.22390556E+02</pdfrwt>
<totfact> 0.72805375E+07</totfact>
</mgrwt>
</event>
<event>
 4    1  0.2761157E+004  0.3200674E+02  0.7546771E-02  0.1576910E+00
         21   -1    0    0  501  502  0.00000000000E+00  0.00000000000E+00  0.16946056372E+02  0.16946056372E+02  0.00000000000E+00 0. -1.
         21   -1    0    0  502  503 -0.00000000000E+00 -0.00000000000E+00 -0.81093616524E+02  0.81093616524E+02  0.00000000000E+00 0.  1.
          2    1    1    2  501    0  0.22679779609E+02  0.22584484263E+02 -0.73425792958E+01  0.32838160778E+02  0.00000000000E+00 0. -1.
         -2    1    1    2    0  503 -0.22679779609E+02 -0.22584484263E+02 -0.56804980856E+02  0.65201512119E+02  0.00000000000E+00 0.  1.
<mgrwt>
<rscale>  2 0.32006739E+02</rscale>
<asrwt>0</asrwt>
<pdfrwt beam="1">  1       21 0.26070856E-02 0.32006739E+02</pdfrwt>
<pdfrwt beam="2">  1       21 0.12475941E-01 0.32006739E+02</pdfrwt>
<totfact> 0.34440195E+07</totfact>
</mgrwt>
</event>
<event>
 4    1  0.2761157E+004  0.2277358E+02  0.7546771E-02  0.1695207E+00
         21   -1    0    0  503  502  0.00000000000E+00  0.00000000000E+00  0.26287851267E+02  0.26287851267E+02  0.00000000000E+00 0.  1.
         21   -1    0    0  501  503 -0.00000000000E+00 -0.00000000000E+00 -0.25452661981E+02  0.25452661981E+02  0.00000000000E+00 0. -1.
          2    1    1    2  501    0 -0.78150630943E+01 -0.21390664832E+02 -0.11850219079E+02  0.25672231016E+02  0.00000000000E+00 0. -1.
         -2    1    1    2    0  502  0.78150630943E+01  0.21390664832E+02  0.12685408366E+02  0.26068282232E+02  0.00000000000E+00 0.  1.
<mgrwt>
<rscale>  2 0.22773576E+02</rscale>
<asrwt>0</asrwt>
<pdfrwt beam="1">  1       21 0.40442848E-02 0.22773576E+02</pdfrwt>
<pdfrwt beam="2">  1       21 0.39157942E-02 0.22773576E+02</pdfrwt>
<totfact> 0.10539167E+08</totfact>
</mgrwt>
</event>
<event>
 4    1  0.2761157E+004  0.2174541E+02  0.7546771E-02  0.1712692E+00
         21   -1    0    0  503  502  0.00000000000E+00  0.00000000000E+00  0.29808415663E+02  0.29808415663E+02  0.00000000000E+00 0.  1.
         21   -1    0    0  501  503 -0.00000000000E+00 -0.00000000000E+00 -0.22194839114E+02  0.22194839114E+02  0.00000000000E+00 0. -1.
          2    1    1    2  501    0  0.13789754844E+02  0.16813852385E+02 -0.10080759789E+02  0.23968410223E+02  0.00000000000E+00 0. -1.
         -2    1    1    2    0  502 -0.13789754844E+02 -0.16813852385E+02  0.17694336339E+02  0.28034844554E+02  0.00000000000E+00 0.  1.
<mgrwt>
<rscale>  2 0.21745413E+02</rscale>
<asrwt>0</asrwt>
<pdfrwt beam="1">  1       21 0.45859101E-02 0.21745413E+02</pdfrwt>
<pdfrwt beam="2">  1       21 0.34145906E-02 0.21745413E+02</pdfrwt>
<totfact> 0.10568112E+08</totfact>
</mgrwt>
</event>
<event>
 4    1  0.2761157E+004  0.2182696E+02  0.7546771E-02  0.1711262E+00
         21   -1    0    0  503  502  0.00000000000E+00  0.00000000000E+00  0.79870873539E+02  0.79870873539E+02  0.00000000000E+00 0. -1.
         21   -1    0    0  501  503 -0.00000000000E+00 -0.00000000000E+00 -0.71665059621E+01  0.71665059621E+01  0.00000000000E+00 0.  1.
          2    1    1    2  501    0 -0.14845344722E+02  0.16000998974E+02  0.18531857074E+02  0.28632952253E+02  0.00000000000E+00 0. -1.
         -2    1    1    2    0  502  0.14845344722E+02 -0.16000998974E+02  0.54172510503E+02  0.58404427249E+02  0.00000000000E+00 0.  1.
<mgrwt>
<rscale>  2 0.21826961E+02</rscale>
<asrwt>0</asrwt>
<pdfrwt beam="1">  1       21 0.12287826E-01 0.21826961E+02</pdfrwt>
<pdfrwt beam="2">  1       21 0.11025394E-02 0.21826961E+02</pdfrwt>
<totfact> 0.12044430E+08</totfact>
</mgrwt>
</event>
<event>
 4    1  0.2761157E+004  0.3674678E+02  0.7546771E-02  0.1533614E+00
         21   -1    0    0  503  502  0.00000000000E+00  0.00000000000E+00  0.22902586801E+01  0.22902586801E+01  0.00000000000E+00 0.  1.
         21   -1    0    0  501  503 -0.00000000000E+00 -0.00000000000E+00 -0.61143454483E+03  0.61143454483E+03  0.00000000000E+00 0. -1.
          2    1    1    2  501    0  0.18771877886E+02  0.31590226331E+02 -0.36256670940E+03  0.36442412731E+03  0.00000000000E+00 0. -1.
         -2    1    1    2    0  502 -0.18771877886E+02 -0.31590226331E+02 -0.24657757676E+03  0.24930067621E+03  0.00000000000E+00 0.  1.
<mgrwt>
<rscale>  2 0.36746779E+02</rscale>
<asrwt>0</asrwt>
<pdfrwt beam="1">  1       21 0.35234694E-03 0.36746779E+02</pdfrwt>
<pdfrwt beam="2">  1       21 0.94067001E-01 0.36746779E+02</pdfrwt>
<totfact> 0.15876684E+07</totfact>
</mgrwt>
</event>
<event>
 4    1  0.2761157E+004  0.5990558E+02  0.7546771E-02  0.1398228E+00
         21   -1    0    0  503  502  0.00000000000E+00  0.00000000000E+00  0.31105973282E+02  0.31105973282E+02  0.00000000000E+00 0. -1.
         21   -1    0    0  501  503 -0.00000000000E+00 -0.00000000000E+00 -0.12714919662E+03  0.12714919662E+03  0.00000000000E+00 0.  1.
          2    1    1    2  501    0 -0.31614972798E+02 -0.50883905094E+02 -0.72106215429E+02  0.93744251057E+02  0.00000000000E+00 0.  1.
         -2    1    1    2    0  502  0.31614972798E+02  0.50883905094E+02 -0.23937007909E+02  0.64510918846E+02  0.00000000000E+00 0. -1.
<mgrwt>
<rscale>  2 0.59905578E+02</rscale>
<asrwt>0</asrwt>
<pdfrwt beam="1">  1       21 0.47855342E-02 0.59905578E+02</pdfrwt>
<pdfrwt beam="2">  1       21 0.19561415E-01 0.59905578E+02</pdfrwt>
<totfact> 0.64709065E+06</totfact>
</mgrwt>
</event>
<event>
 4    1  0.2761157E+004  0.3154065E+02  0.7546771E-02  0.1581658E+00
         21   -1    0    0  503  502  0.00000000000E+00  0.00000000000E+00  0.14572595117E+02  0.14572595117E+02  0.00000000000E+00 0. -1.
         21   -1    0    0  501  503 -0.00000000000E+00 -0.00000000000E+00 -0.68847059962E+02  0.68847059962E+02  0.00000000000E+00 0.  1.
          2    1    1    2  501    0  0.92958311204E+01  0.30139677507E+02 -0.30969093959E+02  0.44202911862E+02  0.00000000000E+00 0. -1.
         -2    1    1    2    0  502 -0.92958311204E+01 -0.30139677507E+02 -0.23305370885E+02  0.39216743217E+02  0.00000000000E+00 0.  1.
<mgrwt>
<rscale>  2 0.31540651E+02</rscale>
<asrwt>0</asrwt>
<pdfrwt beam="1">  1       21 0.22419378E-02 0.31540651E+02</pdfrwt>
<pdfrwt beam="2">  1       21 0.10591855E-01 0.31540651E+02</pdfrwt>
<totfact> 0.57329929E+07</totfact>
</mgrwt>
</event>
<event>
 4    1  0.2761157E+004  0.3802382E+02  0.7546771E-02  0.1523279E+00
         21   -1    0    0  503  502  0.00000000000E+00  0.00000000000E+00  0.20614092485E+03  0.20614092485E+03  0.00000000000E+00 0. -1.
         21   -1    0    0  501  503 -0.00000000000E+00 -0.00000000000E+00 -0.18062289725E+02  0.18062289725E+02  0.00000000000E+00 0.  1.
          2    1    1    2  501    0 -0.21041771887E+02  0.31671036365E+02  0.63636965126E+01  0.38552656742E+02  0.00000000000E+00 0.  1.
         -2    1    1    2    0  502  0.21041771887E+02 -0.31671036365E+02  0.18171493861E+03  0.18565055783E+03  0.00000000000E+00 0. -1.
<mgrwt>
<rscale>  2 0.38023818E+02</rscale>
<asrwt>0</asrwt>
<pdfrwt beam="1">  1       21 0.31713987E-01 0.38023818E+02</pdfrwt>
<pdfrwt beam="2">  1       21 0.27788140E-02 0.38023818E+02</pdfrwt>
<totfact> 0.61003613E+06</totfact>
</mgrwt>
</event>
<event>
 4    1  0.2761157E+004  0.3287259E+02  0.7546771E-02  0.1568347E+00
         21   -1    0    0  501  502  0.00000000000E+00  0.00000000000E+00  0.64420192809E+01  0.64420192809E+01  0.00000000000E+00 0. -1.
         21   -1    0    0  502  503 -0.00000000000E+00 -0.00000000000E+00 -0.19665062218E+03  0.19665062218E+03  0.00000000000E+00 0.  1.
          2    1    1    2  501    0  0.16469412324E+02  0.28449348259E+02 -0.56171213979E+02  0.65083117923E+02  0.00000000000E+00 0.  1.
         -2    1    1    2    0  503 -0.16469412324E+02 -0.28449348259E+02 -0.13403738892E+03  0.13800952354E+03  0.00000000000E+00 0. -1.
<mgrwt>
<rscale>  2 0.32872587E+02</rscale>
<asrwt>0</asrwt>
<pdfrwt beam="1">  1       21 0.99107992E-03 0.32872587E+02</pdfrwt>
<pdfrwt beam="2">  1       21 0.30253941E-01 0.32872587E+02</pdfrwt>
<totfact> 0.32138343E+07</totfact>
</mgrwt>
</event>
<event>
 4    1  0.2761157E+004  0.2035842E+02  0.7546771E-02  0.1738293E+00
         21   -1    0    0  503  502  0.00000000000E+00  0.00000000000E+00  0.14712330066E+02  0.14712330066E+02  0.00000000000E+00 0. -1.
         21   -1    0    0  501  503 -0.00000000000E+00 -0.00000000000E+00 -0.28592269646E+02  0.28592269646E+02  0.00000000000E+00 0.  1.
          2    1    1    2  501    0  0.12698507264E+02 -0.15912669947E+02 -0.43126311053E+01  0.20810188338E+02  0.00000000000E+00 0. -1.
         -2    1    1    2    0  502 -0.12698507264E+02  0.15912669947E+02 -0.95673084753E+01  0.22494411374E+02  0.00000000000E+00 0.  1.
<mgrwt>
<rscale>  2 0.20358417E+02</rscale>
<asrwt>0</asrwt>
<pdfrwt beam="1">  1       21 0.22634354E-02 0.20358417E+02</pdfrwt>
<pdfrwt beam="2">  1       21 0.43988107E-02 0.20358417E+02</pdfrwt>
<totfact> 0.20894210E+08</totfact>
</mgrwt>
</event>
<event>
 4    1  0.2761157E+004  0.2035327E+02  0.7546771E-02  0.1738393E+00
         21   -1    0    0  503  502  0.00000000000E+00  0.00000000000E+00  0.10303724085E+03  0.10303724085E+03  0.00000000000E+00 0. -1.
         21   -1    0    0  501  503 -0.00000000000E+00 -0.00000000000E+00 -0.40718116917E+01  0.40718116917E+01  0.00000000000E+00 0.  1.
          2    1    1    2  501    0  0.11569569472E+02  0.16745162490E+02  0.55497906725E+02  0.59112376500E+02  0.00000000000E+00 0.  1.
         -2    1    1    2    0  502 -0.11569569472E+02 -0.16745162490E+02  0.43467522434E+02  0.47996676042E+02  0.00000000000E+00 0. -1.
<mgrwt>
<rscale>  2 0.20353265E+02</rscale>
<asrwt>0</asrwt>
<pdfrwt beam="1">  1       21 0.15851881E-01 0.20353265E+02</pdfrwt>
<pdfrwt beam="2">  1       21 0.62643265E-03 0.20353265E+02</pdfrwt>
<totfact> 0.17816862E+08</totfact>
</mgrwt>
</event>
<event>
 4    1  0.2761157E+004  0.2796097E+02  0.7546771E-02  0.1621786E+00
         21   -1    0    0  501  502  0.00000000000E+00  0.00000000000E+00  0.23348414637E+02  0.23348414637E+02  0.00000000000E+00 0. -1.
         21   -1    0    0  502  503 -0.00000000000E+00 -0.00000000000E+00 -0.48466251655E+02  0.48466251655E+02  0.00000000000E+00 0.  1.
          2    1    1    2  501    0 -0.18109548809E+02  0.21303998506E+02  0.74047767556E+01  0.28924847955E+02  0.00000000000E+00 0. -1.
         -2    1    1    2    0  503  0.18109548809E+02 -0.21303998506E+02 -0.32522613773E+02  0.42889818338E+02  0.00000000000E+00 0.  1.
<mgrwt>
<rscale>  2 0.27960975E+02</rscale>
<asrwt>0</asrwt>
<pdfrwt beam="1">  1       21 0.35920638E-02 0.27960975E+02</pdfrwt>
<pdfrwt beam="2">  1       21 0.74563463E-02 0.27960975E+02</pdfrwt>
<totfact> 0.47686372E+07</totfact>
</mgrwt>
</event>
<event>
 4    1  0.2761157E+004  0.3602660E+02  0.7546771E-02  0.1539669E+00
         21   -1    0    0  503  502  0.00000000000E+00  0.00000000000E+00  0.16193897666E+02  0.16193897666E+02  0.00000000000E+00 0. -1.
         21   -1    0    0  501  503 -0.00000000000E+00 -0.00000000000E+00 -0.10643517169E+03  0.10643517169E+03  0.00000000000E+00 0.  1.
          2    1    1    2  501    0 -0.27687175537E+02  0.23050732234E+02 -0.75591797325E+02  0.83737899237E+02  0.00000000000E+00 0.  1.
         -2    1    1    2    0  502  0.27687175537E+02 -0.23050732234E+02 -0.14649476699E+02  0.38891170120E+02  0.00000000000E+00 0. -1.
<mgrwt>
<rscale>  2 0.36026601E+02</rscale>
<asrwt>0</asrwt>
<pdfrwt beam="1">  1       21 0.24913688E-02 0.36026601E+02</pdfrwt>
<pdfrwt beam="2">  1       21 0.16374642E-01 0.36026601E+02</pdfrwt>
<totfact> 0.23669807E+07</totfact>
</mgrwt>
</event>
<event>
 4    1  0.2761157E+004  0.2358226E+02  0.7546771E-02  0.1682242E+00
         21   -1    0    0  503  502  0.00000000000E+00  0.00000000000E+00  0.34999124623E+03  0.34999124623E+03  0.00000000000E+00 0. -1.
         21   -1    0    0  501  503 -0.00000000000E+00 -0.00000000000E+00 -0.18794681746E+01  0.18794681746E+01  0.00000000000E+00 0.  1.
          2    1    1    2  501    0  0.22428972376E+02 -0.72845082408E+01  0.10488662257E+03  0.10750500666E+03  0.00000000000E+00 0.  1.
         -2    1    1    2    0  502 -0.22428972376E+02  0.72845082408E+01  0.24322515549E+03  0.24436570775E+03  0.00000000000E+00 0. -1.
<mgrwt>
<rscale>  2 0.23582257E+02</rscale>
<asrwt>0</asrwt>
<pdfrwt beam="1">  1       21 0.53844755E-01 0.23582257E+02</pdfrwt>
<pdfrwt beam="2">  1       21 0.28914923E-03 0.23582257E+02</pdfrwt>
<totfact> 0.62467481E+07</totfact>
</mgrwt>
</event>
<event>
 4    1  0.2761157E+004  0.2721749E+02  0.7546771E-02  0.1631053E+00
         21   -1    0    0  501  502  0.00000000000E+00  0.00000000000E+00  0.32489024047E+02  0.32489024047E+02  0.00000000000E+00 0. -1.
         21   -1    0    0  502  503 -0.00000000000E+00 -0.00000000000E+00 -0.25620567443E+02  0.25620567443E+02  0.00000000000E+00 0.  1.
          2    1    1    2  501    0  0.26862555283E+02  0.43812265021E+01  0.13072329956E+02  0.30194003254E+02  0.00000000000E+00 0.  1.
         -2    1    1    2    0  503 -0.26862555283E+02 -0.43812265021E+01 -0.62038733530E+01  0.27915588236E+02  0.00000000000E+00 0. -1.
<mgrwt>
<rscale>  2 0.27217495E+02</rscale>
<asrwt>0</asrwt>
<pdfrwt beam="1">  1       21 0.49983114E-02 0.27217495E+02</pdfrwt>
<pdfrwt beam="2">  1       21 0.39416257E-02 0.27217495E+02</pdfrwt>
<totfact> 0.78169634E+07</totfact>
</mgrwt>
</event>
<event>
 4    1  0.2761157E+004  0.3557794E+02  0.7546771E-02  0.1543527E+00
         21   -1    0    0  501  502  0.00000000000E+00  0.00000000000E+00  0.15083917660E+03  0.15083917660E+03  0.00000000000E+00 0.  1.
         21   -1    0    0  502  503 -0.00000000000E+00 -0.00000000000E+00 -0.12225534521E+02  0.12225534521E+02  0.00000000000E+00 0. -1.
          2    1    1    2  501    0  0.30473941389E+02  0.18361070127E+02  0.11496466676E+03  0.12034394294E+03  0.00000000000E+00 0.  1.
         -2    1    1    2    0  503 -0.30473941389E+02 -0.18361070127E+02  0.23648975317E+02  0.42720768176E+02  0.00000000000E+00 0. -1.
<mgrwt>
<rscale>  2 0.35577943E+02</rscale>
<asrwt>0</asrwt>
<pdfrwt beam="1">  1       21 0.23206026E-01 0.35577943E+02</pdfrwt>
<pdfrwt beam="2">  1       21 0.18808516E-02 0.35577943E+02</pdfrwt>
<totfact> 0.19755801E+07</totfact>
</mgrwt>
</event>
<event>
 4    1  0.2761157E+004  0.2925439E+02  0.7546771E-02  0.1606480E+00
         21   -1    0    0  501  502  0.00000000000E+00  0.00000000000E+00  0.29366887882E+01  0.29366887882E+01  0.00000000000E+00 0. -1.
         21   -1    0    0  502  503 -0.00000000000E+00 -0.00000000000E+00 -0.37630685425E+03  0.37630685425E+03  0.00000000000E+00 0.  1.
          2    1    1    2  501    0  0.17575006901E+02 -0.23386714014E+02 -0.96625660759E+02  0.10095710761E+03  0.00000000000E+00 0. -1.
         -2    1    1    2    0  503 -0.17575006901E+02  0.23386714014E+02 -0.27674450471E+03  0.27828643543E+03  0.00000000000E+00 0.  1.
<mgrwt>
<rscale>  2 0.29254389E+02</rscale>
<asrwt>0</asrwt>
<pdfrwt beam="1">  1       21 0.45179816E-03 0.29254389E+02</pdfrwt>
<pdfrwt beam="2">  1       21 0.57893377E-01 0.29254389E+02</pdfrwt>
<totfact> 0.29372256E+07</totfact>
</mgrwt>
</event>
<event>
 4    1  0.2761157E+004  0.4107472E+02  0.7546771E-02  0.1500448E+00
         21   -1    0    0  503  502  0.00000000000E+00  0.00000000000E+00  0.12551363370E+03  0.12551363370E+03  0.00000000000E+00 0.  1.
         21   -1    0    0  501  503 -0.00000000000E+00 -0.00000000000E+00 -0.35878659573E+02  0.35878659573E+02  0.00000000000E+00 0. -1.
          2    1    1    2  501    0  0.20490208289E+02 -0.35598933731E+02 -0.18996437251E+02  0.45254804681E+02  0.00000000000E+00 0. -1.
         -2    1    1    2    0  502 -0.20490208289E+02  0.35598933731E+02  0.10863141138E+03  0.11613748859E+03  0.00000000000E+00 0.  1.
<mgrwt>
<rscale>  2 0.41074721E+02</rscale>
<asrwt>0</asrwt>
<pdfrwt beam="1">  1       21 0.19309790E-01 0.41074721E+02</pdfrwt>
<pdfrwt beam="2">  1       21 0.55197938E-02 0.41074721E+02</pdfrwt>
<totfact> 0.50462472E+06</totfact>
</mgrwt>
</event>
<event>
 4    1  0.2761157E+004  0.4801644E+02  0.7546771E-02  0.1456344E+00
         21   -1    0    0  503  502  0.00000000000E+00  0.00000000000E+00  0.57820351698E+01  0.57820351698E+01  0.00000000000E+00 0.  1.
         21   -1    0    0  501  503 -0.00000000000E+00 -0.00000000000E+00 -0.63300619279E+03  0.63300619279E+03  0.00000000000E+00 0. -1.
          2    1    1    2  501    0 -0.47395057641E+02  0.76997879862E+01 -0.50791073637E+03  0.51017535646E+03  0.00000000000E+00 0.  1.
         -2    1    1    2    0  502  0.47395057641E+02 -0.76997879862E+01 -0.11931342125E+03  0.12861287150E+03  0.00000000000E+00 0. -1.
<mgrwt>
<rscale>  2 0.48016437E+02</rscale>
<asrwt>0</asrwt>
<pdfrwt beam="1">  1       21 0.88954429E-03 0.48016437E+02</pdfrwt>
<pdfrwt beam="2">  1       21 0.97385522E-01 0.48016437E+02</pdfrwt>
<totfact> 0.37402021E+06</totfact>
</mgrwt>
</event>
<event>
 4    1  0.2761157E+004  0.2831912E+02  0.7546771E-02  0.1617448E+00
         21   -1    0    0  501  502  0.00000000000E+00  0.00000000000E+00  0.13569953989E+03  0.13569953989E+03  0.00000000000E+00 0. -1.
         21   -1    0    0  502  503 -0.00000000000E+00 -0.00000000000E+00 -0.26529201300E+02  0.26529201300E+02  0.00000000000E+00 0.  1.
          2    1    1    2  501    0 -0.26358856906E+02  0.10352929892E+02  0.12609611954E+03  0.12923700654E+03  0.00000000000E+00 0. -1.
         -2    1    1    2    0  503  0.26358856906E+02 -0.10352929892E+02 -0.16925780951E+02  0.32991734655E+02  0.00000000000E+00 0.  1.
<mgrwt>
<rscale>  2 0.28319119E+02</rscale>
<asrwt>0</asrwt>
<pdfrwt beam="1">  1       21 0.20876852E-01 0.28319119E+02</pdfrwt>
<pdfrwt beam="2">  1       21 0.40814157E-02 0.28319119E+02</pdfrwt>
<totfact> 0.68103170E+06</totfact>
</mgrwt>
</event>
<event>
 4    1  0.2761157E+004  0.3350700E+02  0.7546771E-02  0.1562273E+00
         21   -1    0    0  503  502  0.00000000000E+00  0.00000000000E+00  0.98879990917E+02  0.98879990917E+02  0.00000000000E+00 0.  1.
         21   -1    0    0  501  503 -0.00000000000E+00 -0.00000000000E+00 -0.42538418943E+02  0.42538418943E+02  0.00000000000E+00 0. -1.
          2    1    1    2  501    0 -0.32423578557E+02 -0.84516822389E+01 -0.32370491039E+02  0.46589355750E+02  0.00000000000E+00 0. -1.
         -2    1    1    2    0  502  0.32423578557E+02  0.84516822389E+01  0.88712063014E+02  0.94829054109E+02  0.00000000000E+00 0.  1.
<mgrwt>
<rscale>  2 0.33507005E+02</rscale>
<asrwt>0</asrwt>
<pdfrwt beam="1">  1       21 0.15212306E-01 0.33507005E+02</pdfrwt>
<pdfrwt beam="2">  1       21 0.65443722E-02 0.33507005E+02</pdfrwt>
<totfact> 0.56634812E+06</totfact>
</mgrwt>
</event>
<event>
 4    1  0.2761157E+004  0.2428875E+02  0.7546771E-02  0.1671433E+00
         21   -1    0    0  501  502  0.00000000000E+00  0.00000000000E+00  0.95411470834E+00  0.95411470834E+00  0.00000000000E+00 0.  1.
         21   -1    0    0  502  503 -0.00000000000E+00 -0.00000000000E+00 -0.70573781067E+03  0.70573781067E+03  0.00000000000E+00 0. -1.
          2    1    1    2  501    0  0.12863362285E+02 -0.20602849647E+02 -0.22802900297E+03  0.22931892573E+03  0.00000000000E+00 0.  1.
         -2    1    1    2    0  503 -0.12863362285E+02  0.20602849647E+02 -0.47675469299E+03  0.47737299965E+03  0.00000000000E+00 0. -1.
<mgrwt>
<rscale>  2 0.24288753E+02</rscale>
<asrwt>0</asrwt>
<pdfrwt beam="1">  1       21 0.14678781E-03 0.24288753E+02</pdfrwt>
<pdfrwt beam="2">  1       21 0.10857436E+00 0.24288753E+02</pdfrwt>
<totfact> 0.38731941E+07</totfact>
</mgrwt>
</event>
<event>
 4    1  0.2761157E+004  0.2187378E+02  0.7546771E-02  0.1710444E+00
         21   -1    0    0  503  502  0.00000000000E+00  0.00000000000E+00  0.42981952305E+03  0.42981952305E+03  0.00000000000E+00 0. -1.
         21   -1    0    0  501  503 -0.00000000000E+00 -0.00000000000E+00 -0.75388059863E+01  0.75388059863E+01  0.00000000000E+00 0.  1.
          2    1    1    2  501    0  0.48881033146E+00  0.21868316907E+02  0.92506502873E+01  0.23749457902E+02  0.00000000000E+00 0.  1.
         -2    1    1    2    0  502 -0.48881033146E+00 -0.21868316907E+02  0.41303006677E+03  0.41360887113E+03  0.00000000000E+00 0. -1.
<mgrwt>
<rscale>  2 0.21873779E+02</rscale>
<asrwt>0</asrwt>
<pdfrwt beam="1">  1       21 0.66126061E-01 0.21873779E+02</pdfrwt>
<pdfrwt beam="2">  1       21 0.11598166E-02 0.21873779E+02</pdfrwt>
<totfact> 0.52247402E+06</totfact>
</mgrwt>
</event>
<event>
 4    1  0.2761157E+004  0.2043806E+02  0.7546771E-02  0.1736754E+00
         21   -1    0    0  503  502  0.00000000000E+00  0.00000000000E+00  0.22669879187E+02  0.22669879187E+02  0.00000000000E+00 0.  1.
         21   -1    0    0  501  503 -0.00000000000E+00 -0.00000000000E+00 -0.19992339219E+02  0.19992339219E+02  0.00000000000E+00 0. -1.
          2    1    1    2  501    0  0.48540389280E+01 -0.19853280723E+02 -0.46319829011E+01  0.20956376475E+02  0.00000000000E+00 0. -1.
         -2    1    1    2    0  502 -0.48540389280E+01  0.19853280723E+02  0.73095228692E+01  0.21705841932E+02  0.00000000000E+00 0.  1.
<mgrwt>
<rscale>  2 0.20438064E+02</rscale>
<asrwt>0</asrwt>
<pdfrwt beam="1">  1       21 0.34876737E-02 0.20438064E+02</pdfrwt>
<pdfrwt beam="2">  1       21 0.30757445E-02 0.20438064E+02</pdfrwt>
<totfact> 0.18753715E+08</totfact>
</mgrwt>
</event>
<event>
 4    1  0.2761157E+004  0.2540440E+02  0.7546771E-02  0.1655260E+00
         21   -1    0    0  503  502  0.00000000000E+00  0.00000000000E+00  0.16979949004E+02  0.16979949004E+02  0.00000000000E+00 0. -1.
         21   -1    0    0  501  503 -0.00000000000E+00 -0.00000000000E+00 -0.91969362941E+02  0.91969362941E+02  0.00000000000E+00 0.  1.
          2    1    1    2  501    0 -0.12532354097E+02 -0.22098043000E+02 -0.79221221631E+02  0.83194863786E+02  0.00000000000E+00 0.  1.
         -2    1    1    2    0  502  0.12532354097E+02  0.22098043000E+02  0.42318076941E+01  0.25754448160E+02  0.00000000000E+00 0. -1.
<mgrwt>
<rscale>  2 0.25404397E+02</rscale>
<asrwt>0</asrwt>
<pdfrwt beam="1">  1       21 0.26122999E-02 0.25404397E+02</pdfrwt>
<pdfrwt beam="2">  1       21 0.14149132E-01 0.25404397E+02</pdfrwt>
<totfact> 0.26417653E+07</totfact>
</mgrwt>
</event>
<event>
 4    1  0.2761157E+004  0.2120445E+02  0.7546771E-02  0.1722385E+00
         21   -1    0    0  501  502  0.00000000000E+00  0.00000000000E+00  0.11842622708E+02  0.11842622708E+02  0.00000000000E+00 0.  1.
         21   -1    0    0  502  503 -0.00000000000E+00 -0.00000000000E+00 -0.23602759942E+03  0.23602759942E+03  0.00000000000E+00 0. -1.
          2    1    1    2  501    0 -0.34757349959E+01 -0.20917647857E+02  0.14378735530E+01  0.21253145791E+02  0.00000000000E+00 0.  1.
         -2    1    1    2    0  503  0.34757349959E+01  0.20917647857E+02 -0.22562285027E+03  0.22661707634E+03  0.00000000000E+00 0. -1.
<mgrwt>
<rscale>  2 0.21204451E+02</rscale>
<asrwt>0</asrwt>
<pdfrwt beam="1">  1       21 0.18219419E-02 0.21204451E+02</pdfrwt>
<pdfrwt beam="2">  1       21 0.36311939E-01 0.21204451E+02</pdfrwt>
<totfact> 0.83627047E+06</totfact>
</mgrwt>
</event>
<event>
 4    1  0.2761157E+004  0.2927967E+02  0.7546771E-02  0.1606190E+00
         21   -1    0    0  503  502  0.00000000000E+00  0.00000000000E+00  0.44797756280E+01  0.44797756280E+01  0.00000000000E+00 0. -1.
         21   -1    0    0  501  503 -0.00000000000E+00 -0.00000000000E+00 -0.19439910947E+03  0.19439910947E+03  0.00000000000E+00 0.  1.
          2    1    1    2  501    0 -0.11316979625E+02  0.27004164075E+02 -0.82548828653E+02  0.87587716132E+02  0.00000000000E+00 0. -1.
         -2    1    1    2    0  502  0.11316979625E+02 -0.27004164075E+02 -0.10737050519E+03  0.11129116896E+03  0.00000000000E+00 0.  1.
<mgrwt>
<rscale>  2 0.29279667E+02</rscale>
<asrwt>0</asrwt>
<pdfrwt beam="1">  1       21 0.68919623E-03 0.29279667E+02</pdfrwt>
<pdfrwt beam="2">  1       21 0.29907556E-01 0.29279667E+02</pdfrwt>
<totfact> 0.55503348E+07</totfact>
</mgrwt>
</event>
<event>
 4    1  0.2761157E+004  0.2647484E+02  0.7546771E-02  0.1640679E+00
         21   -1    0    0  503  502  0.00000000000E+00  0.00000000000E+00  0.29680896427E+03  0.29680896427E+03  0.00000000000E+00 0. -1.
         21   -1    0    0  501  503 -0.00000000000E+00 -0.00000000000E+00 -0.10168717196E+02  0.10168717196E+02  0.00000000000E+00 0.  1.
          2    1    1    2  501    0  0.18037594658E+02 -0.19379423996E+02  0.88296213070E+01  0.27908405686E+02  0.00000000000E+00 0.  1.
         -2    1    1    2    0  502 -0.18037594658E+02  0.19379423996E+02  0.27781062576E+03  0.27906927578E+03  0.00000000000E+00 0. -1.
<mgrwt>
<rscale>  2 0.26474835E+02</rscale>
<asrwt>0</asrwt>
<pdfrwt beam="1">  1       21 0.45662911E-01 0.26474835E+02</pdfrwt>
<pdfrwt beam="2">  1       21 0.15644183E-02 0.26474835E+02</pdfrwt>
<totfact> 0.71037166E+06</totfact>
</mgrwt>
</event>
<event>
 4    1  0.2761157E+004  0.2150501E+02  0.7546771E-02  0.1716956E+00
         21   -1    0    0  503  502  0.00000000000E+00  0.00000000000E+00  0.33627722947E+02  0.33627722947E+02  0.00000000000E+00 0. -1.
         21   -1    0    0  501  503 -0.00000000000E+00 -0.00000000000E+00 -0.24208682532E+02  0.24208682532E+02  0.00000000000E+00 0.  1.
          2    1    1    2  501    0  0.15733397440E+02 -0.14660340666E+02 -0.14295670076E+02  0.25823082047E+02  0.00000000000E+00 0.  1.
         -2    1    1    2    0  502 -0.15733397440E+02  0.14660340666E+02  0.23714710492E+02  0.32013323432E+02  0.00000000000E+00 0. -1.
<mgrwt>
<rscale>  2 0.21505008E+02</rscale>
<asrwt>0</asrwt>
<pdfrwt beam="1">  1       21 0.51734958E-02 0.21505008E+02</pdfrwt>
<pdfrwt beam="2">  1       21 0.37244127E-02 0.21505008E+02</pdfrwt>
<totfact> 0.75955200E+07</totfact>
</mgrwt>
</event>
<event>
 4    1  0.2761157E+004  0.2038898E+02  0.7546771E-02  0.1737701E+00
         21   -1    0    0  501  502  0.00000000000E+00  0.00000000000E+00  0.25683787294E+02  0.25683787294E+02  0.00000000000E+00 0.  1.
         21   -1    0    0  502  503 -0.00000000000E+00 -0.00000000000E+00 -0.33498912020E+02  0.33498912020E+02  0.00000000000E+00 0. -1.
          2    1    1    2  501    0 -0.19835418475E+02 -0.47187672924E+01  0.17365890971E+02  0.26782172430E+02  0.00000000000E+00 0. -1.
         -2    1    1    2    0  503  0.19835418475E+02  0.47187672924E+01 -0.25181015697E+02  0.32400526884E+02  0.00000000000E+00 0.  1.
<mgrwt>
<rscale>  2 0.20388982E+02</rscale>
<asrwt>0</asrwt>
<pdfrwt beam="1">  1       21 0.39513519E-02 0.20388982E+02</pdfrwt>
<pdfrwt beam="2">  1       21 0.51536788E-02 0.20388982E+02</pdfrwt>
<totfact> 0.68620733E+07</totfact>
</mgrwt>
</event>
<event>
 4    1  0.2761157E+004  0.3250232E+02  0.7546771E-02  0.1571969E+00
         21   -1    0    0  503  502  0.00000000000E+00  0.00000000000E+00  0.30838250815E+03  0.30838250815E+03  0.00000000000E+00 0. -1.
         21   -1    0    0  501  503 -0.00000000000E+00 -0.00000000000E+00 -0.45452980533E+01  0.45452980533E+01  0.00000000000E+00 0.  1.
          2    1    1    2  501    0  0.32493001121E+02 -0.77815488896E+00  0.74261720732E+02  0.81062962029E+02  0.00000000000E+00 0.  1.
         -2    1    1    2    0  502 -0.32493001121E+02  0.77815488896E+00  0.22957548936E+03  0.23186484417E+03  0.00000000000E+00 0. -1.
<mgrwt>
<rscale>  2 0.32502318E+02</rscale>
<asrwt>0</asrwt>
<pdfrwt beam="1">  1       21 0.47443446E-01 0.32502318E+02</pdfrwt>
<pdfrwt beam="2">  1       21 0.69927687E-03 0.32502318E+02</pdfrwt>
<totfact> 0.23119867E+07</totfact>
</mgrwt>
</event>
<event>
 4    1  0.2761157E+004  0.2021870E+02  0.7546771E-02  0.1741014E+00
         21   -1    0    0  503  502  0.00000000000E+00  0.00000000000E+00  0.87695587752E+02  0.87695587752E+02  0.00000000000E+00 0.  1.
         21   -1    0    0  501  503 -0.00000000000E+00 -0.00000000000E+00 -0.19164484473E+02  0.19164484473E+02  0.00000000000E+00 0. -1.
          2    1    1    2  501    0  0.18623955379E+01 -0.20132738787E+02 -0.12214342060E+02  0.23621723904E+02  0.00000000000E+00 0. -1.
         -2    1    1    2    0  502 -0.18623955379E+01  0.20132738787E+02  0.80745445340E+02  0.83238348322E+02  0.00000000000E+00 0.  1.
<mgrwt>
<rscale>  2 0.20218697E+02</rscale>
<asrwt>0</asrwt>
<pdfrwt beam="1">  1       21 0.13491629E-01 0.20218697E+02</pdfrwt>
<pdfrwt beam="2">  1       21 0.29483823E-02 0.20218697E+02</pdfrwt>
<totfact> 0.22529114E+07</totfact>
</mgrwt>
</event>
<event>
 4    1  0.2761157E+004  0.2032829E+02  0.7546771E-02  0.1738877E+00
         21   -1    0    0  501  502  0.00000000000E+00  0.00000000000E+00  0.27057451048E+01  0.27057451048E+01  0.00000000000E+00 0. -1.
         21   -1    0    0  502  503 -0.00000000000E+00 -0.00000000000E+00 -0.48955894906E+03  0.48955894906E+03  0.00000000000E+00 0.  1.
          2    1    1    2  501    0  0.15378795622E+02 -0.13294056093E+02 -0.39265460309E+02  0.44215558975E+02  0.00000000000E+00 0. -1.
         -2    1    1    2    0  503 -0.15378795622E+02  0.13294056093E+02 -0.44758774364E+03  0.44804913519E+03  0.00000000000E+00 0.  1.
<mgrwt>
<rscale>  2 0.20328288E+02</rscale>
<asrwt>0</asrwt>
<pdfrwt beam="1">  1       21 0.41626846E-03 0.20328288E+02</pdfrwt>
<pdfrwt beam="2">  1       21 0.75316764E-01 0.20328288E+02</pdfrwt>
<totfact> 0.18060925E+07</totfact>
</mgrwt>
</event>
<event>
 4    1  0.2761157E+004  0.2106738E+02  0.7546771E-02  0.1724899E+00
         21   -1    0    0  501  502  0.00000000000E+00  0.00000000000E+00  0.19634666343E+01  0.19634666343E+01  0.00000000000E+00 0.  1.
         21   -1    0    0  502  503 -0.00000000000E+00 -0.00000000000E+00 -0.26204980424E+03  0.26204980424E+03  0.00000000000E+00 0. -1.
          2    1    1    2  501    0 -0.10447859883E+02 -0.18294171611E+02 -0.81113097329E+02  0.83804349824E+02  0.00000000000E+00 0.  1.
         -2    1    1    2    0  503  0.10447859883E+02  0.18294171611E+02 -0.17897324028E+03  0.18020892105E+03  0.00000000000E+00 0. -1.
<mgrwt>
<rscale>  2 0.21067380E+02</rscale>
<asrwt>0</asrwt>
<pdfrwt beam="1">  1       21 0.30207194E-03 0.21067380E+02</pdfrwt>
<pdfrwt beam="2">  1       21 0.40315335E-01 0.21067380E+02</pdfrwt>
<totfact> 0.99323935E+07</totfact>
</mgrwt>
</event>
<event>
 4    1  0.2761157E+004  0.3031735E+02  0.7546771E-02  0.1594607E+00
         21   -1    0    0  503  502  0.00000000000E+00  0.00000000000E+00  0.47415527359E+01  0.47415527359E+01  0.00000000000E+00 0.  1.
         21   -1    0    0  501  503 -0.00000000000E+00 -0.00000000000E+00 -0.19442544876E+03  0.19442544876E+03  0.00000000000E+00 0. -1.
          2    1    1    2  501    0 -0.17270684392E+02  0.24917169362E+02 -0.10026770305E+03  0.10475091477E+03  0.00000000000E+00 0.  1.
         -2    1    1    2    0  502  0.17270684392E+02 -0.24917169362E+02 -0.89416192970E+02  0.94416086731E+02  0.00000000000E+00 0. -1.
<mgrwt>
<rscale>  2 0.30317353E+02</rscale>
<asrwt>0</asrwt>
<pdfrwt beam="1">  1       21 0.72946956E-03 0.30317353E+02</pdfrwt>
<pdfrwt beam="2">  1       21 0.29911611E-01 0.30317353E+02</pdfrwt>
<totfact> 0.51329777E+07</totfact>
</mgrwt>
</event>
<event>
 4    1  0.2761157E+004  0.3381875E+02  0.7546771E-02  0.1559348E+00
         21   -1    0    0  503  502  0.00000000000E+00  0.00000000000E+00  0.14407782380E+02  0.14407782380E+02  0.00000000000E+00 0.  1.
         21   -1    0    0  501  503 -0.00000000000E+00 -0.00000000000E+00 -0.12290035765E+03  0.12290035765E+03  0.00000000000E+00 0. -1.
          2    1    1    2  501    0  0.33814708184E+02  0.52312619277E+00 -0.95099816484E+02  0.10093405395E+03  0.00000000000E+00 0. -1.
         -2    1    1    2    0  502 -0.33814708184E+02 -0.52312619277E+00 -0.13392758785E+02  0.36374086084E+02  0.00000000000E+00 0.  1.
<mgrwt>
<rscale>  2 0.33818754E+02</rscale>
<asrwt>0</asrwt>
<pdfrwt beam="1">  1       21 0.22165819E-02 0.33818754E+02</pdfrwt>
<pdfrwt beam="2">  1       21 0.18907747E-01 0.33818754E+02</pdfrwt>
<totfact> 0.21839735E+07</totfact>
</mgrwt>
</event>
<event>
 4    1  0.2761157E+004  0.3611423E+02  0.7546771E-02  0.1538923E+00
         21   -1    0    0  503  502  0.00000000000E+00  0.00000000000E+00  0.85160248449E+02  0.85160248449E+02  0.00000000000E+00 0.  1.
         21   -1    0    0  501  503 -0.00000000000E+00 -0.00000000000E+00 -0.17973377570E+02  0.17973377570E+02  0.00000000000E+00 0. -1.
          2    1    1    2  501    0  0.35622324540E+02  0.59403133845E+01  0.13761916351E+02  0.38647479483E+02  0.00000000000E+00 0. -1.
         -2    1    1    2    0  502 -0.35622324540E+02 -0.59403133845E+01  0.53424954528E+02  0.64486146536E+02  0.00000000000E+00 0.  1.
<mgrwt>
<rscale>  2 0.36114226E+02</rscale>
<asrwt>0</asrwt>
<pdfrwt beam="1">  1       21 0.13101576E-01 0.36114226E+02</pdfrwt>
<pdfrwt beam="2">  1       21 0.27651351E-02 0.36114226E+02</pdfrwt>
<totfact> 0.29557395E+07</totfact>
</mgrwt>
</event>
<event>
 4    1  0.2761157E+004  0.2122423E+02  0.7546771E-02  0.1722024E+00
         21   -1    0    0  503  502  0.00000000000E+00  0.00000000000E+00  0.76909417190E+02  0.76909417190E+02  0.00000000000E+00 0. -1.
         21   -1    0    0  501  503 -0.00000000000E+00 -0.00000000000E+00 -0.90721295863E+01  0.90721295863E+01  0.00000000000E+00 0.  1.
          2    1    1    2  501    0  0.13862258289E+02  0.16071895790E+02  0.83262175144E+01  0.22798989830E+02  0.00000000000E+00 0.  1.
         -2    1    1    2    0  502 -0.13862258289E+02 -0.16071895790E+02  0.59511070089E+02  0.63182556947E+02  0.00000000000E+00 0. -1.
<mgrwt>
<rscale>  2 0.21224232E+02</rscale>
<asrwt>0</asrwt>
<pdfrwt beam="1">  1       21 0.11832218E-01 0.21224232E+02</pdfrwt>
<pdfrwt beam="2">  1       21 0.13957123E-02 0.21224232E+02</pdfrwt>
<totfact> 0.89186470E+07</totfact>
</mgrwt>
</event>
<event>
 4    1  0.2761157E+004  0.2520857E+02  0.7546771E-02  0.1658024E+00
         21   -1    0    0  503  502  0.00000000000E+00  0.00000000000E+00  0.41795088435E+02  0.41795088435E+02  0.00000000000E+00 0. -1.
         21   -1    0    0  501  503 -0.00000000000E+00 -0.00000000000E+00 -0.15570948928E+02  0.15570948928E+02  0.00000000000E+00 0.  1.
          2    1    1    2  501    0  0.20186279115E+02 -0.15099210737E+02  0.87116532136E+01  0.26671425367E+02  0.00000000000E+00 0. -1.
         -2    1    1    2    0  502 -0.20186279115E+02  0.15099210737E+02  0.17512486294E+02  0.30694611996E+02  0.00000000000E+00 0.  1.
<mgrwt>
<rscale>  2 0.25208571E+02</rscale>
<asrwt>0</asrwt>
<pdfrwt beam="1">  1       21 0.64300136E-02 0.25208571E+02</pdfrwt>
<pdfrwt beam="2">  1       21 0.23955306E-02 0.25208571E+02</pdfrwt>
<totfact> 0.11144217E+08</totfact>
</mgrwt>
</event>
<event>
 4    1  0.2761157E+004  0.2917293E+02  0.7546771E-02  0.1607415E+00
         21   -1    0    0  501  502  0.00000000000E+00  0.00000000000E+00  0.32962740093E+02  0.32962740093E+02  0.00000000000E+00 0. -1.
         21   -1    0    0  502  503 -0.00000000000E+00 -0.00000000000E+00 -0.40909071936E+02  0.40909071936E+02  0.00000000000E+00 0.  1.
          2    1    1    2  501    0 -0.15103930341E+02  0.24958584594E+02  0.18459811780E+02  0.34522808513E+02  0.00000000000E+00 0. -1.
         -2    1    1    2    0  503  0.15103930341E+02 -0.24958584594E+02 -0.26406143623E+02  0.39349003516E+02  0.00000000000E+00 0.  1.
<mgrwt>
<rscale>  2 0.29172927E+02</rscale>
<asrwt>0</asrwt>
<pdfrwt beam="1">  1       21 0.50711908E-02 0.29172927E+02</pdfrwt>
<pdfrwt beam="2">  1       21 0.62937034E-02 0.29172927E+02</pdfrwt>
<totfact> 0.36646901E+07</totfact>
</mgrwt>
</event>
<event>
 4    1  0.2761157E+004  0.3044261E+02  0.7546771E-02  0.1593247E+00
         21   -1    0    0  501  502  0.00000000000E+00  0.00000000000E+00  0.21756004962E+03  0.21756004962E+03  0.00000000000E+00 0.  1.
         21   -1    0    0  502  503 -0.00000000000E+00 -0.00000000000E+00 -0.47203140396E+01  0.47203140396E+01  0.00000000000E+00 0. -1.
          2    1    1    2  501    0 -0.19739846176E+02  0.23175227545E+02  0.14113572560E+03  0.14438159765E+03  0.00000000000E+00 0.  1.
         -2    1    1    2    0  503  0.19739846176E+02 -0.23175227545E+02  0.71704009980E+02  0.77898766011E+02  0.00000000000E+00 0. -1.
<mgrwt>
<rscale>  2 0.30442613E+02</rscale>
<asrwt>0</asrwt>
<pdfrwt beam="1">  1       21 0.33470769E-01 0.30442613E+02</pdfrwt>
<pdfrwt beam="2">  1       21 0.72620233E-03 0.30442613E+02</pdfrwt>
<totfact> 0.42000927E+07</totfact>
</mgrwt>
</event>
<event>
 4    1  0.2761157E+004  0.2488217E+02  0.7546771E-02  0.1662700E+00
         21   -1    0    0  503  502  0.00000000000E+00  0.00000000000E+00  0.81433731474E+01  0.81433731474E+01  0.00000000000E+00 0.  1.
         21   -1    0    0  501  503 -0.00000000000E+00 -0.00000000000E+00 -0.90655334871E+02  0.90655334871E+02  0.00000000000E+00 0. -1.
          2    1    1    2  501    0  0.13628782807E+02 -0.20817745071E+02 -0.61099152785E+02  0.65971423372E+02  0.00000000000E+00 0. -1.
         -2    1    1    2    0  502 -0.13628782807E+02  0.20817745071E+02 -0.21412808939E+02  0.32827284647E+02  0.00000000000E+00 0.  1.
<mgrwt>
<rscale>  2 0.24882167E+02</rscale>
<asrwt>0</asrwt>
<pdfrwt beam="1">  1       21 0.12528266E-02 0.24882167E+02</pdfrwt>
<pdfrwt beam="2">  1       21 0.13946975E-01 0.24882167E+02</pdfrwt>
<totfact> 0.83205502E+07</totfact>
</mgrwt>
</event>
<event>
 4    1  0.2761157E+004  0.2283564E+02  0.7546771E-02  0.1694188E+00
         21   -1    0    0  501  502  0.00000000000E+00  0.00000000000E+00  0.43756725168E+03  0.43756725168E+03  0.00000000000E+00 0. -1.
         21   -1    0    0  502  503 -0.00000000000E+00 -0.00000000000E+00 -0.15793305405E+01  0.15793305405E+01  0.00000000000E+00 0.  1.
          2    1    1    2  501    0 -0.17397829313E+02  0.14791274827E+02  0.32676912130E+03  0.32756606190E+03  0.00000000000E+00 0. -1.
         -2    1    1    2    0  503  0.17397829313E+02 -0.14791274827E+02  0.10921879984E+03  0.11158052032E+03  0.00000000000E+00 0.  1.
<mgrwt>
<rscale>  2 0.22835636E+02</rscale>
<asrwt>0</asrwt>
<pdfrwt beam="1">  1       21 0.67317942E-01 0.22835636E+02</pdfrwt>
<pdfrwt beam="2">  1       21 0.24297428E-03 0.22835636E+02</pdfrwt>
<totfact> 0.51061815E+07</totfact>
</mgrwt>
</event>
<event>
 4    1  0.2761157E+004  0.2576445E+02  0.7546771E-02  0.1650259E+00
         21   -1    0    0  501  502  0.00000000000E+00  0.00000000000E+00  0.30068507153E+02  0.30068507153E+02  0.00000000000E+00 0.  1.
         21   -1    0    0  502  503 -0.00000000000E+00 -0.00000000000E+00 -0.38567429553E+02  0.38567429553E+02  0.00000000000E+00 0. -1.
          2    1    1    2  501    0 -0.12943375766E+02  0.22277252207E+02  0.18191114272E+02  0.31539238744E+02  0.00000000000E+00 0.  1.
         -2    1    1    2    0  503  0.12943375766E+02 -0.22277252207E+02 -0.26690036672E+02  0.37096697962E+02  0.00000000000E+00 0. -1.
<mgrwt>
<rscale>  2 0.25764451E+02</rscale>
<asrwt>0</asrwt>
<pdfrwt beam="1">  1       21 0.46259242E-02 0.25764451E+02</pdfrwt>
<pdfrwt beam="2">  1       21 0.59334507E-02 0.25764451E+02</pdfrwt>
<totfact> 0.45397444E+07</totfact>
</mgrwt>
</event>
<event>
 4    1  0.2761157E+004  0.3435539E+02  0.7546771E-02  0.1554400E+00
         21   -1    0    0  501  502  0.00000000000E+00  0.00000000000E+00  0.22052330348E+04  0.22052330348E+04  0.00000000000E+00 0. -1.
         21   -1    0    0  502  503 -0.00000000000E+00 -0.00000000000E+00 -0.56432773836E+00  0.56432773836E+00  0.00000000000E+00 0.  1.
          2    1    1    2  501    0  0.29884353556E+01 -0.34225171491E+02  0.13527988206E+04  0.13532349915E+04  0.00000000000E+00 0.  1.
         -2    1    1    2    0  503 -0.29884353556E+01  0.34225171491E+02  0.85186988647E+03  0.85256237108E+03  0.00000000000E+00 0. -1.
<mgrwt>
<rscale>  2 0.34355394E+02</rscale>
<asrwt>0</asrwt>
<pdfrwt beam="1">  1       21 0.33925972E+00 0.34355394E+02</pdfrwt>
<pdfrwt beam="2">  1       21 0.86821418E-04 0.34355394E+02</pdfrwt>
<totfact> 0.37525118E+06</totfact>
</mgrwt>
</event>
<event>
 4    1  0.2761157E+004  0.2286318E+02  0.7546771E-02  0.1693738E+00
         21   -1    0    0  503  502  0.00000000000E+00  0.00000000000E+00  0.10639760699E+02  0.10639760699E+02  0.00000000000E+00 0. -1.
         21   -1    0    0  501  503 -0.00000000000E+00 -0.00000000000E+00 -0.49235079400E+02  0.49235079400E+02  0.00000000000E+00 0.  1.
          2    1    1    2  501    0  0.18157212977E+02 -0.13893901701E+02 -0.20684751701E+02  0.30831539704E+02  0.00000000000E+00 0.  1.
         -2    1    1    2    0  502 -0.18157212977E+02  0.13893901701E+02 -0.17910567001E+02  0.29043300395E+02  0.00000000000E+00 0. -1.
<mgrwt>
<rscale>  2 0.22863178E+02</rscale>
<asrwt>0</asrwt>
<pdfrwt beam="1">  1       21 0.16368862E-02 0.22863178E+02</pdfrwt>
<pdfrwt beam="2">  1       21 0.75746277E-02 0.22863178E+02</pdfrwt>
<totfact> 0.14910273E+08</totfact>
</mgrwt>
</event>
<event>
 4    1  0.2761157E+004  0.2254040E+02  0.7546771E-02  0.1699070E+00
         21   -1    0    0  501  502  0.00000000000E+00  0.00000000000E+00  0.15131720220E+02  0.15131720220E+02  0.00000000000E+00 0. -1.
         21   -1    0    0  502  503 -0.00000000000E+00 -0.00000000000E+00 -0.42909704776E+02  0.42909704776E+02  0.00000000000E+00 0.  1.
          2    1    1    2  501    0 -0.11245755936E+01 -0.22512331130E+02 -0.35436052652E+00  0.22543187320E+02  0.00000000000E+00 0. -1.
         -2    1    1    2    0  503  0.11245755936E+01  0.22512331130E+02 -0.27423624029E+02  0.35498237675E+02  0.00000000000E+00 0.  1.
<mgrwt>
<rscale>  2 0.22540402E+02</rscale>
<asrwt>0</asrwt>
<pdfrwt beam="1">  1       21 0.23279570E-02 0.22540402E+02</pdfrwt>
<pdfrwt beam="2">  1       21 0.66014929E-02 0.22540402E+02</pdfrwt>
<totfact> 0.10813694E+08</totfact>
</mgrwt>
</event>
<event>
 4    1  0.2761157E+004  0.2173847E+02  0.7546771E-02  0.1712815E+00
         21   -1    0    0  501  502  0.00000000000E+00  0.00000000000E+00  0.98333644954E+00  0.98333644954E+00  0.00000000000E+00 0. -1.
         21   -1    0    0  502  503 -0.00000000000E+00 -0.00000000000E+00 -0.48514820374E+03  0.48514820374E+03  0.00000000000E+00 0.  1.
          2    1    1    2  501    0  0.48000571645E-01  0.21738420543E+02 -0.21846835079E+03  0.21954721936E+03  0.00000000000E+00 0. -1.
         -2    1    1    2    0  503 -0.48000571645E-01 -0.21738420543E+02 -0.26569651651E+03  0.26658432083E+03  0.00000000000E+00 0.  1.
<mgrwt>
<rscale>  2 0.21738474E+02</rscale>
<asrwt>0</asrwt>
<pdfrwt beam="1">  1       21 0.15128253E-03 0.21738474E+02</pdfrwt>
<pdfrwt beam="2">  1       21 0.74638184E-01 0.21738474E+02</pdfrwt>
<totfact> 0.80821117E+07</totfact>
</mgrwt>
</event>
<event>
 4    1  0.2761157E+004  0.2023358E+02  0.7546771E-02  0.1740723E+00
         21   -1    0    0  501  502  0.00000000000E+00  0.00000000000E+00  0.33339459259E+02  0.33339459259E+02  0.00000000000E+00 0.  1.
         21   -1    0    0  502  503 -0.00000000000E+00 -0.00000000000E+00 -0.16142485237E+02  0.16142485237E+02  0.00000000000E+00 0. -1.
          2    1    1    2  501    0 -0.18737952184E+02 -0.76345809560E+01  0.20701216532E+02  0.28947159521E+02  0.00000000000E+00 0.  1.
         -2    1    1    2    0  503  0.18737952184E+02  0.76345809560E+01 -0.35042425101E+01  0.20534784975E+02  0.00000000000E+00 0. -1.
<mgrwt>
<rscale>  2 0.20233578E+02</rscale>
<asrwt>0</asrwt>
<pdfrwt beam="1">  1       21 0.51291476E-02 0.20233578E+02</pdfrwt>
<pdfrwt beam="2">  1       21 0.24834593E-02 0.20233578E+02</pdfrwt>
<totfact> 0.14186568E+08</totfact>
</mgrwt>
</event>
<event>
 4    1  0.2761157E+004  0.2280524E+02  0.7546771E-02  0.1694687E+00
         21   -1    0    0  501  502  0.00000000000E+00  0.00000000000E+00  0.14730990033E+03  0.14730990033E+03  0.00000000000E+00 0.  1.
         21   -1    0    0  502  503 -0.00000000000E+00 -0.00000000000E+00 -0.14111067232E+02  0.14111067232E+02  0.00000000000E+00 0. -1.
          2    1    1    2  501    0  0.12625504910E+02 -0.18991457278E+02  0.13648769224E+03  0.13837979967E+03  0.00000000000E+00 0.  1.
         -2    1    1    2    0  503 -0.12625504910E+02  0.18991457278E+02 -0.32888591340E+01  0.23041167899E+02  0.00000000000E+00 0. -1.
<mgrwt>
<rscale>  2 0.22805237E+02</rscale>
<asrwt>0</asrwt>
<pdfrwt beam="1">  1       21 0.22663061E-01 0.22805237E+02</pdfrwt>
<pdfrwt beam="2">  1       21 0.21709335E-02 0.22805237E+02</pdfrwt>
<totfact> 0.15203412E+07</totfact>
</mgrwt>
</event>
<event>
 4    1  0.2761157E+004  0.9228499E+02  0.7546771E-02  0.1297411E+00
         21   -1    0    0  501  502  0.00000000000E+00  0.00000000000E+00  0.59190584843E+03  0.59190584843E+03  0.00000000000E+00 0.  1.
         21   -1    0    0  502  503 -0.00000000000E+00 -0.00000000000E+00 -0.16180812522E+02  0.16180812522E+02  0.00000000000E+00 0. -1.
          2    1    1    2  501    0 -0.92274663398E+02 -0.13804989659E+01  0.38905921616E+03  0.39985446473E+03  0.00000000000E+00 0. -1.
         -2    1    1    2    0  503  0.92274663398E+02  0.13804989659E+01  0.18666581974E+03  0.20823219622E+03  0.00000000000E+00 0.  1.
<mgrwt>
<rscale>  2 0.92284989E+02</rscale>
<asrwt>0</asrwt>
<pdfrwt beam="1">  1       21 0.91062421E-01 0.92284989E+02</pdfrwt>
<pdfrwt beam="2">  1       21 0.24893562E-02 0.92284989E+02</pdfrwt>
<totfact> 0.88496361E+05</totfact>
</mgrwt>
</event>
<event>
 4    1  0.2761157E+004  0.2288351E+02  0.7546771E-02  0.1693405E+00
         21   -1    0    0  503  502  0.00000000000E+00  0.00000000000E+00  0.19103530913E+01  0.19103530913E+01  0.00000000000E+00 0. -1.
         21   -1    0    0  501  503 -0.00000000000E+00 -0.00000000000E+00 -0.44434961171E+03  0.44434961171E+03  0.00000000000E+00 0.  1.
          2    1    1    2  501    0  0.17178998227E+02 -0.15117445602E+02 -0.35932810319E+03  0.36005602465E+03  0.00000000000E+00 0.  1.
         -2    1    1    2    0  502 -0.17178998227E+02  0.15117445602E+02 -0.83111155424E+02  0.86203940151E+02  0.00000000000E+00 0. -1.
<mgrwt>
<rscale>  2 0.22883512E+02</rscale>
<asrwt>0</asrwt>
<pdfrwt beam="1">  1       21 0.29390005E-03 0.22883512E+02</pdfrwt>
<pdfrwt beam="2">  1       21 0.68361577E-01 0.22883512E+02</pdfrwt>
<totfact> 0.37549710E+07</totfact>
</mgrwt>
</event>
<event>
 4    1  0.2761157E+004  0.2414655E+02  0.7546771E-02  0.1673572E+00
         21   -1    0    0  503  502  0.00000000000E+00  0.00000000000E+00  0.73650479769E+01  0.73650479769E+01  0.00000000000E+00 0.  1.
         21   -1    0    0  501  503 -0.00000000000E+00 -0.00000000000E+00 -0.85576539939E+02  0.85576539939E+02  0.00000000000E+00 0. -1.
          2    1    1    2  501    0 -0.91199897928E+01 -0.22358030434E+02 -0.51825421064E+02  0.57174557341E+02  0.00000000000E+00 0.  1.
         -2    1    1    2    0  502  0.91199897928E+01  0.22358030434E+02 -0.26386070898E+02  0.35767030574E+02  0.00000000000E+00 0. -1.
<mgrwt>
<rscale>  2 0.24146547E+02</rscale>
<asrwt>0</asrwt>
<pdfrwt beam="1">  1       21 0.11330842E-02 0.24146547E+02</pdfrwt>
<pdfrwt beam="2">  1       21 0.13165623E-01 0.24146547E+02</pdfrwt>
<totfact> 0.10595303E+08</totfact>
</mgrwt>
</event>
<event>
 4    1  0.2761157E+004  0.2064185E+02  0.7546771E-02  0.1732857E+00
         21   -1    0    0  503  502  0.00000000000E+00  0.00000000000E+00  0.64273290860E+02  0.64273290860E+02  0.00000000000E+00 0.  1.
         21   -1    0    0  501  503 -0.00000000000E+00 -0.00000000000E+00 -0.68709568602E+01  0.68709568602E+01  0.00000000000E+00 0. -1.
          2    1    1    2  501    0 -0.24464696824E+01 -0.20496355112E+02  0.22029771454E+02  0.30189346086E+02  0.00000000000E+00 0.  1.
         -2    1    1    2    0  502  0.24464696824E+01  0.20496355112E+02  0.35372562546E+02  0.40954901634E+02  0.00000000000E+00 0. -1.
<mgrwt>
<rscale>  2 0.20641846E+02</rscale>
<asrwt>0</asrwt>
<pdfrwt beam="1">  1       21 0.98881982E-02 0.20641846E+02</pdfrwt>
<pdfrwt beam="2">  1       21 0.10570703E-02 0.20641846E+02</pdfrwt>
<totfact> 0.18090021E+08</totfact>
</mgrwt>
</event>
<event>
 4    1  0.2761157E+004  0.2990421E+02  0.7546771E-02  0.1599150E+00
         21   -1    0    0  501  502  0.00000000000E+00  0.00000000000E+00  0.22486714370E+02  0.22486714370E+02  0.00000000000E+00 0.  1.
         21   -1    0    0  502  503 -0.00000000000E+00 -0.00000000000E+00 -0.24846657959E+03  0.24846657959E+03  0.00000000000E+00 0. -1.
          2    1    1    2  501    0  0.10152941154E+02 -0.28127918192E+02  0.11172358233E+02  0.31923088578E+02  0.00000000000E+00 0.  1.
         -2    1    1    2    0  503 -0.10152941154E+02  0.28127918192E+02 -0.23715222346E+03  0.23903020539E+03  0.00000000000E+00 0. -1.
<mgrwt>
<rscale>  2 0.29904214E+02</rscale>
<asrwt>0</asrwt>
<pdfrwt beam="1">  1       21 0.34594947E-02 0.29904214E+02</pdfrwt>
<pdfrwt beam="2">  1       21 0.38225626E-01 0.29904214E+02</pdfrwt>
<totfact> 0.29540656E+06</totfact>
</mgrwt>
</event>
<event>
 4    1  0.2761157E+004  0.2171565E+02  0.7546771E-02  0.1713217E+00
         21   -1    0    0  503  502  0.00000000000E+00  0.00000000000E+00  0.21385406179E+03  0.21385406179E+03  0.00000000000E+00 0. -1.
         21   -1    0    0  501  503 -0.00000000000E+00 -0.00000000000E+00 -0.22556409632E+01  0.22556409632E+01  0.00000000000E+00 0.  1.
          2    1    1    2  501    0  0.21621981695E+02 -0.20148129638E+01  0.89624682909E+02  0.92217966527E+02  0.00000000000E+00 0.  1.
         -2    1    1    2    0  502 -0.21621981695E+02  0.20148129638E+01  0.12197373792E+03  0.12389173623E+03  0.00000000000E+00 0. -1.
<mgrwt>
<rscale>  2 0.21715653E+02</rscale>
<asrwt>0</asrwt>
<pdfrwt beam="1">  1       21 0.32900609E-01 0.21715653E+02</pdfrwt>
<pdfrwt beam="2">  1       21 0.34702186E-03 0.21715653E+02</pdfrwt>
<totfact> 0.11932838E+08</totfact>
</mgrwt>
</event>
<event>
 4    1  0.2761157E+004  0.2156106E+02  0.7546771E-02  0.1715956E+00
         21   -1    0    0  501  502  0.00000000000E+00  0.00000000000E+00  0.25239505071E+02  0.25239505071E+02  0.00000000000E+00 0. -1.
         21   -1    0    0  502  503 -0.00000000000E+00 -0.00000000000E+00 -0.83665071750E+02  0.83665071750E+02  0.00000000000E+00 0.  1.
          2    1    1    2  501    0  0.16288893879E+02 -0.14126267333E+02  0.18873603238E+02  0.28654709766E+02  0.00000000000E+00 0. -1.
         -2    1    1    2    0  503 -0.16288893879E+02  0.14126267333E+02 -0.77299169917E+02  0.80249867055E+02  0.00000000000E+00 0.  1.
<mgrwt>
<rscale>  2 0.21561064E+02</rscale>
<asrwt>0</asrwt>
<pdfrwt beam="1">  1       21 0.38830008E-02 0.21561064E+02</pdfrwt>
<pdfrwt beam="2">  1       21 0.12871549E-01 0.21561064E+02</pdfrwt>
<totfact> 0.16102563E+07</totfact>
</mgrwt>
</event>
<event>
 4    1  0.2761157E+004  0.3478133E+02  0.7546771E-02  0.1550551E+00
         21   -1    0    0  503  502  0.00000000000E+00  0.00000000000E+00  0.24333669328E+01  0.24333669328E+01  0.00000000000E+00 0.  1.
         21   -1    0    0  501  503 -0.00000000000E+00 -0.00000000000E+00 -0.55229088827E+03  0.55229088827E+03  0.00000000000E+00 0. -1.
          2    1    1    2  501    0 -0.30885580000E+02 -0.15994433906E+02 -0.36257072035E+03  0.36423518257E+03  0.00000000000E+00 0. -1.
         -2    1    1    2    0  502  0.30885580000E+02  0.15994433906E+02 -0.18728680098E+03  0.19048907263E+03  0.00000000000E+00 0.  1.
<mgrwt>
<rscale>  2 0.34781331E+02</rscale>
<asrwt>0</asrwt>
<pdfrwt beam="1">  1       21 0.37436417E-03 0.34781331E+02</pdfrwt>
<pdfrwt beam="2">  1       21 0.84967823E-01 0.34781331E+02</pdfrwt>
<totfact> 0.17977521E+07</totfact>
</mgrwt>
</event>
<event>
 4    1  0.2761157E+004  0.3803052E+02  0.7546771E-02  0.1523226E+00
         21   -1    0    0  501  502  0.00000000000E+00  0.00000000000E+00  0.10459210921E+02  0.10459210921E+02  0.00000000000E+00 0.  1.
         21   -1    0    0  502  503 -0.00000000000E+00 -0.00000000000E+00 -0.20372960553E+03  0.20372960553E+03  0.00000000000E+00 0. -1.
          2    1    1    2  501    0  0.16556739580E+02 -0.34237327674E+02 -0.35935472441E+02  0.52322828778E+02  0.00000000000E+00 0.  1.
         -2    1    1    2    0  503 -0.16556739580E+02  0.34237327674E+02 -0.15733492216E+03  0.16186598767E+03  0.00000000000E+00 0. -1.
<mgrwt>
<rscale>  2 0.38030517E+02</rscale>
<asrwt>0</asrwt>
<pdfrwt beam="1">  1       21 0.16091094E-02 0.38030517E+02</pdfrwt>
<pdfrwt beam="2">  1       21 0.31343015E-01 0.38030517E+02</pdfrwt>
<totfact> 0.14659290E+07</totfact>
</mgrwt>
</event>
<event>
 4    1  0.2761157E+004  0.2279581E+02  0.7546771E-02  0.1694842E+00
         21   -1    0    0  503  502  0.00000000000E+00  0.00000000000E+00  0.10518633979E+02  0.10518633979E+02  0.00000000000E+00 0.  1.
         21   -1    0    0  501  503 -0.00000000000E+00 -0.00000000000E+00 -0.12880078569E+03  0.12880078569E+03  0.00000000000E+00 0. -1.
          2    1    1    2  501    0 -0.94080293785E+01  0.20763857536E+02 -0.11383353519E+03  0.11609359384E+03  0.00000000000E+00 0. -1.
         -2    1    1    2    0  502  0.94080293785E+01 -0.20763857536E+02 -0.44486165215E+01  0.23225825831E+02  0.00000000000E+00 0.  1.
<mgrwt>
<rscale>  2 0.22795807E+02</rscale>
<asrwt>0</asrwt>
<pdfrwt beam="1">  1       21 0.16182513E-02 0.22795807E+02</pdfrwt>
<pdfrwt beam="2">  1       21 0.19815506E-01 0.22795807E+02</pdfrwt>
<totfact> 0.30162492E+07</totfact>
</mgrwt>
</event>
<event>
 4    1  0.2761157E+004  0.2962166E+02  0.7546771E-02  0.1602309E+00
         21   -1    0    0  503  502  0.00000000000E+00  0.00000000000E+00  0.30963289999E+02  0.30963289999E+02  0.00000000000E+00 0. -1.
         21   -1    0    0  501  503 -0.00000000000E+00 -0.00000000000E+00 -0.32606011633E+02  0.32606011633E+02  0.00000000000E+00 0.  1.
          2    1    1    2  501    0  0.28791115615E+02 -0.69652198438E+01 -0.12320711752E+02  0.32081810484E+02  0.00000000000E+00 0.  1.
         -2    1    1    2    0  502 -0.28791115615E+02  0.69652198438E+01  0.10677990119E+02  0.31487491148E+02  0.00000000000E+00 0. -1.
<mgrwt>
<rscale>  2 0.29621658E+02</rscale>
<asrwt>0</asrwt>
<pdfrwt beam="1">  1       21 0.47635831E-02 0.29621658E+02</pdfrwt>
<pdfrwt beam="2">  1       21 0.50163095E-02 0.29621658E+02</pdfrwt>
<totfact> 0.58668140E+07</totfact>
</mgrwt>
</event>
<event>
 4    1  0.2761157E+004  0.3369693E+02  0.7546771E-02  0.1560486E+00
         21   -1    0    0  501  502  0.00000000000E+00  0.00000000000E+00  0.42074545109E+02  0.42074545109E+02  0.00000000000E+00 0. -1.
         21   -1    0    0  502  503 -0.00000000000E+00 -0.00000000000E+00 -0.73532578239E+02  0.73532578239E+02  0.00000000000E+00 0.  1.
          2    1    1    2  501    0 -0.33184662329E+02  0.58532907264E+01  0.30259777730E+02  0.45289479733E+02  0.00000000000E+00 0. -1.
         -2    1    1    2    0  503  0.33184662329E+02 -0.58532907264E+01 -0.61717810860E+02  0.70317643615E+02  0.00000000000E+00 0.  1.
<mgrwt>
<rscale>  2 0.33696926E+02</rscale>
<asrwt>0</asrwt>
<pdfrwt beam="1">  1       21 0.64730070E-02 0.33696926E+02</pdfrwt>
<pdfrwt beam="2">  1       21 0.11312704E-01 0.33696926E+02</pdfrwt>
<totfact> 0.95791823E+06</totfact>
</mgrwt>
</event>
<event>
 4    1  0.2761157E+004  0.2417152E+02  0.7546771E-02  0.1673195E+00
         21   -1    0    0  503  502  0.00000000000E+00  0.00000000000E+00  0.75457078555E+01  0.75457078555E+01  0.00000000000E+00 0. -1.
         21   -1    0    0  501  503 -0.00000000000E+00 -0.00000000000E+00 -0.11232093657E+03  0.11232093657E+03  0.00000000000E+00 0.  1.
          2    1    1    2  501    0  0.81472523009E+01  0.22757083533E+02 -0.85791394583E+02  0.89131509330E+02  0.00000000000E+00 0. -1.
         -2    1    1    2    0  502 -0.81472523009E+01 -0.22757083533E+02 -0.18983834131E+02  0.30735135095E+02  0.00000000000E+00 0.  1.
<mgrwt>
<rscale>  2 0.24171524E+02</rscale>
<asrwt>0</asrwt>
<pdfrwt beam="1">  1       21 0.11608782E-02 0.24171524E+02</pdfrwt>
<pdfrwt beam="2">  1       21 0.17280143E-01 0.24171524E+02</pdfrwt>
<totfact> 0.64226076E+07</totfact>
</mgrwt>
</event>
<event>
 4    1  0.2761157E+004  0.3199184E+02  0.7546771E-02  0.1577061E+00
         21   -1    0    0  501  502  0.00000000000E+00  0.00000000000E+00  0.53042980163E+02  0.53042980163E+02  0.00000000000E+00 0. -1.
         21   -1    0    0  502  503 -0.00000000000E+00 -0.00000000000E+00 -0.46942983596E+02  0.46942983596E+02  0.00000000000E+00 0.  1.
          2    1    1    2  501    0 -0.17434182095E+01 -0.31944296949E+02  0.41416610924E+02  0.52333672478E+02  0.00000000000E+00 0. -1.
         -2    1    1    2    0  503  0.17434182095E+01  0.31944296949E+02 -0.35316614357E+02  0.47652291280E+02  0.00000000000E+00 0.  1.
<mgrwt>
<rscale>  2 0.31991837E+02</rscale>
<asrwt>0</asrwt>
<pdfrwt beam="1">  1       21 0.81604585E-02 0.31991837E+02</pdfrwt>
<pdfrwt beam="2">  1       21 0.72219975E-02 0.31991837E+02</pdfrwt>
<totfact> 0.13712175E+07</totfact>
</mgrwt>
</event>
<event>
 4    1  0.2761157E+004  0.4539818E+02  0.7546771E-02  0.1471871E+00
         21   -1    0    0  501  502  0.00000000000E+00  0.00000000000E+00  0.55779975328E+01  0.55779975328E+01  0.00000000000E+00 0.  1.
         21   -1    0    0  502  503 -0.00000000000E+00 -0.00000000000E+00 -0.37180281536E+03  0.37180281536E+03  0.00000000000E+00 0. -1.
          2    1    1    2  501    0 -0.40167149962E+02 -0.21156437881E+02 -0.16821906963E+03  0.17423733867E+03  0.00000000000E+00 0. -1.
         -2    1    1    2    0  503  0.40167149962E+02  0.21156437881E+02 -0.19800574820E+03  0.20314347422E+03  0.00000000000E+00 0.  1.
<mgrwt>
<rscale>  2 0.45398181E+02</rscale>
<asrwt>0</asrwt>
<pdfrwt beam="1">  1       21 0.85815324E-03 0.45398181E+02</pdfrwt>
<pdfrwt beam="2">  1       21 0.57200448E-01 0.45398181E+02</pdfrwt>
<totfact> 0.12244601E+07</totfact>
</mgrwt>
</event>
<event>
 4    1  0.2761157E+004  0.2484591E+02  0.7546771E-02  0.1663225E+00
         21   -1    0    0  503  502  0.00000000000E+00  0.00000000000E+00  0.97869280199E+01  0.97869280199E+01  0.00000000000E+00 0.  1.
         21   -1    0    0  501  503 -0.00000000000E+00 -0.00000000000E+00 -0.65473511842E+02  0.65473511842E+02  0.00000000000E+00 0. -1.
          2    1    1    2  501    0 -0.24564060206E+02  0.37317573849E+01 -0.35044335972E+02  0.42958404890E+02  0.00000000000E+00 0.  1.
         -2    1    1    2    0  502  0.24564060206E+02 -0.37317573849E+01 -0.20642247850E+02  0.32302034971E+02  0.00000000000E+00 0. -1.
<mgrwt>
<rscale>  2 0.24845906E+02</rscale>
<asrwt>0</asrwt>
<pdfrwt beam="1">  1       21 0.15056812E-02 0.24845906E+02</pdfrwt>
<pdfrwt beam="2">  1       21 0.10072848E-01 0.24845906E+02</pdfrwt>
<totfact> 0.10861120E+08</totfact>
</mgrwt>
</event>
<event>
 4    1  0.2761157E+004  0.2226563E+02  0.7546771E-02  0.1703698E+00
         21   -1    0    0  501  502  0.00000000000E+00  0.00000000000E+00  0.50162126362E+01  0.50162126362E+01  0.00000000000E+00 0.  1.
         21   -1    0    0  502  503 -0.00000000000E+00 -0.00000000000E+00 -0.10236229759E+03  0.10236229759E+03  0.00000000000E+00 0. -1.
          2    1    1    2  501    0  0.90922712110E+01  0.20324592812E+02 -0.58644768391E+02  0.62729317933E+02  0.00000000000E+00 0. -1.
         -2    1    1    2    0  503 -0.90922712110E+01 -0.20324592812E+02 -0.38701316564E+02  0.44649192294E+02  0.00000000000E+00 0.  1.
<mgrwt>
<rscale>  2 0.22265634E+02</rscale>
<asrwt>0</asrwt>
<pdfrwt beam="1">  1       21 0.77172507E-03 0.22265634E+02</pdfrwt>
<pdfrwt beam="2">  1       21 0.15748045E-01 0.22265634E+02</pdfrwt>
<totfact> 0.13585229E+08</totfact>
</mgrwt>
</event>
<event>
 4    1  0.2761157E+004  0.2214807E+02  0.7546771E-02  0.1705704E+00
         21   -1    0    0  503  502  0.00000000000E+00  0.00000000000E+00  0.18582875162E+01  0.18582875162E+01  0.00000000000E+00 0. -1.
         21   -1    0    0  501  503 -0.00000000000E+00 -0.00000000000E+00 -0.44001725580E+03  0.44001725580E+03  0.00000000000E+00 0.  1.
          2    1    1    2  501    0  0.21820936820E+02  0.37925607270E+01 -0.35882782552E+03  0.35951070244E+03  0.00000000000E+00 0.  1.
         -2    1    1    2    0  502 -0.21820936820E+02 -0.37925607270E+01 -0.79331142767E+02  0.82364840881E+02  0.00000000000E+00 0. -1.
<mgrwt>
<rscale>  2 0.22148065E+02</rscale>
<asrwt>0</asrwt>
<pdfrwt beam="1">  1       21 0.28589037E-03 0.22148065E+02</pdfrwt>
<pdfrwt beam="2">  1       21 0.67694967E-01 0.22148065E+02</pdfrwt>
<totfact> 0.39589731E+07</totfact>
</mgrwt>
</event>
<event>
 4    1  0.2761157E+004  0.4198295E+02  0.7546771E-02  0.1494106E+00
         21   -1    0    0  503  502  0.00000000000E+00  0.00000000000E+00  0.42987785653E+03  0.42987785653E+03  0.00000000000E+00 0. -1.
         21   -1    0    0  501  503 -0.00000000000E+00 -0.00000000000E+00 -0.59911913333E+01  0.59911913333E+01  0.00000000000E+00 0.  1.
          2    1    1    2  501    0  0.19322925829E+01  0.41938458138E+02  0.89504609146E+02  0.98861737209E+02  0.00000000000E+00 0.  1.
         -2    1    1    2    0  502 -0.19322925829E+01 -0.41938458138E+02  0.33438205605E+03  0.33700731066E+03  0.00000000000E+00 0. -1.
<mgrwt>
<rscale>  2 0.41982949E+02</rscale>
<asrwt>0</asrwt>
<pdfrwt beam="1">  1       21 0.66135031E-01 0.41982949E+02</pdfrwt>
<pdfrwt beam="2">  1       21 0.92172208E-03 0.41982949E+02</pdfrwt>
<totfact> 0.80688964E+06</totfact>
</mgrwt>
</event>
<event>
 4    1  0.2761157E+004  0.2180436E+02  0.7546771E-02  0.1711658E+00
         21   -1    0    0  501  502  0.00000000000E+00  0.00000000000E+00  0.85798116512E+01  0.85798116512E+01  0.00000000000E+00 0. -1.
         21   -1    0    0  502  503 -0.00000000000E+00 -0.00000000000E+00 -0.61250996087E+02  0.61250996087E+02  0.00000000000E+00 0.  1.
          2    1    1    2  501    0 -0.97549550094E+01  0.19500539053E+02 -0.37115253239E+02  0.43046163518E+02  0.00000000000E+00 0. -1.
         -2    1    1    2    0  503  0.97549550094E+01 -0.19500539053E+02 -0.15555931196E+02  0.26784644220E+02  0.00000000000E+00 0.  1.
<mgrwt>
<rscale>  2 0.21804361E+02</rscale>
<asrwt>0</asrwt>
<pdfrwt beam="1">  1       21 0.13199710E-02 0.21804361E+02</pdfrwt>
<pdfrwt beam="2">  1       21 0.94232302E-02 0.21804361E+02</pdfrwt>
<totfact> 0.14256892E+08</totfact>
</mgrwt>
</event>
<event>
 4    1  0.2761157E+004  0.2105928E+02  0.7546771E-02  0.1725048E+00
         21   -1    0    0  501  502  0.00000000000E+00  0.00000000000E+00  0.65255792201E+02  0.65255792201E+02  0.00000000000E+00 0.  1.
         21   -1    0    0  502  503 -0.00000000000E+00 -0.00000000000E+00 -0.70190947175E+01  0.70190947175E+01  0.00000000000E+00 0. -1.
          2    1    1    2  501    0  0.10380840664E+02 -0.18322978821E+02  0.35557624715E+02  0.41325997642E+02  0.00000000000E+00 0.  1.
         -2    1    1    2    0  503 -0.10380840664E+02  0.18322978821E+02  0.22679072769E+02  0.30948889276E+02  0.00000000000E+00 0. -1.
<mgrwt>
<rscale>  2 0.21059283E+02</rscale>
<asrwt>0</asrwt>
<pdfrwt beam="1">  1       21 0.10039352E-01 0.21059283E+02</pdfrwt>
<pdfrwt beam="2">  1       21 0.10798608E-02 0.21059283E+02</pdfrwt>
<totfact> 0.17195361E+08</totfact>
</mgrwt>
</event>
<event>
 4    1  0.2761157E+004  0.4554565E+02  0.7546771E-02  0.1470964E+00
         21   -1    0    0  503  502  0.00000000000E+00  0.00000000000E+00  0.20024163990E+02  0.20024163990E+02  0.00000000000E+00 0.  1.
         21   -1    0    0  501  503 -0.00000000000E+00 -0.00000000000E+00 -0.18048471184E+03  0.18048471184E+03  0.00000000000E+00 0. -1.
          2    1    1    2  501    0 -0.45427290972E+02 -0.32813562690E+01 -0.14566633040E+03  0.15262072558E+03  0.00000000000E+00 0. -1.
         -2    1    1    2    0  502  0.45427290972E+02  0.32813562690E+01 -0.14794217443E+02  0.47888150244E+02  0.00000000000E+00 0.  1.
<mgrwt>
<rscale>  2 0.45545648E+02</rscale>
<asrwt>0</asrwt>
<pdfrwt beam="1">  1       21 0.30806408E-02 0.45545648E+02</pdfrwt>
<pdfrwt beam="2">  1       21 0.27766877E-01 0.45545648E+02</pdfrwt>
<totfact> 0.67695611E+06</totfact>
</mgrwt>
</event>
<event>
 4    1  0.2761157E+004  0.2056563E+02  0.7546771E-02  0.1734308E+00
         21   -1    0    0  503  502  0.00000000000E+00  0.00000000000E+00  0.42047874884E+01  0.42047874884E+01  0.00000000000E+00 0.  1.
         21   -1    0    0  501  503 -0.00000000000E+00 -0.00000000000E+00 -0.10384075356E+03  0.10384075356E+03  0.00000000000E+00 0. -1.
          2    1    1    2  501    0 -0.62026376103E+01 -0.19607963480E+02 -0.59381491104E+02  0.62841916193E+02  0.00000000000E+00 0.  1.
         -2    1    1    2    0  502  0.62026376103E+01  0.19607963480E+02 -0.40254474972E+02  0.45203624859E+02  0.00000000000E+00 0. -1.
<mgrwt>
<rscale>  2 0.20565625E+02</rscale>
<asrwt>0</asrwt>
<pdfrwt beam="1">  1       21 0.64689048E-03 0.20565625E+02</pdfrwt>
<pdfrwt beam="2">  1       21 0.15975498E-01 0.20565625E+02</pdfrwt>
<totfact> 0.16821070E+08</totfact>
</mgrwt>
</event>
<event>
 4    1  0.2761157E+004  0.2371953E+02  0.7546771E-02  0.1680105E+00
         21   -1    0    0  501  502  0.00000000000E+00  0.00000000000E+00  0.71707691725E+01  0.71707691725E+01  0.00000000000E+00 0. -1.
         21   -1    0    0  502  503 -0.00000000000E+00 -0.00000000000E+00 -0.37778764406E+03  0.37778764406E+03  0.00000000000E+00 0.  1.
          2    1    1    2  501    0  0.20252520426E+02  0.12347133578E+02 -0.13978369478E+02  0.27532001461E+02  0.00000000000E+00 0. -1.
         -2    1    1    2    0  503 -0.20252520426E+02 -0.12347133578E+02 -0.35663850541E+03  0.35742641177E+03  0.00000000000E+00 0.  1.
<mgrwt>
<rscale>  2 0.23719534E+02</rscale>
<asrwt>0</asrwt>
<pdfrwt beam="1">  1       21 0.11031953E-02 0.23719534E+02</pdfrwt>
<pdfrwt beam="2">  1       21 0.58121172E-01 0.23719534E+02</pdfrwt>
<totfact> 0.73969421E+06</totfact>
</mgrwt>
</event>
<event>
 4    1  0.2761157E+004  0.2139323E+02  0.7546771E-02  0.1718962E+00
         21   -1    0    0  503  502  0.00000000000E+00  0.00000000000E+00  0.10683285899E+04  0.10683285899E+04  0.00000000000E+00 0.  1.
         21   -1    0    0  501  503 -0.00000000000E+00 -0.00000000000E+00 -0.43517739685E+00  0.43517739685E+00  0.00000000000E+00 0. -1.
          2    1    1    2  501    0  0.17152286840E+01 -0.21324362555E+02  0.60064206343E+03  0.60102292703E+03  0.00000000000E+00 0.  1.
         -2    1    1    2    0  502 -0.17152286840E+01  0.21324362555E+02  0.46725134903E+03  0.46774084023E+03  0.00000000000E+00 0. -1.
<mgrwt>
<rscale>  2 0.21393234E+02</rscale>
<asrwt>0</asrwt>
<pdfrwt beam="1">  1       21 0.16435615E+00 0.21393234E+02</pdfrwt>
<pdfrwt beam="2">  1       21 0.66951224E-04 0.21393234E+02</pdfrwt>
<totfact> 0.44216311E+07</totfact>
</mgrwt>
</event>
<event>
 4    1  0.2761157E+004  0.2284765E+02  0.7546771E-02  0.1693992E+00
         21   -1    0    0  503  502  0.00000000000E+00  0.00000000000E+00  0.98397528939E+02  0.98397528939E+02  0.00000000000E+00 0.  1.
         21   -1    0    0  501  503 -0.00000000000E+00 -0.00000000000E+00 -0.56278420422E+01  0.56278420422E+01  0.00000000000E+00 0. -1.
          2    1    1    2  501    0 -0.17408725603E+02  0.14797005315E+02  0.33930449794E+02  0.40905873865E+02  0.00000000000E+00 0. -1.
         -2    1    1    2    0  502  0.17408725603E+02 -0.14797005315E+02  0.58839237102E+02  0.63119497116E+02  0.00000000000E+00 0.  1.
<mgrwt>
<rscale>  2 0.22847650E+02</rscale>
<asrwt>0</asrwt>
<pdfrwt beam="1">  1       21 0.15138080E-01 0.22847650E+02</pdfrwt>
<pdfrwt beam="2">  1       21 0.86582192E-03 0.22847650E+02</pdfrwt>
<totfact> 0.12330899E+08</totfact>
</mgrwt>
</event>
<event>
 4    1  0.2761157E+004  0.2866209E+02  0.7546771E-02  0.1613366E+00
         21   -1    0    0  501  502  0.00000000000E+00  0.00000000000E+00  0.75765807254E+01  0.75765807254E+01  0.00000000000E+00 0. -1.
         21   -1    0    0  502  503 -0.00000000000E+00 -0.00000000000E+00 -0.15746631731E+03  0.15746631731E+03  0.00000000000E+00 0.  1.
          2    1    1    2  501    0  0.23622124934E+02 -0.16233009450E+02 -0.28893802416E+02  0.40698491375E+02  0.00000000000E+00 0. -1.
         -2    1    1    2    0  503 -0.23622124934E+02  0.16233009450E+02 -0.12099593417E+03  0.12434440666E+03  0.00000000000E+00 0.  1.
<mgrwt>
<rscale>  2 0.28662090E+02</rscale>
<asrwt>0</asrwt>
<pdfrwt beam="1">  1       21 0.11656277E-02 0.28662090E+02</pdfrwt>
<pdfrwt beam="2">  1       21 0.24225589E-01 0.28662090E+02</pdfrwt>
<totfact> 0.36637966E+07</totfact>
</mgrwt>
</event>
<event>
 4    1  0.2761157E+004  0.2128620E+02  0.7546771E-02  0.1720897E+00
         21   -1    0    0  503  502  0.00000000000E+00  0.00000000000E+00  0.35900970790E+01  0.35900970790E+01  0.00000000000E+00 0. -1.
         21   -1    0    0  501  503 -0.00000000000E+00 -0.00000000000E+00 -0.26160431964E+03  0.26160431964E+03  0.00000000000E+00 0.  1.
          2    1    1    2  501    0 -0.13600482572E+02  0.16374650617E+02 -0.22439953081E+03  0.22540685823E+03  0.00000000000E+00 0.  1.
         -2    1    1    2    0  502  0.13600482572E+02 -0.16374650617E+02 -0.33614691747E+02  0.39787558486E+02  0.00000000000E+00 0. -1.
<mgrwt>
<rscale>  2 0.21286200E+02</rscale>
<asrwt>0</asrwt>
<pdfrwt beam="1">  1       21 0.55232255E-03 0.21286200E+02</pdfrwt>
<pdfrwt beam="2">  1       21 0.40246824E-01 0.21286200E+02</pdfrwt>
<totfact> 0.41305096E+07</totfact>
</mgrwt>
</event>
<event>
 4    1  0.2761157E+004  0.2323319E+02  0.7546771E-02  0.1687758E+00
         21   -1    0    0  501  502  0.00000000000E+00  0.00000000000E+00  0.47335922869E+01  0.47335922869E+01  0.00000000000E+00 0. -1.
         21   -1    0    0  502  503 -0.00000000000E+00 -0.00000000000E+00 -0.11454289165E+03  0.11454289165E+03  0.00000000000E+00 0.  1.
          2    1    1    2  501    0  0.13789808119E+02  0.18698189630E+02 -0.50921785583E+02  0.55971504807E+02  0.00000000000E+00 0.  1.
         -2    1    1    2    0  503 -0.13789808119E+02 -0.18698189630E+02 -0.58887513780E+02  0.63304979129E+02  0.00000000000E+00 0. -1.
<mgrwt>
<rscale>  2 0.23233190E+02</rscale>
<asrwt>0</asrwt>
<pdfrwt beam="1">  1       21 0.72824501E-03 0.23233190E+02</pdfrwt>
<pdfrwt beam="2">  1       21 0.17621982E-01 0.23233190E+02</pdfrwt>
<totfact> 0.12362985E+08</totfact>
</mgrwt>
</event>
<event>
 4    1  0.2761157E+004  0.2376551E+02  0.7546771E-02  0.1679394E+00
         21   -1    0    0  503  502  0.00000000000E+00  0.00000000000E+00  0.37146665460E+03  0.37146665460E+03  0.00000000000E+00 0. -1.
         21   -1    0    0  501  503 -0.00000000000E+00 -0.00000000000E+00 -0.15682607983E+01  0.15682607983E+01  0.00000000000E+00 0.  1.
          2    1    1    2  501    0  0.11156817410E+02 -0.20983918445E+02  0.15238521707E+03  0.15422727965E+03  0.00000000000E+00 0.  1.
         -2    1    1    2    0  502 -0.11156817410E+02  0.20983918445E+02  0.21751317674E+03  0.21880763575E+03  0.00000000000E+00 0. -1.
<mgrwt>
<rscale>  2 0.23765509E+02</rscale>
<asrwt>0</asrwt>
<pdfrwt beam="1">  1       21 0.57148646E-01 0.23765509E+02</pdfrwt>
<pdfrwt beam="2">  1       21 0.24127119E-03 0.23765509E+02</pdfrwt>
<totfact> 0.72389239E+07</totfact>
</mgrwt>
</event>
<event>
 4    1  0.2761157E+004  0.2560748E+02  0.7546771E-02  0.1652427E+00
         21   -1    0    0  501  502  0.00000000000E+00  0.00000000000E+00  0.34808333137E+03  0.34808333137E+03  0.00000000000E+00 0.  1.
         21   -1    0    0  502  503 -0.00000000000E+00 -0.00000000000E+00 -0.20971460975E+01  0.20971460975E+01  0.00000000000E+00 0. -1.
          2    1    1    2  501    0 -0.21987848203E+02 -0.13125447367E+02  0.22882999808E+03  0.23025835676E+03  0.00000000000E+00 0.  1.
         -2    1    1    2    0  503  0.21987848203E+02  0.13125447367E+02  0.11715618720E+03  0.11992212071E+03  0.00000000000E+00 0. -1.
<mgrwt>
<rscale>  2 0.25607476E+02</rscale>
<asrwt>0</asrwt>
<pdfrwt beam="1">  1       21 0.53551236E-01 0.25607476E+02</pdfrwt>
<pdfrwt beam="2">  1       21 0.32263814E-03 0.25607476E+02</pdfrwt>
<totfact> 0.54827863E+07</totfact>
</mgrwt>
</event>
<event>
 4    1  0.2761157E+004  0.2039366E+02  0.7546771E-02  0.1737611E+00
         21   -1    0    0  503  502  0.00000000000E+00  0.00000000000E+00  0.40748655140E+01  0.40748655140E+01  0.00000000000E+00 0. -1.
         21   -1    0    0  501  503 -0.00000000000E+00 -0.00000000000E+00 -0.62888981135E+03  0.62888981135E+03  0.00000000000E+00 0.  1.
          2    1    1    2  501    0  0.20334695911E+02 -0.15496453659E+01 -0.60207198976E+03  0.60241728238E+03  0.00000000000E+00 0.  1.
         -2    1    1    2    0  502 -0.20334695911E+02  0.15496453659E+01 -0.22742956073E+02  0.30547394479E+02  0.00000000000E+00 0. -1.
<mgrwt>
<rscale>  2 0.20393657E+02</rscale>
<asrwt>0</asrwt>
<pdfrwt beam="1">  1       21 0.62690225E-03 0.20393657E+02</pdfrwt>
<pdfrwt beam="2">  1       21 0.96752299E-01 0.20393657E+02</pdfrwt>
<totfact> 0.58365569E+06</totfact>
</mgrwt>
</event>
<event>
 4    1  0.2761157E+004  0.2061915E+02  0.7546771E-02  0.1733289E+00
         21   -1    0    0  503  502  0.00000000000E+00  0.00000000000E+00  0.21020222537E+03  0.21020222537E+03  0.00000000000E+00 0.  1.
         21   -1    0    0  501  503 -0.00000000000E+00 -0.00000000000E+00 -0.13418777312E+02  0.13418777312E+02  0.00000000000E+00 0. -1.
          2    1    1    2  501    0 -0.55390036089E+01  0.19861233385E+02 -0.46483715282E+01  0.21136615396E+02  0.00000000000E+00 0. -1.
         -2    1    1    2    0  502  0.55390036089E+01 -0.19861233385E+02  0.20143181959E+03  0.20248438729E+03  0.00000000000E+00 0.  1.
<mgrwt>
<rscale>  2 0.20619145E+02</rscale>
<asrwt>0</asrwt>
<pdfrwt beam="1">  1       21 0.32338801E-01 0.20619145E+02</pdfrwt>
<pdfrwt beam="2">  1       21 0.20644274E-02 0.20619145E+02</pdfrwt>
<totfact> 0.85078505E+06</totfact>
</mgrwt>
</event>
<event>
 4    1  0.2761157E+004  0.2517809E+02  0.7546771E-02  0.1658457E+00
         21   -1    0    0  501  502  0.00000000000E+00  0.00000000000E+00  0.37994454258E+03  0.37994454258E+03  0.00000000000E+00 0. -1.
         21   -1    0    0  502  503 -0.00000000000E+00 -0.00000000000E+00 -0.25808442188E+02  0.25808442188E+02  0.00000000000E+00 0.  1.
          2    1    1    2  501    0 -0.18643563517E+02 -0.16921993119E+02  0.37327707185E+03  0.37412525801E+03  0.00000000000E+00 0. -1.
         -2    1    1    2    0  503  0.18643563517E+02  0.16921993119E+02 -0.19140971456E+02  0.31627726760E+02  0.00000000000E+00 0.  1.
<mgrwt>
<rscale>  2 0.25178092E+02</rscale>
<asrwt>0</asrwt>
<pdfrwt beam="1">  1       21 0.58453002E-01 0.25178092E+02</pdfrwt>
<pdfrwt beam="2">  1       21 0.39705299E-02 0.25178092E+02</pdfrwt>
<totfact> 0.10230847E+06</totfact>
</mgrwt>
</event>
<event>
 4    1  0.2761157E+004  0.2064978E+02  0.7546771E-02  0.1732707E+00
         21   -1    0    0  501  502  0.00000000000E+00  0.00000000000E+00  0.37727981254E+01  0.37727981254E+01  0.00000000000E+00 0. -1.
         21   -1    0    0  502  503 -0.00000000000E+00 -0.00000000000E+00 -0.30314431987E+03  0.30314431987E+03  0.00000000000E+00 0.  1.
          2    1    1    2  501    0  0.20471505502E+02 -0.27075780175E+01 -0.28156280521E+02  0.34916896326E+02  0.00000000000E+00 0. -1.
         -2    1    1    2    0  503 -0.20471505502E+02  0.27075780175E+01 -0.27121524122E+03  0.27200022167E+03  0.00000000000E+00 0.  1.
<mgrwt>
<rscale>  2 0.20649782E+02</rscale>
<asrwt>0</asrwt>
<pdfrwt beam="1">  1       21 0.58043043E-03 0.20649782E+02</pdfrwt>
<pdfrwt beam="2">  1       21 0.46637592E-01 0.20649782E+02</pdfrwt>
<totfact> 0.28821011E+07</totfact>
</mgrwt>
</event>
<event>
 4    1  0.2761157E+004  0.2913332E+02  0.7546771E-02  0.1607871E+00
         21   -1    0    0  501  502  0.00000000000E+00  0.00000000000E+00  0.23560663084E+03  0.23560663084E+03  0.00000000000E+00 0.  1.
         21   -1    0    0  502  503 -0.00000000000E+00 -0.00000000000E+00 -0.59542953161E+01  0.59542953161E+01  0.00000000000E+00 0. -1.
          2    1    1    2  501    0  0.26304839728E+02  0.12522219178E+02  0.19073459844E+03  0.19294672221E+03  0.00000000000E+00 0.  1.
         -2    1    1    2    0  503 -0.26304839728E+02 -0.12522219178E+02  0.38917737077E+02  0.48614203948E+02  0.00000000000E+00 0. -1.
<mgrwt>
<rscale>  2 0.29133324E+02</rscale>
<asrwt>0</asrwt>
<pdfrwt beam="1">  1       21 0.36247167E-01 0.29133324E+02</pdfrwt>
<pdfrwt beam="2">  1       21 0.91604562E-03 0.29133324E+02</pdfrwt>
<totfact> 0.25285273E+07</totfact>
</mgrwt>
</event>
<event>
 4    1  0.2761157E+004  0.3482556E+02  0.7546771E-02  0.1550155E+00
         21   -1    0    0  503  502  0.00000000000E+00  0.00000000000E+00  0.40295330583E+03  0.40295330583E+03  0.00000000000E+00 0. -1.
         21   -1    0    0  501  503 -0.00000000000E+00 -0.00000000000E+00 -0.32409567820E+01  0.32409567820E+01  0.00000000000E+00 0.  1.
          2    1    1    2  501    0  0.21613412053E+02 -0.27307141572E+02  0.14561918948E+03  0.14972564212E+03  0.00000000000E+00 0. -1.
         -2    1    1    2    0  502 -0.21613412053E+02  0.27307141572E+02  0.25409315956E+03  0.25646862049E+03  0.00000000000E+00 0.  1.
<mgrwt>
<rscale>  2 0.34825559E+02</rscale>
<asrwt>0</asrwt>
<pdfrwt beam="1">  1       21 0.61992777E-01 0.34825559E+02</pdfrwt>
<pdfrwt beam="2">  1       21 0.49860905E-03 0.34825559E+02</pdfrwt>
<totfact> 0.22749002E+07</totfact>
</mgrwt>
</event>
<event>
 4    1  0.2761157E+004  0.2904332E+02  0.7546771E-02  0.1608911E+00
         21   -1    0    0  503  502  0.00000000000E+00  0.00000000000E+00  0.14421711959E+02  0.14421711959E+02  0.00000000000E+00 0. -1.
         21   -1    0    0  501  503 -0.00000000000E+00 -0.00000000000E+00 -0.62282202490E+02  0.62282202490E+02  0.00000000000E+00 0.  1.
          2    1    1    2  501    0 -0.23661765210E+02 -0.16841479378E+02 -0.33394718742E+02  0.44257449095E+02  0.00000000000E+00 0.  1.
         -2    1    1    2    0  502  0.23661765210E+02  0.16841479378E+02 -0.14465771789E+02  0.32446465354E+02  0.00000000000E+00 0. -1.
<mgrwt>
<rscale>  2 0.29043322E+02</rscale>
<asrwt>0</asrwt>
<pdfrwt beam="1">  1       21 0.22187250E-02 0.29043322E+02</pdfrwt>
<pdfrwt beam="2">  1       21 0.95818771E-02 0.29043322E+02</pdfrwt>
<totfact> 0.67635420E+07</totfact>
</mgrwt>
</event>
<event>
 4    1  0.2761157E+004  0.2079166E+02  0.7546771E-02  0.1730028E+00
         21   -1    0    0  503  502  0.00000000000E+00  0.00000000000E+00  0.86764636034E+01  0.86764636034E+01  0.00000000000E+00 0.  1.
         21   -1    0    0  501  503 -0.00000000000E+00 -0.00000000000E+00 -0.52762080367E+02  0.52762080367E+02  0.00000000000E+00 0. -1.
          2    1    1    2  501    0  0.15642270042E+02  0.13697166992E+02 -0.14793302056E+02  0.25517342758E+02  0.00000000000E+00 0.  1.
         -2    1    1    2    0  502 -0.15642270042E+02 -0.13697166992E+02 -0.29292314708E+02  0.35921201213E+02  0.00000000000E+00 0. -1.
<mgrwt>
<rscale>  2 0.20791657E+02</rscale>
<asrwt>0</asrwt>
<pdfrwt beam="1">  1       21 0.13348405E-02 0.20791657E+02</pdfrwt>
<pdfrwt beam="2">  1       21 0.81172433E-02 0.20791657E+02</pdfrwt>
<totfact> 0.17630215E+08</totfact>
</mgrwt>
</event>
<event>
 4    1  0.2761157E+004  0.4019370E+02  0.7546771E-02  0.1506791E+00
         21   -1    0    0  503  502  0.00000000000E+00  0.00000000000E+00  0.15860823511E+04  0.15860823511E+04  0.00000000000E+00 0. -1.
         21   -1    0    0  501  503 -0.00000000000E+00 -0.00000000000E+00 -0.21172502497E+01  0.21172502497E+01  0.00000000000E+00 0.  1.
          2    1    1    2  501    0 -0.30800091827E+02  0.25824172116E+02  0.21994446323E+03  0.22358689681E+03  0.00000000000E+00 0.  1.
         -2    1    1    2    0  502  0.30800091827E+02 -0.25824172116E+02  0.13640206376E+04  0.13646127045E+04  0.00000000000E+00 0. -1.
<mgrwt>
<rscale>  2 0.40193700E+02</rscale>
<asrwt>0</asrwt>
<pdfrwt beam="1">  1       21 0.24401172E+00 0.40193700E+02</pdfrwt>
<pdfrwt beam="2">  1       21 0.32573208E-03 0.40193700E+02</pdfrwt>
<totfact> 0.16674194E+06</totfact>
</mgrwt>
</event>
<event>
 4    1  0.2761157E+004  0.2367025E+02  0.7546771E-02  0.1680870E+00
         21   -1    0    0  503  502  0.00000000000E+00  0.00000000000E+00  0.48071218921E+02  0.48071218921E+02  0.00000000000E+00 0.  1.
         21   -1    0    0  501  503 -0.00000000000E+00 -0.00000000000E+00 -0.39359852506E+02  0.39359852506E+02  0.00000000000E+00 0. -1.
          2    1    1    2  501    0 -0.84984275987E+01 -0.22092026647E+02 -0.32320592159E+02  0.40061223028E+02  0.00000000000E+00 0. -1.
         -2    1    1    2    0  502  0.84984275987E+01  0.22092026647E+02  0.41031958573E+02  0.47369848399E+02  0.00000000000E+00 0.  1.
<mgrwt>
<rscale>  2 0.23670254E+02</rscale>
<asrwt>0</asrwt>
<pdfrwt beam="1">  1       21 0.73955722E-02 0.23670254E+02</pdfrwt>
<pdfrwt beam="2">  1       21 0.60553619E-02 0.23670254E+02</pdfrwt>
<totfact> 0.20255665E+07</totfact>
</mgrwt>
</event>
<event>
 4    1  0.2761157E+004  0.2002067E+02  0.7546771E-02  0.1744917E+00
         21   -1    0    0  503  502  0.00000000000E+00  0.00000000000E+00  0.10951016542E+02  0.10951016542E+02  0.00000000000E+00 0.  1.
         21   -1    0    0  501  503 -0.00000000000E+00 -0.00000000000E+00 -0.66884839268E+02  0.66884839268E+02  0.00000000000E+00 0. -1.
          2    1    1    2  501    0 -0.19042463461E+02  0.61815822906E+01 -0.54153884091E+02  0.57736215120E+02  0.00000000000E+00 0. -1.
         -2    1    1    2    0  502  0.19042463461E+02 -0.61815822906E+01 -0.17799386356E+01  0.20099640689E+02  0.00000000000E+00 0.  1.
<mgrwt>
<rscale>  2 0.20020674E+02</rscale>
<asrwt>0</asrwt>
<pdfrwt beam="1">  1       21 0.16847718E-02 0.20020674E+02</pdfrwt>
<pdfrwt beam="2">  1       21 0.10289975E-01 0.20020674E+02</pdfrwt>
<totfact> 0.83110042E+07</totfact>
</mgrwt>
</event>
<event>
 4    1  0.2761157E+004  0.2183151E+02  0.7546771E-02  0.1711182E+00
         21   -1    0    0  503  502  0.00000000000E+00  0.00000000000E+00  0.29757508249E+01  0.29757508249E+01  0.00000000000E+00 0.  1.
         21   -1    0    0  501  503 -0.00000000000E+00 -0.00000000000E+00 -0.27293217475E+03  0.27293217475E+03  0.00000000000E+00 0. -1.
          2    1    1    2  501    0  0.20970473388E+02  0.60707733285E+01 -0.22365207543E+03  0.22471507713E+03  0.00000000000E+00 0. -1.
         -2    1    1    2    0  502 -0.20970473388E+02 -0.60707733285E+01 -0.46304348493E+02  0.51192848449E+02  0.00000000000E+00 0.  1.
<mgrwt>
<rscale>  2 0.21831515E+02</rscale>
<asrwt>0</asrwt>
<pdfrwt beam="1">  1       21 0.45780783E-03 0.21831515E+02</pdfrwt>
<pdfrwt beam="2">  1       21 0.41989564E-01 0.21831515E+02</pdfrwt>
<totfact> 0.50572052E+07</totfact>
</mgrwt>
</event>
<event>
 4    1  0.2761157E+004  0.4049497E+02  0.7546771E-02  0.1504600E+00
         21   -1    0    0  503  502  0.00000000000E+00  0.00000000000E+00  0.26582095068E+02  0.26582095068E+02  0.00000000000E+00 0.  1.
         21   -1    0    0  501  503 -0.00000000000E+00 -0.00000000000E+00 -0.66117600820E+02  0.66117600820E+02  0.00000000000E+00 0. -1.
          2    1    1    2  501    0 -0.31860227672E+02  0.24995367696E+02 -0.31762381001E+02  0.51465438504E+02  0.00000000000E+00 0. -1.
         -2    1    1    2    0  502  0.31860227672E+02 -0.24995367696E+02 -0.77731247508E+01  0.41234257384E+02  0.00000000000E+00 0.  1.
<mgrwt>
<rscale>  2 0.40494969E+02</rscale>
<asrwt>0</asrwt>
<pdfrwt beam="1">  1       21 0.40895531E-02 0.40494969E+02</pdfrwt>
<pdfrwt beam="2">  1       21 0.10171939E-01 0.40494969E+02</pdfrwt>
<totfact> 0.24870079E+07</totfact>
</mgrwt>
</event>
<event>
 4    1  0.2761157E+004  0.5145870E+02  0.7546771E-02  0.1437629E+00
         21   -1    0    0  501  502  0.00000000000E+00  0.00000000000E+00  0.51799648969E+03  0.51799648969E+03  0.00000000000E+00 0.  1.
         21   -1    0    0  502  503 -0.00000000000E+00 -0.00000000000E+00 -0.38980514315E+02  0.38980514315E+02  0.00000000000E+00 0. -1.
          2    1    1    2  501    0 -0.30213781625E+02  0.41654830208E+02  0.49909416728E+03  0.50173995784E+03  0.00000000000E+00 0.  1.
         -2    1    1    2    0  503  0.30213781625E+02 -0.41654830208E+02 -0.20078191899E+02  0.55237046171E+02  0.00000000000E+00 0. -1.
<mgrwt>
<rscale>  2 0.51458697E+02</rscale>
<asrwt>0</asrwt>
<pdfrwt beam="1">  1       21 0.79691763E-01 0.51458697E+02</pdfrwt>
<pdfrwt beam="2">  1       21 0.59970026E-02 0.51458697E+02</pdfrwt>
<totfact> 0.28297684E+05</totfact>
</mgrwt>
</event>
<event>
 4    1  0.2761157E+004  0.2615152E+02  0.7546771E-02  0.1644993E+00
         21   -1    0    0  501  502  0.00000000000E+00  0.00000000000E+00  0.57333824761E+00  0.57333824761E+00  0.00000000000E+00 0. -1.
         21   -1    0    0  502  503 -0.00000000000E+00 -0.00000000000E+00 -0.11969395269E+04  0.11969395269E+04  0.00000000000E+00 0.  1.
          2    1    1    2  501    0 -0.14176417821E+02 -0.21975698077E+02 -0.63321451707E+03  0.63375431103E+03  0.00000000000E+00 0.  1.
         -2    1    1    2    0  503  0.14176417821E+02  0.21975698077E+02 -0.56315167155E+03  0.56375855408E+03  0.00000000000E+00 0. -1.
<mgrwt>
<rscale>  2 0.26151522E+02</rscale>
<asrwt>0</asrwt>
<pdfrwt beam="1">  1       21 0.88206084E-04 0.26151522E+02</pdfrwt>
<pdfrwt beam="2">  1       21 0.18414412E+00 0.26151522E+02</pdfrwt>
<totfact> 0.23359777E+07</totfact>
</mgrwt>
</event>
<event>
 4    1  0.2761157E+004  0.2076659E+02  0.7546771E-02  0.1730500E+00
         21   -1    0    0  501  502  0.00000000000E+00  0.00000000000E+00  0.24213424331E+02  0.24213424331E+02  0.00000000000E+00 0.  1.
         21   -1    0    0  502  503 -0.00000000000E+00 -0.00000000000E+00 -0.62763494289E+02  0.62763494289E+02  0.00000000000E+00 0. -1.
          2    1    1    2  501    0  0.15035773846E+01 -0.20712086543E+02  0.17529400465E+02  0.27175929691E+02  0.00000000000E+00 0.  1.
         -2    1    1    2    0  503 -0.15035773846E+01  0.20712086543E+02 -0.56079470423E+02  0.59800988928E+02  0.00000000000E+00 0. -1.
<mgrwt>
<rscale>  2 0.20766590E+02</rscale>
<asrwt>0</asrwt>
<pdfrwt beam="1">  1       21 0.37251422E-02 0.20766590E+02</pdfrwt>
<pdfrwt beam="2">  1       21 0.96559221E-02 0.20766590E+02</pdfrwt>
<totfact> 0.27459115E+07</totfact>
</mgrwt>
</event>
<event>
 4    1  0.2761157E+004  0.2065656E+02  0.7546771E-02  0.1732578E+00
         21   -1    0    0  503  502  0.00000000000E+00  0.00000000000E+00  0.82680834375E+01  0.82680834375E+01  0.00000000000E+00 0. -1.
         21   -1    0    0  501  503 -0.00000000000E+00 -0.00000000000E+00 -0.51732205124E+02  0.51732205124E+02  0.00000000000E+00 0.  1.
          2    1    1    2  501    0  0.13273602064E+02  0.15827342699E+02 -0.23206305301E+02  0.31068084820E+02  0.00000000000E+00 0. -1.
         -2    1    1    2    0  502 -0.13273602064E+02 -0.15827342699E+02 -0.20257816385E+02  0.28932203742E+02  0.00000000000E+00 0.  1.
<mgrwt>
<rscale>  2 0.20656556E+02</rscale>
<asrwt>0</asrwt>
<pdfrwt beam="1">  1       21 0.12720128E-02 0.20656556E+02</pdfrwt>
<pdfrwt beam="2">  1       21 0.79588008E-02 0.20656556E+02</pdfrwt>
<totfact> 0.19536217E+08</totfact>
</mgrwt>
</event>
<event>
 4    1  0.2761157E+004  0.2674990E+02  0.7546771E-02  0.1637069E+00
         21   -1    0    0  501  502  0.00000000000E+00  0.00000000000E+00  0.24273502549E+01  0.24273502549E+01  0.00000000000E+00 0.  1.
         21   -1    0    0  502  503 -0.00000000000E+00 -0.00000000000E+00 -0.58602832296E+03  0.58602832296E+03  0.00000000000E+00 0. -1.
          2    1    1    2  501    0  0.74549397254E+01 -0.25690091200E+02 -0.84381155421E+02  0.88519694432E+02  0.00000000000E+00 0.  1.
         -2    1    1    2    0  503 -0.74549397254E+01  0.25690091200E+02 -0.49921981728E+03  0.49993597878E+03  0.00000000000E+00 0. -1.
<mgrwt>
<rscale>  2 0.26749896E+02</rscale>
<asrwt>0</asrwt>
<pdfrwt beam="1">  1       21 0.37343829E-03 0.26749896E+02</pdfrwt>
<pdfrwt beam="2">  1       21 0.90158255E-01 0.26749896E+02</pdfrwt>
<totfact> 0.15245067E+07</totfact>
</mgrwt>
</event>
<event>
 4    1  0.2761157E+004  0.2106254E+02  0.7546771E-02  0.1724988E+00
         21   -1    0    0  503  502  0.00000000000E+00  0.00000000000E+00  0.48285512232E+02  0.48285512232E+02  0.00000000000E+00 0. -1.
         21   -1    0    0  501  503 -0.00000000000E+00 -0.00000000000E+00 -0.32078823067E+02  0.32078823067E+02  0.00000000000E+00 0.  1.
          2    1    1    2  501    0 -0.96401327677E+01 -0.18726948131E+02 -0.25840271129E+02  0.33336921846E+02  0.00000000000E+00 0.  1.
         -2    1    1    2    0  502  0.96401327677E+01  0.18726948131E+02  0.42046960294E+02  0.47027413453E+02  0.00000000000E+00 0. -1.
<mgrwt>
<rscale>  2 0.21062544E+02</rscale>
<asrwt>0</asrwt>
<pdfrwt beam="1">  1       21 0.74285403E-02 0.21062544E+02</pdfrwt>
<pdfrwt beam="2">  1       21 0.49352036E-02 0.21062544E+02</pdfrwt>
<totfact> 0.27134188E+07</totfact>
</mgrwt>
</event>
<event>
 4    1  0.2761157E+004  0.2774223E+02  0.7546771E-02  0.1624476E+00
         21   -1    0    0  503  502  0.00000000000E+00  0.00000000000E+00  0.92468780645E+01  0.92468780645E+01  0.00000000000E+00 0. -1.
         21   -1    0    0  501  503 -0.00000000000E+00 -0.00000000000E+00 -0.12737699489E+03  0.12737699489E+03  0.00000000000E+00 0.  1.
          2    1    1    2  501    0  0.24238482598E+02  0.13495447677E+02 -0.99280653275E+02  0.10308384578E+03  0.00000000000E+00 0.  1.
         -2    1    1    2    0  502 -0.24238482598E+02 -0.13495447677E+02 -0.18849463554E+02  0.33540027176E+02  0.00000000000E+00 0. -1.
<mgrwt>
<rscale>  2 0.27742227E+02</rscale>
<asrwt>0</asrwt>
<pdfrwt beam="1">  1       21 0.14225966E-02 0.27742227E+02</pdfrwt>
<pdfrwt beam="2">  1       21 0.19596461E-01 0.27742227E+02</pdfrwt>
<totfact> 0.39122396E+07</totfact>
</mgrwt>
</event>
<event>
 4    1  0.2761157E+004  0.2206776E+02  0.7546771E-02  0.1707083E+00
         21   -1    0    0  501  502  0.00000000000E+00  0.00000000000E+00  0.11969599328E+03  0.11969599328E+03  0.00000000000E+00 0. -1.
         21   -1    0    0  502  503 -0.00000000000E+00 -0.00000000000E+00 -0.71677063353E+01  0.71677063353E+01  0.00000000000E+00 0.  1.
          2    1    1    2  501    0  0.21166267485E+02  0.62430123452E+01  0.97974202352E+02  0.10042873298E+03  0.00000000000E+00 0. -1.
         -2    1    1    2    0  503 -0.21166267485E+02 -0.62430123452E+01  0.14554084590E+02  0.26434966628E+02  0.00000000000E+00 0.  1.
<mgrwt>
<rscale>  2 0.22067761E+02</rscale>
<asrwt>0</asrwt>
<pdfrwt beam="1">  1       21 0.18414767E-01 0.22067761E+02</pdfrwt>
<pdfrwt beam="2">  1       21 0.11027241E-02 0.22067761E+02</pdfrwt>
<totfact> 0.60718540E+07</totfact>
</mgrwt>
</event>
<event>
 4    1  0.2761157E+004  0.2424335E+02  0.7546771E-02  0.1672114E+00
         21   -1    0    0  501  502  0.00000000000E+00  0.00000000000E+00  0.36897249853E+02  0.36897249853E+02  0.00000000000E+00 0. -1.
         21   -1    0    0  502  503 -0.00000000000E+00 -0.00000000000E+00 -0.18764680837E+02  0.18764680837E+02  0.00000000000E+00 0.  1.
          2    1    1    2  501    0 -0.47442345037E+00  0.24238709355E+02  0.19885068108E+02  0.31355319205E+02  0.00000000000E+00 0. -1.
         -2    1    1    2    0  503  0.47442345037E+00 -0.24238709355E+02 -0.17524990918E+01  0.24306611485E+02  0.00000000000E+00 0.  1.
<mgrwt>
<rscale>  2 0.24243352E+02</rscale>
<asrwt>0</asrwt>
<pdfrwt beam="1">  1       21 0.56764999E-02 0.24243352E+02</pdfrwt>
<pdfrwt beam="2">  1       21 0.28868740E-02 0.24243352E+02</pdfrwt>
<totfact> 0.10087788E+08</totfact>
</mgrwt>
</event>
<event>
 4    1  0.2761157E+004  0.2003351E+02  0.7546771E-02  0.1744663E+00
         21   -1    0    0  501  502  0.00000000000E+00  0.00000000000E+00  0.94389703235E+01  0.94389703235E+01  0.00000000000E+00 0.  1.
         21   -1    0    0  502  503 -0.00000000000E+00 -0.00000000000E+00 -0.46842435182E+02  0.46842435182E+02  0.00000000000E+00 0. -1.
          2    1    1    2  501    0  0.19507990284E+02  0.45584902725E+01 -0.10153071791E+02  0.22459438668E+02  0.00000000000E+00 0.  1.
         -2    1    1    2    0  503 -0.19507990284E+02 -0.45584902725E+01 -0.27250393067E+02  0.33821966838E+02  0.00000000000E+00 0. -1.
<mgrwt>
<rscale>  2 0.20033510E+02</rscale>
<asrwt>0</asrwt>
<pdfrwt beam="1">  1       21 0.14521493E-02 0.20033510E+02</pdfrwt>
<pdfrwt beam="2">  1       21 0.72065286E-02 0.20033510E+02</pdfrwt>
<totfact> 0.18600447E+08</totfact>
</mgrwt>
</event>
<event>
 4    1  0.2761157E+004  0.2481458E+02  0.7546771E-02  0.1663679E+00
         21   -1    0    0  501  502  0.00000000000E+00  0.00000000000E+00  0.60891220483E+02  0.60891220483E+02  0.00000000000E+00 0. -1.
         21   -1    0    0  502  503 -0.00000000000E+00 -0.00000000000E+00 -0.11429309091E+02  0.11429309091E+02  0.00000000000E+00 0.  1.
          2    1    1    2  501    0 -0.24779559208E+02 -0.13179406249E+01  0.37004787407E+02  0.44554660958E+02  0.00000000000E+00 0. -1.
         -2    1    1    2    0  503  0.24779559208E+02  0.13179406249E+01  0.12457123985E+02  0.27765868616E+02  0.00000000000E+00 0.  1.
<mgrwt>
<rscale>  2 0.24814583E+02</rscale>
<asrwt>0</asrwt>
<pdfrwt beam="1">  1       21 0.93678799E-02 0.24814583E+02</pdfrwt>
<pdfrwt beam="2">  1       21 0.17583553E-02 0.24814583E+02</pdfrwt>
<totfact> 0.96596964E+07</totfact>
</mgrwt>
</event>
<event>
 4    1  0.2761157E+004  0.3974856E+02  0.7546771E-02  0.1510070E+00
         21   -1    0    0  503  502  0.00000000000E+00  0.00000000000E+00  0.47679192442E+01  0.47679192442E+01  0.00000000000E+00 0.  1.
         21   -1    0    0  501  503 -0.00000000000E+00 -0.00000000000E+00 -0.57484166216E+03  0.57484166216E+03  0.00000000000E+00 0. -1.
          2    1    1    2  501    0 -0.25439893732E+02 -0.30541113679E+02 -0.47364273929E+03  0.47530768172E+03  0.00000000000E+00 0. -1.
         -2    1    1    2    0  502  0.25439893732E+02  0.30541113679E+02 -0.96431003625E+02  0.10430189969E+03  0.00000000000E+00 0.  1.
<mgrwt>
<rscale>  2 0.39748557E+02</rscale>
<asrwt>0</asrwt>
<pdfrwt beam="1">  1       21 0.73352604E-03 0.39748557E+02</pdfrwt>
<pdfrwt beam="2">  1       21 0.88437179E-01 0.39748557E+02</pdfrwt>
<totfact> 0.61108508E+06</totfact>
</mgrwt>
</event>
<event>
 4    1  0.2761157E+004  0.2215162E+02  0.7546771E-02  0.1705643E+00
         21   -1    0    0  503  502  0.00000000000E+00  0.00000000000E+00  0.64532947778E+01  0.64532947778E+01  0.00000000000E+00 0. -1.
         21   -1    0    0  501  503 -0.00000000000E+00 -0.00000000000E+00 -0.10049604222E+03  0.10049604222E+03  0.00000000000E+00 0.  1.
          2    1    1    2  501    0 -0.13880378927E+02 -0.17263530014E+02 -0.73402065129E+02  0.76671751988E+02  0.00000000000E+00 0.  1.
         -2    1    1    2    0  502  0.13880378927E+02  0.17263530014E+02 -0.20640682315E+02  0.30277585012E+02  0.00000000000E+00 0. -1.
<mgrwt>
<rscale>  2 0.22151623E+02</rscale>
<asrwt>0</asrwt>
<pdfrwt beam="1">  1       21 0.99281459E-03 0.22151623E+02</pdfrwt>
<pdfrwt beam="2">  1       21 0.15460929E-01 0.22151623E+02</pdfrwt>
<totfact> 0.96059675E+07</totfact>
</mgrwt>
</event>
<event>
 4    1  0.2761157E+004  0.2504315E+02  0.7546771E-02  0.1660383E+00
         21   -1    0    0  503  502  0.00000000000E+00  0.00000000000E+00  0.74893595467E+03  0.74893595467E+03  0.00000000000E+00 0. -1.
         21   -1    0    0  501  503 -0.00000000000E+00 -0.00000000000E+00 -0.11316891469E+01  0.11316891469E+01  0.00000000000E+00 0.  1.
          2    1    1    2  501    0  0.94014597318E+01  0.23211462197E+02  0.18265561508E+03  0.18436440314E+03  0.00000000000E+00 0.  1.
         -2    1    1    2    0  502 -0.94014597318E+01 -0.23211462197E+02  0.56514865044E+03  0.56570324068E+03  0.00000000000E+00 0. -1.
<mgrwt>
<rscale>  2 0.25043151E+02</rscale>
<asrwt>0</asrwt>
<pdfrwt beam="1">  1       21 0.11522052E+00 0.25043151E+02</pdfrwt>
<pdfrwt beam="2">  1       21 0.17410662E-03 0.25043151E+02</pdfrwt>
<totfact> 0.26672376E+07</totfact>
</mgrwt>
</event>
<event>
 4    1  0.2761157E+004  0.2475411E+02  0.7546771E-02  0.1664559E+00
         21   -1    0    0  501  502  0.00000000000E+00  0.00000000000E+00  0.18076695991E+03  0.18076695991E+03  0.00000000000E+00 0.  1.
         21   -1    0    0  502  503 -0.00000000000E+00 -0.00000000000E+00 -0.50807436158E+01  0.50807436158E+01  0.00000000000E+00 0. -1.
          2    1    1    2  501    0  0.24439670728E+02  0.39329939287E+01  0.14145074099E+03  0.14360041112E+03  0.00000000000E+00 0.  1.
         -2    1    1    2    0  503 -0.24439670728E+02 -0.39329939287E+01  0.34235475306E+02  0.42247292410E+02  0.00000000000E+00 0. -1.
<mgrwt>
<rscale>  2 0.24754110E+02</rscale>
<asrwt>0</asrwt>
<pdfrwt beam="1">  1       21 0.27810297E-01 0.24754110E+02</pdfrwt>
<pdfrwt beam="2">  1       21 0.78165300E-03 0.24754110E+02</pdfrwt>
<totfact> 0.50532886E+07</totfact>
</mgrwt>
</event>
<event>
 4    1  0.2761157E+004  0.2012881E+02  0.7546771E-02  0.1742779E+00
         21   -1    0    0  503  502  0.00000000000E+00  0.00000000000E+00  0.40941773642E+02  0.40941773642E+02  0.00000000000E+00 0.  1.
         21   -1    0    0  501  503 -0.00000000000E+00 -0.00000000000E+00 -0.10209770496E+02  0.10209770496E+02  0.00000000000E+00 0. -1.
          2    1    1    2  501    0 -0.11475547130E+02 -0.16537251395E+02  0.19848017385E+02  0.28268580787E+02  0.00000000000E+00 0.  1.
         -2    1    1    2    0  502  0.11475547130E+02  0.16537251395E+02  0.10883985761E+02  0.22882963350E+02  0.00000000000E+00 0. -1.
<mgrwt>
<rscale>  2 0.20128807E+02</rscale>
<asrwt>0</asrwt>
<pdfrwt beam="1">  1       21 0.62987343E-02 0.20128807E+02</pdfrwt>
<pdfrwt beam="2">  1       21 0.15707339E-02 0.20128807E+02</pdfrwt>
<totfact> 0.20541427E+08</totfact>
</mgrwt>
</event>
<event>
 4    1  0.2761157E+004  0.2213982E+02  0.7546771E-02  0.1705845E+00
         21   -1    0    0  503  502  0.00000000000E+00  0.00000000000E+00  0.68416946329E+02  0.68416946329E+02  0.00000000000E+00 0.  1.
         21   -1    0    0  501  503 -0.00000000000E+00 -0.00000000000E+00 -0.73291436096E+01  0.73291436096E+01  0.00000000000E+00 0. -1.
          2    1    1    2  501    0 -0.19826406615E+02  0.98531844548E+01  0.36220736570E+02  0.42451306233E+02  0.00000000000E+00 0. -1.
         -2    1    1    2    0  502  0.19826406615E+02 -0.98531844548E+01  0.24867066149E+02  0.33294783706E+02  0.00000000000E+00 0.  1.
<mgrwt>
<rscale>  2 0.22139820E+02</rscale>
<asrwt>0</asrwt>
<pdfrwt beam="1">  1       21 0.10525684E-01 0.22139820E+02</pdfrwt>
<pdfrwt beam="2">  1       21 0.11275606E-02 0.22139820E+02</pdfrwt>
<totfact> 0.15132109E+08</totfact>
</mgrwt>
</event>
<event>
 4    1  0.2761157E+004  0.3276024E+02  0.7546771E-02  0.1569440E+00
         21   -1    0    0  503  502  0.00000000000E+00  0.00000000000E+00  0.16471008427E+03  0.16471008427E+03  0.00000000000E+00 0.  1.
         21   -1    0    0  501  503 -0.00000000000E+00 -0.00000000000E+00 -0.65774708102E+01  0.65774708102E+01  0.00000000000E+00 0. -1.
          2    1    1    2  501    0  0.26486318586E+02  0.19279741642E+02  0.87352854812E+02  0.93293915953E+02  0.00000000000E+00 0. -1.
         -2    1    1    2    0  502 -0.26486318586E+02 -0.19279741642E+02  0.70779758646E+02  0.77993639126E+02  0.00000000000E+00 0.  1.
<mgrwt>
<rscale>  2 0.32760243E+02</rscale>
<asrwt>0</asrwt>
<pdfrwt beam="1">  1       21 0.25340010E-01 0.32760243E+02</pdfrwt>
<pdfrwt beam="2">  1       21 0.10119187E-02 0.32760243E+02</pdfrwt>
<totfact> 0.43033136E+07</totfact>
</mgrwt>
</event>
<event>
 4    1  0.2761157E+004  0.2380429E+02  0.7546771E-02  0.1678795E+00
         21   -1    0    0  503  502  0.00000000000E+00  0.00000000000E+00  0.21103853351E+02  0.21103853351E+02  0.00000000000E+00 0.  1.
         21   -1    0    0  501  503 -0.00000000000E+00 -0.00000000000E+00 -0.34808988353E+02  0.34808988353E+02  0.00000000000E+00 0. -1.
          2    1    1    2  501    0 -0.76339019571E+01 -0.22547011055E+02 -0.20220290232E+02  0.31233064269E+02  0.00000000000E+00 0. -1.
         -2    1    1    2    0  502  0.76339019571E+01  0.22547011055E+02  0.65151552289E+01  0.24679777435E+02  0.00000000000E+00 0.  1.
<mgrwt>
<rscale>  2 0.23804289E+02</rscale>
<asrwt>0</asrwt>
<pdfrwt beam="1">  1       21 0.32467467E-02 0.23804289E+02</pdfrwt>
<pdfrwt beam="2">  1       21 0.53552290E-02 0.23804289E+02</pdfrwt>
<totfact> 0.91711603E+07</totfact>
</mgrwt>
</event>
<event>
 4    1  0.2761157E+004  0.2255653E+02  0.7546771E-02  0.1698801E+00
         21   -1    0    0  501  502  0.00000000000E+00  0.00000000000E+00  0.82544821289E+01  0.82544821289E+01  0.00000000000E+00 0. -1.
         21   -1    0    0  502  503 -0.00000000000E+00 -0.00000000000E+00 -0.13725465047E+03  0.13725465047E+03  0.00000000000E+00 0.  1.
          2    1    1    2  501    0 -0.19835292600E+02  0.10740490074E+02 -0.10498942873E+02  0.24880208219E+02  0.00000000000E+00 0. -1.
         -2    1    1    2    0  503  0.19835292600E+02 -0.10740490074E+02 -0.11850122547E+03  0.12062892438E+03  0.00000000000E+00 0.  1.
<mgrwt>
<rscale>  2 0.22556528E+02</rscale>
<asrwt>0</asrwt>
<pdfrwt beam="1">  1       21 0.12699205E-02 0.22556528E+02</pdfrwt>
<pdfrwt beam="2">  1       21 0.21116097E-01 0.22556528E+02</pdfrwt>
<totfact> 0.38890106E+07</totfact>
</mgrwt>
</event>
<event>
 4    1  0.2761157E+004  0.2687013E+02  0.7546771E-02  0.1635508E+00
         21   -1    0    0  503  502  0.00000000000E+00  0.00000000000E+00  0.53000295944E+02  0.53000295944E+02  0.00000000000E+00 0. -1.
         21   -1    0    0  501  503 -0.00000000000E+00 -0.00000000000E+00 -0.15662922405E+03  0.15662922405E+03  0.00000000000E+00 0.  1.
          2    1    1    2  501    0 -0.24330297251E+02  0.11403519606E+02 -0.15196748922E+03  0.15432472713E+03  0.00000000000E+00 0.  1.
         -2    1    1    2    0  502  0.24330297251E+02 -0.11403519606E+02  0.48338561111E+02  0.55304792867E+02  0.00000000000E+00 0. -1.
<mgrwt>
<rscale>  2 0.26870125E+02</rscale>
<asrwt>0</asrwt>
<pdfrwt beam="1">  1       21 0.81538919E-02 0.26870125E+02</pdfrwt>
<pdfrwt beam="2">  1       21 0.24096803E-01 0.26870125E+02</pdfrwt>
<totfact> 0.17139575E+06</totfact>
</mgrwt>
</event>
<event>
 4    1  0.2761157E+004  0.2089551E+02  0.7546771E-02  0.1728085E+00
         21   -1    0    0  503  502  0.00000000000E+00  0.00000000000E+00  0.19958017478E+03  0.19958017478E+03  0.00000000000E+00 0.  1.
         21   -1    0    0  501  503 -0.00000000000E+00 -0.00000000000E+00 -0.17355953660E+02  0.17355953660E+02  0.00000000000E+00 0. -1.
          2    1    1    2  501    0  0.16945066335E+02 -0.12226493524E+02 -0.10289622526E+02  0.23291602537E+02  0.00000000000E+00 0. -1.
         -2    1    1    2    0  502 -0.16945066335E+02  0.12226493524E+02  0.19251384364E+03  0.19364452590E+03  0.00000000000E+00 0.  1.
<mgrwt>
<rscale>  2 0.20895512E+02</rscale>
<asrwt>0</asrwt>
<pdfrwt beam="1">  1       21 0.30704641E-01 0.20895512E+02</pdfrwt>
<pdfrwt beam="2">  1       21 0.26701469E-02 0.20895512E+02</pdfrwt>
<totfact> 0.63115043E+06</totfact>
</mgrwt>
</event>
<event>
 4    1  0.2761157E+004  0.2110832E+02  0.7546771E-02  0.1724146E+00
         21   -1    0    0  501  502  0.00000000000E+00  0.00000000000E+00  0.12869102362E+02  0.12869102362E+02  0.00000000000E+00 0.  1.
         21   -1    0    0  502  503 -0.00000000000E+00 -0.00000000000E+00 -0.35696198314E+02  0.35696198314E+02  0.00000000000E+00 0. -1.
          2    1    1    2  501    0  0.15695340380E+02  0.14114442056E+02 -0.72022552320E+01  0.22303220947E+02  0.00000000000E+00 0.  1.
         -2    1    1    2    0  503 -0.15695340380E+02 -0.14114442056E+02 -0.15624840720E+02  0.26262079729E+02  0.00000000000E+00 0. -1.
<mgrwt>
<rscale>  2 0.21108320E+02</rscale>
<asrwt>0</asrwt>
<pdfrwt beam="1">  1       21 0.19798619E-02 0.21108320E+02</pdfrwt>
<pdfrwt beam="2">  1       21 0.54917227E-02 0.21108320E+02</pdfrwt>
<totfact> 0.18256967E+08</totfact>
</mgrwt>
</event>
<event>
 4    1  0.2761157E+004  0.2077318E+02  0.7546771E-02  0.1730376E+00
         21   -1    0    0  503  502  0.00000000000E+00  0.00000000000E+00  0.52671510772E+03  0.52671510772E+03  0.00000000000E+00 0.  1.
         21   -1    0    0  501  503 -0.00000000000E+00 -0.00000000000E+00 -0.87764109142E+00  0.87764109142E+00  0.00000000000E+00 0. -1.
          2    1    1    2  501    0 -0.18721272007E+02  0.90021552330E+01  0.19489060811E+03  0.19599457633E+03  0.00000000000E+00 0.  1.
         -2    1    1    2    0  502  0.18721272007E+02 -0.90021552330E+01  0.33094685852E+03  0.33159817247E+03  0.00000000000E+00 0. -1.
<mgrwt>
<rscale>  2 0.20773176E+02</rscale>
<asrwt>0</asrwt>
<pdfrwt beam="1">  1       21 0.81032841E-01 0.20773176E+02</pdfrwt>
<pdfrwt beam="2">  1       21 0.13502213E-03 0.20773176E+02</pdfrwt>
<totfact> 0.79238131E+07</totfact>
</mgrwt>
</event>
<event>
 4    1  0.2761157E+004  0.3743296E+02  0.7546771E-02  0.1527999E+00
         21   -1    0    0  503  502  0.00000000000E+00  0.00000000000E+00  0.24169419774E+01  0.24169419774E+01  0.00000000000E+00 0. -1.
         21   -1    0    0  501  503 -0.00000000000E+00 -0.00000000000E+00 -0.10495823267E+04  0.10495823267E+04  0.00000000000E+00 0.  1.
          2    1    1    2  501    0  0.25112262511E+02 -0.27759700869E+02 -0.87550577544E+03  0.87630564848E+03  0.00000000000E+00 0.  1.
         -2    1    1    2    0  502 -0.25112262511E+02  0.27759700869E+02 -0.17165960929E+03  0.17569362021E+03  0.00000000000E+00 0. -1.
<mgrwt>
<rscale>  2 0.37432963E+02</rscale>
<asrwt>0</asrwt>
<pdfrwt beam="1">  1       21 0.37183625E-03 0.37432963E+02</pdfrwt>
<pdfrwt beam="2">  1       21 0.16147463E+00 0.37432963E+02</pdfrwt>
<totfact> 0.41546424E+06</totfact>
</mgrwt>
</event>
<event>
 4    1  0.2761157E+004  0.2633097E+02  0.7546771E-02  0.1642589E+00
         21   -1    0    0  503  502  0.00000000000E+00  0.00000000000E+00  0.94994659729E+02  0.94994659729E+02  0.00000000000E+00 0.  1.
         21   -1    0    0  501  503 -0.00000000000E+00 -0.00000000000E+00 -0.76582539769E+01  0.76582539769E+01  0.00000000000E+00 0. -1.
          2    1    1    2  501    0 -0.25794315924E+02 -0.52889675608E+01  0.32543961952E+02  0.41862027798E+02  0.00000000000E+00 0. -1.
         -2    1    1    2    0  502  0.25794315924E+02  0.52889675608E+01  0.54792443800E+02  0.60790885908E+02  0.00000000000E+00 0.  1.
<mgrwt>
<rscale>  2 0.26330969E+02</rscale>
<asrwt>0</asrwt>
<pdfrwt beam="1">  1       21 0.14614562E-01 0.26330969E+02</pdfrwt>
<pdfrwt beam="2">  1       21 0.11781930E-02 0.26330969E+02</pdfrwt>
<totfact> 0.85548064E+07</totfact>
</mgrwt>
</event>
<event>
 4    1  0.2761157E+004  0.3118223E+02  0.7546771E-02  0.1585377E+00
         21   -1    0    0  503  502  0.00000000000E+00  0.00000000000E+00  0.60302136329E+02  0.60302136329E+02  0.00000000000E+00 0.  1.
         21   -1    0    0  501  503 -0.00000000000E+00 -0.00000000000E+00 -0.18041705828E+02  0.18041705828E+02  0.00000000000E+00 0. -1.
          2    1    1    2  501    0 -0.56449180368E+01  0.30667022855E+02  0.83602419823E+01  0.32283510287E+02  0.00000000000E+00 0. -1.
         -2    1    1    2    0  502  0.56449180368E+01 -0.30667022855E+02  0.33900188518E+02  0.46060331870E+02  0.00000000000E+00 0.  1.
<mgrwt>
<rscale>  2 0.31182229E+02</rscale>
<asrwt>0</asrwt>
<pdfrwt beam="1">  1       21 0.92772516E-02 0.31182229E+02</pdfrwt>
<pdfrwt beam="2">  1       21 0.27756471E-02 0.31182229E+02</pdfrwt>
<totfact> 0.51122342E+07</totfact>
</mgrwt>
</event>
<event>
 4    1  0.2761157E+004  0.2480353E+02  0.7546771E-02  0.1663840E+00
         21   -1    0    0  501  502  0.00000000000E+00  0.00000000000E+00  0.20005833325E+03  0.20005833325E+03  0.00000000000E+00 0. -1.
         21   -1    0    0  502  503 -0.00000000000E+00 -0.00000000000E+00 -0.51967819825E+01  0.51967819825E+01  0.00000000000E+00 0.  1.
          2    1    1    2  501    0 -0.23843358019E+02  0.68344263467E+01  0.16300434802E+03  0.16488066163E+03  0.00000000000E+00 0. -1.
         -2    1    1    2    0  503  0.23843358019E+02 -0.68344263467E+01  0.31857203243E+02  0.40374453601E+02  0.00000000000E+00 0.  1.
<mgrwt>
<rscale>  2 0.24803530E+02</rscale>
<asrwt>0</asrwt>
<pdfrwt beam="1">  1       21 0.30778199E-01 0.24803530E+02</pdfrwt>
<pdfrwt beam="2">  1       21 0.79950507E-03 0.24803530E+02</pdfrwt>
<totfact> 0.40640244E+07</totfact>
</mgrwt>
</event>
<event>
 4    1  0.2761157E+004  0.2145743E+02  0.7546771E-02  0.1717808E+00
         21   -1    0    0  501  502  0.00000000000E+00  0.00000000000E+00  0.45343081160E+02  0.45343081160E+02  0.00000000000E+00 0. -1.
         21   -1    0    0  502  503 -0.00000000000E+00 -0.00000000000E+00 -0.10241825037E+02  0.10241825037E+02  0.00000000000E+00 0.  1.
          2    1    1    2  501    0 -0.16817445463E+02 -0.13326464296E+02  0.20121848507E+02  0.29416150494E+02  0.00000000000E+00 0.  1.
         -2    1    1    2    0  503  0.16817445463E+02  0.13326464296E+02  0.14979407615E+02  0.26168755703E+02  0.00000000000E+00 0. -1.
<mgrwt>
<rscale>  2 0.21457426E+02</rscale>
<asrwt>0</asrwt>
<pdfrwt beam="1">  1       21 0.69758585E-02 0.21457426E+02</pdfrwt>
<pdfrwt beam="2">  1       21 0.15756654E-02 0.21457426E+02</pdfrwt>
<totfact> 0.17706831E+08</totfact>
</mgrwt>
</event>
<event>
 4    1  0.2761157E+004  0.6035601E+02  0.7546771E-02  0.1396344E+00
         21   -1    0    0  501  502  0.00000000000E+00  0.00000000000E+00  0.56745289218E+01  0.56745289218E+01  0.00000000000E+00 0.  1.
         21   -1    0    0  502  503 -0.00000000000E+00 -0.00000000000E+00 -0.69841791357E+03  0.69841791357E+03  0.00000000000E+00 0. -1.
          2    1    1    2  501    0 -0.55922542952E+02 -0.22704992138E+02 -0.24628273003E+03  0.25357056333E+03  0.00000000000E+00 0.  1.
         -2    1    1    2    0  503  0.55922542952E+02  0.22704992138E+02 -0.44646065462E+03  0.45052187916E+03  0.00000000000E+00 0. -1.
<mgrwt>
<rscale>  2 0.60356006E+02</rscale>
<asrwt>0</asrwt>
<pdfrwt beam="1">  1       21 0.87300505E-03 0.60356006E+02</pdfrwt>
<pdfrwt beam="2">  1       21 0.10744884E+00 0.60356006E+02</pdfrwt>
<totfact> 0.31195826E+06</totfact>
</mgrwt>
</event>
<event>
 4    1  0.2761157E+004  0.3624492E+02  0.7546771E-02  0.1537815E+00
         21   -1    0    0  503  502  0.00000000000E+00  0.00000000000E+00  0.12334626630E+03  0.12334626630E+03  0.00000000000E+00 0. -1.
         21   -1    0    0  501  503 -0.00000000000E+00 -0.00000000000E+00 -0.14993311956E+02  0.14993311956E+02  0.00000000000E+00 0.  1.
          2    1    1    2  501    0  0.19804419589E+02 -0.30355870517E+02  0.16949703002E+02  0.40012327375E+02  0.00000000000E+00 0.  1.
         -2    1    1    2    0  502 -0.19804419589E+02  0.30355870517E+02  0.91403251347E+02  0.98327250886E+02  0.00000000000E+00 0. -1.
<mgrwt>
<rscale>  2 0.36244916E+02</rscale>
<asrwt>0</asrwt>
<pdfrwt beam="1">  1       21 0.18976348E-01 0.36244916E+02</pdfrwt>
<pdfrwt beam="2">  1       21 0.23066635E-02 0.36244916E+02</pdfrwt>
<totfact> 0.20635905E+07</totfact>
</mgrwt>
</event>
<event>
 4    1  0.2761157E+004  0.2190125E+02  0.7546771E-02  0.1709966E+00
         21   -1    0    0  501  502  0.00000000000E+00  0.00000000000E+00  0.44506158560E+03  0.44506158560E+03  0.00000000000E+00 0.  1.
         21   -1    0    0  502  503 -0.00000000000E+00 -0.00000000000E+00 -0.13593599158E+01  0.13593599158E+01  0.00000000000E+00 0. -1.
          2    1    1    2  501    0 -0.19704968127E+02  0.95592240135E+01  0.32344611251E+03  0.32418675517E+03  0.00000000000E+00 0.  1.
         -2    1    1    2    0  503  0.19704968127E+02 -0.95592240135E+01  0.12025611317E+03  0.12223419034E+03  0.00000000000E+00 0. -1.
<mgrwt>
<rscale>  2 0.21901245E+02</rscale>
<asrwt>0</asrwt>
<pdfrwt beam="1">  1       21 0.68470897E-01 0.21901245E+02</pdfrwt>
<pdfrwt beam="2">  1       21 0.20913265E-03 0.21901245E+02</pdfrwt>
<totfact> 0.60675221E+07</totfact>
</mgrwt>
</event>
<event>
 4    1  0.2761157E+004  0.2023684E+02  0.7546771E-02  0.1740659E+00
         21   -1    0    0  503  502  0.00000000000E+00  0.00000000000E+00  0.15004148195E+01  0.15004148195E+01  0.00000000000E+00 0.  1.
         21   -1    0    0  501  503 -0.00000000000E+00 -0.00000000000E+00 -0.58723650202E+03  0.58723650202E+03  0.00000000000E+00 0. -1.
          2    1    1    2  501    0  0.93268613187E+01 -0.17959378659E+02 -0.50822136650E+03  0.50862411169E+03  0.00000000000E+00 0. -1.
         -2    1    1    2    0  502 -0.93268613187E+01  0.17959378659E+02 -0.77514720701E+02  0.80112805152E+02  0.00000000000E+00 0.  1.
<mgrwt>
<rscale>  2 0.20236838E+02</rscale>
<asrwt>0</asrwt>
<pdfrwt beam="1">  1       21 0.23083292E-03 0.20236838E+02</pdfrwt>
<pdfrwt beam="2">  1       21 0.90344129E-01 0.20236838E+02</pdfrwt>
<totfact> 0.29004773E+07</totfact>
</mgrwt>
</event>
<event>
 4    1  0.2761157E+004  0.2214058E+02  0.7546771E-02  0.1705832E+00
         21   -1    0    0  503  502  0.00000000000E+00  0.00000000000E+00  0.15548954595E+01  0.15548954595E+01  0.00000000000E+00 0.  1.
         21   -1    0    0  501  503 -0.00000000000E+00 -0.00000000000E+00 -0.55958825820E+03  0.55958825820E+03  0.00000000000E+00 0. -1.
          2    1    1    2  501    0  0.71050265611E+00  0.22129172465E+02 -0.46440878271E+03  0.46493625644E+03  0.00000000000E+00 0. -1.
         -2    1    1    2    0  502 -0.71050265611E+00 -0.22129172465E+02 -0.93624580027E+02  0.96206897223E+02  0.00000000000E+00 0.  1.
<mgrwt>
<rscale>  2 0.22140576E+02</rscale>
<asrwt>0</asrwt>
<pdfrwt beam="1">  1       21 0.23921456E-03 0.22140576E+02</pdfrwt>
<pdfrwt beam="2">  1       21 0.86090548E-01 0.22140576E+02</pdfrwt>
<totfact> 0.31115338E+07</totfact>
</mgrwt>
</event>
<event>
 4    1  0.2761157E+004  0.2745959E+02  0.7546771E-02  0.1627996E+00
         21   -1    0    0  503  502  0.00000000000E+00  0.00000000000E+00  0.94190116169E+02  0.94190116169E+02  0.00000000000E+00 0. -1.
         21   -1    0    0  501  503 -0.00000000000E+00 -0.00000000000E+00 -0.25036054317E+02  0.25036054317E+02  0.00000000000E+00 0.  1.
          2    1    1    2  501    0 -0.26959270412E+02  0.52179072480E+01 -0.14590049853E+02  0.31094989498E+02  0.00000000000E+00 0.  1.
         -2    1    1    2    0  502  0.26959270412E+02 -0.52179072480E+01  0.83744111705E+02  0.88131180988E+02  0.00000000000E+00 0. -1.
<mgrwt>
<rscale>  2 0.27459585E+02</rscale>
<asrwt>0</asrwt>
<pdfrwt beam="1">  1       21 0.14490787E-01 0.27459585E+02</pdfrwt>
<pdfrwt beam="2">  1       21 0.38517007E-02 0.27459585E+02</pdfrwt>
<totfact> 0.14006952E+07</totfact>
</mgrwt>
</event>
<event>
 4    1  0.2761157E+004  0.2242222E+02  0.7546771E-02  0.1701051E+00
         21   -1    0    0  503  502  0.00000000000E+00  0.00000000000E+00  0.38128068268E+02  0.38128068268E+02  0.00000000000E+00 0. -1.
         21   -1    0    0  501  503 -0.00000000000E+00 -0.00000000000E+00 -0.17502182270E+02  0.17502182270E+02  0.00000000000E+00 0.  1.
          2    1    1    2  501    0 -0.21932497025E+02  0.46606592060E+01 -0.34999776653E+01  0.22693743932E+02  0.00000000000E+00 0.  1.
         -2    1    1    2    0  502  0.21932497025E+02 -0.46606592060E+01  0.24125863663E+02  0.32936506607E+02  0.00000000000E+00 0. -1.
<mgrwt>
<rscale>  2 0.22422225E+02</rscale>
<asrwt>0</asrwt>
<pdfrwt beam="1">  1       21 0.58658566E-02 0.22422225E+02</pdfrwt>
<pdfrwt beam="2">  1       21 0.26926434E-02 0.22422225E+02</pdfrwt>
<totfact> 0.10426661E+08</totfact>
</mgrwt>
</event>
<event>
 4    1  0.2761157E+004  0.2185113E+02  0.7546771E-02  0.1710839E+00
         21   -1    0    0  503  502  0.00000000000E+00  0.00000000000E+00  0.21761365679E+03  0.21761365679E+03  0.00000000000E+00 0. -1.
         21   -1    0    0  501  503 -0.00000000000E+00 -0.00000000000E+00 -0.26961243207E+01  0.26961243207E+01  0.00000000000E+00 0.  1.
          2    1    1    2  501    0 -0.55336214206E+01 -0.21138853214E+02  0.59926954937E+02  0.63786456315E+02  0.00000000000E+00 0.  1.
         -2    1    1    2    0  502  0.55336214206E+01  0.21138853214E+02  0.15499057753E+03  0.15652332480E+03  0.00000000000E+00 0. -1.
<mgrwt>
<rscale>  2 0.21851135E+02</rscale>
<asrwt>0</asrwt>
<pdfrwt beam="1">  1       21 0.33479010E-01 0.21851135E+02</pdfrwt>
<pdfrwt beam="2">  1       21 0.41478853E-03 0.21851135E+02</pdfrwt>
<totfact> 0.89185357E+07</totfact>
</mgrwt>
</event>
<event>
 4    1  0.2761157E+004  0.2026134E+02  0.7546771E-02  0.1740180E+00
         21   -1    0    0  501  502  0.00000000000E+00  0.00000000000E+00  0.10797675708E+02  0.10797675708E+02  0.00000000000E+00 0.  1.
         21   -1    0    0  502  503 -0.00000000000E+00 -0.00000000000E+00 -0.76649018550E+02  0.76649018550E+02  0.00000000000E+00 0. -1.
          2    1    1    2  501    0 -0.51655823179E+01 -0.19591798026E+02 -0.18857953238E+01  0.20348906963E+02  0.00000000000E+00 0.  1.
         -2    1    1    2    0  503  0.51655823179E+01  0.19591798026E+02 -0.63965547519E+02  0.67097787295E+02  0.00000000000E+00 0. -1.
<mgrwt>
<rscale>  2 0.20261337E+02</rscale>
<asrwt>0</asrwt>
<pdfrwt beam="1">  1       21 0.16611810E-02 0.20261337E+02</pdfrwt>
<pdfrwt beam="2">  1       21 0.11792156E-01 0.20261337E+02</pdfrwt>
<totfact> 0.68004646E+07</totfact>
</mgrwt>
</event>
<event>
 4    1  0.2761157E+004  0.2831001E+02  0.7546771E-02  0.1617557E+00
         21   -1    0    0  503  502  0.00000000000E+00  0.00000000000E+00  0.31226849128E+01  0.31226849128E+01  0.00000000000E+00 0.  1.
         21   -1    0    0  501  503 -0.00000000000E+00 -0.00000000000E+00 -0.48886053823E+03  0.48886053823E+03  0.00000000000E+00 0. -1.
          2    1    1    2  501    0 -0.28045840348E+02 -0.38584383615E+01 -0.41240530152E+03  0.41337584524E+03  0.00000000000E+00 0. -1.
         -2    1    1    2    0  502  0.28045840348E+02  0.38584383615E+01 -0.73332551797E+02  0.78607377901E+02  0.00000000000E+00 0.  1.
<mgrwt>
<rscale>  2 0.28310011E+02</rscale>
<asrwt>0</asrwt>
<pdfrwt beam="1">  1       21 0.48041287E-03 0.28310011E+02</pdfrwt>
<pdfrwt beam="2">  1       21 0.75209344E-01 0.28310011E+02</pdfrwt>
<totfact> 0.15590330E+07</totfact>
</mgrwt>
</event>
<event>
 4    1  0.2761157E+004  0.3517102E+02  0.7546771E-02  0.1547087E+00
         21   -1    0    0  503  502  0.00000000000E+00  0.00000000000E+00  0.75016407008E+01  0.75016407008E+01  0.00000000000E+00 0.  1.
         21   -1    0    0  501  503 -0.00000000000E+00 -0.00000000000E+00 -0.21505345676E+03  0.21505345676E+03  0.00000000000E+00 0. -1.
          2    1    1    2  501    0  0.18673400323E+02  0.29804446867E+02 -0.15751571412E+03  0.16139455111E+03  0.00000000000E+00 0. -1.
         -2    1    1    2    0  502 -0.18673400323E+02 -0.29804446867E+02 -0.50036101931E+02  0.61160546344E+02  0.00000000000E+00 0.  1.
<mgrwt>
<rscale>  2 0.35171024E+02</rscale>
<asrwt>0</asrwt>
<pdfrwt beam="1">  1       21 0.11540986E-02 0.35171024E+02</pdfrwt>
<pdfrwt beam="2">  1       21 0.33085145E-01 0.35171024E+02</pdfrwt>
<totfact> 0.21836892E+07</totfact>
</mgrwt>
</event>
<event>
 4    1  0.2761157E+004  0.3425980E+02  0.7546771E-02  0.1555274E+00
         21   -1    0    0  501  502  0.00000000000E+00  0.00000000000E+00  0.74122844560E+02  0.74122844560E+02  0.00000000000E+00 0.  1.
         21   -1    0    0  502  503 -0.00000000000E+00 -0.00000000000E+00 -0.21184382686E+02  0.21184382686E+02  0.00000000000E+00 0. -1.
          2    1    1    2  501    0  0.29226342508E+02  0.17876102980E+02  0.50415638131E+02  0.60954661203E+02  0.00000000000E+00 0.  1.
         -2    1    1    2    0  503 -0.29226342508E+02 -0.17876102980E+02  0.25228237425E+01  0.34352566044E+02  0.00000000000E+00 0. -1.
<mgrwt>
<rscale>  2 0.34259804E+02</rscale>
<asrwt>0</asrwt>
<pdfrwt beam="1">  1       21 0.11403514E-01 0.34259804E+02</pdfrwt>
<pdfrwt beam="2">  1       21 0.32591358E-02 0.34259804E+02</pdfrwt>
<totfact> 0.28595429E+07</totfact>
</mgrwt>
</event>
<event>
 4    1  0.2761157E+004  0.4315866E+02  0.7546771E-02  0.1486175E+00
         21   -1    0    0  503  502  0.00000000000E+00  0.00000000000E+00  0.66187507626E+03  0.66187507626E+03  0.00000000000E+00 0. -1.
         21   -1    0    0  501  503 -0.00000000000E+00 -0.00000000000E+00 -0.30439289870E+01  0.30439289870E+01  0.00000000000E+00 0.  1.
          2    1    1    2  501    0  0.42597831676E+02  0.69350442100E+01  0.23808860878E+03  0.24196870817E+03  0.00000000000E+00 0.  1.
         -2    1    1    2    0  502 -0.42597831676E+02 -0.69350442100E+01  0.42074253849E+03  0.42295029707E+03  0.00000000000E+00 0. -1.
<mgrwt>
<rscale>  2 0.43158662E+02</rscale>
<asrwt>0</asrwt>
<pdfrwt beam="1">  1       21 0.10182682E+00 0.43158662E+02</pdfrwt>
<pdfrwt beam="2">  1       21 0.46829729E-03 0.43158662E+02</pdfrwt>
<totfact> 0.88670552E+06</totfact>
</mgrwt>
</event>
<event>
 4    1  0.2761157E+004  0.2372803E+02  0.7546771E-02  0.1679974E+00
         21   -1    0    0  503  502  0.00000000000E+00  0.00000000000E+00  0.57782311496E+00  0.57782311496E+00  0.00000000000E+00 0. -1.
         21   -1    0    0  501  503 -0.00000000000E+00 -0.00000000000E+00 -0.10059402090E+04  0.10059402090E+04  0.00000000000E+00 0.  1.
          2    1    1    2  501    0 -0.23722119387E+02 -0.52977817828E+00 -0.41354141887E+03  0.41422158893E+03  0.00000000000E+00 0. -1.
         -2    1    1    2    0  502  0.23722119387E+02  0.52977817828E+00 -0.59182096698E+03  0.59229644315E+03  0.00000000000E+00 0.  1.
<mgrwt>
<rscale>  2 0.23728034E+02</rscale>
<asrwt>0</asrwt>
<pdfrwt beam="1">  1       21 0.88895610E-04 0.23728034E+02</pdfrwt>
<pdfrwt beam="2">  1       21 0.15476047E+00 0.23728034E+02</pdfrwt>
<totfact> 0.34874169E+07</totfact>
</mgrwt>
</event>
<event>
 4    1  0.2761157E+004  0.2434633E+02  0.7546771E-02  0.1670572E+00
         21   -1    0    0  501  502  0.00000000000E+00  0.00000000000E+00  0.21636996554E+03  0.21636996554E+03  0.00000000000E+00 0.  1.
         21   -1    0    0  502  503 -0.00000000000E+00 -0.00000000000E+00 -0.28222425477E+01  0.28222425477E+01  0.00000000000E+00 0. -1.
          2    1    1    2  501    0 -0.12624286234E+02 -0.20817572859E+02  0.12554028579E+03  0.12787926844E+03  0.00000000000E+00 0.  1.
         -2    1    1    2    0  503  0.12624286234E+02  0.20817572859E+02  0.88007437204E+02  0.91312939641E+02  0.00000000000E+00 0. -1.
<mgrwt>
<rscale>  2 0.24346333E+02</rscale>
<asrwt>0</asrwt>
<pdfrwt beam="1">  1       21 0.33287674E-01 0.24346333E+02</pdfrwt>
<pdfrwt beam="2">  1       21 0.43419133E-03 0.24346333E+02</pdfrwt>
<totfact> 0.86707025E+07</totfact>
</mgrwt>
</event>
<event>
 4    1  0.2761157E+004  0.2589528E+02  0.7546771E-02  0.1648466E+00
         21   -1    0    0  503  502  0.00000000000E+00  0.00000000000E+00  0.11818715625E+03  0.11818715625E+03  0.00000000000E+00 0.  1.
         21   -1    0    0  501  503 -0.00000000000E+00 -0.00000000000E+00 -0.67741046241E+01  0.67741046241E+01  0.00000000000E+00 0. -1.
          2    1    1    2  501    0  0.82005525924E+01  0.24562502028E+02  0.30524897990E+02  0.40029176434E+02  0.00000000000E+00 0. -1.
         -2    1    1    2    0  502 -0.82005525924E+01 -0.24562502028E+02  0.80888153636E+02  0.84932084441E+02  0.00000000000E+00 0.  1.
<mgrwt>
<rscale>  2 0.25895281E+02</rscale>
<asrwt>0</asrwt>
<pdfrwt beam="1">  1       21 0.18182638E-01 0.25895281E+02</pdfrwt>
<pdfrwt beam="2">  1       21 0.10421700E-02 0.25895281E+02</pdfrwt>
<totfact> 0.70395792E+07</totfact>
</mgrwt>
</event>
<event>
 4    1  0.2761157E+004  0.3114053E+02  0.7546771E-02  0.1585813E+00
         21   -1    0    0  501  502  0.00000000000E+00  0.00000000000E+00  0.11475400332E+01  0.11475400332E+01  0.00000000000E+00 0. -1.
         21   -1    0    0  502  503 -0.00000000000E+00 -0.00000000000E+00 -0.15979128400E+04  0.15979128400E+04  0.00000000000E+00 0.  1.
          2    1    1    2  501    0 -0.74824563482E+01  0.30228227040E+02 -0.24958125112E+03  0.25151646820E+03  0.00000000000E+00 0. -1.
         -2    1    1    2    0  503  0.74824563482E+01 -0.30228227040E+02 -0.13471840488E+04  0.13475439118E+04  0.00000000000E+00 0.  1.
<mgrwt>
<rscale>  2 0.31140534E+02</rscale>
<asrwt>0</asrwt>
<pdfrwt beam="1">  1       21 0.17654585E-03 0.31140534E+02</pdfrwt>
<pdfrwt beam="2">  1       21 0.24583103E+00 0.31140534E+02</pdfrwt>
<totfact> 0.40045511E+06</totfact>
</mgrwt>
</event>
<event>
 4    1  0.2761157E+004  0.2044500E+02  0.7546771E-02  0.1736621E+00
         21   -1    0    0  503  502  0.00000000000E+00  0.00000000000E+00  0.15507309950E+02  0.15507309950E+02  0.00000000000E+00 0.  1.
         21   -1    0    0  501  503 -0.00000000000E+00 -0.00000000000E+00 -0.47849770579E+02  0.47849770579E+02  0.00000000000E+00 0. -1.
          2    1    1    2  501    0  0.20423125091E+02 -0.94545881745E+00 -0.37104887752E+02  0.42364733281E+02  0.00000000000E+00 0. -1.
         -2    1    1    2    0  502 -0.20423125091E+02  0.94545881745E+00  0.47624271235E+01  0.20992347248E+02  0.00000000000E+00 0.  1.
<mgrwt>
<rscale>  2 0.20444998E+02</rscale>
<asrwt>0</asrwt>
<pdfrwt beam="1">  1       21 0.23857400E-02 0.20444998E+02</pdfrwt>
<pdfrwt beam="2">  1       21 0.73615030E-02 0.20444998E+02</pdfrwt>
<totfact> 0.84898871E+07</totfact>
</mgrwt>
</event>
<event>
 4    1  0.2761157E+004  0.2054197E+02  0.7546771E-02  0.1734760E+00
         21   -1    0    0  501  502  0.00000000000E+00  0.00000000000E+00  0.11839263350E+03  0.11839263350E+03  0.00000000000E+00 0. -1.
         21   -1    0    0  502  503 -0.00000000000E+00 -0.00000000000E+00 -0.35668965020E+01  0.35668965020E+01  0.00000000000E+00 0.  1.
          2    1    1    2  501    0 -0.10314670318E+02  0.17764571429E+02  0.55729404282E+02  0.59394771853E+02  0.00000000000E+00 0. -1.
         -2    1    1    2    0  503  0.10314670318E+02 -0.17764571429E+02  0.59096332718E+02  0.62564758152E+02  0.00000000000E+00 0.  1.
<mgrwt>
<rscale>  2 0.20541967E+02</rscale>
<asrwt>0</asrwt>
<pdfrwt beam="1">  1       21 0.18214248E-01 0.20541967E+02</pdfrwt>
<pdfrwt beam="2">  1       21 0.54875340E-03 0.20541967E+02</pdfrwt>
<totfact> 0.17124582E+08</totfact>
</mgrwt>
</event>
<event>
 4    1  0.2761157E+004  0.3369209E+02  0.7546771E-02  0.1560532E+00
         21   -1    0    0  503  502  0.00000000000E+00  0.00000000000E+00  0.12292502208E+03  0.12292502208E+03  0.00000000000E+00 0. -1.
         21   -1    0    0  501  503 -0.00000000000E+00 -0.00000000000E+00 -0.25351201838E+02  0.25351201838E+02  0.00000000000E+00 0.  1.
          2    1    1    2  501    0  0.32679643548E+02 -0.81974255407E+01 -0.10325640440E+02  0.35238838494E+02  0.00000000000E+00 0.  1.
         -2    1    1    2    0  502 -0.32679643548E+02  0.81974255407E+01  0.10789946068E+03  0.11303738542E+03  0.00000000000E+00 0. -1.
<mgrwt>
<rscale>  2 0.33692089E+02</rscale>
<asrwt>0</asrwt>
<pdfrwt beam="1">  1       21 0.18911542E-01 0.33692089E+02</pdfrwt>
<pdfrwt beam="2">  1       21 0.39001850E-02 0.33692089E+02</pdfrwt>
<totfact> 0.89450287E+06</totfact>
</mgrwt>
</event>
<event>
 4    1  0.2761157E+004  0.2334803E+02  0.7546771E-02  0.1685930E+00
         21   -1    0    0  501  502  0.00000000000E+00  0.00000000000E+00  0.43468984341E+02  0.43468984341E+02  0.00000000000E+00 0.  1.
         21   -1    0    0  502  503 -0.00000000000E+00 -0.00000000000E+00 -0.34307758173E+02  0.34307758173E+02  0.00000000000E+00 0. -1.
          2    1    1    2  501    0  0.23306455850E+02  0.13927170109E+01  0.35556494311E+02  0.42536981941E+02  0.00000000000E+00 0.  1.
         -2    1    1    2    0  503 -0.23306455850E+02 -0.13927170109E+01 -0.26395268143E+02  0.35239760574E+02  0.00000000000E+00 0. -1.
<mgrwt>
<rscale>  2 0.23348031E+02</rscale>
<asrwt>0</asrwt>
<pdfrwt beam="1">  1       21 0.66875360E-02 0.23348031E+02</pdfrwt>
<pdfrwt beam="2">  1       21 0.52781167E-02 0.23348031E+02</pdfrwt>
<totfact> 0.29624936E+07</totfact>
</mgrwt>
</event>
<event>
 4    1  0.2761157E+004  0.2911934E+02  0.7546771E-02  0.1608032E+00
         21   -1    0    0  503  502  0.00000000000E+00  0.00000000000E+00  0.17163234258E+03  0.17163234258E+03  0.00000000000E+00 0. -1.
         21   -1    0    0  501  503 -0.00000000000E+00 -0.00000000000E+00 -0.70388395879E+01  0.70388395879E+01  0.00000000000E+00 0.  1.
          2    1    1    2  501    0  0.60734481331E+01  0.28478924843E+02  0.33519188089E+02  0.44401260146E+02  0.00000000000E+00 0.  1.
         -2    1    1    2    0  502 -0.60734481331E+01 -0.28478924843E+02  0.13107431490E+03  0.13426992202E+03  0.00000000000E+00 0. -1.
<mgrwt>
<rscale>  2 0.29119339E+02</rscale>
<asrwt>0</asrwt>
<pdfrwt beam="1">  1       21 0.26404972E-01 0.29119339E+02</pdfrwt>
<pdfrwt beam="2">  1       21 0.10828985E-02 0.29119339E+02</pdfrwt>
<totfact> 0.35198380E+07</totfact>
</mgrwt>
</event>
<event>
 4    1  0.2761157E+004  0.2446364E+02  0.7546771E-02  0.1668828E+00
         21   -1    0    0  501  502  0.00000000000E+00  0.00000000000E+00  0.67750615961E+02  0.67750615961E+02  0.00000000000E+00 0. -1.
         21   -1    0    0  502  503 -0.00000000000E+00 -0.00000000000E+00 -0.10542847250E+02  0.10542847250E+02  0.00000000000E+00 0.  1.
          2    1    1    2  501    0 -0.79921569150E+01 -0.23121311089E+02  0.44366995996E+02  0.50664582623E+02  0.00000000000E+00 0. -1.
         -2    1    1    2    0  503  0.79921569150E+01  0.23121311089E+02  0.12840772714E+02  0.27628880588E+02  0.00000000000E+00 0.  1.
<mgrwt>
<rscale>  2 0.24463638E+02</rscale>
<asrwt>0</asrwt>
<pdfrwt beam="1">  1       21 0.10423171E-01 0.24463638E+02</pdfrwt>
<pdfrwt beam="2">  1       21 0.16219765E-02 0.24463638E+02</pdfrwt>
<totfact> 0.91227851E+07</totfact>
</mgrwt>
</event>
<event>
 4    1  0.2761157E+004  0.4405409E+02  0.7546771E-02  0.1480335E+00
         21   -1    0    0  501  502  0.00000000000E+00  0.00000000000E+00  0.10439192355E+03  0.10439192355E+03  0.00000000000E+00 0.  1.
         21   -1    0    0  502  503 -0.00000000000E+00 -0.00000000000E+00 -0.49108426499E+02  0.49108426499E+02  0.00000000000E+00 0. -1.
          2    1    1    2  501    0 -0.21022028997E+02  0.38714816555E+02  0.88144408477E+02  0.98540344376E+02  0.00000000000E+00 0.  1.
         -2    1    1    2    0  503  0.21022028997E+02 -0.38714816555E+02 -0.32860911425E+02  0.54960005674E+02  0.00000000000E+00 0. -1.
<mgrwt>
<rscale>  2 0.44054089E+02</rscale>
<asrwt>0</asrwt>
<pdfrwt beam="1">  1       21 0.16060296E-01 0.44054089E+02</pdfrwt>
<pdfrwt beam="2">  1       21 0.75551425E-02 0.44054089E+02</pdfrwt>
<totfact> 0.41947819E+06</totfact>
</mgrwt>
</event>
<event>
 4    1  0.2761157E+004  0.2197748E+02  0.7546771E-02  0.1708642E+00
         21   -1    0    0  503  502  0.00000000000E+00  0.00000000000E+00  0.55039737008E+02  0.55039737008E+02  0.00000000000E+00 0.  1.
         21   -1    0    0  501  503 -0.00000000000E+00 -0.00000000000E+00 -0.89031432261E+01  0.89031432261E+01  0.00000000000E+00 0. -1.
          2    1    1    2  501    0  0.84206533357E+01  0.20300299753E+02  0.19242421350E+02  0.29210962875E+02  0.00000000000E+00 0. -1.
         -2    1    1    2    0  502 -0.84206533357E+01 -0.20300299753E+02  0.26894172431E+02  0.34731917359E+02  0.00000000000E+00 0.  1.
<mgrwt>
<rscale>  2 0.21977479E+02</rscale>
<asrwt>0</asrwt>
<pdfrwt beam="1">  1       21 0.84676517E-02 0.21977479E+02</pdfrwt>
<pdfrwt beam="2">  1       21 0.13697144E-02 0.21977479E+02</pdfrwt>
<totfact> 0.16102382E+08</totfact>
</mgrwt>
</event>
<event>
 4    1  0.2761157E+004  0.2494082E+02  0.7546771E-02  0.1661853E+00
         21   -1    0    0  503  502  0.00000000000E+00  0.00000000000E+00  0.19104356703E+03  0.19104356703E+03  0.00000000000E+00 0.  1.
         21   -1    0    0  501  503 -0.00000000000E+00 -0.00000000000E+00 -0.40843592137E+01  0.40843592137E+01  0.00000000000E+00 0. -1.
          2    1    1    2  501    0 -0.23657815917E+02  0.78963287932E+01  0.49542843841E+02  0.55466545217E+02  0.00000000000E+00 0. -1.
         -2    1    1    2    0  502  0.23657815917E+02 -0.78963287932E+01  0.13741636398E+03  0.13966138103E+03  0.00000000000E+00 0.  1.
<mgrwt>
<rscale>  2 0.24940815E+02</rscale>
<asrwt>0</asrwt>
<pdfrwt beam="1">  1       21 0.29391311E-01 0.24940815E+02</pdfrwt>
<pdfrwt beam="2">  1       21 0.62836310E-03 0.24940815E+02</pdfrwt>
<totfact> 0.63407529E+07</totfact>
</mgrwt>
</event>
<event>
 4    1  0.2761157E+004  0.2597243E+02  0.7546771E-02  0.1647415E+00
         21   -1    0    0  501  502  0.00000000000E+00  0.00000000000E+00  0.68223924498E+03  0.68223924498E+03  0.00000000000E+00 0. -1.
         21   -1    0    0  502  503 -0.00000000000E+00 -0.00000000000E+00 -0.10397722358E+01  0.10397722358E+01  0.00000000000E+00 0.  1.
          2    1    1    2  501    0  0.13599915204E+02 -0.22127119411E+02  0.41627599870E+03  0.41708545192E+03  0.00000000000E+00 0. -1.
         -2    1    1    2    0  503 -0.13599915204E+02  0.22127119411E+02  0.26492347404E+03  0.26619356529E+03  0.00000000000E+00 0.  1.
<mgrwt>
<rscale>  2 0.25972430E+02</rscale>
<asrwt>0</asrwt>
<pdfrwt beam="1">  1       21 0.10495953E+00 0.25972430E+02</pdfrwt>
<pdfrwt beam="2">  1       21 0.15996550E-03 0.25972430E+02</pdfrwt>
<totfact> 0.37387535E+07</totfact>
</mgrwt>
</event>
<event>
 4    1  0.2761157E+004  0.2246610E+02  0.7546771E-02  0.1700313E+00
         21   -1    0    0  501  502  0.00000000000E+00  0.00000000000E+00  0.55644567815E+01  0.55644567815E+01  0.00000000000E+00 0. -1.
         21   -1    0    0  502  503 -0.00000000000E+00 -0.00000000000E+00 -0.97235282448E+02  0.97235282448E+02  0.00000000000E+00 0.  1.
          2    1    1    2  501    0 -0.22333804066E+02 -0.24345387257E+01 -0.32515367016E+02  0.39521827830E+02  0.00000000000E+00 0.  1.
         -2    1    1    2    0  503  0.22333804066E+02  0.24345387257E+01 -0.59155458650E+02  0.63277911399E+02  0.00000000000E+00 0. -1.
<mgrwt>
<rscale>  2 0.22466103E+02</rscale>
<asrwt>0</asrwt>
<pdfrwt beam="1">  1       21 0.85607028E-03 0.22466103E+02</pdfrwt>
<pdfrwt beam="2">  1       21 0.14959274E-01 0.22466103E+02</pdfrwt>
<totfact> 0.12735450E+08</totfact>
</mgrwt>
</event>
<event>
 4    1  0.2761157E+004  0.2226010E+02  0.7546771E-02  0.1703792E+00
         21   -1    0    0  501  502  0.00000000000E+00  0.00000000000E+00  0.23912368374E+03  0.23912368374E+03  0.00000000000E+00 0. -1.
         21   -1    0    0  502  503 -0.00000000000E+00 -0.00000000000E+00 -0.20932283109E+01  0.20932283109E+01  0.00000000000E+00 0.  1.
          2    1    1    2  501    0 -0.10349679986E+02 -0.19707770170E+02  0.10642672904E+03  0.10872976011E+03  0.00000000000E+00 0.  1.
         -2    1    1    2    0  503  0.10349679986E+02  0.19707770170E+02  0.13060372639E+03  0.13248715194E+03  0.00000000000E+00 0. -1.
<mgrwt>
<rscale>  2 0.22260101E+02</rscale>
<asrwt>0</asrwt>
<pdfrwt beam="1">  1       21 0.36788237E-01 0.22260101E+02</pdfrwt>
<pdfrwt beam="2">  1       21 0.32203531E-03 0.22260101E+02</pdfrwt>
<totfact> 0.10900227E+08</totfact>
</mgrwt>
</event>
<event>
 4    1  0.2761157E+004  0.3105602E+02  0.7546771E-02  0.1586701E+00
         21   -1    0    0  503  502  0.00000000000E+00  0.00000000000E+00  0.10356609652E+03  0.10356609652E+03  0.00000000000E+00 0. -1.
         21   -1    0    0  501  503 -0.00000000000E+00 -0.00000000000E+00 -0.14342400452E+02  0.14342400452E+02  0.00000000000E+00 0.  1.
          2    1    1    2  501    0 -0.64075334775E+01  0.30387825822E+02  0.96996877146E+01  0.32535524972E+02  0.00000000000E+00 0.  1.
         -2    1    1    2    0  502  0.64075334775E+01 -0.30387825822E+02  0.79524008349E+02  0.85372971995E+02  0.00000000000E+00 0. -1.
<mgrwt>
<rscale>  2 0.31056021E+02</rscale>
<asrwt>0</asrwt>
<pdfrwt beam="1">  1       21 0.15933245E-01 0.31056021E+02</pdfrwt>
<pdfrwt beam="2">  1       21 0.22065232E-02 0.31056021E+02</pdfrwt>
<totfact> 0.29196084E+07</totfact>
</mgrwt>
</event>
<event>
 4    1  0.2761157E+004  0.3000402E+02  0.7546771E-02  0.1598044E+00
         21   -1    0    0  501  502  0.00000000000E+00  0.00000000000E+00  0.15941814290E+02  0.15941814290E+02  0.00000000000E+00 0.  1.
         21   -1    0    0  502  503 -0.00000000000E+00 -0.00000000000E+00 -0.61076201790E+02  0.61076201790E+02  0.00000000000E+00 0. -1.
          2    1    1    2  501    0  0.22952959821E+02 -0.19323634519E+02 -0.11992270830E+02  0.32311851931E+02  0.00000000000E+00 0.  1.
         -2    1    1    2    0  503 -0.22952959821E+02  0.19323634519E+02 -0.33142116669E+02  0.44706164148E+02  0.00000000000E+00 0. -1.
<mgrwt>
<rscale>  2 0.30004020E+02</rscale>
<asrwt>0</asrwt>
<pdfrwt beam="1">  1       21 0.24525868E-02 0.30004020E+02</pdfrwt>
<pdfrwt beam="2">  1       21 0.93963388E-02 0.30004020E+02</pdfrwt>
<totfact> 0.60233399E+07</totfact>
</mgrwt>
</event>
<event>
 4    1  0.2761157E+004  0.3002005E+02  0.7546771E-02  0.1597867E+00
         21   -1    0    0  501  502  0.00000000000E+00  0.00000000000E+00  0.92604307926E+03  0.92604307926E+03  0.00000000000E+00 0. -1.
         21   -1    0    0  502  503 -0.00000000000E+00 -0.00000000000E+00 -0.50366798799E+01  0.50366798799E+01  0.00000000000E+00 0.  1.
          2    1    1    2  501    0  0.24584963895E+02  0.17227386441E+02  0.87865602172E+03  0.87916870269E+03  0.00000000000E+00 0. -1.
         -2    1    1    2    0  503 -0.24584963895E+02 -0.17227386441E+02  0.42350377660E+02  0.51911056446E+02  0.00000000000E+00 0.  1.
<mgrwt>
<rscale>  2 0.30020048E+02</rscale>
<asrwt>0</asrwt>
<pdfrwt beam="1">  1       21 0.14246803E+00 0.30020048E+02</pdfrwt>
<pdfrwt beam="2">  1       21 0.77487456E-03 0.30020048E+02</pdfrwt>
<totfact> 0.18505246E+06</totfact>
</mgrwt>
</event>
<event>
 4    1  0.2761157E+004  0.2324719E+02  0.7546771E-02  0.1687534E+00
         21   -1    0    0  501  502  0.00000000000E+00  0.00000000000E+00  0.17331450712E+03  0.17331450712E+03  0.00000000000E+00 0.  1.
         21   -1    0    0  502  503 -0.00000000000E+00 -0.00000000000E+00 -0.70867257613E+01  0.70867257613E+01  0.00000000000E+00 0. -1.
          2    1    1    2  501    0 -0.19346500789E+02  0.12889710137E+02  0.15061338647E+03  0.15239692878E+03  0.00000000000E+00 0.  1.
         -2    1    1    2    0  503  0.19346500789E+02 -0.12889710137E+02  0.15614394898E+02  0.28004304102E+02  0.00000000000E+00 0. -1.
<mgrwt>
<rscale>  2 0.23247187E+02</rscale>
<asrwt>0</asrwt>
<pdfrwt beam="1">  1       21 0.26663767E-01 0.23247187E+02</pdfrwt>
<pdfrwt beam="2">  1       21 0.10902656E-02 0.23247187E+02</pdfrwt>
<totfact> 0.32601416E+07</totfact>
</mgrwt>
</event>
<event>
 4    1  0.2761157E+004  0.3317199E+02  0.7546771E-02  0.1565460E+00
         21   -1    0    0  501  502  0.00000000000E+00  0.00000000000E+00  0.84847094158E+02  0.84847094158E+02  0.00000000000E+00 0. -1.
         21   -1    0    0  502  503 -0.00000000000E+00 -0.00000000000E+00 -0.14167236524E+02  0.14167236524E+02  0.00000000000E+00 0.  1.
          2    1    1    2  501    0  0.15899601491E+02  0.29113292645E+02  0.49737808273E+02  0.59784870226E+02  0.00000000000E+00 0. -1.
         -2    1    1    2    0  503 -0.15899601491E+02 -0.29113292645E+02  0.20942049361E+02  0.39229460456E+02  0.00000000000E+00 0.  1.
<mgrwt>
<rscale>  2 0.33171993E+02</rscale>
<asrwt>0</asrwt>
<pdfrwt beam="1">  1       21 0.13053399E-01 0.33171993E+02</pdfrwt>
<pdfrwt beam="2">  1       21 0.21795749E-02 0.33171993E+02</pdfrwt>
<totfact> 0.42489164E+07</totfact>
</mgrwt>
</event>
<event>
 4    1  0.2761157E+004  0.5444526E+02  0.7546771E-02  0.1422741E+00
         21   -1    0    0  501  502  0.00000000000E+00  0.00000000000E+00  0.52435460338E+02  0.52435460338E+02  0.00000000000E+00 0. -1.
         21   -1    0    0  502  503 -0.00000000000E+00 -0.00000000000E+00 -0.77573148194E+02  0.77573148194E+02  0.00000000000E+00 0.  1.
          2    1    1    2  501    0 -0.43731817011E+02  0.32431686135E+02  0.21285952767E+02  0.58458343031E+02  0.00000000000E+00 0. -1.
         -2    1    1    2    0  503  0.43731817011E+02 -0.32431686135E+02 -0.46423640622E+02  0.71550265501E+02  0.00000000000E+00 0.  1.
<mgrwt>
<rscale>  2 0.54445258E+02</rscale>
<asrwt>0</asrwt>
<pdfrwt beam="1">  1       21 0.80669939E-02 0.54445258E+02</pdfrwt>
<pdfrwt beam="2">  1       21 0.11934330E-01 0.54445258E+02</pdfrwt>
<totfact> 0.64368976E+06</totfact>
</mgrwt>
</event>
<event>
 4    1  0.2761157E+004  0.2108408E+02  0.7546771E-02  0.1724591E+00
         21   -1    0    0  503  502  0.00000000000E+00  0.00000000000E+00  0.45236769778E+02  0.45236769778E+02  0.00000000000E+00 0.  1.
         21   -1    0    0  501  503 -0.00000000000E+00 -0.00000000000E+00 -0.11874693800E+02  0.11874693800E+02  0.00000000000E+00 0. -1.
          2    1    1    2  501    0 -0.14919232873E+01  0.21031225386E+02  0.48227306108E+01  0.21628615463E+02  0.00000000000E+00 0.  1.
         -2    1    1    2    0  502  0.14919232873E+01 -0.21031225386E+02  0.28539345367E+02  0.35482848115E+02  0.00000000000E+00 0. -1.
<mgrwt>
<rscale>  2 0.21084076E+02</rscale>
<asrwt>0</asrwt>
<pdfrwt beam="1">  1       21 0.69595030E-02 0.21084076E+02</pdfrwt>
<pdfrwt beam="2">  1       21 0.18268760E-02 0.21084076E+02</pdfrwt>
<totfact> 0.14114792E+08</totfact>
</mgrwt>
</event>
<event>
 4    1  0.2761157E+004  0.2082266E+02  0.7546771E-02  0.1729446E+00
         21   -1    0    0  501  502  0.00000000000E+00  0.00000000000E+00  0.16596924213E+03  0.16596924213E+03  0.00000000000E+00 0.  1.
         21   -1    0    0  502  503 -0.00000000000E+00 -0.00000000000E+00 -0.35991022094E+01  0.35991022094E+01  0.00000000000E+00 0. -1.
          2    1    1    2  501    0 -0.18496422086E+02 -0.95637723125E+01  0.12557696514E+03  0.12729162402E+03  0.00000000000E+00 0.  1.
         -2    1    1    2    0  503  0.18496422086E+02  0.95637723125E+01  0.36793174777E+02  0.42276720320E+02  0.00000000000E+00 0. -1.
<mgrwt>
<rscale>  2 0.20822665E+02</rscale>
<asrwt>0</asrwt>
<pdfrwt beam="1">  1       21 0.25533724E-01 0.20822665E+02</pdfrwt>
<pdfrwt beam="2">  1       21 0.55370816E-03 0.20822665E+02</pdfrwt>
<totfact> 0.93959227E+07</totfact>
</mgrwt>
</event>
<event>
 4    1  0.2761157E+004  0.2311900E+02  0.7546771E-02  0.1689588E+00
         21   -1    0    0  501  502  0.00000000000E+00  0.00000000000E+00  0.43149423345E+01  0.43149423345E+01  0.00000000000E+00 0.  1.
         21   -1    0    0  502  503 -0.00000000000E+00 -0.00000000000E+00 -0.42188024025E+03  0.42188024025E+03  0.00000000000E+00 0. -1.
          2    1    1    2  501    0 -0.20102572699E+02 -0.11418185482E+02 -0.29680772353E+02  0.37622289089E+02  0.00000000000E+00 0.  1.
         -2    1    1    2    0  503  0.20102572699E+02  0.11418185482E+02 -0.38788452556E+03  0.38857289349E+03  0.00000000000E+00 0. -1.
<mgrwt>
<rscale>  2 0.23119005E+02</rscale>
<asrwt>0</asrwt>
<pdfrwt beam="1">  1       21 0.66383726E-03 0.23119005E+02</pdfrwt>
<pdfrwt beam="2">  1       21 0.64904655E-01 0.23119005E+02</pdfrwt>
<totfact> 0.12616564E+07</totfact>
</mgrwt>
</event>
<event>
 4    1  0.2761157E+004  0.5462103E+02  0.7546771E-02  0.1421900E+00
         21   -1    0    0  503  502  0.00000000000E+00  0.00000000000E+00  0.10034704943E+04  0.10034704943E+04  0.00000000000E+00 0. -1.
         21   -1    0    0  501  503 -0.00000000000E+00 -0.00000000000E+00 -0.30707530641E+01  0.30707530641E+01  0.00000000000E+00 0.  1.
          2    1    1    2  501    0  0.25430491709E+01  0.54561797407E+02  0.41047015795E+03  0.41408840530E+03  0.00000000000E+00 0.  1.
         -2    1    1    2    0  502 -0.25430491709E+01 -0.54561797407E+02  0.58992958328E+03  0.59245284206E+03  0.00000000000E+00 0. -1.
<mgrwt>
<rscale>  2 0.54621029E+02</rscale>
<asrwt>0</asrwt>
<pdfrwt beam="1">  1       21 0.15437981E+00 0.54621029E+02</pdfrwt>
<pdfrwt beam="2">  1       21 0.47242435E-03 0.54621029E+02</pdfrwt>
<totfact> 0.33154368E+06</totfact>
</mgrwt>
</event>
<event>
 4    1  0.2761157E+004  0.2578186E+02  0.7546771E-02  0.1650019E+00
         21   -1    0    0  503  502  0.00000000000E+00  0.00000000000E+00  0.12571736316E+01  0.12571736316E+01  0.00000000000E+00 0. -1.
         21   -1    0    0  501  503 -0.00000000000E+00 -0.00000000000E+00 -0.53256326012E+03  0.53256326012E+03  0.00000000000E+00 0.  1.
          2    1    1    2  501    0  0.23260451024E+02 -0.11120061511E+02 -0.28830009630E+03  0.28945060006E+03  0.00000000000E+00 0. -1.
         -2    1    1    2    0  502 -0.23260451024E+02  0.11120061511E+02 -0.24300599019E+03  0.24436983369E+03  0.00000000000E+00 0.  1.
<mgrwt>
<rscale>  2 0.25781861E+02</rscale>
<asrwt>0</asrwt>
<pdfrwt beam="1">  1       21 0.19341122E-03 0.25781861E+02</pdfrwt>
<pdfrwt beam="2">  1       21 0.81932857E-01 0.25781861E+02</pdfrwt>
<totfact> 0.48535025E+07</totfact>
</mgrwt>
</event>
<event>
 4    1  0.2761157E+004  0.2345524E+02  0.7546771E-02  0.1684235E+00
         21   -1    0    0  501  502  0.00000000000E+00  0.00000000000E+00  0.22804721398E+02  0.22804721398E+02  0.00000000000E+00 0. -1.
         21   -1    0    0  502  503 -0.00000000000E+00 -0.00000000000E+00 -0.30315916177E+02  0.30315916177E+02  0.00000000000E+00 0.  1.
          2    1    1    2  501    0  0.18341234426E+02  0.14620107544E+02  0.82476623134E+01  0.24863072186E+02  0.00000000000E+00 0.  1.
         -2    1    1    2    0  503 -0.18341234426E+02 -0.14620107544E+02 -0.15758857093E+02  0.28257565390E+02  0.00000000000E+00 0. -1.
<mgrwt>
<rscale>  2 0.23455243E+02</rscale>
<asrwt>0</asrwt>
<pdfrwt beam="1">  1       21 0.35084187E-02 0.23455243E+02</pdfrwt>
<pdfrwt beam="2">  1       21 0.46639871E-02 0.23455243E+02</pdfrwt>
<totfact> 0.10081337E+08</totfact>
</mgrwt>
</event>
<event>
 4    1  0.2761157E+004  0.2225806E+02  0.7546771E-02  0.1703827E+00
         21   -1    0    0  501  502  0.00000000000E+00  0.00000000000E+00  0.65600351765E+02  0.65600351765E+02  0.00000000000E+00 0. -1.
         21   -1    0    0  502  503 -0.00000000000E+00 -0.00000000000E+00 -0.77143857988E+01  0.77143857988E+01  0.00000000000E+00 0.  1.
          2    1    1    2  501    0  0.11718365540E+02  0.18923564496E+02  0.34259548044E+02  0.40855085563E+02  0.00000000000E+00 0.  1.
         -2    1    1    2    0  503 -0.11718365540E+02 -0.18923564496E+02  0.23626417922E+02  0.32459652001E+02  0.00000000000E+00 0. -1.
<mgrwt>
<rscale>  2 0.22258063E+02</rscale>
<asrwt>0</asrwt>
<pdfrwt beam="1">  1       21 0.10092361E-01 0.22258063E+02</pdfrwt>
<pdfrwt beam="2">  1       21 0.11868286E-02 0.22258063E+02</pdfrwt>
<totfact> 0.15041837E+08</totfact>
</mgrwt>
</event>
<event>
 4    1  0.2761157E+004  0.3063949E+02  0.7546771E-02  0.1591126E+00
         21   -1    0    0  503  502  0.00000000000E+00  0.00000000000E+00  0.26853714793E+03  0.26853714793E+03  0.00000000000E+00 0. -1.
         21   -1    0    0  501  503 -0.00000000000E+00 -0.00000000000E+00 -0.35071062188E+01  0.35071062188E+01  0.00000000000E+00 0.  1.
          2    1    1    2  501    0 -0.30065012579E+02  0.59053647166E+01  0.12482521678E+03  0.12853059192E+03  0.00000000000E+00 0. -1.
         -2    1    1    2    0  502  0.30065012579E+02 -0.59053647166E+01  0.14020482493E+03  0.14351366223E+03  0.00000000000E+00 0.  1.
<mgrwt>
<rscale>  2 0.30639489E+02</rscale>
<asrwt>0</asrwt>
<pdfrwt beam="1">  1       21 0.41313391E-01 0.30639489E+02</pdfrwt>
<pdfrwt beam="2">  1       21 0.53955502E-03 0.30639489E+02</pdfrwt>
<totfact> 0.44085032E+07</totfact>
</mgrwt>
</event>
<event>
 4    1  0.2761157E+004  0.3041346E+02  0.7546771E-02  0.1593563E+00
         21   -1    0    0  501  502  0.00000000000E+00  0.00000000000E+00  0.11139024798E+03  0.11139024798E+03  0.00000000000E+00 0.  1.
         21   -1    0    0  502  503 -0.00000000000E+00 -0.00000000000E+00 -0.14668687974E+02  0.14668687974E+02  0.00000000000E+00 0. -1.
          2    1    1    2  501    0  0.26807363182E+02  0.14364675005E+02  0.89878969394E+02  0.94885234616E+02  0.00000000000E+00 0.  1.
         -2    1    1    2    0  503 -0.26807363182E+02 -0.14364675005E+02  0.68425906096E+01  0.31173701336E+02  0.00000000000E+00 0. -1.
<mgrwt>
<rscale>  2 0.30413461E+02</rscale>
<asrwt>0</asrwt>
<pdfrwt beam="1">  1       21 0.17136961E-01 0.30413461E+02</pdfrwt>
<pdfrwt beam="2">  1       21 0.22567213E-02 0.30413461E+02</pdfrwt>
<totfact> 0.24744715E+07</totfact>
</mgrwt>
</event>
<event>
 4    1  0.2761157E+004  0.3002557E+02  0.7546771E-02  0.1597806E+00
         21   -1    0    0  503  502  0.00000000000E+00  0.00000000000E+00  0.87984586184E+03  0.87984586184E+03  0.00000000000E+00 0.  1.
         21   -1    0    0  501  503 -0.00000000000E+00 -0.00000000000E+00 -0.14436521799E+01  0.14436521799E+01  0.00000000000E+00 0. -1.
          2    1    1    2  501    0 -0.28475912048E+02  0.95214208455E+01  0.20180975080E+03  0.20403115091E+03  0.00000000000E+00 0. -1.
         -2    1    1    2    0  502  0.28475912048E+02 -0.95214208455E+01  0.67659245886E+03  0.67725836311E+03  0.00000000000E+00 0.  1.
<mgrwt>
<rscale>  2 0.30025573E+02</rscale>
<asrwt>0</asrwt>
<pdfrwt beam="1">  1       21 0.13536047E+00 0.30025573E+02</pdfrwt>
<pdfrwt beam="2">  1       21 0.22210104E-03 0.30025573E+02</pdfrwt>
<totfact> 0.13299393E+07</totfact>
</mgrwt>
</event>
<event>
 4    1  0.2761157E+004  0.3237979E+02  0.7546771E-02  0.1573181E+00
         21   -1    0    0  503  502  0.00000000000E+00  0.00000000000E+00  0.24546962401E+03  0.24546962401E+03  0.00000000000E+00 0.  1.
         21   -1    0    0  501  503 -0.00000000000E+00 -0.00000000000E+00 -0.41431136607E+02  0.41431136607E+02  0.00000000000E+00 0. -1.
          2    1    1    2  501    0 -0.24687646000E+02 -0.20951631408E+02 -0.33835792243E+02  0.46832804319E+02  0.00000000000E+00 0. -1.
         -2    1    1    2    0  502  0.24687646000E+02  0.20951631408E+02  0.23787427965E+03  0.24006795630E+03  0.00000000000E+00 0.  1.
<mgrwt>
<rscale>  2 0.32379789E+02</rscale>
<asrwt>0</asrwt>
<pdfrwt beam="1">  1       21 0.37764557E-01 0.32379789E+02</pdfrwt>
<pdfrwt beam="2">  1       21 0.63740212E-02 0.32379789E+02</pdfrwt>
<totfact> 0.11409868E+06</totfact>
</mgrwt>
</event>
<event>
 4    1  0.2761157E+004  0.3090000E+02  0.7546771E-02  0.1588348E+00
         21   -1    0    0  503  502  0.00000000000E+00  0.00000000000E+00  0.21642936007E+04  0.21642936007E+04  0.00000000000E+00 0.  1.
         21   -1    0    0  501  503 -0.00000000000E+00 -0.00000000000E+00 -0.12816786482E+01  0.12816786482E+01  0.00000000000E+00 0. -1.
          2    1    1    2  501    0 -0.19372784597E+02 -0.24072913404E+02  0.20465420388E+03  0.20697379812E+03  0.00000000000E+00 0. -1.
         -2    1    1    2    0  502  0.19372784597E+02  0.24072913404E+02  0.19583577182E+04  0.19586014813E+04  0.00000000000E+00 0.  1.
<mgrwt>
<rscale>  2 0.30899999E+02</rscale>
<asrwt>0</asrwt>
<pdfrwt beam="1">  1       21 0.33296532E+00 0.30899999E+02</pdfrwt>
<pdfrwt beam="2">  1       21 0.19718306E-03 0.30899999E+02</pdfrwt>
<totfact> 0.12427443E+06</totfact>
</mgrwt>
</event>
<event>
 4    1  0.2761157E+004  0.2320420E+02  0.7546771E-02  0.1688221E+00
         21   -1    0    0  501  502  0.00000000000E+00  0.00000000000E+00  0.20048617716E+01  0.20048617716E+01  0.00000000000E+00 0.  1.
         21   -1    0    0  502  503 -0.00000000000E+00 -0.00000000000E+00 -0.26985436925E+03  0.26985436925E+03  0.00000000000E+00 0. -1.
          2    1    1    2  501    0 -0.16092849249E+02  0.16716911713E+02 -0.12452746697E+03  0.12667093180E+03  0.00000000000E+00 0. -1.
         -2    1    1    2    0  503  0.16092849249E+02 -0.16716911713E+02 -0.14332204051E+03  0.14518829922E+03  0.00000000000E+00 0.  1.
<mgrwt>
<rscale>  2 0.23204201E+02</rscale>
<asrwt>0</asrwt>
<pdfrwt beam="1">  1       21 0.30844019E-03 0.23204201E+02</pdfrwt>
<pdfrwt beam="2">  1       21 0.41516068E-01 0.23204201E+02</pdfrwt>
<totfact> 0.93532204E+07</totfact>
</mgrwt>
</event>
<event>
 4    1  0.2761157E+004  0.2571683E+02  0.7546771E-02  0.1650914E+00
         21   -1    0    0  501  502  0.00000000000E+00  0.00000000000E+00  0.15252728865E+01  0.15252728865E+01  0.00000000000E+00 0.  1.
         21   -1    0    0  502  503 -0.00000000000E+00 -0.00000000000E+00 -0.52111774667E+03  0.52111774667E+03  0.00000000000E+00 0. -1.
          2    1    1    2  501    0 -0.24263286760E+02  0.85233915571E+01 -0.15270344800E+03  0.15485379659E+03  0.00000000000E+00 0.  1.
         -2    1    1    2    0  503  0.24263286760E+02 -0.85233915571E+01 -0.36688902579E+03  0.36778922297E+03  0.00000000000E+00 0. -1.
<mgrwt>
<rscale>  2 0.25716829E+02</rscale>
<asrwt>0</asrwt>
<pdfrwt beam="1">  1       21 0.23465733E-03 0.25716829E+02</pdfrwt>
<pdfrwt beam="2">  1       21 0.80171972E-01 0.25716829E+02</pdfrwt>
<totfact> 0.38365301E+07</totfact>
</mgrwt>
</event>
<event>
 4    1  0.2761157E+004  0.2437581E+02  0.7546771E-02  0.1670133E+00
         21   -1    0    0  501  502  0.00000000000E+00  0.00000000000E+00  0.23008783266E+02  0.23008783266E+02  0.00000000000E+00 0. -1.
         21   -1    0    0  502  503 -0.00000000000E+00 -0.00000000000E+00 -0.14752941577E+03  0.14752941577E+03  0.00000000000E+00 0.  1.
          2    1    1    2  501    0  0.10536083792E+02 -0.21981151074E+02  0.15187151231E+02  0.28719847261E+02  0.00000000000E+00 0. -1.
         -2    1    1    2    0  503 -0.10536083792E+02  0.21981151074E+02 -0.13970778373E+03  0.14181835178E+03  0.00000000000E+00 0.  1.
<mgrwt>
<rscale>  2 0.24375809E+02</rscale>
<asrwt>0</asrwt>
<pdfrwt beam="1">  1       21 0.35398128E-02 0.24375809E+02</pdfrwt>
<pdfrwt beam="2">  1       21 0.22696833E-01 0.24375809E+02</pdfrwt>
<totfact> 0.71835854E+06</totfact>
</mgrwt>
</event>
<event>
 4    1  0.2761157E+004  0.2715720E+02  0.7546771E-02  0.1631820E+00
         21   -1    0    0  503  502  0.00000000000E+00  0.00000000000E+00  0.35681108369E+02  0.35681108369E+02  0.00000000000E+00 0.  1.
         21   -1    0    0  501  503 -0.00000000000E+00 -0.00000000000E+00 -0.79721535721E+02  0.79721535721E+02  0.00000000000E+00 0. -1.
          2    1    1    2  501    0  0.36683766863E+01 -0.26908295453E+02 -0.71681172014E+02  0.76653139355E+02  0.00000000000E+00 0. -1.
         -2    1    1    2    0  502 -0.36683766863E+01  0.26908295453E+02  0.27640744662E+02  0.38749504734E+02  0.00000000000E+00 0.  1.
<mgrwt>
<rscale>  2 0.27157197E+02</rscale>
<asrwt>0</asrwt>
<pdfrwt beam="1">  1       21 0.54894013E-02 0.27157197E+02</pdfrwt>
<pdfrwt beam="2">  1       21 0.12264852E-01 0.27157197E+02</pdfrwt>
<totfact> 0.10541881E+07</totfact>
</mgrwt>
</event>
<event>
 4    1  0.2761157E+004  0.2827267E+02  0.7546771E-02  0.1618006E+00
         21   -1    0    0  503  502  0.00000000000E+00  0.00000000000E+00  0.13056382961E+03  0.13056382961E+03  0.00000000000E+00 0.  1.
         21   -1    0    0  501  503 -0.00000000000E+00 -0.00000000000E+00 -0.92212006779E+01  0.92212006779E+01  0.00000000000E+00 0. -1.
          2    1    1    2  501    0  0.13723516896E+02  0.24718593317E+02  0.20153631220E+02  0.34720492838E+02  0.00000000000E+00 0. -1.
         -2    1    1    2    0  502 -0.13723516896E+02 -0.24718593317E+02  0.10118899771E+03  0.10506453745E+03  0.00000000000E+00 0.  1.
<mgrwt>
<rscale>  2 0.28272668E+02</rscale>
<asrwt>0</asrwt>
<pdfrwt beam="1">  1       21 0.20086742E-01 0.28272668E+02</pdfrwt>
<pdfrwt beam="2">  1       21 0.14186464E-02 0.28272668E+02</pdfrwt>
<totfact> 0.37774309E+07</totfact>
</mgrwt>
</event>
<event>
 4    1  0.2761157E+004  0.2383599E+02  0.7546771E-02  0.1678307E+00
         21   -1    0    0  503  502  0.00000000000E+00  0.00000000000E+00  0.28202791177E+02  0.28202791177E+02  0.00000000000E+00 0.  1.
         21   -1    0    0  501  503 -0.00000000000E+00 -0.00000000000E+00 -0.24521577339E+02  0.24521577339E+02  0.00000000000E+00 0. -1.
          2    1    1    2  501    0 -0.23649151474E+02  0.29786287600E+01 -0.92961313990E+01  0.25584617521E+02  0.00000000000E+00 0.  1.
         -2    1    1    2    0  502  0.23649151474E+02 -0.29786287600E+01  0.12977345237E+02  0.27139750996E+02  0.00000000000E+00 0. -1.
<mgrwt>
<rscale>  2 0.23835994E+02</rscale>
<asrwt>0</asrwt>
<pdfrwt beam="1">  1       21 0.43388909E-02 0.23835994E+02</pdfrwt>
<pdfrwt beam="2">  1       21 0.37725504E-02 0.23835994E+02</pdfrwt>
<totfact> 0.10133722E+08</totfact>
</mgrwt>
</event>
<event>
 4    1  0.2761157E+004  0.3216601E+02  0.7546771E-02  0.1575311E+00
         21   -1    0    0  501  502  0.00000000000E+00  0.00000000000E+00  0.26429290060E+02  0.26429290060E+02  0.00000000000E+00 0. -1.
         21   -1    0    0  502  503 -0.00000000000E+00 -0.00000000000E+00 -0.20655197884E+03  0.20655197884E+03  0.00000000000E+00 0.  1.
          2    1    1    2  501    0  0.14244434493E+02  0.28840044998E+02  0.14810596072E+02  0.35411945237E+02  0.00000000000E+00 0. -1.
         -2    1    1    2    0  503 -0.14244434493E+02 -0.28840044998E+02 -0.19493328486E+03  0.19756932367E+03  0.00000000000E+00 0.  1.
<mgrwt>
<rscale>  2 0.32166009E+02</rscale>
<asrwt>0</asrwt>
<pdfrwt beam="1">  1       21 0.40660445E-02 0.32166009E+02</pdfrwt>
<pdfrwt beam="2">  1       21 0.31777229E-01 0.32166009E+02</pdfrwt>
<totfact> 0.32568319E+06</totfact>
</mgrwt>
</event>
<event>
 4    1  0.2761157E+004  0.2019373E+02  0.7546771E-02  0.1741503E+00
         21   -1    0    0  503  502  0.00000000000E+00  0.00000000000E+00  0.13696057909E+03  0.13696057909E+03  0.00000000000E+00 0. -1.
         21   -1    0    0  501  503 -0.00000000000E+00 -0.00000000000E+00 -0.32326583476E+01  0.32326583476E+01  0.00000000000E+00 0.  1.
          2    1    1    2  501    0 -0.20031643785E+02 -0.25534030152E+01  0.86561226507E+02  0.88885502497E+02  0.00000000000E+00 0.  1.
         -2    1    1    2    0  502  0.20031643785E+02  0.25534030152E+01  0.47166694240E+02  0.51307734945E+02  0.00000000000E+00 0. -1.
<mgrwt>
<rscale>  2 0.20193727E+02</rscale>
<asrwt>0</asrwt>
<pdfrwt beam="1">  1       21 0.21070854E-01 0.20193727E+02</pdfrwt>
<pdfrwt beam="2">  1       21 0.49733216E-03 0.20193727E+02</pdfrwt>
<totfact> 0.15295697E+08</totfact>
</mgrwt>
</event>
<event>
 4    1  0.2761157E+004  0.2666954E+02  0.7546771E-02  0.1638118E+00
         21   -1    0    0  501  502  0.00000000000E+00  0.00000000000E+00  0.33720382893E+02  0.33720382893E+02  0.00000000000E+00 0.  1.
         21   -1    0    0  502  503 -0.00000000000E+00 -0.00000000000E+00 -0.65333969541E+02  0.65333969541E+02  0.00000000000E+00 0. -1.
          2    1    1    2  501    0 -0.14660949692E+02  0.22278260974E+02  0.24948715144E+02  0.36519895197E+02  0.00000000000E+00 0.  1.
         -2    1    1    2    0  503  0.14660949692E+02 -0.22278260974E+02 -0.56562301792E+02  0.62534457237E+02  0.00000000000E+00 0. -1.
<mgrwt>
<rscale>  2 0.26669540E+02</rscale>
<asrwt>0</asrwt>
<pdfrwt beam="1">  1       21 0.51877512E-02 0.26669540E+02</pdfrwt>
<pdfrwt beam="2">  1       21 0.10051380E-01 0.26669540E+02</pdfrwt>
<totfact> 0.16062013E+07</totfact>
</mgrwt>
</event>
<event>
 4    1  0.2761157E+004  0.2238804E+02  0.7546771E-02  0.1701626E+00
         21   -1    0    0  501  502  0.00000000000E+00  0.00000000000E+00  0.66271997920E+03  0.66271997920E+03  0.00000000000E+00 0. -1.
         21   -1    0    0  502  503 -0.00000000000E+00 -0.00000000000E+00 -0.97484774324E+01  0.97484774324E+01  0.00000000000E+00 0.  1.
          2    1    1    2  501    0  0.17150901693E+02  0.14389964604E+02  0.64941368816E+03  0.64979947898E+03  0.00000000000E+00 0. -1.
         -2    1    1    2    0  503 -0.17150901693E+02 -0.14389964604E+02  0.35578136065E+01  0.22668977653E+02  0.00000000000E+00 0.  1.
<mgrwt>
<rscale>  2 0.22388044E+02</rscale>
<asrwt>0</asrwt>
<pdfrwt beam="1">  1       21 0.10195688E+00 0.22388044E+02</pdfrwt>
<pdfrwt beam="2">  1       21 0.14997663E-02 0.22388044E+02</pdfrwt>
<totfact> 0.14278493E+06</totfact>
</mgrwt>
</event>
<event>
 4    1  0.2761157E+004  0.3459194E+02  0.7546771E-02  0.1552254E+00
         21   -1    0    0  501  502  0.00000000000E+00  0.00000000000E+00  0.67693255461E+03  0.67693255461E+03  0.00000000000E+00 0. -1.
         21   -1    0    0  502  503 -0.00000000000E+00 -0.00000000000E+00 -0.37433477468E+01  0.37433477468E+01  0.00000000000E+00 0.  1.
          2    1    1    2  501    0 -0.27889226318E+02  0.20464449953E+02  0.58384491031E+03  0.58486877327E+03  0.00000000000E+00 0. -1.
         -2    1    1    2    0  503  0.27889226318E+02 -0.20464449953E+02  0.89344296557E+02  0.95807129086E+02  0.00000000000E+00 0.  1.
<mgrwt>
<rscale>  2 0.34591945E+02</rscale>
<asrwt>0</asrwt>
<pdfrwt beam="1">  1       21 0.10414337E+00 0.34591945E+02</pdfrwt>
<pdfrwt beam="2">  1       21 0.57590019E-03 0.34591945E+02</pdfrwt>
<totfact> 0.60377011E+06</totfact>
</mgrwt>
</event>
<event>
 4    1  0.2761157E+004  0.2008968E+02  0.7546771E-02  0.1743550E+00
         21   -1    0    0  503  502  0.00000000000E+00  0.00000000000E+00  0.66112868323E+01  0.66112868323E+01  0.00000000000E+00 0.  1.
         21   -1    0    0  501  503 -0.00000000000E+00 -0.00000000000E+00 -0.77508183398E+02  0.77508183398E+02  0.00000000000E+00 0. -1.
          2    1    1    2  501    0  0.10436906791E+02 -0.17165849575E+02 -0.54831889758E+02  0.58396331644E+02  0.00000000000E+00 0. -1.
         -2    1    1    2    0  502 -0.10436906791E+02  0.17165849575E+02 -0.16065006808E+02  0.25723138586E+02  0.00000000000E+00 0.  1.
<mgrwt>
<rscale>  2 0.20089684E+02</rscale>
<asrwt>0</asrwt>
<pdfrwt beam="1">  1       21 0.10171211E-02 0.20089684E+02</pdfrwt>
<pdfrwt beam="2">  1       21 0.11924336E-01 0.20089684E+02</pdfrwt>
<totfact> 0.13939422E+08</totfact>
</mgrwt>
</event>
<event>
 4    1  0.2761157E+004  0.3790583E+02  0.7546771E-02  0.1524213E+00
         21   -1    0    0  501  502  0.00000000000E+00  0.00000000000E+00  0.60237098699E+02  0.60237098699E+02  0.00000000000E+00 0. -1.
         21   -1    0    0  502  503 -0.00000000000E+00 -0.00000000000E+00 -0.27752644238E+02  0.27752644238E+02  0.00000000000E+00 0.  1.
          2    1    1    2  501    0 -0.25179846823E+02  0.28334206164E+02  0.32733234889E+02  0.50083096862E+02  0.00000000000E+00 0. -1.
         -2    1    1    2    0  503  0.25179846823E+02 -0.28334206164E+02 -0.24878042787E+00  0.37906646075E+02  0.00000000000E+00 0.  1.
<mgrwt>
<rscale>  2 0.37905830E+02</rscale>
<asrwt>0</asrwt>
<pdfrwt beam="1">  1       21 0.92672459E-02 0.37905830E+02</pdfrwt>
<pdfrwt beam="2">  1       21 0.42696376E-02 0.37905830E+02</pdfrwt>
<totfact> 0.26842251E+07</totfact>
</mgrwt>
</event>
<event>
 4    1  0.2761157E+004  0.3068516E+02  0.7546771E-02  0.1590636E+00
         21   -1    0    0  503  502  0.00000000000E+00  0.00000000000E+00  0.60226584474E+03  0.60226584474E+03  0.00000000000E+00 0. -1.
         21   -1    0    0  501  503 -0.00000000000E+00 -0.00000000000E+00 -0.39975995572E+01  0.39975995572E+01  0.00000000000E+00 0.  1.
          2    1    1    2  501    0  0.17404539011E+02 -0.25271738722E+02  0.62590973032E+02  0.69708024368E+02  0.00000000000E+00 0.  1.
         -2    1    1    2    0  502 -0.17404539011E+02  0.25271738722E+02  0.53567727215E+03  0.53655541993E+03  0.00000000000E+00 0. -1.
<mgrwt>
<rscale>  2 0.30685155E+02</rscale>
<asrwt>0</asrwt>
<pdfrwt beam="1">  1       21 0.92656212E-01 0.30685155E+02</pdfrwt>
<pdfrwt beam="2">  1       21 0.61501580E-03 0.30685155E+02</pdfrwt>
<totfact> 0.69899778E+06</totfact>
</mgrwt>
</event>
<event>
 4    1  0.2761157E+004  0.2154561E+02  0.7546771E-02  0.1716231E+00
         21   -1    0    0  503  502  0.00000000000E+00  0.00000000000E+00  0.93570427299E+02  0.93570427299E+02  0.00000000000E+00 0. -1.
         21   -1    0    0  501  503 -0.00000000000E+00 -0.00000000000E+00 -0.17781977605E+02  0.17781977605E+02  0.00000000000E+00 0.  1.
          2    1    1    2  501    0  0.91780851452E+00  0.21526050078E+02 -0.93815090735E+01  0.23499487589E+02  0.00000000000E+00 0.  1.
         -2    1    1    2    0  502 -0.91780851452E+00 -0.21526050078E+02  0.85169958767E+02  0.87852917315E+02  0.00000000000E+00 0. -1.
<mgrwt>
<rscale>  2 0.21545608E+02</rscale>
<asrwt>0</asrwt>
<pdfrwt beam="1">  1       21 0.14395450E-01 0.21545608E+02</pdfrwt>
<pdfrwt beam="2">  1       21 0.27356889E-02 0.21545608E+02</pdfrwt>
<totfact> 0.23013320E+07</totfact>
</mgrwt>
</event>
<event>
 4    1  0.2761157E+004  0.2541635E+02  0.7546771E-02  0.1655093E+00
         21   -1    0    0  503  502  0.00000000000E+00  0.00000000000E+00  0.76951355022E+01  0.76951355022E+01  0.00000000000E+00 0.  1.
         21   -1    0    0  501  503 -0.00000000000E+00 -0.00000000000E+00 -0.21935129454E+03  0.21935129454E+03  0.00000000000E+00 0. -1.
          2    1    1    2  501    0 -0.16960373571E+02 -0.18929775776E+02 -0.19502077974E+03  0.19667001605E+03  0.00000000000E+00 0. -1.
         -2    1    1    2    0  502  0.16960373571E+02  0.18929775776E+02 -0.16635379296E+02  0.30376413991E+02  0.00000000000E+00 0.  1.
<mgrwt>
<rscale>  2 0.25416347E+02</rscale>
<asrwt>0</asrwt>
<pdfrwt beam="1">  1       21 0.11838671E-02 0.25416347E+02</pdfrwt>
<pdfrwt beam="2">  1       21 0.33746349E-01 0.25416347E+02</pdfrwt>
<totfact> 0.19093422E+07</totfact>
</mgrwt>
</event>
<event>
 4    1  0.2761157E+004  0.2124975E+02  0.7546771E-02  0.1721560E+00
         21   -1    0    0  503  502  0.00000000000E+00  0.00000000000E+00  0.22448301290E+02  0.22448301290E+02  0.00000000000E+00 0.  1.
         21   -1    0    0  501  503 -0.00000000000E+00 -0.00000000000E+00 -0.50221478042E+02  0.50221478042E+02  0.00000000000E+00 0. -1.
          2    1    1    2  501    0  0.19909691259E+02 -0.74267085894E+01 -0.42019048989E+02  0.47086646562E+02  0.00000000000E+00 0. -1.
         -2    1    1    2    0  502 -0.19909691259E+02  0.74267085894E+01  0.14245872238E+02  0.25583132770E+02  0.00000000000E+00 0.  1.
<mgrwt>
<rscale>  2 0.21249748E+02</rscale>
<asrwt>0</asrwt>
<pdfrwt beam="1">  1       21 0.34535849E-02 0.21249748E+02</pdfrwt>
<pdfrwt beam="2">  1       21 0.77263811E-02 0.21249748E+02</pdfrwt>
<totfact> 0.44736462E+07</totfact>
</mgrwt>
</event>
<event>
 4    1  0.2761157E+004  0.2010376E+02  0.7546771E-02  0.1743272E+00
         21   -1    0    0  503  502  0.00000000000E+00  0.00000000000E+00  0.19676774963E+04  0.19676774963E+04  0.00000000000E+00 0. -1.
         21   -1    0    0  501  503 -0.00000000000E+00 -0.00000000000E+00 -0.21112351255E+00  0.21112351255E+00  0.00000000000E+00 0.  1.
          2    1    1    2  501    0 -0.10982277764E+02  0.16838967440E+02  0.82172837440E+03  0.82197425905E+03  0.00000000000E+00 0.  1.
         -2    1    1    2    0  502  0.10982277764E+02 -0.16838967440E+02  0.11457379984E+04  0.11459143608E+04  0.00000000000E+00 0. -1.
<mgrwt>
<rscale>  2 0.20103762E+02</rscale>
<asrwt>0</asrwt>
<pdfrwt beam="1">  1       21 0.30270493E+00 0.20103762E+02</pdfrwt>
<pdfrwt beam="2">  1       21 0.32482116E-04 0.20103762E+02</pdfrwt>
<totfact> 0.22864056E+07</totfact>
</mgrwt>
</event>
<event>
 4    1  0.2761157E+004  0.3821744E+02  0.7546771E-02  0.1521754E+00
         21   -1    0    0  503  502  0.00000000000E+00  0.00000000000E+00  0.71708568528E+01  0.71708568528E+01  0.00000000000E+00 0. -1.
         21   -1    0    0  501  503 -0.00000000000E+00 -0.00000000000E+00 -0.22178602586E+03  0.22178602586E+03  0.00000000000E+00 0.  1.
          2    1    1    2  501    0 -0.31223589682E+02 -0.22037694043E+02 -0.14001509336E+03  0.14513717263E+03  0.00000000000E+00 0.  1.
         -2    1    1    2    0  502  0.31223589682E+02  0.22037694043E+02 -0.74600075655E+02  0.83819710087E+02  0.00000000000E+00 0. -1.
<mgrwt>
<rscale>  2 0.38217437E+02</rscale>
<asrwt>0</asrwt>
<pdfrwt beam="1">  1       21 0.11032089E-02 0.38217437E+02</pdfrwt>
<pdfrwt beam="2">  1       21 0.34120922E-01 0.38217437E+02</pdfrwt>
<totfact> 0.22376983E+07</totfact>
</mgrwt>
</event>
<event>
 4    1  0.2761157E+004  0.2203996E+02  0.7546771E-02  0.1707562E+00
         21   -1    0    0  503  502  0.00000000000E+00  0.00000000000E+00  0.34536820672E+01  0.34536820672E+01  0.00000000000E+00 0.  1.
         21   -1    0    0  501  503 -0.00000000000E+00 -0.00000000000E+00 -0.21538491498E+03  0.21538491498E+03  0.00000000000E+00 0. -1.
          2    1    1    2  501    0  0.21911553423E+02 -0.23756567040E+01 -0.17041940470E+03  0.17183868428E+03  0.00000000000E+00 0. -1.
         -2    1    1    2    0  502 -0.21911553423E+02  0.23756567040E+01 -0.41511828214E+02  0.46999912764E+02  0.00000000000E+00 0.  1.
<mgrwt>
<rscale>  2 0.22039962E+02</rscale>
<asrwt>0</asrwt>
<pdfrwt beam="1">  1       21 0.53133581E-03 0.22039962E+02</pdfrwt>
<pdfrwt beam="2">  1       21 0.33136134E-01 0.22039962E+02</pdfrwt>
<totfact> 0.63294901E+07</totfact>
</mgrwt>
</event>
<event>
 4    1  0.2761157E+004  0.2554639E+02  0.7546771E-02  0.1653276E+00
         21   -1    0    0  503  502  0.00000000000E+00  0.00000000000E+00  0.21084351987E+03  0.21084351987E+03  0.00000000000E+00 0. -1.
         21   -1    0    0  501  503 -0.00000000000E+00 -0.00000000000E+00 -0.32423688025E+01  0.32423688025E+01  0.00000000000E+00 0.  1.
          2    1    1    2  501    0  0.22203485049E+02  0.12634214853E+02  0.81000944051E+02  0.84933921789E+02  0.00000000000E+00 0.  1.
         -2    1    1    2    0  502 -0.22203485049E+02 -0.12634214853E+02  0.12660020701E+03  0.12915196688E+03  0.00000000000E+00 0. -1.
<mgrwt>
<rscale>  2 0.25546392E+02</rscale>
<asrwt>0</asrwt>
<pdfrwt beam="1">  1       21 0.32437454E-01 0.25546392E+02</pdfrwt>
<pdfrwt beam="2">  1       21 0.49882613E-03 0.25546392E+02</pdfrwt>
<totfact> 0.74971027E+07</totfact>
</mgrwt>
</event>
<event>
 4    1  0.2761157E+004  0.2192114E+02  0.7546771E-02  0.1709619E+00
         21   -1    0    0  501  502  0.00000000000E+00  0.00000000000E+00  0.55280974611E+00  0.55280974611E+00  0.00000000000E+00 0. -1.
         21   -1    0    0  502  503 -0.00000000000E+00 -0.00000000000E+00 -0.86947453414E+03  0.86947453414E+03  0.00000000000E+00 0.  1.
          2    1    1    2  501    0 -0.17102347171E+02  0.13712991973E+02 -0.44126436797E+03  0.44180853191E+03  0.00000000000E+00 0.  1.
         -2    1    1    2    0  503  0.17102347171E+02 -0.13712991973E+02 -0.42765735642E+03  0.42821881198E+03  0.00000000000E+00 0. -1.
<mgrwt>
<rscale>  2 0.21921141E+02</rscale>
<asrwt>0</asrwt>
<pdfrwt beam="1">  1       21 0.85047513E-04 0.21921141E+02</pdfrwt>
<pdfrwt beam="2">  1       21 0.13376553E+00 0.21921141E+02</pdfrwt>
<totfact> 0.51486357E+07</totfact>
</mgrwt>
</event>
<event>
 4    1  0.2761157E+004  0.2181610E+02  0.7546771E-02  0.1711452E+00
         21   -1    0    0  501  502  0.00000000000E+00  0.00000000000E+00  0.91534852726E+01  0.91534852726E+01  0.00000000000E+00 0.  1.
         21   -1    0    0  502  503 -0.00000000000E+00 -0.00000000000E+00 -0.79644048554E+02  0.79644048554E+02  0.00000000000E+00 0. -1.
          2    1    1    2  501    0 -0.21803425402E+02  0.74339970774E+00 -0.90858241976E+01  0.23632481963E+02  0.00000000000E+00 0.  1.
         -2    1    1    2    0  503  0.21803425402E+02 -0.74339970774E+00 -0.61404739084E+02  0.65165051863E+02  0.00000000000E+00 0. -1.
<mgrwt>
<rscale>  2 0.21816095E+02</rscale>
<asrwt>0</asrwt>
<pdfrwt beam="1">  1       21 0.14082285E-02 0.21816095E+02</pdfrwt>
<pdfrwt beam="2">  1       21 0.12252931E-01 0.21816095E+02</pdfrwt>
<totfact> 0.83648243E+07</totfact>
</mgrwt>
</event>
<event>
 4    1  0.2761157E+004  0.2314461E+02  0.7546771E-02  0.1689177E+00
         21   -1    0    0  501  502  0.00000000000E+00  0.00000000000E+00  0.84150343375E+01  0.84150343375E+01  0.00000000000E+00 0. -1.
         21   -1    0    0  502  503 -0.00000000000E+00 -0.00000000000E+00 -0.64367104459E+02  0.64367104459E+02  0.00000000000E+00 0.  1.
          2    1    1    2  501    0 -0.10835352114E+01 -0.23119232658E+02 -0.31799246790E+02  0.39330205487E+02  0.00000000000E+00 0. -1.
         -2    1    1    2    0  503  0.10835352114E+01  0.23119232658E+02 -0.24152823332E+02  0.33451933309E+02  0.00000000000E+00 0.  1.
<mgrwt>
<rscale>  2 0.23144610E+02</rscale>
<asrwt>0</asrwt>
<pdfrwt beam="1">  1       21 0.12946207E-02 0.23144610E+02</pdfrwt>
<pdfrwt beam="2">  1       21 0.99026313E-02 0.23144610E+02</pdfrwt>
<totfact> 0.13771157E+08</totfact>
</mgrwt>
</event>
<event>
 4    1  0.2761157E+004  0.2000533E+02  0.7546771E-02  0.1745222E+00
         21   -1    0    0  501  502  0.00000000000E+00  0.00000000000E+00  0.15235839396E+03  0.15235839396E+03  0.00000000000E+00 0.  1.
         21   -1    0    0  502  503 -0.00000000000E+00 -0.00000000000E+00 -0.53292532100E+01  0.53292532100E+01  0.00000000000E+00 0. -1.
          2    1    1    2  501    0 -0.19171634003E+02 -0.57150320999E+01  0.12966002291E+03  0.13119426315E+03  0.00000000000E+00 0.  1.
         -2    1    1    2    0  503  0.19171634003E+02  0.57150320999E+01  0.17369117835E+02  0.26493384016E+02  0.00000000000E+00 0. -1.
<mgrwt>
<rscale>  2 0.20005328E+02</rscale>
<asrwt>0</asrwt>
<pdfrwt beam="1">  1       21 0.23439750E-01 0.20005328E+02</pdfrwt>
<pdfrwt beam="2">  1       21 0.81988522E-03 0.20005328E+02</pdfrwt>
<totfact> 0.60482637E+07</totfact>
</mgrwt>
</event>
<event>
 4    1  0.2761157E+004  0.2408112E+02  0.7546771E-02  0.1674562E+00
         21   -1    0    0  503  502  0.00000000000E+00  0.00000000000E+00  0.48698030737E+00  0.48698030737E+00  0.00000000000E+00 0. -1.
         21   -1    0    0  501  503 -0.00000000000E+00 -0.00000000000E+00 -0.12605138564E+04  0.12605138564E+04  0.00000000000E+00 0.  1.
          2    1    1    2  501    0 -0.22485015125E+02 -0.86211596576E+01 -0.48174641035E+03  0.48234790783E+03  0.00000000000E+00 0. -1.
         -2    1    1    2    0  502  0.22485015125E+02  0.86211596576E+01 -0.77828046575E+03  0.77865292888E+03  0.00000000000E+00 0.  1.
<mgrwt>
<rscale>  2 0.24081119E+02</rscale>
<asrwt>0</asrwt>
<pdfrwt beam="1">  1       21 0.74918990E-04 0.24081119E+02</pdfrwt>
<pdfrwt beam="2">  1       21 0.19392795E+00 0.24081119E+02</pdfrwt>
<totfact> 0.25523724E+07</totfact>
</mgrwt>
</event>
<event>
 4    1  0.2761157E+004  0.2026244E+02  0.7546771E-02  0.1740159E+00
         21   -1    0    0  503  502  0.00000000000E+00  0.00000000000E+00  0.88138607857E+01  0.88138607857E+01  0.00000000000E+00 0. -1.
         21   -1    0    0  501  503 -0.00000000000E+00 -0.00000000000E+00 -0.10831131200E+03  0.10831131200E+03  0.00000000000E+00 0.  1.
          2    1    1    2  501    0  0.20250402162E+02 -0.69848292784E+00 -0.93959619633E+02  0.96119596273E+02  0.00000000000E+00 0.  1.
         -2    1    1    2    0  502 -0.20250402162E+02  0.69848292784E+00 -0.55378315860E+01  0.21005576517E+02  0.00000000000E+00 0. -1.
<mgrwt>
<rscale>  2 0.20262445E+02</rscale>
<asrwt>0</asrwt>
<pdfrwt beam="1">  1       21 0.13559787E-02 0.20262445E+02</pdfrwt>
<pdfrwt beam="2">  1       21 0.16663278E-01 0.20262445E+02</pdfrwt>
<totfact> 0.51633500E+07</totfact>
</mgrwt>
</event>
<event>
 4    1  0.2761157E+004  0.2542603E+02  0.7546771E-02  0.1654957E+00
         21   -1    0    0  503  502  0.00000000000E+00  0.00000000000E+00  0.73217975489E+02  0.73217975489E+02  0.00000000000E+00 0.  1.
         21   -1    0    0  501  503 -0.00000000000E+00 -0.00000000000E+00 -0.15373610259E+02  0.15373610259E+02  0.00000000000E+00 0. -1.
          2    1    1    2  501    0  0.16971155398E+02  0.18933110593E+02  0.22190094931E-01  0.25426035568E+02  0.00000000000E+00 0. -1.
         -2    1    1    2    0  502 -0.16971155398E+02 -0.18933110593E+02  0.57822175135E+02  0.63165550181E+02  0.00000000000E+00 0.  1.
<mgrwt>
<rscale>  2 0.25426026E+02</rscale>
<asrwt>0</asrwt>
<pdfrwt beam="1">  1       21 0.11264304E-01 0.25426026E+02</pdfrwt>
<pdfrwt beam="2">  1       21 0.23651708E-02 0.25426026E+02</pdfrwt>
<totfact> 0.45298481E+07</totfact>
</mgrwt>
</event>
<event>
 4    1  0.2761157E+004  0.2067284E+02  0.7546771E-02  0.1732270E+00
         21   -1    0    0  503  502  0.00000000000E+00  0.00000000000E+00  0.32219526262E+02  0.32219526262E+02  0.00000000000E+00 0. -1.
         21   -1    0    0  501  503 -0.00000000000E+00 -0.00000000000E+00 -0.19129035785E+02  0.19129035785E+02  0.00000000000E+00 0.  1.
          2    1    1    2  501    0 -0.19512854583E+02 -0.68275159165E+01 -0.76708203247E+01  0.22050123628E+02  0.00000000000E+00 0.  1.
         -2    1    1    2    0  502  0.19512854583E+02  0.68275159165E+01  0.20761310802E+02  0.29298438419E+02  0.00000000000E+00 0. -1.
<mgrwt>
<rscale>  2 0.20672844E+02</rscale>
<asrwt>0</asrwt>
<pdfrwt beam="1">  1       21 0.49568502E-02 0.20672844E+02</pdfrwt>
<pdfrwt beam="2">  1       21 0.29429286E-02 0.20672844E+02</pdfrwt>
<totfact> 0.11599099E+08</totfact>
</mgrwt>
</event>
<event>
 4    1  0.2761157E+004  0.4636163E+02  0.7546771E-02  0.1466016E+00
         21   -1    0    0  501  502  0.00000000000E+00  0.00000000000E+00  0.98816859783E+01  0.98816859783E+01  0.00000000000E+00 0.  1.
         21   -1    0    0  502  503 -0.00000000000E+00 -0.00000000000E+00 -0.27467747426E+03  0.27467747426E+03  0.00000000000E+00 0. -1.
          2    1    1    2  501    0  0.45176714668E+02 -0.10414660303E+02 -0.67490820203E+02  0.81880470865E+02  0.00000000000E+00 0.  1.
         -2    1    1    2    0  503 -0.45176714668E+02  0.10414660303E+02 -0.19730496808E+03  0.20267868938E+03  0.00000000000E+00 0. -1.
<mgrwt>
<rscale>  2 0.46361630E+02</rscale>
<asrwt>0</asrwt>
<pdfrwt beam="1">  1       21 0.15202594E-02 0.46361630E+02</pdfrwt>
<pdfrwt beam="2">  1       21 0.42258072E-01 0.46361630E+02</pdfrwt>
<totfact> 0.92936489E+06</totfact>
</mgrwt>
</event>
<event>
 4    1  0.2761157E+004  0.3890198E+02  0.7546771E-02  0.1516451E+00
         21   -1    0    0  501  502  0.00000000000E+00  0.00000000000E+00  0.23820890471E+03  0.23820890471E+03  0.00000000000E+00 0. -1.
         21   -1    0    0  502  503 -0.00000000000E+00 -0.00000000000E+00 -0.67714182108E+01  0.67714182108E+01  0.00000000000E+00 0.  1.
          2    1    1    2  501    0  0.26802442057E+02  0.28195628976E+02  0.14616375032E+03  0.15125212826E+03  0.00000000000E+00 0. -1.
         -2    1    1    2    0  503 -0.26802442057E+02 -0.28195628976E+02  0.85273736170E+02  0.93728194658E+02  0.00000000000E+00 0.  1.
<mgrwt>
<rscale>  2 0.38901984E+02</rscale>
<asrwt>0</asrwt>
<pdfrwt beam="1">  1       21 0.36647517E-01 0.38901984E+02</pdfrwt>
<pdfrwt beam="2">  1       21 0.10417568E-02 0.38901984E+02</pdfrwt>
<totfact> 0.21397672E+07</totfact>
</mgrwt>
</event>
<event>
 4    1  0.2761157E+004  0.2000532E+02  0.7546771E-02  0.1745222E+00
         21   -1    0    0  503  502  0.00000000000E+00  0.00000000000E+00  0.63360411947E+03  0.63360411947E+03  0.00000000000E+00 0. -1.
         21   -1    0    0  501  503 -0.00000000000E+00 -0.00000000000E+00 -0.64610653848E+00  0.64610653848E+00  0.00000000000E+00 0.  1.
          2    1    1    2  501    0 -0.17109876005E+02 -0.10366532803E+02  0.26903447458E+03  0.26977724398E+03  0.00000000000E+00 0.  1.
         -2    1    1    2    0  502  0.17109876005E+02  0.10366532803E+02  0.36392353835E+03  0.36447298203E+03  0.00000000000E+00 0. -1.
<mgrwt>
<rscale>  2 0.20005321E+02</rscale>
<asrwt>0</asrwt>
<pdfrwt beam="1">  1       21 0.97477060E-01 0.20005321E+02</pdfrwt>
<pdfrwt beam="2">  1       21 0.99401512E-04 0.20005321E+02</pdfrwt>
<totfact> 0.81917617E+07</totfact>
</mgrwt>
</event>
<event>
 4    1  0.2761157E+004  0.2006028E+02  0.7546771E-02  0.1744132E+00
         21   -1    0    0  501  502  0.00000000000E+00  0.00000000000E+00  0.14117778195E+01  0.14117778195E+01  0.00000000000E+00 0.  1.
         21   -1    0    0  502  503 -0.00000000000E+00 -0.00000000000E+00 -0.77601744202E+03  0.77601744202E+03  0.00000000000E+00 0. -1.
          2    1    1    2  501    0  0.16349160307E+02  0.11624110817E+02 -0.78112921306E+02  0.80647650121E+02  0.00000000000E+00 0.  1.
         -2    1    1    2    0  503 -0.16349160307E+02 -0.11624110817E+02 -0.69649274289E+03  0.69678156972E+03  0.00000000000E+00 0. -1.
<mgrwt>
<rscale>  2 0.20060284E+02</rscale>
<asrwt>0</asrwt>
<pdfrwt beam="1">  1       21 0.21719729E-03 0.20060284E+02</pdfrwt>
<pdfrwt beam="2">  1       21 0.11938692E+00 0.20060284E+02</pdfrwt>
<totfact> 0.17174086E+07</totfact>
</mgrwt>
</event>
<event>
 4    1  0.2761157E+004  0.2009426E+02  0.7546771E-02  0.1743460E+00
         21   -1    0    0  503  502  0.00000000000E+00  0.00000000000E+00  0.15206266806E+02  0.15206266806E+02  0.00000000000E+00 0.  1.
         21   -1    0    0  501  503 -0.00000000000E+00 -0.00000000000E+00 -0.28336788994E+02  0.28336788994E+02  0.00000000000E+00 0. -1.
          2    1    1    2  501    0 -0.15757735988E+02  0.12468885973E+02 -0.12026943151E+02  0.23418512388E+02  0.00000000000E+00 0.  1.
         -2    1    1    2    0  502  0.15757735988E+02 -0.12468885973E+02 -0.11035790368E+01  0.20124543413E+02  0.00000000000E+00 0. -1.
<mgrwt>
<rscale>  2 0.20094262E+02</rscale>
<asrwt>0</asrwt>
<pdfrwt beam="1">  1       21 0.23394257E-02 0.20094262E+02</pdfrwt>
<pdfrwt beam="2">  1       21 0.43595060E-02 0.20094262E+02</pdfrwt>
<totfact> 0.20056456E+08</totfact>
</mgrwt>
</event>
<event>
 4    1  0.2761157E+004  0.2127708E+02  0.7546771E-02  0.1721063E+00
         21   -1    0    0  501  502  0.00000000000E+00  0.00000000000E+00  0.26559024946E+01  0.26559024946E+01  0.00000000000E+00 0.  1.
         21   -1    0    0  502  503 -0.00000000000E+00 -0.00000000000E+00 -0.17052642630E+03  0.17052642630E+03  0.00000000000E+00 0. -1.
          2    1    1    2  501    0  0.28029481280E+01 -0.21091644678E+02 -0.85697443018E+02  0.88299296335E+02  0.00000000000E+00 0.  1.
         -2    1    1    2    0  503 -0.28029481280E+01  0.21091644678E+02 -0.82173080788E+02  0.84883032460E+02  0.00000000000E+00 0. -1.
<mgrwt>
<rscale>  2 0.21277077E+02</rscale>
<asrwt>0</asrwt>
<pdfrwt beam="1">  1       21 0.40860035E-03 0.21277077E+02</pdfrwt>
<pdfrwt beam="2">  1       21 0.26234837E-01 0.21277077E+02</pdfrwt>
<totfact> 0.14075471E+08</totfact>
</mgrwt>
</event>
<event>
 4    1  0.2761157E+004  0.4951309E+02  0.7546771E-02  0.1447986E+00
         21   -1    0    0  503  502  0.00000000000E+00  0.00000000000E+00  0.94407534657E+02  0.94407534657E+02  0.00000000000E+00 0.  1.
         21   -1    0    0  501  503 -0.00000000000E+00 -0.00000000000E+00 -0.27706524183E+02  0.27706524183E+02  0.00000000000E+00 0. -1.
          2    1    1    2  501    0 -0.32302326879E+01  0.49407603038E+02  0.18054653357E+02  0.52702145583E+02  0.00000000000E+00 0. -1.
         -2    1    1    2    0  502  0.32302326879E+01 -0.49407603038E+02  0.48646357117E+02  0.69411913257E+02  0.00000000000E+00 0.  1.
<mgrwt>
<rscale>  2 0.49513086E+02</rscale>
<asrwt>0</asrwt>
<pdfrwt beam="1">  1       21 0.14524236E-01 0.49513086E+02</pdfrwt>
<pdfrwt beam="2">  1       21 0.42625422E-02 0.49513086E+02</pdfrwt>
<totfact> 0.12986045E+07</totfact>
</mgrwt>
</event>
<event>
 4    1  0.2761157E+004  0.2393355E+02  0.7546771E-02  0.1676810E+00
         21   -1    0    0  503  502  0.00000000000E+00  0.00000000000E+00  0.19904984249E+03  0.19904984249E+03  0.00000000000E+00 0.  1.
         21   -1    0    0  501  503 -0.00000000000E+00 -0.00000000000E+00 -0.28805483596E+01  0.28805483596E+01  0.00000000000E+00 0. -1.
          2    1    1    2  501    0 -0.20303694913E+02  0.12671804003E+02  0.94934788331E+02  0.97905202513E+02  0.00000000000E+00 0. -1.
         -2    1    1    2    0  502  0.20303694913E+02 -0.12671804003E+02  0.10123450580E+03  0.10402518834E+03  0.00000000000E+00 0.  1.
<mgrwt>
<rscale>  2 0.23933546E+02</rscale>
<asrwt>0</asrwt>
<pdfrwt beam="1">  1       21 0.30623042E-01 0.23933546E+02</pdfrwt>
<pdfrwt beam="2">  1       21 0.44316144E-03 0.23933546E+02</pdfrwt>
<totfact> 0.97624950E+07</totfact>
</mgrwt>
</event>
<event>
 4    1  0.2761157E+004  0.2315353E+02  0.7546771E-02  0.1689034E+00
         21   -1    0    0  501  502  0.00000000000E+00  0.00000000000E+00  0.21932492488E+02  0.21932492488E+02  0.00000000000E+00 0.  1.
         21   -1    0    0  502  503 -0.00000000000E+00 -0.00000000000E+00 -0.25051540119E+02  0.25051540119E+02  0.00000000000E+00 0. -1.
          2    1    1    2  501    0  0.14209071017E+02 -0.18280810467E+02  0.21032770030E+01  0.23248860287E+02  0.00000000000E+00 0. -1.
         -2    1    1    2    0  503 -0.14209071017E+02  0.18280810467E+02 -0.52223246344E+01  0.23735172320E+02  0.00000000000E+00 0.  1.
<mgrwt>
<rscale>  2 0.23153525E+02</rscale>
<asrwt>0</asrwt>
<pdfrwt beam="1">  1       21 0.33742296E-02 0.23153525E+02</pdfrwt>
<pdfrwt beam="2">  1       21 0.38540831E-02 0.23153525E+02</pdfrwt>
<totfact> 0.14432250E+08</totfact>
</mgrwt>
</event>
<event>
 4    1  0.2761157E+004  0.2043221E+02  0.7546771E-02  0.1736867E+00
         21   -1    0    0  501  502  0.00000000000E+00  0.00000000000E+00  0.95754512508E+02  0.95754512508E+02  0.00000000000E+00 0.  1.
         21   -1    0    0  502  503 -0.00000000000E+00 -0.00000000000E+00 -0.43676626865E+01  0.43676626865E+01  0.00000000000E+00 0. -1.
          2    1    1    2  501    0 -0.17607534699E+02 -0.10365799735E+02  0.43575832337E+02  0.48128247902E+02  0.00000000000E+00 0. -1.
         -2    1    1    2    0  503  0.17607534699E+02  0.10365799735E+02  0.47811017485E+02  0.51993927292E+02  0.00000000000E+00 0.  1.
<mgrwt>
<rscale>  2 0.20432207E+02</rscale>
<asrwt>0</asrwt>
<pdfrwt beam="1">  1       21 0.14731462E-01 0.20432207E+02</pdfrwt>
<pdfrwt beam="2">  1       21 0.67194818E-03 0.20432207E+02</pdfrwt>
<totfact> 0.18210524E+08</totfact>
</mgrwt>
</event>
<event>
 4    1  0.2761157E+004  0.2569765E+02  0.7546771E-02  0.1651179E+00
         21   -1    0    0  503  502  0.00000000000E+00  0.00000000000E+00  0.29881653337E+03  0.29881653337E+03  0.00000000000E+00 0.  1.
         21   -1    0    0  501  503 -0.00000000000E+00 -0.00000000000E+00 -0.22121128617E+01  0.22121128617E+01  0.00000000000E+00 0. -1.
          2    1    1    2  501    0  0.24806908633E+02  0.67072080858E+01  0.14359493329E+03  0.14587622912E+03  0.00000000000E+00 0.  1.
         -2    1    1    2    0  502 -0.24806908633E+02 -0.67072080858E+01  0.15300948722E+03  0.15515241711E+03  0.00000000000E+00 0. -1.
<mgrwt>
<rscale>  2 0.25697653E+02</rscale>
<asrwt>0</asrwt>
<pdfrwt beam="1">  1       21 0.45971742E-01 0.25697653E+02</pdfrwt>
<pdfrwt beam="2">  1       21 0.34032529E-03 0.25697653E+02</pdfrwt>
<totfact> 0.68338245E+07</totfact>
</mgrwt>
</event>
<event>
 4    1  0.2761157E+004  0.2003333E+02  0.7546771E-02  0.1744666E+00
         21   -1    0    0  501  502  0.00000000000E+00  0.00000000000E+00  0.61903673261E+00  0.61903673261E+00  0.00000000000E+00 0.  1.
         21   -1    0    0  502  503 -0.00000000000E+00 -0.00000000000E+00 -0.11815326835E+04  0.11815326835E+04  0.00000000000E+00 0. -1.
          2    1    1    2  501    0 -0.19274090121E+02 -0.54629357385E+01 -0.19338380546E+03  0.19441869877E+03  0.00000000000E+00 0.  1.
         -2    1    1    2    0  503  0.19274090121E+02  0.54629357385E+01 -0.98752984126E+03  0.98773302142E+03  0.00000000000E+00 0. -1.
<mgrwt>
<rscale>  2 0.20033328E+02</rscale>
<asrwt>0</asrwt>
<pdfrwt beam="1">  1       21 0.95237204E-04 0.20033328E+02</pdfrwt>
<pdfrwt beam="2">  1       21 0.18177276E+00 0.20033328E+02</pdfrwt>
<totfact> 0.20758817E+07</totfact>
</mgrwt>
</event>
<event>
 4    1  0.2761157E+004  0.3425436E+02  0.7546771E-02  0.1555323E+00
         21   -1    0    0  501  502  0.00000000000E+00  0.00000000000E+00  0.19150416156E+02  0.19150416156E+02  0.00000000000E+00 0. -1.
         21   -1    0    0  502  503 -0.00000000000E+00 -0.00000000000E+00 -0.61507262393E+02  0.61507262393E+02  0.00000000000E+00 0.  1.
          2    1    1    2  501    0  0.57659760986E+01 -0.33765585693E+02 -0.18677867775E+02  0.39015689180E+02  0.00000000000E+00 0.  1.
         -2    1    1    2    0  503 -0.57659760986E+01  0.33765585693E+02 -0.23678978462E+02  0.41641989368E+02  0.00000000000E+00 0. -1.
<mgrwt>
<rscale>  2 0.34254361E+02</rscale>
<asrwt>0</asrwt>
<pdfrwt beam="1">  1       21 0.29462178E-02 0.34254361E+02</pdfrwt>
<pdfrwt beam="2">  1       21 0.94626559E-02 0.34254361E+02</pdfrwt>
<totfact> 0.45931383E+07</totfact>
</mgrwt>
</event>
<event>
 4    1  0.2761157E+004  0.2819653E+02  0.7546771E-02  0.1618924E+00
         21   -1    0    0  503  502  0.00000000000E+00  0.00000000000E+00  0.34521674458E+03  0.34521674458E+03  0.00000000000E+00 0. -1.
         21   -1    0    0  501  503 -0.00000000000E+00 -0.00000000000E+00 -0.18418980488E+02  0.18418980488E+02  0.00000000000E+00 0.  1.
          2    1    1    2  501    0 -0.23409595740E+02  0.15717354949E+02 -0.66726876412E+01  0.28975320182E+02  0.00000000000E+00 0.  1.
         -2    1    1    2    0  502  0.23409595740E+02 -0.15717354949E+02  0.33347045173E+03  0.33466040489E+03  0.00000000000E+00 0. -1.
<mgrwt>
<rscale>  2 0.28196532E+02</rscale>
<asrwt>0</asrwt>
<pdfrwt beam="1">  1       21 0.53110263E-01 0.28196532E+02</pdfrwt>
<pdfrwt beam="2">  1       21 0.28336896E-02 0.28196532E+02</pdfrwt>
<totfact> 0.21265618E+06</totfact>
</mgrwt>
</event>
<event>
 4    1  0.2761157E+004  0.3153900E+02  0.7546771E-02  0.1581675E+00
         21   -1    0    0  503  502  0.00000000000E+00  0.00000000000E+00  0.24767979281E+02  0.24767979281E+02  0.00000000000E+00 0.  1.
         21   -1    0    0  501  503 -0.00000000000E+00 -0.00000000000E+00 -0.74180730015E+02  0.74180730015E+02  0.00000000000E+00 0. -1.
          2    1    1    2  501    0  0.31538980612E+02 -0.30682741610E-01 -0.58210606104E+02  0.66205610808E+02  0.00000000000E+00 0. -1.
         -2    1    1    2    0  502 -0.31538980612E+02  0.30682741610E-01  0.87978553698E+01  0.32743098488E+02  0.00000000000E+00 0.  1.
<mgrwt>
<rscale>  2 0.31538996E+02</rscale>
<asrwt>0</asrwt>
<pdfrwt beam="1">  1       21 0.38104584E-02 0.31538996E+02</pdfrwt>
<pdfrwt beam="2">  1       21 0.11412420E-01 0.31538996E+02</pdfrwt>
<totfact> 0.21937984E+07</totfact>
</mgrwt>
</event>
<event>
 4    1  0.2761157E+004  0.2116183E+02  0.7546771E-02  0.1723164E+00
         21   -1    0    0  501  502  0.00000000000E+00  0.00000000000E+00  0.56177534301E+01  0.56177534301E+01  0.00000000000E+00 0. -1.
         21   -1    0    0  502  503 -0.00000000000E+00 -0.00000000000E+00 -0.26655399340E+03  0.26655399340E+03  0.00000000000E+00 0.  1.
          2    1    1    2  501    0  0.20564098172E+02  0.49941054700E+01 -0.16534111167E+02  0.26855168127E+02  0.00000000000E+00 0. -1.
         -2    1    1    2    0  503 -0.20564098172E+02 -0.49941054700E+01 -0.24440212881E+03  0.24531657871E+03  0.00000000000E+00 0.  1.
<mgrwt>
<rscale>  2 0.21161834E+02</rscale>
<asrwt>0</asrwt>
<pdfrwt beam="1">  1       21 0.86426945E-03 0.21161834E+02</pdfrwt>
<pdfrwt beam="2">  1       21 0.41008321E-01 0.21161834E+02</pdfrwt>
<totfact> 0.20499959E+07</totfact>
</mgrwt>
</event>
<event>
 4    1  0.2761157E+004  0.4711511E+02  0.7546771E-02  0.1461553E+00
         21   -1    0    0  501  502  0.00000000000E+00  0.00000000000E+00  0.11127915517E+02  0.11127915517E+02  0.00000000000E+00 0. -1.
         21   -1    0    0  502  503 -0.00000000000E+00 -0.00000000000E+00 -0.53156262191E+03  0.53156262191E+03  0.00000000000E+00 0.  1.
          2    1    1    2  501    0  0.36680135204E+02 -0.29570274343E+02 -0.45747652893E+02  0.65671007214E+02  0.00000000000E+00 0. -1.
         -2    1    1    2    0  503 -0.36680135204E+02  0.29570274343E+02 -0.47468705350E+03  0.47701953022E+03  0.00000000000E+00 0.  1.
<mgrwt>
<rscale>  2 0.47115108E+02</rscale>
<asrwt>0</asrwt>
<pdfrwt beam="1">  1       21 0.17119869E-02 0.47115108E+02</pdfrwt>
<pdfrwt beam="2">  1       21 0.81778870E-01 0.47115108E+02</pdfrwt>
<totfact> 0.19941718E+06</totfact>
</mgrwt>
</event>
<event>
 4    1  0.2761157E+004  0.2256837E+02  0.7546771E-02  0.1698604E+00
         21   -1    0    0  501  502  0.00000000000E+00  0.00000000000E+00  0.33577810855E+03  0.33577810855E+03  0.00000000000E+00 0.  1.
         21   -1    0    0  502  503 -0.00000000000E+00 -0.00000000000E+00 -0.10971507287E+02  0.10971507287E+02  0.00000000000E+00 0. -1.
          2    1    1    2  501    0 -0.48671825608E+01 -0.22037288126E+02  0.32334748758E+03  0.32413412233E+03  0.00000000000E+00 0.  1.
         -2    1    1    2    0  503  0.48671825608E+01  0.22037288126E+02  0.14591136869E+01  0.22615493512E+02  0.00000000000E+00 0. -1.
<mgrwt>
<rscale>  2 0.22568375E+02</rscale>
<asrwt>0</asrwt>
<pdfrwt beam="1">  1       21 0.51658163E-01 0.22568375E+02</pdfrwt>
<pdfrwt beam="2">  1       21 0.16879245E-02 0.22568375E+02</pdfrwt>
<totfact> 0.48581820E+06</totfact>
</mgrwt>
</event>
<event>
 4    1  0.2761157E+004  0.2030578E+02  0.7546771E-02  0.1739315E+00
         21   -1    0    0  503  502  0.00000000000E+00  0.00000000000E+00  0.29707676905E+02  0.29707676905E+02  0.00000000000E+00 0. -1.
         21   -1    0    0  501  503 -0.00000000000E+00 -0.00000000000E+00 -0.28042751861E+02  0.28042751861E+02  0.00000000000E+00 0.  1.
          2    1    1    2  501    0  0.62512313688E+01 -0.19319598767E+02 -0.19688507900E+02  0.28283601848E+02  0.00000000000E+00 0. -1.
         -2    1    1    2    0  502 -0.62512313688E+01  0.19319598767E+02  0.21353432944E+02  0.29466826918E+02  0.00000000000E+00 0.  1.
<mgrwt>
<rscale>  2 0.20305782E+02</rscale>
<asrwt>0</asrwt>
<pdfrwt beam="1">  1       21 0.45704119E-02 0.20305782E+02</pdfrwt>
<pdfrwt beam="2">  1       21 0.43142695E-02 0.20305782E+02</pdfrwt>
<totfact> 0.72201716E+07</totfact>
</mgrwt>
</event>
<event>
 4    1  0.2761157E+004  0.2071463E+02  0.7546771E-02  0.1731479E+00
         21   -1    0    0  501  502  0.00000000000E+00  0.00000000000E+00  0.10103793663E+02  0.10103793663E+02  0.00000000000E+00 0.  1.
         21   -1    0    0  502  503 -0.00000000000E+00 -0.00000000000E+00 -0.45698860146E+02  0.45698860146E+02  0.00000000000E+00 0. -1.
          2    1    1    2  501    0 -0.10348073440E+02  0.17944723978E+02 -0.10379664571E+02  0.23169660748E+02  0.00000000000E+00 0.  1.
         -2    1    1    2    0  503  0.10348073440E+02 -0.17944723978E+02 -0.25215401912E+02  0.32632993062E+02  0.00000000000E+00 0. -1.
<mgrwt>
<rscale>  2 0.20714626E+02</rscale>
<asrwt>0</asrwt>
<pdfrwt beam="1">  1       21 0.15544298E-02 0.20714626E+02</pdfrwt>
<pdfrwt beam="2">  1       21 0.70305939E-02 0.20714626E+02</pdfrwt>
<totfact> 0.17652094E+08</totfact>
</mgrwt>
</event>
<event>
 4    1  0.2761157E+004  0.3131879E+02  0.7546771E-02  0.1583953E+00
         21   -1    0    0  503  502  0.00000000000E+00  0.00000000000E+00  0.42852149947E+01  0.42852149947E+01  0.00000000000E+00 0. -1.
         21   -1    0    0  501  503 -0.00000000000E+00 -0.00000000000E+00 -0.44624482245E+03  0.44624482245E+03  0.00000000000E+00 0.  1.
          2    1    1    2  501    0 -0.91796674825E+00  0.31305334105E+02 -0.37819201069E+03  0.37948657889E+03  0.00000000000E+00 0.  1.
         -2    1    1    2    0  502  0.91796674825E+00 -0.31305334105E+02 -0.63767596759E+02  0.71043458550E+02  0.00000000000E+00 0. -1.
<mgrwt>
<rscale>  2 0.31318790E+02</rscale>
<asrwt>0</asrwt>
<pdfrwt beam="1">  1       21 0.65926376E-03 0.31318790E+02</pdfrwt>
<pdfrwt beam="2">  1       21 0.68653058E-01 0.31318790E+02</pdfrwt>
<totfact> 0.11942130E+07</totfact>
</mgrwt>
</event>
<event>
 4    1  0.2761157E+004  0.3230820E+02  0.7546771E-02  0.1573892E+00
         21   -1    0    0  503  502  0.00000000000E+00  0.00000000000E+00  0.67647229298E+01  0.67647229298E+01  0.00000000000E+00 0.  1.
         21   -1    0    0  501  503 -0.00000000000E+00 -0.00000000000E+00 -0.18569657804E+03  0.18569657804E+03  0.00000000000E+00 0. -1.
          2    1    1    2  501    0 -0.31474474800E+02  0.72922834871E+01 -0.12903254223E+03  0.13301585213E+03  0.00000000000E+00 0. -1.
         -2    1    1    2    0  502  0.31474474800E+02 -0.72922834871E+01 -0.49899312879E+02  0.59445448843E+02  0.00000000000E+00 0.  1.
<mgrwt>
<rscale>  2 0.32308203E+02</rscale>
<asrwt>0</asrwt>
<pdfrwt beam="1">  1       21 0.10407267E-02 0.32308203E+02</pdfrwt>
<pdfrwt beam="2">  1       21 0.28568701E-01 0.32308203E+02</pdfrwt>
<totfact> 0.33049295E+07</totfact>
</mgrwt>
</event>
<event>
 4    1  0.2761157E+004  0.2683370E+02  0.7546771E-02  0.1635980E+00
         21   -1    0    0  503  502  0.00000000000E+00  0.00000000000E+00  0.20695379568E+03  0.20695379568E+03  0.00000000000E+00 0. -1.
         21   -1    0    0  501  503 -0.00000000000E+00 -0.00000000000E+00 -0.67246319632E+01  0.67246319632E+01  0.00000000000E+00 0.  1.
          2    1    1    2  501    0 -0.26798821962E+02 -0.13677526057E+01  0.25893348893E+02  0.37289584640E+02  0.00000000000E+00 0.  1.
         -2    1    1    2    0  502  0.26798821962E+02  0.13677526057E+01  0.17433581483E+03  0.17638884301E+03  0.00000000000E+00 0. -1.
<mgrwt>
<rscale>  2 0.26833703E+02</rscale>
<asrwt>0</asrwt>
<pdfrwt beam="1">  1       21 0.31839041E-01 0.26833703E+02</pdfrwt>
<pdfrwt beam="2">  1       21 0.10345589E-02 0.26833703E+02</pdfrwt>
<totfact> 0.26350045E+07</totfact>
</mgrwt>
</event>
<event>
 4    1  0.2761157E+004  0.2000878E+02  0.7546771E-02  0.1745153E+00
         21   -1    0    0  503  502  0.00000000000E+00  0.00000000000E+00  0.21794450248E+01  0.21794450248E+01  0.00000000000E+00 0. -1.
         21   -1    0    0  501  503 -0.00000000000E+00 -0.00000000000E+00 -0.23358780206E+03  0.23358780206E+03  0.00000000000E+00 0.  1.
          2    1    1    2  501    0  0.15379630616E+02  0.12799156549E+02 -0.17018589156E+03  0.17135807285E+03  0.00000000000E+00 0. -1.
         -2    1    1    2    0  502 -0.15379630616E+02 -0.12799156549E+02 -0.61222465480E+02  0.64409174235E+02  0.00000000000E+00 0.  1.
<mgrwt>
<rscale>  2 0.20008784E+02</rscale>
<asrwt>0</asrwt>
<pdfrwt beam="1">  1       21 0.33529917E-03 0.20008784E+02</pdfrwt>
<pdfrwt beam="2">  1       21 0.35936592E-01 0.20008784E+02</pdfrwt>
<totfact> 0.10422091E+08</totfact>
</mgrwt>
</event>
<event>
 4    1  0.2761157E+004  0.5616335E+02  0.7546771E-02  0.1414676E+00
         21   -1    0    0  501  502  0.00000000000E+00  0.00000000000E+00  0.31732859667E+03  0.31732859667E+03  0.00000000000E+00 0. -1.
         21   -1    0    0  502  503 -0.00000000000E+00 -0.00000000000E+00 -0.16893524110E+02  0.16893524110E+02  0.00000000000E+00 0.  1.
          2    1    1    2  501    0  0.37835116444E+02  0.41506943275E+02  0.25742871178E+03  0.26348408686E+03  0.00000000000E+00 0. -1.
         -2    1    1    2    0  503 -0.37835116444E+02 -0.41506943275E+02  0.43006360783E+02  0.70738033929E+02  0.00000000000E+00 0.  1.
<mgrwt>
<rscale>  2 0.56163354E+02</rscale>
<asrwt>0</asrwt>
<pdfrwt beam="1">  1       21 0.48819780E-01 0.56163354E+02</pdfrwt>
<pdfrwt beam="2">  1       21 0.25990039E-02 0.56163354E+02</pdfrwt>
<totfact> 0.30547463E+06</totfact>
</mgrwt>
</event>
<event>
 4    1  0.2761157E+004  0.2229194E+02  0.7546771E-02  0.1703251E+00
         21   -1    0    0  503  502  0.00000000000E+00  0.00000000000E+00  0.86222380282E+01  0.86222380282E+01  0.00000000000E+00 0. -1.
         21   -1    0    0  501  503 -0.00000000000E+00 -0.00000000000E+00 -0.69192194701E+02  0.69192194701E+02  0.00000000000E+00 0.  1.
          2    1    1    2  501    0 -0.68999767618E+01 -0.21197185906E+02 -0.46187085107E+02  0.51285253244E+02  0.00000000000E+00 0.  1.
         -2    1    1    2    0  502  0.68999767618E+01  0.21197185906E+02 -0.14382871565E+02  0.26529179484E+02  0.00000000000E+00 0. -1.
<mgrwt>
<rscale>  2 0.22291935E+02</rscale>
<asrwt>0</asrwt>
<pdfrwt beam="1">  1       21 0.13264982E-02 0.22291935E+02</pdfrwt>
<pdfrwt beam="2">  1       21 0.10644953E-01 0.22291935E+02</pdfrwt>
<totfact> 0.11646678E+08</totfact>
</mgrwt>
</event>
<event>
 4    1  0.2761157E+004  0.2076973E+02  0.7546771E-02  0.1730440E+00
         21   -1    0    0  503  502  0.00000000000E+00  0.00000000000E+00  0.73185834207E+01  0.73185834207E+01  0.00000000000E+00 0. -1.
         21   -1    0    0  501  503 -0.00000000000E+00 -0.00000000000E+00 -0.61521851067E+02  0.61521851067E+02  0.00000000000E+00 0.  1.
          2    1    1    2  501    0  0.17530083528E+01  0.20695621385E+02 -0.34148289368E+02  0.39968580780E+02  0.00000000000E+00 0. -1.
         -2    1    1    2    0  502 -0.17530083528E+01 -0.20695621385E+02 -0.20054978278E+02  0.28871853708E+02  0.00000000000E+00 0.  1.
<mgrwt>
<rscale>  2 0.20769732E+02</rscale>
<asrwt>0</asrwt>
<pdfrwt beam="1">  1       21 0.11259359E-02 0.20769732E+02</pdfrwt>
<pdfrwt beam="2">  1       21 0.94648999E-02 0.20769732E+02</pdfrwt>
<totfact> 0.17717155E+08</totfact>
</mgrwt>
</event>
<event>
 4    1  0.2761157E+004  0.3070209E+02  0.7546771E-02  0.1590455E+00
         21   -1    0    0  501  502  0.00000000000E+00  0.00000000000E+00  0.76910420059E+01  0.76910420059E+01  0.00000000000E+00 0. -1.
         21   -1    0    0  502  503 -0.00000000000E+00 -0.00000000000E+00 -0.13144134865E+03  0.13144134865E+03  0.00000000000E+00 0.  1.
          2    1    1    2  501    0  0.29791277658E+02  0.74227942884E+01 -0.43792630600E+02  0.53482825228E+02  0.00000000000E+00 0.  1.
         -2    1    1    2    0  503 -0.29791277658E+02 -0.74227942884E+01 -0.79957676044E+02  0.85649565427E+02  0.00000000000E+00 0. -1.
<mgrwt>
<rscale>  2 0.30702086E+02</rscale>
<asrwt>0</asrwt>
<pdfrwt beam="1">  1       21 0.11832373E-02 0.30702086E+02</pdfrwt>
<pdfrwt beam="2">  1       21 0.20221745E-01 0.30702086E+02</pdfrwt>
<totfact> 0.50113744E+07</totfact>
</mgrwt>
</event>
<event>
 4    1  0.2761157E+004  0.2125177E+02  0.7546771E-02  0.1721523E+00
         21   -1    0    0  503  502  0.00000000000E+00  0.00000000000E+00  0.12507476866E+03  0.12507476866E+03  0.00000000000E+00 0.  1.
         21   -1    0    0  501  503 -0.00000000000E+00 -0.00000000000E+00 -0.38275886973E+01  0.38275886973E+01  0.00000000000E+00 0. -1.
          2    1    1    2  501    0  0.20050313723E+02 -0.70443321870E+01  0.45289974057E+02  0.50028186519E+02  0.00000000000E+00 0. -1.
         -2    1    1    2    0  502 -0.20050313723E+02  0.70443321870E+01  0.75957205910E+02  0.78874170842E+02  0.00000000000E+00 0.  1.
<mgrwt>
<rscale>  2 0.21251769E+02</rscale>
<asrwt>0</asrwt>
<pdfrwt beam="1">  1       21 0.19242269E-01 0.21251769E+02</pdfrwt>
<pdfrwt beam="2">  1       21 0.58885990E-03 0.21251769E+02</pdfrwt>
<totfact> 0.14180436E+08</totfact>
</mgrwt>
</event>
<event>
 4    1  0.2761157E+004  0.2506316E+02  0.7546771E-02  0.1660096E+00
         21   -1    0    0  503  502  0.00000000000E+00  0.00000000000E+00  0.64736533651E+01  0.64736533651E+01  0.00000000000E+00 0. -1.
         21   -1    0    0  501  503 -0.00000000000E+00 -0.00000000000E+00 -0.49959947414E+03  0.49959947414E+03  0.00000000000E+00 0.  1.
          2    1    1    2  501    0  0.24186446331E+02 -0.65709843605E+01 -0.47370141505E+03  0.47436398751E+03  0.00000000000E+00 0.  1.
         -2    1    1    2    0  502 -0.24186446331E+02  0.65709843605E+01 -0.19424405718E+02  0.31709139993E+02  0.00000000000E+00 0. -1.
<mgrwt>
<rscale>  2 0.25063161E+02</rscale>
<asrwt>0</asrwt>
<pdfrwt beam="1">  1       21 0.99594644E-03 0.25063161E+02</pdfrwt>
<pdfrwt beam="2">  1       21 0.76861475E-01 0.25063161E+02</pdfrwt>
<totfact> 0.49196771E+06</totfact>
</mgrwt>
</event>
<event>
 4    1  0.2761157E+004  0.5688448E+02  0.7546771E-02  0.1411392E+00
         21   -1    0    0  501  502  0.00000000000E+00  0.00000000000E+00  0.68855792381E+02  0.68855792381E+02  0.00000000000E+00 0. -1.
         21   -1    0    0  502  503 -0.00000000000E+00 -0.00000000000E+00 -0.47521167732E+02  0.47521167732E+02  0.00000000000E+00 0.  1.
          2    1    1    2  501    0  0.56589356234E+02 -0.57869394578E+01  0.16793066823E+02  0.59311474443E+02  0.00000000000E+00 0.  1.
         -2    1    1    2    0  503 -0.56589356234E+02  0.57869394578E+01  0.45415578270E+01  0.57065485670E+02  0.00000000000E+00 0. -1.
<mgrwt>
<rscale>  2 0.56884479E+02</rscale>
<asrwt>0</asrwt>
<pdfrwt beam="1">  1       21 0.10593199E-01 0.56884479E+02</pdfrwt>
<pdfrwt beam="2">  1       21 0.73109488E-02 0.56884479E+02</pdfrwt>
<totfact> 0.93661610E+06</totfact>
</mgrwt>
</event>
<event>
 4    1  0.2761157E+004  0.3754003E+02  0.7546771E-02  0.1527136E+00
         21   -1    0    0  501  502  0.00000000000E+00  0.00000000000E+00  0.21527338453E+03  0.21527338453E+03  0.00000000000E+00 0.  1.
         21   -1    0    0  502  503 -0.00000000000E+00 -0.00000000000E+00 -0.10053263565E+02  0.10053263565E+02  0.00000000000E+00 0. -1.
          2    1    1    2  501    0 -0.54578922935E+01  0.37141150531E+02  0.16915145872E+03  0.17326704718E+03  0.00000000000E+00 0.  1.
         -2    1    1    2    0  503  0.54578922935E+01 -0.37141150531E+02  0.36068662236E+02  0.52059600907E+02  0.00000000000E+00 0. -1.
<mgrwt>
<rscale>  2 0.37540027E+02</rscale>
<asrwt>0</asrwt>
<pdfrwt beam="1">  1       21 0.33118979E-01 0.37540027E+02</pdfrwt>
<pdfrwt beam="2">  1       21 0.15466561E-02 0.37540027E+02</pdfrwt>
<totfact> 0.14032412E+07</totfact>
</mgrwt>
</event>
<event>
 4    1  0.2761157E+004  0.2247419E+02  0.7546771E-02  0.1700178E+00
         21   -1    0    0  501  502  0.00000000000E+00  0.00000000000E+00  0.87700304580E+02  0.87700304580E+02  0.00000000000E+00 0. -1.
         21   -1    0    0  502  503 -0.00000000000E+00 -0.00000000000E+00 -0.12308363008E+02  0.12308363008E+02  0.00000000000E+00 0.  1.
          2    1    1    2  501    0 -0.21722836275E+02 -0.57626109895E+01  0.74171217643E+02  0.77501347265E+02  0.00000000000E+00 0. -1.
         -2    1    1    2    0  503  0.21722836275E+02  0.57626109895E+01  0.12207239289E+01  0.22507320323E+02  0.00000000000E+00 0.  1.
<mgrwt>
<rscale>  2 0.22474192E+02</rscale>
<asrwt>0</asrwt>
<pdfrwt beam="1">  1       21 0.13492354E-01 0.22474192E+02</pdfrwt>
<pdfrwt beam="2">  1       21 0.18935944E-02 0.22474192E+02</pdfrwt>
<totfact> 0.45691660E+07</totfact>
</mgrwt>
</event>
<event>
 4    1  0.2761157E+004  0.3241184E+02  0.7546771E-02  0.1572863E+00
         21   -1    0    0  501  502  0.00000000000E+00  0.00000000000E+00  0.72035131268E+02  0.72035131268E+02  0.00000000000E+00 0. -1.
         21   -1    0    0  502  503 -0.00000000000E+00 -0.00000000000E+00 -0.89616272733E+02  0.89616272733E+02  0.00000000000E+00 0.  1.
          2    1    1    2  501    0 -0.21292624542E+02  0.24436677906E+02  0.65166795052E+02  0.72782128743E+02  0.00000000000E+00 0. -1.
         -2    1    1    2    0  503  0.21292624542E+02 -0.24436677906E+02 -0.82747936517E+02  0.88869275258E+02  0.00000000000E+00 0.  1.
<mgrwt>
<rscale>  2 0.32411836E+02</rscale>
<asrwt>0</asrwt>
<pdfrwt beam="1">  1       21 0.11082328E-01 0.32411836E+02</pdfrwt>
<pdfrwt beam="2">  1       21 0.13787119E-01 0.32411836E+02</pdfrwt>
<totfact> 0.27852935E+06</totfact>
</mgrwt>
</event>
<event>
 4    1  0.2761157E+004  0.2634446E+02  0.7546771E-02  0.1642409E+00
         21   -1    0    0  503  502  0.00000000000E+00  0.00000000000E+00  0.20484391018E+02  0.20484391018E+02  0.00000000000E+00 0.  1.
         21   -1    0    0  501  503 -0.00000000000E+00 -0.00000000000E+00 -0.35092668848E+02  0.35092668848E+02  0.00000000000E+00 0. -1.
          2    1    1    2  501    0 -0.24212155833E+02  0.10382776009E+02 -0.12467817253E+02  0.29145788629E+02  0.00000000000E+00 0. -1.
         -2    1    1    2    0  502  0.24212155833E+02 -0.10382776009E+02 -0.21404605765E+01  0.26431271237E+02  0.00000000000E+00 0.  1.
<mgrwt>
<rscale>  2 0.26344459E+02</rscale>
<asrwt>0</asrwt>
<pdfrwt beam="1">  1       21 0.31514448E-02 0.26344459E+02</pdfrwt>
<pdfrwt beam="2">  1       21 0.53988721E-02 0.26344459E+02</pdfrwt>
<totfact> 0.97466992E+07</totfact>
</mgrwt>
</event>
<event>
 4    1  0.2761157E+004  0.2627167E+02  0.7546771E-02  0.1643381E+00
         21   -1    0    0  501  502  0.00000000000E+00  0.00000000000E+00  0.25525257065E+03  0.25525257065E+03  0.00000000000E+00 0.  1.
         21   -1    0    0  502  503 -0.00000000000E+00 -0.00000000000E+00 -0.31868647609E+01  0.31868647609E+01  0.00000000000E+00 0. -1.
          2    1    1    2  501    0 -0.26225631774E+02 -0.15546035902E+01  0.17633238556E+03  0.17827874453E+03  0.00000000000E+00 0.  1.
         -2    1    1    2    0  503  0.26225631774E+02  0.15546035902E+01  0.75733320332E+02  0.80160690883E+02  0.00000000000E+00 0. -1.
<mgrwt>
<rscale>  2 0.26271668E+02</rscale>
<asrwt>0</asrwt>
<pdfrwt beam="1">  1       21 0.39269610E-01 0.26271668E+02</pdfrwt>
<pdfrwt beam="2">  1       21 0.49028709E-03 0.26271668E+02</pdfrwt>
<totfact> 0.54185117E+07</totfact>
</mgrwt>
</event>
<event>
 4    1  0.2761157E+004  0.5494984E+02  0.7546771E-02  0.1420336E+00
         21   -1    0    0  501  502  0.00000000000E+00  0.00000000000E+00  0.15608518592E+02  0.15608518592E+02  0.00000000000E+00 0. -1.
         21   -1    0    0  502  503 -0.00000000000E+00 -0.00000000000E+00 -0.22374172315E+03  0.22374172315E+03  0.00000000000E+00 0.  1.
          2    1    1    2  501    0  0.40740600410E+02 -0.36873951515E+02 -0.60032959689E+02  0.81384525993E+02  0.00000000000E+00 0. -1.
         -2    1    1    2    0  503 -0.40740600410E+02  0.36873951515E+02 -0.14810024487E+03  0.15796571575E+03  0.00000000000E+00 0.  1.
<mgrwt>
<rscale>  2 0.54949839E+02</rscale>
<asrwt>0</asrwt>
<pdfrwt beam="1">  1       21 0.24013107E-02 0.54949839E+02</pdfrwt>
<pdfrwt beam="2">  1       21 0.34421802E-01 0.54949839E+02</pdfrwt>
<totfact> 0.68508533E+06</totfact>
</mgrwt>
</event>
<event>
 4    1  0.2761157E+004  0.2292717E+02  0.7546771E-02  0.1692693E+00
         21   -1    0    0  501  502  0.00000000000E+00  0.00000000000E+00  0.62471483286E+02  0.62471483286E+02  0.00000000000E+00 0. -1.
         21   -1    0    0  502  503 -0.00000000000E+00 -0.00000000000E+00 -0.29451078567E+02  0.29451078567E+02  0.00000000000E+00 0.  1.
          2    1    1    2  501    0 -0.17047602903E+02 -0.15330823107E+02  0.55354829554E+02  0.59915040322E+02  0.00000000000E+00 0. -1.
         -2    1    1    2    0  503  0.17047602903E+02  0.15330823107E+02 -0.22334424835E+02  0.32007521531E+02  0.00000000000E+00 0.  1.
<mgrwt>
<rscale>  2 0.22927165E+02</rscale>
<asrwt>0</asrwt>
<pdfrwt beam="1">  1       21 0.96109974E-02 0.22927165E+02</pdfrwt>
<pdfrwt beam="2">  1       21 0.45309352E-02 0.22927165E+02</pdfrwt>
<totfact> 0.20803498E+07</totfact>
</mgrwt>
</event>
<event>
 4    1  0.2761157E+004  0.2218750E+02  0.7546771E-02  0.1705029E+00
         21   -1    0    0  501  502  0.00000000000E+00  0.00000000000E+00  0.33096960146E+03  0.33096960146E+03  0.00000000000E+00 0.  1.
         21   -1    0    0  502  503 -0.00000000000E+00 -0.00000000000E+00 -0.15044935258E+01  0.15044935258E+01  0.00000000000E+00 0. -1.
          2    1    1    2  501    0  0.43530798594E+01 -0.21756285379E+02  0.14701485534E+03  0.14867969918E+03  0.00000000000E+00 0.  1.
         -2    1    1    2    0  503 -0.43530798594E+01  0.21756285379E+02  0.18245025259E+03  0.18379439581E+03  0.00000000000E+00 0. -1.
<mgrwt>
<rscale>  2 0.22187502E+02</rscale>
<asrwt>0</asrwt>
<pdfrwt beam="1">  1       21 0.50918343E-01 0.22187502E+02</pdfrwt>
<pdfrwt beam="2">  1       21 0.23146080E-03 0.22187502E+02</pdfrwt>
<totfact> 0.94806740E+07</totfact>
</mgrwt>
</event>
<event>
 4    1  0.2761157E+004  0.2077228E+02  0.7546771E-02  0.1730393E+00
         21   -1    0    0  501  502  0.00000000000E+00  0.00000000000E+00  0.37116391691E+02  0.37116391691E+02  0.00000000000E+00 0. -1.
         21   -1    0    0  502  503 -0.00000000000E+00 -0.00000000000E+00 -0.11684705920E+02  0.11684705920E+02  0.00000000000E+00 0.  1.
          2    1    1    2  501    0 -0.80631045949E+01  0.19143506671E+02  0.14456332510E+02  0.25307569086E+02  0.00000000000E+00 0. -1.
         -2    1    1    2    0  503  0.80631045949E+01 -0.19143506671E+02  0.10975353261E+02  0.23493528526E+02  0.00000000000E+00 0.  1.
<mgrwt>
<rscale>  2 0.20772277E+02</rscale>
<asrwt>0</asrwt>
<pdfrwt beam="1">  1       21 0.57102141E-02 0.20772277E+02</pdfrwt>
<pdfrwt beam="2">  1       21 0.17976471E-02 0.20772277E+02</pdfrwt>
<totfact> 0.19777462E+08</totfact>
</mgrwt>
</event>
<event>
 4    1  0.2761157E+004  0.2936925E+02  0.7546771E-02  0.1605167E+00
         21   -1    0    0  503  502  0.00000000000E+00  0.00000000000E+00  0.76565282585E+03  0.76565282585E+03  0.00000000000E+00 0.  1.
         21   -1    0    0  501  503 -0.00000000000E+00 -0.00000000000E+00 -0.11290875694E+01  0.11290875694E+01  0.00000000000E+00 0. -1.
          2    1    1    2  501    0  0.26611259324E+02 -0.12425516742E+02  0.36411629337E+03  0.36529881972E+03  0.00000000000E+00 0. -1.
         -2    1    1    2    0  502 -0.26611259324E+02  0.12425516742E+02  0.40040744491E+03  0.40148309370E+03  0.00000000000E+00 0.  1.
<mgrwt>
<rscale>  2 0.29369246E+02</rscale>
<asrwt>0</asrwt>
<pdfrwt beam="1">  1       21 0.11779233E+00 0.29369246E+02</pdfrwt>
<pdfrwt beam="2">  1       21 0.17370639E-03 0.29369246E+02</pdfrwt>
<totfact> 0.26165092E+07</totfact>
</mgrwt>
</event>
<event>
 4    1  0.2761157E+004  0.5742075E+02  0.7546771E-02  0.1408986E+00
         21   -1    0    0  501  502  0.00000000000E+00  0.00000000000E+00  0.50041918044E+02  0.50041918044E+02  0.00000000000E+00 0.  1.
         21   -1    0    0  502  503 -0.00000000000E+00 -0.00000000000E+00 -0.80653194822E+02  0.80653194822E+02  0.00000000000E+00 0. -1.
          2    1    1    2  501    0 -0.19027729446E+02 -0.54176450384E+02  0.12654796705E+02  0.58798691684E+02  0.00000000000E+00 0.  1.
         -2    1    1    2    0  503  0.19027729446E+02  0.54176450384E+02 -0.43266073483E+02  0.71896421182E+02  0.00000000000E+00 0. -1.
<mgrwt>
<rscale>  2 0.57420748E+02</rscale>
<asrwt>0</asrwt>
<pdfrwt beam="1">  1       21 0.76987567E-02 0.57420748E+02</pdfrwt>
<pdfrwt beam="2">  1       21 0.12408184E-01 0.57420748E+02</pdfrwt>
<totfact> 0.65432228E+06</totfact>
</mgrwt>
</event>
<event>
 4    1  0.2761157E+004  0.2126805E+02  0.7546771E-02  0.1721227E+00
         21   -1    0    0  501  502  0.00000000000E+00  0.00000000000E+00  0.53547634264E+02  0.53547634264E+02  0.00000000000E+00 0.  1.
         21   -1    0    0  502  503 -0.00000000000E+00 -0.00000000000E+00 -0.97498333717E+01  0.97498333717E+01  0.00000000000E+00 0. -1.
          2    1    1    2  501    0 -0.16847349247E+02 -0.12980623389E+02  0.33467000697E+02  0.39653119624E+02  0.00000000000E+00 0.  1.
         -2    1    1    2    0  503  0.16847349247E+02  0.12980623389E+02  0.10330800196E+02  0.23644348012E+02  0.00000000000E+00 0. -1.
<mgrwt>
<rscale>  2 0.21268046E+02</rscale>
<asrwt>0</asrwt>
<pdfrwt beam="1">  1       21 0.82380974E-02 0.21268046E+02</pdfrwt>
<pdfrwt beam="2">  1       21 0.14999744E-02 0.21268046E+02</pdfrwt>
<totfact> 0.14529506E+08</totfact>
</mgrwt>
</event>
<event>
 4    1  0.2761157E+004  0.2171244E+02  0.7546771E-02  0.1713273E+00
         21   -1    0    0  503  502  0.00000000000E+00  0.00000000000E+00  0.83440827958E+02  0.83440827958E+02  0.00000000000E+00 0.  1.
         21   -1    0    0  501  503 -0.00000000000E+00 -0.00000000000E+00 -0.29959220129E+02  0.29959220129E+02  0.00000000000E+00 0. -1.
          2    1    1    2  501    0 -0.25846814704E+01  0.21558046717E+02 -0.24333758209E+02  0.32612294386E+02  0.00000000000E+00 0. -1.
         -2    1    1    2    0  502  0.25846814704E+01 -0.21558046717E+02  0.77815366038E+02  0.80787753702E+02  0.00000000000E+00 0.  1.
<mgrwt>
<rscale>  2 0.21712438E+02</rscale>
<asrwt>0</asrwt>
<pdfrwt beam="1">  1       21 0.12837050E-01 0.21712438E+02</pdfrwt>
<pdfrwt beam="2">  1       21 0.46091108E-02 0.21712438E+02</pdfrwt>
<totfact> 0.12364153E+07</totfact>
</mgrwt>
</event>
<event>
 4    1  0.2761157E+004  0.2151116E+02  0.7546771E-02  0.1716846E+00
         21   -1    0    0  501  502  0.00000000000E+00  0.00000000000E+00  0.32325104809E+03  0.32325104809E+03  0.00000000000E+00 0. -1.
         21   -1    0    0  502  503 -0.00000000000E+00 -0.00000000000E+00 -0.39939688451E+01  0.39939688451E+01  0.00000000000E+00 0.  1.
          2    1    1    2  501    0  0.47462535997E+01 -0.20981020338E+02  0.29068878805E+03  0.29148362156E+03  0.00000000000E+00 0. -1.
         -2    1    1    2    0  503 -0.47462535997E+01  0.20981020338E+02  0.28568291198E+02  0.35761395382E+02  0.00000000000E+00 0.  1.
<mgrwt>
<rscale>  2 0.21511163E+02</rscale>
<asrwt>0</asrwt>
<pdfrwt beam="1">  1       21 0.49730910E-01 0.21511163E+02</pdfrwt>
<pdfrwt beam="2">  1       21 0.61445700E-03 0.21511163E+02</pdfrwt>
<totfact> 0.23625833E+07</totfact>
</mgrwt>
</event>
<event>
 4    1  0.2761157E+004  0.2802634E+02  0.7546771E-02  0.1620989E+00
         21   -1    0    0  501  502  0.00000000000E+00  0.00000000000E+00  0.61569753508E+01  0.61569753508E+01  0.00000000000E+00 0. -1.
         21   -1    0    0  502  503 -0.00000000000E+00 -0.00000000000E+00 -0.13019228677E+03  0.13019228677E+03  0.00000000000E+00 0.  1.
          2    1    1    2  501    0 -0.16901623161E+02 -0.22356451221E+02 -0.71683962838E+02  0.76967956351E+02  0.00000000000E+00 0.  1.
         -2    1    1    2    0  503  0.16901623161E+02  0.22356451221E+02 -0.52351348584E+02  0.59381305773E+02  0.00000000000E+00 0. -1.
<mgrwt>
<rscale>  2 0.28026341E+02</rscale>
<asrwt>0</asrwt>
<pdfrwt beam="1">  1       21 0.94722695E-03 0.28026341E+02</pdfrwt>
<pdfrwt beam="2">  1       21 0.20029583E-01 0.28026341E+02</pdfrwt>
<totfact> 0.69978915E+07</totfact>
</mgrwt>
</event>
<event>
 4    1  0.2761157E+004  0.2331244E+02  0.7546771E-02  0.1686495E+00
         21   -1    0    0  501  502  0.00000000000E+00  0.00000000000E+00  0.34047321250E+03  0.34047321250E+03  0.00000000000E+00 0.  1.
         21   -1    0    0  502  503 -0.00000000000E+00 -0.00000000000E+00 -0.43899403470E+01  0.43899403470E+01  0.00000000000E+00 0. -1.
          2    1    1    2  501    0  0.23223185584E+02  0.20380288846E+01  0.30559746858E+03  0.30648537113E+03  0.00000000000E+00 0.  1.
         -2    1    1    2    0  503 -0.23223185584E+02 -0.20380288846E+01  0.30485803567E+02  0.38377781717E+02  0.00000000000E+00 0. -1.
<mgrwt>
<rscale>  2 0.23312441E+02</rscale>
<asrwt>0</asrwt>
<pdfrwt beam="1">  1       21 0.52380473E-01 0.23312441E+02</pdfrwt>
<pdfrwt beam="2">  1       21 0.67537571E-03 0.23312441E+02</pdfrwt>
<totfact> 0.18875213E+07</totfact>
</mgrwt>
</event>
<event>
 4    1  0.2761157E+004  0.2289914E+02  0.7546771E-02  0.1693150E+00
         21   -1    0    0  501  502  0.00000000000E+00  0.00000000000E+00  0.34806686625E+02  0.34806686625E+02  0.00000000000E+00 0. -1.
         21   -1    0    0  502  503 -0.00000000000E+00 -0.00000000000E+00 -0.40967029937E+02  0.40967029937E+02  0.00000000000E+00 0.  1.
          2    1    1    2  501    0  0.22716192826E+02 -0.28888254631E+01  0.27045471581E+02  0.35437667278E+02  0.00000000000E+00 0. -1.
         -2    1    1    2    0  503 -0.22716192826E+02  0.28888254631E+01 -0.33205814894E+02  0.40336049284E+02  0.00000000000E+00 0.  1.
<mgrwt>
<rscale>  2 0.22899143E+02</rscale>
<asrwt>0</asrwt>
<pdfrwt beam="1">  1       21 0.53548749E-02 0.22899143E+02</pdfrwt>
<pdfrwt beam="2">  1       21 0.63026200E-02 0.22899143E+02</pdfrwt>
<totfact> 0.31706284E+07</totfact>
</mgrwt>
</event>
<event>
 4    1  0.2761157E+004  0.2076154E+02  0.7546771E-02  0.1730595E+00
         21   -1    0    0  501  502  0.00000000000E+00  0.00000000000E+00  0.66837778305E+03  0.66837778305E+03  0.00000000000E+00 0. -1.
         21   -1    0    0  502  503 -0.00000000000E+00 -0.00000000000E+00 -0.18053008830E+01  0.18053008830E+01  0.00000000000E+00 0.  1.
          2    1    1    2  501    0  0.12068996109E+02 -0.16893216477E+02  0.60193906298E+03  0.60229700063E+03  0.00000000000E+00 0. -1.
         -2    1    1    2    0  503 -0.12068996109E+02  0.16893216477E+02  0.64633419188E+02  0.67886083301E+02  0.00000000000E+00 0.  1.
<mgrwt>
<rscale>  2 0.20761537E+02</rscale>
<asrwt>0</asrwt>
<pdfrwt beam="1">  1       21 0.10282715E+00 0.20761537E+02</pdfrwt>
<pdfrwt beam="2">  1       21 0.27773913E-03 0.20761537E+02</pdfrwt>
<totfact> 0.16873683E+07</totfact>
</mgrwt>
</event>
<event>
 4    1  0.2761157E+004  0.2093806E+02  0.7546771E-02  0.1727292E+00
         21   -1    0    0  503  502  0.00000000000E+00  0.00000000000E+00  0.26715784240E+01  0.26715784240E+01  0.00000000000E+00 0.  1.
         21   -1    0    0  501  503 -0.00000000000E+00 -0.00000000000E+00 -0.18196336333E+03  0.18196336333E+03  0.00000000000E+00 0. -1.
          2    1    1    2  501    0  0.24432216863E+01 -0.20795025024E+02 -0.11857200113E+03  0.12040648591E+03  0.00000000000E+00 0.  1.
         -2    1    1    2    0  502 -0.24432216863E+01  0.20795025024E+02 -0.60719783778E+02  0.64228455843E+02  0.00000000000E+00 0. -1.
<mgrwt>
<rscale>  2 0.20938061E+02</rscale>
<asrwt>0</asrwt>
<pdfrwt beam="1">  1       21 0.41101203E-03 0.20938061E+02</pdfrwt>
<pdfrwt beam="2">  1       21 0.27994366E-01 0.20938061E+02</pdfrwt>
<totfact> 0.12365368E+08</totfact>
</mgrwt>
</event>
<event>
 4    1  0.2761157E+004  0.3063224E+02  0.7546771E-02  0.1591203E+00
         21   -1    0    0  501  502  0.00000000000E+00  0.00000000000E+00  0.11900894559E+01  0.11900894559E+01  0.00000000000E+00 0. -1.
         21   -1    0    0  502  503 -0.00000000000E+00 -0.00000000000E+00 -0.79266637618E+03  0.79266637618E+03  0.00000000000E+00 0.  1.
          2    1    1    2  501    0  0.10227005328E+02 -0.28874596566E+02 -0.36681184480E+03  0.36808866248E+03  0.00000000000E+00 0. -1.
         -2    1    1    2    0  503 -0.10227005328E+02  0.28874596566E+02 -0.42466444193E+03  0.42576780316E+03  0.00000000000E+00 0.  1.
<mgrwt>
<rscale>  2 0.30632237E+02</rscale>
<asrwt>0</asrwt>
<pdfrwt beam="1">  1       21 0.18309002E-03 0.30632237E+02</pdfrwt>
<pdfrwt beam="2">  1       21 0.12194911E+00 0.30632237E+02</pdfrwt>
<totfact> 0.22531841E+07</totfact>
</mgrwt>
</event>
<event>
 4    1  0.2761157E+004  0.2192096E+02  0.7546771E-02  0.1709623E+00
         21   -1    0    0  501  502  0.00000000000E+00  0.00000000000E+00  0.33228387468E+01  0.33228387468E+01  0.00000000000E+00 0. -1.
         21   -1    0    0  502  503 -0.00000000000E+00 -0.00000000000E+00 -0.16137823101E+03  0.16137823101E+03  0.00000000000E+00 0.  1.
          2    1    1    2  501    0  0.76275293654E+01  0.20551136608E+02 -0.52485427649E+02  0.56879245209E+02  0.00000000000E+00 0. -1.
         -2    1    1    2    0  503 -0.76275293654E+01 -0.20551136608E+02 -0.10556996462E+03  0.10782182455E+03  0.00000000000E+00 0.  1.
<mgrwt>
<rscale>  2 0.21920958E+02</rscale>
<asrwt>0</asrwt>
<pdfrwt beam="1">  1       21 0.51120596E-03 0.21920958E+02</pdfrwt>
<pdfrwt beam="2">  1       21 0.24827420E-01 0.21920958E+02</pdfrwt>
<totfact> 0.11270485E+08</totfact>
</mgrwt>
</event>
<event>
 4    1  0.2761157E+004  0.2829339E+02  0.7546771E-02  0.1617757E+00
         21   -1    0    0  501  502  0.00000000000E+00  0.00000000000E+00  0.27877256580E+03  0.27877256580E+03  0.00000000000E+00 0.  1.
         21   -1    0    0  502  503 -0.00000000000E+00 -0.00000000000E+00 -0.12096524371E+02  0.12096524371E+02  0.00000000000E+00 0. -1.
          2    1    1    2  501    0  0.99804835432E+01  0.26474629285E+02  0.26034257479E+03  0.26187549006E+03  0.00000000000E+00 0.  1.
         -2    1    1    2    0  503 -0.99804835432E+01 -0.26474629285E+02  0.63334666375E+01  0.28993600107E+02  0.00000000000E+00 0. -1.
<mgrwt>
<rscale>  2 0.28293392E+02</rscale>
<asrwt>0</asrwt>
<pdfrwt beam="1">  1       21 0.42888082E-01 0.28293392E+02</pdfrwt>
<pdfrwt beam="2">  1       21 0.18610040E-02 0.28293392E+02</pdfrwt>
<totfact> 0.61997912E+06</totfact>
</mgrwt>
</event>
<event>
 4    1  0.2761157E+004  0.2460052E+02  0.7546771E-02  0.1666807E+00
         21   -1    0    0  503  502  0.00000000000E+00  0.00000000000E+00  0.14529222998E+03  0.14529222998E+03  0.00000000000E+00 0. -1.
         21   -1    0    0  501  503 -0.00000000000E+00 -0.00000000000E+00 -0.44648497479E+01  0.44648497479E+01  0.00000000000E+00 0.  1.
          2    1    1    2  501    0 -0.13250496416E+02 -0.20727027955E+02  0.51018665726E+02  0.56639999961E+02  0.00000000000E+00 0.  1.
         -2    1    1    2    0  502  0.13250496416E+02  0.20727027955E+02  0.89808714507E+02  0.93117079768E+02  0.00000000000E+00 0. -1.
<mgrwt>
<rscale>  2 0.24600515E+02</rscale>
<asrwt>0</asrwt>
<pdfrwt beam="1">  1       21 0.22352647E-01 0.24600515E+02</pdfrwt>
<pdfrwt beam="2">  1       21 0.68690007E-03 0.24600515E+02</pdfrwt>
<totfact> 0.90438959E+07</totfact>
</mgrwt>
</event>
<event>
 4    1  0.2761157E+004  0.3559098E+02  0.7546771E-02  0.1543414E+00
         21   -1    0    0  501  502  0.00000000000E+00  0.00000000000E+00  0.95056796029E+01  0.95056796029E+01  0.00000000000E+00 0.  1.
         21   -1    0    0  502  503 -0.00000000000E+00 -0.00000000000E+00 -0.14512749468E+03  0.14512749468E+03  0.00000000000E+00 0. -1.
          2    1    1    2  501    0 -0.23758328474E+02 -0.26500178722E+02 -0.45700584096E+02  0.57924615069E+02  0.00000000000E+00 0. -1.
         -2    1    1    2    0  503  0.23758328474E+02  0.26500178722E+02 -0.89921230982E+02  0.96708559215E+02  0.00000000000E+00 0.  1.
<mgrwt>
<rscale>  2 0.35590977E+02</rscale>
<asrwt>0</asrwt>
<pdfrwt beam="1">  1       21 0.14624123E-02 0.35590977E+02</pdfrwt>
<pdfrwt beam="2">  1       21 0.22327306E-01 0.35590977E+02</pdfrwt>
<totfact> 0.31262286E+07</totfact>
</mgrwt>
</event>
<event>
 4    1  0.2761157E+004  0.3906295E+02  0.7546771E-02  0.1515223E+00
         21   -1    0    0  501  502  0.00000000000E+00  0.00000000000E+00  0.10162675268E+02  0.10162675268E+02  0.00000000000E+00 0. -1.
         21   -1    0    0  502  503 -0.00000000000E+00 -0.00000000000E+00 -0.27226506931E+03  0.27226506931E+03  0.00000000000E+00 0.  1.
          2    1    1    2  501    0  0.15667343334E+02 -0.35783355303E+02 -0.36478005299E+02  0.53446786943E+02  0.00000000000E+00 0. -1.
         -2    1    1    2    0  503 -0.15667343334E+02  0.35783355303E+02 -0.22562438874E+03  0.22898095763E+03  0.00000000000E+00 0.  1.
<mgrwt>
<rscale>  2 0.39062951E+02</rscale>
<asrwt>0</asrwt>
<pdfrwt beam="1">  1       21 0.15634886E-02 0.39062951E+02</pdfrwt>
<pdfrwt beam="2">  1       21 0.41886931E-01 0.39062951E+02</pdfrwt>
<totfact> 0.88674407E+06</totfact>
</mgrwt>
</event>
<event>
 4    1  0.2761157E+004  0.2466165E+02  0.7546771E-02  0.1665910E+00
         21   -1    0    0  501  502  0.00000000000E+00  0.00000000000E+00  0.18735085522E+01  0.18735085522E+01  0.00000000000E+00 0. -1.
         21   -1    0    0  502  503 -0.00000000000E+00 -0.00000000000E+00 -0.32661449937E+03  0.32661449937E+03  0.00000000000E+00 0.  1.
          2    1    1    2  501    0  0.13530348799E+02  0.20618595615E+02 -0.17517351226E+03  0.17690097858E+03  0.00000000000E+00 0. -1.
         -2    1    1    2    0  503 -0.13530348799E+02 -0.20618595615E+02 -0.14956747855E+03  0.15158702934E+03  0.00000000000E+00 0.  1.
<mgrwt>
<rscale>  2 0.24661647E+02</rscale>
<asrwt>0</asrwt>
<pdfrwt beam="1">  1       21 0.28823215E-03 0.24661647E+02</pdfrwt>
<pdfrwt beam="2">  1       21 0.50248373E-01 0.24661647E+02</pdfrwt>
<totfact> 0.72631261E+07</totfact>
</mgrwt>
</event>
<event>
 4    1  0.2761157E+004  0.2124936E+02  0.7546771E-02  0.1721567E+00
         21   -1    0    0  501  502  0.00000000000E+00  0.00000000000E+00  0.36414060626E+01  0.36414060626E+01  0.00000000000E+00 0.  1.
         21   -1    0    0  502  503 -0.00000000000E+00 -0.00000000000E+00 -0.16317991593E+03  0.16317991593E+03  0.00000000000E+00 0. -1.
          2    1    1    2  501    0  0.16161945188E+02 -0.13795891269E+02 -0.38897918442E+02  0.44323618391E+02  0.00000000000E+00 0.  1.
         -2    1    1    2    0  503 -0.16161945188E+02  0.13795891269E+02 -0.12064059142E+03  0.12249770360E+03  0.00000000000E+00 0. -1.
<mgrwt>
<rscale>  2 0.21249355E+02</rscale>
<asrwt>0</asrwt>
<pdfrwt beam="1">  1       21 0.56021641E-03 0.21249355E+02</pdfrwt>
<pdfrwt beam="2">  1       21 0.25104598E-01 0.21249355E+02</pdfrwt>
<totfact> 0.95717436E+07</totfact>
</mgrwt>
</event>
<event>
 4    1  0.2761157E+004  0.2860457E+02  0.7546771E-02  0.1614046E+00
         21   -1    0    0  503  502  0.00000000000E+00  0.00000000000E+00  0.39848270132E+02  0.39848270132E+02  0.00000000000E+00 0. -1.
         21   -1    0    0  501  503 -0.00000000000E+00 -0.00000000000E+00 -0.46296359718E+02  0.46296359718E+02  0.00000000000E+00 0.  1.
          2    1    1    2  501    0 -0.12383270058E+01 -0.28577752661E+02 -0.35354913831E+02  0.45477371658E+02  0.00000000000E+00 0.  1.
         -2    1    1    2    0  502  0.12383270058E+01  0.28577752661E+02  0.28906824246E+02  0.40667258192E+02  0.00000000000E+00 0. -1.
<mgrwt>
<rscale>  2 0.28604570E+02</rscale>
<asrwt>0</asrwt>
<pdfrwt beam="1">  1       21 0.61305031E-02 0.28604570E+02</pdfrwt>
<pdfrwt beam="2">  1       21 0.71225169E-02 0.28604570E+02</pdfrwt>
<totfact> 0.21959305E+07</totfact>
</mgrwt>
</event>
<event>
 4    1  0.2761157E+004  0.2153352E+02  0.7546771E-02  0.1716447E+00
         21   -1    0    0  501  502  0.00000000000E+00  0.00000000000E+00  0.38151721546E+01  0.38151721546E+01  0.00000000000E+00 0.  1.
         21   -1    0    0  502  503 -0.00000000000E+00 -0.00000000000E+00 -0.16133058417E+03  0.16133058417E+03  0.00000000000E+00 0. -1.
          2    1    1    2  501    0 -0.15495067114E+02 -0.14953110806E+02 -0.37749187064E+02  0.43459104358E+02  0.00000000000E+00 0.  1.
         -2    1    1    2    0  503  0.15495067114E+02  0.14953110806E+02 -0.11976622496E+03  0.12168665197E+03  0.00000000000E+00 0. -1.
<mgrwt>
<rscale>  2 0.21533523E+02</rscale>
<asrwt>0</asrwt>
<pdfrwt beam="1">  1       21 0.58694978E-03 0.21533523E+02</pdfrwt>
<pdfrwt beam="2">  1       21 0.24820081E-01 0.21533523E+02</pdfrwt>
<totfact> 0.91515188E+07</totfact>
</mgrwt>
</event>
<event>
 4    1  0.2761157E+004  0.2525748E+02  0.7546771E-02  0.1657331E+00
         21   -1    0    0  501  502  0.00000000000E+00  0.00000000000E+00  0.13202540781E+02  0.13202540781E+02  0.00000000000E+00 0.  1.
         21   -1    0    0  502  503 -0.00000000000E+00 -0.00000000000E+00 -0.51621732370E+02  0.51621732370E+02  0.00000000000E+00 0. -1.
          2    1    1    2  501    0 -0.17817883794E+02 -0.17901491788E+02 -0.11011856873E+02  0.27553609254E+02  0.00000000000E+00 0.  1.
         -2    1    1    2    0  503  0.17817883794E+02  0.17901491788E+02 -0.27407334716E+02  0.37270663897E+02  0.00000000000E+00 0. -1.
<mgrwt>
<rscale>  2 0.25257482E+02</rscale>
<asrwt>0</asrwt>
<pdfrwt beam="1">  1       21 0.20311601E-02 0.25257482E+02</pdfrwt>
<pdfrwt beam="2">  1       21 0.79418050E-02 0.25257482E+02</pdfrwt>
<totfact> 0.10203008E+08</totfact>
</mgrwt>
</event>
<event>
 4    1  0.2761157E+004  0.2579802E+02  0.7546771E-02  0.1649797E+00
         21   -1    0    0  503  502  0.00000000000E+00  0.00000000000E+00  0.13252202619E+02  0.13252202619E+02  0.00000000000E+00 0.  1.
         21   -1    0    0  501  503 -0.00000000000E+00 -0.00000000000E+00 -0.50807044441E+02  0.50807044441E+02  0.00000000000E+00 0. -1.
          2    1    1    2  501    0  0.21080158503E+02 -0.14871601894E+02 -0.22217669900E+02  0.34046475312E+02  0.00000000000E+00 0. -1.
         -2    1    1    2    0  502 -0.21080158503E+02  0.14871601894E+02 -0.15337171923E+02  0.30012771748E+02  0.00000000000E+00 0.  1.
<mgrwt>
<rscale>  2 0.25798016E+02</rscale>
<asrwt>0</asrwt>
<pdfrwt beam="1">  1       21 0.20388004E-02 0.25798016E+02</pdfrwt>
<pdfrwt beam="2">  1       21 0.78164683E-02 0.25798016E+02</pdfrwt>
<totfact> 0.10470304E+08</totfact>
</mgrwt>
</event>
<event>
 4    1  0.2761157E+004  0.3032135E+02  0.7546771E-02  0.1594563E+00
         21   -1    0    0  501  502  0.00000000000E+00  0.00000000000E+00  0.21911724586E+02  0.21911724586E+02  0.00000000000E+00 0. -1.
         21   -1    0    0  502  503 -0.00000000000E+00 -0.00000000000E+00 -0.42086044848E+02  0.42086044848E+02  0.00000000000E+00 0.  1.
          2    1    1    2  501    0 -0.23011847151E+02 -0.19744349323E+02 -0.83260243565E+01  0.31443713538E+02  0.00000000000E+00 0. -1.
         -2    1    1    2    0  503  0.23011847151E+02  0.19744349323E+02 -0.11848295905E+02  0.32554055897E+02  0.00000000000E+00 0.  1.
<mgrwt>
<rscale>  2 0.30321353E+02</rscale>
<asrwt>0</asrwt>
<pdfrwt beam="1">  1       21 0.33710346E-02 0.30321353E+02</pdfrwt>
<pdfrwt beam="2">  1       21 0.64747761E-02 0.30321353E+02</pdfrwt>
<totfact> 0.67658764E+07</totfact>
</mgrwt>
</event>
<event>
 4    1  0.2761157E+004  0.2662606E+02  0.7546771E-02  0.1638688E+00
         21   -1    0    0  501  502  0.00000000000E+00  0.00000000000E+00  0.48983133452E+02  0.48983133452E+02  0.00000000000E+00 0.  1.
         21   -1    0    0  502  503 -0.00000000000E+00 -0.00000000000E+00 -0.25656660807E+02  0.25656660807E+02  0.00000000000E+00 0. -1.
          2    1    1    2  501    0 -0.23405430960E+02 -0.12693808817E+02  0.36302446359E+02  0.45020157622E+02  0.00000000000E+00 0.  1.
         -2    1    1    2    0  503  0.23405430960E+02  0.12693808817E+02 -0.12975973714E+02  0.29619636637E+02  0.00000000000E+00 0. -1.
<mgrwt>
<rscale>  2 0.26626058E+02</rscale>
<asrwt>0</asrwt>
<pdfrwt beam="1">  1       21 0.75358667E-02 0.26626058E+02</pdfrwt>
<pdfrwt beam="2">  1       21 0.39471786E-02 0.26626058E+02</pdfrwt>
<totfact> 0.39919623E+07</totfact>
</mgrwt>
</event>
<event>
 4    1  0.2761157E+004  0.2419807E+02  0.7546771E-02  0.1672795E+00
         21   -1    0    0  501  502  0.00000000000E+00  0.00000000000E+00  0.26341199640E+02  0.26341199640E+02  0.00000000000E+00 0.  1.
         21   -1    0    0  502  503 -0.00000000000E+00 -0.00000000000E+00 -0.22283946068E+02  0.22283946068E+02  0.00000000000E+00 0. -1.
          2    1    1    2  501    0 -0.10935514741E+02  0.21586130063E+02  0.82468749074E+00  0.24212116867E+02  0.00000000000E+00 0.  1.
         -2    1    1    2    0  503  0.10935514741E+02 -0.21586130063E+02  0.32325660813E+01  0.24413028841E+02  0.00000000000E+00 0. -1.
<mgrwt>
<rscale>  2 0.24198068E+02</rscale>
<asrwt>0</asrwt>
<pdfrwt beam="1">  1       21 0.40524923E-02 0.24198068E+02</pdfrwt>
<pdfrwt beam="2">  1       21 0.34282994E-02 0.24198068E+02</pdfrwt>
<totfact> 0.13179216E+08</totfact>
</mgrwt>
</event>
<event>
 4    1  0.2761157E+004  0.2304237E+02  0.7546771E-02  0.1690824E+00
         21   -1    0    0  503  502  0.00000000000E+00  0.00000000000E+00  0.27187959339E+01  0.27187959339E+01  0.00000000000E+00 0.  1.
         21   -1    0    0  501  503 -0.00000000000E+00 -0.00000000000E+00 -0.19671504780E+03  0.19671504780E+03  0.00000000000E+00 0. -1.
          2    1    1    2  501    0  0.97365283911E+01  0.20884229708E+02 -0.10548820450E+03  0.10797551724E+03  0.00000000000E+00 0. -1.
         -2    1    1    2    0  502 -0.97365283911E+01 -0.20884229708E+02 -0.88508047366E+02  0.91458326489E+02  0.00000000000E+00 0.  1.
<mgrwt>
<rscale>  2 0.23042375E+02</rscale>
<asrwt>0</asrwt>
<pdfrwt beam="1">  1       21 0.41827630E-03 0.23042375E+02</pdfrwt>
<pdfrwt beam="2">  1       21 0.30263853E-01 0.23042375E+02</pdfrwt>
<totfact> 0.10749591E+08</totfact>
</mgrwt>
</event>
<event>
 4    1  0.2761157E+004  0.2507065E+02  0.7546771E-02  0.1659989E+00
         21   -1    0    0  501  502  0.00000000000E+00  0.00000000000E+00  0.17251092430E+02  0.17251092430E+02  0.00000000000E+00 0.  1.
         21   -1    0    0  502  503 -0.00000000000E+00 -0.00000000000E+00 -0.42307304979E+02  0.42307304979E+02  0.00000000000E+00 0. -1.
          2    1    1    2  501    0  0.27880450913E+01 -0.24915141032E+02 -0.14332236185E+01  0.25111582547E+02  0.00000000000E+00 0.  1.
         -2    1    1    2    0  503 -0.27880450913E+01  0.24915141032E+02 -0.23622988931E+02  0.34446814861E+02  0.00000000000E+00 0. -1.
<mgrwt>
<rscale>  2 0.25070649E+02</rscale>
<asrwt>0</asrwt>
<pdfrwt beam="1">  1       21 0.26540142E-02 0.25070649E+02</pdfrwt>
<pdfrwt beam="2">  1       21 0.65088161E-02 0.25070649E+02</pdfrwt>
<totfact> 0.93064152E+07</totfact>
</mgrwt>
</event>
<event>
 4    1  0.2761157E+004  0.2153323E+02  0.7546771E-02  0.1716452E+00
         21   -1    0    0  503  502  0.00000000000E+00  0.00000000000E+00  0.14755561886E+03  0.14755561886E+03  0.00000000000E+00 0.  1.
         21   -1    0    0  501  503 -0.00000000000E+00 -0.00000000000E+00 -0.76590685610E+01  0.76590685610E+01  0.00000000000E+00 0. -1.
          2    1    1    2  501    0 -0.20091593766E+02 -0.77464749766E+01  0.10351391844E+02  0.23892076673E+02  0.00000000000E+00 0. -1.
         -2    1    1    2    0  502  0.20091593766E+02  0.77464749766E+01  0.12954515845E+03  0.13132261074E+03  0.00000000000E+00 0.  1.
<mgrwt>
<rscale>  2 0.21533230E+02</rscale>
<asrwt>0</asrwt>
<pdfrwt beam="1">  1       21 0.22700862E-01 0.21533230E+02</pdfrwt>
<pdfrwt beam="2">  1       21 0.11783183E-02 0.21533230E+02</pdfrwt>
<totfact> 0.37910627E+07</totfact>
</mgrwt>
</event>
<event>
 4    1  0.2761157E+004  0.2998267E+02  0.7546771E-02  0.1598280E+00
         21   -1    0    0  503  502  0.00000000000E+00  0.00000000000E+00  0.17866584313E+02  0.17866584313E+02  0.00000000000E+00 0. -1.
         21   -1    0    0  501  503 -0.00000000000E+00 -0.00000000000E+00 -0.73058523815E+02  0.73058523815E+02  0.00000000000E+00 0.  1.
          2    1    1    2  501    0  0.79353123930E+01 -0.28913510714E+02 -0.52961597061E+02  0.60859601114E+02  0.00000000000E+00 0.  1.
         -2    1    1    2    0  502 -0.79353123930E+01  0.28913510714E+02 -0.22303424419E+01  0.30065507014E+02  0.00000000000E+00 0. -1.
<mgrwt>
<rscale>  2 0.29982666E+02</rscale>
<asrwt>0</asrwt>
<pdfrwt beam="1">  1       21 0.27487052E-02 0.29982666E+02</pdfrwt>
<pdfrwt beam="2">  1       21 0.11239773E-01 0.29982666E+02</pdfrwt>
<totfact> 0.37330398E+07</totfact>
</mgrwt>
</event>
<event>
 4    1  0.2761157E+004  0.2012948E+02  0.7546771E-02  0.1742765E+00
         21   -1    0    0  503  502  0.00000000000E+00  0.00000000000E+00  0.42238482770E+00  0.42238482770E+00  0.00000000000E+00 0. -1.
         21   -1    0    0  501  503 -0.00000000000E+00 -0.00000000000E+00 -0.11354309949E+04  0.11354309949E+04  0.00000000000E+00 0.  1.
          2    1    1    2  501    0  0.18690207065E+02  0.74747672379E+01 -0.79118233035E+03  0.79143835884E+03  0.00000000000E+00 0.  1.
         -2    1    1    2    0  502 -0.18690207065E+02 -0.74747672379E+01 -0.34382627976E+03  0.34441502093E+03  0.00000000000E+00 0. -1.
<mgrwt>
<rscale>  2 0.20129481E+02</rscale>
<asrwt>0</asrwt>
<pdfrwt beam="1">  1       21 0.64983148E-04 0.20129481E+02</pdfrwt>
<pdfrwt beam="2">  1       21 0.17467936E+00 0.20129481E+02</pdfrwt>
<totfact> 0.39302072E+07</totfact>
</mgrwt>
</event>
<event>
 4    1  0.2761157E+004  0.2235128E+02  0.7546771E-02  0.1702247E+00
         21   -1    0    0  503  502  0.00000000000E+00  0.00000000000E+00  0.15326664629E+02  0.15326664629E+02  0.00000000000E+00 0. -1.
         21   -1    0    0  501  503 -0.00000000000E+00 -0.00000000000E+00 -0.80909311951E+02  0.80909311951E+02  0.00000000000E+00 0.  1.
          2    1    1    2  501    0  0.20796814980E+02 -0.81897701519E+01 -0.69974286446E+02  0.73457338722E+02  0.00000000000E+00 0.  1.
         -2    1    1    2    0  502 -0.20796814980E+02  0.81897701519E+01  0.43916391248E+01  0.22778637858E+02  0.00000000000E+00 0. -1.
<mgrwt>
<rscale>  2 0.22351283E+02</rscale>
<asrwt>0</asrwt>
<pdfrwt beam="1">  1       21 0.23579484E-02 0.22351283E+02</pdfrwt>
<pdfrwt beam="2">  1       21 0.12447586E-01 0.22351283E+02</pdfrwt>
<totfact> 0.37310116E+07</totfact>
</mgrwt>
</event>
<event>
 4    1  0.2761157E+004  0.2227773E+02  0.7546771E-02  0.1703493E+00
         21   -1    0    0  503  502  0.00000000000E+00  0.00000000000E+00  0.53435927185E+03  0.53435927185E+03  0.00000000000E+00 0. -1.
         21   -1    0    0  501  503 -0.00000000000E+00 -0.00000000000E+00 -0.10434108595E+01  0.10434108595E+01  0.00000000000E+00 0.  1.
          2    1    1    2  501    0  0.19698604924E+02  0.10404913772E+02  0.17792370767E+03  0.17931297504E+03  0.00000000000E+00 0. -1.
         -2    1    1    2    0  502 -0.19698604924E+02 -0.10404913772E+02  0.35539215333E+03  0.35608970768E+03  0.00000000000E+00 0.  1.
<mgrwt>
<rscale>  2 0.22277730E+02</rscale>
<asrwt>0</asrwt>
<pdfrwt beam="1">  1       21 0.82208900E-01 0.22277730E+02</pdfrwt>
<pdfrwt beam="2">  1       21 0.16052517E-03 0.22277730E+02</pdfrwt>
<totfact> 0.61044285E+07</totfact>
</mgrwt>
</event>
<event>
 4    1  0.2761157E+004  0.2147141E+02  0.7546771E-02  0.1717557E+00
         21   -1    0    0  503  502  0.00000000000E+00  0.00000000000E+00  0.95413621773E+00  0.95413621773E+00  0.00000000000E+00 0.  1.
         21   -1    0    0  501  503 -0.00000000000E+00 -0.00000000000E+00 -0.69401459429E+03  0.69401459429E+03  0.00000000000E+00 0. -1.
          2    1    1    2  501    0  0.11395552369E+02  0.18197883489E+02 -0.53805268477E+03  0.53848093111E+03  0.00000000000E+00 0. -1.
         -2    1    1    2    0  502 -0.11395552369E+02 -0.18197883489E+02 -0.15500777330E+03  0.15648779940E+03  0.00000000000E+00 0.  1.
<mgrwt>
<rscale>  2 0.21471413E+02</rscale>
<asrwt>0</asrwt>
<pdfrwt beam="1">  1       21 0.14678978E-03 0.21471413E+02</pdfrwt>
<pdfrwt beam="2">  1       21 0.10677177E+00 0.21471413E+02</pdfrwt>
<totfact> 0.39177484E+07</totfact>
</mgrwt>
</event>
<event>
 4    1  0.2761157E+004  0.2131819E+02  0.7546771E-02  0.1720317E+00
         21   -1    0    0  503  502  0.00000000000E+00  0.00000000000E+00  0.44722200033E+03  0.44722200033E+03  0.00000000000E+00 0.  1.
         21   -1    0    0  501  503 -0.00000000000E+00 -0.00000000000E+00 -0.40181388866E+01  0.40181388866E+01  0.00000000000E+00 0. -1.
          2    1    1    2  501    0 -0.26694659901E+01  0.21150392045E+02  0.26587620264E+02  0.34078830432E+02  0.00000000000E+00 0. -1.
         -2    1    1    2    0  502  0.26694659901E+01 -0.21150392045E+02  0.41661624118E+03  0.41716130879E+03  0.00000000000E+00 0.  1.
<mgrwt>
<rscale>  2 0.21318188E+02</rscale>
<asrwt>0</asrwt>
<pdfrwt beam="1">  1       21 0.68803345E-01 0.21318188E+02</pdfrwt>
<pdfrwt beam="2">  1       21 0.61817557E-03 0.21318188E+02</pdfrwt>
<totfact> 0.12269343E+07</totfact>
</mgrwt>
</event>
<event>
 4    1  0.2761157E+004  0.3632856E+02  0.7546771E-02  0.1537109E+00
         21   -1    0    0  503  502  0.00000000000E+00  0.00000000000E+00  0.36616892607E+03  0.36616892607E+03  0.00000000000E+00 0. -1.
         21   -1    0    0  501  503 -0.00000000000E+00 -0.00000000000E+00 -0.56870770549E+01  0.56870770549E+01  0.00000000000E+00 0.  1.
          2    1    1    2  501    0 -0.15494807684E+02 -0.32858415955E+02  0.67721684613E+02  0.76850446525E+02  0.00000000000E+00 0.  1.
         -2    1    1    2    0  502  0.15494807684E+02  0.32858415955E+02  0.29276016440E+03  0.29500555660E+03  0.00000000000E+00 0. -1.
<mgrwt>
<rscale>  2 0.36328564E+02</rscale>
<asrwt>0</asrwt>
<pdfrwt beam="1">  1       21 0.56333663E-01 0.36328564E+02</pdfrwt>
<pdfrwt beam="2">  1       21 0.87493522E-03 0.36328564E+02</pdfrwt>
<totfact> 0.11918027E+07</totfact>
</mgrwt>
</event>
<event>
 4    1  0.2761157E+004  0.2115907E+02  0.7546771E-02  0.1723215E+00
         21   -1    0    0  501  502  0.00000000000E+00  0.00000000000E+00  0.34132641574E+03  0.34132641574E+03  0.00000000000E+00 0.  1.
         21   -1    0    0  502  503 -0.00000000000E+00 -0.00000000000E+00 -0.33211840161E+01  0.33211840161E+01  0.00000000000E+00 0. -1.
          2    1    1    2  501    0 -0.18368001975E+02  0.10503456946E+02  0.30304581755E+03  0.30378359673E+03  0.00000000000E+00 0.  1.
         -2    1    1    2    0  503  0.18368001975E+02 -0.10503456946E+02  0.34959414175E+02  0.40864003033E+02  0.00000000000E+00 0. -1.
<mgrwt>
<rscale>  2 0.21159067E+02</rscale>
<asrwt>0</asrwt>
<pdfrwt beam="1">  1       21 0.52511729E-01 0.21159067E+02</pdfrwt>
<pdfrwt beam="2">  1       21 0.51095166E-03 0.21159067E+02</pdfrwt>
<totfact> 0.27802149E+07</totfact>
</mgrwt>
</event>
<event>
 4    1  0.2761157E+004  0.2404798E+02  0.7546771E-02  0.1675065E+00
         21   -1    0    0  503  502  0.00000000000E+00  0.00000000000E+00  0.48867885867E+02  0.48867885867E+02  0.00000000000E+00 0.  1.
         21   -1    0    0  501  503 -0.00000000000E+00 -0.00000000000E+00 -0.16468171517E+02  0.16468171517E+02  0.00000000000E+00 0. -1.
          2    1    1    2  501    0  0.20337712508E+02 -0.12832876356E+02 -0.11295496088E+01  0.24074491645E+02  0.00000000000E+00 0. -1.
         -2    1    1    2    0  502 -0.20337712508E+02  0.12832876356E+02  0.33529263958E+02  0.41261565739E+02  0.00000000000E+00 0.  1.
<mgrwt>
<rscale>  2 0.24047978E+02</rscale>
<asrwt>0</asrwt>
<pdfrwt beam="1">  1       21 0.75181363E-02 0.24047978E+02</pdfrwt>
<pdfrwt beam="2">  1       21 0.25335649E-02 0.24047978E+02</pdfrwt>
<totfact> 0.78272217E+07</totfact>
</mgrwt>
</event>
<event>
 4    1  0.2761157E+004  0.2430738E+02  0.7546771E-02  0.1671154E+00
         21   -1    0    0  501  502  0.00000000000E+00  0.00000000000E+00  0.14216070067E+03  0.14216070067E+03  0.00000000000E+00 0.  1.
         21   -1    0    0  502  503 -0.00000000000E+00 -0.00000000000E+00 -0.84910164228E+01  0.84910164228E+01  0.00000000000E+00 0. -1.
          2    1    1    2  501    0 -0.11641195802E+02 -0.21338498186E+02  0.12065554675E+03  0.12307968925E+03  0.00000000000E+00 0.  1.
         -2    1    1    2    0  503  0.11641195802E+02  0.21338498186E+02  0.13014137498E+02  0.27572027843E+02  0.00000000000E+00 0. -1.
<mgrwt>
<rscale>  2 0.24307385E+02</rscale>
<asrwt>0</asrwt>
<pdfrwt beam="1">  1       21 0.21870875E-01 0.24307385E+02</pdfrwt>
<pdfrwt beam="2">  1       21 0.13063103E-02 0.24307385E+02</pdfrwt>
<totfact> 0.35664087E+07</totfact>
</mgrwt>
</event>
<event>
 4    1  0.2761157E+004  0.3860321E+02  0.7546771E-02  0.1518749E+00
         21   -1    0    0  503  502  0.00000000000E+00  0.00000000000E+00  0.34755063193E+02  0.34755063193E+02  0.00000000000E+00 0. -1.
         21   -1    0    0  501  503 -0.00000000000E+00 -0.00000000000E+00 -0.44231905665E+02  0.44231905665E+02  0.00000000000E+00 0.  1.
          2    1    1    2  501    0  0.31891082516E+02  0.21752387853E+02 -0.11649478094E+02  0.40322671801E+02  0.00000000000E+00 0.  1.
         -2    1    1    2    0  502 -0.31891082516E+02 -0.21752387853E+02  0.21726356222E+01  0.38664297057E+02  0.00000000000E+00 0. -1.
<mgrwt>
<rscale>  2 0.38603206E+02</rscale>
<asrwt>0</asrwt>
<pdfrwt beam="1">  1       21 0.53469328E-02 0.38603206E+02</pdfrwt>
<pdfrwt beam="2">  1       21 0.68049086E-02 0.38603206E+02</pdfrwt>
<totfact> 0.31267446E+07</totfact>
</mgrwt>
</event>
<event>
 4    1  0.2761157E+004  0.2718761E+02  0.7546771E-02  0.1631433E+00
         21   -1    0    0  503  502  0.00000000000E+00  0.00000000000E+00  0.30767244191E+03  0.30767244191E+03  0.00000000000E+00 0.  1.
         21   -1    0    0  501  503 -0.00000000000E+00 -0.00000000000E+00 -0.40465820119E+01  0.40465820119E+01  0.00000000000E+00 0. -1.
          2    1    1    2  501    0  0.15663479319E+02  0.22222090029E+02  0.52465131160E+02  0.59091081030E+02  0.00000000000E+00 0. -1.
         -2    1    1    2    0  502 -0.15663479319E+02 -0.22222090029E+02  0.25116072874E+03  0.25262794289E+03  0.00000000000E+00 0.  1.
<mgrwt>
<rscale>  2 0.27187605E+02</rscale>
<asrwt>0</asrwt>
<pdfrwt beam="1">  1       21 0.47334204E-01 0.27187605E+02</pdfrwt>
<pdfrwt beam="2">  1       21 0.62255132E-03 0.27187605E+02</pdfrwt>
<totfact> 0.26756968E+07</totfact>
</mgrwt>
</event>
<event>
 4    1  0.2761157E+004  0.2207340E+02  0.7546771E-02  0.1706986E+00
         21   -1    0    0  501  502  0.00000000000E+00  0.00000000000E+00  0.33031493716E+02  0.33031493716E+02  0.00000000000E+00 0.  1.
         21   -1    0    0  502  503 -0.00000000000E+00 -0.00000000000E+00 -0.16189642265E+02  0.16189642265E+02  0.00000000000E+00 0. -1.
          2    1    1    2  501    0  0.21450406756E+02  0.52072033470E+01  0.15758241364E+02  0.27121155720E+02  0.00000000000E+00 0.  1.
         -2    1    1    2    0  503 -0.21450406756E+02 -0.52072033470E+01  0.10836100879E+01  0.22099980261E+02  0.00000000000E+00 0. -1.
<mgrwt>
<rscale>  2 0.22073398E+02</rscale>
<asrwt>0</asrwt>
<pdfrwt beam="1">  1       21 0.50817683E-02 0.22073398E+02</pdfrwt>
<pdfrwt beam="2">  1       21 0.24907142E-02 0.22073398E+02</pdfrwt>
<totfact> 0.14721753E+08</totfact>
</mgrwt>
</event>
<event>
 4    1  0.2761157E+004  0.2037055E+02  0.7546771E-02  0.1738058E+00
         21   -1    0    0  501  502  0.00000000000E+00  0.00000000000E+00  0.74513951477E+02  0.74513951477E+02  0.00000000000E+00 0.  1.
         21   -1    0    0  502  503 -0.00000000000E+00 -0.00000000000E+00 -0.42672931960E+02  0.42672931960E+02  0.00000000000E+00 0. -1.
          2    1    1    2  501    0  0.17926765825E+02  0.96742107544E+01  0.70557080655E+02  0.73438824318E+02  0.00000000000E+00 0.  1.
         -2    1    1    2    0  503 -0.17926765825E+02 -0.96742107544E+01 -0.38716061138E+02  0.43748059119E+02  0.00000000000E+00 0. -1.
<mgrwt>
<rscale>  2 0.20370549E+02</rscale>
<asrwt>0</asrwt>
<pdfrwt beam="1">  1       21 0.11463685E-01 0.20370549E+02</pdfrwt>
<pdfrwt beam="2">  1       21 0.65650665E-02 0.20370549E+02</pdfrwt>
<totfact> 0.83921205E+06</totfact>
</mgrwt>
</event>
<event>
 4    1  0.2761157E+004  0.3348848E+02  0.7546771E-02  0.1562448E+00
         21   -1    0    0  501  502  0.00000000000E+00  0.00000000000E+00  0.21019742136E+02  0.21019742136E+02  0.00000000000E+00 0. -1.
         21   -1    0    0  502  503 -0.00000000000E+00 -0.00000000000E+00 -0.87488579250E+02  0.87488579250E+02  0.00000000000E+00 0.  1.
          2    1    1    2  501    0  0.26703471939E+02  0.20208973829E+02  0.65448005004E+00  0.33494870965E+02  0.00000000000E+00 0. -1.
         -2    1    1    2    0  503 -0.26703471939E+02 -0.20208973829E+02 -0.67123317165E+02  0.75013450421E+02  0.00000000000E+00 0.  1.
<mgrwt>
<rscale>  2 0.33488476E+02</rscale>
<asrwt>0</asrwt>
<pdfrwt beam="1">  1       21 0.32338064E-02 0.33488476E+02</pdfrwt>
<pdfrwt beam="2">  1       21 0.13459782E-01 0.33488476E+02</pdfrwt>
<totfact> 0.21733221E+07</totfact>
</mgrwt>
</event>
<event>
 4    1  0.2761157E+004  0.2452117E+02  0.7546771E-02  0.1667976E+00
         21   -1    0    0  501  502  0.00000000000E+00  0.00000000000E+00  0.35301246708E+02  0.35301246708E+02  0.00000000000E+00 0. -1.
         21   -1    0    0  502  503 -0.00000000000E+00 -0.00000000000E+00 -0.23583280973E+03  0.23583280973E+03  0.00000000000E+00 0.  1.
          2    1    1    2  501    0  0.24203602964E+02 -0.39336008153E+01  0.30313835894E+02  0.38989950736E+02  0.00000000000E+00 0. -1.
         -2    1    1    2    0  503 -0.24203602964E+02  0.39336008153E+01 -0.23084539892E+03  0.23214410570E+03  0.00000000000E+00 0.  1.
<mgrwt>
<rscale>  2 0.24521167E+02</rscale>
<asrwt>0</asrwt>
<pdfrwt beam="1">  1       21 0.54309612E-02 0.24521167E+02</pdfrwt>
<pdfrwt beam="2">  1       21 0.36281969E-01 0.24521167E+02</pdfrwt>
<totfact> 0.15556138E+06</totfact>
</mgrwt>
</event>
<event>
 4    1  0.2761157E+004  0.3138418E+02  0.7546771E-02  0.1583274E+00
         21   -1    0    0  501  502  0.00000000000E+00  0.00000000000E+00  0.21758083833E+03  0.21758083833E+03  0.00000000000E+00 0. -1.
         21   -1    0    0  502  503 -0.00000000000E+00 -0.00000000000E+00 -0.12001402611E+03  0.12001402611E+03  0.00000000000E+00 0.  1.
          2    1    1    2  501    0  0.30935905666E+02  0.52855141213E+01  0.21436673838E+03  0.21665194539E+03  0.00000000000E+00 0. -1.
         -2    1    1    2    0  503 -0.30935905666E+02 -0.52855141213E+01 -0.11679992615E+03  0.12094291905E+03  0.00000000000E+00 0.  1.
<mgrwt>
<rscale>  2 0.31384183E+02</rscale>
<asrwt>0</asrwt>
<pdfrwt beam="1">  1       21 0.33473975E-01 0.31384183E+02</pdfrwt>
<pdfrwt beam="2">  1       21 0.18463696E-01 0.31384183E+02</pdfrwt>
<totfact> 0.23753363E+05</totfact>
</mgrwt>
</event>
<event>
 4    1  0.2761157E+004  0.2364428E+02  0.7546771E-02  0.1681275E+00
         21   -1    0    0  501  502  0.00000000000E+00  0.00000000000E+00  0.78737611723E+02  0.78737611723E+02  0.00000000000E+00 0.  1.
         21   -1    0    0  502  503 -0.00000000000E+00 -0.00000000000E+00 -0.39140444341E+02  0.39140444341E+02  0.00000000000E+00 0. -1.
          2    1    1    2  501    0  0.35216689921E+01  0.23380540633E+02  0.73124470427E+02  0.76852065737E+02  0.00000000000E+00 0.  1.
         -2    1    1    2    0  503 -0.35216689921E+01 -0.23380540633E+02 -0.33527303046E+02  0.41025990327E+02  0.00000000000E+00 0. -1.
<mgrwt>
<rscale>  2 0.23644277E+02</rscale>
<asrwt>0</asrwt>
<pdfrwt beam="1">  1       21 0.12113479E-01 0.23644277E+02</pdfrwt>
<pdfrwt beam="2">  1       21 0.60216068E-02 0.23644277E+02</pdfrwt>
<totfact> 0.90487332E+06</totfact>
</mgrwt>
</event>
<event>
 4    1  0.2761157E+004  0.2232931E+02  0.7546771E-02  0.1702618E+00
         21   -1    0    0  503  502  0.00000000000E+00  0.00000000000E+00  0.58532830486E+01  0.58532830486E+01  0.00000000000E+00 0. -1.
         21   -1    0    0  501  503 -0.00000000000E+00 -0.00000000000E+00 -0.12525295273E+03  0.12525295273E+03  0.00000000000E+00 0.  1.
          2    1    1    2  501    0 -0.17296615177E+02 -0.14121800303E+02 -0.96777356516E+02  0.99319962115E+02  0.00000000000E+00 0.  1.
         -2    1    1    2    0  502  0.17296615177E+02  0.14121800303E+02 -0.22622313162E+02  0.31786273660E+02  0.00000000000E+00 0. -1.
<mgrwt>
<rscale>  2 0.22329311E+02</rscale>
<asrwt>0</asrwt>
<pdfrwt beam="1">  1       21 0.90050520E-03 0.22329311E+02</pdfrwt>
<pdfrwt beam="2">  1       21 0.19269683E-01 0.22329311E+02</pdfrwt>
<totfact> 0.76295356E+07</totfact>
</mgrwt>
</event>
<event>
 4    1  0.2761157E+004  0.2684981E+02  0.7546771E-02  0.1635771E+00
         21   -1    0    0  501  502  0.00000000000E+00  0.00000000000E+00  0.21454283998E+02  0.21454283998E+02  0.00000000000E+00 0. -1.
         21   -1    0    0  502  503 -0.00000000000E+00 -0.00000000000E+00 -0.35795781681E+02  0.35795781681E+02  0.00000000000E+00 0.  1.
          2    1    1    2  501    0  0.67616926581E+01 -0.25984457983E+02 -0.84759379390E-01  0.26849948388E+02  0.00000000000E+00 0. -1.
         -2    1    1    2    0  503 -0.67616926581E+01  0.25984457983E+02 -0.14256738303E+02  0.30400117291E+02  0.00000000000E+00 0.  1.
<mgrwt>
<rscale>  2 0.26849815E+02</rscale>
<asrwt>0</asrwt>
<pdfrwt beam="1">  1       21 0.33006591E-02 0.26849815E+02</pdfrwt>
<pdfrwt beam="2">  1       21 0.55070433E-02 0.26849815E+02</pdfrwt>
<totfact> 0.88227533E+07</totfact>
</mgrwt>
</event>
<event>
 4    1  0.2761157E+004  0.2041780E+02  0.7546771E-02  0.1737145E+00
         21   -1    0    0  501  502  0.00000000000E+00  0.00000000000E+00  0.43855477085E+01  0.43855477085E+01  0.00000000000E+00 0. -1.
         21   -1    0    0  502  503 -0.00000000000E+00 -0.00000000000E+00 -0.20966275712E+03  0.20966275712E+03  0.00000000000E+00 0.  1.
          2    1    1    2  501    0 -0.42200977288E+01 -0.19976925042E+02 -0.23512432756E+02  0.31140347671E+02  0.00000000000E+00 0. -1.
         -2    1    1    2    0  503  0.42200977288E+01  0.19976925042E+02 -0.18176477665E+03  0.18290795715E+03  0.00000000000E+00 0.  1.
<mgrwt>
<rscale>  2 0.20417805E+02</rscale>
<asrwt>0</asrwt>
<pdfrwt beam="1">  1       21 0.67469984E-03 0.20417805E+02</pdfrwt>
<pdfrwt beam="2">  1       21 0.32255799E-01 0.20417805E+02</pdfrwt>
<totfact> 0.45827024E+07</totfact>
</mgrwt>
</event>
<event>
 4    1  0.2761157E+004  0.2192295E+02  0.7546771E-02  0.1709588E+00
         21   -1    0    0  503  502  0.00000000000E+00  0.00000000000E+00  0.16296814879E+03  0.16296814879E+03  0.00000000000E+00 0. -1.
         21   -1    0    0  501  503 -0.00000000000E+00 -0.00000000000E+00 -0.37613530817E+01  0.37613530817E+01  0.00000000000E+00 0.  1.
          2    1    1    2  501    0 -0.21859465290E+02  0.16671421250E+01  0.40864622360E+02  0.46373839029E+02  0.00000000000E+00 0. -1.
         -2    1    1    2    0  502  0.21859465290E+02 -0.16671421250E+01  0.11834217335E+03  0.12035566285E+03  0.00000000000E+00 0.  1.
<mgrwt>
<rscale>  2 0.21922947E+02</rscale>
<asrwt>0</asrwt>
<pdfrwt beam="1">  1       21 0.25072017E-01 0.21922947E+02</pdfrwt>
<pdfrwt beam="2">  1       21 0.57866983E-03 0.21922947E+02</pdfrwt>
<totfact> 0.92245464E+07</totfact>
</mgrwt>
</event>
<event>
 4    1  0.2761157E+004  0.2700559E+02  0.7546771E-02  0.1633761E+00
         21   -1    0    0  503  502  0.00000000000E+00  0.00000000000E+00  0.10069197900E+03  0.10069197900E+03  0.00000000000E+00 0. -1.
         21   -1    0    0  501  503 -0.00000000000E+00 -0.00000000000E+00 -0.11422989289E+02  0.11422989289E+02  0.00000000000E+00 0.  1.
          2    1    1    2  501    0 -0.14227870567E+02  0.22953643427E+02  0.10723819501E+02  0.29056881322E+02  0.00000000000E+00 0.  1.
         -2    1    1    2    0  502  0.14227870567E+02 -0.22953643427E+02  0.78545170210E+02  0.83058086968E+02  0.00000000000E+00 0. -1.
<mgrwt>
<rscale>  2 0.27005593E+02</rscale>
<asrwt>0</asrwt>
<pdfrwt beam="1">  1       21 0.15491073E-01 0.27005593E+02</pdfrwt>
<pdfrwt beam="2">  1       21 0.17573830E-02 0.27005593E+02</pdfrwt>
<totfact> 0.42312167E+07</totfact>
</mgrwt>
</event>
<event>
 4    1  0.2761157E+004  0.2430546E+02  0.7546771E-02  0.1671183E+00
         21   -1    0    0  503  502  0.00000000000E+00  0.00000000000E+00  0.11089289597E+03  0.11089289597E+03  0.00000000000E+00 0. -1.
         21   -1    0    0  501  503 -0.00000000000E+00 -0.00000000000E+00 -0.54770059040E+01  0.54770059040E+01  0.00000000000E+00 0.  1.
          2    1    1    2  501    0  0.21870424099E+02 -0.10603765865E+02  0.43087029770E+02  0.49469661765E+02  0.00000000000E+00 0.  1.
         -2    1    1    2    0  502 -0.21870424099E+02  0.10603765865E+02  0.62328860295E+02  0.66900240107E+02  0.00000000000E+00 0. -1.
<mgrwt>
<rscale>  2 0.24305458E+02</rscale>
<asrwt>0</asrwt>
<pdfrwt beam="1">  1       21 0.17060444E-01 0.24305458E+02</pdfrwt>
<pdfrwt beam="2">  1       21 0.84261637E-03 0.24305458E+02</pdfrwt>
<totfact> 0.10648047E+08</totfact>
</mgrwt>
</event>
<event>
 4    1  0.2761157E+004  0.2193832E+02  0.7546771E-02  0.1709321E+00
         21   -1    0    0  501  502  0.00000000000E+00  0.00000000000E+00  0.35285979587E+02  0.35285979587E+02  0.00000000000E+00 0.  1.
         21   -1    0    0  502  503 -0.00000000000E+00 -0.00000000000E+00 -0.14657118248E+02  0.14657118248E+02  0.00000000000E+00 0. -1.
          2    1    1    2  501    0  0.21935620593E+02  0.34396776078E+00  0.16893635899E+02  0.27689071824E+02  0.00000000000E+00 0.  1.
         -2    1    1    2    0  503 -0.21935620593E+02 -0.34396776078E+00  0.37352254404E+01  0.22254026011E+02  0.00000000000E+00 0. -1.
<mgrwt>
<rscale>  2 0.21938317E+02</rscale>
<asrwt>0</asrwt>
<pdfrwt beam="1">  1       21 0.54286122E-02 0.21938317E+02</pdfrwt>
<pdfrwt beam="2">  1       21 0.22549413E-02 0.21938317E+02</pdfrwt>
<totfact> 0.15417715E+08</totfact>
</mgrwt>
</event>
<event>
 4    1  0.2761157E+004  0.2332949E+02  0.7546771E-02  0.1686224E+00
         21   -1    0    0  501  502  0.00000000000E+00  0.00000000000E+00  0.10725447566E+04  0.10725447566E+04  0.00000000000E+00 0.  1.
         21   -1    0    0  502  503 -0.00000000000E+00 -0.00000000000E+00 -0.70925613777E+00  0.70925613777E+00  0.00000000000E+00 0. -1.
          2    1    1    2  501    0 -0.17698327780E+02 -0.15199807504E+02  0.82216151465E+03  0.82249244442E+03  0.00000000000E+00 0. -1.
         -2    1    1    2    0  503  0.17698327780E+02  0.15199807504E+02  0.24967398577E+03  0.25076156828E+03  0.00000000000E+00 0.  1.
<mgrwt>
<rscale>  2 0.23329487E+02</rscale>
<asrwt>0</asrwt>
<pdfrwt beam="1">  1       21 0.16500559E+00 0.23329487E+02</pdfrwt>
<pdfrwt beam="2">  1       21 0.10911719E-03 0.23329487E+02</pdfrwt>
<totfact> 0.22247007E+07</totfact>
</mgrwt>
</event>
<event>
 4    1  0.2761157E+004  0.2456725E+02  0.7546771E-02  0.1667297E+00
         21   -1    0    0  501  502  0.00000000000E+00  0.00000000000E+00  0.20568861332E+02  0.20568861332E+02  0.00000000000E+00 0.  1.
         21   -1    0    0  502  503 -0.00000000000E+00 -0.00000000000E+00 -0.31147961626E+02  0.31147961626E+02  0.00000000000E+00 0. -1.
          2    1    1    2  501    0  0.19334512868E+02 -0.15156722432E+02  0.93539445397E+00  0.24585048007E+02  0.00000000000E+00 0.  1.
         -2    1    1    2    0  503 -0.19334512868E+02  0.15156722432E+02 -0.11514494747E+02  0.27131774951E+02  0.00000000000E+00 0. -1.
<mgrwt>
<rscale>  2 0.24567247E+02</rscale>
<asrwt>0</asrwt>
<pdfrwt beam="1">  1       21 0.31644402E-02 0.24567247E+02</pdfrwt>
<pdfrwt beam="2">  1       21 0.47919941E-02 0.24567247E+02</pdfrwt>
<totfact> 0.11502341E+08</totfact>
</mgrwt>
</event>
<event>
 4    1  0.2761157E+004  0.4463413E+02  0.7546771E-02  0.1476639E+00
         21   -1    0    0  503  502  0.00000000000E+00  0.00000000000E+00  0.23307879269E+01  0.23307879269E+01  0.00000000000E+00 0. -1.
         21   -1    0    0  501  503 -0.00000000000E+00 -0.00000000000E+00 -0.95042197148E+03  0.95042197148E+03  0.00000000000E+00 0.  1.
          2    1    1    2  501    0  0.33708977678E+02 -0.29255951269E+02 -0.62519920885E+03  0.62679044075E+03  0.00000000000E+00 0.  1.
         -2    1    1    2    0  502 -0.33708977678E+02  0.29255951269E+02 -0.32289197470E+03  0.32596231866E+03  0.00000000000E+00 0. -1.
<mgrwt>
<rscale>  2 0.44634133E+02</rscale>
<asrwt>0</asrwt>
<pdfrwt beam="1">  1       21 0.35858191E-03 0.44634133E+02</pdfrwt>
<pdfrwt beam="2">  1       21 0.14621911E+00 0.44634133E+02</pdfrwt>
<totfact> 0.56725450E+06</totfact>
</mgrwt>
</event>
<event>
 4    1  0.2761157E+004  0.2568194E+02  0.7546771E-02  0.1651396E+00
         21   -1    0    0  501  502  0.00000000000E+00  0.00000000000E+00  0.62136660721E+03  0.62136660721E+03  0.00000000000E+00 0. -1.
         21   -1    0    0  502  503 -0.00000000000E+00 -0.00000000000E+00 -0.14725301322E+01  0.14725301322E+01  0.00000000000E+00 0.  1.
          2    1    1    2  501    0  0.16882918055E+02  0.19352757029E+02  0.47448510344E+03  0.47517962448E+03  0.00000000000E+00 0. -1.
         -2    1    1    2    0  503 -0.16882918055E+02 -0.19352757029E+02  0.14540897363E+03  0.14765951286E+03  0.00000000000E+00 0.  1.
<mgrwt>
<rscale>  2 0.25681942E+02</rscale>
<asrwt>0</asrwt>
<pdfrwt beam="1">  1       21 0.95594653E-01 0.25681942E+02</pdfrwt>
<pdfrwt beam="2">  1       21 0.22654359E-03 0.25681942E+02</pdfrwt>
<totfact> 0.27692325E+07</totfact>
</mgrwt>
</event>
<event>
 4    1  0.2761157E+004  0.2300988E+02  0.7546771E-02  0.1691350E+00
         21   -1    0    0  503  502  0.00000000000E+00  0.00000000000E+00  0.29574695357E+02  0.29574695357E+02  0.00000000000E+00 0. -1.
         21   -1    0    0  501  503 -0.00000000000E+00 -0.00000000000E+00 -0.32567430074E+02  0.32567430074E+02  0.00000000000E+00 0.  1.
          2    1    1    2  501    0  0.19588729928E+02 -0.12072134584E+02 -0.22346435100E+02  0.32075191898E+02  0.00000000000E+00 0.  1.
         -2    1    1    2    0  502 -0.19588729928E+02  0.12072134584E+02  0.19353700383E+02  0.30066933534E+02  0.00000000000E+00 0. -1.
<mgrwt>
<rscale>  2 0.23009884E+02</rscale>
<asrwt>0</asrwt>
<pdfrwt beam="1">  1       21 0.45499531E-02 0.23009884E+02</pdfrwt>
<pdfrwt beam="2">  1       21 0.50103738E-02 0.23009884E+02</pdfrwt>
<totfact> 0.59395970E+07</totfact>
</mgrwt>
</event>
<event>
 4    1  0.2761157E+004  0.2514143E+02  0.7546771E-02  0.1658979E+00
         21   -1    0    0  501  502  0.00000000000E+00  0.00000000000E+00  0.17655594826E+02  0.17655594826E+02  0.00000000000E+00 0.  1.
         21   -1    0    0  502  503 -0.00000000000E+00 -0.00000000000E+00 -0.63697762840E+02  0.63697762840E+02  0.00000000000E+00 0. -1.
          2    1    1    2  501    0  0.12854297150E+02 -0.21606913674E+02  0.38978997431E+01  0.25441802141E+02  0.00000000000E+00 0.  1.
         -2    1    1    2    0  503 -0.12854297150E+02  0.21606913674E+02 -0.49940067757E+02  0.55911555526E+02  0.00000000000E+00 0. -1.
<mgrwt>
<rscale>  2 0.25141433E+02</rscale>
<asrwt>0</asrwt>
<pdfrwt beam="1">  1       21 0.27162454E-02 0.25141433E+02</pdfrwt>
<pdfrwt beam="2">  1       21 0.97996557E-02 0.25141433E+02</pdfrwt>
<totfact> 0.45961389E+07</totfact>
</mgrwt>
</event>
<event>
 4    1  0.2761157E+004  0.2316377E+02  0.7546771E-02  0.1688869E+00
         21   -1    0    0  501  502  0.00000000000E+00  0.00000000000E+00  0.14844479787E+01  0.14844479787E+01  0.00000000000E+00 0. -1.
         21   -1    0    0  502  503 -0.00000000000E+00 -0.00000000000E+00 -0.54028811959E+03  0.54028811959E+03  0.00000000000E+00 0.  1.
          2    1    1    2  501    0  0.17360585786E+02  0.15335270081E+02 -0.11355469015E+03  0.11589317539E+03  0.00000000000E+00 0. -1.
         -2    1    1    2    0  503 -0.17360585786E+02 -0.15335270081E+02 -0.42524898146E+03  0.42587939218E+03  0.00000000000E+00 0.  1.
<mgrwt>
<rscale>  2 0.23163774E+02</rscale>
<asrwt>0</asrwt>
<pdfrwt beam="1">  1       21 0.22837618E-03 0.23163774E+02</pdfrwt>
<pdfrwt beam="2">  1       21 0.83121405E-01 0.23163774E+02</pdfrwt>
<totfact> 0.36186934E+07</totfact>
</mgrwt>
</event>
<event>
 4    1  0.2761157E+004  0.2214451E+02  0.7546771E-02  0.1705765E+00
         21   -1    0    0  501  502  0.00000000000E+00  0.00000000000E+00  0.13249575422E+02  0.13249575422E+02  0.00000000000E+00 0.  1.
         21   -1    0    0  502  503 -0.00000000000E+00 -0.00000000000E+00 -0.39207696906E+02  0.39207696906E+02  0.00000000000E+00 0. -1.
          2    1    1    2  501    0  0.13486541313E+02 -0.17563952666E+02 -0.67706402199E+01  0.23156441843E+02  0.00000000000E+00 0.  1.
         -2    1    1    2    0  503 -0.13486541313E+02  0.17563952666E+02 -0.19187481264E+02  0.29300830485E+02  0.00000000000E+00 0. -1.
<mgrwt>
<rscale>  2 0.22144508E+02</rscale>
<asrwt>0</asrwt>
<pdfrwt beam="1">  1       21 0.20383962E-02 0.22144508E+02</pdfrwt>
<pdfrwt beam="2">  1       21 0.60319534E-02 0.22144508E+02</pdfrwt>
<totfact> 0.15254198E+08</totfact>
</mgrwt>
</event>
<event>
 4    1  0.2761157E+004  0.2006838E+02  0.7546771E-02  0.1743972E+00
         21   -1    0    0  503  502  0.00000000000E+00  0.00000000000E+00  0.11637099878E+03  0.11637099878E+03  0.00000000000E+00 0.  1.
         21   -1    0    0  501  503 -0.00000000000E+00 -0.00000000000E+00 -0.12572517047E+02  0.12572517047E+02  0.00000000000E+00 0. -1.
          2    1    1    2  501    0 -0.67168735534E+00  0.20057140186E+02 -0.29862857276E+01  0.20289355308E+02  0.00000000000E+00 0. -1.
         -2    1    1    2    0  502  0.67168735534E+00 -0.20057140186E+02  0.10678476746E+03  0.10865416052E+03  0.00000000000E+00 0.  1.
<mgrwt>
<rscale>  2 0.20068384E+02</rscale>
<asrwt>0</asrwt>
<pdfrwt beam="1">  1       21 0.17903230E-01 0.20068384E+02</pdfrwt>
<pdfrwt beam="2">  1       21 0.19342335E-02 0.20068384E+02</pdfrwt>
<totfact> 0.26579850E+07</totfact>
</mgrwt>
</event>
<event>
 4    1  0.2761157E+004  0.2163941E+02  0.7546771E-02  0.1714564E+00
         21   -1    0    0  501  502  0.00000000000E+00  0.00000000000E+00  0.21456569922E+02  0.21456569922E+02  0.00000000000E+00 0.  1.
         21   -1    0    0  502  503 -0.00000000000E+00 -0.00000000000E+00 -0.36343591284E+02  0.36343591284E+02  0.00000000000E+00 0. -1.
          2    1    1    2  501    0 -0.12237945245E+02 -0.17846481325E+02  0.10823400018E+02  0.24195251341E+02  0.00000000000E+00 0.  1.
         -2    1    1    2    0  503  0.12237945245E+02  0.17846481325E+02 -0.25710421379E+02  0.33604909865E+02  0.00000000000E+00 0. -1.
<mgrwt>
<rscale>  2 0.21639413E+02</rscale>
<asrwt>0</asrwt>
<pdfrwt beam="1">  1       21 0.33010108E-02 0.21639413E+02</pdfrwt>
<pdfrwt beam="2">  1       21 0.55913217E-02 0.21639413E+02</pdfrwt>
<totfact> 0.81189863E+07</totfact>
</mgrwt>
</event>
<event>
 4    1  0.2761157E+004  0.2414213E+02  0.7546771E-02  0.1673639E+00
         21   -1    0    0  501  502  0.00000000000E+00  0.00000000000E+00  0.35052320187E+02  0.35052320187E+02  0.00000000000E+00 0.  1.
         21   -1    0    0  502  503 -0.00000000000E+00 -0.00000000000E+00 -0.48952011312E+02  0.48952011312E+02  0.00000000000E+00 0. -1.
          2    1    1    2  501    0 -0.14373650237E+02  0.19396920070E+02  0.27181271744E+02  0.36354695198E+02  0.00000000000E+00 0.  1.
         -2    1    1    2    0  503  0.14373650237E+02 -0.19396920070E+02 -0.41080962869E+02  0.47649636300E+02  0.00000000000E+00 0. -1.
<mgrwt>
<rscale>  2 0.24142128E+02</rscale>
<asrwt>0</asrwt>
<pdfrwt beam="1">  1       21 0.53926647E-02 0.24142128E+02</pdfrwt>
<pdfrwt beam="2">  1       21 0.75310786E-02 0.24142128E+02</pdfrwt>
<totfact> 0.23792025E+07</totfact>
</mgrwt>
</event>
<event>
 4    1  0.2761157E+004  0.2749690E+02  0.7546771E-02  0.1627528E+00
         21   -1    0    0  503  502  0.00000000000E+00  0.00000000000E+00  0.30154144207E+02  0.30154144207E+02  0.00000000000E+00 0. -1.
         21   -1    0    0  501  503 -0.00000000000E+00 -0.00000000000E+00 -0.51544832532E+02  0.51544832532E+02  0.00000000000E+00 0.  1.
          2    1    1    2  501    0  0.23277020907E+02  0.14637616571E+02 -0.39969160848E+02  0.48514053016E+02  0.00000000000E+00 0.  1.
         -2    1    1    2    0  502 -0.23277020907E+02 -0.14637616571E+02  0.18578472524E+02  0.33184923723E+02  0.00000000000E+00 0. -1.
<mgrwt>
<rscale>  2 0.27496900E+02</rscale>
<asrwt>0</asrwt>
<pdfrwt beam="1">  1       21 0.46390991E-02 0.27496900E+02</pdfrwt>
<pdfrwt beam="2">  1       21 0.79299742E-02 0.27496900E+02</pdfrwt>
<totfact> 0.28604053E+07</totfact>
</mgrwt>
</event>
<event>
 4    1  0.2761157E+004  0.4027473E+02  0.7546771E-02  0.1506199E+00
         21   -1    0    0  501  502  0.00000000000E+00  0.00000000000E+00  0.52126478489E+02  0.52126478489E+02  0.00000000000E+00 0. -1.
         21   -1    0    0  502  503 -0.00000000000E+00 -0.00000000000E+00 -0.32824981208E+02  0.32824981208E+02  0.00000000000E+00 0.  1.
          2    1    1    2  501    0 -0.20679307303E+02  0.34560389226E+02  0.19337891160E+02  0.44676708568E+02  0.00000000000E+00 0. -1.
         -2    1    1    2    0  503  0.20679307303E+02 -0.34560389226E+02 -0.36393878963E-01  0.40274751129E+02  0.00000000000E+00 0.  1.
<mgrwt>
<rscale>  2 0.40274735E+02</rscale>
<asrwt>0</asrwt>
<pdfrwt beam="1">  1       21 0.80194582E-02 0.40274735E+02</pdfrwt>
<pdfrwt beam="2">  1       21 0.50499971E-02 0.40274735E+02</pdfrwt>
<totfact> 0.26330303E+07</totfact>
</mgrwt>
</event>
<event>
 4    1  0.2761157E+004  0.2264574E+02  0.7546771E-02  0.1697318E+00
         21   -1    0    0  501  502  0.00000000000E+00  0.00000000000E+00  0.57811468378E+02  0.57811468378E+02  0.00000000000E+00 0. -1.
         21   -1    0    0  502  503 -0.00000000000E+00 -0.00000000000E+00 -0.95122149944E+01  0.95122149944E+01  0.00000000000E+00 0.  1.
          2    1    1    2  501    0 -0.17542292757E+02 -0.14321221210E+02  0.32891274582E+02  0.39933261271E+02  0.00000000000E+00 0. -1.
         -2    1    1    2    0  503  0.17542292757E+02  0.14321221210E+02  0.15407978802E+02  0.27390422101E+02  0.00000000000E+00 0.  1.
<mgrwt>
<rscale>  2 0.22645737E+02</rscale>
<asrwt>0</asrwt>
<pdfrwt beam="1">  1       21 0.88940719E-02 0.22645737E+02</pdfrwt>
<pdfrwt beam="2">  1       21 0.14634177E-02 0.22645737E+02</pdfrwt>
<totfact> 0.13562127E+08</totfact>
</mgrwt>
</event>
<event>
 4    1  0.2761157E+004  0.2624441E+02  0.7546771E-02  0.1643746E+00
         21   -1    0    0  503  502  0.00000000000E+00  0.00000000000E+00  0.11952044279E+03  0.11952044279E+03  0.00000000000E+00 0.  1.
         21   -1    0    0  501  503 -0.00000000000E+00 -0.00000000000E+00 -0.61595836890E+01  0.61595836890E+01  0.00000000000E+00 0. -1.
          2    1    1    2  501    0  0.17737381149E+02 -0.19343072286E+02  0.40730731128E+02  0.48453705676E+02  0.00000000000E+00 0. -1.
         -2    1    1    2    0  502 -0.17737381149E+02  0.19343072286E+02  0.72630127972E+02  0.77226320802E+02  0.00000000000E+00 0.  1.
<mgrwt>
<rscale>  2 0.26244412E+02</rscale>
<asrwt>0</asrwt>
<pdfrwt beam="1">  1       21 0.18387759E-01 0.26244412E+02</pdfrwt>
<pdfrwt beam="2">  1       21 0.94762834E-03 0.26244412E+02</pdfrwt>
<totfact> 0.79944711E+07</totfact>
</mgrwt>
</event>
<event>
 4    1  0.2761157E+004  0.2315465E+02  0.7546771E-02  0.1689016E+00
         21   -1    0    0  503  502  0.00000000000E+00  0.00000000000E+00  0.18164977392E+03  0.18164977392E+03  0.00000000000E+00 0. -1.
         21   -1    0    0  501  503 -0.00000000000E+00 -0.00000000000E+00 -0.30127381212E+01  0.30127381212E+01  0.00000000000E+00 0.  1.
          2    1    1    2  501    0 -0.15836855762E+02 -0.16891761783E+02  0.76153786841E+02  0.79596085750E+02  0.00000000000E+00 0.  1.
         -2    1    1    2    0  502  0.15836855762E+02  0.16891761783E+02  0.10248324896E+03  0.10506642629E+03  0.00000000000E+00 0. -1.
<mgrwt>
<rscale>  2 0.23154646E+02</rscale>
<asrwt>0</asrwt>
<pdfrwt beam="1">  1       21 0.27946111E-01 0.23154646E+02</pdfrwt>
<pdfrwt beam="2">  1       21 0.46349831E-03 0.23154646E+02</pdfrwt>
<totfact> 0.10694008E+08</totfact>
</mgrwt>
</event>
<event>
 4    1  0.2761157E+004  0.2566413E+02  0.7546771E-02  0.1651642E+00
         21   -1    0    0  503  502  0.00000000000E+00  0.00000000000E+00  0.40760552147E+03  0.40760552147E+03  0.00000000000E+00 0. -1.
         21   -1    0    0  501  503 -0.00000000000E+00 -0.00000000000E+00 -0.16557967363E+01  0.16557967363E+01  0.00000000000E+00 0.  1.
          2    1    1    2  501    0  0.10688542404E+02 -0.23332433118E+02  0.17120847964E+03  0.17312131837E+03  0.00000000000E+00 0.  1.
         -2    1    1    2    0  502 -0.10688542404E+02  0.23332433118E+02  0.23474124509E+03  0.23613999983E+03  0.00000000000E+00 0. -1.
<mgrwt>
<rscale>  2 0.25664126E+02</rscale>
<asrwt>0</asrwt>
<pdfrwt beam="1">  1       21 0.62708462E-01 0.25664126E+02</pdfrwt>
<pdfrwt beam="2">  1       21 0.25473828E-03 0.25664126E+02</pdfrwt>
<totfact> 0.56516850E+07</totfact>
</mgrwt>
</event>
<event>
 4    1  0.2761157E+004  0.3258584E+02  0.7546771E-02  0.1571147E+00
         21   -1    0    0  503  502  0.00000000000E+00  0.00000000000E+00  0.17035317788E+02  0.17035317788E+02  0.00000000000E+00 0. -1.
         21   -1    0    0  501  503 -0.00000000000E+00 -0.00000000000E+00 -0.62728862559E+02  0.62728862559E+02  0.00000000000E+00 0.  1.
          2    1    1    2  501    0 -0.25007837445E+02 -0.20891269195E+02 -0.26020961628E+02  0.41700449713E+02  0.00000000000E+00 0.  1.
         -2    1    1    2    0  502  0.25007837445E+02  0.20891269195E+02 -0.19672583143E+02  0.38063730634E+02  0.00000000000E+00 0. -1.
<mgrwt>
<rscale>  2 0.32585841E+02</rscale>
<asrwt>0</asrwt>
<pdfrwt beam="1">  1       21 0.26208181E-02 0.32585841E+02</pdfrwt>
<pdfrwt beam="2">  1       21 0.96505943E-02 0.32585841E+02</pdfrwt>
<totfact> 0.52870823E+07</totfact>
</mgrwt>
</event>
<event>
 4    1  0.2761157E+004  0.3983487E+02  0.7546771E-02  0.1509430E+00
         21   -1    0    0  503  502  0.00000000000E+00  0.00000000000E+00  0.82298004556E+01  0.82298004556E+01  0.00000000000E+00 0. -1.
         21   -1    0    0  501  503 -0.00000000000E+00 -0.00000000000E+00 -0.96887989939E+03  0.96887989939E+03  0.00000000000E+00 0.  1.
          2    1    1    2  501    0  0.61255272487E+01 -0.39361085039E+02 -0.91757299770E+03  0.91843727233E+03  0.00000000000E+00 0.  1.
         -2    1    1    2    0  502 -0.61255272487E+01  0.39361085039E+02 -0.43077101230E+02  0.58672427510E+02  0.00000000000E+00 0. -1.
<mgrwt>
<rscale>  2 0.39834873E+02</rscale>
<asrwt>0</asrwt>
<pdfrwt beam="1">  1       21 0.12661235E-02 0.39834873E+02</pdfrwt>
<pdfrwt beam="2">  1       21 0.14905841E+00 0.39834873E+02</pdfrwt>
<totfact> 0.79586040E+05</totfact>
</mgrwt>
</event>
<event>
 4    1  0.2761157E+004  0.2366167E+02  0.7546771E-02  0.1681004E+00
         21   -1    0    0  501  502  0.00000000000E+00  0.00000000000E+00  0.40802864077E+03  0.40802864077E+03  0.00000000000E+00 0. -1.
         21   -1    0    0  502  503 -0.00000000000E+00 -0.00000000000E+00 -0.22028129730E+01  0.22028129730E+01  0.00000000000E+00 0.  1.
          2    1    1    2  501    0  0.16064883195E+02 -0.17372226378E+02  0.32887032127E+03  0.32972043148E+03  0.00000000000E+00 0. -1.
         -2    1    1    2    0  503 -0.16064883195E+02  0.17372226378E+02  0.76955506526E+02  0.80511022265E+02  0.00000000000E+00 0.  1.
<mgrwt>
<rscale>  2 0.23661672E+02</rscale>
<asrwt>0</asrwt>
<pdfrwt beam="1">  1       21 0.62773577E-01 0.23661672E+02</pdfrwt>
<pdfrwt beam="2">  1       21 0.33889463E-03 0.23661672E+02</pdfrwt>
<totfact> 0.36529589E+07</totfact>
</mgrwt>
</event>
<event>
 4    1  0.2761157E+004  0.2982861E+02  0.7546771E-02  0.1599991E+00
         21   -1    0    0  501  502  0.00000000000E+00  0.00000000000E+00  0.11465657708E+03  0.11465657708E+03  0.00000000000E+00 0.  1.
         21   -1    0    0  502  503 -0.00000000000E+00 -0.00000000000E+00 -0.14229366130E+02  0.14229366130E+02  0.00000000000E+00 0. -1.
          2    1    1    2  501    0 -0.22243867612E+02 -0.19873511601E+02  0.93665668960E+02  0.98300578083E+02  0.00000000000E+00 0.  1.
         -2    1    1    2    0  503  0.22243867612E+02  0.19873511601E+02  0.67615419857E+01  0.30585365124E+02  0.00000000000E+00 0. -1.
<mgrwt>
<rscale>  2 0.29828612E+02</rscale>
<asrwt>0</asrwt>
<pdfrwt beam="1">  1       21 0.17639473E-01 0.29828612E+02</pdfrwt>
<pdfrwt beam="2">  1       21 0.21891333E-02 0.29828612E+02</pdfrwt>
<totfact> 0.24579536E+07</totfact>
</mgrwt>
</event>
<event>
 4    1  0.2761157E+004  0.2696194E+02  0.7546771E-02  0.1634322E+00
         21   -1    0    0  501  502  0.00000000000E+00  0.00000000000E+00  0.25638436153E+03  0.25638436153E+03  0.00000000000E+00 0.  1.
         21   -1    0    0  502  503 -0.00000000000E+00 -0.00000000000E+00 -0.44784237332E+01  0.44784237332E+01  0.00000000000E+00 0. -1.
          2    1    1    2  501    0 -0.28580306424E+01  0.26810035561E+02  0.20495613308E+03  0.20672194570E+03  0.00000000000E+00 0.  1.
         -2    1    1    2    0  503  0.28580306424E+01 -0.26810035561E+02  0.46949804717E+02  0.54140839566E+02  0.00000000000E+00 0. -1.
<mgrwt>
<rscale>  2 0.26961943E+02</rscale>
<asrwt>0</asrwt>
<pdfrwt beam="1">  1       21 0.39443737E-01 0.26961943E+02</pdfrwt>
<pdfrwt beam="2">  1       21 0.68898847E-03 0.26961943E+02</pdfrwt>
<totfact> 0.32570698E+07</totfact>
</mgrwt>
</event>
<event>
 4    1  0.2761157E+004  0.2570689E+02  0.7546771E-02  0.1651051E+00
         21   -1    0    0  503  502  0.00000000000E+00  0.00000000000E+00  0.97912840458E+01  0.97912840458E+01  0.00000000000E+00 0. -1.
         21   -1    0    0  501  503 -0.00000000000E+00 -0.00000000000E+00 -0.17152115012E+03  0.17152115012E+03  0.00000000000E+00 0.  1.
          2    1    1    2  501    0  0.80010155581E+01  0.24430063170E+02 -0.15146643749E+03  0.15363243773E+03  0.00000000000E+00 0.  1.
         -2    1    1    2    0  502 -0.80010155581E+01 -0.24430063170E+02 -0.10263428583E+02  0.27679996436E+02  0.00000000000E+00 0. -1.
<mgrwt>
<rscale>  2 0.25706891E+02</rscale>
<asrwt>0</asrwt>
<pdfrwt beam="1">  1       21 0.15063514E-02 0.25706891E+02</pdfrwt>
<pdfrwt beam="2">  1       21 0.26387869E-01 0.25706891E+02</pdfrwt>
<totfact> 0.20791058E+07</totfact>
</mgrwt>
</event>
<event>
 4    1  0.2761157E+004  0.2147425E+02  0.7546771E-02  0.1717506E+00
         21   -1    0    0  503  502  0.00000000000E+00  0.00000000000E+00  0.54941761295E+03  0.54941761295E+03  0.00000000000E+00 0.  1.
         21   -1    0    0  501  503 -0.00000000000E+00 -0.00000000000E+00 -0.71551069976E+01  0.71551069976E+01  0.00000000000E+00 0. -1.
          2    1    1    2  501    0  0.12918256209E+02  0.17154063841E+02  0.96760961046E+01  0.23553557811E+02  0.00000000000E+00 0. -1.
         -2    1    1    2    0  502 -0.12918256209E+02 -0.17154063841E+02  0.53258640985E+03  0.53301916214E+03  0.00000000000E+00 0.  1.
<mgrwt>
<rscale>  2 0.21474246E+02</rscale>
<asrwt>0</asrwt>
<pdfrwt beam="1">  1       21 0.84525753E-01 0.21474246E+02</pdfrwt>
<pdfrwt beam="2">  1       21 0.11007861E-02 0.21474246E+02</pdfrwt>
<totfact> 0.33925571E+06</totfact>
</mgrwt>
</event>
<event>
 4    1  0.2761157E+004  0.2597192E+02  0.7546771E-02  0.1647422E+00
         21   -1    0    0  503  502  0.00000000000E+00  0.00000000000E+00  0.19052267262E+02  0.19052267262E+02  0.00000000000E+00 0.  1.
         21   -1    0    0  501  503 -0.00000000000E+00 -0.00000000000E+00 -0.36611685432E+02  0.36611685432E+02  0.00000000000E+00 0. -1.
          2    1    1    2  501    0  0.92142519342E+01 -0.24282471552E+02 -0.13833010710E+02  0.29426060706E+02  0.00000000000E+00 0.  1.
         -2    1    1    2    0  502 -0.92142519342E+01  0.24282471552E+02 -0.37264074605E+01  0.26237891988E+02  0.00000000000E+00 0. -1.
<mgrwt>
<rscale>  2 0.25971925E+02</rscale>
<asrwt>0</asrwt>
<pdfrwt beam="1">  1       21 0.29311181E-02 0.25971925E+02</pdfrwt>
<pdfrwt beam="2">  1       21 0.56325670E-02 0.25971925E+02</pdfrwt>
<totfact> 0.10160776E+08</totfact>
</mgrwt>
</event>
<event>
 4    1  0.2761157E+004  0.2779057E+02  0.7546771E-02  0.1623879E+00
         21   -1    0    0  501  502  0.00000000000E+00  0.00000000000E+00  0.37667277957E+01  0.37667277957E+01  0.00000000000E+00 0. -1.
         21   -1    0    0  502  503 -0.00000000000E+00 -0.00000000000E+00 -0.35325292932E+03  0.35325292932E+03  0.00000000000E+00 0.  1.
          2    1    1    2  501    0  0.27374674158E+02 -0.47898619278E+01 -0.59113811482E+02  0.65320427666E+02  0.00000000000E+00 0. -1.
         -2    1    1    2    0  503 -0.27374674158E+02  0.47898619278E+01 -0.29037239004E+03  0.29169922945E+03  0.00000000000E+00 0.  1.
<mgrwt>
<rscale>  2 0.27790566E+02</rscale>
<asrwt>0</asrwt>
<pdfrwt beam="1">  1       21 0.57949666E-03 0.27790566E+02</pdfrwt>
<pdfrwt beam="2">  1       21 0.54346597E-01 0.27790566E+02</pdfrwt>
<totfact> 0.22797433E+07</totfact>
</mgrwt>
</event>
<event>
 4    1  0.2761157E+004  0.2090240E+02  0.7546771E-02  0.1727956E+00
         21   -1    0    0  501  502  0.00000000000E+00  0.00000000000E+00  0.45388127804E+03  0.45388127804E+03  0.00000000000E+00 0. -1.
         21   -1    0    0  502  503 -0.00000000000E+00 -0.00000000000E+00 -0.14760901338E+01  0.14760901338E+01  0.00000000000E+00 0.  1.
          2    1    1    2  501    0 -0.20817156601E+02  0.18857884463E+01  0.36048780194E+03  0.36109329203E+03  0.00000000000E+00 0. -1.
         -2    1    1    2    0  503  0.20817156601E+02 -0.18857884463E+01  0.91917385973E+02  0.94264076143E+02  0.00000000000E+00 0.  1.
<mgrwt>
<rscale>  2 0.20902397E+02</rscale>
<asrwt>0</asrwt>
<pdfrwt beam="1">  1       21 0.69827778E-01 0.20902397E+02</pdfrwt>
<pdfrwt beam="2">  1       21 0.22709115E-03 0.20902397E+02</pdfrwt>
<totfact> 0.51184280E+07</totfact>
</mgrwt>
</event>
<event>
 4    1  0.2761157E+004  0.4777060E+02  0.7546771E-02  0.1457751E+00
         21   -1    0    0  503  502  0.00000000000E+00  0.00000000000E+00  0.27997609094E+03  0.27997609094E+03  0.00000000000E+00 0. -1.
         21   -1    0    0  501  503 -0.00000000000E+00 -0.00000000000E+00 -0.85735785200E+01  0.85735785200E+01  0.00000000000E+00 0.  1.
          2    1    1    2  501    0 -0.47188544614E+02  0.74344925533E+01  0.10366338934E+03  0.11414082841E+03  0.00000000000E+00 0.  1.
         -2    1    1    2    0  502  0.47188544614E+02 -0.74344925533E+01  0.16773912309E+03  0.17440884105E+03  0.00000000000E+00 0. -1.
<mgrwt>
<rscale>  2 0.47770602E+02</rscale>
<asrwt>0</asrwt>
<pdfrwt beam="1">  1       21 0.43073238E-01 0.47770602E+02</pdfrwt>
<pdfrwt beam="2">  1       21 0.13190123E-02 0.47770602E+02</pdfrwt>
<totfact> 0.11200758E+07</totfact>
</mgrwt>
</event>
<event>
 4    1  0.2761157E+004  0.5576957E+02  0.7546771E-02  0.1416494E+00
         21   -1    0    0  503  502  0.00000000000E+00  0.00000000000E+00  0.19612060378E+02  0.19612060378E+02  0.00000000000E+00 0. -1.
         21   -1    0    0  501  503 -0.00000000000E+00 -0.00000000000E+00 -0.16142586647E+03  0.16142586647E+03  0.00000000000E+00 0.  1.
          2    1    1    2  501    0 -0.33960220408E+02  0.44237409674E+02 -0.82907960479E+02  0.99919842351E+02  0.00000000000E+00 0. -1.
         -2    1    1    2    0  502  0.33960220408E+02 -0.44237409674E+02 -0.58905845613E+02  0.81118084496E+02  0.00000000000E+00 0.  1.
<mgrwt>
<rscale>  2 0.55769570E+02</rscale>
<asrwt>0</asrwt>
<pdfrwt beam="1">  1       21 0.30172400E-02 0.55769570E+02</pdfrwt>
<pdfrwt beam="2">  1       21 0.24834749E-01 0.55769570E+02</pdfrwt>
<totfact> 0.87891263E+06</totfact>
</mgrwt>
</event>
<event>
 4    1  0.2761157E+004  0.2024521E+02  0.7546771E-02  0.1740495E+00
         21   -1    0    0  503  502  0.00000000000E+00  0.00000000000E+00  0.23088055149E+02  0.23088055149E+02  0.00000000000E+00 0.  1.
         21   -1    0    0  501  503 -0.00000000000E+00 -0.00000000000E+00 -0.62073549479E+02  0.62073549479E+02  0.00000000000E+00 0. -1.
          2    1    1    2  501    0 -0.99638606823E+01 -0.17623566120E+02 -0.55473149301E+02  0.59052001625E+02  0.00000000000E+00 0. -1.
         -2    1    1    2    0  502  0.99638606823E+01  0.17623566120E+02  0.16487654972E+02  0.26109603003E+02  0.00000000000E+00 0.  1.
<mgrwt>
<rscale>  2 0.20245212E+02</rscale>
<asrwt>0</asrwt>
<pdfrwt beam="1">  1       21 0.35520085E-02 0.20245212E+02</pdfrwt>
<pdfrwt beam="2">  1       21 0.95497769E-02 0.20245212E+02</pdfrwt>
<totfact> 0.29935008E+07</totfact>
</mgrwt>
</event>
<event>
 4    1  0.2761157E+004  0.2590106E+02  0.7546771E-02  0.1648387E+00
         21   -1    0    0  501  502  0.00000000000E+00  0.00000000000E+00  0.64213952741E+01  0.64213952741E+01  0.00000000000E+00 0. -1.
         21   -1    0    0  502  503 -0.00000000000E+00 -0.00000000000E+00 -0.12198143764E+03  0.12198143764E+03  0.00000000000E+00 0.  1.
          2    1    1    2  501    0  0.23703661383E+01 -0.25792372320E+02 -0.33457070327E+02  0.42311235629E+02  0.00000000000E+00 0. -1.
         -2    1    1    2    0  503 -0.23703661383E+01  0.25792372320E+02 -0.82102972036E+02  0.86091597283E+02  0.00000000000E+00 0.  1.
<mgrwt>
<rscale>  2 0.25901064E+02</rscale>
<asrwt>0</asrwt>
<pdfrwt beam="1">  1       21 0.98790698E-03 0.25901064E+02</pdfrwt>
<pdfrwt beam="2">  1       21 0.18766375E-01 0.25901064E+02</pdfrwt>
<totfact> 0.72230460E+07</totfact>
</mgrwt>
</event>
<event>
 4    1  0.2761157E+004  0.2149677E+02  0.7546771E-02  0.1717103E+00
         21   -1    0    0  503  502  0.00000000000E+00  0.00000000000E+00  0.12078603244E+03  0.12078603244E+03  0.00000000000E+00 0.  1.
         21   -1    0    0  501  503 -0.00000000000E+00 -0.00000000000E+00 -0.83657946022E+01  0.83657946022E+01  0.00000000000E+00 0. -1.
          2    1    1    2  501    0  0.40340145154E+00 -0.21492980217E+02  0.86391970397E+01  0.23167793525E+02  0.00000000000E+00 0. -1.
         -2    1    1    2    0  502 -0.40340145154E+00  0.21492980217E+02  0.10378104079E+03  0.10598403351E+03  0.00000000000E+00 0.  1.
<mgrwt>
<rscale>  2 0.21496766E+02</rscale>
<asrwt>0</asrwt>
<pdfrwt beam="1">  1       21 0.18582465E-01 0.21496766E+02</pdfrwt>
<pdfrwt beam="2">  1       21 0.12870454E-02 0.21496766E+02</pdfrwt>
<totfact> 0.47037566E+07</totfact>
</mgrwt>
</event>
<event>
 4    1  0.2761157E+004  0.3900968E+02  0.7546771E-02  0.1515628E+00
         21   -1    0    0  501  502  0.00000000000E+00  0.00000000000E+00  0.66164982019E+02  0.66164982019E+02  0.00000000000E+00 0. -1.
         21   -1    0    0  502  503 -0.00000000000E+00 -0.00000000000E+00 -0.81734216046E+02  0.81734216046E+02  0.00000000000E+00 0.  1.
          2    1    1    2  501    0 -0.33685408017E+02  0.19673546603E+02  0.54902986086E+02  0.67350523609E+02  0.00000000000E+00 0. -1.
         -2    1    1    2    0  503  0.33685408017E+02 -0.19673546603E+02 -0.70472220113E+02  0.80548674457E+02  0.00000000000E+00 0.  1.
<mgrwt>
<rscale>  2 0.39009680E+02</rscale>
<asrwt>0</asrwt>
<pdfrwt beam="1">  1       21 0.10179228E-01 0.39009680E+02</pdfrwt>
<pdfrwt beam="2">  1       21 0.12574495E-01 0.39009680E+02</pdfrwt>
<totfact> 0.38404515E+06</totfact>
</mgrwt>
</event>
<event>
 4    1  0.2761157E+004  0.2750504E+02  0.7546771E-02  0.1627426E+00
         21   -1    0    0  503  502  0.00000000000E+00  0.00000000000E+00  0.17620740472E+01  0.17620740472E+01  0.00000000000E+00 0.  1.
         21   -1    0    0  501  503 -0.00000000000E+00 -0.00000000000E+00 -0.59298462563E+03  0.59298462563E+03  0.00000000000E+00 0. -1.
          2    1    1    2  501    0  0.27361017308E+02 -0.28110624603E+01 -0.45182973674E+03  0.45266614446E+03  0.00000000000E+00 0. -1.
         -2    1    1    2    0  502 -0.27361017308E+02  0.28110624603E+01 -0.13939281485E+03  0.14208055522E+03  0.00000000000E+00 0.  1.
<mgrwt>
<rscale>  2 0.27505042E+02</rscale>
<asrwt>0</asrwt>
<pdfrwt beam="1">  1       21 0.27108782E-03 0.27505042E+02</pdfrwt>
<pdfrwt beam="2">  1       21 0.91228570E-01 0.27505042E+02</pdfrwt>
<totfact> 0.23887845E+07</totfact>
</mgrwt>
</event>
<event>
 4    1  0.2761157E+004  0.2061198E+02  0.7546771E-02  0.1733425E+00
         21   -1    0    0  501  502  0.00000000000E+00  0.00000000000E+00  0.25609065895E+02  0.25609065895E+02  0.00000000000E+00 0. -1.
         21   -1    0    0  502  503 -0.00000000000E+00 -0.00000000000E+00 -0.17723878118E+02  0.17723878118E+02  0.00000000000E+00 0.  1.
          2    1    1    2  501    0 -0.19836080265E+02 -0.56021111606E+01  0.94228019324E+01  0.22663691800E+02  0.00000000000E+00 0. -1.
         -2    1    1    2    0  503  0.19836080265E+02  0.56021111606E+01 -0.15376141545E+01  0.20669252213E+02  0.00000000000E+00 0.  1.
<mgrwt>
<rscale>  2 0.20611980E+02</rscale>
<asrwt>0</asrwt>
<pdfrwt beam="1">  1       21 0.39398563E-02 0.20611980E+02</pdfrwt>
<pdfrwt beam="2">  1       21 0.27267505E-02 0.20611980E+02</pdfrwt>
<totfact> 0.18726747E+08</totfact>
</mgrwt>
</event>
<event>
 4    1  0.2761157E+004  0.2842921E+02  0.7546771E-02  0.1616130E+00
         21   -1    0    0  503  502  0.00000000000E+00  0.00000000000E+00  0.39337565332E+03  0.39337565332E+03  0.00000000000E+00 0.  1.
         21   -1    0    0  501  503 -0.00000000000E+00 -0.00000000000E+00 -0.20549689567E+01  0.20549689567E+01  0.00000000000E+00 0. -1.
          2    1    1    2  501    0 -0.18343402401E+02 -0.21719569852E+02  0.19839485795E+03  0.20042140552E+03  0.00000000000E+00 0.  1.
         -2    1    1    2    0  502  0.18343402401E+02  0.21719569852E+02  0.19292582641E+03  0.19500921676E+03  0.00000000000E+00 0. -1.
<mgrwt>
<rscale>  2 0.28429213E+02</rscale>
<asrwt>0</asrwt>
<pdfrwt beam="1">  1       21 0.60519272E-01 0.28429213E+02</pdfrwt>
<pdfrwt beam="2">  1       21 0.31614938E-03 0.28429213E+02</pdfrwt>
<totfact> 0.45239310E+07</totfact>
</mgrwt>
</event>
<event>
 4    1  0.2761157E+004  0.2238259E+02  0.7546771E-02  0.1701718E+00
         21   -1    0    0  501  502  0.00000000000E+00  0.00000000000E+00  0.18159971599E+01  0.18159971599E+01  0.00000000000E+00 0. -1.
         21   -1    0    0  502  503 -0.00000000000E+00 -0.00000000000E+00 -0.52416676196E+03  0.52416676196E+03  0.00000000000E+00 0.  1.
          2    1    1    2  501    0 -0.21341073811E+02  0.67482482184E+01 -0.80169891871E+02  0.83235760632E+02  0.00000000000E+00 0. -1.
         -2    1    1    2    0  503  0.21341073811E+02 -0.67482482184E+01 -0.44218087293E+03  0.44274699849E+03  0.00000000000E+00 0.  1.
<mgrwt>
<rscale>  2 0.22382589E+02</rscale>
<asrwt>0</asrwt>
<pdfrwt beam="1">  1       21 0.27938457E-03 0.22382589E+02</pdfrwt>
<pdfrwt beam="2">  1       21 0.80640926E-01 0.22382589E+02</pdfrwt>
<totfact> 0.28580915E+07</totfact>
</mgrwt>
</event>
<event>
 4    1  0.2761157E+004  0.2352115E+02  0.7546771E-02  0.1683199E+00
         21   -1    0    0  501  502  0.00000000000E+00  0.00000000000E+00  0.69542160254E+03  0.69542160254E+03  0.00000000000E+00 0. -1.
         21   -1    0    0  502  503 -0.00000000000E+00 -0.00000000000E+00 -0.19135061120E+01  0.19135061120E+01  0.00000000000E+00 0.  1.
          2    1    1    2  501    0  0.19920210656E+02  0.12507191731E+02  0.61326093275E+03  0.61371183488E+03  0.00000000000E+00 0. -1.
         -2    1    1    2    0  503 -0.19920210656E+02 -0.12507191731E+02  0.80247163684E+02  0.83623273775E+02  0.00000000000E+00 0.  1.
<mgrwt>
<rscale>  2 0.23521153E+02</rscale>
<asrwt>0</asrwt>
<pdfrwt beam="1">  1       21 0.10698774E+00 0.23521153E+02</pdfrwt>
<pdfrwt beam="2">  1       21 0.29438611E-03 0.23521153E+02</pdfrwt>
<totfact> 0.14532977E+07</totfact>
</mgrwt>
</event>
<event>
 4    1  0.2761157E+004  0.2026966E+02  0.7546771E-02  0.1740018E+00
         21   -1    0    0  503  502  0.00000000000E+00  0.00000000000E+00  0.10555242865E+02  0.10555242865E+02  0.00000000000E+00 0. -1.
         21   -1    0    0  501  503 -0.00000000000E+00 -0.00000000000E+00 -0.44536822396E+02  0.44536822396E+02  0.00000000000E+00 0.  1.
          2    1    1    2  501    0 -0.15145673476E+02 -0.13470994194E+02 -0.26769127547E+02  0.33577452244E+02  0.00000000000E+00 0.  1.
         -2    1    1    2    0  502  0.15145673476E+02  0.13470994194E+02 -0.72124519839E+01  0.21514613016E+02  0.00000000000E+00 0. -1.
<mgrwt>
<rscale>  2 0.20269660E+02</rscale>
<asrwt>0</asrwt>
<pdfrwt beam="1">  1       21 0.16238835E-02 0.20269660E+02</pdfrwt>
<pdfrwt beam="2">  1       21 0.68518189E-02 0.20269660E+02</pdfrwt>
<totfact> 0.17102447E+08</totfact>
</mgrwt>
</event>
<event>
 4    1  0.2761157E+004  0.2023810E+02  0.7546771E-02  0.1740634E+00
         21   -1    0    0  503  502  0.00000000000E+00  0.00000000000E+00  0.39145469917E+03  0.39145469917E+03  0.00000000000E+00 0. -1.
         21   -1    0    0  501  503 -0.00000000000E+00 -0.00000000000E+00 -0.10778273323E+01  0.10778273323E+01  0.00000000000E+00 0.  1.
          2    1    1    2  501    0 -0.13909216779E+02  0.14700823444E+02  0.16162326898E+03  0.16288542475E+03  0.00000000000E+00 0.  1.
         -2    1    1    2    0  502  0.13909216779E+02 -0.14700823444E+02  0.22875360286E+03  0.22964710176E+03  0.00000000000E+00 0. -1.
<mgrwt>
<rscale>  2 0.20238096E+02</rscale>
<asrwt>0</asrwt>
<pdfrwt beam="1">  1       21 0.60223687E-01 0.20238096E+02</pdfrwt>
<pdfrwt beam="2">  1       21 0.16581990E-03 0.20238096E+02</pdfrwt>
<totfact> 0.10747660E+08</totfact>
</mgrwt>
</event>
<event>
 4    1  0.2761157E+004  0.2719339E+02  0.7546771E-02  0.1631359E+00
         21   -1    0    0  501  502  0.00000000000E+00  0.00000000000E+00  0.10048184832E+02  0.10048184832E+02  0.00000000000E+00 0.  1.
         21   -1    0    0  502  503 -0.00000000000E+00 -0.00000000000E+00 -0.20890170415E+03  0.20890170415E+03  0.00000000000E+00 0. -1.
          2    1    1    2  501    0 -0.26556219609E+02 -0.58521584445E+01 -0.11320677001E+02  0.29455700401E+02  0.00000000000E+00 0.  1.
         -2    1    1    2    0  503  0.26556219609E+02  0.58521584445E+01 -0.18753284232E+03  0.18949418858E+03  0.00000000000E+00 0. -1.
<mgrwt>
<rscale>  2 0.27193392E+02</rscale>
<asrwt>0</asrwt>
<pdfrwt beam="1">  1       21 0.15458746E-02 0.27193392E+02</pdfrwt>
<pdfrwt beam="2">  1       21 0.32138723E-01 0.27193392E+02</pdfrwt>
<totfact> 0.14096626E+07</totfact>
</mgrwt>
</event>
<event>
 4    1  0.2761157E+004  0.2038731E+02  0.7546771E-02  0.1737734E+00
         21   -1    0    0  503  502  0.00000000000E+00  0.00000000000E+00  0.13239199618E+02  0.13239199618E+02  0.00000000000E+00 0. -1.
         21   -1    0    0  501  503 -0.00000000000E+00 -0.00000000000E+00 -0.11682924491E+03  0.11682924491E+03  0.00000000000E+00 0.  1.
          2    1    1    2  501    0 -0.20094399679E+02 -0.34435012201E+01 -0.10740882085E+03  0.10932656308E+03  0.00000000000E+00 0.  1.
         -2    1    1    2    0  502  0.20094399679E+02  0.34435012201E+01  0.38187755583E+01  0.20741881445E+02  0.00000000000E+00 0. -1.
<mgrwt>
<rscale>  2 0.20387315E+02</rscale>
<asrwt>0</asrwt>
<pdfrwt beam="1">  1       21 0.20367999E-02 0.20387315E+02</pdfrwt>
<pdfrwt beam="2">  1       21 0.17973730E-01 0.20387315E+02</pdfrwt>
<totfact> 0.24492979E+07</totfact>
</mgrwt>
</event>
<event>
 4    1  0.2761157E+004  0.3001485E+02  0.7546771E-02  0.1597925E+00
         21   -1    0    0  503  502  0.00000000000E+00  0.00000000000E+00  0.12505638041E+03  0.12505638041E+03  0.00000000000E+00 0. -1.
         21   -1    0    0  501  503 -0.00000000000E+00 -0.00000000000E+00 -0.90946934783E+01  0.90946934783E+01  0.00000000000E+00 0.  1.
          2    1    1    2  501    0 -0.26817241121E+02  0.13480607902E+02  0.27396833910E+02  0.40638377416E+02  0.00000000000E+00 0.  1.
         -2    1    1    2    0  502  0.26817241121E+02 -0.13480607902E+02  0.88564853020E+02  0.93512696471E+02  0.00000000000E+00 0. -1.
<mgrwt>
<rscale>  2 0.30014850E+02</rscale>
<asrwt>0</asrwt>
<pdfrwt beam="1">  1       21 0.19239442E-01 0.30014850E+02</pdfrwt>
<pdfrwt beam="2">  1       21 0.13991837E-02 0.30014850E+02</pdfrwt>
<totfact> 0.42154726E+07</totfact>
</mgrwt>
</event>
<event>
 4    1  0.2761157E+004  0.2508301E+02  0.7546771E-02  0.1659812E+00
         21   -1    0    0  503  502  0.00000000000E+00  0.00000000000E+00  0.37371649150E+03  0.37371649150E+03  0.00000000000E+00 0.  1.
         21   -1    0    0  501  503 -0.00000000000E+00 -0.00000000000E+00 -0.51945857855E+01  0.51945857855E+01  0.00000000000E+00 0. -1.
          2    1    1    2  501    0  0.21649332105E+02 -0.12667428132E+02  0.28502495260E+02  0.37967743575E+02  0.00000000000E+00 0. -1.
         -2    1    1    2    0  502 -0.21649332105E+02  0.12667428132E+02  0.34001941046E+03  0.34094333371E+03  0.00000000000E+00 0.  1.
<mgrwt>
<rscale>  2 0.25083009E+02</rscale>
<asrwt>0</asrwt>
<pdfrwt beam="1">  1       21 0.57494824E-01 0.25083009E+02</pdfrwt>
<pdfrwt beam="2">  1       21 0.79916734E-03 0.25083009E+02</pdfrwt>
<totfact> 0.12384385E+07</totfact>
</mgrwt>
</event>
<event>
 4    1  0.2761157E+004  0.3999733E+02  0.7546771E-02  0.1508231E+00
         21   -1    0    0  503  502  0.00000000000E+00  0.00000000000E+00  0.20350539030E+03  0.20350539030E+03  0.00000000000E+00 0. -1.
         21   -1    0    0  501  503 -0.00000000000E+00 -0.00000000000E+00 -0.92202589162E+01  0.92202589162E+01  0.00000000000E+00 0.  1.
          2    1    1    2  501    0 -0.13123028664E+02 -0.37783232018E+02  0.56306362810E+02  0.69066583786E+02  0.00000000000E+00 0.  1.
         -2    1    1    2    0  502  0.13123028664E+02  0.37783232018E+02  0.13797876857E+03  0.14365906543E+03  0.00000000000E+00 0. -1.
<mgrwt>
<rscale>  2 0.39997331E+02</rscale>
<asrwt>0</asrwt>
<pdfrwt beam="1">  1       21 0.31308518E-01 0.39997331E+02</pdfrwt>
<pdfrwt beam="2">  1       21 0.14185015E-02 0.39997331E+02</pdfrwt>
<totfact> 0.17988198E+07</totfact>
</mgrwt>
</event>
<event>
 4    1  0.2761157E+004  0.5912221E+02  0.7546771E-02  0.1401553E+00
         21   -1    0    0  501  502  0.00000000000E+00  0.00000000000E+00  0.11819513184E+03  0.11819513184E+03  0.00000000000E+00 0.  1.
         21   -1    0    0  502  503 -0.00000000000E+00 -0.00000000000E+00 -0.40705025317E+02  0.40705025317E+02  0.00000000000E+00 0. -1.
          2    1    1    2  501    0  0.12202317653E+02  0.57849277732E+02  0.80292947351E+02  0.99711548401E+02  0.00000000000E+00 0.  1.
         -2    1    1    2    0  503 -0.12202317653E+02 -0.57849277732E+02 -0.28028408245E+01  0.59188608760E+02  0.00000000000E+00 0. -1.
<mgrwt>
<rscale>  2 0.59122208E+02</rscale>
<asrwt>0</asrwt>
<pdfrwt beam="1">  1       21 0.18183866E-01 0.59122208E+02</pdfrwt>
<pdfrwt beam="2">  1       21 0.62623117E-02 0.59122208E+02</pdfrwt>
<totfact> 0.47255483E+06</totfact>
</mgrwt>
</event>
<event>
 4    1  0.2761157E+004  0.3943537E+02  0.7546771E-02  0.1512408E+00
         21   -1    0    0  501  502  0.00000000000E+00  0.00000000000E+00  0.51412601103E+02  0.51412601103E+02  0.00000000000E+00 0. -1.
         21   -1    0    0  502  503 -0.00000000000E+00 -0.00000000000E+00 -0.49254222227E+03  0.49254222227E+03  0.00000000000E+00 0.  1.
          2    1    1    2  501    0 -0.22494743309E+02 -0.32390353792E+02  0.42928838832E+02  0.58292655616E+02  0.00000000000E+00 0. -1.
         -2    1    1    2    0  503  0.22494743309E+02  0.32390353792E+02 -0.48405846000E+03  0.48566216776E+03  0.00000000000E+00 0.  1.
<mgrwt>
<rscale>  2 0.39435371E+02</rscale>
<asrwt>0</asrwt>
<pdfrwt beam="1">  1       21 0.79096313E-02 0.39435371E+02</pdfrwt>
<pdfrwt beam="2">  1       21 0.75775723E-01 0.39435371E+02</pdfrwt>
<totfact> 0.19944025E+05</totfact>
</mgrwt>
</event>
<event>
 4    1  0.2761157E+004  0.3638570E+02  0.7546771E-02  0.1536629E+00
         21   -1    0    0  503  502  0.00000000000E+00  0.00000000000E+00  0.10950572097E+02  0.10950572097E+02  0.00000000000E+00 0.  1.
         21   -1    0    0  501  503 -0.00000000000E+00 -0.00000000000E+00 -0.13881811554E+03  0.13881811554E+03  0.00000000000E+00 0. -1.
          2    1    1    2  501    0 -0.12644717320E+02  0.34117884697E+02 -0.90837961341E+02  0.97854249539E+02  0.00000000000E+00 0. -1.
         -2    1    1    2    0  502  0.12644717320E+02 -0.34117884697E+02 -0.37029582102E+02  0.51914438097E+02  0.00000000000E+00 0.  1.
<mgrwt>
<rscale>  2 0.36385697E+02</rscale>
<asrwt>0</asrwt>
<pdfrwt beam="1">  1       21 0.16847034E-02 0.36385697E+02</pdfrwt>
<pdfrwt beam="2">  1       21 0.21356633E-01 0.36385697E+02</pdfrwt>
<totfact> 0.27306299E+07</totfact>
</mgrwt>
</event>
<event>
 4    1  0.2761157E+004  0.2102981E+02  0.7546771E-02  0.1725592E+00
         21   -1    0    0  503  502  0.00000000000E+00  0.00000000000E+00  0.27561632367E+01  0.27561632367E+01  0.00000000000E+00 0.  1.
         21   -1    0    0  501  503 -0.00000000000E+00 -0.00000000000E+00 -0.22808604522E+03  0.22808604522E+03  0.00000000000E+00 0. -1.
          2    1    1    2  501    0  0.17566019347E+02 -0.11562347727E+02 -0.17551331775E+03  0.17676871225E+03  0.00000000000E+00 0. -1.
         -2    1    1    2    0  502 -0.17566019347E+02  0.11562347727E+02 -0.49816564228E+02  0.54073496208E+02  0.00000000000E+00 0.  1.
<mgrwt>
<rscale>  2 0.21029810E+02</rscale>
<asrwt>0</asrwt>
<pdfrwt beam="1">  1       21 0.42402519E-03 0.21029810E+02</pdfrwt>
<pdfrwt beam="2">  1       21 0.35090154E-01 0.21029810E+02</pdfrwt>
<totfact> 0.78387712E+07</totfact>
</mgrwt>
</event>
<event>
 4    1  0.2761157E+004  0.2150236E+02  0.7546771E-02  0.1717003E+00
         21   -1    0    0  501  502  0.00000000000E+00  0.00000000000E+00  0.14666948211E+02  0.14666948211E+02  0.00000000000E+00 0.  1.
         21   -1    0    0  502  503 -0.00000000000E+00 -0.00000000000E+00 -0.36112737555E+02  0.36112737555E+02  0.00000000000E+00 0. -1.
          2    1    1    2  501    0 -0.17953312312E+02 -0.11833423956E+02 -0.16716738040E+01  0.21567239944E+02  0.00000000000E+00 0.  1.
         -2    1    1    2    0  503  0.17953312312E+02  0.11833423956E+02 -0.19774115539E+02  0.29212445821E+02  0.00000000000E+00 0. -1.
<mgrwt>
<rscale>  2 0.21502357E+02</rscale>
<asrwt>0</asrwt>
<pdfrwt beam="1">  1       21 0.22564536E-02 0.21502357E+02</pdfrwt>
<pdfrwt beam="2">  1       21 0.55558057E-02 0.21502357E+02</pdfrwt>
<totfact> 0.14751790E+08</totfact>
</mgrwt>
</event>
<event>
 4    1  0.2761157E+004  0.2390880E+02  0.7546771E-02  0.1677189E+00
         21   -1    0    0  501  502  0.00000000000E+00  0.00000000000E+00  0.12143776375E+03  0.12143776375E+03  0.00000000000E+00 0. -1.
         21   -1    0    0  502  503 -0.00000000000E+00 -0.00000000000E+00 -0.55724626338E+01  0.55724626338E+01  0.00000000000E+00 0.  1.
          2    1    1    2  501    0 -0.23699335953E+02  0.31578998956E+01  0.32908397544E+02  0.40676694621E+02  0.00000000000E+00 0.  1.
         -2    1    1    2    0  503  0.23699335953E+02 -0.31578998956E+01  0.82956903574E+02  0.86333531765E+02  0.00000000000E+00 0. -1.
<mgrwt>
<rscale>  2 0.23908803E+02</rscale>
<asrwt>0</asrwt>
<pdfrwt beam="1">  1       21 0.18682731E-01 0.23908803E+02</pdfrwt>
<pdfrwt beam="2">  1       21 0.85730204E-03 0.23908803E+02</pdfrwt>
<totfact> 0.88268916E+07</totfact>
</mgrwt>
</event>
<event>
 4    1  0.2761157E+004  0.2008616E+02  0.7546771E-02  0.1743620E+00
         21   -1    0    0  503  502  0.00000000000E+00  0.00000000000E+00  0.19564261483E+02  0.19564261483E+02  0.00000000000E+00 0. -1.
         21   -1    0    0  501  503 -0.00000000000E+00 -0.00000000000E+00 -0.25838138374E+02  0.25838138374E+02  0.00000000000E+00 0.  1.
          2    1    1    2  501    0 -0.17678692498E+02 -0.95350715824E+01 -0.13336786346E+02  0.24110653839E+02  0.00000000000E+00 0.  1.
         -2    1    1    2    0  502  0.17678692498E+02  0.95350715824E+01  0.70629094554E+01  0.21291746018E+02  0.00000000000E+00 0. -1.
<mgrwt>
<rscale>  2 0.20086158E+02</rscale>
<asrwt>0</asrwt>
<pdfrwt beam="1">  1       21 0.30098864E-02 0.20086158E+02</pdfrwt>
<pdfrwt beam="2">  1       21 0.39750982E-02 0.20086158E+02</pdfrwt>
<totfact> 0.15718068E+08</totfact>
</mgrwt>
</event>
<event>
 4    1  0.2761157E+004  0.2358285E+02  0.7546771E-02  0.1682233E+00
         21   -1    0    0  503  502  0.00000000000E+00  0.00000000000E+00  0.44092153430E+00  0.44092153430E+00  0.00000000000E+00 0.  1.
         21   -1    0    0  501  503 -0.00000000000E+00 -0.00000000000E+00 -0.16075164161E+04  0.16075164161E+04  0.00000000000E+00 0. -1.
          2    1    1    2  501    0 -0.22728061541E+02 -0.62917335587E+01 -0.11766309795E+04  0.11768672876E+04  0.00000000000E+00 0. -1.
         -2    1    1    2    0  502  0.22728061541E+02  0.62917335587E+01 -0.43044451510E+03  0.43109005007E+03  0.00000000000E+00 0.  1.
<mgrwt>
<rscale>  2 0.23582847E+02</rscale>
<asrwt>0</asrwt>
<pdfrwt beam="1">  1       21 0.67833988E-04 0.23582847E+02</pdfrwt>
<pdfrwt beam="2">  1       21 0.24731056E+00 0.23582847E+02</pdfrwt>
<totfact> 0.15260289E+07</totfact>
</mgrwt>
</event>
<event>
 4    1  0.2761157E+004  0.2028309E+02  0.7546771E-02  0.1739756E+00
         21   -1    0    0  501  502  0.00000000000E+00  0.00000000000E+00  0.76936894995E+01  0.76936894995E+01  0.00000000000E+00 0. -1.
         21   -1    0    0  502  503 -0.00000000000E+00 -0.00000000000E+00 -0.60353108562E+02  0.60353108562E+02  0.00000000000E+00 0.  1.
          2    1    1    2  501    0  0.28265620393E+01  0.20085170903E+02 -0.14842088554E+02  0.25133466450E+02  0.00000000000E+00 0. -1.
         -2    1    1    2    0  503 -0.28265620393E+01 -0.20085170903E+02 -0.37817330509E+02  0.42913331611E+02  0.00000000000E+00 0.  1.
<mgrwt>
<rscale>  2 0.20283085E+02</rscale>
<asrwt>0</asrwt>
<pdfrwt beam="1">  1       21 0.11836446E-02 0.20283085E+02</pdfrwt>
<pdfrwt beam="2">  1       21 0.92850932E-02 0.20283085E+02</pdfrwt>
<totfact> 0.16835562E+08</totfact>
</mgrwt>
</event>
<event>
 4    1  0.2761157E+004  0.2112243E+02  0.7546771E-02  0.1723886E+00
         21   -1    0    0  503  502  0.00000000000E+00  0.00000000000E+00  0.11322188363E+01  0.11322188363E+01  0.00000000000E+00 0. -1.
         21   -1    0    0  501  503 -0.00000000000E+00 -0.00000000000E+00 -0.39515166455E+03  0.39515166455E+03  0.00000000000E+00 0.  1.
          2    1    1    2  501    0 -0.20925573814E+02 -0.28770781883E+01 -0.18657443066E+03  0.18776627864E+03  0.00000000000E+00 0.  1.
         -2    1    1    2    0  502  0.20925573814E+02  0.28770781883E+01 -0.20744501505E+03  0.20851760474E+03  0.00000000000E+00 0. -1.
<mgrwt>
<rscale>  2 0.21122434E+02</rscale>
<asrwt>0</asrwt>
<pdfrwt beam="1">  1       21 0.17418724E-03 0.21122434E+02</pdfrwt>
<pdfrwt beam="2">  1       21 0.60792660E-01 0.21122434E+02</pdfrwt>
<totfact> 0.99425882E+07</totfact>
</mgrwt>
</event>
<event>
 4    1  0.2761157E+004  0.4249983E+02  0.7546771E-02  0.1490582E+00
         21   -1    0    0  503  502  0.00000000000E+00  0.00000000000E+00  0.95474303898E+01  0.95474303898E+01  0.00000000000E+00 0.  1.
         21   -1    0    0  501  503 -0.00000000000E+00 -0.00000000000E+00 -0.39328662712E+03  0.39328662712E+03  0.00000000000E+00 0. -1.
          2    1    1    2  501    0  0.42499292262E+02  0.21369533320E+00 -0.33696855313E+03  0.33963810343E+03  0.00000000000E+00 0. -1.
         -2    1    1    2    0  502 -0.42499292262E+02 -0.21369533320E+00 -0.46770643606E+02  0.63195954077E+02  0.00000000000E+00 0.  1.
<mgrwt>
<rscale>  2 0.42499830E+02</rscale>
<asrwt>0</asrwt>
<pdfrwt beam="1">  1       21 0.14688354E-02 0.42499830E+02</pdfrwt>
<pdfrwt beam="2">  1       21 0.60505635E-01 0.42499830E+02</pdfrwt>
<totfact> 0.47404795E+06</totfact>
</mgrwt>
</event>
<event>
 4    1  0.2761157E+004  0.2226051E+02  0.7546771E-02  0.1703785E+00
         21   -1    0    0  501  502  0.00000000000E+00  0.00000000000E+00  0.15108994546E+01  0.15108994546E+01  0.00000000000E+00 0. -1.
         21   -1    0    0  502  503 -0.00000000000E+00 -0.00000000000E+00 -0.37380136392E+03  0.37380136392E+03  0.00000000000E+00 0.  1.
          2    1    1    2  501    0 -0.13649484695E+02 -0.17584702979E+02 -0.12043665134E+03  0.12247659857E+03  0.00000000000E+00 0. -1.
         -2    1    1    2    0  503  0.13649484695E+02  0.17584702979E+02 -0.25185381312E+03  0.25283566480E+03  0.00000000000E+00 0.  1.
<mgrwt>
<rscale>  2 0.22260508E+02</rscale>
<asrwt>0</asrwt>
<pdfrwt beam="1">  1       21 0.23244594E-03 0.22260508E+02</pdfrwt>
<pdfrwt beam="2">  1       21 0.57507935E-01 0.22260508E+02</pdfrwt>
<totfact> 0.74258210E+07</totfact>
</mgrwt>
</event>
<event>
 4    1  0.2761157E+004  0.2814417E+02  0.7546771E-02  0.1619557E+00
         21   -1    0    0  501  502  0.00000000000E+00  0.00000000000E+00  0.82209484184E+02  0.82209484184E+02  0.00000000000E+00 0.  1.
         21   -1    0    0  502  503 -0.00000000000E+00 -0.00000000000E+00 -0.96483891155E+01  0.96483891155E+01  0.00000000000E+00 0. -1.
          2    1    1    2  501    0  0.12371119915E+02  0.25279430881E+02  0.37986932731E+02  0.47276857890E+02  0.00000000000E+00 0.  1.
         -2    1    1    2    0  503 -0.12371119915E+02 -0.25279430881E+02  0.34574162338E+02  0.44581015410E+02  0.00000000000E+00 0. -1.
<mgrwt>
<rscale>  2 0.28144169E+02</rscale>
<asrwt>0</asrwt>
<pdfrwt beam="1">  1       21 0.12647612E-01 0.28144169E+02</pdfrwt>
<pdfrwt beam="2">  1       21 0.14843676E-02 0.28144169E+02</pdfrwt>
<totfact> 0.78240302E+07</totfact>
</mgrwt>
</event>
<event>
 4    1  0.2761157E+004  0.5050232E+02  0.7546771E-02  0.1442651E+00
         21   -1    0    0  503  502  0.00000000000E+00  0.00000000000E+00  0.18192410888E+03  0.18192410888E+03  0.00000000000E+00 0. -1.
         21   -1    0    0  501  503 -0.00000000000E+00 -0.00000000000E+00 -0.20637155632E+02  0.20637155632E+02  0.00000000000E+00 0.  1.
          2    1    1    2  501    0  0.46323206713E+02 -0.20115792441E+02  0.23290805589E+02  0.55614262656E+02  0.00000000000E+00 0.  1.
         -2    1    1    2    0  502 -0.46323206713E+02  0.20115792441E+02  0.13799614766E+03  0.14694700186E+03  0.00000000000E+00 0. -1.
<mgrwt>
<rscale>  2 0.50502323E+02</rscale>
<asrwt>0</asrwt>
<pdfrwt beam="1">  1       21 0.27988323E-01 0.50502323E+02</pdfrwt>
<pdfrwt beam="2">  1       21 0.31749471E-02 0.50502323E+02</pdfrwt>
<totfact> 0.64264633E+06</totfact>
</mgrwt>
</event>
<event>
 4    1  0.2761157E+004  0.2009330E+02  0.7546771E-02  0.1743479E+00
         21   -1    0    0  503  502  0.00000000000E+00  0.00000000000E+00  0.52670204976E+02  0.52670204976E+02  0.00000000000E+00 0.  1.
         21   -1    0    0  501  503 -0.00000000000E+00 -0.00000000000E+00 -0.22487926126E+02  0.22487926126E+02  0.00000000000E+00 0. -1.
          2    1    1    2  501    0 -0.20047375393E+02 -0.13577747820E+01 -0.15418119331E+02  0.25327045154E+02  0.00000000000E+00 0. -1.
         -2    1    1    2    0  502  0.20047375393E+02  0.13577747820E+01  0.45600398181E+02  0.49831085948E+02  0.00000000000E+00 0.  1.
<mgrwt>
<rscale>  2 0.20093303E+02</rscale>
<asrwt>0</asrwt>
<pdfrwt beam="1">  1       21 0.81031084E-02 0.20093303E+02</pdfrwt>
<pdfrwt beam="2">  1       21 0.34596809E-02 0.20093303E+02</pdfrwt>
<totfact> 0.40695484E+07</totfact>
</mgrwt>
</event>
<event>
 4    1  0.2761157E+004  0.2772006E+02  0.7546771E-02  0.1624750E+00
         21   -1    0    0  503  502  0.00000000000E+00  0.00000000000E+00  0.80388113391E+01  0.80388113391E+01  0.00000000000E+00 0. -1.
         21   -1    0    0  501  503 -0.00000000000E+00 -0.00000000000E+00 -0.16993701392E+03  0.16993701392E+03  0.00000000000E+00 0.  1.
          2    1    1    2  501    0  0.66018147131E+01  0.26922443470E+02 -0.13981028434E+03  0.14253181234E+03  0.00000000000E+00 0.  1.
         -2    1    1    2    0  502 -0.66018147131E+01 -0.26922443470E+02 -0.22087918235E+02  0.35444012920E+02  0.00000000000E+00 0. -1.
<mgrwt>
<rscale>  2 0.27720063E+02</rscale>
<asrwt>0</asrwt>
<pdfrwt beam="1">  1       21 0.12367403E-02 0.27720063E+02</pdfrwt>
<pdfrwt beam="2">  1       21 0.26144154E-01 0.27720063E+02</pdfrwt>
<totfact> 0.28988974E+07</totfact>
</mgrwt>
</event>
<event>
 4    1  0.2761157E+004  0.2124370E+02  0.7546771E-02  0.1721670E+00
         21   -1    0    0  501  502  0.00000000000E+00  0.00000000000E+00  0.21057815167E+01  0.21057815167E+01  0.00000000000E+00 0. -1.
         21   -1    0    0  502  503 -0.00000000000E+00 -0.00000000000E+00 -0.87637003967E+03  0.87637003967E+03  0.00000000000E+00 0.  1.
          2    1    1    2  501    0 -0.17769409708E+02 -0.11642279264E+02 -0.55360162569E+02  0.59296224058E+02  0.00000000000E+00 0. -1.
         -2    1    1    2    0  503  0.17769409708E+02  0.11642279264E+02 -0.81890409559E+03  0.81917959713E+03  0.00000000000E+00 0.  1.
<mgrwt>
<rscale>  2 0.21243695E+02</rscale>
<asrwt>0</asrwt>
<pdfrwt beam="1">  1       21 0.32396602E-03 0.21243695E+02</pdfrwt>
<pdfrwt beam="2">  1       21 0.13482631E+00 0.21243695E+02</pdfrwt>
<totfact> 0.73701612E+06</totfact>
</mgrwt>
</event>
<event>
 4    1  0.2761157E+004  0.2379125E+02  0.7546771E-02  0.1678996E+00
         21   -1    0    0  501  502  0.00000000000E+00  0.00000000000E+00  0.69829148446E+02  0.69829148446E+02  0.00000000000E+00 0. -1.
         21   -1    0    0  502  503 -0.00000000000E+00 -0.00000000000E+00 -0.52035096088E+02  0.52035096088E+02  0.00000000000E+00 0.  1.
          2    1    1    2  501    0 -0.58449408213E+01 -0.23062098706E+02  0.64882461728E+02  0.69106856171E+02  0.00000000000E+00 0. -1.
         -2    1    1    2    0  503  0.58449408213E+01  0.23062098706E+02 -0.47088409370E+02  0.52757388363E+02  0.00000000000E+00 0.  1.
<mgrwt>
<rscale>  2 0.23791253E+02</rscale>
<asrwt>0</asrwt>
<pdfrwt beam="1">  1       21 0.10742946E-01 0.23791253E+02</pdfrwt>
<pdfrwt beam="2">  1       21 0.80053994E-02 0.23791253E+02</pdfrwt>
<totfact> 0.69781877E+06</totfact>
</mgrwt>
</event>
<event>
 4    1  0.2761157E+004  0.3818534E+02  0.7546771E-02  0.1522006E+00
         21   -1    0    0  503  502  0.00000000000E+00  0.00000000000E+00  0.29400395168E+03  0.29400395168E+03  0.00000000000E+00 0.  1.
         21   -1    0    0  501  503 -0.00000000000E+00 -0.00000000000E+00 -0.77423583515E+01  0.77423583515E+01  0.00000000000E+00 0. -1.
          2    1    1    2  501    0 -0.32624126058E+02  0.19844064443E+02  0.52678667790E+02  0.65062758432E+02  0.00000000000E+00 0.  1.
         -2    1    1    2    0  502  0.32624126058E+02 -0.19844064443E+02  0.23358292553E+03  0.23668355160E+03  0.00000000000E+00 0. -1.
<mgrwt>
<rscale>  2 0.38185344E+02</rscale>
<asrwt>0</asrwt>
<pdfrwt beam="1">  1       21 0.45231368E-01 0.38185344E+02</pdfrwt>
<pdfrwt beam="2">  1       21 0.11911323E-02 0.38185344E+02</pdfrwt>
<totfact> 0.11581519E+07</totfact>
</mgrwt>
</event>
<event>
 4    1  0.2761157E+004  0.2635106E+02  0.7546771E-02  0.1642322E+00
         21   -1    0    0  501  502  0.00000000000E+00  0.00000000000E+00  0.52595242254E+02  0.52595242254E+02  0.00000000000E+00 0. -1.
         21   -1    0    0  502  503 -0.00000000000E+00 -0.00000000000E+00 -0.20309324785E+02  0.20309324785E+02  0.00000000000E+00 0.  1.
          2    1    1    2  501    0 -0.54337221100E+01  0.25784741129E+02  0.37706539826E+02  0.46001753844E+02  0.00000000000E+00 0. -1.
         -2    1    1    2    0  503  0.54337221100E+01 -0.25784741129E+02 -0.54206223568E+01  0.26902813195E+02  0.00000000000E+00 0.  1.
<mgrwt>
<rscale>  2 0.26351057E+02</rscale>
<asrwt>0</asrwt>
<pdfrwt beam="1">  1       21 0.80915757E-02 0.26351057E+02</pdfrwt>
<pdfrwt beam="2">  1       21 0.31245115E-02 0.26351057E+02</pdfrwt>
<totfact> 0.51219777E+07</totfact>
</mgrwt>
</event>
<event>
 4    1  0.2761157E+004  0.2290964E+02  0.7546771E-02  0.1692979E+00
         21   -1    0    0  501  502  0.00000000000E+00  0.00000000000E+00  0.59987869357E+01  0.59987869357E+01  0.00000000000E+00 0. -1.
         21   -1    0    0  502  503 -0.00000000000E+00 -0.00000000000E+00 -0.25571017245E+03  0.25571017245E+03  0.00000000000E+00 0.  1.
          2    1    1    2  501    0 -0.22033310528E+02  0.62757411974E+01 -0.18722851149E+02  0.29587106238E+02  0.00000000000E+00 0. -1.
         -2    1    1    2    0  503  0.22033310528E+02 -0.62757411974E+01 -0.23098853437E+03  0.23212185315E+03  0.00000000000E+00 0.  1.
<mgrwt>
<rscale>  2 0.22909642E+02</rscale>
<asrwt>0</asrwt>
<pdfrwt beam="1">  1       21 0.92289034E-03 0.22909642E+02</pdfrwt>
<pdfrwt beam="2">  1       21 0.39340025E-01 0.22909642E+02</pdfrwt>
<totfact> 0.20437031E+07</totfact>
</mgrwt>
</event>
<event>
 4    1  0.2761157E+004  0.2304821E+02  0.7546771E-02  0.1690730E+00
         21   -1    0    0  503  502  0.00000000000E+00  0.00000000000E+00  0.65938071858E+01  0.65938071858E+01  0.00000000000E+00 0. -1.
         21   -1    0    0  501  503 -0.00000000000E+00 -0.00000000000E+00 -0.85273580056E+02  0.85273580056E+02  0.00000000000E+00 0.  1.
          2    1    1    2  501    0  0.20736066876E+02  0.10061579000E+02 -0.50135334413E+02  0.55179449056E+02  0.00000000000E+00 0.  1.
         -2    1    1    2    0  502 -0.20736066876E+02 -0.10061579000E+02 -0.28544438457E+02  0.36687938185E+02  0.00000000000E+00 0. -1.
<mgrwt>
<rscale>  2 0.23048207E+02</rscale>
<asrwt>0</asrwt>
<pdfrwt beam="1">  1       21 0.10144319E-02 0.23048207E+02</pdfrwt>
<pdfrwt beam="2">  1       21 0.13119012E-01 0.23048207E+02</pdfrwt>
<totfact> 0.12425163E+08</totfact>
</mgrwt>
</event>
<event>
 4    1  0.2761157E+004  0.2178576E+02  0.7546771E-02  0.1711984E+00
         21   -1    0    0  501  502  0.00000000000E+00  0.00000000000E+00  0.15576874157E+01  0.15576874157E+01  0.00000000000E+00 0.  1.
         21   -1    0    0  502  503 -0.00000000000E+00 -0.00000000000E+00 -0.37026219459E+03  0.37026219459E+03  0.00000000000E+00 0. -1.
          2    1    1    2  501    0 -0.21689679277E+02  0.20438319319E+01 -0.10611897929E+03  0.10833216144E+03  0.00000000000E+00 0.  1.
         -2    1    1    2    0  503  0.21689679277E+02 -0.20438319319E+01 -0.26258552788E+03  0.26348772056E+03  0.00000000000E+00 0. -1.
<mgrwt>
<rscale>  2 0.21785762E+02</rscale>
<asrwt>0</asrwt>
<pdfrwt beam="1">  1       21 0.23964393E-03 0.21785762E+02</pdfrwt>
<pdfrwt beam="2">  1       21 0.56963483E-01 0.21785762E+02</pdfrwt>
<totfact> 0.72014114E+07</totfact>
</mgrwt>
</event>
<event>
 4    1  0.2761157E+004  0.2652971E+02  0.7546771E-02  0.1639955E+00
         21   -1    0    0  501  502  0.00000000000E+00  0.00000000000E+00  0.32466772616E+01  0.32466772616E+01  0.00000000000E+00 0.  1.
         21   -1    0    0  502  503 -0.00000000000E+00 -0.00000000000E+00 -0.23043574563E+03  0.23043574563E+03  0.00000000000E+00 0. -1.
          2    1    1    2  501    0 -0.23819832413E+02 -0.11680797744E+02 -0.85154759441E+02  0.89191695284E+02  0.00000000000E+00 0.  1.
         -2    1    1    2    0  503  0.23819832413E+02  0.11680797744E+02 -0.14203430892E+03  0.14449072760E+03  0.00000000000E+00 0. -1.
<mgrwt>
<rscale>  2 0.26529709E+02</rscale>
<asrwt>0</asrwt>
<pdfrwt beam="1">  1       21 0.49948872E-03 0.26529709E+02</pdfrwt>
<pdfrwt beam="2">  1       21 0.35451659E-01 0.26529709E+02</pdfrwt>
<totfact> 0.64017300E+07</totfact>
</mgrwt>
</event>
<event>
 4    1  0.2761157E+004  0.2677683E+02  0.7546771E-02  0.1636718E+00
         21   -1    0    0  503  502  0.00000000000E+00  0.00000000000E+00  0.56156370850E+02  0.56156370850E+02  0.00000000000E+00 0. -1.
         21   -1    0    0  501  503 -0.00000000000E+00 -0.00000000000E+00 -0.13191015467E+02  0.13191015467E+02  0.00000000000E+00 0.  1.
          2    1    1    2  501    0 -0.18008319274E+01  0.26716204628E+02  0.15272649625E+02  0.30826164405E+02  0.00000000000E+00 0.  1.
         -2    1    1    2    0  502  0.18008319274E+01 -0.26716204628E+02  0.27692705758E+02  0.38521221912E+02  0.00000000000E+00 0. -1.
<mgrwt>
<rscale>  2 0.26776829E+02</rscale>
<asrwt>0</asrwt>
<pdfrwt beam="1">  1       21 0.86394415E-02 0.26776829E+02</pdfrwt>
<pdfrwt beam="2">  1       21 0.20293870E-02 0.26776829E+02</pdfrwt>
<totfact> 0.90334201E+07</totfact>
</mgrwt>
</event>
<event>
 4    1  0.2761157E+004  0.2327302E+02  0.7546771E-02  0.1687122E+00
         21   -1    0    0  501  502  0.00000000000E+00  0.00000000000E+00  0.60740839392E+00  0.60740839392E+00  0.00000000000E+00 0. -1.
         21   -1    0    0  502  503 -0.00000000000E+00 -0.00000000000E+00 -0.15154428192E+04  0.15154428192E+04  0.00000000000E+00 0.  1.
          2    1    1    2  501    0 -0.22031236358E+02  0.75005485056E+01 -0.27110874023E+03  0.27210582984E+03  0.00000000000E+00 0. -1.
         -2    1    1    2    0  503  0.22031236358E+02 -0.75005485056E+01 -0.12437266705E+04  0.12439443977E+04  0.00000000000E+00 0.  1.
<mgrwt>
<rscale>  2 0.23273023E+02</rscale>
<asrwt>0</asrwt>
<pdfrwt beam="1">  1       21 0.93448185E-04 0.23273023E+02</pdfrwt>
<pdfrwt beam="2">  1       21 0.23314320E+00 0.23273023E+02</pdfrwt>
<totfact> 0.11409053E+07</totfact>
</mgrwt>
</event>
<event>
 4    1  0.2761157E+004  0.5181178E+02  0.7546771E-02  0.1435807E+00
         21   -1    0    0  503  502  0.00000000000E+00  0.00000000000E+00  0.52686288458E+02  0.52686288458E+02  0.00000000000E+00 0. -1.
         21   -1    0    0  501  503 -0.00000000000E+00 -0.00000000000E+00 -0.59827133752E+03  0.59827133752E+03  0.00000000000E+00 0.  1.
          2    1    1    2  501    0 -0.24096763533E+02  0.45867270331E+02 -0.58410326628E+03  0.58639669694E+03  0.00000000000E+00 0.  1.
         -2    1    1    2    0  502  0.24096763533E+02 -0.45867270331E+02  0.38518217220E+02  0.64560929038E+02  0.00000000000E+00 0. -1.
<mgrwt>
<rscale>  2 0.51811780E+02</rscale>
<asrwt>0</asrwt>
<pdfrwt beam="1">  1       21 0.81055830E-02 0.51811780E+02</pdfrwt>
<pdfrwt beam="2">  1       21 0.92041742E-01 0.51811780E+02</pdfrwt>
<totfact> 0.12480459E+05</totfact>
</mgrwt>
</event>
<event>
 4    1  0.2761157E+004  0.2499829E+02  0.7546771E-02  0.1661026E+00
         21   -1    0    0  503  502  0.00000000000E+00  0.00000000000E+00  0.16457133009E+02  0.16457133009E+02  0.00000000000E+00 0. -1.
         21   -1    0    0  501  503 -0.00000000000E+00 -0.00000000000E+00 -0.39493731486E+02  0.39493731486E+02  0.00000000000E+00 0.  1.
          2    1    1    2  501    0 -0.24997978372E+02  0.12487521147E+00 -0.17009214945E+02  0.30236201970E+02  0.00000000000E+00 0.  1.
         -2    1    1    2    0  502  0.24997978372E+02 -0.12487521147E+00 -0.60273835324E+01  0.25714662525E+02  0.00000000000E+00 0. -1.
<mgrwt>
<rscale>  2 0.24998290E+02</rscale>
<asrwt>0</asrwt>
<pdfrwt beam="1">  1       21 0.25318667E-02 0.24998290E+02</pdfrwt>
<pdfrwt beam="2">  1       21 0.60759585E-02 0.24998290E+02</pdfrwt>
<totfact> 0.11182207E+08</totfact>
</mgrwt>
</event>
<event>
 4    1  0.2761157E+004  0.2764332E+02  0.7546771E-02  0.1625702E+00
         21   -1    0    0  503  502  0.00000000000E+00  0.00000000000E+00  0.32855143021E+01  0.32855143021E+01  0.00000000000E+00 0. -1.
         21   -1    0    0  501  503 -0.00000000000E+00 -0.00000000000E+00 -0.63796723014E+03  0.63796723014E+03  0.00000000000E+00 0.  1.
          2    1    1    2  501    0  0.16208012312E+01 -0.27595760674E+02 -0.57292492047E+03  0.57359142035E+03  0.00000000000E+00 0.  1.
         -2    1    1    2    0  502 -0.16208012312E+01  0.27595760674E+02 -0.61756795371E+02  0.67661324095E+02  0.00000000000E+00 0. -1.
<mgrwt>
<rscale>  2 0.27643318E+02</rscale>
<asrwt>0</asrwt>
<pdfrwt beam="1">  1       21 0.50546479E-03 0.27643318E+02</pdfrwt>
<pdfrwt beam="2">  1       21 0.98148601E-01 0.27643318E+02</pdfrwt>
<totfact> 0.81419085E+06</totfact>
</mgrwt>
</event>
<event>
 4    1  0.2761157E+004  0.2296894E+02  0.7546771E-02  0.1692014E+00
         21   -1    0    0  503  502  0.00000000000E+00  0.00000000000E+00  0.84717910028E+02  0.84717910028E+02  0.00000000000E+00 0.  1.
         21   -1    0    0  501  503 -0.00000000000E+00 -0.00000000000E+00 -0.65950596182E+01  0.65950596182E+01  0.00000000000E+00 0. -1.
          2    1    1    2  501    0 -0.21028916256E+02  0.92388902781E+01  0.28281509117E+02  0.36433722983E+02  0.00000000000E+00 0. -1.
         -2    1    1    2    0  502  0.21028916256E+02 -0.92388902781E+01  0.49841341293E+02  0.54879246664E+02  0.00000000000E+00 0.  1.
<mgrwt>
<rscale>  2 0.22968945E+02</rscale>
<asrwt>0</asrwt>
<pdfrwt beam="1">  1       21 0.13033524E-01 0.22968945E+02</pdfrwt>
<pdfrwt beam="2">  1       21 0.10146246E-02 0.22968945E+02</pdfrwt>
<totfact> 0.12546677E+08</totfact>
</mgrwt>
</event>
<event>
 4    1  0.2761157E+004  0.2106992E+02  0.7546771E-02  0.1724852E+00
         21   -1    0    0  501  502  0.00000000000E+00  0.00000000000E+00  0.28890028418E+03  0.28890028418E+03  0.00000000000E+00 0. -1.
         21   -1    0    0  502  503 -0.00000000000E+00 -0.00000000000E+00 -0.20763765820E+01  0.20763765820E+01  0.00000000000E+00 0.  1.
          2    1    1    2  501    0 -0.16889606980E+02  0.12596934404E+02  0.21758700975E+03  0.21860477669E+03  0.00000000000E+00 0. -1.
         -2    1    1    2    0  503  0.16889606980E+02 -0.12596934404E+02  0.69236897845E+02  0.72371884068E+02  0.00000000000E+00 0.  1.
<mgrwt>
<rscale>  2 0.21069921E+02</rscale>
<asrwt>0</asrwt>
<pdfrwt beam="1">  1       21 0.44446166E-01 0.21069921E+02</pdfrwt>
<pdfrwt beam="2">  1       21 0.31944278E-03 0.21069921E+02</pdfrwt>
<totfact> 0.76142875E+07</totfact>
</mgrwt>
</event>
<event>
 4    1  0.2761157E+004  0.2530821E+02  0.7546771E-02  0.1656614E+00
         21   -1    0    0  501  502  0.00000000000E+00  0.00000000000E+00  0.32607170837E+03  0.32607170837E+03  0.00000000000E+00 0.  1.
         21   -1    0    0  502  503 -0.00000000000E+00 -0.00000000000E+00 -0.19682926273E+01  0.19682926273E+01  0.00000000000E+00 0. -1.
          2    1    1    2  501    0 -0.13932389263E+02  0.21128034381E+02  0.15467200632E+03  0.15672885774E+03  0.00000000000E+00 0. -1.
         -2    1    1    2    0  503  0.13932389263E+02 -0.21128034381E+02  0.16943140942E+03  0.17131114326E+03  0.00000000000E+00 0.  1.
<mgrwt>
<rscale>  2 0.25308206E+02</rscale>
<asrwt>0</asrwt>
<pdfrwt beam="1">  1       21 0.50164835E-01 0.25308206E+02</pdfrwt>
<pdfrwt beam="2">  1       21 0.30281451E-03 0.25308206E+02</pdfrwt>
<totfact> 0.68207141E+07</totfact>
</mgrwt>
</event>
<event>
 4    1  0.2761157E+004  0.2847587E+02  0.7546771E-02  0.1615574E+00
         21   -1    0    0  503  502  0.00000000000E+00  0.00000000000E+00  0.18753525897E+04  0.18753525897E+04  0.00000000000E+00 0. -1.
         21   -1    0    0  501  503 -0.00000000000E+00 -0.00000000000E+00 -0.43240554291E+00  0.43240554291E+00  0.00000000000E+00 0.  1.
          2    1    1    2  501    0  0.27552335053E+02 -0.71933355321E+01  0.94384754306E+03  0.94427700374E+03  0.00000000000E+00 0.  1.
         -2    1    1    2    0  502 -0.27552335053E+02  0.71933355321E+01  0.93107264111E+03  0.93150799152E+03  0.00000000000E+00 0. -1.
<mgrwt>
<rscale>  2 0.28475871E+02</rscale>
<asrwt>0</asrwt>
<pdfrwt beam="1">  1       21 0.28850927E+00 0.28475871E+02</pdfrwt>
<pdfrwt beam="2">  1       21 0.66525431E-04 0.28475871E+02</pdfrwt>
<totfact> 0.99149538E+06</totfact>
</mgrwt>
</event>
<event>
 4    1  0.2761157E+004  0.2008197E+02  0.7546771E-02  0.1743703E+00
         21   -1    0    0  501  502  0.00000000000E+00  0.00000000000E+00  0.59342976920E+02  0.59342976920E+02  0.00000000000E+00 0.  1.
         21   -1    0    0  502  503 -0.00000000000E+00 -0.00000000000E+00 -0.70238764342E+01  0.70238764342E+01  0.00000000000E+00 0. -1.
          2    1    1    2  501    0  0.16269110940E+02 -0.11772923773E+02  0.32138565290E+02  0.37896874328E+02  0.00000000000E+00 0.  1.
         -2    1    1    2    0  503 -0.16269110940E+02  0.11772923773E+02  0.20180535196E+02  0.28469979026E+02  0.00000000000E+00 0. -1.
<mgrwt>
<rscale>  2 0.20081975E+02</rscale>
<asrwt>0</asrwt>
<pdfrwt beam="1">  1       21 0.91296884E-02 0.20081975E+02</pdfrwt>
<pdfrwt beam="2">  1       21 0.10805964E-02 0.20081975E+02</pdfrwt>
<totfact> 0.19775599E+08</totfact>
</mgrwt>
</event>
<event>
 4    1  0.2761157E+004  0.2113676E+02  0.7546771E-02  0.1723624E+00
         21   -1    0    0  501  502  0.00000000000E+00  0.00000000000E+00  0.34556738915E+02  0.34556738915E+02  0.00000000000E+00 0.  1.
         21   -1    0    0  502  503 -0.00000000000E+00 -0.00000000000E+00 -0.13734638439E+02  0.13734638439E+02  0.00000000000E+00 0. -1.
          2    1    1    2  501    0  0.10296543864E+02  0.18459247843E+02  0.16261215881E+02  0.26668141825E+02  0.00000000000E+00 0.  1.
         -2    1    1    2    0  503 -0.10296543864E+02 -0.18459247843E+02  0.45608845956E+01  0.21623235529E+02  0.00000000000E+00 0. -1.
<mgrwt>
<rscale>  2 0.21136761E+02</rscale>
<asrwt>0</asrwt>
<pdfrwt beam="1">  1       21 0.53164213E-02 0.21136761E+02</pdfrwt>
<pdfrwt beam="2">  1       21 0.21130213E-02 0.21136761E+02</pdfrwt>
<totfact> 0.17409172E+08</totfact>
</mgrwt>
</event>
<event>
 4    1  0.2761157E+004  0.6011258E+02  0.7546771E-02  0.1397360E+00
         21   -1    0    0  501  502  0.00000000000E+00  0.00000000000E+00  0.30858863787E+02  0.30858863787E+02  0.00000000000E+00 0. -1.
         21   -1    0    0  502  503 -0.00000000000E+00 -0.00000000000E+00 -0.15580103398E+03  0.15580103398E+03  0.00000000000E+00 0.  1.
          2    1    1    2  501    0 -0.55938680015E+02 -0.22008791504E+02 -0.15954667798E+02  0.62193844148E+02  0.00000000000E+00 0. -1.
         -2    1    1    2    0  503  0.55938680015E+02  0.22008791504E+02 -0.10898750239E+03  0.12446605362E+03  0.00000000000E+00 0.  1.
<mgrwt>
<rscale>  2 0.60112585E+02</rscale>
<asrwt>0</asrwt>
<pdfrwt beam="1">  1       21 0.47475176E-02 0.60112585E+02</pdfrwt>
<pdfrwt beam="2">  1       21 0.23969390E-01 0.60112585E+02</pdfrwt>
<totfact> 0.45288599E+06</totfact>
</mgrwt>
</event>
<event>
 4    1  0.2761157E+004  0.2535369E+02  0.7546771E-02  0.1655973E+00
         21   -1    0    0  503  502  0.00000000000E+00  0.00000000000E+00  0.30237743053E+01  0.30237743053E+01  0.00000000000E+00 0.  1.
         21   -1    0    0  501  503 -0.00000000000E+00 -0.00000000000E+00 -0.25316996481E+03  0.25316996481E+03  0.00000000000E+00 0. -1.
          2    1    1    2  501    0 -0.21083744616E+02  0.14081374862E+02 -0.17636093460E+03  0.17817404036E+03  0.00000000000E+00 0. -1.
         -2    1    1    2    0  502  0.21083744616E+02 -0.14081374862E+02 -0.73785255904E+02  0.78019698755E+02  0.00000000000E+00 0.  1.
<mgrwt>
<rscale>  2 0.25353686E+02</rscale>
<asrwt>0</asrwt>
<pdfrwt beam="1">  1       21 0.46519608E-03 0.25353686E+02</pdfrwt>
<pdfrwt beam="2">  1       21 0.38949222E-01 0.25353686E+02</pdfrwt>
<totfact> 0.58999702E+07</totfact>
</mgrwt>
</event>
<event>
 4    1  0.2761157E+004  0.2834922E+02  0.7546771E-02  0.1617087E+00
         21   -1    0    0  501  502  0.00000000000E+00  0.00000000000E+00  0.62687991381E+01  0.62687991381E+01  0.00000000000E+00 0. -1.
         21   -1    0    0  502  503 -0.00000000000E+00 -0.00000000000E+00 -0.58145780540E+03  0.58145780540E+03  0.00000000000E+00 0.  1.
          2    1    1    2  501    0  0.26218758740E+02  0.10782146482E+02 -0.28142202048E+02  0.39945732297E+02  0.00000000000E+00 0. -1.
         -2    1    1    2    0  503 -0.26218758740E+02 -0.10782146482E+02 -0.54704680422E+03  0.54778087224E+03  0.00000000000E+00 0.  1.
<mgrwt>
<rscale>  2 0.28349215E+02</rscale>
<asrwt>0</asrwt>
<pdfrwt beam="1">  1       21 0.96443018E-03 0.28349215E+02</pdfrwt>
<pdfrwt beam="2">  1       21 0.89455090E-01 0.28349215E+02</pdfrwt>
<totfact> 0.37991788E+06</totfact>
</mgrwt>
</event>
<event>
 4    1  0.2761157E+004  0.2008384E+02  0.7546771E-02  0.1743666E+00
         21   -1    0    0  503  502  0.00000000000E+00  0.00000000000E+00  0.38157370353E+01  0.38157370353E+01  0.00000000000E+00 0.  1.
         21   -1    0    0  501  503 -0.00000000000E+00 -0.00000000000E+00 -0.14134890104E+03  0.14134890104E+03  0.00000000000E+00 0. -1.
          2    1    1    2  501    0 -0.13676550557E+02  0.14707567460E+02 -0.10521245425E+03  0.10711218934E+03  0.00000000000E+00 0. -1.
         -2    1    1    2    0  502  0.13676550557E+02 -0.14707567460E+02 -0.32320709750E+02  0.38052448732E+02  0.00000000000E+00 0.  1.
<mgrwt>
<rscale>  2 0.20083839E+02</rscale>
<asrwt>0</asrwt>
<pdfrwt beam="1">  1       21 0.58703656E-03 0.20083839E+02</pdfrwt>
<pdfrwt beam="2">  1       21 0.21745981E-01 0.20083839E+02</pdfrwt>
<totfact> 0.11323846E+08</totfact>
</mgrwt>
</event>
<event>
 4    1  0.2761157E+004  0.2022716E+02  0.7546771E-02  0.1740848E+00
         21   -1    0    0  501  502  0.00000000000E+00  0.00000000000E+00  0.23080319069E+03  0.23080319069E+03  0.00000000000E+00 0.  1.
         21   -1    0    0  502  503 -0.00000000000E+00 -0.00000000000E+00 -0.18672879095E+01  0.18672879095E+01  0.00000000000E+00 0. -1.
          2    1    1    2  501    0 -0.40408640608E+01  0.19819416903E+02  0.88280541195E+02  0.90568161196E+02  0.00000000000E+00 0.  1.
         -2    1    1    2    0  503  0.40408640608E+01 -0.19819416903E+02  0.14065536158E+03  0.14210231740E+03  0.00000000000E+00 0. -1.
<mgrwt>
<rscale>  2 0.20227157E+02</rscale>
<asrwt>0</asrwt>
<pdfrwt beam="1">  1       21 0.35508161E-01 0.20227157E+02</pdfrwt>
<pdfrwt beam="2">  1       21 0.28727525E-03 0.20227157E+02</pdfrwt>
<totfact> 0.13378595E+08</totfact>
</mgrwt>
</event>
<event>
 4    1  0.2761157E+004  0.2213926E+02  0.7546771E-02  0.1705855E+00
         21   -1    0    0  503  502  0.00000000000E+00  0.00000000000E+00  0.18093891987E+03  0.18093891987E+03  0.00000000000E+00 0.  1.
         21   -1    0    0  501  503 -0.00000000000E+00 -0.00000000000E+00 -0.27971099258E+01  0.27971099258E+01  0.00000000000E+00 0. -1.
          2    1    1    2  501    0  0.21453827792E+02 -0.54662512492E+01  0.72757218637E+02  0.76051032165E+02  0.00000000000E+00 0. -1.
         -2    1    1    2    0  502 -0.21453827792E+02  0.54662512492E+01  0.10538459130E+03  0.10768499763E+03  0.00000000000E+00 0.  1.
<mgrwt>
<rscale>  2 0.22139255E+02</rscale>
<asrwt>0</asrwt>
<pdfrwt beam="1">  1       21 0.27836748E-01 0.22139255E+02</pdfrwt>
<pdfrwt beam="2">  1       21 0.43032475E-03 0.22139255E+02</pdfrwt>
<totfact> 0.11864403E+08</totfact>
</mgrwt>
</event>
<event>
 4    1  0.2761157E+004  0.2357504E+02  0.7546771E-02  0.1682355E+00
         21   -1    0    0  501  502  0.00000000000E+00  0.00000000000E+00  0.28389437882E+01  0.28389437882E+01  0.00000000000E+00 0.  1.
         21   -1    0    0  502  503 -0.00000000000E+00 -0.00000000000E+00 -0.20277649809E+03  0.20277649809E+03  0.00000000000E+00 0. -1.
          2    1    1    2  501    0 -0.74366123634E+01 -0.22371396921E+02 -0.80859719157E+02  0.84226342588E+02  0.00000000000E+00 0. -1.
         -2    1    1    2    0  503  0.74366123634E+01  0.22371396921E+02 -0.11907783515E+03  0.12138909929E+03  0.00000000000E+00 0.  1.
<mgrwt>
<rscale>  2 0.23575042E+02</rscale>
<asrwt>0</asrwt>
<pdfrwt beam="1">  1       21 0.43676055E-03 0.23575042E+02</pdfrwt>
<pdfrwt beam="2">  1       21 0.31196387E-01 0.23575042E+02</pdfrwt>
<totfact> 0.96027984E+07</totfact>
</mgrwt>
</event>
<event>
 4    1  0.2761157E+004  0.5382321E+02  0.7546771E-02  0.1425747E+00
         21   -1    0    0  503  502  0.00000000000E+00  0.00000000000E+00  0.28697266656E+03  0.28697266656E+03  0.00000000000E+00 0.  1.
         21   -1    0    0  501  503 -0.00000000000E+00 -0.00000000000E+00 -0.32360983391E+02  0.32360983391E+02  0.00000000000E+00 0. -1.
          2    1    1    2  501    0  0.28114555682E+02  0.45896729620E+02 -0.51363958183E+01  0.54067740780E+02  0.00000000000E+00 0. -1.
         -2    1    1    2    0  502 -0.28114555682E+02 -0.45896729620E+02  0.25974807899E+03  0.26526590918E+03  0.00000000000E+00 0.  1.
<mgrwt>
<rscale>  2 0.53823211E+02</rscale>
<asrwt>0</asrwt>
<pdfrwt beam="1">  1       21 0.44149639E-01 0.53823211E+02</pdfrwt>
<pdfrwt beam="2">  1       21 0.49786130E-02 0.53823211E+02</pdfrwt>
<totfact> 0.13015871E+06</totfact>
</mgrwt>
</event>
<event>
 4    1  0.2761157E+004  0.2912431E+02  0.7546771E-02  0.1607975E+00
         21   -1    0    0  501  502  0.00000000000E+00  0.00000000000E+00  0.20797374053E+02  0.20797374053E+02  0.00000000000E+00 0.  1.
         21   -1    0    0  502  503 -0.00000000000E+00 -0.00000000000E+00 -0.49612774457E+02  0.49612774457E+02  0.00000000000E+00 0. -1.
          2    1    1    2  501    0 -0.14902434890E+02  0.25022851253E+02  0.44236990567E+00  0.29127673124E+02  0.00000000000E+00 0.  1.
         -2    1    1    2    0  503  0.14902434890E+02 -0.25022851253E+02 -0.29257770310E+02  0.41282475386E+02  0.00000000000E+00 0. -1.
<mgrwt>
<rscale>  2 0.29124314E+02</rscale>
<asrwt>0</asrwt>
<pdfrwt beam="1">  1       21 0.31995961E-02 0.29124314E+02</pdfrwt>
<pdfrwt beam="2">  1       21 0.76327344E-02 0.29124314E+02</pdfrwt>
<totfact> 0.55612653E+07</totfact>
</mgrwt>
</event>
<event>
 4    1  0.2761157E+004  0.2122569E+02  0.7546771E-02  0.1721998E+00
         21   -1    0    0  501  502  0.00000000000E+00  0.00000000000E+00  0.10239759659E+02  0.10239759659E+02  0.00000000000E+00 0.  1.
         21   -1    0    0  502  503 -0.00000000000E+00 -0.00000000000E+00 -0.57824528113E+02  0.57824528113E+02  0.00000000000E+00 0. -1.
          2    1    1    2  501    0  0.24214113233E+01  0.21087125696E+02 -0.71510533634E+01  0.22397938903E+02  0.00000000000E+00 0. -1.
         -2    1    1    2    0  503 -0.24214113233E+01 -0.21087125696E+02 -0.40433715091E+02  0.45666348869E+02  0.00000000000E+00 0.  1.
<mgrwt>
<rscale>  2 0.21225694E+02</rscale>
<asrwt>0</asrwt>
<pdfrwt beam="1">  1       21 0.15753476E-02 0.21225694E+02</pdfrwt>
<pdfrwt beam="2">  1       21 0.88960812E-02 0.21225694E+02</pdfrwt>
<totfact> 0.11890742E+08</totfact>
</mgrwt>
</event>
<event>
 4    1  0.2761157E+004  0.2305415E+02  0.7546771E-02  0.1690634E+00
         21   -1    0    0  501  502  0.00000000000E+00  0.00000000000E+00  0.79120415509E+03  0.79120415509E+03  0.00000000000E+00 0. -1.
         21   -1    0    0  502  503 -0.00000000000E+00 -0.00000000000E+00 -0.68354945753E+00  0.68354945753E+00  0.00000000000E+00 0.  1.
          2    1    1    2  501    0  0.22742694105E+02  0.37767440279E+01  0.44727434186E+03  0.44786809533E+03  0.00000000000E+00 0.  1.
         -2    1    1    2    0  503 -0.22742694105E+02 -0.37767440279E+01  0.34324626377E+03  0.34401960921E+03  0.00000000000E+00 0. -1.
<mgrwt>
<rscale>  2 0.23054152E+02</rscale>
<asrwt>0</asrwt>
<pdfrwt beam="1">  1       21 0.12172298E+00 0.23054152E+02</pdfrwt>
<pdfrwt beam="2">  1       21 0.10516209E-03 0.23054152E+02</pdfrwt>
<totfact> 0.47764026E+07</totfact>
</mgrwt>
</event>
<event>
 4    1  0.2761157E+004  0.2002328E+02  0.7546771E-02  0.1744866E+00
         21   -1    0    0  503  502  0.00000000000E+00  0.00000000000E+00  0.48726321764E+02  0.48726321764E+02  0.00000000000E+00 0.  1.
         21   -1    0    0  501  503 -0.00000000000E+00 -0.00000000000E+00 -0.60181380048E+02  0.60181380048E+02  0.00000000000E+00 0. -1.
          2    1    1    2  501    0 -0.87249183856E+01 -0.18022413226E+02 -0.56322045912E+02  0.59775450103E+02  0.00000000000E+00 0. -1.
         -2    1    1    2    0  502  0.87249183856E+01  0.18022413226E+02  0.44866987627E+02  0.49132251709E+02  0.00000000000E+00 0.  1.
<mgrwt>
<rscale>  2 0.20023276E+02</rscale>
<asrwt>0</asrwt>
<pdfrwt beam="1">  1       21 0.74963572E-02 0.20023276E+02</pdfrwt>
<pdfrwt beam="2">  1       21 0.92586738E-02 0.20023276E+02</pdfrwt>
<totfact> 0.96037037E+06</totfact>
</mgrwt>
</event>
<event>
 4    1  0.2761157E+004  0.2539257E+02  0.7546771E-02  0.1655426E+00
         21   -1    0    0  503  502  0.00000000000E+00  0.00000000000E+00  0.15793179609E+03  0.15793179609E+03  0.00000000000E+00 0.  1.
         21   -1    0    0  501  503 -0.00000000000E+00 -0.00000000000E+00 -0.80662281829E+01  0.80662281829E+01  0.00000000000E+00 0. -1.
          2    1    1    2  501    0  0.73448750927E+01 -0.24307110655E+02  0.16605271270E+02  0.30340037120E+02  0.00000000000E+00 0. -1.
         -2    1    1    2    0  502 -0.73448750927E+01  0.24307110655E+02  0.13326029663E+03  0.13565798715E+03  0.00000000000E+00 0.  1.
<mgrwt>
<rscale>  2 0.25392574E+02</rscale>
<asrwt>0</asrwt>
<pdfrwt beam="1">  1       21 0.24297197E-01 0.25392574E+02</pdfrwt>
<pdfrwt beam="2">  1       21 0.12409583E-02 0.25392574E+02</pdfrwt>
<totfact> 0.32293639E+07</totfact>
</mgrwt>
</event>
<event>
 4    1  0.2761157E+004  0.2916798E+02  0.7546771E-02  0.1607472E+00
         21   -1    0    0  501  502  0.00000000000E+00  0.00000000000E+00  0.11920547981E+03  0.11920547981E+03  0.00000000000E+00 0. -1.
         21   -1    0    0  502  503 -0.00000000000E+00 -0.00000000000E+00 -0.22652748894E+02  0.22652748894E+02  0.00000000000E+00 0.  1.
          2    1    1    2  501    0  0.15537227711E+02 -0.24685336952E+02  0.10697800645E+03  0.11088311490E+03  0.00000000000E+00 0. -1.
         -2    1    1    2    0  503 -0.15537227711E+02  0.24685336952E+02 -0.10425275533E+02  0.30975113807E+02  0.00000000000E+00 0.  1.
<mgrwt>
<rscale>  2 0.29167984E+02</rscale>
<asrwt>0</asrwt>
<pdfrwt beam="1">  1       21 0.18339304E-01 0.29167984E+02</pdfrwt>
<pdfrwt beam="2">  1       21 0.34850384E-02 0.29167984E+02</pdfrwt>
<totfact> 0.11039447E+07</totfact>
</mgrwt>
</event>
<event>
 4    1  0.2761157E+004  0.3416986E+02  0.7546771E-02  0.1556098E+00
         21   -1    0    0  501  502  0.00000000000E+00  0.00000000000E+00  0.27112141708E+03  0.27112141708E+03  0.00000000000E+00 0.  1.
         21   -1    0    0  502  503 -0.00000000000E+00 -0.00000000000E+00 -0.19672039657E+02  0.19672039657E+02  0.00000000000E+00 0. -1.
          2    1    1    2  501    0  0.32834493900E+02 -0.94591581366E+01  0.25422497456E+03  0.25651104723E+03  0.00000000000E+00 0.  1.
         -2    1    1    2    0  503 -0.32834493900E+02  0.94591581366E+01 -0.27755971320E+01  0.34282409509E+02  0.00000000000E+00 0. -1.
<mgrwt>
<rscale>  2 0.34169865E+02</rscale>
<asrwt>0</asrwt>
<pdfrwt beam="1">  1       21 0.41710984E-01 0.34169865E+02</pdfrwt>
<pdfrwt beam="2">  1       21 0.30264678E-02 0.34169865E+02</pdfrwt>
<totfact> 0.31335743E+06</totfact>
</mgrwt>
</event>
<event>
 4    1  0.2761157E+004  0.3115723E+02  0.7546771E-02  0.1585638E+00
         21   -1    0    0  503  502  0.00000000000E+00  0.00000000000E+00  0.39275308621E+01  0.39275308621E+01  0.00000000000E+00 0.  1.
         21   -1    0    0  501  503 -0.00000000000E+00 -0.00000000000E+00 -0.31619522012E+03  0.31619522012E+03  0.00000000000E+00 0. -1.
          2    1    1    2  501    0  0.28444745453E+02  0.12714936983E+02 -0.23091781156E+03  0.23301031922E+03  0.00000000000E+00 0.  1.
         -2    1    1    2    0  502 -0.28444745453E+02 -0.12714936983E+02 -0.81349877696E+02  0.87112431763E+02  0.00000000000E+00 0. -1.
<mgrwt>
<rscale>  2 0.31157233E+02</rscale>
<asrwt>0</asrwt>
<pdfrwt beam="1">  1       21 0.60423531E-03 0.31157233E+02</pdfrwt>
<pdfrwt beam="2">  1       21 0.48645435E-01 0.31157233E+02</pdfrwt>
<totfact> 0.27208770E+07</totfact>
</mgrwt>
</event>
<event>
 4    1  0.2761157E+004  0.2112730E+02  0.7546771E-02  0.1723797E+00
         21   -1    0    0  503  502  0.00000000000E+00  0.00000000000E+00  0.49074033784E+03  0.49074033784E+03  0.00000000000E+00 0. -1.
         21   -1    0    0  501  503 -0.00000000000E+00 -0.00000000000E+00 -0.13253437589E+01  0.13253437589E+01  0.00000000000E+00 0.  1.
          2    1    1    2  501    0 -0.35073717946E+01  0.20834138591E+02  0.10690501733E+03  0.10897268336E+03  0.00000000000E+00 0.  1.
         -2    1    1    2    0  502  0.35073717946E+01 -0.20834138591E+02  0.38250997675E+03  0.38309299824E+03  0.00000000000E+00 0. -1.
<mgrwt>
<rscale>  2 0.21127304E+02</rscale>
<asrwt>0</asrwt>
<pdfrwt beam="1">  1       21 0.75498369E-01 0.21127304E+02</pdfrwt>
<pdfrwt beam="2">  1       21 0.20389943E-03 0.21127304E+02</pdfrwt>
<totfact> 0.51053383E+07</totfact>
</mgrwt>
</event>
<event>
 4    1  0.2761157E+004  0.2564412E+02  0.7546771E-02  0.1651919E+00
         21   -1    0    0  501  502  0.00000000000E+00  0.00000000000E+00  0.30958279242E+01  0.30958279242E+01  0.00000000000E+00 0. -1.
         21   -1    0    0  502  503 -0.00000000000E+00 -0.00000000000E+00 -0.21244023789E+03  0.21244023789E+03  0.00000000000E+00 0.  1.
          2    1    1    2  501    0  0.47968287972E+00  0.25639633162E+02 -0.10568019055E+03  0.10874706231E+03  0.00000000000E+00 0. -1.
         -2    1    1    2    0  503 -0.47968287972E+00 -0.25639633162E+02 -0.10366421941E+03  0.10678900351E+03  0.00000000000E+00 0.  1.
<mgrwt>
<rscale>  2 0.25644120E+02</rscale>
<asrwt>0</asrwt>
<pdfrwt beam="1">  1       21 0.47628131E-03 0.25644120E+02</pdfrwt>
<pdfrwt beam="2">  1       21 0.32683107E-01 0.25644120E+02</pdfrwt>
<totfact> 0.79242527E+07</totfact>
</mgrwt>
</event>
<event>
 4    1  0.2761157E+004  0.2516568E+02  0.7546771E-02  0.1658634E+00
         21   -1    0    0  503  502  0.00000000000E+00  0.00000000000E+00  0.32587053108E+03  0.32587053108E+03  0.00000000000E+00 0. -1.
         21   -1    0    0  501  503 -0.00000000000E+00 -0.00000000000E+00 -0.54848291980E+01  0.54848291980E+01  0.00000000000E+00 0.  1.
          2    1    1    2  501    0  0.13268928782E+02  0.21383330091E+02  0.27064973785E+02  0.36957057280E+02  0.00000000000E+00 0.  1.
         -2    1    1    2    0  502 -0.13268928782E+02 -0.21383330091E+02  0.29332072809E+03  0.29439830299E+03  0.00000000000E+00 0. -1.
<mgrwt>
<rscale>  2 0.25165677E+02</rscale>
<asrwt>0</asrwt>
<pdfrwt beam="1">  1       21 0.50133913E-01 0.25165677E+02</pdfrwt>
<pdfrwt beam="2">  1       21 0.84382013E-03 0.25165677E+02</pdfrwt>
<totfact> 0.14964733E+07</totfact>
</mgrwt>
</event>
<event>
 4    1  0.2761157E+004  0.2453664E+02  0.7546771E-02  0.1667748E+00
         21   -1    0    0  501  502  0.00000000000E+00  0.00000000000E+00  0.22825487805E+03  0.22825487805E+03  0.00000000000E+00 0.  1.
         21   -1    0    0  502  503 -0.00000000000E+00 -0.00000000000E+00 -0.31960040405E+01  0.31960040405E+01  0.00000000000E+00 0. -1.
          2    1    1    2  501    0 -0.16640988558E+02 -0.18031194502E+02  0.16090177295E+03  0.16276187211E+03  0.00000000000E+00 0.  1.
         -2    1    1    2    0  503  0.16640988558E+02  0.18031194502E+02  0.64157101064E+02  0.68689009982E+02  0.00000000000E+00 0. -1.
<mgrwt>
<rscale>  2 0.24536635E+02</rscale>
<asrwt>0</asrwt>
<pdfrwt beam="1">  1       21 0.35116122E-01 0.24536635E+02</pdfrwt>
<pdfrwt beam="2">  1       21 0.49169311E-03 0.24536635E+02</pdfrwt>
<totfact> 0.65495051E+07</totfact>
</mgrwt>
</event>
<event>
 4    1  0.2761157E+004  0.2106595E+02  0.7546771E-02  0.1724925E+00
         21   -1    0    0  501  502  0.00000000000E+00  0.00000000000E+00  0.48106959098E+02  0.48106959098E+02  0.00000000000E+00 0. -1.
         21   -1    0    0  502  503 -0.00000000000E+00 -0.00000000000E+00 -0.10027537325E+02  0.10027537325E+02  0.00000000000E+00 0.  1.
          2    1    1    2  501    0 -0.16871035071E+02 -0.12615171642E+02  0.27264194989E+02  0.34454472980E+02  0.00000000000E+00 0. -1.
         -2    1    1    2    0  503  0.16871035071E+02  0.12615171642E+02  0.10815226784E+02  0.23680023444E+02  0.00000000000E+00 0.  1.
<mgrwt>
<rscale>  2 0.21065953E+02</rscale>
<asrwt>0</asrwt>
<pdfrwt beam="1">  1       21 0.74010705E-02 0.21065953E+02</pdfrwt>
<pdfrwt beam="2">  1       21 0.15426981E-02 0.21065953E+02</pdfrwt>
<totfact> 0.16521075E+08</totfact>
</mgrwt>
</event>
<event>
 4    1  0.2761157E+004  0.2515373E+02  0.7546771E-02  0.1658804E+00
         21   -1    0    0  501  502  0.00000000000E+00  0.00000000000E+00  0.13596803585E+04  0.13596803585E+04  0.00000000000E+00 0. -1.
         21   -1    0    0  502  503 -0.00000000000E+00 -0.00000000000E+00 -0.61826902070E+00  0.61826902070E+00  0.00000000000E+00 0.  1.
          2    1    1    2  501    0  0.17936358118E+02  0.17635117971E+02  0.10178014098E+04  0.10181121844E+04  0.00000000000E+00 0. -1.
         -2    1    1    2    0  503 -0.17936358118E+02 -0.17635117971E+02  0.34126067974E+03  0.34218644313E+03  0.00000000000E+00 0.  1.
<mgrwt>
<rscale>  2 0.25153734E+02</rscale>
<asrwt>0</asrwt>
<pdfrwt beam="1">  1       21 0.20917920E+00 0.25153734E+02</pdfrwt>
<pdfrwt beam="2">  1       21 0.95119399E-04 0.25153734E+02</pdfrwt>
<totfact> 0.15015633E+07</totfact>
</mgrwt>
</event>
<event>
 4    1  0.2761157E+004  0.2010514E+02  0.7546771E-02  0.1743245E+00
         21   -1    0    0  503  502  0.00000000000E+00  0.00000000000E+00  0.12338353161E+02  0.12338353161E+02  0.00000000000E+00 0. -1.
         21   -1    0    0  501  503 -0.00000000000E+00 -0.00000000000E+00 -0.58293057844E+02  0.58293057844E+02  0.00000000000E+00 0.  1.
          2    1    1    2  501    0  0.12638055438E+02  0.15636368998E+02 -0.46349713548E+02  0.50522395298E+02  0.00000000000E+00 0.  1.
         -2    1    1    2    0  502 -0.12638055438E+02 -0.15636368998E+02  0.39500886533E+00  0.20109015706E+02  0.00000000000E+00 0. -1.
<mgrwt>
<rscale>  2 0.20105136E+02</rscale>
<asrwt>0</asrwt>
<pdfrwt beam="1">  1       21 0.18982082E-02 0.20105136E+02</pdfrwt>
<pdfrwt beam="2">  1       21 0.89681627E-02 0.20105136E+02</pdfrwt>
<totfact> 0.86974709E+07</totfact>
</mgrwt>
</event>
<event>
 4    1  0.2761157E+004  0.2560708E+02  0.7546771E-02  0.1652432E+00
         21   -1    0    0  501  502  0.00000000000E+00  0.00000000000E+00  0.27779820445E+01  0.27779820445E+01  0.00000000000E+00 0.  1.
         21   -1    0    0  502  503 -0.00000000000E+00 -0.00000000000E+00 -0.24038886789E+03  0.24038886789E+03  0.00000000000E+00 0. -1.
          2    1    1    2  501    0  0.22227082654E+02 -0.12715324320E+02 -0.10245742267E+03  0.10560893019E+03  0.00000000000E+00 0.  1.
         -2    1    1    2    0  503 -0.22227082654E+02  0.12715324320E+02 -0.13515346317E+03  0.13755791974E+03  0.00000000000E+00 0. -1.
<mgrwt>
<rscale>  2 0.25607083E+02</rscale>
<asrwt>0</asrwt>
<pdfrwt beam="1">  1       21 0.42738183E-03 0.25607083E+02</pdfrwt>
<pdfrwt beam="2">  1       21 0.36982905E-01 0.25607083E+02</pdfrwt>
<totfact> 0.73869992E+07</totfact>
</mgrwt>
</event>
<event>
 4    1  0.2761157E+004  0.2366350E+02  0.7546771E-02  0.1680975E+00
         21   -1    0    0  503  502  0.00000000000E+00  0.00000000000E+00  0.77577845873E+03  0.77577845873E+03  0.00000000000E+00 0.  1.
         21   -1    0    0  501  503 -0.00000000000E+00 -0.00000000000E+00 -0.11131844133E+01  0.11131844133E+01  0.00000000000E+00 0. -1.
          2    1    1    2  501    0 -0.21400024035E+02  0.10099517480E+02  0.15700528296E+03  0.15877852550E+03  0.00000000000E+00 0. -1.
         -2    1    1    2    0  502  0.21400024035E+02 -0.10099517480E+02  0.61765999136E+03  0.61811311765E+03  0.00000000000E+00 0.  1.
<mgrwt>
<rscale>  2 0.23663501E+02</rscale>
<asrwt>0</asrwt>
<pdfrwt beam="1">  1       21 0.11935010E+00 0.23663501E+02</pdfrwt>
<pdfrwt beam="2">  1       21 0.17125976E-03 0.23663501E+02</pdfrwt>
<totfact> 0.24966548E+07</totfact>
</mgrwt>
</event>
<event>
 4    1  0.2761157E+004  0.2648658E+02  0.7546771E-02  0.1640524E+00
         21   -1    0    0  503  502  0.00000000000E+00  0.00000000000E+00  0.55900860482E+01  0.55900860482E+01  0.00000000000E+00 0.  1.
         21   -1    0    0  501  503 -0.00000000000E+00 -0.00000000000E+00 -0.48961154472E+03  0.48961154472E+03  0.00000000000E+00 0. -1.
          2    1    1    2  501    0 -0.22012679031E+02  0.14730269169E+02 -0.45553403117E+03  0.45630339953E+03  0.00000000000E+00 0. -1.
         -2    1    1    2    0  502  0.22012679031E+02 -0.14730269169E+02 -0.28487427505E+02  0.38898231242E+02  0.00000000000E+00 0.  1.
<mgrwt>
<rscale>  2 0.26486579E+02</rscale>
<asrwt>0</asrwt>
<pdfrwt beam="1">  1       21 0.86001310E-03 0.26486579E+02</pdfrwt>
<pdfrwt beam="2">  1       21 0.75324866E-01 0.26486579E+02</pdfrwt>
<totfact> 0.64484416E+06</totfact>
</mgrwt>
</event>
<event>
 4    1  0.2761157E+004  0.2315228E+02  0.7546771E-02  0.1689053E+00
         21   -1    0    0  503  502  0.00000000000E+00  0.00000000000E+00  0.38902389331E+02  0.38902389331E+02  0.00000000000E+00 0.  1.
         21   -1    0    0  501  503 -0.00000000000E+00 -0.00000000000E+00 -0.15901434047E+02  0.15901434047E+02  0.00000000000E+00 0. -1.
          2    1    1    2  501    0  0.10340827630E+02  0.20714622303E+02  0.14889547477E+01  0.23200113781E+02  0.00000000000E+00 0. -1.
         -2    1    1    2    0  502 -0.10340827630E+02 -0.20714622303E+02  0.21512000536E+02  0.31603709597E+02  0.00000000000E+00 0.  1.
<mgrwt>
<rscale>  2 0.23152285E+02</rscale>
<asrwt>0</asrwt>
<pdfrwt beam="1">  1       21 0.59849830E-02 0.23152285E+02</pdfrwt>
<pdfrwt beam="2">  1       21 0.24463745E-02 0.23152285E+02</pdfrwt>
<totfact> 0.11821368E+08</totfact>
</mgrwt>
</event>
<event>
 4    1  0.2761157E+004  0.2075944E+02  0.7546771E-02  0.1730634E+00
         21   -1    0    0  501  502  0.00000000000E+00  0.00000000000E+00  0.37546710190E+03  0.37546710190E+03  0.00000000000E+00 0. -1.
         21   -1    0    0  502  503 -0.00000000000E+00 -0.00000000000E+00 -0.11541277836E+01  0.11541277836E+01  0.00000000000E+00 0.  1.
          2    1    1    2  501    0  0.13866044338E+02 -0.15449505435E+02  0.20111979834E+03  0.20218834707E+03  0.00000000000E+00 0.  1.
         -2    1    1    2    0  503 -0.13866044338E+02  0.15449505435E+02  0.17319317577E+03  0.17443288262E+03  0.00000000000E+00 0. -1.
<mgrwt>
<rscale>  2 0.20759441E+02</rscale>
<asrwt>0</asrwt>
<pdfrwt beam="1">  1       21 0.57764072E-01 0.20759441E+02</pdfrwt>
<pdfrwt beam="2">  1       21 0.17755842E-03 0.20759441E+02</pdfrwt>
<totfact> 0.10657212E+08</totfact>
</mgrwt>
</event>
<event>
 4    1  0.2761157E+004  0.2047414E+02  0.7546771E-02  0.1736060E+00
         21   -1    0    0  501  502  0.00000000000E+00  0.00000000000E+00  0.14594311199E+03  0.14594311199E+03  0.00000000000E+00 0. -1.
         21   -1    0    0  502  503 -0.00000000000E+00 -0.00000000000E+00 -0.45392133368E+01  0.45392133368E+01  0.00000000000E+00 0.  1.
          2    1    1    2  501    0  0.14919913192E+02  0.14020935162E+02  0.11629760528E+03  0.11808608481E+03  0.00000000000E+00 0. -1.
         -2    1    1    2    0  503 -0.14919913192E+02 -0.14020935162E+02  0.25106293371E+02  0.32396240512E+02  0.00000000000E+00 0.  1.
<mgrwt>
<rscale>  2 0.20474141E+02</rscale>
<asrwt>0</asrwt>
<pdfrwt beam="1">  1       21 0.22452783E-01 0.20474141E+02</pdfrwt>
<pdfrwt beam="2">  1       21 0.69834062E-03 0.20474141E+02</pdfrwt>
<totfact> 0.83305766E+07</totfact>
</mgrwt>
</event>
<event>
 4    1  0.2761157E+004  0.3384479E+02  0.7546771E-02  0.1559105E+00
         21   -1    0    0  501  502  0.00000000000E+00  0.00000000000E+00  0.29858117826E+02  0.29858117826E+02  0.00000000000E+00 0. -1.
         21   -1    0    0  502  503 -0.00000000000E+00 -0.00000000000E+00 -0.58617764216E+02  0.58617764216E+02  0.00000000000E+00 0.  1.
          2    1    1    2  501    0 -0.31017561715E+02 -0.13541811353E+02  0.11623908971E+02  0.35785263018E+02  0.00000000000E+00 0. -1.
         -2    1    1    2    0  503  0.31017561715E+02  0.13541811353E+02 -0.40383555362E+02  0.52690619024E+02  0.00000000000E+00 0.  1.
<mgrwt>
<rscale>  2 0.33844790E+02</rscale>
<asrwt>0</asrwt>
<pdfrwt beam="1">  1       21 0.45935566E-02 0.33844790E+02</pdfrwt>
<pdfrwt beam="2">  1       21 0.90181175E-02 0.33844790E+02</pdfrwt>
<totfact> 0.24474341E+07</totfact>
</mgrwt>
</event>
<event>
 4    1  0.2761157E+004  0.2893685E+02  0.7546771E-02  0.1610147E+00
         21   -1    0    0  501  502  0.00000000000E+00  0.00000000000E+00  0.29409819377E+01  0.29409819377E+01  0.00000000000E+00 0.  1.
         21   -1    0    0  502  503 -0.00000000000E+00 -0.00000000000E+00 -0.10110092814E+04  0.10110092814E+04  0.00000000000E+00 0. -1.
          2    1    1    2  501    0  0.28777734526E+02 -0.30303511945E+01 -0.74334041812E+02  0.79767730349E+02  0.00000000000E+00 0.  1.
         -2    1    1    2    0  503 -0.28777734526E+02  0.30303511945E+01 -0.93373425770E+03  0.93418253304E+03  0.00000000000E+00 0. -1.
<mgrwt>
<rscale>  2 0.28936846E+02</rscale>
<asrwt>0</asrwt>
<pdfrwt beam="1">  1       21 0.45245915E-03 0.28936846E+02</pdfrwt>
<pdfrwt beam="2">  1       21 0.15553975E+00 0.28936846E+02</pdfrwt>
<totfact> 0.33376247E+06</totfact>
</mgrwt>
</event>
<event>
 4    1  0.2761157E+004  0.2037880E+02  0.7546771E-02  0.1737898E+00
         21   -1    0    0  501  502  0.00000000000E+00  0.00000000000E+00  0.27451056539E+03  0.27451056539E+03  0.00000000000E+00 0. -1.
         21   -1    0    0  502  503 -0.00000000000E+00 -0.00000000000E+00 -0.79487348773E+01  0.79487348773E+01  0.00000000000E+00 0.  1.
          2    1    1    2  501    0  0.18745758563E+02  0.79932564558E+01  0.26036194571E+03  0.26115826310E+03  0.00000000000E+00 0. -1.
         -2    1    1    2    0  503 -0.18745758563E+02 -0.79932564558E+01  0.61998848070E+01  0.21301037169E+02  0.00000000000E+00 0.  1.
<mgrwt>
<rscale>  2 0.20378803E+02</rscale>
<asrwt>0</asrwt>
<pdfrwt beam="1">  1       21 0.42232388E-01 0.20378803E+02</pdfrwt>
<pdfrwt beam="2">  1       21 0.12228825E-02 0.20378803E+02</pdfrwt>
<totfact> 0.11443632E+07</totfact>
</mgrwt>
</event>
<event>
 4    1  0.2761157E+004  0.2668699E+02  0.7546771E-02  0.1637890E+00
         21   -1    0    0  501  502  0.00000000000E+00  0.00000000000E+00  0.56140391942E+01  0.56140391942E+01  0.00000000000E+00 0. -1.
         21   -1    0    0  502  503 -0.00000000000E+00 -0.00000000000E+00 -0.40184827700E+03  0.40184827700E+03  0.00000000000E+00 0.  1.
          2    1    1    2  501    0 -0.87383990025E+01  0.25215788251E+02 -0.29584609247E+02  0.39842749636E+02  0.00000000000E+00 0. -1.
         -2    1    1    2    0  503  0.87383990025E+01 -0.25215788251E+02 -0.36664962856E+03  0.36761956656E+03  0.00000000000E+00 0.  1.
<mgrwt>
<rscale>  2 0.26686993E+02</rscale>
<asrwt>0</asrwt>
<pdfrwt beam="1">  1       21 0.86369840E-03 0.26686993E+02</pdfrwt>
<pdfrwt beam="2">  1       21 0.61822807E-01 0.26686993E+02</pdfrwt>
<totfact> 0.96253739E+06</totfact>
</mgrwt>
</event>
<event>
 4    1  0.2761157E+004  0.2265283E+02  0.7546771E-02  0.1697200E+00
         21   -1    0    0  503  502  0.00000000000E+00  0.00000000000E+00  0.20904330179E+03  0.20904330179E+03  0.00000000000E+00 0.  1.
         21   -1    0    0  501  503 -0.00000000000E+00 -0.00000000000E+00 -0.38930663811E+01  0.38930663811E+01  0.00000000000E+00 0. -1.
          2    1    1    2  501    0  0.21490201500E+02  0.71639357878E+01  0.37860865946E+02  0.44120243729E+02  0.00000000000E+00 0. -1.
         -2    1    1    2    0  502 -0.21490201500E+02 -0.71639357878E+01  0.16728936946E+03  0.16881612444E+03  0.00000000000E+00 0.  1.
<mgrwt>
<rscale>  2 0.22652831E+02</rscale>
<asrwt>0</asrwt>
<pdfrwt beam="1">  1       21 0.32160499E-01 0.22652831E+02</pdfrwt>
<pdfrwt beam="2">  1       21 0.59893345E-03 0.22652831E+02</pdfrwt>
<totfact> 0.56405965E+07</totfact>
</mgrwt>
</event>
<event>
 4    1  0.2761157E+004  0.3183334E+02  0.7546771E-02  0.1578665E+00
         21   -1    0    0  503  502  0.00000000000E+00  0.00000000000E+00  0.33097181135E+02  0.33097181135E+02  0.00000000000E+00 0.  1.
         21   -1    0    0  501  503 -0.00000000000E+00 -0.00000000000E+00 -0.10483271312E+03  0.10483271312E+03  0.00000000000E+00 0. -1.
          2    1    1    2  501    0 -0.21669578593E+02 -0.23319319223E+02 -0.93894179263E+02  0.99143724889E+02  0.00000000000E+00 0. -1.
         -2    1    1    2    0  502  0.21669578593E+02  0.23319319223E+02  0.22158647273E+02  0.38786169370E+02  0.00000000000E+00 0.  1.
<mgrwt>
<rscale>  2 0.31833336E+02</rscale>
<asrwt>0</asrwt>
<pdfrwt beam="1">  1       21 0.50918741E-02 0.31833336E+02</pdfrwt>
<pdfrwt beam="2">  1       21 0.16128109E-01 0.31833336E+02</pdfrwt>
<totfact> 0.76396717E+06</totfact>
</mgrwt>
</event>
<event>
 4    1  0.2761157E+004  0.4754701E+02  0.7546771E-02  0.1459040E+00
         21   -1    0    0  501  502  0.00000000000E+00  0.00000000000E+00  0.15072145784E+03  0.15072145784E+03  0.00000000000E+00 0.  1.
         21   -1    0    0  502  503 -0.00000000000E+00 -0.00000000000E+00 -0.15003551867E+02  0.15003551867E+02  0.00000000000E+00 0. -1.
          2    1    1    2  501    0  0.34263967679E+02 -0.32965114608E+02  0.69251808943E+02  0.84003162465E+02  0.00000000000E+00 0.  1.
         -2    1    1    2    0  503 -0.34263967679E+02  0.32965114608E+02  0.66466097029E+02  0.81721847242E+02  0.00000000000E+00 0. -1.
<mgrwt>
<rscale>  2 0.47547011E+02</rscale>
<asrwt>0</asrwt>
<pdfrwt beam="1">  1       21 0.23187916E-01 0.47547011E+02</pdfrwt>
<pdfrwt beam="2">  1       21 0.23082388E-02 0.47547011E+02</pdfrwt>
<totfact> 0.14979977E+07</totfact>
</mgrwt>
</event>
<event>
 4    1  0.2761157E+004  0.2176282E+02  0.7546771E-02  0.1712386E+00
         21   -1    0    0  503  502  0.00000000000E+00  0.00000000000E+00  0.22562384991E+02  0.22562384991E+02  0.00000000000E+00 0. -1.
         21   -1    0    0  501  503 -0.00000000000E+00 -0.00000000000E+00 -0.21128312116E+02  0.21128312116E+02  0.00000000000E+00 0.  1.
          2    1    1    2  501    0 -0.21708059030E+02  0.15428734743E+01 -0.10402779436E+01  0.21787667696E+02  0.00000000000E+00 0. -1.
         -2    1    1    2    0  502  0.21708059030E+02 -0.15428734743E+01  0.24743508189E+01  0.21903029411E+02  0.00000000000E+00 0.  1.
<mgrwt>
<rscale>  2 0.21762819E+02</rscale>
<asrwt>0</asrwt>
<pdfrwt beam="1">  1       21 0.34711362E-02 0.21762819E+02</pdfrwt>
<pdfrwt beam="2">  1       21 0.32505096E-02 0.21762819E+02</pdfrwt>
<totfact> 0.17686721E+08</totfact>
</mgrwt>
</event>
<event>
 4    1  0.2761157E+004  0.2319665E+02  0.7546771E-02  0.1688342E+00
         21   -1    0    0  501  502  0.00000000000E+00  0.00000000000E+00  0.31292147461E+01  0.31292147461E+01  0.00000000000E+00 0.  1.
         21   -1    0    0  502  503 -0.00000000000E+00 -0.00000000000E+00 -0.11327165143E+04  0.11327165143E+04  0.00000000000E+00 0. -1.
          2    1    1    2  501    0 -0.22802099901E+02 -0.42601228750E+01 -0.41751707518E+02  0.47762846309E+02  0.00000000000E+00 0.  1.
         -2    1    1    2    0  503  0.22802099901E+02  0.42601228750E+01 -0.10878355920E+04  0.10880828827E+04  0.00000000000E+00 0. -1.
<mgrwt>
<rscale>  2 0.23196646E+02</rscale>
<asrwt>0</asrwt>
<pdfrwt beam="1">  1       21 0.48141686E-03 0.23196646E+02</pdfrwt>
<pdfrwt beam="2">  1       21 0.17426437E+00 0.23196646E+02</pdfrwt>
<totfact> 0.22632646E+06</totfact>
</mgrwt>
</event>
<event>
 4    1  0.2761157E+004  0.3313507E+02  0.7546771E-02  0.1565814E+00
         21   -1    0    0  503  502  0.00000000000E+00  0.00000000000E+00  0.12629968005E+03  0.12629968005E+03  0.00000000000E+00 0.  1.
         21   -1    0    0  501  503 -0.00000000000E+00 -0.00000000000E+00 -0.11176232332E+02  0.11176232332E+02  0.00000000000E+00 0. -1.
          2    1    1    2  501    0  0.22766149209E+02  0.24075609820E+02  0.25161272539E+02  0.41605554602E+02  0.00000000000E+00 0. -1.
         -2    1    1    2    0  502 -0.22766149209E+02 -0.24075609820E+02  0.89962175182E+02  0.95870357783E+02  0.00000000000E+00 0.  1.
<mgrwt>
<rscale>  2 0.33135065E+02</rscale>
<asrwt>0</asrwt>
<pdfrwt beam="1">  1       21 0.19430719E-01 0.33135065E+02</pdfrwt>
<pdfrwt beam="2">  1       21 0.17194204E-02 0.33135065E+02</pdfrwt>
<totfact> 0.30764130E+07</totfact>
</mgrwt>
</event>
<event>
 4    1  0.2761157E+004  0.4391378E+02  0.7546771E-02  0.1481239E+00
         21   -1    0    0  501  502  0.00000000000E+00  0.00000000000E+00  0.85718645599E+00  0.85718645599E+00  0.00000000000E+00 0. -1.
         21   -1    0    0  502  503 -0.00000000000E+00 -0.00000000000E+00 -0.23218544637E+04  0.23218544637E+04  0.00000000000E+00 0.  1.
          2    1    1    2  501    0 -0.43283768581E+02 -0.74118604925E+01 -0.13652145360E+04  0.13659206235E+04  0.00000000000E+00 0.  1.
         -2    1    1    2    0  503  0.43283768581E+02  0.74118604925E+01 -0.95578274128E+03  0.95679102672E+03  0.00000000000E+00 0. -1.
<mgrwt>
<rscale>  2 0.43913783E+02</rscale>
<asrwt>0</asrwt>
<pdfrwt beam="1">  1       21 0.13187940E-03 0.43913783E+02</pdfrwt>
<pdfrwt beam="2">  1       21 0.35719604E+00 0.43913783E+02</pdfrwt>
<totfact> 0.16146306E+06</totfact>
</mgrwt>
</event>
<event>
 4    1  0.2761157E+004  0.2205782E+02  0.7546771E-02  0.1707254E+00
         21   -1    0    0  503  502  0.00000000000E+00  0.00000000000E+00  0.47048893407E+01  0.47048893407E+01  0.00000000000E+00 0.  1.
         21   -1    0    0  501  503 -0.00000000000E+00 -0.00000000000E+00 -0.12056652264E+03  0.12056652264E+03  0.00000000000E+00 0. -1.
          2    1    1    2  501    0 -0.17447609592E+02  0.13495499424E+02 -0.81556421999E+02  0.84486670869E+02  0.00000000000E+00 0. -1.
         -2    1    1    2    0  502  0.17447609592E+02 -0.13495499424E+02 -0.34305211297E+02  0.40784741109E+02  0.00000000000E+00 0.  1.
<mgrwt>
<rscale>  2 0.22057824E+02</rscale>
<asrwt>0</asrwt>
<pdfrwt beam="1">  1       21 0.72382924E-03 0.22057824E+02</pdfrwt>
<pdfrwt beam="2">  1       21 0.18548693E-01 0.22057824E+02</pdfrwt>
<totfact> 0.11250706E+08</totfact>
</mgrwt>
</event>
<event>
 4    1  0.2761157E+004  0.2279170E+02  0.7546771E-02  0.1694909E+00
         21   -1    0    0  503  502  0.00000000000E+00  0.00000000000E+00  0.15431414673E+03  0.15431414673E+03  0.00000000000E+00 0.  1.
         21   -1    0    0  501  503 -0.00000000000E+00 -0.00000000000E+00 -0.42042197673E+01  0.42042197673E+01  0.00000000000E+00 0. -1.
          2    1    1    2  501    0  0.22153431376E+02  0.53560224712E+01  0.39670017206E+02  0.45751194122E+02  0.00000000000E+00 0. -1.
         -2    1    1    2    0  502 -0.22153431376E+02 -0.53560224712E+01  0.11043990975E+03  0.11276717237E+03  0.00000000000E+00 0.  1.
<mgrwt>
<rscale>  2 0.22791698E+02</rscale>
<asrwt>0</asrwt>
<pdfrwt beam="1">  1       21 0.23740634E-01 0.22791698E+02</pdfrwt>
<pdfrwt beam="2">  1       21 0.64680316E-03 0.22791698E+02</pdfrwt>
<totfact> 0.87102709E+07</totfact>
</mgrwt>
</event>
<event>
 4    1  0.2761157E+004  0.2192148E+02  0.7546771E-02  0.1709613E+00
         21   -1    0    0  501  502  0.00000000000E+00  0.00000000000E+00  0.85406025859E+02  0.85406025859E+02  0.00000000000E+00 0.  1.
         21   -1    0    0  502  503 -0.00000000000E+00 -0.00000000000E+00 -0.60147992794E+01  0.60147992794E+01  0.00000000000E+00 0. -1.
          2    1    1    2  501    0 -0.76819622627E+01 -0.20531409475E+02  0.51307267997E+02  0.55794149053E+02  0.00000000000E+00 0.  1.
         -2    1    1    2    0  503  0.76819622627E+01  0.20531409475E+02  0.28083958582E+02  0.35626676085E+02  0.00000000000E+00 0. -1.
<mgrwt>
<rscale>  2 0.21921481E+02</rscale>
<asrwt>0</asrwt>
<pdfrwt beam="1">  1       21 0.13139388E-01 0.21921481E+02</pdfrwt>
<pdfrwt beam="2">  1       21 0.92535380E-03 0.21921481E+02</pdfrwt>
<totfact> 0.14016086E+08</totfact>
</mgrwt>
</event>
<event>
 4    1  0.2761157E+004  0.3873693E+02  0.7546771E-02  0.1517717E+00
         21   -1    0    0  503  502  0.00000000000E+00  0.00000000000E+00  0.14798351025E+02  0.14798351025E+02  0.00000000000E+00 0.  1.
         21   -1    0    0  501  503 -0.00000000000E+00 -0.00000000000E+00 -0.12860016337E+03  0.12860016337E+03  0.00000000000E+00 0. -1.
          2    1    1    2  501    0  0.38665747487E+02 -0.23472530188E+01 -0.89875644801E+02  0.97868182541E+02  0.00000000000E+00 0. -1.
         -2    1    1    2    0  502 -0.38665747487E+02  0.23472530188E+01 -0.23926167544E+02  0.45530331855E+02  0.00000000000E+00 0.  1.
<mgrwt>
<rscale>  2 0.38736928E+02</rscale>
<asrwt>0</asrwt>
<pdfrwt beam="1">  1       21 0.22766695E-02 0.38736928E+02</pdfrwt>
<pdfrwt beam="2">  1       21 0.19784640E-01 0.38736928E+02</pdfrwt>
<totfact> 0.19770852E+07</totfact>
</mgrwt>
</event>
<event>
 4    1  0.2761157E+004  0.3087220E+02  0.7546771E-02  0.1588643E+00
         21   -1    0    0  501  502  0.00000000000E+00  0.00000000000E+00  0.24789445503E+02  0.24789445503E+02  0.00000000000E+00 0.  1.
         21   -1    0    0  502  503 -0.00000000000E+00 -0.00000000000E+00 -0.44440051035E+02  0.44440051035E+02  0.00000000000E+00 0. -1.
          2    1    1    2  501    0 -0.47455423238E+01 -0.30505288534E+02  0.28856734097E+01  0.31006772027E+02  0.00000000000E+00 0.  1.
         -2    1    1    2    0  503  0.47455423238E+01  0.30505288534E+02 -0.22536278942E+02  0.38222724511E+02  0.00000000000E+00 0. -1.
<mgrwt>
<rscale>  2 0.30872201E+02</rscale>
<asrwt>0</asrwt>
<pdfrwt beam="1">  1       21 0.38137608E-02 0.30872201E+02</pdfrwt>
<pdfrwt beam="2">  1       21 0.68369309E-02 0.30872201E+02</pdfrwt>
<totfact> 0.51109435E+07</totfact>
</mgrwt>
</event>
<event>
 4    1  0.2761157E+004  0.2896694E+02  0.7546771E-02  0.1609797E+00
         21   -1    0    0  501  502  0.00000000000E+00  0.00000000000E+00  0.20102949601E+03  0.20102949601E+03  0.00000000000E+00 0. -1.
         21   -1    0    0  502  503 -0.00000000000E+00 -0.00000000000E+00 -0.56472980353E+01  0.56472980353E+01  0.00000000000E+00 0.  1.
          2    1    1    2  501    0  0.28678056204E+02  0.40807555696E+01  0.15047441536E+03  0.15323717941E+03  0.00000000000E+00 0. -1.
         -2    1    1    2    0  503 -0.28678056204E+02 -0.40807555696E+01  0.44907782614E+02  0.53439614641E+02  0.00000000000E+00 0.  1.
<mgrwt>
<rscale>  2 0.28966938E+02</rscale>
<asrwt>0</asrwt>
<pdfrwt beam="1">  1       21 0.30927609E-01 0.28966938E+02</pdfrwt>
<pdfrwt beam="2">  1       21 0.86881523E-03 0.28966938E+02</pdfrwt>
<totfact> 0.36754161E+07</totfact>
</mgrwt>
</event>
<event>
 4    1  0.2761157E+004  0.3289570E+02  0.7546771E-02  0.1568123E+00
         21   -1    0    0  501  502  0.00000000000E+00  0.00000000000E+00  0.11143403614E+03  0.11143403614E+03  0.00000000000E+00 0.  1.
         21   -1    0    0  502  503 -0.00000000000E+00 -0.00000000000E+00 -0.35022460750E+02  0.35022460750E+02  0.00000000000E+00 0. -1.
          2    1    1    2  501    0 -0.14872996438E+02 -0.29341459994E+02  0.10045940428E+03  0.10570817947E+03  0.00000000000E+00 0.  1.
         -2    1    1    2    0  503  0.14872996438E+02  0.29341459994E+02 -0.24047828897E+02  0.40748317417E+02  0.00000000000E+00 0. -1.
<mgrwt>
<rscale>  2 0.32895703E+02</rscale>
<asrwt>0</asrwt>
<pdfrwt beam="1">  1       21 0.17143698E-01 0.32895703E+02</pdfrwt>
<pdfrwt beam="2">  1       21 0.53880709E-02 0.32895703E+02</pdfrwt>
<totfact> 0.62985089E+06</totfact>
</mgrwt>
</event>
<event>
 4    1  0.2761157E+004  0.2195655E+02  0.7546771E-02  0.1709004E+00
         21   -1    0    0  503  502  0.00000000000E+00  0.00000000000E+00  0.55287092165E+03  0.55287092165E+03  0.00000000000E+00 0. -1.
         21   -1    0    0  501  503 -0.00000000000E+00 -0.00000000000E+00 -0.46059171353E+01  0.46059171353E+01  0.00000000000E+00 0.  1.
          2    1    1    2  501    0  0.98839508520E+01  0.19606063556E+02  0.23162102508E+02  0.31915093689E+02  0.00000000000E+00 0.  1.
         -2    1    1    2    0  502 -0.98839508520E+01 -0.19606063556E+02  0.52510290201E+03  0.52556174510E+03  0.00000000000E+00 0. -1.
<mgrwt>
<rscale>  2 0.21956553E+02</rscale>
<asrwt>0</asrwt>
<pdfrwt beam="1">  1       21 0.85057012E-01 0.21956553E+02</pdfrwt>
<pdfrwt beam="2">  1       21 0.70860307E-03 0.21956553E+02</pdfrwt>
<totfact> 0.64858376E+06</totfact>
</mgrwt>
</event>
<event>
 4    1  0.2761157E+004  0.2942451E+02  0.7546771E-02  0.1604538E+00
         21   -1    0    0  503  502  0.00000000000E+00  0.00000000000E+00  0.13780296962E+03  0.13780296962E+03  0.00000000000E+00 0.  1.
         21   -1    0    0  501  503 -0.00000000000E+00 -0.00000000000E+00 -0.94855022076E+01  0.94855022076E+01  0.00000000000E+00 0. -1.
          2    1    1    2  501    0  0.18266417411E+01  0.29367760297E+02  0.21366963851E+02  0.36364118429E+02  0.00000000000E+00 0. -1.
         -2    1    1    2    0  502 -0.18266417411E+01 -0.29367760297E+02  0.10695050356E+03  0.11092435339E+03  0.00000000000E+00 0.  1.
<mgrwt>
<rscale>  2 0.29424513E+02</rscale>
<asrwt>0</asrwt>
<pdfrwt beam="1">  1       21 0.21200455E-01 0.29424513E+02</pdfrwt>
<pdfrwt beam="2">  1       21 0.14593081E-02 0.29424513E+02</pdfrwt>
<totfact> 0.33167828E+07</totfact>
</mgrwt>
</event>
<event>
 4    1  0.2761157E+004  0.2193404E+02  0.7546771E-02  0.1709395E+00
         21   -1    0    0  501  502  0.00000000000E+00  0.00000000000E+00  0.89272065627E+02  0.89272065627E+02  0.00000000000E+00 0. -1.
         21   -1    0    0  502  503 -0.00000000000E+00 -0.00000000000E+00 -0.67190874881E+01  0.67190874881E+01  0.00000000000E+00 0.  1.
          2    1    1    2  501    0  0.18410447294E+02 -0.11922991544E+02  0.62629468835E+02  0.66359269613E+02  0.00000000000E+00 0. -1.
         -2    1    1    2    0  503 -0.18410447294E+02  0.11922991544E+02  0.19923509304E+02  0.29631883502E+02  0.00000000000E+00 0.  1.
<mgrwt>
<rscale>  2 0.21934044E+02</rscale>
<asrwt>0</asrwt>
<pdfrwt beam="1">  1       21 0.13734163E-01 0.21934044E+02</pdfrwt>
<pdfrwt beam="2">  1       21 0.10337058E-02 0.21934044E+02</pdfrwt>
<totfact> 0.11021527E+08</totfact>
</mgrwt>
</event>
<event>
 4    1  0.2761157E+004  0.2964490E+02  0.7546771E-02  0.1602047E+00
         21   -1    0    0  503  502  0.00000000000E+00  0.00000000000E+00  0.67649095975E+02  0.67649095975E+02  0.00000000000E+00 0. -1.
         21   -1    0    0  501  503 -0.00000000000E+00 -0.00000000000E+00 -0.28587346659E+02  0.28587346659E+02  0.00000000000E+00 0.  1.
          2    1    1    2  501    0  0.24314312149E+00 -0.29643902970E+02 -0.16010645234E+02  0.33692148383E+02  0.00000000000E+00 0.  1.
         -2    1    1    2    0  502 -0.24314312149E+00  0.29643902970E+02  0.55072394550E+02  0.62544294251E+02  0.00000000000E+00 0. -1.
<mgrwt>
<rscale>  2 0.29644900E+02</rscale>
<asrwt>0</asrwt>
<pdfrwt beam="1">  1       21 0.10407553E-01 0.29644900E+02</pdfrwt>
<pdfrwt beam="2">  1       21 0.43980533E-02 0.29644900E+02</pdfrwt>
<totfact> 0.20151771E+07</totfact>
</mgrwt>
</event>
<event>
 4    1  0.2761157E+004  0.3323512E+02  0.7546771E-02  0.1564856E+00
         21   -1    0    0  503  502  0.00000000000E+00  0.00000000000E+00  0.52594981798E+01  0.52594981798E+01  0.00000000000E+00 0.  1.
         21   -1    0    0  501  503 -0.00000000000E+00 -0.00000000000E+00 -0.30691278134E+03  0.30691278134E+03  0.00000000000E+00 0. -1.
          2    1    1    2  501    0  0.31612965156E+02  0.10256404090E+02 -0.23852951451E+03  0.24083376566E+03  0.00000000000E+00 0. -1.
         -2    1    1    2    0  502 -0.31612965156E+02 -0.10256404090E+02 -0.63123768652E+02  0.71338513859E+02  0.00000000000E+00 0.  1.
<mgrwt>
<rscale>  2 0.33235123E+02</rscale>
<asrwt>0</asrwt>
<pdfrwt beam="1">  1       21 0.80915349E-03 0.33235123E+02</pdfrwt>
<pdfrwt beam="2">  1       21 0.47217356E-01 0.33235123E+02</pdfrwt>
<totfact> 0.18796763E+07</totfact>
</mgrwt>
</event>
<event>
 4    1  0.2761157E+004  0.3004908E+02  0.7546771E-02  0.1597547E+00
         21   -1    0    0  501  502  0.00000000000E+00  0.00000000000E+00  0.12401808365E+03  0.12401808365E+03  0.00000000000E+00 0. -1.
         21   -1    0    0  502  503 -0.00000000000E+00 -0.00000000000E+00 -0.97582712264E+01  0.97582712264E+01  0.00000000000E+00 0.  1.
          2    1    1    2  501    0  0.13706638898E+02  0.26740893830E+02  0.90832995493E+02  0.95674345689E+02  0.00000000000E+00 0. -1.
         -2    1    1    2    0  503 -0.13706638898E+02 -0.26740893830E+02  0.23426816932E+02  0.38102009190E+02  0.00000000000E+00 0.  1.
<mgrwt>
<rscale>  2 0.30049082E+02</rscale>
<asrwt>0</asrwt>
<pdfrwt beam="1">  1       21 0.19079704E-01 0.30049082E+02</pdfrwt>
<pdfrwt beam="2">  1       21 0.15012726E-02 0.30049082E+02</pdfrwt>
<totfact> 0.38409022E+07</totfact>
</mgrwt>
</event>
<event>
 4    1  0.2761157E+004  0.2131719E+02  0.7546771E-02  0.1720336E+00
         21   -1    0    0  501  502  0.00000000000E+00  0.00000000000E+00  0.10194259182E+02  0.10194259182E+02  0.00000000000E+00 0.  1.
         21   -1    0    0  502  503 -0.00000000000E+00 -0.00000000000E+00 -0.11828727269E+03  0.11828727269E+03  0.00000000000E+00 0. -1.
          2    1    1    2  501    0  0.21315732846E+02 -0.24907314363E+00 -0.33348581708E+01  0.21576463640E+02  0.00000000000E+00 0.  1.
         -2    1    1    2    0  503 -0.21315732846E+02  0.24907314363E+00 -0.10475815533E+03  0.10690506823E+03  0.00000000000E+00 0. -1.
<mgrwt>
<rscale>  2 0.21317188E+02</rscale>
<asrwt>0</asrwt>
<pdfrwt beam="1">  1       21 0.15683474E-02 0.21317188E+02</pdfrwt>
<pdfrwt beam="2">  1       21 0.18198044E-01 0.21317188E+02</pdfrwt>
<totfact> 0.36080204E+07</totfact>
</mgrwt>
</event>
<event>
 4    1  0.2761157E+004  0.2363901E+02  0.7546771E-02  0.1681357E+00
         21   -1    0    0  501  502  0.00000000000E+00  0.00000000000E+00  0.30163809786E+02  0.30163809786E+02  0.00000000000E+00 0. -1.
         21   -1    0    0  502  503 -0.00000000000E+00 -0.00000000000E+00 -0.62677403078E+02  0.62677403078E+02  0.00000000000E+00 0.  1.
          2    1    1    2  501    0 -0.16236786982E+02  0.17180493093E+02  0.22704154244E+02  0.32776229410E+02  0.00000000000E+00 0. -1.
         -2    1    1    2    0  503  0.16236786982E+02 -0.17180493093E+02 -0.55217747536E+02  0.60064983454E+02  0.00000000000E+00 0.  1.
<mgrwt>
<rscale>  2 0.23639006E+02</rscale>
<asrwt>0</asrwt>
<pdfrwt beam="1">  1       21 0.46405861E-02 0.23639006E+02</pdfrwt>
<pdfrwt beam="2">  1       21 0.96426774E-02 0.23639006E+02</pdfrwt>
<totfact> 0.20057637E+07</totfact>
</mgrwt>
</event>
<event>
 4    1  0.2761157E+004  0.2908011E+02  0.7546771E-02  0.1608485E+00
         21   -1    0    0  503  502  0.00000000000E+00  0.00000000000E+00  0.26176767402E+02  0.26176767402E+02  0.00000000000E+00 0.  1.
         21   -1    0    0  501  503 -0.00000000000E+00 -0.00000000000E+00 -0.33033865780E+02  0.33033865780E+02  0.00000000000E+00 0. -1.
          2    1    1    2  501    0 -0.24919946158E+02 -0.14988305215E+02 -0.78246843431E+01  0.30114426689E+02  0.00000000000E+00 0. -1.
         -2    1    1    2    0  502  0.24919946158E+02  0.14988305215E+02  0.96758596503E+00  0.29096206494E+02  0.00000000000E+00 0.  1.
<mgrwt>
<rscale>  2 0.29080114E+02</rscale>
<asrwt>0</asrwt>
<pdfrwt beam="1">  1       21 0.40271950E-02 0.29080114E+02</pdfrwt>
<pdfrwt beam="2">  1       21 0.50821332E-02 0.29080114E+02</pdfrwt>
<totfact> 0.74791414E+07</totfact>
</mgrwt>
</event>
<event>
 4    1  0.2761157E+004  0.2158130E+02  0.7546771E-02  0.1715595E+00
         21   -1    0    0  503  502  0.00000000000E+00  0.00000000000E+00  0.29822173637E+03  0.29822173637E+03  0.00000000000E+00 0.  1.
         21   -1    0    0  501  503 -0.00000000000E+00 -0.00000000000E+00 -0.22694283355E+01  0.22694283355E+01  0.00000000000E+00 0. -1.
          2    1    1    2  501    0 -0.19669082732E+02 -0.88814305694E+01  0.64077217129E+02  0.67613921492E+02  0.00000000000E+00 0. -1.
         -2    1    1    2    0  502  0.19669082732E+02  0.88814305694E+01  0.23187509091E+03  0.23287724321E+03  0.00000000000E+00 0.  1.
<mgrwt>
<rscale>  2 0.21581303E+02</rscale>
<asrwt>0</asrwt>
<pdfrwt beam="1">  1       21 0.45880236E-01 0.21581303E+02</pdfrwt>
<pdfrwt beam="2">  1       21 0.34914306E-03 0.21581303E+02</pdfrwt>
<totfact> 0.63344234E+07</totfact>
</mgrwt>
</event>
<event>
 4    1  0.2761157E+004  0.2290955E+02  0.7546771E-02  0.1692980E+00
         21   -1    0    0  501  502  0.00000000000E+00  0.00000000000E+00  0.30662478643E+03  0.30662478643E+03  0.00000000000E+00 0.  1.
         21   -1    0    0  502  503 -0.00000000000E+00 -0.00000000000E+00 -0.96179692637E+01  0.96179692637E+01  0.00000000000E+00 0. -1.
          2    1    1    2  501    0 -0.21242436242E+02 -0.85794281096E+01  0.29186568022E+03  0.29276342493E+03  0.00000000000E+00 0.  1.
         -2    1    1    2    0  503  0.21242436242E+02  0.85794281096E+01  0.51411369464E+01  0.23479330768E+02  0.00000000000E+00 0. -1.
<mgrwt>
<rscale>  2 0.22909554E+02</rscale>
<asrwt>0</asrwt>
<pdfrwt beam="1">  1       21 0.47173036E-01 0.22909554E+02</pdfrwt>
<pdfrwt beam="2">  1       21 0.14796878E-02 0.22909554E+02</pdfrwt>
<totfact> 0.70966017E+06</totfact>
</mgrwt>
</event>
<event>
 4    1  0.2761157E+004  0.2621308E+02  0.7546771E-02  0.1644165E+00
         21   -1    0    0  503  502  0.00000000000E+00  0.00000000000E+00  0.30368067793E+02  0.30368067793E+02  0.00000000000E+00 0. -1.
         21   -1    0    0  501  503 -0.00000000000E+00 -0.00000000000E+00 -0.24486815592E+02  0.24486815592E+02  0.00000000000E+00 0.  1.
          2    1    1    2  501    0  0.22450171243E+02  0.13532009628E+02 -0.46190516163E+01  0.26616932792E+02  0.00000000000E+00 0.  1.
         -2    1    1    2    0  502 -0.22450171243E+02 -0.13532009628E+02  0.10500303818E+02  0.28237950593E+02  0.00000000000E+00 0. -1.
<mgrwt>
<rscale>  2 0.26213078E+02</rscale>
<asrwt>0</asrwt>
<pdfrwt beam="1">  1       21 0.46720104E-02 0.26213078E+02</pdfrwt>
<pdfrwt beam="2">  1       21 0.37672024E-02 0.26213078E+02</pdfrwt>
<totfact> 0.92643119E+07</totfact>
</mgrwt>
</event>
<event>
 4    1  0.2761157E+004  0.5241431E+02  0.7546771E-02  0.1432738E+00
         21   -1    0    0  501  502  0.00000000000E+00  0.00000000000E+00  0.61138654049E+02  0.61138654049E+02  0.00000000000E+00 0. -1.
         21   -1    0    0  502  503 -0.00000000000E+00 -0.00000000000E+00 -0.81140244808E+02  0.81140244808E+02  0.00000000000E+00 0.  1.
          2    1    1    2  501    0 -0.50456211668E+00 -0.52411878854E+02  0.37519447888E+02  0.64459045896E+02  0.00000000000E+00 0. -1.
         -2    1    1    2    0  503  0.50456211668E+00  0.52411878854E+02 -0.57521038646E+02  0.77819852961E+02  0.00000000000E+00 0.  1.
<mgrwt>
<rscale>  2 0.52414307E+02</rscale>
<asrwt>0</asrwt>
<pdfrwt beam="1">  1       21 0.94059467E-02 0.52414307E+02</pdfrwt>
<pdfrwt beam="2">  1       21 0.12483115E-01 0.52414307E+02</pdfrwt>
<totfact> 0.45776354E+06</totfact>
</mgrwt>
</event>
<event>
 4    1  0.2761157E+004  0.2240941E+02  0.7546771E-02  0.1701266E+00
         21   -1    0    0  501  502  0.00000000000E+00  0.00000000000E+00  0.40694634198E+01  0.40694634198E+01  0.00000000000E+00 0.  1.
         21   -1    0    0  502  503 -0.00000000000E+00 -0.00000000000E+00 -0.13204322182E+03  0.13204322182E+03  0.00000000000E+00 0. -1.
          2    1    1    2  501    0  0.82195983375E+00 -0.22394335239E+02 -0.81396372182E+02  0.84424826166E+02  0.00000000000E+00 0. -1.
         -2    1    1    2    0  503 -0.82195983375E+00  0.22394335239E+02 -0.46577386220E+02  0.51687859075E+02  0.00000000000E+00 0.  1.
<mgrwt>
<rscale>  2 0.22409415E+02</rscale>
<asrwt>0</asrwt>
<pdfrwt beam="1">  1       21 0.62607124E-03 0.22409415E+02</pdfrwt>
<pdfrwt beam="2">  1       21 0.20314344E-01 0.22409415E+02</pdfrwt>
<totfact> 0.11968556E+08</totfact>
</mgrwt>
</event>
<event>
 4    1  0.2761157E+004  0.2157930E+02  0.7546771E-02  0.1715631E+00
         21   -1    0    0  503  502  0.00000000000E+00  0.00000000000E+00  0.31614149197E+03  0.31614149197E+03  0.00000000000E+00 0.  1.
         21   -1    0    0  501  503 -0.00000000000E+00 -0.00000000000E+00 -0.23116100390E+01  0.23116100390E+01  0.00000000000E+00 0. -1.
          2    1    1    2  501    0  0.18024867152E+02 -0.11864659565E+02  0.61008720268E+02  0.64712672107E+02  0.00000000000E+00 0. -1.
         -2    1    1    2    0  502 -0.18024867152E+02  0.11864659565E+02  0.25282116166E+03  0.25374042990E+03  0.00000000000E+00 0.  1.
<mgrwt>
<rscale>  2 0.21579295E+02</rscale>
<asrwt>0</asrwt>
<pdfrwt beam="1">  1       21 0.48637118E-01 0.21579295E+02</pdfrwt>
<pdfrwt beam="2">  1       21 0.35563256E-03 0.21579295E+02</pdfrwt>
<totfact> 0.55119503E+07</totfact>
</mgrwt>
</event>
<event>
 4    1  0.2761157E+004  0.2555485E+02  0.7546771E-02  0.1653158E+00
         21   -1    0    0  501  502  0.00000000000E+00  0.00000000000E+00  0.28413393328E+01  0.28413393328E+01  0.00000000000E+00 0. -1.
         21   -1    0    0  502  503 -0.00000000000E+00 -0.00000000000E+00 -0.25462855561E+03  0.25462855561E+03  0.00000000000E+00 0.  1.
          2    1    1    2  501    0 -0.22125225707E+02  0.12787685030E+02 -0.16606136272E+03  0.16801615009E+03  0.00000000000E+00 0. -1.
         -2    1    1    2    0  503  0.22125225707E+02 -0.12787685030E+02 -0.85725853558E+02  0.89453744859E+02  0.00000000000E+00 0.  1.
<mgrwt>
<rscale>  2 0.25554853E+02</rscale>
<asrwt>0</asrwt>
<pdfrwt beam="1">  1       21 0.43712912E-03 0.25554853E+02</pdfrwt>
<pdfrwt beam="2">  1       21 0.39173624E-01 0.25554853E+02</pdfrwt>
<totfact> 0.64095256E+07</totfact>
</mgrwt>
</event>
<event>
 4    1  0.2761157E+004  0.2133831E+02  0.7546771E-02  0.1719953E+00
         21   -1    0    0  503  502  0.00000000000E+00  0.00000000000E+00  0.23942682685E+01  0.23942682685E+01  0.00000000000E+00 0. -1.
         21   -1    0    0  501  503 -0.00000000000E+00 -0.00000000000E+00 -0.19977741599E+03  0.19977741599E+03  0.00000000000E+00 0.  1.
          2    1    1    2  501    0 -0.15742789014E+02 -0.14404452833E+02 -0.12085653106E+03  0.12272581133E+03  0.00000000000E+00 0.  1.
         -2    1    1    2    0  502  0.15742789014E+02  0.14404452833E+02 -0.76526616670E+02  0.79445872934E+02  0.00000000000E+00 0. -1.
<mgrwt>
<rscale>  2 0.21338315E+02</rscale>
<asrwt>0</asrwt>
<pdfrwt beam="1">  1       21 0.36834906E-03 0.21338315E+02</pdfrwt>
<pdfrwt beam="2">  1       21 0.30734979E-01 0.21338315E+02</pdfrwt>
<totfact> 0.12325055E+08</totfact>
</mgrwt>
</event>
<event>
 4    1  0.2761157E+004  0.2549290E+02  0.7546771E-02  0.1654021E+00
         21   -1    0    0  503  502  0.00000000000E+00  0.00000000000E+00  0.93178368877E+02  0.93178368877E+02  0.00000000000E+00 0.  1.
         21   -1    0    0  501  503 -0.00000000000E+00 -0.00000000000E+00 -0.71461921049E+01  0.71461921049E+01  0.00000000000E+00 0. -1.
          2    1    1    2  501    0 -0.13788528095E+02 -0.21442123659E+02  0.35244626969E+02  0.43497952874E+02  0.00000000000E+00 0.  1.
         -2    1    1    2    0  502  0.13788528095E+02  0.21442123659E+02  0.50787549803E+02  0.56826608108E+02  0.00000000000E+00 0. -1.
<mgrwt>
<rscale>  2 0.25492904E+02</rscale>
<asrwt>0</asrwt>
<pdfrwt beam="1">  1       21 0.14335133E-01 0.25492904E+02</pdfrwt>
<pdfrwt beam="2">  1       21 0.10994142E-02 0.25492904E+02</pdfrwt>
<totfact> 0.97372048E+07</totfact>
</mgrwt>
</event>
<event>
 4    1  0.2761157E+004  0.2720374E+02  0.7546771E-02  0.1631228E+00
         21   -1    0    0  503  502  0.00000000000E+00  0.00000000000E+00  0.22403163265E+02  0.22403163265E+02  0.00000000000E+00 0. -1.
         21   -1    0    0  501  503 -0.00000000000E+00 -0.00000000000E+00 -0.18805820227E+03  0.18805820227E+03  0.00000000000E+00 0.  1.
          2    1    1    2  501    0  0.11664789946E+02 -0.24575926156E+02 -0.17837019865E+03  0.18043273328E+03  0.00000000000E+00 0.  1.
         -2    1    1    2    0  502 -0.11664789946E+02  0.24575926156E+02  0.12715159640E+02  0.30028632263E+02  0.00000000000E+00 0. -1.
<mgrwt>
<rscale>  2 0.27203740E+02</rscale>
<asrwt>0</asrwt>
<pdfrwt beam="1">  1       21 0.34466405E-02 0.27203740E+02</pdfrwt>
<pdfrwt beam="2">  1       21 0.28932031E-01 0.27203740E+02</pdfrwt>
<totfact> 0.49254311E+06</totfact>
</mgrwt>
</event>
<event>
 4    1  0.2761157E+004  0.2060346E+02  0.7546771E-02  0.1733587E+00
         21   -1    0    0  501  502  0.00000000000E+00  0.00000000000E+00  0.36098289375E+02  0.36098289375E+02  0.00000000000E+00 0. -1.
         21   -1    0    0  502  503 -0.00000000000E+00 -0.00000000000E+00 -0.18203065627E+02  0.18203065627E+02  0.00000000000E+00 0.  1.
          2    1    1    2  501    0 -0.13139692642E+02 -0.15869812576E+02  0.25101132853E+02  0.32474133467E+02  0.00000000000E+00 0. -1.
         -2    1    1    2    0  503  0.13139692642E+02  0.15869812576E+02 -0.72059091043E+01  0.21827221535E+02  0.00000000000E+00 0.  1.
<mgrwt>
<rscale>  2 0.20603458E+02</rscale>
<asrwt>0</asrwt>
<pdfrwt beam="1">  1       21 0.55535830E-02 0.20603458E+02</pdfrwt>
<pdfrwt beam="2">  1       21 0.28004716E-02 0.20603458E+02</pdfrwt>
<totfact> 0.10445284E+08</totfact>
</mgrwt>
</event>
<event>
 4    1  0.2761157E+004  0.2052647E+02  0.7546771E-02  0.1735057E+00
         21   -1    0    0  501  502  0.00000000000E+00  0.00000000000E+00  0.58342337343E+01  0.58342337343E+01  0.00000000000E+00 0.  1.
         21   -1    0    0  502  503 -0.00000000000E+00 -0.00000000000E+00 -0.86387800973E+02  0.86387800973E+02  0.00000000000E+00 0. -1.
          2    1    1    2  501    0  0.49805738042E+01  0.19913059419E+02 -0.21601721570E+02  0.29798832622E+02  0.00000000000E+00 0.  1.
         -2    1    1    2    0  503 -0.49805738042E+01 -0.19913059419E+02 -0.58951845668E+02  0.62423202085E+02  0.00000000000E+00 0. -1.
<mgrwt>
<rscale>  2 0.20526472E+02</rscale>
<asrwt>0</asrwt>
<pdfrwt beam="1">  1       21 0.89757443E-03 0.20526472E+02</pdfrwt>
<pdfrwt beam="2">  1       21 0.13290431E-01 0.20526472E+02</pdfrwt>
<totfact> 0.14109101E+08</totfact>
</mgrwt>
</event>
<event>
 4    1  0.2761157E+004  0.2031480E+02  0.7546771E-02  0.1739139E+00
         21   -1    0    0  503  502  0.00000000000E+00  0.00000000000E+00  0.68573790449E+01  0.68573790449E+01  0.00000000000E+00 0.  1.
         21   -1    0    0  501  503 -0.00000000000E+00 -0.00000000000E+00 -0.60506709083E+02  0.60506709083E+02  0.00000000000E+00 0. -1.
          2    1    1    2  501    0 -0.19866647810E+02 -0.42434904462E+01 -0.29292022749E+02  0.35647068647E+02  0.00000000000E+00 0.  1.
         -2    1    1    2    0  502  0.19866647810E+02  0.42434904462E+01 -0.24357307289E+02  0.31717019481E+02  0.00000000000E+00 0. -1.
<mgrwt>
<rscale>  2 0.20314795E+02</rscale>
<asrwt>0</asrwt>
<pdfrwt beam="1">  1       21 0.10549814E-02 0.20314795E+02</pdfrwt>
<pdfrwt beam="2">  1       21 0.93087248E-02 0.20314795E+02</pdfrwt>
<totfact> 0.19933797E+08</totfact>
</mgrwt>
</event>
<event>
 4    1  0.2761157E+004  0.2083342E+02  0.7546771E-02  0.1729245E+00
         21   -1    0    0  501  502  0.00000000000E+00  0.00000000000E+00  0.37135539616E+01  0.37135539616E+01  0.00000000000E+00 0.  1.
         21   -1    0    0  502  503 -0.00000000000E+00 -0.00000000000E+00 -0.12062783602E+03  0.12062783602E+03  0.00000000000E+00 0. -1.
          2    1    1    2  501    0  0.92447814583E+01 -0.18669901221E+02 -0.47495073292E+02  0.51863408900E+02  0.00000000000E+00 0.  1.
         -2    1    1    2    0  503 -0.92447814583E+01  0.18669901221E+02 -0.69419208766E+02  0.72477981080E+02  0.00000000000E+00 0. -1.
<mgrwt>
<rscale>  2 0.20833415E+02</rscale>
<asrwt>0</asrwt>
<pdfrwt beam="1">  1       21 0.57131590E-03 0.20833415E+02</pdfrwt>
<pdfrwt beam="2">  1       21 0.18558132E-01 0.20833415E+02</pdfrwt>
<totfact> 0.15692394E+08</totfact>
</mgrwt>
</event>
<event>
 4    1  0.2761157E+004  0.2353952E+02  0.7546771E-02  0.1682911E+00
         21   -1    0    0  501  502  0.00000000000E+00  0.00000000000E+00  0.59794318362E+01  0.59794318362E+01  0.00000000000E+00 0.  1.
         21   -1    0    0  502  503 -0.00000000000E+00 -0.00000000000E+00 -0.14888114716E+03  0.14888114716E+03  0.00000000000E+00 0. -1.
          2    1    1    2  501    0  0.41411710245E+01 -0.23172391595E+02 -0.23872939857E+02  0.33526501265E+02  0.00000000000E+00 0.  1.
         -2    1    1    2    0  503 -0.41411710245E+01  0.23172391595E+02 -0.11902877546E+03  0.12133407773E+03  0.00000000000E+00 0. -1.
<mgrwt>
<rscale>  2 0.23539521E+02</rscale>
<asrwt>0</asrwt>
<pdfrwt beam="1">  1       21 0.91991275E-03 0.23539521E+02</pdfrwt>
<pdfrwt beam="2">  1       21 0.22904788E-01 0.23539521E+02</pdfrwt>
<totfact> 0.55342766E+07</totfact>
</mgrwt>
</event>
<event>
 4    1  0.2761157E+004  0.2771499E+02  0.7546771E-02  0.1624813E+00
         21   -1    0    0  503  502  0.00000000000E+00  0.00000000000E+00  0.34972666552E+01  0.34972666552E+01  0.00000000000E+00 0. -1.
         21   -1    0    0  501  503 -0.00000000000E+00 -0.00000000000E+00 -0.23598817833E+03  0.23598817833E+03  0.00000000000E+00 0.  1.
          2    1    1    2  501    0 -0.23394032120E+02  0.14860683392E+02 -0.14776724296E+03  0.15034386832E+03  0.00000000000E+00 0.  1.
         -2    1    1    2    0  502  0.23394032120E+02 -0.14860683392E+02 -0.84723668714E+02  0.89141576664E+02  0.00000000000E+00 0. -1.
<mgrwt>
<rscale>  2 0.27714990E+02</rscale>
<asrwt>0</asrwt>
<pdfrwt beam="1">  1       21 0.53804089E-03 0.27714990E+02</pdfrwt>
<pdfrwt beam="2">  1       21 0.36305883E-01 0.27714990E+02</pdfrwt>
<totfact> 0.55373849E+07</totfact>
</mgrwt>
</event>
<event>
 4    1  0.2761157E+004  0.2834204E+02  0.7546771E-02  0.1617173E+00
         21   -1    0    0  501  502  0.00000000000E+00  0.00000000000E+00  0.76463435289E+00  0.76463435289E+00  0.00000000000E+00 0.  1.
         21   -1    0    0  502  503 -0.00000000000E+00 -0.00000000000E+00 -0.11988627014E+04  0.11988627014E+04  0.00000000000E+00 0. -1.
          2    1    1    2  501    0 -0.25987033813E+02 -0.11311295395E+02 -0.38806476219E+03  0.38909835644E+03  0.00000000000E+00 0.  1.
         -2    1    1    2    0  503  0.25987033813E+02  0.11311295395E+02 -0.81003330489E+03  0.81052897934E+03  0.00000000000E+00 0. -1.
<mgrwt>
<rscale>  2 0.28342042E+02</rscale>
<asrwt>0</asrwt>
<pdfrwt beam="1">  1       21 0.11763637E-03 0.28342042E+02</pdfrwt>
<pdfrwt beam="2">  1       21 0.18443992E+00 0.28342042E+02</pdfrwt>
<totfact> 0.15566236E+07</totfact>
</mgrwt>
</event>
<event>
 4    1  0.2761157E+004  0.2184725E+02  0.7546771E-02  0.1710907E+00
         21   -1    0    0  503  502  0.00000000000E+00  0.00000000000E+00  0.45955332558E+02  0.45955332558E+02  0.00000000000E+00 0. -1.
         21   -1    0    0  501  503 -0.00000000000E+00 -0.00000000000E+00 -0.10405833725E+02  0.10405833725E+02  0.00000000000E+00 0.  1.
          2    1    1    2  501    0 -0.94993592060E+01 -0.19673952204E+02  0.18998196487E+02  0.28952265721E+02  0.00000000000E+00 0.  1.
         -2    1    1    2    0  502  0.94993592060E+01  0.19673952204E+02  0.16551302346E+02  0.27408900561E+02  0.00000000000E+00 0. -1.
<mgrwt>
<rscale>  2 0.21847247E+02</rscale>
<asrwt>0</asrwt>
<pdfrwt beam="1">  1       21 0.70700510E-02 0.21847247E+02</pdfrwt>
<pdfrwt beam="2">  1       21 0.16008975E-02 0.21847247E+02</pdfrwt>
<totfact> 0.17009183E+08</totfact>
</mgrwt>
</event>
<event>
 4    1  0.2761157E+004  0.3658620E+02  0.7546771E-02  0.1534950E+00
         21   -1    0    0  503  502  0.00000000000E+00  0.00000000000E+00  0.10903081755E+02  0.10903081755E+02  0.00000000000E+00 0.  1.
         21   -1    0    0  501  503 -0.00000000000E+00 -0.00000000000E+00 -0.12476927551E+03  0.12476927551E+03  0.00000000000E+00 0. -1.
          2    1    1    2  501    0 -0.26772703417E+02  0.24935359352E+02 -0.65524388641E+02  0.75046620850E+02  0.00000000000E+00 0. -1.
         -2    1    1    2    0  502  0.26772703417E+02 -0.24935359352E+02 -0.48341805117E+02  0.60625736418E+02  0.00000000000E+00 0.  1.
<mgrwt>
<rscale>  2 0.36586197E+02</rscale>
<asrwt>0</asrwt>
<pdfrwt beam="1">  1       21 0.16773970E-02 0.36586197E+02</pdfrwt>
<pdfrwt beam="2">  1       21 0.19195275E-01 0.36586197E+02</pdfrwt>
<totfact> 0.33270731E+07</totfact>
</mgrwt>
</event>
<event>
 4    1  0.2761157E+004  0.4002376E+02  0.7546771E-02  0.1508037E+00
         21   -1    0    0  503  502  0.00000000000E+00  0.00000000000E+00  0.70916174907E+01  0.70916174907E+01  0.00000000000E+00 0.  1.
         21   -1    0    0  501  503 -0.00000000000E+00 -0.00000000000E+00 -0.26422609528E+03  0.26422609528E+03  0.00000000000E+00 0. -1.
          2    1    1    2  501    0  0.20567852476E+02 -0.34334595596E+02 -0.18024263044E+03  0.18463289750E+03  0.00000000000E+00 0. -1.
         -2    1    1    2    0  502 -0.20567852476E+02  0.34334595596E+02 -0.76891847348E+02  0.86684815272E+02  0.00000000000E+00 0.  1.
<mgrwt>
<rscale>  2 0.40023756E+02</rscale>
<asrwt>0</asrwt>
<pdfrwt beam="1">  1       21 0.10910181E-02 0.40023756E+02</pdfrwt>
<pdfrwt beam="2">  1       21 0.40650167E-01 0.40023756E+02</pdfrwt>
<totfact> 0.16414058E+07</totfact>
</mgrwt>
</event>
<event>
 4    1  0.2761157E+004  0.3139373E+02  0.7546771E-02  0.1583175E+00
         21   -1    0    0  501  502  0.00000000000E+00  0.00000000000E+00  0.18620510383E+02  0.18620510383E+02  0.00000000000E+00 0.  1.
         21   -1    0    0  502  503 -0.00000000000E+00 -0.00000000000E+00 -0.54926855667E+02  0.54926855667E+02  0.00000000000E+00 0. -1.
          2    1    1    2  501    0 -0.31316773505E+02  0.21968665456E+01 -0.11139945973E+02  0.33311633428E+02  0.00000000000E+00 0. -1.
         -2    1    1    2    0  503  0.31316773505E+02 -0.21968665456E+01 -0.25166399312E+02  0.40235732622E+02  0.00000000000E+00 0.  1.
<mgrwt>
<rscale>  2 0.31393734E+02</rscale>
<asrwt>0</asrwt>
<pdfrwt beam="1">  1       21 0.28646940E-02 0.31393734E+02</pdfrwt>
<pdfrwt beam="2">  1       21 0.84502853E-02 0.31393734E+02</pdfrwt>
<totfact> 0.56895208E+07</totfact>
</mgrwt>
</event>
<event>
 4    1  0.2761157E+004  0.2480699E+02  0.7546771E-02  0.1663790E+00
         21   -1    0    0  503  502  0.00000000000E+00  0.00000000000E+00  0.56853899863E+02  0.56853899863E+02  0.00000000000E+00 0.  1.
         21   -1    0    0  501  503 -0.00000000000E+00 -0.00000000000E+00 -0.11584838822E+02  0.11584838822E+02  0.00000000000E+00 0. -1.
          2    1    1    2  501    0 -0.23092025596E+02  0.90633871944E+01  0.13865062919E+02  0.28418772023E+02  0.00000000000E+00 0. -1.
         -2    1    1    2    0  502  0.23092025596E+02 -0.90633871944E+01  0.31403998122E+02  0.40019966662E+02  0.00000000000E+00 0.  1.
<mgrwt>
<rscale>  2 0.24806988E+02</rscale>
<asrwt>0</asrwt>
<pdfrwt beam="1">  1       21 0.87467537E-02 0.24806988E+02</pdfrwt>
<pdfrwt beam="2">  1       21 0.17822829E-02 0.24806988E+02</pdfrwt>
<totfact> 0.10594114E+08</totfact>
</mgrwt>
</event>
<event>
 4    1  0.2761157E+004  0.2282290E+02  0.7546771E-02  0.1694397E+00
         21   -1    0    0  501  502  0.00000000000E+00  0.00000000000E+00  0.10863151558E+02  0.10863151558E+02  0.00000000000E+00 0. -1.
         21   -1    0    0  502  503 -0.00000000000E+00 -0.00000000000E+00 -0.14109076983E+03  0.14109076983E+03  0.00000000000E+00 0.  1.
          2    1    1    2  501    0  0.21981326049E+02  0.61405088980E+01 -0.33828118373E+01  0.23072233535E+02  0.00000000000E+00 0. -1.
         -2    1    1    2    0  503 -0.21981326049E+02 -0.61405088980E+01 -0.12684480644E+03  0.12888168786E+03  0.00000000000E+00 0.  1.
<mgrwt>
<rscale>  2 0.22822895E+02</rscale>
<asrwt>0</asrwt>
<pdfrwt beam="1">  1       21 0.16712542E-02 0.22822895E+02</pdfrwt>
<pdfrwt beam="2">  1       21 0.21706271E-01 0.22822895E+02</pdfrwt>
<totfact> 0.24489655E+07</totfact>
</mgrwt>
</event>
<event>
 4    1  0.2761157E+004  0.2156209E+02  0.7546771E-02  0.1715937E+00
         21   -1    0    0  503  502  0.00000000000E+00  0.00000000000E+00  0.50018867096E+01  0.50018867096E+01  0.00000000000E+00 0. -1.
         21   -1    0    0  501  503 -0.00000000000E+00 -0.00000000000E+00 -0.24803490631E+03  0.24803490631E+03  0.00000000000E+00 0.  1.
          2    1    1    2  501    0 -0.16179460316E+02  0.14253021259E+02 -0.22155855282E+03  0.22260529166E+03  0.00000000000E+00 0.  1.
         -2    1    1    2    0  502  0.16179460316E+02 -0.14253021259E+02 -0.21474466788E+02  0.30431501359E+02  0.00000000000E+00 0. -1.
<mgrwt>
<rscale>  2 0.21562086E+02</rscale>
<asrwt>0</asrwt>
<pdfrwt beam="1">  1       21 0.76952116E-03 0.21562086E+02</pdfrwt>
<pdfrwt beam="2">  1       21 0.38159210E-01 0.21562086E+02</pdfrwt>
<totfact> 0.28009963E+07</totfact>
</mgrwt>
</event>
<event>
 4    1  0.2761157E+004  0.2294422E+02  0.7546771E-02  0.1692416E+00
         21   -1    0    0  501  502  0.00000000000E+00  0.00000000000E+00  0.34830244858E+00  0.34830244858E+00  0.00000000000E+00 0. -1.
         21   -1    0    0  502  503 -0.00000000000E+00 -0.00000000000E+00 -0.16680916726E+04  0.16680916726E+04  0.00000000000E+00 0.  1.
          2    1    1    2  501    0 -0.16052605492E+02 -0.16393629409E+02 -0.57822378497E+03  0.57867882520E+03  0.00000000000E+00 0. -1.
         -2    1    1    2    0  503  0.16052605492E+02  0.16393629409E+02 -0.10895195852E+04  0.10897611499E+04  0.00000000000E+00 0.  1.
<mgrwt>
<rscale>  2 0.22944220E+02</rscale>
<asrwt>0</asrwt>
<pdfrwt beam="1">  1       21 0.53584361E-04 0.22944220E+02</pdfrwt>
<pdfrwt beam="2">  1       21 0.25663251E+00 0.22944220E+02</pdfrwt>
<totfact> 0.19093123E+07</totfact>
</mgrwt>
</event>
<event>
 4    1  0.2761157E+004  0.3716555E+02  0.7546771E-02  0.1530170E+00
         21   -1    0    0  503  502  0.00000000000E+00  0.00000000000E+00  0.60359754074E+00  0.60359754074E+00  0.00000000000E+00 0.  1.
         21   -1    0    0  501  503 -0.00000000000E+00 -0.00000000000E+00 -0.27930786261E+04  0.27930786261E+04  0.00000000000E+00 0. -1.
          2    1    1    2  501    0 -0.16030135300E+02  0.33530777159E+02 -0.19899946772E+04  0.19903417027E+04  0.00000000000E+00 0. -1.
         -2    1    1    2    0  502  0.16030135300E+02 -0.33530777159E+02 -0.80248035132E+03  0.80334052089E+03  0.00000000000E+00 0.  1.
<mgrwt>
<rscale>  2 0.37165552E+02</rscale>
<asrwt>0</asrwt>
<pdfrwt beam="1">  1       21 0.92860732E-04 0.37165552E+02</pdfrwt>
<pdfrwt beam="2">  1       21 0.42970639E+00 0.37165552E+02</pdfrwt>
<totfact> 0.10699212E+06</totfact>
</mgrwt>
</event>
<event>
 4    1  0.2761157E+004  0.2738796E+02  0.7546771E-02  0.1628896E+00
         21   -1    0    0  503  502  0.00000000000E+00  0.00000000000E+00  0.27990667712E+01  0.27990667712E+01  0.00000000000E+00 0.  1.
         21   -1    0    0  501  503 -0.00000000000E+00 -0.00000000000E+00 -0.32396002343E+03  0.32396002343E+03  0.00000000000E+00 0. -1.
          2    1    1    2  501    0  0.19984911962E+02  0.18727077997E+02 -0.22849456392E+03  0.23013010645E+03  0.00000000000E+00 0. -1.
         -2    1    1    2    0  502 -0.19984911962E+02 -0.18727077997E+02 -0.92666392739E+02  0.96628983745E+02  0.00000000000E+00 0.  1.
<mgrwt>
<rscale>  2 0.27387956E+02</rscale>
<asrwt>0</asrwt>
<pdfrwt beam="1">  1       21 0.43062576E-03 0.27387956E+02</pdfrwt>
<pdfrwt beam="2">  1       21 0.49839992E-01 0.27387956E+02</pdfrwt>
<totfact> 0.41883891E+07</totfact>
</mgrwt>
</event>
<event>
 4    1  0.2761157E+004  0.2254102E+02  0.7546771E-02  0.1699060E+00
         21   -1    0    0  503  502  0.00000000000E+00  0.00000000000E+00  0.10215710356E+03  0.10215710356E+03  0.00000000000E+00 0. -1.
         21   -1    0    0  501  503 -0.00000000000E+00 -0.00000000000E+00 -0.94234910801E+01  0.94234910801E+01  0.00000000000E+00 0.  1.
          2    1    1    2  501    0  0.55629038586E+01 -0.21843801272E+02  0.80293614691E+01  0.23928397334E+02  0.00000000000E+00 0.  1.
         -2    1    1    2    0  502 -0.55629038586E+01  0.21843801272E+02  0.84704251008E+02  0.87652197304E+02  0.00000000000E+00 0. -1.
<mgrwt>
<rscale>  2 0.22541019E+02</rscale>
<asrwt>0</asrwt>
<pdfrwt beam="1">  1       21 0.15716477E-01 0.22541019E+02</pdfrwt>
<pdfrwt beam="2">  1       21 0.14497679E-02 0.22541019E+02</pdfrwt>
<totfact> 0.53018383E+07</totfact>
</mgrwt>
</event>
<event>
 4    1  0.2761157E+004  0.2183079E+02  0.7546771E-02  0.1711195E+00
         21   -1    0    0  501  502  0.00000000000E+00  0.00000000000E+00  0.15671998772E+03  0.15671998772E+03  0.00000000000E+00 0.  1.
         21   -1    0    0  502  503 -0.00000000000E+00 -0.00000000000E+00 -0.52120813789E+01  0.52120813789E+01  0.00000000000E+00 0. -1.
          2    1    1    2  501    0 -0.18924230869E+02 -0.10883790283E+02  0.12801001209E+03  0.12985817880E+03  0.00000000000E+00 0.  1.
         -2    1    1    2    0  503  0.18924230869E+02  0.10883790283E+02  0.23497894249E+02  0.32073890301E+02  0.00000000000E+00 0. -1.
<mgrwt>
<rscale>  2 0.21830790E+02</rscale>
<asrwt>0</asrwt>
<pdfrwt beam="1">  1       21 0.24110764E-01 0.21830790E+02</pdfrwt>
<pdfrwt beam="2">  1       21 0.80185879E-03 0.21830790E+02</pdfrwt>
<totfact> 0.60868073E+07</totfact>
</mgrwt>
</event>
<event>
 4    1  0.2761157E+004  0.2492825E+02  0.7546771E-02  0.1662035E+00
         21   -1    0    0  503  502  0.00000000000E+00  0.00000000000E+00  0.53732920870E+00  0.53732920870E+00  0.00000000000E+00 0.  1.
         21   -1    0    0  501  503 -0.00000000000E+00 -0.00000000000E+00 -0.14176419547E+04  0.14176419547E+04  0.00000000000E+00 0. -1.
          2    1    1    2  501    0 -0.27228036275E+01  0.24779103112E+02 -0.10128942416E+04  0.10132009486E+04  0.00000000000E+00 0. -1.
         -2    1    1    2    0  502  0.27228036275E+01 -0.24779103112E+02 -0.40421038392E+03  0.40497833532E+03  0.00000000000E+00 0.  1.
<mgrwt>
<rscale>  2 0.24928249E+02</rscale>
<asrwt>0</asrwt>
<pdfrwt beam="1">  1       21 0.82668322E-04 0.24928249E+02</pdfrwt>
<pdfrwt beam="2">  1       21 0.21809272E+00 0.24928249E+02</pdfrwt>
<totfact> 0.16393466E+07</totfact>
</mgrwt>
</event>
<event>
 4    1  0.2761157E+004  0.5986007E+02  0.7546771E-02  0.1398420E+00
         21   -1    0    0  501  502  0.00000000000E+00  0.00000000000E+00  0.42228996434E+02  0.42228996434E+02  0.00000000000E+00 0. -1.
         21   -1    0    0  502  503 -0.00000000000E+00 -0.00000000000E+00 -0.85040913790E+02  0.85040913790E+02  0.00000000000E+00 0.  1.
          2    1    1    2  501    0  0.43547898310E+02  0.41070774395E+02 -0.18409175307E+02  0.62626876755E+02  0.00000000000E+00 0.  1.
         -2    1    1    2    0  503 -0.43547898310E+02 -0.41070774395E+02 -0.24402742049E+02  0.64643033469E+02  0.00000000000E+00 0. -1.
<mgrwt>
<rscale>  2 0.59860070E+02</rscale>
<asrwt>0</asrwt>
<pdfrwt beam="1">  1       21 0.64967687E-02 0.59860070E+02</pdfrwt>
<pdfrwt beam="2">  1       21 0.13083217E-01 0.59860070E+02</pdfrwt>
<totfact> 0.79624184E+06</totfact>
</mgrwt>
</event>
<event>
 4    1  0.2761157E+004  0.2528508E+02  0.7546771E-02  0.1656941E+00
         21   -1    0    0  503  502  0.00000000000E+00  0.00000000000E+00  0.18439480634E+02  0.18439480634E+02  0.00000000000E+00 0.  1.
         21   -1    0    0  501  503 -0.00000000000E+00 -0.00000000000E+00 -0.26661606075E+03  0.26661606075E+03  0.00000000000E+00 0. -1.
          2    1    1    2  501    0  0.38774923399E+01 -0.24985998384E+02 -0.25702590911E+03  0.25826663164E+03  0.00000000000E+00 0. -1.
         -2    1    1    2    0  502 -0.38774923399E+01  0.24985998384E+02  0.88493289916E+01  0.26788909751E+02  0.00000000000E+00 0.  1.
<mgrwt>
<rscale>  2 0.25285076E+02</rscale>
<asrwt>0</asrwt>
<pdfrwt beam="1">  1       21 0.28368432E-02 0.25285076E+02</pdfrwt>
<pdfrwt beam="2">  1       21 0.41017856E-01 0.25285076E+02</pdfrwt>
<totfact> 0.34575183E+06</totfact>
</mgrwt>
</event>
<event>
 4    1  0.2761157E+004  0.2644806E+02  0.7546771E-02  0.1641034E+00
         21   -1    0    0  503  502  0.00000000000E+00  0.00000000000E+00  0.14163675355E+03  0.14163675355E+03  0.00000000000E+00 0.  1.
         21   -1    0    0  501  503 -0.00000000000E+00 -0.00000000000E+00 -0.13038214804E+02  0.13038214804E+02  0.00000000000E+00 0. -1.
          2    1    1    2  501    0  0.24401284735E+02  0.10201826554E+02  0.33440701694E+01  0.26658634005E+02  0.00000000000E+00 0. -1.
         -2    1    1    2    0  502 -0.24401284735E+02 -0.10201826554E+02  0.12525446857E+03  0.12801633434E+03  0.00000000000E+00 0.  1.
<mgrwt>
<rscale>  2 0.26448062E+02</rscale>
<asrwt>0</asrwt>
<pdfrwt beam="1">  1       21 0.21790269E-01 0.26448062E+02</pdfrwt>
<pdfrwt beam="2">  1       21 0.20058793E-02 0.26448062E+02</pdfrwt>
<totfact> 0.18961985E+07</totfact>
</mgrwt>
</event>
<event>
 4    1  0.2761157E+004  0.2236403E+02  0.7546771E-02  0.1702031E+00
         21   -1    0    0  501  502  0.00000000000E+00  0.00000000000E+00  0.37101632364E+01  0.37101632364E+01  0.00000000000E+00 0.  1.
         21   -1    0    0  502  503 -0.00000000000E+00 -0.00000000000E+00 -0.48419417341E+03  0.48419417341E+03  0.00000000000E+00 0. -1.
          2    1    1    2  501    0 -0.18327905864E+02 -0.12815519142E+02 -0.33013526307E+02  0.39875338035E+02  0.00000000000E+00 0.  1.
         -2    1    1    2    0  503  0.18327905864E+02  0.12815519142E+02 -0.44747048386E+03  0.44802899861E+03  0.00000000000E+00 0. -1.
<mgrwt>
<rscale>  2 0.22364026E+02</rscale>
<asrwt>0</asrwt>
<pdfrwt beam="1">  1       21 0.57079441E-03 0.22364026E+02</pdfrwt>
<pdfrwt beam="2">  1       21 0.74491403E-01 0.22364026E+02</pdfrwt>
<totfact> 0.11831245E+07</totfact>
</mgrwt>
</event>
<event>
 4    1  0.2761157E+004  0.2284762E+02  0.7546771E-02  0.1693992E+00
         21   -1    0    0  501  502  0.00000000000E+00  0.00000000000E+00  0.26482601299E+03  0.26482601299E+03  0.00000000000E+00 0.  1.
         21   -1    0    0  502  503 -0.00000000000E+00 -0.00000000000E+00 -0.29489951231E+01  0.29489951231E+01  0.00000000000E+00 0. -1.
          2    1    1    2  501    0  0.17586841902E+02 -0.14584817417E+02  0.20803529690E+03  0.20928616452E+03  0.00000000000E+00 0.  1.
         -2    1    1    2    0  503 -0.17586841902E+02  0.14584817417E+02  0.53841720976E+02  0.58488843593E+02  0.00000000000E+00 0. -1.
<mgrwt>
<rscale>  2 0.22847624E+02</rscale>
<asrwt>0</asrwt>
<pdfrwt beam="1">  1       21 0.40742445E-01 0.22847624E+02</pdfrwt>
<pdfrwt beam="2">  1       21 0.45369176E-03 0.22847624E+02</pdfrwt>
<totfact> 0.54859573E+07</totfact>
</mgrwt>
</event>
<event>
 4    1  0.2761157E+004  0.2387762E+02  0.7546771E-02  0.1677667E+00
         21   -1    0    0  501  502  0.00000000000E+00  0.00000000000E+00  0.10694826948E+02  0.10694826948E+02  0.00000000000E+00 0.  1.
         21   -1    0    0  502  503 -0.00000000000E+00 -0.00000000000E+00 -0.73322921104E+02  0.73322921104E+02  0.00000000000E+00 0. -1.
          2    1    1    2  501    0  0.37259328888E+01 -0.23585121968E+02 -0.93669500419E+01  0.25649177515E+02  0.00000000000E+00 0.  1.
         -2    1    1    2    0  503 -0.37259328888E+01  0.23585121968E+02 -0.53261144114E+02  0.58368570536E+02  0.00000000000E+00 0. -1.
<mgrwt>
<rscale>  2 0.23877616E+02</rscale>
<asrwt>0</asrwt>
<pdfrwt beam="1">  1       21 0.16453580E-02 0.23877616E+02</pdfrwt>
<pdfrwt beam="2">  1       21 0.11280449E-01 0.23877616E+02</pdfrwt>
<totfact> 0.77723228E+07</totfact>
</mgrwt>
</event>
<event>
 4    1  0.2761157E+004  0.2337471E+02  0.7546771E-02  0.1685507E+00
         21   -1    0    0  501  502  0.00000000000E+00  0.00000000000E+00  0.41699666620E+01  0.41699666620E+01  0.00000000000E+00 0. -1.
         21   -1    0    0  502  503 -0.00000000000E+00 -0.00000000000E+00 -0.23817137728E+03  0.23817137728E+03  0.00000000000E+00 0.  1.
          2    1    1    2  501    0  0.65780458691E+01 -0.22430031157E+02 -0.35729252010E+02  0.42696093900E+02  0.00000000000E+00 0. -1.
         -2    1    1    2    0  503 -0.65780458691E+01  0.22430031157E+02 -0.19827215861E+03  0.19964525005E+03  0.00000000000E+00 0.  1.
<mgrwt>
<rscale>  2 0.23374708E+02</rscale>
<asrwt>0</asrwt>
<pdfrwt beam="1">  1       21 0.64153322E-03 0.23374708E+02</pdfrwt>
<pdfrwt beam="2">  1       21 0.36641757E-01 0.23374708E+02</pdfrwt>
<totfact> 0.40334543E+07</totfact>
</mgrwt>
</event>
<event>
 4    1  0.2761157E+004  0.2321138E+02  0.7546771E-02  0.1688107E+00
         21   -1    0    0  503  502  0.00000000000E+00  0.00000000000E+00  0.30890334203E+02  0.30890334203E+02  0.00000000000E+00 0.  1.
         21   -1    0    0  501  503 -0.00000000000E+00 -0.00000000000E+00 -0.37428186118E+02  0.37428186118E+02  0.00000000000E+00 0. -1.
          2    1    1    2  501    0 -0.22618609538E+02  0.52121515278E+01 -0.28231046823E+02  0.36548050915E+02  0.00000000000E+00 0. -1.
         -2    1    1    2    0  502  0.22618609538E+02 -0.52121515278E+01  0.21693194908E+02  0.31770469406E+02  0.00000000000E+00 0.  1.
<mgrwt>
<rscale>  2 0.23211377E+02</rscale>
<asrwt>0</asrwt>
<pdfrwt beam="1">  1       21 0.47523591E-02 0.23211377E+02</pdfrwt>
<pdfrwt beam="2">  1       21 0.57581825E-02 0.23211377E+02</pdfrwt>
<totfact> 0.44486358E+07</totfact>
</mgrwt>
</event>
<event>
 4    1  0.2761157E+004  0.2134656E+02  0.7546771E-02  0.1719804E+00
         21   -1    0    0  501  502  0.00000000000E+00  0.00000000000E+00  0.55049805440E+01  0.55049805440E+01  0.00000000000E+00 0.  1.
         21   -1    0    0  502  503 -0.00000000000E+00 -0.00000000000E+00 -0.10222516158E+03  0.10222516158E+03  0.00000000000E+00 0. -1.
          2    1    1    2  501    0 -0.19658086856E+02 -0.83207638560E+01 -0.24864386113E+02  0.32770614684E+02  0.00000000000E+00 0.  1.
         -2    1    1    2    0  503  0.19658086856E+02  0.83207638560E+01 -0.71855794923E+02  0.74959527439E+02  0.00000000000E+00 0. -1.
<mgrwt>
<rscale>  2 0.21346557E+02</rscale>
<asrwt>0</asrwt>
<pdfrwt beam="1">  1       21 0.84692014E-03 0.21346557E+02</pdfrwt>
<pdfrwt beam="2">  1       21 0.15726947E-01 0.21346557E+02</pdfrwt>
<totfact> 0.11709519E+08</totfact>
</mgrwt>
</event>
<event>
 4    1  0.2761157E+004  0.2202735E+02  0.7546771E-02  0.1707779E+00
         21   -1    0    0  501  502  0.00000000000E+00  0.00000000000E+00  0.22899651007E+03  0.22899651007E+03  0.00000000000E+00 0.  1.
         21   -1    0    0  502  503 -0.00000000000E+00 -0.00000000000E+00 -0.23838445108E+01  0.23838445108E+01  0.00000000000E+00 0. -1.
          2    1    1    2  501    0  0.16426911185E+02  0.14675171095E+02  0.15188032261E+03  0.15346933392E+03  0.00000000000E+00 0. -1.
         -2    1    1    2    0  503 -0.16426911185E+02 -0.14675171095E+02  0.74732342954E+02  0.77911020666E+02  0.00000000000E+00 0.  1.
<mgrwt>
<rscale>  2 0.22027348E+02</rscale>
<asrwt>0</asrwt>
<pdfrwt beam="1">  1       21 0.35230215E-01 0.22027348E+02</pdfrwt>
<pdfrwt beam="2">  1       21 0.36674549E-03 0.22027348E+02</pdfrwt>
<totfact> 0.97420124E+07</totfact>
</mgrwt>
</event>
<event>
 4    1  0.2761157E+004  0.2684757E+02  0.7546771E-02  0.1635800E+00
         21   -1    0    0  503  502  0.00000000000E+00  0.00000000000E+00  0.11994783331E+02  0.11994783331E+02  0.00000000000E+00 0.  1.
         21   -1    0    0  501  503 -0.00000000000E+00 -0.00000000000E+00 -0.60308886735E+02  0.60308886735E+02  0.00000000000E+00 0. -1.
          2    1    1    2  501    0  0.19511657684E+02 -0.18441448163E+02 -0.26324504529E+02  0.37600150726E+02  0.00000000000E+00 0.  1.
         -2    1    1    2    0  502 -0.19511657684E+02  0.18441448163E+02 -0.21989598875E+02  0.34703519341E+02  0.00000000000E+00 0. -1.
<mgrwt>
<rscale>  2 0.26847566E+02</rscale>
<asrwt>0</asrwt>
<pdfrwt beam="1">  1       21 0.18453513E-02 0.26847566E+02</pdfrwt>
<pdfrwt beam="2">  1       21 0.92782904E-02 0.26847566E+02</pdfrwt>
<totfact> 0.93017157E+07</totfact>
</mgrwt>
</event>
<event>
 4    1  0.2761157E+004  0.2094117E+02  0.7546771E-02  0.1727235E+00
         21   -1    0    0  501  502  0.00000000000E+00  0.00000000000E+00  0.82096923161E+02  0.82096923161E+02  0.00000000000E+00 0. -1.
         21   -1    0    0  502  503 -0.00000000000E+00 -0.00000000000E+00 -0.72906098549E+01  0.72906098549E+01  0.00000000000E+00 0.  1.
          2    1    1    2  501    0  0.16032861517E+02  0.13471446336E+02  0.60511412755E+02  0.64032519772E+02  0.00000000000E+00 0. -1.
         -2    1    1    2    0  503 -0.16032861517E+02 -0.13471446336E+02  0.14294900552E+02  0.25355013244E+02  0.00000000000E+00 0.  1.
<mgrwt>
<rscale>  2 0.20941168E+02</rscale>
<asrwt>0</asrwt>
<pdfrwt beam="1">  1       21 0.12630295E-01 0.20941168E+02</pdfrwt>
<pdfrwt beam="2">  1       21 0.11216323E-02 0.20941168E+02</pdfrwt>
<totfact> 0.11074893E+08</totfact>
</mgrwt>
</event>
<event>
 4    1  0.2761157E+004  0.3345564E+02  0.7546771E-02  0.1562759E+00
         21   -1    0    0  503  502  0.00000000000E+00  0.00000000000E+00  0.24900195160E+02  0.24900195160E+02  0.00000000000E+00 0. -1.
         21   -1    0    0  501  503 -0.00000000000E+00 -0.00000000000E+00 -0.15299976080E+03  0.15299976080E+03  0.00000000000E+00 0.  1.
          2    1    1    2  501    0 -0.27315840972E+02  0.19316433615E+02 -0.13879976307E+03  0.14277483673E+03  0.00000000000E+00 0.  1.
         -2    1    1    2    0  502  0.27315840972E+02 -0.19316433615E+02  0.10700197431E+02  0.35125119226E+02  0.00000000000E+00 0. -1.
<mgrwt>
<rscale>  2 0.33455639E+02</rscale>
<asrwt>0</asrwt>
<pdfrwt beam="1">  1       21 0.38307992E-02 0.33455639E+02</pdfrwt>
<pdfrwt beam="2">  1       21 0.23538425E-01 0.33455639E+02</pdfrwt>
<totfact> 0.62274926E+06</totfact>
</mgrwt>
</event>
<event>
 4    1  0.2761157E+004  0.2220274E+02  0.7546771E-02  0.1704769E+00
         21   -1    0    0  503  502  0.00000000000E+00  0.00000000000E+00  0.55114990454E+02  0.55114990454E+02  0.00000000000E+00 0.  1.
         21   -1    0    0  501  503 -0.00000000000E+00 -0.00000000000E+00 -0.32408670158E+02  0.32408670158E+02  0.00000000000E+00 0. -1.
          2    1    1    2  501    0  0.72436070304E+01  0.20987898928E+02 -0.25883427128E+02  0.34101518208E+02  0.00000000000E+00 0. -1.
         -2    1    1    2    0  502 -0.72436070304E+01 -0.20987898928E+02  0.48589747425E+02  0.53422142404E+02  0.00000000000E+00 0.  1.
<mgrwt>
<rscale>  2 0.22202742E+02</rscale>
<asrwt>0</asrwt>
<pdfrwt beam="1">  1       21 0.84792293E-02 0.22202742E+02</pdfrwt>
<pdfrwt beam="2">  1       21 0.49859493E-02 0.22202742E+02</pdfrwt>
<totfact> 0.21795718E+07</totfact>
</mgrwt>
</event>
<event>
 4    1  0.2761157E+004  0.2677332E+02  0.7546771E-02  0.1636764E+00
         21   -1    0    0  503  502  0.00000000000E+00  0.00000000000E+00  0.24732573202E+02  0.24732573202E+02  0.00000000000E+00 0. -1.
         21   -1    0    0  501  503 -0.00000000000E+00 -0.00000000000E+00 -0.29051214472E+02  0.29051214472E+02  0.00000000000E+00 0.  1.
          2    1    1    2  501    0 -0.26765815921E+02 -0.63380041241E+00 -0.34676477940E+01  0.26996947719E+02  0.00000000000E+00 0.  1.
         -2    1    1    2    0  502  0.26765815921E+02  0.63380041241E+00 -0.85099347540E+00  0.26786839955E+02  0.00000000000E+00 0. -1.
<mgrwt>
<rscale>  2 0.26773319E+02</rscale>
<asrwt>0</asrwt>
<pdfrwt beam="1">  1       21 0.38050113E-02 0.26773319E+02</pdfrwt>
<pdfrwt beam="2">  1       21 0.44694176E-02 0.26773319E+02</pdfrwt>
<totfact> 0.98413039E+07</totfact>
</mgrwt>
</event>
<event>
 4    1  0.2761157E+004  0.2122682E+02  0.7546771E-02  0.1721977E+00
         21   -1    0    0  501  502  0.00000000000E+00  0.00000000000E+00  0.36718107058E+00  0.36718107058E+00  0.00000000000E+00 0. -1.
         21   -1    0    0  502  503 -0.00000000000E+00 -0.00000000000E+00 -0.15369668927E+04  0.15369668927E+04  0.00000000000E+00 0.  1.
          2    1    1    2  501    0 -0.46554565860E+01 -0.20710009909E+02 -0.42317621886E+03  0.42370826047E+03  0.00000000000E+00 0. -1.
         -2    1    1    2    0  503  0.46554565860E+01  0.20710009909E+02 -0.11134234928E+04  0.11136258133E+04  0.00000000000E+00 0.  1.
<mgrwt>
<rscale>  2 0.21226818E+02</rscale>
<asrwt>0</asrwt>
<pdfrwt beam="1">  1       21 0.56488609E-04 0.21226818E+02</pdfrwt>
<pdfrwt beam="2">  1       21 0.23645974E+00 0.21226818E+02</pdfrwt>
<totfact> 0.22142315E+07</totfact>
</mgrwt>
</event>
<event>
 4    1  0.2761157E+004  0.2884773E+02  0.7546771E-02  0.1611186E+00
         21   -1    0    0  503  502  0.00000000000E+00  0.00000000000E+00  0.51639500045E+00  0.51639500045E+00  0.00000000000E+00 0. -1.
         21   -1    0    0  501  503 -0.00000000000E+00 -0.00000000000E+00 -0.16159778703E+04  0.16159778703E+04  0.00000000000E+00 0.  1.
          2    1    1    2  501    0 -0.10888495275E+02 -0.26713898369E+02 -0.85008203594E+03  0.85057137238E+03  0.00000000000E+00 0. -1.
         -2    1    1    2    0  502  0.10888495275E+02  0.26713898369E+02 -0.76537943938E+03  0.76592289294E+03  0.00000000000E+00 0.  1.
<mgrwt>
<rscale>  2 0.28847733E+02</rscale>
<asrwt>0</asrwt>
<pdfrwt beam="1">  1       21 0.79446405E-04 0.28847733E+02</pdfrwt>
<pdfrwt beam="2">  1       21 0.24860879E+00 0.28847733E+02</pdfrwt>
<totfact> 0.12195831E+07</totfact>
</mgrwt>
</event>
<event>
 4    1  0.2761157E+004  0.2214793E+02  0.7546771E-02  0.1705706E+00
         21   -1    0    0  501  502  0.00000000000E+00  0.00000000000E+00  0.44174280779E+03  0.44174280779E+03  0.00000000000E+00 0. -1.
         21   -1    0    0  502  503 -0.00000000000E+00 -0.00000000000E+00 -0.53728495788E+01  0.53728495788E+01  0.00000000000E+00 0.  1.
          2    1    1    2  501    0 -0.11523610179E+02  0.18913943084E+02  0.41730498957E+03  0.41789231286E+03  0.00000000000E+00 0. -1.
         -2    1    1    2    0  503  0.11523610179E+02 -0.18913943084E+02  0.19064968645E+02  0.29223344504E+02  0.00000000000E+00 0.  1.
<mgrwt>
<rscale>  2 0.22147931E+02</rscale>
<asrwt>0</asrwt>
<pdfrwt beam="1">  1       21 0.67960403E-01 0.22147931E+02</pdfrwt>
<pdfrwt beam="2">  1       21 0.82659259E-03 0.22147931E+02</pdfrwt>
<totfact> 0.82275287E+06</totfact>
</mgrwt>
</event>
<event>
 4    1  0.2761157E+004  0.2008735E+02  0.7546771E-02  0.1743597E+00
         21   -1    0    0  501  502  0.00000000000E+00  0.00000000000E+00  0.34474315328E+03  0.34474315328E+03  0.00000000000E+00 0. -1.
         21   -1    0    0  502  503 -0.00000000000E+00 -0.00000000000E+00 -0.17890458689E+01  0.17890458689E+01  0.00000000000E+00 0.  1.
          2    1    1    2  501    0  0.12582888498E+02  0.15657985717E+02  0.27336186565E+03  0.27409890768E+03  0.00000000000E+00 0.  1.
         -2    1    1    2    0  503 -0.12582888498E+02 -0.15657985717E+02  0.69592241753E+02  0.72433291461E+02  0.00000000000E+00 0. -1.
<mgrwt>
<rscale>  2 0.20087349E+02</rscale>
<asrwt>0</asrwt>
<pdfrwt beam="1">  1       21 0.53037356E-01 0.20087349E+02</pdfrwt>
<pdfrwt beam="2">  1       21 0.27523810E-03 0.20087349E+02</pdfrwt>
<totfact> 0.66415783E+07</totfact>
</mgrwt>
</event>
<event>
 4    1  0.2761157E+004  0.2222153E+02  0.7546771E-02  0.1704449E+00
         21   -1    0    0  501  502  0.00000000000E+00  0.00000000000E+00  0.88362456250E+01  0.88362456250E+01  0.00000000000E+00 0. -1.
         21   -1    0    0  502  503 -0.00000000000E+00 -0.00000000000E+00 -0.89954087920E+02  0.89954087920E+02  0.00000000000E+00 0.  1.
          2    1    1    2  501    0 -0.22159947399E+02 -0.16532376673E+01 -0.10159409405E+02  0.24433789370E+02  0.00000000000E+00 0. -1.
         -2    1    1    2    0  503  0.22159947399E+02  0.16532376673E+01 -0.70958432889E+02  0.74356544175E+02  0.00000000000E+00 0.  1.
<mgrwt>
<rscale>  2 0.22221532E+02</rscale>
<asrwt>0</asrwt>
<pdfrwt beam="1">  1       21 0.13594225E-02 0.22221532E+02</pdfrwt>
<pdfrwt beam="2">  1       21 0.13839090E-01 0.22221532E+02</pdfrwt>
<totfact> 0.72271357E+07</totfact>
</mgrwt>
</event>
<event>
 4    1  0.2761157E+004  0.3609935E+02  0.7546771E-02  0.1539049E+00
         21   -1    0    0  503  502  0.00000000000E+00  0.00000000000E+00  0.78239924516E+03  0.78239924516E+03  0.00000000000E+00 0. -1.
         21   -1    0    0  501  503 -0.00000000000E+00 -0.00000000000E+00 -0.20666617365E+01  0.20666617365E+01  0.00000000000E+00 0.  1.
          2    1    1    2  501    0  0.20848951366E+02 -0.29470054993E+02  0.21737737916E+03  0.22035445964E+03  0.00000000000E+00 0. -1.
         -2    1    1    2    0  502 -0.20848951366E+02  0.29470054993E+02  0.56295520426E+03  0.56411144725E+03  0.00000000000E+00 0.  1.
<mgrwt>
<rscale>  2 0.36099348E+02</rscale>
<asrwt>0</asrwt>
<pdfrwt beam="1">  1       21 0.12036888E+00 0.36099348E+02</pdfrwt>
<pdfrwt beam="2">  1       21 0.31794859E-03 0.36099348E+02</pdfrwt>
<totfact> 0.10565155E+07</totfact>
</mgrwt>
</event>
<event>
 4    1  0.2761157E+004  0.2844614E+02  0.7546771E-02  0.1615928E+00
         21   -1    0    0  503  502  0.00000000000E+00  0.00000000000E+00  0.51236970060E+01  0.51236970060E+01  0.00000000000E+00 0. -1.
         21   -1    0    0  501  503 -0.00000000000E+00 -0.00000000000E+00 -0.31070105824E+03  0.31070105824E+03  0.00000000000E+00 0.  1.
          2    1    1    2  501    0  0.18739129927E+02  0.21401588792E+02 -0.26351886840E+03  0.26504976324E+03  0.00000000000E+00 0.  1.
         -2    1    1    2    0  502 -0.18739129927E+02 -0.21401588792E+02 -0.42058492832E+02  0.50774992000E+02  0.00000000000E+00 0. -1.
<mgrwt>
<rscale>  2 0.28446142E+02</rscale>
<asrwt>0</asrwt>
<pdfrwt beam="1">  1       21 0.78826134E-03 0.28446142E+02</pdfrwt>
<pdfrwt beam="2">  1       21 0.47800147E-01 0.28446142E+02</pdfrwt>
<totfact> 0.18595054E+07</totfact>
</mgrwt>
</event>
<event>
 4    1  0.2761157E+004  0.3347089E+02  0.7546771E-02  0.1562614E+00
         21   -1    0    0  503  502  0.00000000000E+00  0.00000000000E+00  0.70636468993E+01  0.70636468993E+01  0.00000000000E+00 0. -1.
         21   -1    0    0  501  503 -0.00000000000E+00 -0.00000000000E+00 -0.21314229049E+03  0.21314229049E+03  0.00000000000E+00 0.  1.
          2    1    1    2  501    0 -0.24068262308E+02 -0.23259820792E+02 -0.15873576397E+03  0.16222621020E+03  0.00000000000E+00 0.  1.
         -2    1    1    2    0  502  0.24068262308E+02  0.23259820792E+02 -0.47342879622E+02  0.57979727187E+02  0.00000000000E+00 0. -1.
<mgrwt>
<rscale>  2 0.33470891E+02</rscale>
<asrwt>0</asrwt>
<pdfrwt beam="1">  1       21 0.10867149E-02 0.33470891E+02</pdfrwt>
<pdfrwt beam="2">  1       21 0.32791121E-01 0.33470891E+02</pdfrwt>
<totfact> 0.24132760E+07</totfact>
</mgrwt>
</event>
<event>
 4    1  0.2761157E+004  0.3208584E+02  0.7546771E-02  0.1576114E+00
         21   -1    0    0  503  502  0.00000000000E+00  0.00000000000E+00  0.10909928692E+01  0.10909928692E+01  0.00000000000E+00 0. -1.
         21   -1    0    0  501  503 -0.00000000000E+00 -0.00000000000E+00 -0.12083573573E+04  0.12083573573E+04  0.00000000000E+00 0.  1.
          2    1    1    2  501    0 -0.23491981004E+02 -0.21854699612E+02 -0.88667684429E+03  0.88725719341E+03  0.00000000000E+00 0.  1.
         -2    1    1    2    0  502  0.23491981004E+02  0.21854699612E+02 -0.32058952019E+03  0.32219115680E+03  0.00000000000E+00 0. -1.
<mgrwt>
<rscale>  2 0.32085839E+02</rscale>
<asrwt>0</asrwt>
<pdfrwt beam="1">  1       21 0.16784588E-03 0.32085839E+02</pdfrwt>
<pdfrwt beam="2">  1       21 0.18590022E+00 0.32085839E+02</pdfrwt>
<totfact> 0.92465733E+06</totfact>
</mgrwt>
</event>
<event>
 4    1  0.2761157E+004  0.2102406E+02  0.7546771E-02  0.1725698E+00
         21   -1    0    0  501  502  0.00000000000E+00  0.00000000000E+00  0.13669933843E+03  0.13669933843E+03  0.00000000000E+00 0. -1.
         21   -1    0    0  502  503 -0.00000000000E+00 -0.00000000000E+00 -0.14487869050E+02  0.14487869050E+02  0.00000000000E+00 0.  1.
          2    1    1    2  501    0  0.12060636362E+02  0.17220690203E+02  0.12773181189E+03  0.12945048045E+03  0.00000000000E+00 0. -1.
         -2    1    1    2    0  503 -0.12060636362E+02 -0.17220690203E+02 -0.55203425094E+01  0.21736727029E+02  0.00000000000E+00 0.  1.
<mgrwt>
<rscale>  2 0.21024061E+02</rscale>
<asrwt>0</asrwt>
<pdfrwt beam="1">  1       21 0.21030667E-01 0.21024061E+02</pdfrwt>
<pdfrwt beam="2">  1       21 0.22289030E-02 0.21024061E+02</pdfrwt>
<totfact> 0.16364299E+07</totfact>
</mgrwt>
</event>
<event>
 4    1  0.2761157E+004  0.2536542E+02  0.7546771E-02  0.1655808E+00
         21   -1    0    0  501  502  0.00000000000E+00  0.00000000000E+00  0.23915429697E+01  0.23915429697E+01  0.00000000000E+00 0.  1.
         21   -1    0    0  502  503 -0.00000000000E+00 -0.00000000000E+00 -0.27111754635E+03  0.27111754635E+03  0.00000000000E+00 0. -1.
          2    1    1    2  501    0 -0.74526419297E+01 -0.24245878160E+02 -0.14635376869E+03  0.14853561893E+03  0.00000000000E+00 0. -1.
         -2    1    1    2    0  503  0.74526419297E+01  0.24245878160E+02 -0.12237223468E+03  0.12497347039E+03  0.00000000000E+00 0.  1.
<mgrwt>
<rscale>  2 0.25365419E+02</rscale>
<asrwt>0</asrwt>
<pdfrwt beam="1">  1       21 0.36792953E-03 0.25365419E+02</pdfrwt>
<pdfrwt beam="2">  1       21 0.41710410E-01 0.25365419E+02</pdfrwt>
<totfact> 0.73213813E+07</totfact>
</mgrwt>
</event>
<event>
 4    1  0.2761157E+004  0.4342393E+02  0.7546771E-02  0.1484428E+00
         21   -1    0    0  501  502  0.00000000000E+00  0.00000000000E+00  0.84210204986E+02  0.84210204986E+02  0.00000000000E+00 0. -1.
         21   -1    0    0  502  503 -0.00000000000E+00 -0.00000000000E+00 -0.28739475400E+02  0.28739475400E+02  0.00000000000E+00 0.  1.
          2    1    1    2  501    0  0.43359031324E+02 -0.23732223458E+01  0.54276221611E+02  0.69509323217E+02  0.00000000000E+00 0. -1.
         -2    1    1    2    0  503 -0.43359031324E+02  0.23732223458E+01  0.11945079750E+01  0.43440357169E+02  0.00000000000E+00 0.  1.
<mgrwt>
<rscale>  2 0.43423931E+02</rscale>
<asrwt>0</asrwt>
<pdfrwt beam="1">  1       21 0.12955416E-01 0.43423931E+02</pdfrwt>
<pdfrwt beam="2">  1       21 0.44214578E-02 0.43423931E+02</pdfrwt>
<totfact> 0.14665378E+07</totfact>
</mgrwt>
</event>
<event>
 4    1  0.2761157E+004  0.2135180E+02  0.7546771E-02  0.1719710E+00
         21   -1    0    0  501  502  0.00000000000E+00  0.00000000000E+00  0.45898463799E+01  0.45898463799E+01  0.00000000000E+00 0. -1.
         21   -1    0    0  502  503 -0.00000000000E+00 -0.00000000000E+00 -0.21005960224E+03  0.21005960224E+03  0.00000000000E+00 0.  1.
          2    1    1    2  501    0 -0.12779319436E+02 -0.17105211225E+02 -0.24812044939E+02  0.32734337176E+02  0.00000000000E+00 0. -1.
         -2    1    1    2    0  503  0.12779319436E+02  0.17105211225E+02 -0.18065771092E+03  0.18191511144E+03  0.00000000000E+00 0.  1.
<mgrwt>
<rscale>  2 0.21351797E+02</rscale>
<asrwt>0</asrwt>
<pdfrwt beam="1">  1       21 0.70613026E-03 0.21351797E+02</pdfrwt>
<pdfrwt beam="2">  1       21 0.32316860E-01 0.21351797E+02</pdfrwt>
<totfact> 0.43163818E+07</totfact>
</mgrwt>
</event>
<event>
 4    1  0.2761157E+004  0.3774136E+02  0.7546771E-02  0.1525522E+00
         21   -1    0    0  501  502  0.00000000000E+00  0.00000000000E+00  0.10175196553E+04  0.10175196553E+04  0.00000000000E+00 0.  1.
         21   -1    0    0  502  503 -0.00000000000E+00 -0.00000000000E+00 -0.14245404711E+01  0.14245404711E+01  0.00000000000E+00 0. -1.
          2    1    1    2  501    0  0.37246791086E+02 -0.60898905244E+01  0.57507338263E+03  0.57631051146E+03  0.00000000000E+00 0. -1.
         -2    1    1    2    0  503 -0.37246791086E+02  0.60898905244E+01  0.44102173223E+03  0.44263368434E+03  0.00000000000E+00 0.  1.
<mgrwt>
<rscale>  2 0.37741359E+02</rscale>
<asrwt>0</asrwt>
<pdfrwt beam="1">  1       21 0.15654090E+00 0.37741359E+02</pdfrwt>
<pdfrwt beam="2">  1       21 0.21916089E-03 0.37741359E+02</pdfrwt>
<totfact> 0.98074230E+06</totfact>
</mgrwt>
</event>
<event>
 4    1  0.2761157E+004  0.3998599E+02  0.7546771E-02  0.1508315E+00
         21   -1    0    0  503  502  0.00000000000E+00  0.00000000000E+00  0.15158744543E+01  0.15158744543E+01  0.00000000000E+00 0. -1.
         21   -1    0    0  501  503 -0.00000000000E+00 -0.00000000000E+00 -0.15971129626E+04  0.15971129626E+04  0.00000000000E+00 0.  1.
          2    1    1    2  501    0 -0.19547164214E+02  0.34882483506E+02 -0.12635905330E+04  0.12642230477E+04  0.00000000000E+00 0.  1.
         -2    1    1    2    0  502  0.19547164214E+02 -0.34882483506E+02 -0.33200655511E+03  0.33440578930E+03  0.00000000000E+00 0. -1.
<mgrwt>
<rscale>  2 0.39985989E+02</rscale>
<asrwt>0</asrwt>
<pdfrwt beam="1">  1       21 0.23321117E-03 0.39985989E+02</pdfrwt>
<pdfrwt beam="2">  1       21 0.24570998E+00 0.39985989E+02</pdfrwt>
<totfact> 0.26775211E+06</totfact>
</mgrwt>
</event>
<event>
 4    1  0.2761157E+004  0.2074900E+02  0.7546771E-02  0.1730831E+00
         21   -1    0    0  503  502  0.00000000000E+00  0.00000000000E+00  0.16328174509E+02  0.16328174509E+02  0.00000000000E+00 0.  1.
         21   -1    0    0  501  503 -0.00000000000E+00 -0.00000000000E+00 -0.72923821688E+02  0.72923821688E+02  0.00000000000E+00 0. -1.
          2    1    1    2  501    0  0.71724558389E+01  0.19469893360E+02 -0.63954927595E+02  0.67236549836E+02  0.00000000000E+00 0. -1.
         -2    1    1    2    0  502 -0.71724558389E+01 -0.19469893360E+02  0.73592804162E+01  0.22015446360E+02  0.00000000000E+00 0.  1.
<mgrwt>
<rscale>  2 0.20748997E+02</rscale>
<asrwt>0</asrwt>
<pdfrwt beam="1">  1       21 0.25120269E-02 0.20748997E+02</pdfrwt>
<pdfrwt beam="2">  1       21 0.11219049E-01 0.20748997E+02</pdfrwt>
<totfact> 0.39502512E+07</totfact>
</mgrwt>
</event>
<event>
 4    1  0.2761157E+004  0.2039002E+02  0.7546771E-02  0.1737681E+00
         21   -1    0    0  503  502  0.00000000000E+00  0.00000000000E+00  0.14663900661E+03  0.14663900661E+03  0.00000000000E+00 0.  1.
         21   -1    0    0  501  503 -0.00000000000E+00 -0.00000000000E+00 -0.28744145290E+01  0.28744145290E+01  0.00000000000E+00 0. -1.
          2    1    1    2  501    0 -0.12545749343E+02 -0.16073494962E+02  0.63152228975E+02  0.66362316802E+02  0.00000000000E+00 0.  1.
         -2    1    1    2    0  502  0.12545749343E+02  0.16073494962E+02  0.80612363106E+02  0.83151104336E+02  0.00000000000E+00 0. -1.
<mgrwt>
<rscale>  2 0.20390024E+02</rscale>
<asrwt>0</asrwt>
<pdfrwt beam="1">  1       21 0.22559841E-01 0.20390024E+02</pdfrwt>
<pdfrwt beam="2">  1       21 0.44221773E-03 0.20390024E+02</pdfrwt>
<totfact> 0.16171870E+08</totfact>
</mgrwt>
</event>
<event>
 4    1  0.2761157E+004  0.2447151E+02  0.7546771E-02  0.1668711E+00
         21   -1    0    0  503  502  0.00000000000E+00  0.00000000000E+00  0.18697195441E+03  0.18697195441E+03  0.00000000000E+00 0.  1.
         21   -1    0    0  501  503 -0.00000000000E+00 -0.00000000000E+00 -0.56112168039E+02  0.56112168039E+02  0.00000000000E+00 0. -1.
          2    1    1    2  501    0 -0.19497033494E+02 -0.14789196824E+02 -0.52592359961E+02  0.58006990820E+02  0.00000000000E+00 0. -1.
         -2    1    1    2    0  502  0.19497033494E+02  0.14789196824E+02  0.18345214634E+03  0.18507713163E+03  0.00000000000E+00 0.  1.
<mgrwt>
<rscale>  2 0.24471507E+02</rscale>
<asrwt>0</asrwt>
<pdfrwt beam="1">  1       21 0.28764916E-01 0.24471507E+02</pdfrwt>
<pdfrwt beam="2">  1       21 0.86326413E-02 0.24471507E+02</pdfrwt>
<totfact> 0.11242791E+06</totfact>
</mgrwt>
</event>
<event>
 4    1  0.2761157E+004  0.2016073E+02  0.7546771E-02  0.1742150E+00
         21   -1    0    0  503  502  0.00000000000E+00  0.00000000000E+00  0.50469679668E+03  0.50469679668E+03  0.00000000000E+00 0. -1.
         21   -1    0    0  501  503 -0.00000000000E+00 -0.00000000000E+00 -0.80726271644E+00  0.80726271644E+00  0.00000000000E+00 0.  1.
          2    1    1    2  501    0 -0.80953344114E+01 -0.18464039953E+02  0.23962672988E+03  0.24047333508E+03  0.00000000000E+00 0. -1.
         -2    1    1    2    0  502  0.80953344114E+01  0.18464039953E+02  0.26426280408E+03  0.26503072431E+03  0.00000000000E+00 0.  1.
<mgrwt>
<rscale>  2 0.20160734E+02</rscale>
<asrwt>0</asrwt>
<pdfrwt beam="1">  1       21 0.77645409E-01 0.20160734E+02</pdfrwt>
<pdfrwt beam="2">  1       21 0.12419467E-03 0.20160734E+02</pdfrwt>
<totfact> 0.96815790E+07</totfact>
</mgrwt>
</event>
<event>
 4    1  0.2761157E+004  0.2083376E+02  0.7546771E-02  0.1729239E+00
         21   -1    0    0  501  502  0.00000000000E+00  0.00000000000E+00  0.20971543737E+02  0.20971543737E+02  0.00000000000E+00 0.  1.
         21   -1    0    0  502  503 -0.00000000000E+00 -0.00000000000E+00 -0.22886009209E+02  0.22886009209E+02  0.00000000000E+00 0. -1.
          2    1    1    2  501    0  0.11537222559E+02 -0.17347568713E+02  0.58248720321E+01  0.21632724720E+02  0.00000000000E+00 0. -1.
         -2    1    1    2    0  503 -0.11537222559E+02  0.17347568713E+02 -0.77393375047E+01  0.22224828225E+02  0.00000000000E+00 0.  1.
<mgrwt>
<rscale>  2 0.20833762E+02</rscale>
<asrwt>0</asrwt>
<pdfrwt beam="1">  1       21 0.32263913E-02 0.20833762E+02</pdfrwt>
<pdfrwt beam="2">  1       21 0.35209245E-02 0.20833762E+02</pdfrwt>
<totfact> 0.17260198E+08</totfact>
</mgrwt>
</event>
<event>
 4    1  0.2761157E+004  0.2485468E+02  0.7546771E-02  0.1663098E+00
         21   -1    0    0  501  502  0.00000000000E+00  0.00000000000E+00  0.29066686946E+03  0.29066686946E+03  0.00000000000E+00 0. -1.
         21   -1    0    0  502  503 -0.00000000000E+00 -0.00000000000E+00 -0.63353664311E+01  0.63353664311E+01  0.00000000000E+00 0.  1.
          2    1    1    2  501    0  0.13358780534E+02 -0.20959435925E+02  0.26322227797E+03  0.26439312131E+03  0.00000000000E+00 0.  1.
         -2    1    1    2    0  503 -0.13358780534E+02  0.20959435925E+02  0.21109225054E+02  0.32609114585E+02  0.00000000000E+00 0. -1.
<mgrwt>
<rscale>  2 0.24854677E+02</rscale>
<asrwt>0</asrwt>
<pdfrwt beam="1">  1       21 0.44717969E-01 0.24854677E+02</pdfrwt>
<pdfrwt beam="2">  1       21 0.97467199E-03 0.24854677E+02</pdfrwt>
<totfact> 0.15002005E+07</totfact>
</mgrwt>
</event>
<event>
 4    1  0.2761157E+004  0.3487991E+02  0.7546771E-02  0.1549670E+00
         21   -1    0    0  501  502  0.00000000000E+00  0.00000000000E+00  0.15106856001E+03  0.15106856001E+03  0.00000000000E+00 0.  1.
         21   -1    0    0  502  503 -0.00000000000E+00 -0.00000000000E+00 -0.11691273443E+02  0.11691273443E+02  0.00000000000E+00 0. -1.
          2    1    1    2  501    0 -0.34252711184E+02  0.65848146005E+01  0.11508417446E+03  0.12025379503E+03  0.00000000000E+00 0.  1.
         -2    1    1    2    0  503  0.34252711184E+02 -0.65848146005E+01  0.24293112101E+02  0.42506038422E+02  0.00000000000E+00 0. -1.
<mgrwt>
<rscale>  2 0.34879908E+02</rscale>
<asrwt>0</asrwt>
<pdfrwt beam="1">  1       21 0.23241315E-01 0.34879908E+02</pdfrwt>
<pdfrwt beam="2">  1       21 0.17986576E-02 0.34879908E+02</pdfrwt>
<totfact> 0.21045087E+07</totfact>
</mgrwt>
</event>
<event>
 4    1  0.2761157E+004  0.2219047E+02  0.7546771E-02  0.1704979E+00
         21   -1    0    0  503  502  0.00000000000E+00  0.00000000000E+00  0.65080019947E+03  0.65080019947E+03  0.00000000000E+00 0.  1.
         21   -1    0    0  501  503 -0.00000000000E+00 -0.00000000000E+00 -0.12594123726E+01  0.12594123726E+01  0.00000000000E+00 0. -1.
          2    1    1    2  501    0 -0.32547941183E+01  0.21950476040E+02  0.11877289967E+03  0.12082805461E+03  0.00000000000E+00 0. -1.
         -2    1    1    2    0  502  0.32547941183E+01 -0.21950476040E+02  0.53076788742E+03  0.53123155723E+03  0.00000000000E+00 0.  1.
<mgrwt>
<rscale>  2 0.22190473E+02</rscale>
<asrwt>0</asrwt>
<pdfrwt beam="1">  1       21 0.10012284E+00 0.22190473E+02</pdfrwt>
<pdfrwt beam="2">  1       21 0.19375627E-03 0.22190473E+02</pdfrwt>
<totfact> 0.30503425E+07</totfact>
</mgrwt>
</event>
<event>
 4    1  0.2761157E+004  0.3072093E+02  0.7546771E-02  0.1590254E+00
         21   -1    0    0  503  502  0.00000000000E+00  0.00000000000E+00  0.19727208842E+02  0.19727208842E+02  0.00000000000E+00 0. -1.
         21   -1    0    0  501  503 -0.00000000000E+00 -0.00000000000E+00 -0.81694759290E+02  0.81694759290E+02  0.00000000000E+00 0.  1.
          2    1    1    2  501    0 -0.23311932905E+02  0.20008237047E+02 -0.63627997038E+02  0.70656194156E+02  0.00000000000E+00 0.  1.
         -2    1    1    2    0  502  0.23311932905E+02 -0.20008237047E+02  0.16604465904E+01  0.30765773977E+02  0.00000000000E+00 0. -1.
<mgrwt>
<rscale>  2 0.30720934E+02</rscale>
<asrwt>0</asrwt>
<pdfrwt beam="1">  1       21 0.30349552E-02 0.30720934E+02</pdfrwt>
<pdfrwt beam="2">  1       21 0.12568424E-01 0.30720934E+02</pdfrwt>
<totfact> 0.26574504E+07</totfact>
</mgrwt>
</event>
<event>
 4    1  0.2761157E+004  0.3130549E+02  0.7546771E-02  0.1584091E+00
         21   -1    0    0  503  502  0.00000000000E+00  0.00000000000E+00  0.61862435089E+02  0.61862435089E+02  0.00000000000E+00 0.  1.
         21   -1    0    0  501  503 -0.00000000000E+00 -0.00000000000E+00 -0.31928997554E+02  0.31928997554E+02  0.00000000000E+00 0. -1.
          2    1    1    2  501    0 -0.17473689436E+02 -0.25975062792E+02 -0.18320389110E+02  0.36272170692E+02  0.00000000000E+00 0. -1.
         -2    1    1    2    0  502  0.17473689436E+02  0.25975062792E+02  0.48253826645E+02  0.57519261952E+02  0.00000000000E+00 0.  1.
<mgrwt>
<rscale>  2 0.31305490E+02</rscale>
<asrwt>0</asrwt>
<pdfrwt beam="1">  1       21 0.95172977E-02 0.31305490E+02</pdfrwt>
<pdfrwt beam="2">  1       21 0.49121535E-02 0.31305490E+02</pdfrwt>
<totfact> 0.19795817E+07</totfact>
</mgrwt>
</event>
<event>
 4    1  0.2761157E+004  0.2118052E+02  0.7546771E-02  0.1722822E+00
         21   -1    0    0  503  502  0.00000000000E+00  0.00000000000E+00  0.14793889382E+03  0.14793889382E+03  0.00000000000E+00 0.  1.
         21   -1    0    0  501  503 -0.00000000000E+00 -0.00000000000E+00 -0.56965402713E+01  0.56965402713E+01  0.00000000000E+00 0. -1.
          2    1    1    2  501    0  0.14034252880E+02  0.15863606238E+02  0.18588206814E+02  0.28180413221E+02  0.00000000000E+00 0. -1.
         -2    1    1    2    0  502 -0.14034252880E+02 -0.15863606238E+02  0.12365414673E+03  0.12545502087E+03  0.00000000000E+00 0.  1.
<mgrwt>
<rscale>  2 0.21180516E+02</rscale>
<asrwt>0</asrwt>
<pdfrwt beam="1">  1       21 0.22759827E-01 0.21180516E+02</pdfrwt>
<pdfrwt beam="2">  1       21 0.87639092E-03 0.21180516E+02</pdfrwt>
<totfact> 0.58565255E+07</totfact>
</mgrwt>
</event>
<event>
 4    1  0.2761157E+004  0.2673482E+02  0.7546771E-02  0.1637266E+00
         21   -1    0    0  503  502  0.00000000000E+00  0.00000000000E+00  0.15515364894E+03  0.15515364894E+03  0.00000000000E+00 0. -1.
         21   -1    0    0  501  503 -0.00000000000E+00 -0.00000000000E+00 -0.65344177450E+01  0.65344177450E+01  0.00000000000E+00 0.  1.
          2    1    1    2  501    0 -0.18573429533E+02  0.19229620307E+02  0.30399644697E+02  0.40483193790E+02  0.00000000000E+00 0.  1.
         -2    1    1    2    0  502  0.18573429533E+02 -0.19229620307E+02  0.11821958650E+03  0.12120487290E+03  0.00000000000E+00 0. -1.
<mgrwt>
<rscale>  2 0.26734820E+02</rscale>
<asrwt>0</asrwt>
<pdfrwt beam="1">  1       21 0.23869789E-01 0.26734820E+02</pdfrwt>
<pdfrwt beam="2">  1       21 0.10052952E-02 0.26734820E+02</pdfrwt>
<totfact> 0.46365303E+07</totfact>
</mgrwt>
</event>
<event>
 4    1  0.2761157E+004  0.2229341E+02  0.7546771E-02  0.1703227E+00
         21   -1    0    0  501  502  0.00000000000E+00  0.00000000000E+00  0.98200027707E+02  0.98200027707E+02  0.00000000000E+00 0. -1.
         21   -1    0    0  502  503 -0.00000000000E+00 -0.00000000000E+00 -0.12987647058E+02  0.12987647058E+02  0.00000000000E+00 0.  1.
          2    1    1    2  501    0  0.18840306883E+02 -0.11918002994E+02  0.86037668088E+02  0.88878998018E+02  0.00000000000E+00 0. -1.
         -2    1    1    2    0  503 -0.18840306883E+02  0.11918002994E+02 -0.82528743829E+00  0.22308676746E+02  0.00000000000E+00 0.  1.
<mgrwt>
<rscale>  2 0.22293406E+02</rscale>
<asrwt>0</asrwt>
<pdfrwt beam="1">  1       21 0.15107696E-01 0.22293406E+02</pdfrwt>
<pdfrwt beam="2">  1       21 0.19980996E-02 0.22293406E+02</pdfrwt>
<totfact> 0.34676415E+07</totfact>
</mgrwt>
</event>
<event>
 4    1  0.2761157E+004  0.4023428E+02  0.7546771E-02  0.1506494E+00
         21   -1    0    0  501  502  0.00000000000E+00  0.00000000000E+00  0.32416277158E+02  0.32416277158E+02  0.00000000000E+00 0. -1.
         21   -1    0    0  502  503 -0.00000000000E+00 -0.00000000000E+00 -0.54868342563E+02  0.54868342563E+02  0.00000000000E+00 0.  1.
          2    1    1    2  501    0  0.39898268474E+02 -0.51890105112E+01  0.18565665738E+01  0.40277096429E+02  0.00000000000E+00 0.  1.
         -2    1    1    2    0  503 -0.39898268474E+02  0.51890105112E+01 -0.24308631979E+02  0.47007523292E+02  0.00000000000E+00 0. -1.
<mgrwt>
<rscale>  2 0.40234285E+02</rscale>
<asrwt>0</asrwt>
<pdfrwt beam="1">  1       21 0.49871196E-02 0.40234285E+02</pdfrwt>
<pdfrwt beam="2">  1       21 0.84412834E-02 0.40234285E+02</pdfrwt>
<totfact> 0.24664179E+07</totfact>
</mgrwt>
</event>
<event>
 4    1  0.2761157E+004  0.2098280E+02  0.7546771E-02  0.1726462E+00
         21   -1    0    0  501  502  0.00000000000E+00  0.00000000000E+00  0.48866116519E+02  0.48866116519E+02  0.00000000000E+00 0. -1.
         21   -1    0    0  502  503 -0.00000000000E+00 -0.00000000000E+00 -0.10076396905E+02  0.10076396905E+02  0.00000000000E+00 0.  1.
          2    1    1    2  501    0  0.20516554847E+02  0.43987471225E+01  0.28982886982E+02  0.35781080711E+02  0.00000000000E+00 0. -1.
         -2    1    1    2    0  503 -0.20516554847E+02 -0.43987471225E+01  0.98068326320E+01  0.23161432713E+02  0.00000000000E+00 0.  1.
<mgrwt>
<rscale>  2 0.20982802E+02</rscale>
<asrwt>0</asrwt>
<pdfrwt beam="1">  1       21 0.75178639E-02 0.20982802E+02</pdfrwt>
<pdfrwt beam="2">  1       21 0.15502149E-02 0.20982802E+02</pdfrwt>
<totfact> 0.15969572E+08</totfact>
</mgrwt>
</event>
<event>
 4    1  0.2761157E+004  0.3031430E+02  0.7546771E-02  0.1594640E+00
         21   -1    0    0  501  502  0.00000000000E+00  0.00000000000E+00  0.13956550326E+02  0.13956550326E+02  0.00000000000E+00 0. -1.
         21   -1    0    0  502  503 -0.00000000000E+00 -0.00000000000E+00 -0.92582114395E+02  0.92582114395E+02  0.00000000000E+00 0.  1.
          2    1    1    2  501    0  0.15928190585E+02  0.25792437247E+02 -0.10685643111E+02  0.32142495907E+02  0.00000000000E+00 0. -1.
         -2    1    1    2    0  503 -0.15928190585E+02 -0.25792437247E+02 -0.67939920957E+02  0.74396168814E+02  0.00000000000E+00 0.  1.
<mgrwt>
<rscale>  2 0.30314305E+02</rscale>
<asrwt>0</asrwt>
<pdfrwt beam="1">  1       21 0.21471617E-02 0.30314305E+02</pdfrwt>
<pdfrwt beam="2">  1       21 0.14243402E-01 0.30314305E+02</pdfrwt>
<totfact> 0.36777194E+07</totfact>
</mgrwt>
</event>
<event>
 4    1  0.2761157E+004  0.2216414E+02  0.7546771E-02  0.1705429E+00
         21   -1    0    0  501  502  0.00000000000E+00  0.00000000000E+00  0.67706368744E+03  0.67706368744E+03  0.00000000000E+00 0. -1.
         21   -1    0    0  502  503 -0.00000000000E+00 -0.00000000000E+00 -0.28140463876E+01  0.28140463876E+01  0.00000000000E+00 0.  1.
          2    1    1    2  501    0  0.29774800121E+01  0.21963235887E+02  0.62997885193E+03  0.63036862469E+03  0.00000000000E+00 0. -1.
         -2    1    1    2    0  503 -0.29774800121E+01 -0.21963235887E+02  0.44270789127E+02  0.49509109140E+02  0.00000000000E+00 0.  1.
<mgrwt>
<rscale>  2 0.22164140E+02</rscale>
<asrwt>0</asrwt>
<pdfrwt beam="1">  1       21 0.10416351E+00 0.22164140E+02</pdfrwt>
<pdfrwt beam="2">  1       21 0.43293075E-03 0.22164140E+02</pdfrwt>
<totfact> 0.86841293E+06</totfact>
</mgrwt>
</event>
<event>
 4    1  0.2761157E+004  0.2396984E+02  0.7546771E-02  0.1676255E+00
         21   -1    0    0  501  502  0.00000000000E+00  0.00000000000E+00  0.81574063734E+02  0.81574063734E+02  0.00000000000E+00 0. -1.
         21   -1    0    0  502  503 -0.00000000000E+00 -0.00000000000E+00 -0.11152556751E+02  0.11152556751E+02  0.00000000000E+00 0.  1.
          2    1    1    2  501    0  0.20957810429E+02 -0.11632863346E+02  0.63353539531E+02  0.67736432581E+02  0.00000000000E+00 0. -1.
         -2    1    1    2    0  503 -0.20957810429E+02  0.11632863346E+02  0.70679674515E+01  0.24990187905E+02  0.00000000000E+00 0.  1.
<mgrwt>
<rscale>  2 0.23969842E+02</rscale>
<asrwt>0</asrwt>
<pdfrwt beam="1">  1       21 0.12549856E-01 0.23969842E+02</pdfrwt>
<pdfrwt beam="2">  1       21 0.17157780E-02 0.23969842E+02</pdfrwt>
<totfact> 0.61033124E+07</totfact>
</mgrwt>
</event>
<event>
 4    1  0.2761157E+004  0.2218062E+02  0.7546771E-02  0.1705147E+00
         21   -1    0    0  503  502  0.00000000000E+00  0.00000000000E+00  0.37297254511E+02  0.37297254511E+02  0.00000000000E+00 0.  1.
         21   -1    0    0  501  503 -0.00000000000E+00 -0.00000000000E+00 -0.23963614003E+02  0.23963614003E+02  0.00000000000E+00 0. -1.
          2    1    1    2  501    0 -0.21881040503E+02  0.36332059449E+01 -0.13870408969E+02  0.26160435086E+02  0.00000000000E+00 0. -1.
         -2    1    1    2    0  502  0.21881040503E+02 -0.36332059449E+01  0.27204049476E+02  0.35100433428E+02  0.00000000000E+00 0.  1.
<mgrwt>
<rscale>  2 0.22180625E+02</rscale>
<asrwt>0</asrwt>
<pdfrwt beam="1">  1       21 0.57380391E-02 0.22180625E+02</pdfrwt>
<pdfrwt beam="2">  1       21 0.36867099E-02 0.22180625E+02</pdfrwt>
<totfact> 0.65987957E+07</totfact>
</mgrwt>
</event>
<event>
 4    1  0.2761157E+004  0.3382744E+02  0.7546771E-02  0.1559267E+00
         21   -1    0    0  503  502  0.00000000000E+00  0.00000000000E+00  0.20247394240E+03  0.20247394240E+03  0.00000000000E+00 0.  1.
         21   -1    0    0  501  503 -0.00000000000E+00 -0.00000000000E+00 -0.76093301521E+01  0.76093301521E+01  0.00000000000E+00 0. -1.
          2    1    1    2  501    0 -0.33756001341E+02  0.21973262820E+01  0.44151855231E+02  0.55620879081E+02  0.00000000000E+00 0. -1.
         -2    1    1    2    0  502  0.33756001341E+02 -0.21973262820E+01  0.15071275701E+03  0.15446239347E+03  0.00000000000E+00 0.  1.
<mgrwt>
<rscale>  2 0.33827443E+02</rscale>
<asrwt>0</asrwt>
<pdfrwt beam="1">  1       21 0.31149833E-01 0.33827443E+02</pdfrwt>
<pdfrwt beam="2">  1       21 0.11706663E-02 0.33827443E+02</pdfrwt>
<totfact> 0.23745681E+07</totfact>
</mgrwt>
</event>
<event>
 4    1  0.2761157E+004  0.2167805E+02  0.7546771E-02  0.1713880E+00
         21   -1    0    0  503  502  0.00000000000E+00  0.00000000000E+00  0.75014826063E+02  0.75014826063E+02  0.00000000000E+00 0. -1.
         21   -1    0    0  501  503 -0.00000000000E+00 -0.00000000000E+00 -0.10276822330E+02  0.10276822330E+02  0.00000000000E+00 0.  1.
          2    1    1    2  501    0  0.14887700139E+02 -0.15757348786E+02  0.57225281515E+01  0.22420637471E+02  0.00000000000E+00 0.  1.
         -2    1    1    2    0  502 -0.14887700139E+02  0.15757348786E+02  0.59015475582E+02  0.62871010922E+02  0.00000000000E+00 0. -1.
<mgrwt>
<rscale>  2 0.21678045E+02</rscale>
<asrwt>0</asrwt>
<pdfrwt beam="1">  1       21 0.11540742E-01 0.21678045E+02</pdfrwt>
<pdfrwt beam="2">  1       21 0.15810496E-02 0.21678045E+02</pdfrwt>
<totfact> 0.77419725E+07</totfact>
</mgrwt>
</event>
<event>
 4    1  0.2761157E+004  0.2123635E+02  0.7546771E-02  0.1721804E+00
         21   -1    0    0  501  502  0.00000000000E+00  0.00000000000E+00  0.72557821730E+01  0.72557821730E+01  0.00000000000E+00 0.  1.
         21   -1    0    0  502  503 -0.00000000000E+00 -0.00000000000E+00 -0.16224437488E+03  0.16224437488E+03  0.00000000000E+00 0. -1.
          2    1    1    2  501    0 -0.90093961705E+01  0.19230528333E+02 -0.10928752711E+02  0.23883468658E+02  0.00000000000E+00 0.  1.
         -2    1    1    2    0  503  0.90093961705E+01 -0.19230528333E+02 -0.14405983999E+03  0.14561668839E+03  0.00000000000E+00 0. -1.
<mgrwt>
<rscale>  2 0.21236347E+02</rscale>
<asrwt>0</asrwt>
<pdfrwt beam="1">  1       21 0.11162741E-02 0.21236347E+02</pdfrwt>
<pdfrwt beam="2">  1       21 0.24960674E-01 0.21236347E+02</pdfrwt>
<totfact> 0.34653160E+07</totfact>
</mgrwt>
</event>
<event>
 4    1  0.2761157E+004  0.2008717E+02  0.7546771E-02  0.1743600E+00
         21   -1    0    0  501  502  0.00000000000E+00  0.00000000000E+00  0.24579514261E+01  0.24579514261E+01  0.00000000000E+00 0.  1.
         21   -1    0    0  502  503 -0.00000000000E+00 -0.00000000000E+00 -0.23074215557E+03  0.23074215557E+03  0.00000000000E+00 0. -1.
          2    1    1    2  501    0 -0.20037812414E+01 -0.19986976361E+02 -0.51506954187E+02  0.55285266508E+02  0.00000000000E+00 0.  1.
         -2    1    1    2    0  503  0.20037812414E+01  0.19986976361E+02 -0.17677724996E+03  0.17791484049E+03  0.00000000000E+00 0. -1.
<mgrwt>
<rscale>  2 0.20087169E+02</rscale>
<asrwt>0</asrwt>
<pdfrwt beam="1">  1       21 0.37814639E-03 0.20087169E+02</pdfrwt>
<pdfrwt beam="2">  1       21 0.35498791E-01 0.20087169E+02</pdfrwt>
<totfact> 0.89583348E+07</totfact>
</mgrwt>
</event>
<event>
 4    1  0.2761157E+004  0.3522991E+02  0.7546771E-02  0.1546568E+00
         21   -1    0    0  503  502  0.00000000000E+00  0.00000000000E+00  0.11461328145E+03  0.11461328145E+03  0.00000000000E+00 0. -1.
         21   -1    0    0  501  503 -0.00000000000E+00 -0.00000000000E+00 -0.15932893253E+02  0.15932893253E+02  0.00000000000E+00 0.  1.
          2    1    1    2  501    0 -0.35194264348E+02  0.15844147438E+01  0.12396710071E+02  0.37347356448E+02  0.00000000000E+00 0.  1.
         -2    1    1    2    0  502  0.35194264348E+02 -0.15844147438E+01  0.86283678130E+02  0.93198818258E+02  0.00000000000E+00 0. -1.
<mgrwt>
<rscale>  2 0.35229911E+02</rscale>
<asrwt>0</asrwt>
<pdfrwt beam="1">  1       21 0.17632812E-01 0.35229911E+02</pdfrwt>
<pdfrwt beam="2">  1       21 0.24512144E-02 0.35229911E+02</pdfrwt>
<totfact> 0.21249370E+07</totfact>
</mgrwt>
</event>
<event>
 4    1  0.2761157E+004  0.2712788E+02  0.7546771E-02  0.1632194E+00
         21   -1    0    0  501  502  0.00000000000E+00  0.00000000000E+00  0.53077558803E+01  0.53077558803E+01  0.00000000000E+00 0.  1.
         21   -1    0    0  502  503 -0.00000000000E+00 -0.00000000000E+00 -0.14232352989E+03  0.14232352989E+03  0.00000000000E+00 0. -1.
          2    1    1    2  501    0 -0.18627623349E+02  0.19721399862E+02 -0.56649274021E+02  0.62809730227E+02  0.00000000000E+00 0.  1.
         -2    1    1    2    0  503  0.18627623349E+02 -0.19721399862E+02 -0.80366499988E+02  0.84821555542E+02  0.00000000000E+00 0. -1.
<mgrwt>
<rscale>  2 0.27127882E+02</rscale>
<asrwt>0</asrwt>
<pdfrwt beam="1">  1       21 0.81657786E-03 0.27127882E+02</pdfrwt>
<pdfrwt beam="2">  1       21 0.21895927E-01 0.27127882E+02</pdfrwt>
<totfact> 0.74186659E+07</totfact>
</mgrwt>
</event>
<event>
 4    1  0.2761157E+004  0.2629686E+02  0.7546771E-02  0.1643044E+00
         21   -1    0    0  501  502  0.00000000000E+00  0.00000000000E+00  0.15410506880E+03  0.15410506880E+03  0.00000000000E+00 0. -1.
         21   -1    0    0  502  503 -0.00000000000E+00 -0.00000000000E+00 -0.36137331441E+02  0.36137331441E+02  0.00000000000E+00 0.  1.
          2    1    1    2  501    0  0.14522313848E+02 -0.21923213262E+02  0.14800353143E+03  0.15032155599E+03  0.00000000000E+00 0. -1.
         -2    1    1    2    0  503 -0.14522313848E+02  0.21923213262E+02 -0.30035794079E+02  0.39920844244E+02  0.00000000000E+00 0.  1.
<mgrwt>
<rscale>  2 0.26296861E+02</rscale>
<asrwt>0</asrwt>
<pdfrwt beam="1">  1       21 0.23708472E-01 0.26296861E+02</pdfrwt>
<pdfrwt beam="2">  1       21 0.55595895E-02 0.26296861E+02</pdfrwt>
<totfact> 0.32800864E+06</totfact>
</mgrwt>
</event>
<event>
 4    1  0.2761157E+004  0.2469390E+02  0.7546771E-02  0.1665438E+00
         21   -1    0    0  501  502  0.00000000000E+00  0.00000000000E+00  0.83551619405E+02  0.83551619405E+02  0.00000000000E+00 0. -1.
         21   -1    0    0  502  503 -0.00000000000E+00 -0.00000000000E+00 -0.28438013492E+02  0.28438013492E+02  0.00000000000E+00 0.  1.
          2    1    1    2  501    0  0.15577716924E+02 -0.19160463090E+02  0.75834581191E+02  0.79753823199E+02  0.00000000000E+00 0. -1.
         -2    1    1    2    0  503 -0.15577716924E+02  0.19160463090E+02 -0.20720975278E+02  0.32235809697E+02  0.00000000000E+00 0.  1.
<mgrwt>
<rscale>  2 0.24693898E+02</rscale>
<asrwt>0</asrwt>
<pdfrwt beam="1">  1       21 0.12854095E-01 0.24693898E+02</pdfrwt>
<pdfrwt beam="2">  1       21 0.43750790E-02 0.24693898E+02</pdfrwt>
<totfact> 0.13754716E+07</totfact>
</mgrwt>
</event>
<event>
 4    1  0.2761157E+004  0.3172528E+02  0.7546771E-02  0.1579765E+00
         21   -1    0    0  501  502  0.00000000000E+00  0.00000000000E+00  0.22559477698E+01  0.22559477698E+01  0.00000000000E+00 0.  1.
         21   -1    0    0  502  503 -0.00000000000E+00 -0.00000000000E+00 -0.45688797884E+03  0.45688797884E+03  0.00000000000E+00 0. -1.
          2    1    1    2  501    0 -0.29937768516E+02 -0.10498722276E+02 -0.19212297197E+03  0.19472475320E+03  0.00000000000E+00 0.  1.
         -2    1    1    2    0  503  0.29937768516E+02  0.10498722276E+02 -0.26250905910E+03  0.26441917341E+03  0.00000000000E+00 0. -1.
<mgrwt>
<rscale>  2 0.31725276E+02</rscale>
<asrwt>0</asrwt>
<pdfrwt beam="1">  1       21 0.34706898E-03 0.31725276E+02</pdfrwt>
<pdfrwt beam="2">  1       21 0.70290440E-01 0.31725276E+02</pdfrwt>
<totfact> 0.29612926E+07</totfact>
</mgrwt>
</event>
<event>
 4    1  0.2761157E+004  0.2502264E+02  0.7546771E-02  0.1660677E+00
         21   -1    0    0  501  502  0.00000000000E+00  0.00000000000E+00  0.16222243697E+02  0.16222243697E+02  0.00000000000E+00 0.  1.
         21   -1    0    0  502  503 -0.00000000000E+00 -0.00000000000E+00 -0.38890098164E+02  0.38890098164E+02  0.00000000000E+00 0. -1.
          2    1    1    2  501    0 -0.11147717616E+02 -0.22402253766E+02 -0.13725508879E+02  0.28539834895E+02  0.00000000000E+00 0.  1.
         -2    1    1    2    0  503  0.11147717616E+02  0.22402253766E+02 -0.89423455876E+01  0.26572506966E+02  0.00000000000E+00 0. -1.
<mgrwt>
<rscale>  2 0.25022641E+02</rscale>
<asrwt>0</asrwt>
<pdfrwt beam="1">  1       21 0.24957298E-02 0.25022641E+02</pdfrwt>
<pdfrwt beam="2">  1       21 0.59830920E-02 0.25022641E+02</pdfrwt>
<totfact> 0.11724966E+08</totfact>
</mgrwt>
</event>
<event>
 4    1  0.2761157E+004  0.2693566E+02  0.7546771E-02  0.1634661E+00
         21   -1    0    0  503  502  0.00000000000E+00  0.00000000000E+00  0.34221276720E+03  0.34221276720E+03  0.00000000000E+00 0. -1.
         21   -1    0    0  501  503 -0.00000000000E+00 -0.00000000000E+00 -0.25167850873E+01  0.25167850873E+01  0.00000000000E+00 0.  1.
          2    1    1    2  501    0  0.20241969707E+02 -0.17770545521E+02  0.10141879280E+03  0.10493474715E+03  0.00000000000E+00 0.  1.
         -2    1    1    2    0  502 -0.20241969707E+02  0.17770545521E+02  0.23827718931E+03  0.23979480514E+03  0.00000000000E+00 0. -1.
<mgrwt>
<rscale>  2 0.26935657E+02</rscale>
<asrwt>0</asrwt>
<pdfrwt beam="1">  1       21 0.52648081E-01 0.26935657E+02</pdfrwt>
<pdfrwt beam="2">  1       21 0.38719798E-03 0.26935657E+02</pdfrwt>
<totfact> 0.43843555E+07</totfact>
</mgrwt>
</event>
<event>
 4    1  0.2761157E+004  0.2524391E+02  0.7546771E-02  0.1657523E+00
         21   -1    0    0  503  502  0.00000000000E+00  0.00000000000E+00  0.20447378940E+02  0.20447378940E+02  0.00000000000E+00 0.  1.
         21   -1    0    0  501  503 -0.00000000000E+00 -0.00000000000E+00 -0.25458776295E+03  0.25458776295E+03  0.00000000000E+00 0. -1.
          2    1    1    2  501    0  0.95277387286E+01  0.23376847924E+02 -0.24589590550E+03  0.24718829091E+03  0.00000000000E+00 0. -1.
         -2    1    1    2    0  502 -0.95277387286E+01 -0.23376847924E+02  0.11755521484E+02  0.27846850980E+02  0.00000000000E+00 0.  1.
<mgrwt>
<rscale>  2 0.25243907E+02</rscale>
<asrwt>0</asrwt>
<pdfrwt beam="1">  1       21 0.31457505E-02 0.25243907E+02</pdfrwt>
<pdfrwt beam="2">  1       21 0.39167349E-01 0.25243907E+02</pdfrwt>
<totfact> 0.32097851E+06</totfact>
</mgrwt>
</event>
<event>
 4    1  0.2761157E+004  0.3592016E+02  0.7546771E-02  0.1540578E+00
         21   -1    0    0  501  502  0.00000000000E+00  0.00000000000E+00  0.20652906378E+02  0.20652906378E+02  0.00000000000E+00 0. -1.
         21   -1    0    0  502  503 -0.00000000000E+00 -0.00000000000E+00 -0.64439634119E+02  0.64439634119E+02  0.00000000000E+00 0.  1.
          2    1    1    2  501    0 -0.11862425653E+01  0.35900569063E+02 -0.14461485909E+02  0.38721991234E+02  0.00000000000E+00 0. -1.
         -2    1    1    2    0  503  0.11862425653E+01 -0.35900569063E+02 -0.29325241832E+02  0.46370549263E+02  0.00000000000E+00 0.  1.
<mgrwt>
<rscale>  2 0.35920162E+02</rscale>
<asrwt>0</asrwt>
<pdfrwt beam="1">  1       21 0.31773702E-02 0.35920162E+02</pdfrwt>
<pdfrwt beam="2">  1       21 0.99137899E-02 0.35920162E+02</pdfrwt>
<totfact> 0.38054211E+07</totfact>
</mgrwt>
</event>
<event>
 4    1  0.2761157E+004  0.4370617E+02  0.7546771E-02  0.1482584E+00
         21   -1    0    0  503  502  0.00000000000E+00  0.00000000000E+00  0.92759219668E+02  0.92759219668E+02  0.00000000000E+00 0. -1.
         21   -1    0    0  501  503 -0.00000000000E+00 -0.00000000000E+00 -0.28006487127E+02  0.28006487127E+02  0.00000000000E+00 0.  1.
          2    1    1    2  501    0 -0.18684732915E+02  0.39510883131E+02  0.13105036171E+01  0.43725811023E+02  0.00000000000E+00 0.  1.
         -2    1    1    2    0  502  0.18684732915E+02 -0.39510883131E+02  0.63442228923E+02  0.77039895772E+02  0.00000000000E+00 0. -1.
<mgrwt>
<rscale>  2 0.43706168E+02</rscale>
<asrwt>0</asrwt>
<pdfrwt beam="1">  1       21 0.14270649E-01 0.43706168E+02</pdfrwt>
<pdfrwt beam="2">  1       21 0.43086904E-02 0.43706168E+02</pdfrwt>
<totfact> 0.12945218E+07</totfact>
</mgrwt>
</event>
<event>
 4    1  0.2761157E+004  0.2910947E+02  0.7546771E-02  0.1608146E+00
         21   -1    0    0  501  502  0.00000000000E+00  0.00000000000E+00  0.22922112889E+03  0.22922112889E+03  0.00000000000E+00 0.  1.
         21   -1    0    0  502  503 -0.00000000000E+00 -0.00000000000E+00 -0.40109619043E+01  0.40109619043E+01  0.00000000000E+00 0. -1.
          2    1    1    2  501    0  0.27332507324E+02  0.10014743527E+02  0.14524747943E+03  0.14813571927E+03  0.00000000000E+00 0.  1.
         -2    1    1    2    0  503 -0.27332507324E+02 -0.10014743527E+02  0.79962687554E+02  0.85096371517E+02  0.00000000000E+00 0. -1.
<mgrwt>
<rscale>  2 0.29109467E+02</rscale>
<asrwt>0</asrwt>
<pdfrwt beam="1">  1       21 0.35264779E-01 0.29109467E+02</pdfrwt>
<pdfrwt beam="2">  1       21 0.61707124E-03 0.29109467E+02</pdfrwt>
<totfact> 0.48185695E+07</totfact>
</mgrwt>
</event>
<event>
 4    1  0.2761157E+004  0.3450448E+02  0.7546771E-02  0.1553045E+00
         21   -1    0    0  501  502  0.00000000000E+00  0.00000000000E+00  0.13065176667E+03  0.13065176667E+03  0.00000000000E+00 0.  1.
         21   -1    0    0  502  503 -0.00000000000E+00 -0.00000000000E+00 -0.45595102690E+02  0.45595102690E+02  0.00000000000E+00 0. -1.
          2    1    1    2  501    0 -0.32610366743E+02 -0.11274882725E+02  0.12135541603E+03  0.12616535182E+03  0.00000000000E+00 0.  1.
         -2    1    1    2    0  503  0.32610366743E+02  0.11274882725E+02 -0.36298752047E+02  0.50081517546E+02  0.00000000000E+00 0. -1.
<mgrwt>
<rscale>  2 0.34504478E+02</rscale>
<asrwt>0</asrwt>
<pdfrwt beam="1">  1       21 0.20100272E-01 0.34504478E+02</pdfrwt>
<pdfrwt beam="2">  1       21 0.70146312E-02 0.34504478E+02</pdfrwt>
<totfact> 0.31133019E+06</totfact>
</mgrwt>
</event>
<event>
 4    1  0.2761157E+004  0.4333839E+02  0.7546771E-02  0.1484990E+00
         21   -1    0    0  503  502  0.00000000000E+00  0.00000000000E+00  0.61845079711E+02  0.61845079711E+02  0.00000000000E+00 0. -1.
         21   -1    0    0  501  503 -0.00000000000E+00 -0.00000000000E+00 -0.23367365195E+03  0.23367365195E+03  0.00000000000E+00 0.  1.
          2    1    1    2  501    0  0.16761761457E+02 -0.39965727133E+02 -0.22373771961E+03  0.22789643080E+03  0.00000000000E+00 0.  1.
         -2    1    1    2    0  502 -0.16761761457E+02  0.39965727133E+02  0.51909147377E+02  0.67622300861E+02  0.00000000000E+00 0. -1.
<mgrwt>
<rscale>  2 0.43338389E+02</rscale>
<asrwt>0</asrwt>
<pdfrwt beam="1">  1       21 0.95146276E-02 0.43338389E+02</pdfrwt>
<pdfrwt beam="2">  1       21 0.35949793E-01 0.43338389E+02</pdfrwt>
<totfact> 0.65459609E+05</totfact>
</mgrwt>
</event>
<event>
 4    1  0.2761157E+004  0.2129015E+02  0.7546771E-02  0.1720826E+00
         21   -1    0    0  501  502  0.00000000000E+00  0.00000000000E+00  0.11328681976E+02  0.11328681976E+02  0.00000000000E+00 0.  1.
         21   -1    0    0  502  503 -0.00000000000E+00 -0.00000000000E+00 -0.23931327579E+03  0.23931327579E+03  0.00000000000E+00 0. -1.
          2    1    1    2  501    0  0.18947582123E+02  0.97087490312E+01  0.37362332634E+00  0.21293432567E+02  0.00000000000E+00 0.  1.
         -2    1    1    2    0  503 -0.18947582123E+02 -0.97087490312E+01 -0.22835821714E+03  0.22934852520E+03  0.00000000000E+00 0. -1.
<mgrwt>
<rscale>  2 0.21290154E+02</rscale>
<asrwt>0</asrwt>
<pdfrwt beam="1">  1       21 0.17428742E-02 0.21290154E+02</pdfrwt>
<pdfrwt beam="2">  1       21 0.36817426E-01 0.21290154E+02</pdfrwt>
<totfact> 0.87274879E+06</totfact>
</mgrwt>
</event>
<event>
 4    1  0.2761157E+004  0.2158069E+02  0.7546771E-02  0.1715606E+00
         21   -1    0    0  501  502  0.00000000000E+00  0.00000000000E+00  0.65344872880E+01  0.65344872880E+01  0.00000000000E+00 0.  1.
         21   -1    0    0  502  503 -0.00000000000E+00 -0.00000000000E+00 -0.81877250403E+02  0.81877250403E+02  0.00000000000E+00 0. -1.
          2    1    1    2  501    0 -0.21185966309E+02  0.41086478077E+01 -0.21761819897E+02  0.30648049864E+02  0.00000000000E+00 0.  1.
         -2    1    1    2    0  503  0.21185966309E+02 -0.41086478077E+01 -0.53580943218E+02  0.57763687827E+02  0.00000000000E+00 0. -1.
<mgrwt>
<rscale>  2 0.21580689E+02</rscale>
<asrwt>0</asrwt>
<pdfrwt beam="1">  1       21 0.10053058E-02 0.21580689E+02</pdfrwt>
<pdfrwt beam="2">  1       21 0.12596500E-01 0.21580689E+02</pdfrwt>
<totfact> 0.13227464E+08</totfact>
</mgrwt>
</event>
<event>
 4    1  0.2761157E+004  0.3924108E+02  0.7546771E-02  0.1513872E+00
         21   -1    0    0  501  502  0.00000000000E+00  0.00000000000E+00  0.53779421576E+03  0.53779421576E+03  0.00000000000E+00 0.  1.
         21   -1    0    0  502  503 -0.00000000000E+00 -0.00000000000E+00 -0.31589167876E+01  0.31589167876E+01  0.00000000000E+00 0. -1.
          2    1    1    2  501    0  0.24238208494E+02 -0.30860513793E+02  0.35006054587E+03  0.35225310196E+03  0.00000000000E+00 0. -1.
         -2    1    1    2    0  503 -0.24238208494E+02  0.30860513793E+02  0.18457475310E+03  0.18870003059E+03  0.00000000000E+00 0.  1.
<mgrwt>
<rscale>  2 0.39241076E+02</rscale>
<asrwt>0</asrwt>
<pdfrwt beam="1">  1       21 0.82737499E-01 0.39241076E+02</pdfrwt>
<pdfrwt beam="2">  1       21 0.48598762E-03 0.39241076E+02</pdfrwt>
<totfact> 0.13113812E+07</totfact>
</mgrwt>
</event>
<event>
 4    1  0.2761157E+004  0.2083231E+02  0.7546771E-02  0.1729266E+00
         21   -1    0    0  503  502  0.00000000000E+00  0.00000000000E+00  0.72389888791E+01  0.72389888791E+01  0.00000000000E+00 0.  1.
         21   -1    0    0  501  503 -0.00000000000E+00 -0.00000000000E+00 -0.13843271067E+03  0.13843271067E+03  0.00000000000E+00 0. -1.
          2    1    1    2  501    0  0.14846447735E+02  0.14613974445E+02 -0.12043842303E+03  0.12222683421E+03  0.00000000000E+00 0. -1.
         -2    1    1    2    0  502 -0.14846447735E+02 -0.14613974445E+02 -0.10755298767E+02  0.23444865344E+02  0.00000000000E+00 0.  1.
<mgrwt>
<rscale>  2 0.20832313E+02</rscale>
<asrwt>0</asrwt>
<pdfrwt beam="1">  1       21 0.11136905E-02 0.20832313E+02</pdfrwt>
<pdfrwt beam="2">  1       21 0.21297341E-01 0.20832313E+02</pdfrwt>
<totfact> 0.45774842E+07</totfact>
</mgrwt>
</event>
<event>
 4    1  0.2761157E+004  0.2023974E+02  0.7546771E-02  0.1740602E+00
         21   -1    0    0  503  502  0.00000000000E+00  0.00000000000E+00  0.52725519073E+01  0.52725519073E+01  0.00000000000E+00 0. -1.
         21   -1    0    0  501  503 -0.00000000000E+00 -0.00000000000E+00 -0.87064954115E+02  0.87064954115E+02  0.00000000000E+00 0.  1.
          2    1    1    2  501    0  0.17477553525E+02  0.10206970699E+02 -0.56042686040E+02  0.59585483020E+02  0.00000000000E+00 0.  1.
         -2    1    1    2    0  502 -0.17477553525E+02 -0.10206970699E+02 -0.25749716167E+02  0.32752023002E+02  0.00000000000E+00 0. -1.
<mgrwt>
<rscale>  2 0.20239741E+02</rscale>
<asrwt>0</asrwt>
<pdfrwt beam="1">  1       21 0.81116188E-03 0.20239741E+02</pdfrwt>
<pdfrwt beam="2">  1       21 0.13394607E-01 0.20239741E+02</pdfrwt>
<totfact> 0.16121215E+08</totfact>
</mgrwt>
</event>
<event>
 4    1  0.2761157E+004  0.2483816E+02  0.7546771E-02  0.1663337E+00
         21   -1    0    0  501  502  0.00000000000E+00  0.00000000000E+00  0.39891555465E+02  0.39891555465E+02  0.00000000000E+00 0.  1.
         21   -1    0    0  502  503 -0.00000000000E+00 -0.00000000000E+00 -0.19369094365E+02  0.19369094365E+02  0.00000000000E+00 0. -1.
          2    1    1    2  501    0  0.24046826577E+02  0.62196734373E+01  0.23563512609E+02  0.34237016993E+02  0.00000000000E+00 0. -1.
         -2    1    1    2    0  503 -0.24046826577E+02 -0.62196734373E+01 -0.30410515079E+01  0.25023632837E+02  0.00000000000E+00 0.  1.
<mgrwt>
<rscale>  2 0.24838160E+02</rscale>
<asrwt>0</asrwt>
<pdfrwt beam="1">  1       21 0.61371624E-02 0.24838160E+02</pdfrwt>
<pdfrwt beam="2">  1       21 0.29798607E-02 0.24838160E+02</pdfrwt>
<totfact> 0.85237618E+07</totfact>
</mgrwt>
</event>
<event>
 4    1  0.2761157E+004  0.2163042E+02  0.7546771E-02  0.1714723E+00
         21   -1    0    0  503  502  0.00000000000E+00  0.00000000000E+00  0.63892378238E+03  0.63892378238E+03  0.00000000000E+00 0. -1.
         21   -1    0    0  501  503 -0.00000000000E+00 -0.00000000000E+00 -0.17693897791E+01  0.17693897791E+01  0.00000000000E+00 0.  1.
          2    1    1    2  501    0 -0.14050868843E+02 -0.16445309266E+02  0.73321334988E+02  0.76445361380E+02  0.00000000000E+00 0.  1.
         -2    1    1    2    0  502  0.14050868843E+02  0.16445309266E+02  0.56383305761E+03  0.56424781078E+03  0.00000000000E+00 0. -1.
<mgrwt>
<rscale>  2 0.21630421E+02</rscale>
<asrwt>0</asrwt>
<pdfrwt beam="1">  1       21 0.98295782E-01 0.21630421E+02</pdfrwt>
<pdfrwt beam="2">  1       21 0.27221432E-03 0.21630421E+02</pdfrwt>
<totfact> 0.19321245E+07</totfact>
</mgrwt>
</event>
<event>
 4    1  0.2761157E+004  0.2724390E+02  0.7546771E-02  0.1630717E+00
         21   -1    0    0  503  502  0.00000000000E+00  0.00000000000E+00  0.32658988387E+03  0.32658988387E+03  0.00000000000E+00 0.  1.
         21   -1    0    0  501  503 -0.00000000000E+00 -0.00000000000E+00 -0.22852683144E+01  0.22852683144E+01  0.00000000000E+00 0. -1.
          2    1    1    2  501    0 -0.26332375159E+02 -0.69882892047E+01  0.17436283107E+03  0.17647840385E+03  0.00000000000E+00 0. -1.
         -2    1    1    2    0  502  0.26332375159E+02  0.69882892047E+01  0.14994178449E+03  0.15239674833E+03  0.00000000000E+00 0.  1.
<mgrwt>
<rscale>  2 0.27243901E+02</rscale>
<asrwt>0</asrwt>
<pdfrwt beam="1">  1       21 0.50244560E-01 0.27243901E+02</pdfrwt>
<pdfrwt beam="2">  1       21 0.35158000E-03 0.27243901E+02</pdfrwt>
<totfact> 0.55530503E+07</totfact>
</mgrwt>
</event>
<event>
 4    1  0.2761157E+004  0.2064888E+02  0.7546771E-02  0.1732724E+00
         21   -1    0    0  503  502  0.00000000000E+00  0.00000000000E+00  0.44213755523E+02  0.44213755523E+02  0.00000000000E+00 0. -1.
         21   -1    0    0  501  503 -0.00000000000E+00 -0.00000000000E+00 -0.23573991332E+02  0.23573991332E+02  0.00000000000E+00 0.  1.
          2    1    1    2  501    0 -0.12324886485E+02  0.16567239258E+02 -0.15734906049E+02  0.25960807227E+02  0.00000000000E+00 0.  1.
         -2    1    1    2    0  502  0.12324886485E+02 -0.16567239258E+02  0.36374670241E+02  0.41826939628E+02  0.00000000000E+00 0. -1.
<mgrwt>
<rscale>  2 0.20648880E+02</rscale>
<asrwt>0</asrwt>
<pdfrwt beam="1">  1       21 0.68021162E-02 0.20648880E+02</pdfrwt>
<pdfrwt beam="2">  1       21 0.36267679E-02 0.20648880E+02</pdfrwt>
<totfact> 0.50539719E+07</totfact>
</mgrwt>
</event>
<event>
 4    1  0.2761157E+004  0.2197572E+02  0.7546771E-02  0.1708672E+00
         21   -1    0    0  503  502  0.00000000000E+00  0.00000000000E+00  0.59221410638E+02  0.59221410638E+02  0.00000000000E+00 0.  1.
         21   -1    0    0  501  503 -0.00000000000E+00 -0.00000000000E+00 -0.99671389758E+01  0.99671389758E+01  0.00000000000E+00 0. -1.
          2    1    1    2  501    0 -0.20302021543E+02  0.84119186524E+01  0.98751174189E+01  0.24092538226E+02  0.00000000000E+00 0. -1.
         -2    1    1    2    0  502  0.20302021543E+02 -0.84119186524E+01  0.39379154243E+02  0.45096011387E+02  0.00000000000E+00 0.  1.
<mgrwt>
<rscale>  2 0.21975724E+02</rscale>
<asrwt>0</asrwt>
<pdfrwt beam="1">  1       21 0.91109860E-02 0.21975724E+02</pdfrwt>
<pdfrwt beam="2">  1       21 0.15334060E-02 0.21975724E+02</pdfrwt>
<totfact> 0.12035858E+08</totfact>
</mgrwt>
</event>
<event>
 4    1  0.2761157E+004  0.2054309E+02  0.7546771E-02  0.1734739E+00
         21   -1    0    0  503  502  0.00000000000E+00  0.00000000000E+00  0.13338364280E+02  0.13338364280E+02  0.00000000000E+00 0.  1.
         21   -1    0    0  501  503 -0.00000000000E+00 -0.00000000000E+00 -0.32363334893E+02  0.32363334893E+02  0.00000000000E+00 0. -1.
          2    1    1    2  501    0 -0.92790187906E+01  0.18328073306E+02 -0.12930009317E+02  0.24273516469E+02  0.00000000000E+00 0.  1.
         -2    1    1    2    0  502  0.92790187906E+01 -0.18328073306E+02 -0.60949612957E+01  0.21428182704E+02  0.00000000000E+00 0. -1.
<mgrwt>
<rscale>  2 0.20543088E+02</rscale>
<asrwt>0</asrwt>
<pdfrwt beam="1">  1       21 0.20520561E-02 0.20543088E+02</pdfrwt>
<pdfrwt beam="2">  1       21 0.49789745E-02 0.20543088E+02</pdfrwt>
<totfact> 0.20022443E+08</totfact>
</mgrwt>
</event>
<event>
 4    1  0.2761157E+004  0.2433860E+02  0.7546771E-02  0.1670688E+00
         21   -1    0    0  503  502  0.00000000000E+00  0.00000000000E+00  0.12258979128E+03  0.12258979128E+03  0.00000000000E+00 0.  1.
         21   -1    0    0  501  503 -0.00000000000E+00 -0.00000000000E+00 -0.59555101864E+01  0.59555101864E+01  0.00000000000E+00 0. -1.
          2    1    1    2  501    0 -0.24604955982E+01  0.24213907865E+02  0.30402377508E+02  0.38944472404E+02  0.00000000000E+00 0. -1.
         -2    1    1    2    0  502  0.24604955982E+01 -0.24213907865E+02  0.86231903583E+02  0.89600829059E+02  0.00000000000E+00 0.  1.
<mgrwt>
<rscale>  2 0.24338598E+02</rscale>
<asrwt>0</asrwt>
<pdfrwt beam="1">  1       21 0.18859966E-01 0.24338598E+02</pdfrwt>
<pdfrwt beam="2">  1       21 0.91623243E-03 0.24338598E+02</pdfrwt>
<totfact> 0.78970568E+07</totfact>
</mgrwt>
</event>
<event>
 4    1  0.2761157E+004  0.2043605E+02  0.7546771E-02  0.1736793E+00
         21   -1    0    0  501  502  0.00000000000E+00  0.00000000000E+00  0.23509925478E+03  0.23509925478E+03  0.00000000000E+00 0. -1.
         21   -1    0    0  502  503 -0.00000000000E+00 -0.00000000000E+00 -0.35354294320E+01  0.35354294320E+01  0.00000000000E+00 0.  1.
          2    1    1    2  501    0  0.20324140497E+02  0.21357229293E+01  0.19994432077E+03  0.20098597814E+03  0.00000000000E+00 0. -1.
         -2    1    1    2    0  503 -0.20324140497E+02 -0.21357229293E+01  0.31619504578E+02  0.37648706076E+02  0.00000000000E+00 0.  1.
<mgrwt>
<rscale>  2 0.20436047E+02</rscale>
<asrwt>0</asrwt>
<pdfrwt beam="1">  1       21 0.36169104E-01 0.20436047E+02</pdfrwt>
<pdfrwt beam="2">  1       21 0.54391240E-03 0.20436047E+02</pdfrwt>
<totfact> 0.51046237E+07</totfact>
</mgrwt>
</event>
<event>
 4    1  0.2761157E+004  0.2163501E+02  0.7546771E-02  0.1714642E+00
         21   -1    0    0  503  502  0.00000000000E+00  0.00000000000E+00  0.14444762187E+01  0.14444762187E+01  0.00000000000E+00 0.  1.
         21   -1    0    0  501  503 -0.00000000000E+00 -0.00000000000E+00 -0.40240869066E+03  0.40240869066E+03  0.00000000000E+00 0. -1.
          2    1    1    2  501    0 -0.23979932324E+01 -0.21501708631E+02 -0.28959079436E+03  0.29039783406E+03  0.00000000000E+00 0. -1.
         -2    1    1    2    0  502  0.23979932324E+01  0.21501708631E+02 -0.11137342008E+03  0.11345533282E+03  0.00000000000E+00 0.  1.
<mgrwt>
<rscale>  2 0.21635014E+02</rscale>
<asrwt>0</asrwt>
<pdfrwt beam="1">  1       21 0.22222678E-03 0.21635014E+02</pdfrwt>
<pdfrwt beam="2">  1       21 0.61909122E-01 0.21635014E+02</pdfrwt>
<totfact> 0.67929098E+07</totfact>
</mgrwt>
</event>
<event>
 4    1  0.2761157E+004  0.2961260E+02  0.7546771E-02  0.1602411E+00
         21   -1    0    0  503  502  0.00000000000E+00  0.00000000000E+00  0.62741231682E+01  0.62741231682E+01  0.00000000000E+00 0. -1.
         21   -1    0    0  501  503 -0.00000000000E+00 -0.00000000000E+00 -0.16531854901E+03  0.16531854901E+03  0.00000000000E+00 0.  1.
          2    1    1    2  501    0 -0.11709781592E+02  0.27199023014E+02 -0.11325323346E+03  0.11706067114E+03  0.00000000000E+00 0.  1.
         -2    1    1    2    0  502  0.11709781592E+02 -0.27199023014E+02 -0.45791192382E+02  0.54532001041E+02  0.00000000000E+00 0. -1.
<mgrwt>
<rscale>  2 0.29612596E+02</rscale>
<asrwt>0</asrwt>
<pdfrwt beam="1">  1       21 0.96524970E-03 0.29612596E+02</pdfrwt>
<pdfrwt beam="2">  1       21 0.25433623E-01 0.29612596E+02</pdfrwt>
<totfact> 0.44996055E+07</totfact>
</mgrwt>
</event>
<event>
 4    1  0.2761157E+004  0.2112048E+02  0.7546771E-02  0.1723922E+00
         21   -1    0    0  503  502  0.00000000000E+00  0.00000000000E+00  0.20470248168E+02  0.20470248168E+02  0.00000000000E+00 0.  1.
         21   -1    0    0  501  503 -0.00000000000E+00 -0.00000000000E+00 -0.27452742044E+02  0.27452742044E+02  0.00000000000E+00 0. -1.
          2    1    1    2  501    0 -0.49403631263E+01 -0.20534540721E+02 -0.14372584257E+02  0.25546931884E+02  0.00000000000E+00 0. -1.
         -2    1    1    2    0  502  0.49403631263E+01  0.20534540721E+02  0.73900903811E+01  0.22376058328E+02  0.00000000000E+00 0.  1.
<mgrwt>
<rscale>  2 0.21120477E+02</rscale>
<asrwt>0</asrwt>
<pdfrwt beam="1">  1       21 0.31492689E-02 0.21120477E+02</pdfrwt>
<pdfrwt beam="2">  1       21 0.42234988E-02 0.21120477E+02</pdfrwt>
<totfact> 0.13532385E+08</totfact>
</mgrwt>
</event>
<event>
 4    1  0.2761157E+004  0.3668174E+02  0.7546771E-02  0.1534154E+00
         21   -1    0    0  501  502  0.00000000000E+00  0.00000000000E+00  0.38391860568E+03  0.38391860568E+03  0.00000000000E+00 0. -1.
         21   -1    0    0  502  503 -0.00000000000E+00 -0.00000000000E+00 -0.41119595009E+01  0.41119595009E+01  0.00000000000E+00 0.  1.
          2    1    1    2  501    0  0.36414841293E+02 -0.44169695916E+01  0.26445716754E+03  0.26698903302E+03  0.00000000000E+00 0. -1.
         -2    1    1    2    0  503 -0.36414841293E+02  0.44169695916E+01  0.11534947863E+03  0.12104153216E+03  0.00000000000E+00 0.  1.
<mgrwt>
<rscale>  2 0.36681743E+02</rscale>
<asrwt>0</asrwt>
<pdfrwt beam="1">  1       21 0.59064373E-01 0.36681743E+02</pdfrwt>
<pdfrwt beam="2">  1       21 0.63260946E-03 0.36681743E+02</pdfrwt>
<totfact> 0.17707971E+07</totfact>
</mgrwt>
</event>
<event>
 4    1  0.2761157E+004  0.2679337E+02  0.7546771E-02  0.1636503E+00
         21   -1    0    0  503  502  0.00000000000E+00  0.00000000000E+00  0.10887141513E+03  0.10887141513E+03  0.00000000000E+00 0. -1.
         21   -1    0    0  501  503 -0.00000000000E+00 -0.00000000000E+00 -0.82589199973E+01  0.82589199973E+01  0.00000000000E+00 0.  1.
          2    1    1    2  501    0  0.24527543144E+02  0.10783509581E+02  0.24010179885E+02  0.35977398318E+02  0.00000000000E+00 0.  1.
         -2    1    1    2    0  502 -0.24527543144E+02 -0.10783509581E+02  0.76602315245E+02  0.81152936808E+02  0.00000000000E+00 0. -1.
<mgrwt>
<rscale>  2 0.26793366E+02</rscale>
<asrwt>0</asrwt>
<pdfrwt beam="1">  1       21 0.16749447E-01 0.26793366E+02</pdfrwt>
<pdfrwt beam="2">  1       21 0.12706032E-02 0.26793366E+02</pdfrwt>
<totfact> 0.60604233E+07</totfact>
</mgrwt>
</event>
<event>
 4    1  0.2761157E+004  0.2558242E+02  0.7546771E-02  0.1652775E+00
         21   -1    0    0  501  502  0.00000000000E+00  0.00000000000E+00  0.90726268830E+02  0.90726268830E+02  0.00000000000E+00 0. -1.
         21   -1    0    0  502  503 -0.00000000000E+00 -0.00000000000E+00 -0.25963290475E+02  0.25963290475E+02  0.00000000000E+00 0.  1.
          2    1    1    2  501    0 -0.21135584471E+02 -0.14413448043E+02  0.81962973122E+02  0.85862619214E+02  0.00000000000E+00 0. -1.
         -2    1    1    2    0  503  0.21135584471E+02  0.14413448043E+02 -0.17199994767E+02  0.30826940091E+02  0.00000000000E+00 0.  1.
<mgrwt>
<rscale>  2 0.25582424E+02</rscale>
<asrwt>0</asrwt>
<pdfrwt beam="1">  1       21 0.13957887E-01 0.25582424E+02</pdfrwt>
<pdfrwt beam="2">  1       21 0.39943524E-02 0.25582424E+02</pdfrwt>
<totfact> 0.13911046E+07</totfact>
</mgrwt>
</event>
<event>
 4    1  0.2761157E+004  0.2862705E+02  0.7546771E-02  0.1613780E+00
         21   -1    0    0  503  502  0.00000000000E+00  0.00000000000E+00  0.12836114684E+04  0.12836114684E+04  0.00000000000E+00 0.  1.
         21   -1    0    0  501  503 -0.00000000000E+00 -0.00000000000E+00 -0.69898656806E+00  0.69898656806E+00  0.00000000000E+00 0. -1.
          2    1    1    2  501    0  0.50150431349E+01  0.28184348349E+02  0.83045218591E+03  0.83094545021E+03  0.00000000000E+00 0.  1.
         -2    1    1    2    0  502 -0.50150431349E+01 -0.28184348349E+02  0.45246029596E+03  0.45336500479E+03  0.00000000000E+00 0. -1.
<mgrwt>
<rscale>  2 0.28627053E+02</rscale>
<asrwt>0</asrwt>
<pdfrwt beam="1">  1       21 0.19747680E+00 0.28627053E+02</pdfrwt>
<pdfrwt beam="2">  1       21 0.10753742E-03 0.28627053E+02</pdfrwt>
<totfact> 0.14866068E+07</totfact>
</mgrwt>
</event>
<event>
 4    1  0.2761157E+004  0.2165037E+02  0.7546771E-02  0.1714370E+00
         21   -1    0    0  503  502  0.00000000000E+00  0.00000000000E+00  0.10026321644E+02  0.10026321644E+02  0.00000000000E+00 0.  1.
         21   -1    0    0  501  503 -0.00000000000E+00 -0.00000000000E+00 -0.21836755133E+03  0.21836755133E+03  0.00000000000E+00 0. -1.
          2    1    1    2  501    0 -0.12235282308E+02  0.17861591890E+02 -0.20540784039E+03  0.20654568378E+03  0.00000000000E+00 0. -1.
         -2    1    1    2    0  502  0.12235282308E+02 -0.17861591890E+02 -0.29333892978E+01  0.21848189187E+02  0.00000000000E+00 0.  1.
<mgrwt>
<rscale>  2 0.21650372E+02</rscale>
<asrwt>0</asrwt>
<pdfrwt beam="1">  1       21 0.15425110E-02 0.21650372E+02</pdfrwt>
<pdfrwt beam="2">  1       21 0.33595009E-01 0.21650372E+02</pdfrwt>
<totfact> 0.12485960E+07</totfact>
</mgrwt>
</event>
<event>
 4    1  0.2761157E+004  0.2361940E+02  0.7546771E-02  0.1681662E+00
         21   -1    0    0  503  502  0.00000000000E+00  0.00000000000E+00  0.29048849245E+02  0.29048849245E+02  0.00000000000E+00 0.  1.
         21   -1    0    0  501  503 -0.00000000000E+00 -0.00000000000E+00 -0.50243202491E+02  0.50243202491E+02  0.00000000000E+00 0. -1.
          2    1    1    2  501    0  0.19362192929E+02 -0.13527074010E+02 -0.41758145097E+02  0.47975190758E+02  0.00000000000E+00 0. -1.
         -2    1    1    2    0  502 -0.19362192929E+02  0.13527074010E+02  0.20563791851E+02  0.31316860979E+02  0.00000000000E+00 0.  1.
<mgrwt>
<rscale>  2 0.23619404E+02</rscale>
<asrwt>0</asrwt>
<pdfrwt beam="1">  1       21 0.44690538E-02 0.23619404E+02</pdfrwt>
<pdfrwt beam="2">  1       21 0.77297234E-02 0.23619404E+02</pdfrwt>
<totfact> 0.30601356E+07</totfact>
</mgrwt>
</event>
<event>
 4    1  0.2761157E+004  0.2447617E+02  0.7546771E-02  0.1668642E+00
         21   -1    0    0  503  502  0.00000000000E+00  0.00000000000E+00  0.76864381482E+02  0.76864381482E+02  0.00000000000E+00 0.  1.
         21   -1    0    0  501  503 -0.00000000000E+00 -0.00000000000E+00 -0.51350334764E+02  0.51350334764E+02  0.00000000000E+00 0. -1.
          2    1    1    2  501    0 -0.22229839706E+02 -0.10242895923E+02 -0.46285076297E+02  0.52358294263E+02  0.00000000000E+00 0. -1.
         -2    1    1    2    0  502  0.22229839706E+02  0.10242895923E+02  0.71799123015E+02  0.75856421983E+02  0.00000000000E+00 0.  1.
<mgrwt>
<rscale>  2 0.24476166E+02</rscale>
<asrwt>0</asrwt>
<pdfrwt beam="1">  1       21 0.11825290E-01 0.24476166E+02</pdfrwt>
<pdfrwt beam="2">  1       21 0.79000514E-02 0.24476166E+02</pdfrwt>
<totfact> 0.61047090E+06</totfact>
</mgrwt>
</event>
<event>
 4    1  0.2761157E+004  0.2109599E+02  0.7546771E-02  0.1724372E+00
         21   -1    0    0  503  502  0.00000000000E+00  0.00000000000E+00  0.12484898589E+01  0.12484898589E+01  0.00000000000E+00 0. -1.
         21   -1    0    0  501  503 -0.00000000000E+00 -0.00000000000E+00 -0.60963973920E+03  0.60963973920E+03  0.00000000000E+00 0.  1.
          2    1    1    2  501    0 -0.16291918655E+02 -0.13402017307E+02 -0.50103268146E+03  0.50147660820E+03  0.00000000000E+00 0.  1.
         -2    1    1    2    0  502  0.16291918655E+02  0.13402017307E+02 -0.10735856788E+03  0.10941162085E+03  0.00000000000E+00 0. -1.
<mgrwt>
<rscale>  2 0.21095987E+02</rscale>
<asrwt>0</asrwt>
<pdfrwt beam="1">  1       21 0.19207527E-03 0.21095987E+02</pdfrwt>
<pdfrwt beam="2">  1       21 0.93790774E-01 0.21095987E+02</pdfrwt>
<totfact> 0.35202912E+07</totfact>
</mgrwt>
</event>
<event>
 4    1  0.2761157E+004  0.6099506E+02  0.7546771E-02  0.1393703E+00
         21   -1    0    0  501  502  0.00000000000E+00  0.00000000000E+00  0.27001654086E+03  0.27001654086E+03  0.00000000000E+00 0. -1.
         21   -1    0    0  502  503 -0.00000000000E+00 -0.00000000000E+00 -0.27296452479E+02  0.27296452479E+02  0.00000000000E+00 0.  1.
          2    1    1    2  501    0 -0.11106811746E+02 -0.59975297614E+02  0.22597354924E+03  0.23406076678E+03  0.00000000000E+00 0. -1.
         -2    1    1    2    0  503  0.11106811746E+02  0.59975297614E+02  0.16746539141E+02  0.63252226556E+02  0.00000000000E+00 0.  1.
<mgrwt>
<rscale>  2 0.60995062E+02</rscale>
<asrwt>0</asrwt>
<pdfrwt beam="1">  1       21 0.41541005E-01 0.60995062E+02</pdfrwt>
<pdfrwt beam="2">  1       21 0.41994544E-02 0.60995062E+02</pdfrwt>
<totfact> 0.19505192E+06</totfact>
</mgrwt>
</event>
<event>
 4    1  0.2761157E+004  0.2385505E+02  0.7546771E-02  0.1678013E+00
         21   -1    0    0  503  502  0.00000000000E+00  0.00000000000E+00  0.48470923476E+03  0.48470923476E+03  0.00000000000E+00 0.  1.
         21   -1    0    0  501  503 -0.00000000000E+00 -0.00000000000E+00 -0.15555584685E+01  0.15555584685E+01  0.00000000000E+00 0. -1.
          2    1    1    2  501    0 -0.19732885104E+02  0.13404355007E+02  0.12116677669E+03  0.12349271744E+03  0.00000000000E+00 0. -1.
         -2    1    1    2    0  502  0.19732885104E+02 -0.13404355007E+02  0.36198689960E+03  0.36277207578E+03  0.00000000000E+00 0.  1.
<mgrwt>
<rscale>  2 0.23855052E+02</rscale>
<asrwt>0</asrwt>
<pdfrwt beam="1">  1       21 0.74570531E-01 0.23855052E+02</pdfrwt>
<pdfrwt beam="2">  1       21 0.23931707E-03 0.23855052E+02</pdfrwt>
<totfact> 0.42712522E+07</totfact>
</mgrwt>
</event>
<event>
 4    1  0.2761157E+004  0.2246453E+02  0.7546771E-02  0.1700340E+00
         21   -1    0    0  503  502  0.00000000000E+00  0.00000000000E+00  0.68832086392E+02  0.68832086392E+02  0.00000000000E+00 0.  1.
         21   -1    0    0  501  503 -0.00000000000E+00 -0.00000000000E+00 -0.10994870023E+02  0.10994870023E+02  0.00000000000E+00 0. -1.
          2    1    1    2  501    0  0.12531764793E+02 -0.18644304019E+02  0.58801224356E+01  0.23221348821E+02  0.00000000000E+00 0.  1.
         -2    1    1    2    0  502 -0.12531764793E+02  0.18644304019E+02  0.51957093933E+02  0.56605607595E+02  0.00000000000E+00 0. -1.
<mgrwt>
<rscale>  2 0.22464532E+02</rscale>
<asrwt>0</asrwt>
<pdfrwt beam="1">  1       21 0.10589551E-01 0.22464532E+02</pdfrwt>
<pdfrwt beam="2">  1       21 0.16915185E-02 0.22464532E+02</pdfrwt>
<totfact> 0.81396390E+07</totfact>
</mgrwt>
</event>
<event>
 4    1  0.2761157E+004  0.2165103E+02  0.7546771E-02  0.1714358E+00
         21   -1    0    0  503  502  0.00000000000E+00  0.00000000000E+00  0.18227611213E+03  0.18227611213E+03  0.00000000000E+00 0.  1.
         21   -1    0    0  501  503 -0.00000000000E+00 -0.00000000000E+00 -0.55550156301E+01  0.55550156301E+01  0.00000000000E+00 0. -1.
          2    1    1    2  501    0 -0.17674313824E+02 -0.12505420084E+02  0.19536285916E+02  0.29162190727E+02  0.00000000000E+00 0. -1.
         -2    1    1    2    0  502  0.17674313824E+02  0.12505420084E+02  0.15718481058E+03  0.15866893703E+03  0.00000000000E+00 0.  1.
<mgrwt>
<rscale>  2 0.21651025E+02</rscale>
<asrwt>0</asrwt>
<pdfrwt beam="1">  1       21 0.28042474E-01 0.21651025E+02</pdfrwt>
<pdfrwt beam="2">  1       21 0.85461793E-03 0.21651025E+02</pdfrwt>
<totfact> 0.42174337E+07</totfact>
</mgrwt>
</event>
<event>
 4    1  0.2761157E+004  0.3164090E+02  0.7546771E-02  0.1580628E+00
         21   -1    0    0  503  502  0.00000000000E+00  0.00000000000E+00  0.58637270187E+01  0.58637270187E+01  0.00000000000E+00 0. -1.
         21   -1    0    0  501  503 -0.00000000000E+00 -0.00000000000E+00 -0.27475905035E+03  0.27475905035E+03  0.00000000000E+00 0.  1.
          2    1    1    2  501    0  0.31570433011E+02  0.21104893335E+01 -0.22078183621E+03  0.22303758788E+03  0.00000000000E+00 0.  1.
         -2    1    1    2    0  502 -0.31570433011E+02 -0.21104893335E+01 -0.48113487116E+02  0.57585189487E+02  0.00000000000E+00 0. -1.
<mgrwt>
<rscale>  2 0.31640898E+02</rscale>
<asrwt>0</asrwt>
<pdfrwt beam="1">  1       21 0.90211200E-03 0.31640898E+02</pdfrwt>
<pdfrwt beam="2">  1       21 0.42270616E-01 0.31640898E+02</pdfrwt>
<totfact> 0.19604966E+07</totfact>
</mgrwt>
</event>
<event>
 4    1  0.2761157E+004  0.2041079E+02  0.7546771E-02  0.1737280E+00
         21   -1    0    0  501  502  0.00000000000E+00  0.00000000000E+00  0.31890955212E+03  0.31890955212E+03  0.00000000000E+00 0.  1.
         21   -1    0    0  502  503 -0.00000000000E+00 -0.00000000000E+00 -0.60310235005E+01  0.60310235005E+01  0.00000000000E+00 0. -1.
          2    1    1    2  501    0  0.25181521063E+00  0.20409234207E+02  0.30024141588E+03  0.30093439162E+03  0.00000000000E+00 0.  1.
         -2    1    1    2    0  503 -0.25181521063E+00 -0.20409234207E+02  0.12637112744E+02  0.24006184002E+02  0.00000000000E+00 0. -1.
<mgrwt>
<rscale>  2 0.20410788E+02</rscale>
<asrwt>0</asrwt>
<pdfrwt beam="1">  1       21 0.49062995E-01 0.20410788E+02</pdfrwt>
<pdfrwt beam="2">  1       21 0.92785002E-03 0.20410788E+02</pdfrwt>
<totfact> 0.13005060E+07</totfact>
</mgrwt>
</event>
<event>
 4    1  0.2761157E+004  0.2023281E+02  0.7546771E-02  0.1740738E+00
         21   -1    0    0  503  502  0.00000000000E+00  0.00000000000E+00  0.67425807472E+00  0.67425807472E+00  0.00000000000E+00 0.  1.
         21   -1    0    0  501  503 -0.00000000000E+00 -0.00000000000E+00 -0.71147739821E+03  0.71147739821E+03  0.00000000000E+00 0. -1.
          2    1    1    2  501    0  0.20209455405E+02  0.97184540353E+00 -0.49176238356E+03  0.49217843152E+03  0.00000000000E+00 0. -1.
         -2    1    1    2    0  502 -0.20209455405E+02 -0.97184540353E+00 -0.21904075657E+03  0.21997322476E+03  0.00000000000E+00 0.  1.
<mgrwt>
<rscale>  2 0.20232809E+02</rscale>
<asrwt>0</asrwt>
<pdfrwt beam="1">  1       21 0.10373126E-03 0.20232809E+02</pdfrwt>
<pdfrwt beam="2">  1       21 0.10945886E+00 0.20232809E+02</pdfrwt>
<totfact> 0.59999065E+07</totfact>
</mgrwt>
</event>
<event>
 4    1  0.2761157E+004  0.2225221E+02  0.7546771E-02  0.1703926E+00
         21   -1    0    0  503  502  0.00000000000E+00  0.00000000000E+00  0.41128604473E+02  0.41128604473E+02  0.00000000000E+00 0.  1.
         21   -1    0    0  501  503 -0.00000000000E+00 -0.00000000000E+00 -0.13785319285E+02  0.13785319285E+02  0.00000000000E+00 0. -1.
          2    1    1    2  501    0 -0.20427139444E+02 -0.88256915201E+01  0.39000622353E+01  0.22591399737E+02  0.00000000000E+00 0. -1.
         -2    1    1    2    0  502  0.20427139444E+02  0.88256915201E+01  0.23443222952E+02  0.32322524021E+02  0.00000000000E+00 0.  1.
<mgrwt>
<rscale>  2 0.22252210E+02</rscale>
<asrwt>0</asrwt>
<pdfrwt beam="1">  1       21 0.63274776E-02 0.22252210E+02</pdfrwt>
<pdfrwt beam="2">  1       21 0.21208184E-02 0.22252210E+02</pdfrwt>
<totfact> 0.13311997E+08</totfact>
</mgrwt>
</event>
<event>
 4    1  0.2761157E+004  0.2555547E+02  0.7546771E-02  0.1653149E+00
         21   -1    0    0  503  502  0.00000000000E+00  0.00000000000E+00  0.37437176057E+03  0.37437176057E+03  0.00000000000E+00 0.  1.
         21   -1    0    0  501  503 -0.00000000000E+00 -0.00000000000E+00 -0.17950793085E+01  0.17950793085E+01  0.00000000000E+00 0. -1.
          2    1    1    2  501    0  0.25823146000E+01 -0.25424668885E+02  0.15470901125E+03  0.15680548555E+03  0.00000000000E+00 0.  1.
         -2    1    1    2    0  502 -0.25823146000E+01  0.25424668885E+02  0.21786767001E+03  0.21936135432E+03  0.00000000000E+00 0. -1.
<mgrwt>
<rscale>  2 0.25555472E+02</rscale>
<asrwt>0</asrwt>
<pdfrwt beam="1">  1       21 0.57595594E-01 0.25555472E+02</pdfrwt>
<pdfrwt beam="2">  1       21 0.27616634E-03 0.25555472E+02</pdfrwt>
<totfact> 0.59544090E+07</totfact>
</mgrwt>
</event>
<event>
 4    1  0.2761157E+004  0.2221038E+02  0.7546771E-02  0.1704639E+00
         21   -1    0    0  501  502  0.00000000000E+00  0.00000000000E+00  0.16809173842E+02  0.16809173842E+02  0.00000000000E+00 0.  1.
         21   -1    0    0  502  503 -0.00000000000E+00 -0.00000000000E+00 -0.46124527405E+02  0.46124527405E+02  0.00000000000E+00 0. -1.
          2    1    1    2  501    0  0.19672183206E+02 -0.10310498464E+02  0.43202814258E+01  0.22626665735E+02  0.00000000000E+00 0.  1.
         -2    1    1    2    0  503 -0.19672183206E+02  0.10310498464E+02 -0.33635634989E+02  0.40307035512E+02  0.00000000000E+00 0. -1.
<mgrwt>
<rscale>  2 0.22210384E+02</rscale>
<asrwt>0</asrwt>
<pdfrwt beam="1">  1       21 0.25860268E-02 0.22210384E+02</pdfrwt>
<pdfrwt beam="2">  1       21 0.70960811E-02 0.22210384E+02</pdfrwt>
<totfact> 0.81461493E+07</totfact>
</mgrwt>
</event>
<event>
 4    1  0.2761157E+004  0.2097320E+02  0.7546771E-02  0.1726640E+00
         21   -1    0    0  503  502  0.00000000000E+00  0.00000000000E+00  0.18534010826E+02  0.18534010826E+02  0.00000000000E+00 0. -1.
         21   -1    0    0  501  503 -0.00000000000E+00 -0.00000000000E+00 -0.24905825528E+02  0.24905825528E+02  0.00000000000E+00 0.  1.
          2    1    1    2  501    0 -0.16512456125E+02  0.12931125932E+02 -0.78983819477E+01  0.22411150406E+02  0.00000000000E+00 0.  1.
         -2    1    1    2    0  502  0.16512456125E+02 -0.12931125932E+02  0.15265672456E+01  0.21028685948E+02  0.00000000000E+00 0. -1.
<mgrwt>
<rscale>  2 0.20973203E+02</rscale>
<asrwt>0</asrwt>
<pdfrwt beam="1">  1       21 0.28513863E-02 0.20973203E+02</pdfrwt>
<pdfrwt beam="2">  1       21 0.38316654E-02 0.20973203E+02</pdfrwt>
<totfact> 0.18357111E+08</totfact>
</mgrwt>
</event>
<event>
 4    1  0.2761157E+004  0.2458130E+02  0.7546771E-02  0.1667090E+00
         21   -1    0    0  503  502  0.00000000000E+00  0.00000000000E+00  0.41510293708E+01  0.41510293708E+01  0.00000000000E+00 0.  1.
         21   -1    0    0  501  503 -0.00000000000E+00 -0.00000000000E+00 -0.37993355621E+03  0.37993355621E+03  0.00000000000E+00 0. -1.
          2    1    1    2  501    0  0.23258492189E+02 -0.79550628395E+01 -0.33872331733E+03  0.33961408420E+03  0.00000000000E+00 0. -1.
         -2    1    1    2    0  502 -0.23258492189E+02  0.79550628395E+01 -0.37059209513E+02  0.44470501384E+02  0.00000000000E+00 0.  1.
<mgrwt>
<rscale>  2 0.24581304E+02</rscale>
<asrwt>0</asrwt>
<pdfrwt beam="1">  1       21 0.63861998E-03 0.24581304E+02</pdfrwt>
<pdfrwt beam="2">  1       21 0.58451310E-01 0.24581304E+02</pdfrwt>
<totfact> 0.16686610E+07</totfact>
</mgrwt>
</event>
<event>
 4    1  0.2761157E+004  0.2030612E+02  0.7546771E-02  0.1739308E+00
         21   -1    0    0  501  502  0.00000000000E+00  0.00000000000E+00  0.86180210428E+02  0.86180210428E+02  0.00000000000E+00 0. -1.
         21   -1    0    0  502  503 -0.00000000000E+00 -0.00000000000E+00 -0.16690309437E+02  0.16690309437E+02  0.00000000000E+00 0.  1.
          2    1    1    2  501    0 -0.20099930489E+02  0.28864035250E+01  0.78186592961E+02  0.80780454627E+02  0.00000000000E+00 0. -1.
         -2    1    1    2    0  503  0.20099930489E+02 -0.28864035250E+01 -0.86966919700E+01  0.22090065237E+02  0.00000000000E+00 0.  1.
<mgrwt>
<rscale>  2 0.20306121E+02</rscale>
<asrwt>0</asrwt>
<pdfrwt beam="1">  1       21 0.13258494E-01 0.20306121E+02</pdfrwt>
<pdfrwt beam="2">  1       21 0.25677400E-02 0.20306121E+02</pdfrwt>
<totfact> 0.28748336E+07</totfact>
</mgrwt>
</event>
<event>
 4    1  0.2761157E+004  0.3973913E+02  0.7546771E-02  0.1510140E+00
         21   -1    0    0  503  502  0.00000000000E+00  0.00000000000E+00  0.24129960891E+03  0.24129960891E+03  0.00000000000E+00 0.  1.
         21   -1    0    0  501  503 -0.00000000000E+00 -0.00000000000E+00 -0.68242743737E+01  0.68242743737E+01  0.00000000000E+00 0. -1.
          2    1    1    2  501    0 -0.32152324805E+02 -0.23354363413E+02  0.92120392743E+02  0.10032629286E+03  0.00000000000E+00 0. -1.
         -2    1    1    2    0  502  0.32152324805E+02  0.23354363413E+02  0.14235494179E+03  0.14779759042E+03  0.00000000000E+00 0.  1.
<mgrwt>
<rscale>  2 0.39739128E+02</rscale>
<asrwt>0</asrwt>
<pdfrwt beam="1">  1       21 0.37123010E-01 0.39739128E+02</pdfrwt>
<pdfrwt beam="2">  1       21 0.10498885E-02 0.39739128E+02</pdfrwt>
<totfact> 0.20699277E+07</totfact>
</mgrwt>
</event>
<event>
 4    1  0.2761157E+004  0.4163878E+02  0.7546771E-02  0.1496487E+00
         21   -1    0    0  503  502  0.00000000000E+00  0.00000000000E+00  0.53066315807E+01  0.53066315807E+01  0.00000000000E+00 0. -1.
         21   -1    0    0  501  503 -0.00000000000E+00 -0.00000000000E+00 -0.36077222555E+03  0.36077222555E+03  0.00000000000E+00 0.  1.
          2    1    1    2  501    0 -0.20056352288E+02 -0.36490145950E+02 -0.23396620788E+03  0.23764253502E+03  0.00000000000E+00 0.  1.
         -2    1    1    2    0  502  0.20056352288E+02  0.36490145950E+02 -0.12149938609E+03  0.12843632212E+03  0.00000000000E+00 0. -1.
<mgrwt>
<rscale>  2 0.41638780E+02</rscale>
<asrwt>0</asrwt>
<pdfrwt beam="1">  1       21 0.81640479E-03 0.41638780E+02</pdfrwt>
<pdfrwt beam="2">  1       21 0.55503424E-01 0.41638780E+02</pdfrwt>
<totfact> 0.13894642E+07</totfact>
</mgrwt>
</event>
<event>
 4    1  0.2761157E+004  0.2079680E+02  0.7546771E-02  0.1729932E+00
         21   -1    0    0  501  502  0.00000000000E+00  0.00000000000E+00  0.13864536582E+02  0.13864536582E+02  0.00000000000E+00 0. -1.
         21   -1    0    0  502  503 -0.00000000000E+00 -0.00000000000E+00 -0.34626251852E+02  0.34626251852E+02  0.00000000000E+00 0.  1.
          2    1    1    2  501    0  0.14910851556E+01  0.20743275864E+02 -0.27488131475E+01  0.20977673900E+02  0.00000000000E+00 0. -1.
         -2    1    1    2    0  503 -0.14910851556E+01 -0.20743275864E+02 -0.18012902122E+02  0.27513114534E+02  0.00000000000E+00 0.  1.
<mgrwt>
<rscale>  2 0.20796799E+02</rscale>
<asrwt>0</asrwt>
<pdfrwt beam="1">  1       21 0.21330056E-02 0.20796799E+02</pdfrwt>
<pdfrwt beam="2">  1       21 0.53271157E-02 0.20796799E+02</pdfrwt>
<totfact> 0.17017990E+08</totfact>
</mgrwt>
</event>
<event>
 4    1  0.2761157E+004  0.2181914E+02  0.7546771E-02  0.1711399E+00
         21   -1    0    0  503  502  0.00000000000E+00  0.00000000000E+00  0.46742398408E+02  0.46742398408E+02  0.00000000000E+00 0.  1.
         21   -1    0    0  501  503 -0.00000000000E+00 -0.00000000000E+00 -0.13170521305E+02  0.13170521305E+02  0.00000000000E+00 0. -1.
          2    1    1    2  501    0  0.21552655472E+02 -0.33996946445E+01  0.25235073154E+01  0.21964584466E+02  0.00000000000E+00 0. -1.
         -2    1    1    2    0  502 -0.21552655472E+02  0.33996946445E+01  0.31048369787E+02  0.37948335247E+02  0.00000000000E+00 0.  1.
<mgrwt>
<rscale>  2 0.21819140E+02</rscale>
<asrwt>0</asrwt>
<pdfrwt beam="1">  1       21 0.71911382E-02 0.21819140E+02</pdfrwt>
<pdfrwt beam="2">  1       21 0.20262341E-02 0.21819140E+02</pdfrwt>
<totfact> 0.11546005E+08</totfact>
</mgrwt>
</event>
<event>
 4    1  0.2761157E+004  0.2829675E+02  0.7546771E-02  0.1617717E+00
         21   -1    0    0  503  502  0.00000000000E+00  0.00000000000E+00  0.22396963923E+01  0.22396963923E+01  0.00000000000E+00 0. -1.
         21   -1    0    0  501  503 -0.00000000000E+00 -0.00000000000E+00 -0.70028741634E+03  0.70028741634E+03  0.00000000000E+00 0.  1.
          2    1    1    2  501    0 -0.26132664727E+02 -0.10853094157E+02 -0.59477939444E+03  0.59545212559E+03  0.00000000000E+00 0.  1.
         -2    1    1    2    0  502  0.26132664727E+02  0.10853094157E+02 -0.10326832551E+03  0.10707498715E+03  0.00000000000E+00 0. -1.
<mgrwt>
<rscale>  2 0.28296746E+02</rscale>
<asrwt>0</asrwt>
<pdfrwt beam="1">  1       21 0.34456832E-03 0.28296746E+02</pdfrwt>
<pdfrwt beam="2">  1       21 0.10773664E+00 0.28296746E+02</pdfrwt>
<totfact> 0.11699557E+07</totfact>
</mgrwt>
</event>
<event>
 4    1  0.2761157E+004  0.3482516E+02  0.7546771E-02  0.1550159E+00
         21   -1    0    0  501  502  0.00000000000E+00  0.00000000000E+00  0.91148271971E+02  0.91148271971E+02  0.00000000000E+00 0.  1.
         21   -1    0    0  502  503 -0.00000000000E+00 -0.00000000000E+00 -0.23898056748E+02  0.23898056748E+02  0.00000000000E+00 0. -1.
          2    1    1    2  501    0  0.20194221310E+02  0.28372257833E+02  0.71921491532E+02  0.79909276890E+02  0.00000000000E+00 0.  1.
         -2    1    1    2    0  503 -0.20194221310E+02 -0.28372257833E+02 -0.46712763099E+01  0.35137051829E+02  0.00000000000E+00 0. -1.
<mgrwt>
<rscale>  2 0.34825157E+02</rscale>
<asrwt>0</asrwt>
<pdfrwt beam="1">  1       21 0.14022811E-01 0.34825157E+02</pdfrwt>
<pdfrwt beam="2">  1       21 0.36766242E-02 0.34825157E+02</pdfrwt>
<totfact> 0.16633890E+07</totfact>
</mgrwt>
</event>
<event>
 4    1  0.2761157E+004  0.2544050E+02  0.7546771E-02  0.1654754E+00
         21   -1    0    0  503  502  0.00000000000E+00  0.00000000000E+00  0.13881867933E+01  0.13881867933E+01  0.00000000000E+00 0.  1.
         21   -1    0    0  501  503 -0.00000000000E+00 -0.00000000000E+00 -0.59828165964E+03  0.59828165964E+03  0.00000000000E+00 0. -1.
          2    1    1    2  501    0  0.19874234763E+02 -0.15881875217E+02 -0.43930929433E+03  0.44004531046E+03  0.00000000000E+00 0. -1.
         -2    1    1    2    0  502 -0.19874234763E+02  0.15881875217E+02 -0.15758417851E+03  0.15962453598E+03  0.00000000000E+00 0.  1.
<mgrwt>
<rscale>  2 0.25440503E+02</rscale>
<asrwt>0</asrwt>
<pdfrwt beam="1">  1       21 0.21356670E-03 0.25440503E+02</pdfrwt>
<pdfrwt beam="2">  1       21 0.92043547E-01 0.25440503E+02</pdfrwt>
<totfact> 0.32691655E+07</totfact>
</mgrwt>
</event>
<event>
 4    1  0.2761157E+004  0.3313549E+02  0.7546771E-02  0.1565810E+00
         21   -1    0    0  503  502  0.00000000000E+00  0.00000000000E+00  0.73383071300E+02  0.73383071300E+02  0.00000000000E+00 0.  1.
         21   -1    0    0  501  503 -0.00000000000E+00 -0.00000000000E+00 -0.20215170757E+02  0.20215170757E+02  0.00000000000E+00 0. -1.
          2    1    1    2  501    0 -0.25468999365E+02 -0.21196487540E+02  0.27273926839E+01  0.33247551542E+02  0.00000000000E+00 0. -1.
         -2    1    1    2    0  502  0.25468999365E+02  0.21196487540E+02  0.50440507859E+02  0.60350690516E+02  0.00000000000E+00 0.  1.
<mgrwt>
<rscale>  2 0.33135495E+02</rscale>
<asrwt>0</asrwt>
<pdfrwt beam="1">  1       21 0.11289703E-01 0.33135495E+02</pdfrwt>
<pdfrwt beam="2">  1       21 0.31100263E-02 0.33135495E+02</pdfrwt>
<totfact> 0.31122091E+07</totfact>
</mgrwt>
</event>
<event>
 4    1  0.2761157E+004  0.2531573E+02  0.7546771E-02  0.1656508E+00
         21   -1    0    0  501  502  0.00000000000E+00  0.00000000000E+00  0.84701335552E+00  0.84701335552E+00  0.00000000000E+00 0.  1.
         21   -1    0    0  502  503 -0.00000000000E+00 -0.00000000000E+00 -0.90099175922E+03  0.90099175922E+03  0.00000000000E+00 0. -1.
          2    1    1    2  501    0 -0.12596946467E+02  0.21959125259E+02 -0.26958539015E+03  0.27077143281E+03  0.00000000000E+00 0.  1.
         -2    1    1    2    0  503  0.12596946467E+02 -0.21959125259E+02 -0.63055935571E+03  0.63106733977E+03  0.00000000000E+00 0. -1.
<mgrwt>
<rscale>  2 0.25315731E+02</rscale>
<asrwt>0</asrwt>
<pdfrwt beam="1">  1       21 0.13030962E-03 0.25315731E+02</pdfrwt>
<pdfrwt beam="2">  1       21 0.13861425E+00 0.25315731E+02</pdfrwt>
<totfact> 0.26513521E+07</totfact>
</mgrwt>
</event>
<event>
 4    1  0.2761157E+004  0.2467294E+02  0.7546771E-02  0.1665745E+00
         21   -1    0    0  501  502  0.00000000000E+00  0.00000000000E+00  0.33293174181E+01  0.33293174181E+01  0.00000000000E+00 0. -1.
         21   -1    0    0  502  503 -0.00000000000E+00 -0.00000000000E+00 -0.28483625007E+03  0.28483625007E+03  0.00000000000E+00 0.  1.
          2    1    1    2  501    0 -0.10238819752E+02 -0.22448171905E+02 -0.54536479001E+02  0.59858010271E+02  0.00000000000E+00 0. -1.
         -2    1    1    2    0  503  0.10238819752E+02  0.22448171905E+02 -0.22697045365E+03  0.22830755722E+03  0.00000000000E+00 0.  1.
<mgrwt>
<rscale>  2 0.24672938E+02</rscale>
<asrwt>0</asrwt>
<pdfrwt beam="1">  1       21 0.51220253E-03 0.24672938E+02</pdfrwt>
<pdfrwt beam="2">  1       21 0.43820974E-01 0.24672938E+02</pdfrwt>
<totfact> 0.40663331E+07</totfact>
</mgrwt>
</event>
<event>
 4    1  0.2761157E+004  0.2059772E+02  0.7546771E-02  0.1733696E+00
         21   -1    0    0  503  502  0.00000000000E+00  0.00000000000E+00  0.37541134249E+00  0.37541134249E+00  0.00000000000E+00 0. -1.
         21   -1    0    0  501  503 -0.00000000000E+00 -0.00000000000E+00 -0.13399878004E+04  0.13399878004E+04  0.00000000000E+00 0.  1.
          2    1    1    2  501    0  0.17280181901E+02 -0.11209874104E+02 -0.93502125395E+03  0.93524810147E+03  0.00000000000E+00 0.  1.
         -2    1    1    2    0  502 -0.17280181901E+02  0.11209874104E+02 -0.40459113510E+03  0.40511511027E+03  0.00000000000E+00 0. -1.
<mgrwt>
<rscale>  2 0.20597717E+02</rscale>
<asrwt>0</asrwt>
<pdfrwt beam="1">  1       21 0.57754429E-04 0.20597717E+02</pdfrwt>
<pdfrwt beam="2">  1       21 0.20615612E+00 0.20597717E+02</pdfrwt>
<totfact> 0.30746060E+07</totfact>
</mgrwt>
</event>
<event>
 4    1  0.2761157E+004  0.2535800E+02  0.7546771E-02  0.1655912E+00
         21   -1    0    0  501  502  0.00000000000E+00  0.00000000000E+00  0.20992820243E+01  0.20992820243E+01  0.00000000000E+00 0.  1.
         21   -1    0    0  502  503 -0.00000000000E+00 -0.00000000000E+00 -0.30673570342E+03  0.30673570342E+03  0.00000000000E+00 0. -1.
          2    1    1    2  501    0  0.25336560139E+02 -0.10426250424E+01 -0.14655678077E+03  0.14873438855E+03  0.00000000000E+00 0. -1.
         -2    1    1    2    0  503 -0.25336560139E+02  0.10426250424E+01 -0.15807964063E+03  0.16010059690E+03  0.00000000000E+00 0.  1.
<mgrwt>
<rscale>  2 0.25358004E+02</rscale>
<asrwt>0</asrwt>
<pdfrwt beam="1">  1       21 0.32296634E-03 0.25358004E+02</pdfrwt>
<pdfrwt beam="2">  1       21 0.47190126E-01 0.25358004E+02</pdfrwt>
<totfact> 0.69935801E+07</totfact>
</mgrwt>
</event>
<event>
 4    1  0.2761157E+004  0.2912543E+02  0.7546771E-02  0.1607962E+00
         21   -1    0    0  503  502  0.00000000000E+00  0.00000000000E+00  0.25429652324E+03  0.25429652324E+03  0.00000000000E+00 0.  1.
         21   -1    0    0  501  503 -0.00000000000E+00 -0.00000000000E+00 -0.67953021865E+01  0.67953021865E+01  0.00000000000E+00 0. -1.
          2    1    1    2  501    0 -0.87876517897E+01  0.27768113356E+02  0.30604746976E+02  0.42248567795E+02  0.00000000000E+00 0. -1.
         -2    1    1    2    0  502  0.87876517897E+01 -0.27768113356E+02  0.21689647408E+03  0.21884325764E+03  0.00000000000E+00 0.  1.
<mgrwt>
<rscale>  2 0.29125435E+02</rscale>
<asrwt>0</asrwt>
<pdfrwt beam="1">  1       21 0.39122535E-01 0.29125435E+02</pdfrwt>
<pdfrwt beam="2">  1       21 0.10454313E-02 0.29125435E+02</pdfrwt>
<totfact> 0.17924121E+07</totfact>
</mgrwt>
</event>
<event>
 4    1  0.2761157E+004  0.2221910E+02  0.7546771E-02  0.1704490E+00
         21   -1    0    0  503  502  0.00000000000E+00  0.00000000000E+00  0.11632615536E+02  0.11632615536E+02  0.00000000000E+00 0. -1.
         21   -1    0    0  501  503 -0.00000000000E+00 -0.00000000000E+00 -0.58246133903E+02  0.58246133903E+02  0.00000000000E+00 0.  1.
          2    1    1    2  501    0  0.46109657487E+01  0.21735394103E+02 -0.41507715924E+02  0.47080556955E+02  0.00000000000E+00 0.  1.
         -2    1    1    2    0  502 -0.46109657487E+01 -0.21735394103E+02 -0.51058024426E+01  0.22798192484E+02  0.00000000000E+00 0. -1.
<mgrwt>
<rscale>  2 0.22219099E+02</rscale>
<asrwt>0</asrwt>
<pdfrwt beam="1">  1       21 0.17896331E-02 0.22219099E+02</pdfrwt>
<pdfrwt beam="2">  1       21 0.89609438E-02 0.22219099E+02</pdfrwt>
<totfact> 0.98068038E+07</totfact>
</mgrwt>
</event>
<event>
 4    1  0.2761157E+004  0.2222693E+02  0.7546771E-02  0.1704357E+00
         21   -1    0    0  501  502  0.00000000000E+00  0.00000000000E+00  0.21679727434E+01  0.21679727434E+01  0.00000000000E+00 0.  1.
         21   -1    0    0  502  503 -0.00000000000E+00 -0.00000000000E+00 -0.37767762213E+03  0.37767762213E+03  0.00000000000E+00 0. -1.
          2    1    1    2  501    0  0.13702132746E+02 -0.17501091234E+02 -0.68144244941E+02  0.71677574978E+02  0.00000000000E+00 0.  1.
         -2    1    1    2    0  503 -0.13702132746E+02  0.17501091234E+02 -0.30736540445E+03  0.30816801990E+03  0.00000000000E+00 0. -1.
<mgrwt>
<rscale>  2 0.22226935E+02</rscale>
<asrwt>0</asrwt>
<pdfrwt beam="1">  1       21 0.33353497E-03 0.22226935E+02</pdfrwt>
<pdfrwt beam="2">  1       21 0.58104127E-01 0.22226935E+02</pdfrwt>
<totfact> 0.43036426E+07</totfact>
</mgrwt>
</event>
<event>
 4    1  0.2761157E+004  0.2027403E+02  0.7546771E-02  0.1739933E+00
         21   -1    0    0  503  502  0.00000000000E+00  0.00000000000E+00  0.19341754756E+03  0.19341754756E+03  0.00000000000E+00 0. -1.
         21   -1    0    0  501  503 -0.00000000000E+00 -0.00000000000E+00 -0.44293413442E+01  0.44293413442E+01  0.00000000000E+00 0.  1.
          2    1    1    2  501    0  0.17420751880E+02  0.10370809796E+02  0.23144532166E+02  0.30768582371E+02  0.00000000000E+00 0.  1.
         -2    1    1    2    0  502 -0.17420751880E+02 -0.10370809796E+02  0.16584367405E+03  0.16707830653E+03  0.00000000000E+00 0. -1.
<mgrwt>
<rscale>  2 0.20274030E+02</rscale>
<asrwt>0</asrwt>
<pdfrwt beam="1">  1       21 0.29756539E-01 0.20274030E+02</pdfrwt>
<pdfrwt beam="2">  1       21 0.68143728E-03 0.20274030E+02</pdfrwt>
<totfact> 0.52186742E+07</totfact>
</mgrwt>
</event>
<event>
 4    1  0.2761157E+004  0.2027024E+02  0.7546771E-02  0.1740007E+00
         21   -1    0    0  501  502  0.00000000000E+00  0.00000000000E+00  0.64934678819E+03  0.64934678819E+03  0.00000000000E+00 0. -1.
         21   -1    0    0  502  503 -0.00000000000E+00 -0.00000000000E+00 -0.96373581097E+00  0.96373581097E+00  0.00000000000E+00 0.  1.
          2    1    1    2  501    0  0.14907338065E+02 -0.13735132890E+02  0.51474109290E+03  0.51514005409E+03  0.00000000000E+00 0. -1.
         -2    1    1    2    0  503 -0.14907338065E+02  0.13735132890E+02  0.13364195948E+03  0.13517046991E+03  0.00000000000E+00 0.  1.
<mgrwt>
<rscale>  2 0.20270239E+02</rscale>
<asrwt>0</asrwt>
<pdfrwt beam="1">  1       21 0.99899156E-01 0.20270239E+02</pdfrwt>
<pdfrwt beam="2">  1       21 0.14826757E-03 0.20270239E+02</pdfrwt>
<totfact> 0.44121324E+07</totfact>
</mgrwt>
</event>
<event>
 4    1  0.2761157E+004  0.2362277E+02  0.7546771E-02  0.1681610E+00
         21   -1    0    0  503  502  0.00000000000E+00  0.00000000000E+00  0.45612343145E+02  0.45612343145E+02  0.00000000000E+00 0. -1.
         21   -1    0    0  501  503 -0.00000000000E+00 -0.00000000000E+00 -0.19093044041E+02  0.19093044041E+02  0.00000000000E+00 0.  1.
          2    1    1    2  501    0  0.35993138513E+00  0.23620024114E+02 -0.61311249273E+01  0.24405445757E+02  0.00000000000E+00 0.  1.
         -2    1    1    2    0  502 -0.35993138513E+00 -0.23620024114E+02  0.32650424031E+02  0.40299941429E+02  0.00000000000E+00 0. -1.
<mgrwt>
<rscale>  2 0.23622766E+02</rscale>
<asrwt>0</asrwt>
<pdfrwt beam="1">  1       21 0.70172835E-02 0.23622766E+02</pdfrwt>
<pdfrwt beam="2">  1       21 0.29373914E-02 0.23622766E+02</pdfrwt>
<totfact> 0.69240309E+07</totfact>
</mgrwt>
</event>
<event>
 4    1  0.2761157E+004  0.2950034E+02  0.7546771E-02  0.1603678E+00
         21   -1    0    0  501  502  0.00000000000E+00  0.00000000000E+00  0.79767722118E+02  0.79767722118E+02  0.00000000000E+00 0. -1.
         21   -1    0    0  502  503 -0.00000000000E+00 -0.00000000000E+00 -0.11971445865E+02  0.11971445865E+02  0.00000000000E+00 0.  1.
          2    1    1    2  501    0 -0.29030646383E+02 -0.52432711677E+01  0.47556196029E+02  0.55963042293E+02  0.00000000000E+00 0. -1.
         -2    1    1    2    0  503  0.29030646383E+02  0.52432711677E+01  0.20240080224E+02  0.35776125690E+02  0.00000000000E+00 0.  1.
<mgrwt>
<rscale>  2 0.29500344E+02</rscale>
<asrwt>0</asrwt>
<pdfrwt beam="1">  1       21 0.12271957E-01 0.29500344E+02</pdfrwt>
<pdfrwt beam="2">  1       21 0.18417610E-02 0.29500344E+02</pdfrwt>
<totfact> 0.59777431E+07</totfact>
</mgrwt>
</event>
<event>
 4    1  0.2761157E+004  0.2615515E+02  0.7546771E-02  0.1644944E+00
         21   -1    0    0  501  502  0.00000000000E+00  0.00000000000E+00  0.13533423285E+03  0.13533423285E+03  0.00000000000E+00 0.  1.
         21   -1    0    0  502  503 -0.00000000000E+00 -0.00000000000E+00 -0.73348901217E+01  0.73348901217E+01  0.00000000000E+00 0. -1.
          2    1    1    2  501    0  0.11512661108E+02  0.23485117685E+02  0.10377153412E+03  0.10701693049E+03  0.00000000000E+00 0.  1.
         -2    1    1    2    0  503 -0.11512661108E+02 -0.23485117685E+02  0.24227808603E+02  0.35652192474E+02  0.00000000000E+00 0. -1.
<mgrwt>
<rscale>  2 0.26155155E+02</rscale>
<asrwt>0</asrwt>
<pdfrwt beam="1">  1       21 0.20820649E-01 0.26155155E+02</pdfrwt>
<pdfrwt beam="2">  1       21 0.11284447E-02 0.26155155E+02</pdfrwt>
<totfact> 0.49363103E+07</totfact>
</mgrwt>
</event>
<event>
 4    1  0.2761157E+004  0.2359549E+02  0.7546771E-02  0.1682035E+00
         21   -1    0    0  501  502  0.00000000000E+00  0.00000000000E+00  0.74654811147E+01  0.74654811147E+01  0.00000000000E+00 0.  1.
         21   -1    0    0  502  503 -0.00000000000E+00 -0.00000000000E+00 -0.16941974098E+03  0.16941974098E+03  0.00000000000E+00 0. -1.
          2    1    1    2  501    0  0.89698564428E+01  0.21824037741E+02 -0.14803720684E+02  0.27854929439E+02  0.00000000000E+00 0.  1.
         -2    1    1    2    0  503 -0.89698564428E+01 -0.21824037741E+02 -0.14715053918E+03  0.14903029266E+03  0.00000000000E+00 0. -1.
<mgrwt>
<rscale>  2 0.23595486E+02</rscale>
<asrwt>0</asrwt>
<pdfrwt beam="1">  1       21 0.11485358E-02 0.23595486E+02</pdfrwt>
<pdfrwt beam="2">  1       21 0.26064570E-01 0.23595486E+02</pdfrwt>
<totfact> 0.31502641E+07</totfact>
</mgrwt>
</event>
<event>
 4    1  0.2761157E+004  0.2310854E+02  0.7546771E-02  0.1689757E+00
         21   -1    0    0  501  502  0.00000000000E+00  0.00000000000E+00  0.85527901352E+01  0.85527901352E+01  0.00000000000E+00 0.  1.
         21   -1    0    0  502  503 -0.00000000000E+00 -0.00000000000E+00 -0.17466593952E+03  0.17466593952E+03  0.00000000000E+00 0. -1.
          2    1    1    2  501    0 -0.23636280267E+01 -0.22987346286E+02 -0.96238765333E+01  0.25032455458E+02  0.00000000000E+00 0.  1.
         -2    1    1    2    0  503  0.23636280267E+01  0.22987346286E+02 -0.15648927285E+03  0.15818627420E+03  0.00000000000E+00 0. -1.
<mgrwt>
<rscale>  2 0.23108544E+02</rscale>
<asrwt>0</asrwt>
<pdfrwt beam="1">  1       21 0.13158139E-02 0.23108544E+02</pdfrwt>
<pdfrwt beam="2">  1       21 0.26871682E-01 0.23108544E+02</pdfrwt>
<totfact> 0.24169429E+07</totfact>
</mgrwt>
</event>
<event>
 4    1  0.2761157E+004  0.2652525E+02  0.7546771E-02  0.1640014E+00
         21   -1    0    0  501  502  0.00000000000E+00  0.00000000000E+00  0.15940411907E+01  0.15940411907E+01  0.00000000000E+00 0. -1.
         21   -1    0    0  502  503 -0.00000000000E+00 -0.00000000000E+00 -0.44534366886E+03  0.44534366886E+03  0.00000000000E+00 0.  1.
          2    1    1    2  501    0 -0.26242330435E+02  0.38638010962E+01 -0.24293881531E+03  0.24438260341E+03  0.00000000000E+00 0. -1.
         -2    1    1    2    0  503  0.26242330435E+02 -0.38638010962E+01 -0.20081081235E+03  0.20255510663E+03  0.00000000000E+00 0.  1.
<mgrwt>
<rscale>  2 0.26525250E+02</rscale>
<asrwt>0</asrwt>
<pdfrwt beam="1">  1       21 0.24523717E-03 0.26525250E+02</pdfrwt>
<pdfrwt beam="2">  1       21 0.68514392E-01 0.26525250E+02</pdfrwt>
<totfact> 0.50220110E+07</totfact>
</mgrwt>
</event>
<event>
 4    1  0.2761157E+004  0.5147456E+02  0.7546771E-02  0.1437547E+00
         21   -1    0    0  501  502  0.00000000000E+00  0.00000000000E+00  0.60005754240E+03  0.60005754240E+03  0.00000000000E+00 0.  1.
         21   -1    0    0  502  503 -0.00000000000E+00 -0.00000000000E+00 -0.44462542815E+01  0.44462542815E+01  0.00000000000E+00 0. -1.
          2    1    1    2  501    0  0.49667910038E+02  0.13517739136E+02  0.27272013682E+03  0.27753540961E+03  0.00000000000E+00 0.  1.
         -2    1    1    2    0  503 -0.49667910038E+02 -0.13517739136E+02  0.32289115129E+03  0.32696838707E+03  0.00000000000E+00 0. -1.
<mgrwt>
<rscale>  2 0.51474562E+02</rscale>
<asrwt>0</asrwt>
<pdfrwt beam="1">  1       21 0.92316481E-01 0.51474562E+02</pdfrwt>
<pdfrwt beam="2">  1       21 0.68403960E-03 0.51474562E+02</pdfrwt>
<totfact> 0.63310591E+06</totfact>
</mgrwt>
</event>
<event>
 4    1  0.2761157E+004  0.2124303E+02  0.7546771E-02  0.1721682E+00
         21   -1    0    0  501  502  0.00000000000E+00  0.00000000000E+00  0.10592550298E+01  0.10592550298E+01  0.00000000000E+00 0.  1.
         21   -1    0    0  502  503 -0.00000000000E+00 -0.00000000000E+00 -0.78930110785E+03  0.78930110785E+03  0.00000000000E+00 0. -1.
          2    1    1    2  501    0 -0.85392340608E+01  0.19451161678E+02 -0.12602274807E+03  0.12780062301E+03  0.00000000000E+00 0.  1.
         -2    1    1    2    0  503  0.85392340608E+01 -0.19451161678E+02 -0.66221910475E+03  0.66255973987E+03  0.00000000000E+00 0. -1.
<mgrwt>
<rscale>  2 0.21243027E+02</rscale>
<asrwt>0</asrwt>
<pdfrwt beam="1">  1       21 0.16296228E-03 0.21243027E+02</pdfrwt>
<pdfrwt beam="2">  1       21 0.12143096E+00 0.21243027E+02</pdfrwt>
<totfact> 0.25254437E+07</totfact>
</mgrwt>
</event>
<event>
 4    1  0.2761157E+004  0.3370142E+02  0.7546771E-02  0.1560444E+00
         21   -1    0    0  501  502  0.00000000000E+00  0.00000000000E+00  0.16113906728E+02  0.16113906728E+02  0.00000000000E+00 0. -1.
         21   -1    0    0  502  503 -0.00000000000E+00 -0.00000000000E+00 -0.92259662073E+02  0.92259662073E+02  0.00000000000E+00 0.  1.
          2    1    1    2  501    0 -0.61662022100E+01  0.33132515651E+02 -0.11748078712E+02  0.35690376805E+02  0.00000000000E+00 0. -1.
         -2    1    1    2    0  503  0.61662022100E+01 -0.33132515651E+02 -0.64397676632E+02  0.72683191996E+02  0.00000000000E+00 0.  1.
<mgrwt>
<rscale>  2 0.33701419E+02</rscale>
<asrwt>0</asrwt>
<pdfrwt beam="1">  1       21 0.24790626E-02 0.33701419E+02</pdfrwt>
<pdfrwt beam="2">  1       21 0.14193794E-01 0.33701419E+02</pdfrwt>
<totfact> 0.30188169E+07</totfact>
</mgrwt>
</event>
<event>
 4    1  0.2761157E+004  0.2426189E+02  0.7546771E-02  0.1671836E+00
         21   -1    0    0  501  502  0.00000000000E+00  0.00000000000E+00  0.25300705371E+02  0.25300705371E+02  0.00000000000E+00 0.  1.
         21   -1    0    0  502  503 -0.00000000000E+00 -0.00000000000E+00 -0.89835205683E+02  0.89835205683E+02  0.00000000000E+00 0. -1.
          2    1    1    2  501    0  0.14694345968E+02  0.19305836821E+02  0.17288621807E+02  0.29791535422E+02  0.00000000000E+00 0.  1.
         -2    1    1    2    0  503 -0.14694345968E+02 -0.19305836821E+02 -0.81823122119E+02  0.85344375632E+02  0.00000000000E+00 0. -1.
<mgrwt>
<rscale>  2 0.24261887E+02</rscale>
<asrwt>0</asrwt>
<pdfrwt beam="1">  1       21 0.38924162E-02 0.24261887E+02</pdfrwt>
<pdfrwt beam="2">  1       21 0.13820801E-01 0.24261887E+02</pdfrwt>
<totfact> 0.14587169E+07</totfact>
</mgrwt>
</event>
<event>
 4    1  0.2761157E+004  0.2401997E+02  0.7546771E-02  0.1675491E+00
         21   -1    0    0  501  502  0.00000000000E+00  0.00000000000E+00  0.25163569319E+02  0.25163569319E+02  0.00000000000E+00 0. -1.
         21   -1    0    0  502  503 -0.00000000000E+00 -0.00000000000E+00 -0.34961115804E+02  0.34961115804E+02  0.00000000000E+00 0.  1.
          2    1    1    2  501    0 -0.24019870764E+02 -0.68333432782E-01  0.12737754989E+02  0.27188403100E+02  0.00000000000E+00 0. -1.
         -2    1    1    2    0  503  0.24019870764E+02  0.68333432782E-01 -0.22535301473E+02  0.32936282023E+02  0.00000000000E+00 0.  1.
<mgrwt>
<rscale>  2 0.24019968E+02</rscale>
<asrwt>0</asrwt>
<pdfrwt beam="1">  1       21 0.38713184E-02 0.24019968E+02</pdfrwt>
<pdfrwt beam="2">  1       21 0.53786332E-02 0.24019968E+02</pdfrwt>
<totfact> 0.69263839E+07</totfact>
</mgrwt>
</event>
<event>
 4    1  0.2761157E+004  0.2208825E+02  0.7546771E-02  0.1706730E+00
         21   -1    0    0  501  502  0.00000000000E+00  0.00000000000E+00  0.51227514003E+02  0.51227514003E+02  0.00000000000E+00 0. -1.
         21   -1    0    0  502  503 -0.00000000000E+00 -0.00000000000E+00 -0.40869974748E+02  0.40869974748E+02  0.00000000000E+00 0.  1.
          2    1    1    2  501    0 -0.10251516578E+02 -0.19565198197E+02  0.45506755685E+02  0.50584141641E+02  0.00000000000E+00 0. -1.
         -2    1    1    2    0  503  0.10251516578E+02  0.19565198197E+02 -0.35149216430E+02  0.41513347110E+02  0.00000000000E+00 0.  1.
<mgrwt>
<rscale>  2 0.22088245E+02</rscale>
<asrwt>0</asrwt>
<pdfrwt beam="1">  1       21 0.78811560E-02 0.22088245E+02</pdfrwt>
<pdfrwt beam="2">  1       21 0.62876884E-02 0.22088245E+02</pdfrwt>
<totfact> 0.16930344E+07</totfact>
</mgrwt>
</event>
<event>
 4    1  0.2761157E+004  0.2438999E+02  0.7546771E-02  0.1669921E+00
         21   -1    0    0  501  502  0.00000000000E+00  0.00000000000E+00  0.39017388261E+01  0.39017388261E+01  0.00000000000E+00 0. -1.
         21   -1    0    0  502  503 -0.00000000000E+00 -0.00000000000E+00 -0.16550053637E+03  0.16550053637E+03  0.00000000000E+00 0.  1.
          2    1    1    2  501    0  0.18257266975E+02 -0.16172320483E+02 -0.57026437005E+02  0.62023271961E+02  0.00000000000E+00 0. -1.
         -2    1    1    2    0  503 -0.18257266975E+02  0.16172320483E+02 -0.10457236054E+03  0.10737900324E+03  0.00000000000E+00 0.  1.
<mgrwt>
<rscale>  2 0.24389993E+02</rscale>
<asrwt>0</asrwt>
<pdfrwt beam="1">  1       21 0.60026753E-03 0.24389993E+02</pdfrwt>
<pdfrwt beam="2">  1       21 0.25461620E-01 0.24389993E+02</pdfrwt>
<totfact> 0.87468972E+07</totfact>
</mgrwt>
</event>
<event>
 4    1  0.2761157E+004  0.2689600E+02  0.7546771E-02  0.1635173E+00
         21   -1    0    0  503  502  0.00000000000E+00  0.00000000000E+00  0.33354441723E+03  0.33354441723E+03  0.00000000000E+00 0. -1.
         21   -1    0    0  501  503 -0.00000000000E+00 -0.00000000000E+00 -0.24862818163E+01  0.24862818163E+01  0.00000000000E+00 0.  1.
          2    1    1    2  501    0  0.26883066075E+02  0.83397983407E+00  0.10549113034E+03  0.10886585022E+03  0.00000000000E+00 0.  1.
         -2    1    1    2    0  502 -0.26883066075E+02 -0.83397983407E+00  0.22556700508E+03  0.22716484883E+03  0.00000000000E+00 0. -1.
<mgrwt>
<rscale>  2 0.26895999E+02</rscale>
<asrwt>0</asrwt>
<pdfrwt beam="1">  1       21 0.51314490E-01 0.26895999E+02</pdfrwt>
<pdfrwt beam="2">  1       21 0.38250516E-03 0.26895999E+02</pdfrwt>
<totfact> 0.46935273E+07</totfact>
</mgrwt>
</event>
<event>
 4    1  0.2761157E+004  0.2242409E+02  0.7546771E-02  0.1701019E+00
         21   -1    0    0  501  502  0.00000000000E+00  0.00000000000E+00  0.39367673533E+00  0.39367673533E+00  0.00000000000E+00 0. -1.
         21   -1    0    0  502  503 -0.00000000000E+00 -0.00000000000E+00 -0.14066948218E+04  0.14066948218E+04  0.00000000000E+00 0.  1.
          2    1    1    2  501    0  0.34165726093E+01 -0.22162286854E+02 -0.48976538240E+03  0.49027846142E+03  0.00000000000E+00 0. -1.
         -2    1    1    2    0  503 -0.34165726093E+01  0.22162286854E+02 -0.91653576270E+03  0.91681003715E+03  0.00000000000E+00 0.  1.
<mgrwt>
<rscale>  2 0.22424093E+02</rscale>
<asrwt>0</asrwt>
<pdfrwt beam="1">  1       21 0.60565238E-04 0.22424093E+02</pdfrwt>
<pdfrwt beam="2">  1       21 0.21641607E+00 0.22424093E+02</pdfrwt>
<totfact> 0.25662895E+07</totfact>
</mgrwt>
</event>
<event>
 4    1  0.2761157E+004  0.2067252E+02  0.7546771E-02  0.1732276E+00
         21   -1    0    0  503  502  0.00000000000E+00  0.00000000000E+00  0.26908941625E+03  0.26908941625E+03  0.00000000000E+00 0. -1.
         21   -1    0    0  501  503 -0.00000000000E+00 -0.00000000000E+00 -0.47620642753E+01  0.47620642753E+01  0.00000000000E+00 0.  1.
          2    1    1    2  501    0  0.23619113350E+01 -0.20537146645E+02  0.20378192940E+02  0.29027982447E+02  0.00000000000E+00 0.  1.
         -2    1    1    2    0  502 -0.23619113350E+01  0.20537146645E+02  0.24394915904E+03  0.24482349808E+03  0.00000000000E+00 0. -1.
<mgrwt>
<rscale>  2 0.20672518E+02</rscale>
<asrwt>0</asrwt>
<pdfrwt beam="1">  1       21 0.41398360E-01 0.20672518E+02</pdfrwt>
<pdfrwt beam="2">  1       21 0.73262548E-03 0.20672518E+02</pdfrwt>
<totfact> 0.25617259E+07</totfact>
</mgrwt>
</event>
<event>
 4    1  0.2761157E+004  0.2491740E+02  0.7546771E-02  0.1662191E+00
         21   -1    0    0  501  502  0.00000000000E+00  0.00000000000E+00  0.90749610376E+01  0.90749610376E+01  0.00000000000E+00 0. -1.
         21   -1    0    0  502  503 -0.00000000000E+00 -0.00000000000E+00 -0.83073969755E+02  0.83073969755E+02  0.00000000000E+00 0.  1.
          2    1    1    2  501    0 -0.89828542673E+01  0.23241879139E+02 -0.17646068874E+02  0.30532938991E+02  0.00000000000E+00 0. -1.
         -2    1    1    2    0  503  0.89828542673E+01 -0.23241879139E+02 -0.56352939843E+02  0.61615991802E+02  0.00000000000E+00 0.  1.
<mgrwt>
<rscale>  2 0.24917396E+02</rscale>
<asrwt>0</asrwt>
<pdfrwt beam="1">  1       21 0.13961478E-02 0.24917396E+02</pdfrwt>
<pdfrwt beam="2">  1       21 0.12780611E-01 0.24917396E+02</pdfrwt>
<totfact> 0.81866242E+07</totfact>
</mgrwt>
</event>
<event>
 4    1  0.2761157E+004  0.2216603E+02  0.7546771E-02  0.1705396E+00
         21   -1    0    0  501  502  0.00000000000E+00  0.00000000000E+00  0.12180395610E+02  0.12180395610E+02  0.00000000000E+00 0. -1.
         21   -1    0    0  502  503 -0.00000000000E+00 -0.00000000000E+00 -0.40935594200E+02  0.40935594200E+02  0.00000000000E+00 0.  1.
          2    1    1    2  501    0  0.18594563978E+02 -0.12065441104E+02 -0.11168733995E+02  0.24820823870E+02  0.00000000000E+00 0. -1.
         -2    1    1    2    0  503 -0.18594563978E+02  0.12065441104E+02 -0.17586464595E+02  0.28295165939E+02  0.00000000000E+00 0.  1.
<mgrwt>
<rscale>  2 0.22166025E+02</rscale>
<asrwt>0</asrwt>
<pdfrwt beam="1">  1       21 0.18739070E-02 0.22166025E+02</pdfrwt>
<pdfrwt beam="2">  1       21 0.62977837E-02 0.22166025E+02</pdfrwt>
<totfact> 0.16194930E+08</totfact>
</mgrwt>
</event>
<event>
 4    1  0.2761157E+004  0.2725786E+02  0.7546771E-02  0.1630540E+00
         21   -1    0    0  503  502  0.00000000000E+00  0.00000000000E+00  0.24748732883E+01  0.24748732883E+01  0.00000000000E+00 0.  1.
         21   -1    0    0  501  503 -0.00000000000E+00 -0.00000000000E+00 -0.37780360228E+03  0.37780360228E+03  0.00000000000E+00 0. -1.
          2    1    1    2  501    0 -0.18344714326E+02 -0.20160909286E+02 -0.27383144364E+03  0.27518475672E+03  0.00000000000E+00 0. -1.
         -2    1    1    2    0  502  0.18344714326E+02  0.20160909286E+02 -0.10149728535E+03  0.10509371885E+03  0.00000000000E+00 0.  1.
<mgrwt>
<rscale>  2 0.27257858E+02</rscale>
<asrwt>0</asrwt>
<pdfrwt beam="1">  1       21 0.38075003E-03 0.27257858E+02</pdfrwt>
<pdfrwt beam="2">  1       21 0.58123586E-01 0.27257858E+02</pdfrwt>
<totfact> 0.37010247E+07</totfact>
</mgrwt>
</event>
<event>
 4    1  0.2761157E+004  0.2002846E+02  0.7546771E-02  0.1744763E+00
         21   -1    0    0  503  502  0.00000000000E+00  0.00000000000E+00  0.70368216226E+01  0.70368216226E+01  0.00000000000E+00 0. -1.
         21   -1    0    0  501  503 -0.00000000000E+00 -0.00000000000E+00 -0.69733717256E+02  0.69733717256E+02  0.00000000000E+00 0.  1.
          2    1    1    2  501    0 -0.73470528801E+01 -0.18632230808E+02 -0.14949238401E+02  0.24992377632E+02  0.00000000000E+00 0. -1.
         -2    1    1    2    0  502  0.73470528801E+01  0.18632230808E+02 -0.47747657233E+02  0.51778161247E+02  0.00000000000E+00 0.  1.
<mgrwt>
<rscale>  2 0.20028460E+02</rscale>
<asrwt>0</asrwt>
<pdfrwt beam="1">  1       21 0.10825880E-02 0.20028460E+02</pdfrwt>
<pdfrwt beam="2">  1       21 0.10728264E-01 0.20028460E+02</pdfrwt>
<totfact> 0.15113910E+08</totfact>
</mgrwt>
</event>
<event>
 4    1  0.2761157E+004  0.2231485E+02  0.7546771E-02  0.1702863E+00
         21   -1    0    0  503  502  0.00000000000E+00  0.00000000000E+00  0.27341360644E+02  0.27341360644E+02  0.00000000000E+00 0.  1.
         21   -1    0    0  501  503 -0.00000000000E+00 -0.00000000000E+00 -0.24404084010E+02  0.24404084010E+02  0.00000000000E+00 0. -1.
          2    1    1    2  501    0  0.11076478808E+02 -0.19371737888E+02 -0.11563456125E+02  0.25132968968E+02  0.00000000000E+00 0. -1.
         -2    1    1    2    0  502 -0.11076478808E+02  0.19371737888E+02  0.14500732759E+02  0.26612475686E+02  0.00000000000E+00 0.  1.
<mgrwt>
<rscale>  2 0.22314852E+02</rscale>
<asrwt>0</asrwt>
<pdfrwt beam="1">  1       21 0.42063632E-02 0.22314852E+02</pdfrwt>
<pdfrwt beam="2">  1       21 0.37544745E-02 0.22314852E+02</pdfrwt>
<totfact> 0.10520502E+08</totfact>
</mgrwt>
</event>
<event>
 4    1  0.2761157E+004  0.2700069E+02  0.7546771E-02  0.1633824E+00
         21   -1    0    0  501  502  0.00000000000E+00  0.00000000000E+00  0.15011265462E+02  0.15011265462E+02  0.00000000000E+00 0. -1.
         21   -1    0    0  502  503 -0.00000000000E+00 -0.00000000000E+00 -0.63674251584E+02  0.63674251584E+02  0.00000000000E+00 0.  1.
          2    1    1    2  501    0  0.90939283613E+00  0.26985370222E+02 -0.51673277969E+01  0.27490698025E+02  0.00000000000E+00 0.  1.
         -2    1    1    2    0  503 -0.90939283613E+00 -0.26985370222E+02 -0.43495658325E+02  0.51194819020E+02  0.00000000000E+00 0. -1.
<mgrwt>
<rscale>  2 0.27000689E+02</rscale>
<asrwt>0</asrwt>
<pdfrwt beam="1">  1       21 0.23094254E-02 0.27000689E+02</pdfrwt>
<pdfrwt beam="2">  1       21 0.97960389E-02 0.27000689E+02</pdfrwt>
<totfact> 0.60189888E+07</totfact>
</mgrwt>
</event>
<event>
 4    1  0.2761157E+004  0.3521375E+02  0.7546771E-02  0.1546711E+00
         21   -1    0    0  503  502  0.00000000000E+00  0.00000000000E+00  0.10579237334E+02  0.10579237334E+02  0.00000000000E+00 0.  1.
         21   -1    0    0  501  503 -0.00000000000E+00 -0.00000000000E+00 -0.14977423228E+03  0.14977423228E+03  0.00000000000E+00 0. -1.
          2    1    1    2  501    0  0.24086568461E+01 -0.35131276740E+02 -0.10698188426E+03  0.11262829038E+03  0.00000000000E+00 0. -1.
         -2    1    1    2    0  502 -0.24086568461E+01  0.35131276740E+02 -0.32213110687E+02  0.47725179238E+02  0.00000000000E+00 0.  1.
<mgrwt>
<rscale>  2 0.35213751E+02</rscale>
<asrwt>0</asrwt>
<pdfrwt beam="1">  1       21 0.16275750E-02 0.35213751E+02</pdfrwt>
<pdfrwt beam="2">  1       21 0.23042189E-01 0.35213751E+02</pdfrwt>
<totfact> 0.24993851E+07</totfact>
</mgrwt>
</event>
<event>
 4    1  0.2761157E+004  0.3274706E+02  0.7546771E-02  0.1569568E+00
         21   -1    0    0  503  502  0.00000000000E+00  0.00000000000E+00  0.57476527130E+01  0.57476527130E+01  0.00000000000E+00 0. -1.
         21   -1    0    0  501  503 -0.00000000000E+00 -0.00000000000E+00 -0.45618672162E+03  0.45618672162E+03  0.00000000000E+00 0.  1.
          2    1    1    2  501    0  0.12788874931E+02  0.30146554464E+02 -0.40278074740E+03  0.40410976299E+03  0.00000000000E+00 0.  1.
         -2    1    1    2    0  502 -0.12788874931E+02 -0.30146554464E+02 -0.47658321507E+02  0.57824611342E+02  0.00000000000E+00 0. -1.
<mgrwt>
<rscale>  2 0.32747062E+02</rscale>
<asrwt>0</asrwt>
<pdfrwt beam="1">  1       21 0.88425387E-03 0.32747062E+02</pdfrwt>
<pdfrwt beam="2">  1       21 0.70182603E-01 0.32747062E+02</pdfrwt>
<totfact> 0.73730434E+06</totfact>
</mgrwt>
</event>
<event>
 4    1  0.2761157E+004  0.2152631E+02  0.7546771E-02  0.1716575E+00
         21   -1    0    0  503  502  0.00000000000E+00  0.00000000000E+00  0.16359929207E+01  0.16359929207E+01  0.00000000000E+00 0. -1.
         21   -1    0    0  501  503 -0.00000000000E+00 -0.00000000000E+00 -0.58557532081E+03  0.58557532081E+03  0.00000000000E+00 0.  1.
          2    1    1    2  501    0  0.15863660008E+02  0.14550814963E+02 -0.50293739667E+03  0.50339786143E+03  0.00000000000E+00 0.  1.
         -2    1    1    2    0  502 -0.15863660008E+02 -0.14550814963E+02 -0.81001931214E+02  0.83813452293E+02  0.00000000000E+00 0. -1.
<mgrwt>
<rscale>  2 0.21526308E+02</rscale>
<asrwt>0</asrwt>
<pdfrwt beam="1">  1       21 0.25169124E-03 0.21526308E+02</pdfrwt>
<pdfrwt beam="2">  1       21 0.90088504E-01 0.21526308E+02</pdfrwt>
<totfact> 0.26091177E+07</totfact>
</mgrwt>
</event>
<event>
 4    1  0.2761157E+004  0.3205569E+02  0.7546771E-02  0.1576417E+00
         21   -1    0    0  503  502  0.00000000000E+00  0.00000000000E+00  0.22540330166E+01  0.22540330166E+01  0.00000000000E+00 0.  1.
         21   -1    0    0  501  503 -0.00000000000E+00 -0.00000000000E+00 -0.45635820058E+03  0.45635820058E+03  0.00000000000E+00 0. -1.
          2    1    1    2  501    0  0.29288252367E+02 -0.13029417010E+02 -0.21962536897E+03  0.22195240510E+03  0.00000000000E+00 0.  1.
         -2    1    1    2    0  502 -0.29288252367E+02  0.13029417010E+02 -0.23447879859E+03  0.23665982850E+03  0.00000000000E+00 0. -1.
<mgrwt>
<rscale>  2 0.32055693E+02</rscale>
<asrwt>0</asrwt>
<pdfrwt beam="1">  1       21 0.34677418E-03 0.32055693E+02</pdfrwt>
<pdfrwt beam="2">  1       21 0.70208980E-01 0.32055693E+02</pdfrwt>
<totfact> 0.29774788E+07</totfact>
</mgrwt>
</event>
<event>
 4    1  0.2761157E+004  0.2173826E+02  0.7546771E-02  0.1712818E+00
         21   -1    0    0  503  502  0.00000000000E+00  0.00000000000E+00  0.35216582590E+02  0.35216582590E+02  0.00000000000E+00 0.  1.
         21   -1    0    0  501  503 -0.00000000000E+00 -0.00000000000E+00 -0.14394916237E+02  0.14394916237E+02  0.00000000000E+00 0. -1.
          2    1    1    2  501    0 -0.20043426627E+01 -0.21645655192E+02  0.39501640688E+01  0.22094243014E+02  0.00000000000E+00 0. -1.
         -2    1    1    2    0  502  0.20043426627E+01  0.21645655192E+02  0.16871502284E+02  0.27517255814E+02  0.00000000000E+00 0.  1.
<mgrwt>
<rscale>  2 0.21738256E+02</rscale>
<asrwt>0</asrwt>
<pdfrwt beam="1">  1       21 0.54179357E-02 0.21738256E+02</pdfrwt>
<pdfrwt beam="2">  1       21 0.22146025E-02 0.21738256E+02</pdfrwt>
<totfact> 0.15856498E+08</totfact>
</mgrwt>
</event>
<event>
 4    1  0.2761157E+004  0.3791795E+02  0.7546771E-02  0.1524117E+00
         21   -1    0    0  503  502  0.00000000000E+00  0.00000000000E+00  0.10829879139E+01  0.10829879139E+01  0.00000000000E+00 0. -1.
         21   -1    0    0  501  503 -0.00000000000E+00 -0.00000000000E+00 -0.14064379846E+04  0.14064379846E+04  0.00000000000E+00 0.  1.
          2    1    1    2  501    0 -0.47268878847E+00  0.37915005251E+02 -0.86930310500E+03  0.87012967966E+03  0.00000000000E+00 0.  1.
         -2    1    1    2    0  502  0.47268878847E+00 -0.37915005251E+02 -0.53605189169E+03  0.53739129286E+03  0.00000000000E+00 0. -1.
<mgrwt>
<rscale>  2 0.37917952E+02</rscale>
<asrwt>0</asrwt>
<pdfrwt beam="1">  1       21 0.16661359E-03 0.37917952E+02</pdfrwt>
<pdfrwt beam="2">  1       21 0.21637499E+00 0.37917952E+02</pdfrwt>
<totfact> 0.63072322E+06</totfact>
</mgrwt>
</event>
<event>
 4    1  0.2761157E+004  0.2620647E+02  0.7546771E-02  0.1644254E+00
         21   -1    0    0  503  502  0.00000000000E+00  0.00000000000E+00  0.18935341453E+02  0.18935341453E+02  0.00000000000E+00 0. -1.
         21   -1    0    0  501  503 -0.00000000000E+00 -0.00000000000E+00 -0.63907317656E+02  0.63907317656E+02  0.00000000000E+00 0.  1.
          2    1    1    2  501    0  0.25281833454E+02  0.68998597031E+01 -0.49725482173E+02  0.56208564686E+02  0.00000000000E+00 0.  1.
         -2    1    1    2    0  502 -0.25281833454E+02 -0.68998597031E+01  0.47535059706E+01  0.26634094423E+02  0.00000000000E+00 0. -1.
<mgrwt>
<rscale>  2 0.26206472E+02</rscale>
<asrwt>0</asrwt>
<pdfrwt beam="1">  1       21 0.29131294E-02 0.26206472E+02</pdfrwt>
<pdfrwt beam="2">  1       21 0.98318951E-02 0.26206472E+02</pdfrwt>
<totfact> 0.41381263E+07</totfact>
</mgrwt>
</event>
<event>
 4    1  0.2761157E+004  0.2459860E+02  0.7546771E-02  0.1666835E+00
         21   -1    0    0  503  502  0.00000000000E+00  0.00000000000E+00  0.43213043883E+03  0.43213043883E+03  0.00000000000E+00 0. -1.
         21   -1    0    0  501  503 -0.00000000000E+00 -0.00000000000E+00 -0.14706313979E+01  0.14706313979E+01  0.00000000000E+00 0.  1.
          2    1    1    2  501    0  0.24299742775E+02  0.38227756175E+01  0.16790198635E+03  0.16969433736E+03  0.00000000000E+00 0.  1.
         -2    1    1    2    0  502 -0.24299742775E+02 -0.38227756175E+01  0.26275782108E+03  0.26390673286E+03  0.00000000000E+00 0. -1.
<mgrwt>
<rscale>  2 0.24598600E+02</rscale>
<asrwt>0</asrwt>
<pdfrwt beam="1">  1       21 0.66481504E-01 0.24598600E+02</pdfrwt>
<pdfrwt beam="2">  1       21 0.22625133E-03 0.24598600E+02</pdfrwt>
<totfact> 0.59084882E+07</totfact>
</mgrwt>
</event>
<event>
 4    1  0.2761157E+004  0.2231450E+02  0.7546771E-02  0.1702869E+00
         21   -1    0    0  501  502  0.00000000000E+00  0.00000000000E+00  0.11380014463E+02  0.11380014463E+02  0.00000000000E+00 0. -1.
         21   -1    0    0  502  503 -0.00000000000E+00 -0.00000000000E+00 -0.45543455543E+02  0.45543455543E+02  0.00000000000E+00 0.  1.
          2    1    1    2  501    0 -0.22314338272E+02 -0.84585182629E-01 -0.11442209908E+02  0.25077101403E+02  0.00000000000E+00 0.  1.
         -2    1    1    2    0  503  0.22314338272E+02  0.84585182629E-01 -0.22721231172E+02  0.31846368603E+02  0.00000000000E+00 0. -1.
<mgrwt>
<rscale>  2 0.22314499E+02</rscale>
<asrwt>0</asrwt>
<pdfrwt beam="1">  1       21 0.17507714E-02 0.22314499E+02</pdfrwt>
<pdfrwt beam="2">  1       21 0.70066857E-02 0.22314499E+02</pdfrwt>
<totfact> 0.15157899E+08</totfact>
</mgrwt>
</event>
<event>
 4    1  0.2761157E+004  0.2007137E+02  0.7546771E-02  0.1743912E+00
         21   -1    0    0  501  502  0.00000000000E+00  0.00000000000E+00  0.48644198249E+01  0.48644198249E+01  0.00000000000E+00 0. -1.
         21   -1    0    0  502  503 -0.00000000000E+00 -0.00000000000E+00 -0.83081286936E+02  0.83081286936E+02  0.00000000000E+00 0.  1.
          2    1    1    2  501    0 -0.66064296083E+01 -0.18952969191E+02 -0.36631505808E+02  0.41769931423E+02  0.00000000000E+00 0. -1.
         -2    1    1    2    0  503  0.66064296083E+01  0.18952969191E+02 -0.41585361303E+02  0.46175775338E+02  0.00000000000E+00 0.  1.
<mgrwt>
<rscale>  2 0.20071371E+02</rscale>
<asrwt>0</asrwt>
<pdfrwt beam="1">  1       21 0.74837237E-03 0.20071371E+02</pdfrwt>
<pdfrwt beam="2">  1       21 0.12781735E-01 0.20071371E+02</pdfrwt>
<totfact> 0.19598922E+08</totfact>
</mgrwt>
</event>
<event>
 4    1  0.2761157E+004  0.3134527E+02  0.7546771E-02  0.1583677E+00
         21   -1    0    0  501  502  0.00000000000E+00  0.00000000000E+00  0.47974012706E+03  0.47974012706E+03  0.00000000000E+00 0. -1.
         21   -1    0    0  502  503 -0.00000000000E+00 -0.00000000000E+00 -0.28461072971E+01  0.28461072971E+01  0.00000000000E+00 0.  1.
          2    1    1    2  501    0 -0.88525509700E+00 -0.31332766020E+02  0.11067384212E+03  0.11502706304E+03  0.00000000000E+00 0. -1.
         -2    1    1    2    0  503  0.88525509700E+00  0.31332766020E+02  0.36622017765E+03  0.36755917132E+03  0.00000000000E+00 0.  1.
<mgrwt>
<rscale>  2 0.31345269E+02</rscale>
<asrwt>0</asrwt>
<pdfrwt beam="1">  1       21 0.73806109E-01 0.31345269E+02</pdfrwt>
<pdfrwt beam="2">  1       21 0.43786304E-03 0.31345269E+02</pdfrwt>
<totfact> 0.18919151E+07</totfact>
</mgrwt>
</event>
<event>
 4    1  0.2761157E+004  0.2627997E+02  0.7546771E-02  0.1643270E+00
         21   -1    0    0  501  502  0.00000000000E+00  0.00000000000E+00  0.65015198787E+02  0.65015198787E+02  0.00000000000E+00 0.  1.
         21   -1    0    0  502  503 -0.00000000000E+00 -0.00000000000E+00 -0.36737988773E+02  0.36737988773E+02  0.00000000000E+00 0. -1.
          2    1    1    2  501    0  0.17071309759E+02 -0.19980165112E+02  0.57033716221E+02  0.62797144845E+02  0.00000000000E+00 0.  1.
         -2    1    1    2    0  503 -0.17071309759E+02  0.19980165112E+02 -0.28756506206E+02  0.38956042715E+02  0.00000000000E+00 0. -1.
<mgrwt>
<rscale>  2 0.26279966E+02</rscale>
<asrwt>0</asrwt>
<pdfrwt beam="1">  1       21 0.10002338E-01 0.26279966E+02</pdfrwt>
<pdfrwt beam="2">  1       21 0.56519983E-02 0.26279966E+02</pdfrwt>
<totfact> 0.14070336E+07</totfact>
</mgrwt>
</event>
<event>
 4    1  0.2761157E+004  0.3168890E+02  0.7546771E-02  0.1580137E+00
         21   -1    0    0  501  502  0.00000000000E+00  0.00000000000E+00  0.91682487198E+01  0.91682487198E+01  0.00000000000E+00 0. -1.
         21   -1    0    0  502  503 -0.00000000000E+00 -0.00000000000E+00 -0.11048601786E+03  0.11048601786E+03  0.00000000000E+00 0.  1.
          2    1    1    2  501    0  0.30643902116E+02 -0.80707804828E+01 -0.45089902679E+02  0.55111573722E+02  0.00000000000E+00 0.  1.
         -2    1    1    2    0  503 -0.30643902116E+02  0.80707804828E+01 -0.56227866457E+02  0.64542692854E+02  0.00000000000E+00 0. -1.
<mgrwt>
<rscale>  2 0.31688898E+02</rscale>
<asrwt>0</asrwt>
<pdfrwt beam="1">  1       21 0.14104998E-02 0.31688898E+02</pdfrwt>
<pdfrwt beam="2">  1       21 0.16997849E-01 0.31688898E+02</pdfrwt>
<totfact> 0.52302000E+07</totfact>
</mgrwt>
</event>
<event>
 4    1  0.2761157E+004  0.4546082E+02  0.7546771E-02  0.1471485E+00
         21   -1    0    0  501  502  0.00000000000E+00  0.00000000000E+00  0.12457515855E+03  0.12457515855E+03  0.00000000000E+00 0. -1.
         21   -1    0    0  502  503 -0.00000000000E+00 -0.00000000000E+00 -0.48227449724E+03  0.48227449724E+03  0.00000000000E+00 0.  1.
          2    1    1    2  501    0  0.22698588315E+02 -0.39388575836E+02  0.11931069889E+03  0.12767822323E+03  0.00000000000E+00 0. -1.
         -2    1    1    2    0  503 -0.22698588315E+02  0.39388575836E+02 -0.47701003758E+03  0.47917143255E+03  0.00000000000E+00 0.  1.
<mgrwt>
<rscale>  2 0.45460816E+02</rscale>
<asrwt>0</asrwt>
<pdfrwt beam="1">  1       21 0.19165409E-01 0.45460816E+02</pdfrwt>
<pdfrwt beam="2">  1       21 0.74196076E-01 0.45460816E+02</pdfrwt>
<totfact> 0.45330433E+04</totfact>
</mgrwt>
</event>
<event>
 4    1  0.2761157E+004  0.2001962E+02  0.7546771E-02  0.1744938E+00
         21   -1    0    0  503  502  0.00000000000E+00  0.00000000000E+00  0.14023111763E+01  0.14023111763E+01  0.00000000000E+00 0. -1.
         21   -1    0    0  501  503 -0.00000000000E+00 -0.00000000000E+00 -0.52236067298E+03  0.52236067298E+03  0.00000000000E+00 0.  1.
          2    1    1    2  501    0  0.11158412099E+02  0.16621526903E+02 -0.43671237514E+03  0.43717100078E+03  0.00000000000E+00 0.  1.
         -2    1    1    2    0  502 -0.11158412099E+02 -0.16621526903E+02 -0.84245986664E+02  0.86591983383E+02  0.00000000000E+00 0. -1.
<mgrwt>
<rscale>  2 0.20019623E+02</rscale>
<asrwt>0</asrwt>
<pdfrwt beam="1">  1       21 0.21574013E-03 0.20019623E+02</pdfrwt>
<pdfrwt beam="2">  1       21 0.80363200E-01 0.20019623E+02</pdfrwt>
<totfact> 0.40819777E+07</totfact>
</mgrwt>
</event>
<event>
 4    1  0.2761157E+004  0.2927086E+02  0.7546771E-02  0.1606291E+00
         21   -1    0    0  503  502  0.00000000000E+00  0.00000000000E+00  0.16148104247E+03  0.16148104247E+03  0.00000000000E+00 0. -1.
         21   -1    0    0  501  503 -0.00000000000E+00 -0.00000000000E+00 -0.58018621093E+01  0.58018621093E+01  0.00000000000E+00 0.  1.
          2    1    1    2  501    0 -0.29134711132E+02 -0.28198987905E+01  0.53381996028E+02  0.60880380435E+02  0.00000000000E+00 0.  1.
         -2    1    1    2    0  502  0.29134711132E+02  0.28198987905E+01  0.10229718433E+03  0.10640252414E+03  0.00000000000E+00 0. -1.
<mgrwt>
<rscale>  2 0.29270860E+02</rscale>
<asrwt>0</asrwt>
<pdfrwt beam="1">  1       21 0.24843234E-01 0.29270860E+02</pdfrwt>
<pdfrwt beam="2">  1       21 0.89259429E-03 0.29270860E+02</pdfrwt>
<totfact> 0.52703302E+07</totfact>
</mgrwt>
</event>
<event>
 4    1  0.2761157E+004  0.3581537E+02  0.7546771E-02  0.1541477E+00
         21   -1    0    0  501  502  0.00000000000E+00  0.00000000000E+00  0.62462850183E+03  0.62462850183E+03  0.00000000000E+00 0. -1.
         21   -1    0    0  502  503 -0.00000000000E+00 -0.00000000000E+00 -0.49397322800E+01  0.49397322800E+01  0.00000000000E+00 0.  1.
          2    1    1    2  501    0  0.25930681206E+02 -0.24705071244E+02  0.55045721295E+03  0.55162114179E+03  0.00000000000E+00 0. -1.
         -2    1    1    2    0  503 -0.25930681206E+02  0.24705071244E+02  0.69231556596E+02  0.77947092324E+02  0.00000000000E+00 0.  1.
<mgrwt>
<rscale>  2 0.35815371E+02</rscale>
<asrwt>0</asrwt>
<pdfrwt beam="1">  1       21 0.96096630E-01 0.35815371E+02</pdfrwt>
<pdfrwt beam="2">  1       21 0.75995931E-03 0.35815371E+02</pdfrwt>
<totfact> 0.47753873E+06</totfact>
</mgrwt>
</event>
<event>
 4    1  0.2761157E+004  0.2020004E+02  0.7546771E-02  0.1741379E+00
         21   -1    0    0  503  502  0.00000000000E+00  0.00000000000E+00  0.65201207498E+01  0.65201207498E+01  0.00000000000E+00 0.  1.
         21   -1    0    0  501  503 -0.00000000000E+00 -0.00000000000E+00 -0.75306945408E+02  0.75306945408E+02  0.00000000000E+00 0. -1.
          2    1    1    2  501    0  0.84862812769E+01  0.18330975301E+02 -0.51211589675E+02  0.55051508085E+02  0.00000000000E+00 0. -1.
         -2    1    1    2    0  502 -0.84862812769E+01 -0.18330975301E+02 -0.17575234983E+02  0.26775558073E+02  0.00000000000E+00 0.  1.
<mgrwt>
<rscale>  2 0.20200040E+02</rscale>
<asrwt>0</asrwt>
<pdfrwt beam="1">  1       21 0.10030955E-02 0.20200040E+02</pdfrwt>
<pdfrwt beam="2">  1       21 0.11585684E-01 0.20200040E+02</pdfrwt>
<totfact> 0.14956618E+08</totfact>
</mgrwt>
</event>
<event>
 4    1  0.2761157E+004  0.2720304E+02  0.7546771E-02  0.1631237E+00
         21   -1    0    0  503  502  0.00000000000E+00  0.00000000000E+00  0.30960189114E+01  0.30960189114E+01  0.00000000000E+00 0.  1.
         21   -1    0    0  501  503 -0.00000000000E+00 -0.00000000000E+00 -0.27261509240E+03  0.27261509240E+03  0.00000000000E+00 0. -1.
          2    1    1    2  501    0  0.26737066259E+02 -0.50134301341E+01 -0.18315428088E+03  0.18516342997E+03  0.00000000000E+00 0. -1.
         -2    1    1    2    0  502 -0.26737066259E+02  0.50134301341E+01 -0.86364792605E+02  0.90547681337E+02  0.00000000000E+00 0.  1.
<mgrwt>
<rscale>  2 0.27203036E+02</rscale>
<asrwt>0</asrwt>
<pdfrwt beam="1">  1       21 0.47631056E-03 0.27203036E+02</pdfrwt>
<pdfrwt beam="2">  1       21 0.41940787E-01 0.27203036E+02</pdfrwt>
<totfact> 0.50292538E+07</totfact>
</mgrwt>
</event>
<event>
 4    1  0.2761157E+004  0.2132027E+02  0.7546771E-02  0.1720280E+00
         21   -1    0    0  501  502  0.00000000000E+00  0.00000000000E+00  0.76315981761E+01  0.76315981761E+01  0.00000000000E+00 0.  1.
         21   -1    0    0  502  503 -0.00000000000E+00 -0.00000000000E+00 -0.79810839145E+02  0.79810839145E+02  0.00000000000E+00 0. -1.
          2    1    1    2  501    0  0.24265005421E+01  0.21181734946E+02 -0.14067425019E+02  0.25543027363E+02  0.00000000000E+00 0.  1.
         -2    1    1    2    0  503 -0.24265005421E+01 -0.21181734946E+02 -0.58111815950E+02  0.61899409958E+02  0.00000000000E+00 0. -1.
<mgrwt>
<rscale>  2 0.21320267E+02</rscale>
<asrwt>0</asrwt>
<pdfrwt beam="1">  1       21 0.11740921E-02 0.21320267E+02</pdfrwt>
<pdfrwt beam="2">  1       21 0.12278589E-01 0.21320267E+02</pdfrwt>
<totfact> 0.10896439E+08</totfact>
</mgrwt>
</event>
<event>
 4    1  0.2761157E+004  0.2429458E+02  0.7546771E-02  0.1671346E+00
         21   -1    0    0  501  502  0.00000000000E+00  0.00000000000E+00  0.17812429475E+02  0.17812429475E+02  0.00000000000E+00 0. -1.
         21   -1    0    0  502  503 -0.00000000000E+00 -0.00000000000E+00 -0.13351297802E+03  0.13351297802E+03  0.00000000000E+00 0.  1.
          2    1    1    2  501    0  0.89325155767E+01 -0.22592844781E+02  0.77548746023E+01  0.25502245978E+02  0.00000000000E+00 0. -1.
         -2    1    1    2    0  503 -0.89325155767E+01  0.22592844781E+02 -0.12345542315E+03  0.12582316152E+03  0.00000000000E+00 0.  1.
<mgrwt>
<rscale>  2 0.24294577E+02</rscale>
<asrwt>0</asrwt>
<pdfrwt beam="1">  1       21 0.27403739E-02 0.24294577E+02</pdfrwt>
<pdfrwt beam="2">  1       21 0.20540457E-01 0.24294577E+02</pdfrwt>
<totfact> 0.12770498E+07</totfact>
</mgrwt>
</event>
<event>
 4    1  0.2761157E+004  0.4198360E+02  0.7546771E-02  0.1494102E+00
         21   -1    0    0  501  502  0.00000000000E+00  0.00000000000E+00  0.70421023178E+03  0.70421023178E+03  0.00000000000E+00 0.  1.
         21   -1    0    0  502  503 -0.00000000000E+00 -0.00000000000E+00 -0.50532750078E+01  0.50532750078E+01  0.00000000000E+00 0. -1.
          2    1    1    2  501    0 -0.41643080534E+02 -0.53363159824E+01  0.60151235445E+03  0.60297573333E+03  0.00000000000E+00 0.  1.
         -2    1    1    2    0  503  0.41643080534E+02  0.53363159824E+01  0.97644602318E+02  0.10628777346E+03  0.00000000000E+00 0. -1.
<mgrwt>
<rscale>  2 0.41983597E+02</rscale>
<asrwt>0</asrwt>
<pdfrwt beam="1">  1       21 0.10833996E+00 0.41983597E+02</pdfrwt>
<pdfrwt beam="2">  1       21 0.77742748E-03 0.41983597E+02</pdfrwt>
<totfact> 0.35720893E+06</totfact>
</mgrwt>
</event>
<event>
 4    1  0.2761157E+004  0.2498898E+02  0.7546771E-02  0.1661160E+00
         21   -1    0    0  503  502  0.00000000000E+00  0.00000000000E+00  0.12907344650E+03  0.12907344650E+03  0.00000000000E+00 0. -1.
         21   -1    0    0  501  503 -0.00000000000E+00 -0.00000000000E+00 -0.48401298114E+01  0.48401298114E+01  0.00000000000E+00 0.  1.
          2    1    1    2  501    0 -0.12701490834E+02  0.21520255968E+02  0.63541617652E+02  0.68278740910E+02  0.00000000000E+00 0.  1.
         -2    1    1    2    0  502  0.12701490834E+02 -0.21520255968E+02  0.60691699040E+02  0.65634835405E+02  0.00000000000E+00 0. -1.
<mgrwt>
<rscale>  2 0.24988983E+02</rscale>
<asrwt>0</asrwt>
<pdfrwt beam="1">  1       21 0.19857451E-01 0.24988983E+02</pdfrwt>
<pdfrwt beam="2">  1       21 0.74463545E-03 0.24988983E+02</pdfrwt>
<totfact> 0.99131116E+07</totfact>
</mgrwt>
</event>
<event>
 4    1  0.2761157E+004  0.2902559E+02  0.7546771E-02  0.1609116E+00
         21   -1    0    0  501  502  0.00000000000E+00  0.00000000000E+00  0.73430312441E+01  0.73430312441E+01  0.00000000000E+00 0. -1.
         21   -1    0    0  502  503 -0.00000000000E+00 -0.00000000000E+00 -0.15596244729E+03  0.15596244729E+03  0.00000000000E+00 0.  1.
          2    1    1    2  501    0  0.20740305574E+02 -0.20305777604E+02 -0.32327358929E+02  0.43445863034E+02  0.00000000000E+00 0. -1.
         -2    1    1    2    0  503 -0.20740305574E+02  0.20305777604E+02 -0.11629205712E+03  0.11985961550E+03  0.00000000000E+00 0.  1.
<mgrwt>
<rscale>  2 0.29025590E+02</rscale>
<asrwt>0</asrwt>
<pdfrwt beam="1">  1       21 0.11296970E-02 0.29025590E+02</pdfrwt>
<pdfrwt beam="2">  1       21 0.23994224E-01 0.29025590E+02</pdfrwt>
<totfact> 0.39195649E+07</totfact>
</mgrwt>
</event>
<event>
 4    1  0.2761157E+004  0.2372573E+02  0.7546771E-02  0.1680009E+00
         21   -1    0    0  501  502  0.00000000000E+00  0.00000000000E+00  0.35838193217E+02  0.35838193217E+02  0.00000000000E+00 0. -1.
         21   -1    0    0  502  503 -0.00000000000E+00 -0.00000000000E+00 -0.18413050972E+02  0.18413050972E+02  0.00000000000E+00 0.  1.
          2    1    1    2  501    0 -0.20613360860E+02 -0.11747319298E+02  0.19111427655E+02  0.30465666309E+02  0.00000000000E+00 0. -1.
         -2    1    1    2    0  503  0.20613360860E+02  0.11747319298E+02 -0.16862854099E+01  0.23785577881E+02  0.00000000000E+00 0.  1.
<mgrwt>
<rscale>  2 0.23725728E+02</rscale>
<asrwt>0</asrwt>
<pdfrwt beam="1">  1       21 0.55135682E-02 0.23725728E+02</pdfrwt>
<pdfrwt beam="2">  1       21 0.28327771E-02 0.23725728E+02</pdfrwt>
<totfact> 0.10818427E+08</totfact>
</mgrwt>
</event>
<event>
 4    1  0.2761157E+004  0.2200030E+02  0.7546771E-02  0.1708247E+00
         21   -1    0    0  501  502  0.00000000000E+00  0.00000000000E+00  0.14966796959E+04  0.14966796959E+04  0.00000000000E+00 0. -1.
         21   -1    0    0  502  503 -0.00000000000E+00 -0.00000000000E+00 -0.33976024706E+00  0.33976024706E+00  0.00000000000E+00 0.  1.
          2    1    1    2  501    0 -0.21358873594E+02  0.52736659898E+01  0.91246443669E+03  0.91272962111E+03  0.00000000000E+00 0.  1.
         -2    1    1    2    0  503  0.21358873594E+02 -0.52736659898E+01  0.58387549893E+03  0.58428983500E+03  0.00000000000E+00 0. -1.
<mgrwt>
<rscale>  2 0.22000296E+02</rscale>
<asrwt>0</asrwt>
<pdfrwt beam="1">  1       21 0.23025314E+00 0.22000296E+02</pdfrwt>
<pdfrwt beam="2">  1       21 0.52272006E-04 0.22000296E+02</pdfrwt>
<totfact> 0.26680775E+07</totfact>
</mgrwt>
</event>
<event>
 4    1  0.2761157E+004  0.4549522E+02  0.7546771E-02  0.1471274E+00
         21   -1    0    0  501  502  0.00000000000E+00  0.00000000000E+00  0.10130609819E+03  0.10130609819E+03  0.00000000000E+00 0. -1.
         21   -1    0    0  502  503 -0.00000000000E+00 -0.00000000000E+00 -0.70506661604E+02  0.70506661604E+02  0.00000000000E+00 0.  1.
          2    1    1    2  501    0 -0.22781677843E+02 -0.39380329823E+02  0.87797021980E+02  0.98884439074E+02  0.00000000000E+00 0. -1.
         -2    1    1    2    0  503  0.22781677843E+02  0.39380329823E+02 -0.56997585394E+02  0.72928320720E+02  0.00000000000E+00 0.  1.
<mgrwt>
<rscale>  2 0.45495222E+02</rscale>
<asrwt>0</asrwt>
<pdfrwt beam="1">  1       21 0.15585554E-01 0.45495222E+02</pdfrwt>
<pdfrwt beam="2">  1       21 0.10847179E-01 0.45495222E+02</pdfrwt>
<totfact> 0.24101580E+06</totfact>
</mgrwt>
</event>
<event>
 4    1  0.2761157E+004  0.2019513E+02  0.7546771E-02  0.1741475E+00
         21   -1    0    0  503  502  0.00000000000E+00  0.00000000000E+00  0.46020763410E+02  0.46020763410E+02  0.00000000000E+00 0.  1.
         21   -1    0    0  501  503 -0.00000000000E+00 -0.00000000000E+00 -0.38978777870E+02  0.38978777870E+02  0.00000000000E+00 0. -1.
          2    1    1    2  501    0  0.10999615570E+02  0.16936695821E+02 -0.33836317685E+02  0.39404816996E+02  0.00000000000E+00 0. -1.
         -2    1    1    2    0  502 -0.10999615570E+02 -0.16936695821E+02  0.40878303224E+02  0.45594724284E+02  0.00000000000E+00 0.  1.
<mgrwt>
<rscale>  2 0.20195128E+02</rscale>
<asrwt>0</asrwt>
<pdfrwt beam="1">  1       21 0.70801174E-02 0.20195128E+02</pdfrwt>
<pdfrwt beam="2">  1       21 0.59967351E-02 0.20195128E+02</pdfrwt>
<totfact> 0.21293687E+07</totfact>
</mgrwt>
</event>
<event>
 4    1  0.2761157E+004  0.2932757E+02  0.7546771E-02  0.1605643E+00
         21   -1    0    0  501  502  0.00000000000E+00  0.00000000000E+00  0.58879703551E+03  0.58879703551E+03  0.00000000000E+00 0. -1.
         21   -1    0    0  502  503 -0.00000000000E+00 -0.00000000000E+00 -0.54469359640E+01  0.54469359640E+01  0.00000000000E+00 0.  1.
          2    1    1    2  501    0  0.99165157789E+01  0.27600169129E+02  0.54585158564E+03  0.54663887546E+03  0.00000000000E+00 0. -1.
         -2    1    1    2    0  503 -0.99165157789E+01 -0.27600169129E+02  0.37498513907E+02  0.47605096013E+02  0.00000000000E+00 0.  1.
<mgrwt>
<rscale>  2 0.29327574E+02</rscale>
<asrwt>0</asrwt>
<pdfrwt beam="1">  1       21 0.90584109E-01 0.29327574E+02</pdfrwt>
<pdfrwt beam="2">  1       21 0.83799061E-03 0.29327574E+02</pdfrwt>
<totfact> 0.45891321E+06</totfact>
</mgrwt>
</event>
<event>
 4    1  0.2761157E+004  0.3368703E+02  0.7546771E-02  0.1560579E+00
         21   -1    0    0  501  502  0.00000000000E+00  0.00000000000E+00  0.33804629626E+02  0.33804629626E+02  0.00000000000E+00 0.  1.
         21   -1    0    0  502  503 -0.00000000000E+00 -0.00000000000E+00 -0.51525514241E+02  0.51525514241E+02  0.00000000000E+00 0. -1.
          2    1    1    2  501    0  0.29839958384E+02  0.15633068741E+02  0.16325731299E+02  0.37434548977E+02  0.00000000000E+00 0.  1.
         -2    1    1    2    0  503 -0.29839958384E+02 -0.15633068741E+02 -0.34046615915E+02  0.47895594890E+02  0.00000000000E+00 0. -1.
<mgrwt>
<rscale>  2 0.33687029E+02</rscale>
<asrwt>0</asrwt>
<pdfrwt beam="1">  1       21 0.52007122E-02 0.33687029E+02</pdfrwt>
<pdfrwt beam="2">  1       21 0.79270022E-02 0.33687029E+02</pdfrwt>
<totfact> 0.24797330E+07</totfact>
</mgrwt>
</event>
<event>
 4    1  0.2761157E+004  0.2238132E+02  0.7546771E-02  0.1701740E+00
         21   -1    0    0  503  502  0.00000000000E+00  0.00000000000E+00  0.20658363108E+01  0.20658363108E+01  0.00000000000E+00 0. -1.
         21   -1    0    0  501  503 -0.00000000000E+00 -0.00000000000E+00 -0.25674596451E+03  0.25674596451E+03  0.00000000000E+00 0.  1.
          2    1    1    2  501    0  0.10822562112E+02 -0.19590700360E+02 -0.15784409534E+03  0.15942296517E+03  0.00000000000E+00 0. -1.
         -2    1    1    2    0  502 -0.10822562112E+02  0.19590700360E+02 -0.96836032861E+02  0.99388835648E+02  0.00000000000E+00 0.  1.
<mgrwt>
<rscale>  2 0.22381318E+02</rscale>
<asrwt>0</asrwt>
<pdfrwt beam="1">  1       21 0.31782117E-03 0.22381318E+02</pdfrwt>
<pdfrwt beam="2">  1       21 0.39499354E-01 0.22381318E+02</pdfrwt>
<totfact> 0.97425735E+07</totfact>
</mgrwt>
</event>
<event>
 4    1  0.2761157E+004  0.2026904E+02  0.7546771E-02  0.1740030E+00
         21   -1    0    0  501  502  0.00000000000E+00  0.00000000000E+00  0.20380926425E+02  0.20380926425E+02  0.00000000000E+00 0. -1.
         21   -1    0    0  502  503 -0.00000000000E+00 -0.00000000000E+00 -0.21358331599E+02  0.21358331599E+02  0.00000000000E+00 0.  1.
          2    1    1    2  501    0  0.17901403459E+02  0.95065127124E+01  0.44592242396E+01  0.20753763769E+02  0.00000000000E+00 0. -1.
         -2    1    1    2    0  503 -0.17901403459E+02 -0.95065127124E+01 -0.54366294134E+01  0.20985494255E+02  0.00000000000E+00 0.  1.
<mgrwt>
<rscale>  2 0.20269041E+02</rscale>
<asrwt>0</asrwt>
<pdfrwt beam="1">  1       21 0.31355271E-02 0.20269041E+02</pdfrwt>
<pdfrwt beam="2">  1       21 0.32858972E-02 0.20269041E+02</pdfrwt>
<totfact> 0.19918401E+08</totfact>
</mgrwt>
</event>
