<event>
 5    1  0.3921687E+001  0.8741707E+02  0.7546771E-02  0.1309230E+00
         -3   -1    0    0    0  501 -0.00000000000E+00  0.00000000000E+00  0.25336707745E+02  0.25336707745E+02  0.00000000000E+00 0. -1.
          3   -1    0    0  501    0  0.00000000000E+00 -0.00000000000E+00 -0.75401908428E+02  0.75401908428E+02  0.00000000000E+00 0.  1.
         23    2    1    2    0    0  0.00000000000E+00  0.00000000000E+00 -0.50065200683E+02  0.10073861617E+03  0.87417071953E+02 0.  0.
          2    1    3    3  502    0 -0.16657287876E+02 -0.12168512209E+02  0.19374054997E+02  0.28300034201E+02  0.00000000000E+00 0. -1.
         -2    1    3    3    0  502  0.16657287876E+02  0.12168512209E+02 -0.69439255680E+02  0.72438581972E+02  0.00000000000E+00 0.  1.
<mgrwt>
<rscale>  0 0.87417072E+02</rscale>
<asrwt>0</asrwt>
<pdfrwt beam="2">  1        3 0.11600293E-01 0.87417072E+02</pdfrwt>
<pdfrwt beam="1">  1       -3 0.38979551E-02 0.87417072E+02</pdfrwt>
<totfact> 0.38801813E+04</totfact>
</mgrwt>
</event>
<event>
 5    1  0.3921687E+001  0.8259173E+02  0.7546771E-02  0.1321853E+00
          2   -1    0    0  501    0  0.00000000000E+00  0.00000000000E+00  0.36751035491E+02  0.36751035491E+02  0.00000000000E+00 0.  1.
         -2   -1    0    0    0  501 -0.00000000000E+00 -0.00000000000E+00 -0.46402726943E+02  0.46402726943E+02  0.00000000000E+00 0. -1.
         23    2    1    2    0    0  0.00000000000E+00  0.00000000000E+00 -0.96516914514E+01  0.83153762434E+02  0.82591725124E+02 0.  0.
          2    1    3    3  502    0  0.38574732385E+02  0.62670333934E+01  0.86089694468E+01  0.40017496687E+02  0.00000000000E+00 0.  1.
         -2    1    3    3    0  502 -0.38574732385E+02 -0.62670333934E+01 -0.18260660898E+02  0.43136265747E+02  0.00000000000E+00 0. -1.
<mgrwt>
<rscale>  0 0.82591725E+02</rscale>
<asrwt>0</asrwt>
<pdfrwt beam="1">  1        2 0.56540055E-02 0.82591725E+02</pdfrwt>
<pdfrwt beam="2">  1       -2 0.71388811E-02 0.82591725E+02</pdfrwt>
<totfact> 0.12409170E+05</totfact>
</mgrwt>
</event>
<event>
 5    1  0.3921687E+001  0.9108088E+02  0.7546771E-02  0.1300255E+00
         -3   -1    0    0    0  501 -0.00000000000E+00  0.00000000000E+00  0.32360274036E+02  0.32360274036E+02  0.00000000000E+00 0.  1.
          3   -1    0    0  501    0  0.00000000000E+00 -0.00000000000E+00 -0.64088812147E+02  0.64088812147E+02  0.00000000000E+00 0. -1.
         23    2    1    2    0    0  0.00000000000E+00  0.00000000000E+00 -0.31728538111E+02  0.96449086183E+02  0.91080876669E+02 0.  0.
          2    1    3    3  502    0 -0.23343016079E+02 -0.25582809270E+02 -0.47180138738E+02  0.58526421565E+02  0.00000000000E+00 0. -1.
         -2    1    3    3    0  502  0.23343016079E+02  0.25582809270E+02  0.15451600628E+02  0.37922664618E+02  0.00000000000E+00 0.  1.
<mgrwt>
<rscale>  0 0.91080877E+02</rscale>
<asrwt>0</asrwt>
<pdfrwt beam="2">  1        3 0.98598172E-02 0.91080877E+02</pdfrwt>
<pdfrwt beam="1">  1       -3 0.49785037E-02 0.91080877E+02</pdfrwt>
<totfact> 0.35037001E+04</totfact>
</mgrwt>
</event>
<event>
 5    1  0.3921687E+001  0.9071502E+02  0.7546771E-02  0.1301129E+00
         -3   -1    0    0    0  501 -0.00000000000E+00  0.00000000000E+00  0.94823418419E+00  0.94823418419E+00  0.00000000000E+00 0.  1.
          3   -1    0    0  501    0  0.00000000000E+00 -0.00000000000E+00 -0.21696155775E+04  0.21696155775E+04  0.00000000000E+00 0. -1.
         23    2    1    2    0    0  0.00000000000E+00  0.00000000000E+00 -0.21686673433E+04  0.21705638116E+04  0.90715018759E+02 0.  0.
          2    1    3    3  502    0  0.14450718937E+02 -0.36725610944E+02 -0.16192087110E+04  0.16196896133E+04  0.00000000000E+00 0. -1.
         -2    1    3    3    0  502 -0.14450718937E+02  0.36725610944E+02 -0.54945863229E+03  0.55087419832E+03  0.00000000000E+00 0.  1.
<mgrwt>
<rscale>  0 0.90715019E+02</rscale>
<asrwt>0</asrwt>
<pdfrwt beam="2">  1        3 0.33378571E+00 0.90715019E+02</pdfrwt>
<pdfrwt beam="1">  1       -3 0.14588275E-03 0.90715019E+02</pdfrwt>
<totfact> 0.30775357E+03</totfact>
</mgrwt>
</event>
<event>
 5    1  0.3921687E+001  0.9000359E+02  0.7546771E-02  0.1302843E+00
         -1   -1    0    0    0  501 -0.00000000000E+00  0.00000000000E+00  0.45617735800E+03  0.45617735800E+03  0.00000000000E+00 0.  1.
          1   -1    0    0  501    0  0.00000000000E+00 -0.00000000000E+00 -0.44394166300E+01  0.44394166300E+01  0.00000000000E+00 0. -1.
         23    2    1    2    0    0  0.00000000000E+00  0.00000000000E+00  0.45173794137E+03  0.46061677463E+03  0.90003585470E+02 0.  0.
          2    1    3    3  502    0  0.42599556324E+02  0.13230929836E+01  0.15193751178E+03  0.15780202870E+03  0.00000000000E+00 0. -1.
         -2    1    3    3    0  502 -0.42599556324E+02 -0.13230929836E+01  0.29980042959E+03  0.30281474594E+03  0.00000000000E+00 0.  1.
<mgrwt>
<rscale>  0 0.90003585E+02</rscale>
<asrwt>0</asrwt>
<pdfrwt beam="2">  1        1 0.68298753E-03 0.90003585E+02</pdfrwt>
<pdfrwt beam="1">  1       -1 0.70181095E-01 0.90003585E+02</pdfrwt>
<totfact> 0.51381187E+04</totfact>
</mgrwt>
</event>
<event>
 5    1  0.3921687E+001  0.9044749E+02  0.7546771E-02  0.1301772E+00
         -2   -1    0    0    0  501 -0.00000000000E+00  0.00000000000E+00  0.17581096063E+01  0.17581096063E+01  0.00000000000E+00 0. -1.
          2   -1    0    0  501    0  0.00000000000E+00 -0.00000000000E+00 -0.11632876289E+04  0.11632876289E+04  0.00000000000E+00 0.  1.
         23    2    1    2    0    0  0.00000000000E+00  0.00000000000E+00 -0.11615295193E+04  0.11650457385E+04  0.90447490961E+02 0.  0.
          2    1    3    3  502    0  0.38650840693E+02 -0.58302914436E+01 -0.28779635581E+03  0.29043867201E+03  0.00000000000E+00 0. -1.
         -2    1    3    3    0  502 -0.38650840693E+02  0.58302914436E+01 -0.87373316351E+03  0.87460706651E+03  0.00000000000E+00 0.  1.
<mgrwt>
<rscale>  0 0.90447491E+02</rscale>
<asrwt>0</asrwt>
<pdfrwt beam="2">  1        2 0.17896772E+00 0.90447491E+02</pdfrwt>
<pdfrwt beam="1">  1       -2 0.27047780E-03 0.90447491E+02</pdfrwt>
<totfact> 0.25474774E+05</totfact>
</mgrwt>
</event>
<event>
 5    1  0.3921687E+001  0.9141645E+02  0.7546771E-02  0.1299457E+00
         -1   -1    0    0    0  501 -0.00000000000E+00  0.00000000000E+00  0.19204153719E+01  0.19204153719E+01  0.00000000000E+00 0.  1.
          1   -1    0    0  501    0  0.00000000000E+00 -0.00000000000E+00 -0.10879113571E+04  0.10879113571E+04  0.00000000000E+00 0. -1.
         23    2    1    2    0    0  0.00000000000E+00  0.00000000000E+00 -0.10859909417E+04  0.10898317725E+04  0.91416446955E+02 0.  0.
          2    1    3    3  502    0  0.47273183584E+01 -0.43688769068E+02 -0.69293585417E+03  0.69432784337E+03  0.00000000000E+00 0. -1.
         -2    1    3    3    0  502 -0.47273183584E+01  0.43688769068E+02 -0.39305508755E+03  0.39550392910E+03  0.00000000000E+00 0.  1.
<mgrwt>
<rscale>  0 0.91416447E+02</rscale>
<asrwt>0</asrwt>
<pdfrwt beam="2">  1        1 0.16737088E+00 0.91416447E+02</pdfrwt>
<pdfrwt beam="1">  1       -1 0.29544869E-03 0.91416447E+02</pdfrwt>
<totfact> 0.13160931E+05</totfact>
</mgrwt>
</event>
<event>
 5    1  0.3921687E+001  0.8744741E+02  0.7546771E-02  0.1309154E+00
          3   -1    0    0  501    0  0.00000000000E+00  0.00000000000E+00  0.14998463541E+03  0.14998463541E+03  0.00000000000E+00 0. -1.
         -3   -1    0    0    0  501 -0.00000000000E+00 -0.00000000000E+00 -0.12746387961E+02  0.12746387961E+02  0.00000000000E+00 0.  1.
         23    2    1    2    0    0  0.00000000000E+00  0.00000000000E+00  0.13723824745E+03  0.16273102337E+03  0.87447409365E+02 0.  0.
          2    1    3    3  502    0  0.33733905290E+02  0.11420088556E+02  0.11582031808E+03  0.12117236017E+03  0.00000000000E+00 0. -1.
         -2    1    3    3    0  502 -0.33733905290E+02 -0.11420088556E+02  0.21417929369E+02  0.41558663203E+02  0.00000000000E+00 0.  1.
<mgrwt>
<rscale>  0 0.87447409E+02</rscale>
<asrwt>0</asrwt>
<pdfrwt beam="1">  1        3 0.23074558E-01 0.87447409E+02</pdfrwt>
<pdfrwt beam="2">  1       -3 0.19609829E-02 0.87447409E+02</pdfrwt>
<totfact> 0.34184596E+04</totfact>
</mgrwt>
</event>
<event>
 5    1  0.3921687E+001  0.8742245E+02  0.7546771E-02  0.1309216E+00
          1   -1    0    0  501    0  0.00000000000E+00  0.00000000000E+00  0.11477150072E+03  0.11477150072E+03  0.00000000000E+00 0. -1.
         -1   -1    0    0    0  501 -0.00000000000E+00 -0.00000000000E+00 -0.16647611507E+02  0.16647611507E+02  0.00000000000E+00 0.  1.
         23    2    1    2    0    0  0.00000000000E+00  0.00000000000E+00  0.98123889216E+02  0.13141911223E+03  0.87422453779E+02 0.  0.
          2    1    3    3  502    0 -0.43516400250E+02 -0.39504464045E+01  0.50833144620E+02  0.67032020031E+02  0.00000000000E+00 0.  1.
         -2    1    3    3    0  502  0.43516400250E+02  0.39504464045E+01  0.47290744597E+02  0.64387092200E+02  0.00000000000E+00 0. -1.
<mgrwt>
<rscale>  0 0.87422454E+02</rscale>
<asrwt>0</asrwt>
<pdfrwt beam="1">  1        1 0.17657153E-01 0.87422454E+02</pdfrwt>
<pdfrwt beam="2">  1       -1 0.25611711E-02 0.87422454E+02</pdfrwt>
<totfact> 0.11979711E+05</totfact>
</mgrwt>
</event>
<event>
 5    1  0.3921687E+001  0.9267450E+02  0.7546771E-02  0.1296501E+00
          1   -1    0    0  501    0  0.00000000000E+00  0.00000000000E+00  0.78732974878E+03  0.78732974878E+03  0.00000000000E+00 0. -1.
         -1   -1    0    0    0  501 -0.00000000000E+00 -0.00000000000E+00 -0.27271174948E+01  0.27271174948E+01  0.00000000000E+00 0.  1.
         23    2    1    2    0    0  0.00000000000E+00  0.00000000000E+00  0.78460263129E+03  0.79005686628E+03  0.92674499881E+02 0.  0.
          2    1    3    3  502    0 -0.81508483559E+01  0.23582541944E+02  0.72516891020E+03  0.72559804364E+03  0.00000000000E+00 0. -1.
         -2    1    3    3    0  502  0.81508483559E+01 -0.23582541944E+02  0.59433721086E+02  0.64458822636E+02  0.00000000000E+00 0.  1.
<mgrwt>
<rscale>  0 0.92674500E+02</rscale>
<asrwt>0</asrwt>
<pdfrwt beam="1">  1        1 0.12112747E+00 0.92674500E+02</pdfrwt>
<pdfrwt beam="2">  1       -1 0.41955716E-03 0.92674500E+02</pdfrwt>
<totfact> 0.13551393E+05</totfact>
</mgrwt>
</event>
<event>
 5    1  0.3921687E+001  0.8906270E+02  0.7546771E-02  0.1305138E+00
          2   -1    0    0  501    0  0.00000000000E+00  0.00000000000E+00  0.12755167161E+04  0.12755167161E+04  0.00000000000E+00 0.  1.
         -2   -1    0    0    0  501 -0.00000000000E+00 -0.00000000000E+00 -0.15546963374E+01  0.15546963374E+01  0.00000000000E+00 0. -1.
         23    2    1    2    0    0  0.00000000000E+00  0.00000000000E+00  0.12739620197E+04  0.12770714124E+04  0.89062700763E+02 0.  0.
          2    1    3    3  502    0 -0.38383126874E+02  0.15091984416E+02  0.39618426590E+03  0.39832525022E+03  0.00000000000E+00 0. -1.
         -2    1    3    3    0  502  0.38383126874E+02 -0.15091984416E+02  0.87777775384E+03  0.87874616219E+03  0.00000000000E+00 0.  1.
<mgrwt>
<rscale>  0 0.89062701E+02</rscale>
<asrwt>0</asrwt>
<pdfrwt beam="1">  1        2 0.19623250E+00 0.89062701E+02</pdfrwt>
<pdfrwt beam="2">  1       -2 0.23918507E-03 0.89062701E+02</pdfrwt>
<totfact> 0.26224877E+05</totfact>
</mgrwt>
</event>
<event>
 5    1  0.3921687E+001  0.9215476E+02  0.7546771E-02  0.1297716E+00
         -2   -1    0    0    0  501 -0.00000000000E+00  0.00000000000E+00  0.47086426593E+02  0.47086426593E+02  0.00000000000E+00 0.  1.
          2   -1    0    0  501    0  0.00000000000E+00 -0.00000000000E+00 -0.45089959379E+02  0.45089959379E+02  0.00000000000E+00 0. -1.
         23    2    1    2    0    0  0.00000000000E+00  0.00000000000E+00  0.19964672138E+01  0.92176385972E+02  0.92154762489E+02 0.  0.
          2    1    3    3  502    0 -0.14239494704E+02  0.31856167867E+02  0.31097592938E+02  0.46740121171E+02  0.00000000000E+00 0.  1.
         -2    1    3    3    0  502  0.14239494704E+02 -0.31856167867E+02 -0.29101125724E+02  0.45436264800E+02  0.00000000000E+00 0. -1.
<mgrwt>
<rscale>  0 0.92154762E+02</rscale>
<asrwt>0</asrwt>
<pdfrwt beam="2">  1        2 0.69369168E-02 0.92154762E+02</pdfrwt>
<pdfrwt beam="1">  1       -2 0.72440656E-02 0.92154762E+02</pdfrwt>
<totfact> 0.95418549E+04</totfact>
</mgrwt>
</event>
<event>
 5    1  0.3921687E+001  0.8853872E+02  0.7546771E-02  0.1306429E+00
          2   -1    0    0  501    0  0.00000000000E+00  0.00000000000E+00  0.15132887862E+04  0.15132887862E+04  0.00000000000E+00 0. -1.
         -2   -1    0    0    0  501 -0.00000000000E+00 -0.00000000000E+00 -0.12950443598E+01  0.12950443598E+01  0.00000000000E+00 0.  1.
         23    2    1    2    0    0  0.00000000000E+00  0.00000000000E+00  0.15119937418E+04  0.15145838306E+04  0.88538717121E+02 0.  0.
          2    1    3    3  502    0  0.42943658972E+02  0.86613562167E+01  0.86499490587E+03  0.86610355277E+03  0.00000000000E+00 0. -1.
         -2    1    3    3    0  502 -0.42943658972E+02 -0.86613562167E+01  0.64699883597E+03  0.64848027779E+03  0.00000000000E+00 0.  1.
<mgrwt>
<rscale>  0 0.88538717E+02</rscale>
<asrwt>0</asrwt>
<pdfrwt beam="1">  1        2 0.23281224E+00 0.88538717E+02</pdfrwt>
<pdfrwt beam="2">  1       -2 0.19923880E-03 0.88538717E+02</pdfrwt>
<totfact> 0.25406114E+05</totfact>
</mgrwt>
</event>
<event>
 5    1  0.3921687E+001  0.9108543E+02  0.7546771E-02  0.1300244E+00
         -1   -1    0    0    0  501 -0.00000000000E+00  0.00000000000E+00  0.37821394651E+01  0.37821394651E+01  0.00000000000E+00 0.  1.
          1   -1    0    0  501    0  0.00000000000E+00 -0.00000000000E+00 -0.54840363847E+03  0.54840363847E+03  0.00000000000E+00 0. -1.
         23    2    1    2    0    0  0.00000000000E+00  0.00000000000E+00 -0.54462149900E+03  0.55218577793E+03  0.91085433387E+02 0.  0.
          2    1    3    3  502    0  0.24695238236E+02  0.32671728001E+02 -0.15154456530E+03  0.15698105578E+03  0.00000000000E+00 0. -1.
         -2    1    3    3    0  502 -0.24695238236E+02 -0.32671728001E+02 -0.39307693370E+03  0.39520472215E+03  0.00000000000E+00 0.  1.
<mgrwt>
<rscale>  0 0.91085433E+02</rscale>
<asrwt>0</asrwt>
<pdfrwt beam="2">  1        1 0.84369767E-01 0.91085433E+02</pdfrwt>
<pdfrwt beam="1">  1       -1 0.58186777E-03 0.91085433E+02</pdfrwt>
<totfact> 0.14099758E+05</totfact>
</mgrwt>
</event>
<event>
 5    1  0.3921687E+001  0.9786405E+02  0.7546771E-02  0.1284853E+00
          2   -1    0    0  501    0  0.00000000000E+00  0.00000000000E+00  0.41460840346E+03  0.41460840346E+03  0.00000000000E+00 0. -1.
         -2   -1    0    0    0  501 -0.00000000000E+00 -0.00000000000E+00 -0.57749501788E+01  0.57749501788E+01  0.00000000000E+00 0.  1.
         23    2    1    2    0    0  0.00000000000E+00  0.00000000000E+00  0.40883345328E+03  0.42038335364E+03  0.97864045976E+02 0.  0.
          2    1    3    3  502    0  0.20185157331E+02 -0.19785882636E+02  0.37599410025E+03  0.37705501608E+03  0.00000000000E+00 0. -1.
         -2    1    3    3    0  502 -0.20185157331E+02  0.19785882636E+02  0.32839353033E+02  0.43328337561E+02  0.00000000000E+00 0.  1.
<mgrwt>
<rscale>  0 0.97864046E+02</rscale>
<asrwt>0</asrwt>
<pdfrwt beam="1">  1        2 0.63785885E-01 0.97864046E+02</pdfrwt>
<pdfrwt beam="2">  1       -2 0.88845420E-03 0.97864046E+02</pdfrwt>
<totfact> 0.16743766E+05</totfact>
</mgrwt>
</event>
<event>
 5    1  0.3921687E+001  0.8795975E+02  0.7546771E-02  0.1307869E+00
          2   -1    0    0  501    0  0.00000000000E+00  0.00000000000E+00  0.62395456453E+02  0.62395456453E+02  0.00000000000E+00 0. -1.
         -2   -1    0    0    0  501 -0.00000000000E+00 -0.00000000000E+00 -0.30999521501E+02  0.30999521501E+02  0.00000000000E+00 0.  1.
         23    2    1    2    0    0  0.00000000000E+00  0.00000000000E+00  0.31395934952E+02  0.93394977954E+02  0.87959747472E+02 0.  0.
          2    1    3    3  502    0 -0.20020232347E+02  0.30980622285E+02 -0.97323588090E+01  0.38148754480E+02  0.00000000000E+00 0.  1.
         -2    1    3    3    0  502  0.20020232347E+02 -0.30980622285E+02  0.41128293761E+02  0.55246223474E+02  0.00000000000E+00 0. -1.
<mgrwt>
<rscale>  0 0.87959747E+02</rscale>
<asrwt>0</asrwt>
<pdfrwt beam="1">  1        2 0.95993010E-02 0.87959747E+02</pdfrwt>
<pdfrwt beam="2">  1       -2 0.47691572E-02 0.87959747E+02</pdfrwt>
<totfact> 0.11855028E+05</totfact>
</mgrwt>
</event>
<event>
 5    1  0.3921687E+001  0.8971513E+02  0.7546771E-02  0.1303543E+00
          2   -1    0    0  501    0  0.00000000000E+00  0.00000000000E+00  0.71042432212E+01  0.71042432212E+01  0.00000000000E+00 0.  1.
         -2   -1    0    0    0  501 -0.00000000000E+00 -0.00000000000E+00 -0.28323930717E+03  0.28323930717E+03  0.00000000000E+00 0. -1.
         23    2    1    2    0    0  0.00000000000E+00  0.00000000000E+00 -0.27613506395E+03  0.29034355039E+03  0.89715125323E+02 0.  0.
          2    1    3    3  502    0  0.37268725698E+02 -0.24291936533E+02 -0.15669931542E+03  0.16289177865E+03  0.00000000000E+00 0.  1.
         -2    1    3    3    0  502 -0.37268725698E+02  0.24291936533E+02 -0.11943574852E+03  0.12745177174E+03  0.00000000000E+00 0. -1.
<mgrwt>
<rscale>  0 0.89715125E+02</rscale>
<asrwt>0</asrwt>
<pdfrwt beam="1">  1        2 0.10929605E-02 0.89715125E+02</pdfrwt>
<pdfrwt beam="2">  1       -2 0.43575278E-01 0.89715125E+02</pdfrwt>
<totfact> 0.54878239E+04</totfact>
</mgrwt>
</event>
<event>
 5    1  0.3921687E+001  0.7348897E+02  0.7546771E-02  0.1348615E+00
          2   -1    0    0  501    0  0.00000000000E+00  0.00000000000E+00  0.13452528720E+04  0.13452528720E+04  0.00000000000E+00 0.  1.
         -2   -1    0    0    0  501 -0.00000000000E+00 -0.00000000000E+00 -0.10036455211E+01  0.10036455211E+01  0.00000000000E+00 0. -1.
         23    2    1    2    0    0  0.00000000000E+00  0.00000000000E+00  0.13442492265E+04  0.13462565175E+04  0.73488965697E+02 0.  0.
          2    1    3    3  502    0  0.10295490738E+02 -0.25743725343E+02  0.23040075962E+03  0.23206302281E+03  0.00000000000E+00 0. -1.
         -2    1    3    3    0  502 -0.10295490738E+02  0.25743725343E+02  0.11138484669E+04  0.11141934947E+04  0.00000000000E+00 0.  1.
<mgrwt>
<rscale>  0 0.73488966E+02</rscale>
<asrwt>0</asrwt>
<pdfrwt beam="1">  1        2 0.20696054E+00 0.73488966E+02</pdfrwt>
<pdfrwt beam="2">  1       -2 0.15440808E-03 0.73488966E+02</pdfrwt>
<totfact> 0.42779986E+05</totfact>
</mgrwt>
</event>
<event>
 5    1  0.3921687E+001  0.8891530E+02  0.7546771E-02  0.1305500E+00
         -2   -1    0    0    0  501 -0.00000000000E+00  0.00000000000E+00  0.18673786091E+03  0.18673786091E+03  0.00000000000E+00 0.  1.
          2   -1    0    0  501    0  0.00000000000E+00 -0.00000000000E+00 -0.10584263556E+02  0.10584263556E+02  0.00000000000E+00 0. -1.
         23    2    1    2    0    0  0.00000000000E+00  0.00000000000E+00  0.17615359736E+03  0.19732212447E+03  0.88915302075E+02 0.  0.
          2    1    3    3  502    0 -0.26863172463E+00 -0.44052626462E+02  0.10135072063E+03  0.11051097064E+03  0.00000000000E+00 0.  1.
         -2    1    3    3    0  502  0.26863172463E+00  0.44052626462E+02  0.74802876733E+02  0.86811153827E+02  0.00000000000E+00 0. -1.
<mgrwt>
<rscale>  0 0.88915302E+02</rscale>
<asrwt>0</asrwt>
<pdfrwt beam="2">  1        2 0.16283484E-02 0.88915302E+02</pdfrwt>
<pdfrwt beam="1">  1       -2 0.28728899E-01 0.88915302E+02</pdfrwt>
<totfact> 0.68395438E+04</totfact>
</mgrwt>
</event>
<event>
 5    1  0.3921687E+001  0.9333842E+02  0.7546771E-02  0.1294963E+00
         -1   -1    0    0    0  501 -0.00000000000E+00  0.00000000000E+00  0.37142019863E+03  0.37142019863E+03  0.00000000000E+00 0.  1.
          1   -1    0    0  501    0  0.00000000000E+00 -0.00000000000E+00 -0.58640195188E+01  0.58640195188E+01  0.00000000000E+00 0. -1.
         23    2    1    2    0    0  0.00000000000E+00  0.00000000000E+00  0.36555617911E+03  0.37728421815E+03  0.93338422838E+02 0.  0.
          2    1    3    3  502    0  0.35464381110E+02  0.29108230548E+02  0.14824136428E+03  0.15517897247E+03  0.00000000000E+00 0. -1.
         -2    1    3    3    0  502 -0.35464381110E+02 -0.29108230548E+02  0.21731481483E+03  0.22210524568E+03  0.00000000000E+00 0.  1.
<mgrwt>
<rscale>  0 0.93338423E+02</rscale>
<asrwt>0</asrwt>
<pdfrwt beam="2">  1        1 0.90215714E-03 0.93338423E+02</pdfrwt>
<pdfrwt beam="1">  1       -1 0.57141551E-01 0.93338423E+02</pdfrwt>
<totfact> 0.51964121E+04</totfact>
</mgrwt>
</event>
<event>
 5    1  0.3921687E+001  0.8921111E+02  0.7546771E-02  0.1304773E+00
         -4   -1    0    0    0  501 -0.00000000000E+00  0.00000000000E+00  0.32809061925E+03  0.32809061925E+03  0.00000000000E+00 0.  1.
          4   -1    0    0  501    0  0.00000000000E+00 -0.00000000000E+00 -0.60643472372E+01  0.60643472372E+01  0.00000000000E+00 0. -1.
         23    2    1    2    0    0  0.00000000000E+00  0.00000000000E+00  0.32202627202E+03  0.33415496649E+03  0.89211107838E+02 0.  0.
          2    1    3    3  502    0  0.36221679374E+02 -0.48871488892E+00  0.25850170171E+03  0.26102754393E+03  0.00000000000E+00 0.  1.
         -2    1    3    3    0  502 -0.36221679374E+02  0.48871488892E+00  0.63524570303E+02  0.73127422566E+02  0.00000000000E+00 0. -1.
<mgrwt>
<rscale>  0 0.89211108E+02</rscale>
<asrwt>0</asrwt>
<pdfrwt beam="2">  1        4 0.93297675E-03 0.89211108E+02</pdfrwt>
<pdfrwt beam="1">  1       -4 0.50475466E-01 0.89211108E+02</pdfrwt>
<totfact> 0.17825430E+04</totfact>
</mgrwt>
</event>
<event>
 5    1  0.3921687E+001  0.9238881E+02  0.7546771E-02  0.1297168E+00
         -2   -1    0    0    0  501 -0.00000000000E+00  0.00000000000E+00  0.12901196660E+03  0.12901196660E+03  0.00000000000E+00 0. -1.
          2   -1    0    0  501    0  0.00000000000E+00 -0.00000000000E+00 -0.16540504916E+02  0.16540504916E+02  0.00000000000E+00 0.  1.
         23    2    1    2    0    0  0.00000000000E+00  0.00000000000E+00  0.11247146168E+03  0.14555247152E+03  0.92388810312E+02 0.  0.
          2    1    3    3  502    0 -0.28304204734E+02  0.31682609509E+02  0.84811832861E+02  0.94857591916E+02  0.00000000000E+00 0. -1.
         -2    1    3    3    0  502  0.28304204734E+02 -0.31682609509E+02  0.27659628823E+02  0.50694879599E+02  0.00000000000E+00 0.  1.
<mgrwt>
<rscale>  0 0.92388810E+02</rscale>
<asrwt>0</asrwt>
<pdfrwt beam="2">  1        2 0.25446931E-02 0.92388810E+02</pdfrwt>
<pdfrwt beam="1">  1       -2 0.19847994E-01 0.92388810E+02</pdfrwt>
<totfact> 0.71227032E+04</totfact>
</mgrwt>
</event>
<event>
 5    1  0.3921687E+001  0.8961198E+02  0.7546771E-02  0.1303794E+00
          1   -1    0    0  501    0  0.00000000000E+00  0.00000000000E+00  0.45660091662E+02  0.45660091662E+02  0.00000000000E+00 0. -1.
         -1   -1    0    0    0  501 -0.00000000000E+00 -0.00000000000E+00 -0.43967867394E+02  0.43967867394E+02  0.00000000000E+00 0.  1.
         23    2    1    2    0    0  0.00000000000E+00  0.00000000000E+00  0.16922242681E+01  0.89627959056E+02  0.89611982578E+02 0.  0.
          2    1    3    3  502    0  0.35033306654E+02  0.18241965866E+02 -0.20311263225E+02  0.44414516856E+02  0.00000000000E+00 0.  1.
         -2    1    3    3    0  502 -0.35033306654E+02 -0.18241965866E+02  0.22003487493E+02  0.45213442200E+02  0.00000000000E+00 0. -1.
<mgrwt>
<rscale>  0 0.89611983E+02</rscale>
<asrwt>0</asrwt>
<pdfrwt beam="1">  1        1 0.70246295E-02 0.89611983E+02</pdfrwt>
<pdfrwt beam="2">  1       -1 0.67642873E-02 0.89611983E+02</pdfrwt>
<totfact> 0.97088827E+04</totfact>
</mgrwt>
</event>
<event>
 5    1  0.3921687E+001  0.9110532E+02  0.7546771E-02  0.1300197E+00
          2   -1    0    0  501    0  0.00000000000E+00  0.00000000000E+00  0.18150141299E+04  0.18150141299E+04  0.00000000000E+00 0.  1.
         -2   -1    0    0    0  501 -0.00000000000E+00 -0.00000000000E+00 -0.11432664407E+01  0.11432664407E+01  0.00000000000E+00 0. -1.
         23    2    1    2    0    0  0.00000000000E+00  0.00000000000E+00  0.18138708635E+04  0.18161573963E+04  0.91105318046E+02 0.  0.
          2    1    3    3  502    0  0.13535212639E+02 -0.25598572979E+02  0.20593769007E+03  0.20796350909E+03  0.00000000000E+00 0. -1.
         -2    1    3    3    0  502 -0.13535212639E+02  0.25598572979E+02  0.16079331734E+04  0.16081938873E+04  0.00000000000E+00 0.  1.
<mgrwt>
<rscale>  0 0.91105318E+02</rscale>
<asrwt>0</asrwt>
<pdfrwt beam="1">  1        2 0.27923064E+00 0.91105318E+02</pdfrwt>
<pdfrwt beam="2">  1       -2 0.17588860E-03 0.91105318E+02</pdfrwt>
<totfact> 0.21352490E+05</totfact>
</mgrwt>
</event>
<event>
 5    1  0.3921687E+001  0.9429431E+02  0.7546771E-02  0.1292773E+00
         -4   -1    0    0    0  501 -0.00000000000E+00  0.00000000000E+00  0.66543539266E+02  0.66543539266E+02  0.00000000000E+00 0.  1.
          4   -1    0    0  501    0  0.00000000000E+00 -0.00000000000E+00 -0.33404510050E+02  0.33404510050E+02  0.00000000000E+00 0. -1.
         23    2    1    2    0    0  0.00000000000E+00  0.00000000000E+00  0.33139029216E+02  0.99948049316E+02  0.94294312155E+02 0.  0.
          2    1    3    3  502    0  0.12816948846E+02 -0.26558664749E+02  0.55561255365E+02  0.62902225308E+02  0.00000000000E+00 0.  1.
         -2    1    3    3    0  502 -0.12816948846E+02  0.26558664749E+02 -0.22422226149E+02  0.37045824008E+02  0.00000000000E+00 0. -1.
<mgrwt>
<rscale>  0 0.94294312E+02</rscale>
<asrwt>0</asrwt>
<pdfrwt beam="2">  1        4 0.51391554E-02 0.94294312E+02</pdfrwt>
<pdfrwt beam="1">  1       -4 0.10237468E-01 0.94294312E+02</pdfrwt>
<totfact> 0.24147702E+04</totfact>
</mgrwt>
</event>
<event>
 5    1  0.3921687E+001  0.9171512E+02  0.7546771E-02  0.1298751E+00
          2   -1    0    0  501    0  0.00000000000E+00  0.00000000000E+00  0.12940043627E+02  0.12940043627E+02  0.00000000000E+00 0. -1.
         -2   -1    0    0    0  501 -0.00000000000E+00 -0.00000000000E+00 -0.16251227909E+03  0.16251227909E+03  0.00000000000E+00 0.  1.
         23    2    1    2    0    0  0.00000000000E+00  0.00000000000E+00 -0.14957223546E+03  0.17545232271E+03  0.91715123755E+02 0.  0.
          2    1    3    3  502    0 -0.23127685848E+02  0.39514771668E+02 -0.69868164950E+02  0.83533630989E+02  0.00000000000E+00 0. -1.
         -2    1    3    3    0  502  0.23127685848E+02 -0.39514771668E+02 -0.79704070511E+02  0.91918691726E+02  0.00000000000E+00 0.  1.
<mgrwt>
<rscale>  0 0.91715124E+02</rscale>
<asrwt>0</asrwt>
<pdfrwt beam="1">  1        2 0.19907760E-02 0.91715124E+02</pdfrwt>
<pdfrwt beam="2">  1       -2 0.25001889E-01 0.91715124E+02</pdfrwt>
<totfact> 0.66796447E+04</totfact>
</mgrwt>
</event>
<event>
 5    1  0.3921687E+001  0.9008453E+02  0.7546771E-02  0.1302647E+00
         -1   -1    0    0    0  501 -0.00000000000E+00  0.00000000000E+00  0.79008885182E+02  0.79008885182E+02  0.00000000000E+00 0.  1.
          1   -1    0    0  501    0  0.00000000000E+00 -0.00000000000E+00 -0.25678198142E+02  0.25678198142E+02  0.00000000000E+00 0. -1.
         23    2    1    2    0    0  0.00000000000E+00  0.00000000000E+00  0.53330687040E+02  0.10468708332E+03  0.90084533827E+02 0.  0.
          2    1    3    3  502    0 -0.45403166926E+01  0.20006451951E+02 -0.19933685528E+02  0.28604622250E+02  0.00000000000E+00 0. -1.
         -2    1    3    3    0  502  0.45403166926E+01 -0.20006451951E+02  0.73264372568E+02  0.76082461074E+02  0.00000000000E+00 0.  1.
<mgrwt>
<rscale>  0 0.90084534E+02</rscale>
<asrwt>0</asrwt>
<pdfrwt beam="2">  1        1 0.39504921E-02 0.90084534E+02</pdfrwt>
<pdfrwt beam="1">  1       -1 0.12155213E-01 0.90084534E+02</pdfrwt>
<totfact> 0.87483270E+04</totfact>
</mgrwt>
</event>
<event>
 5    1  0.3921687E+001  0.9370877E+02  0.7546771E-02  0.1294111E+00
          2   -1    0    0  501    0  0.00000000000E+00  0.00000000000E+00  0.19849055714E+03  0.19849055714E+03  0.00000000000E+00 0. -1.
         -2   -1    0    0    0  501 -0.00000000000E+00 -0.00000000000E+00 -0.11060141365E+02  0.11060141365E+02  0.00000000000E+00 0.  1.
         23    2    1    2    0    0  0.00000000000E+00  0.00000000000E+00  0.18743041578E+03  0.20955069851E+03  0.93708774863E+02 0.  0.
          2    1    3    3  502    0 -0.34120434964E+02 -0.32062635290E+02  0.89767233689E+02  0.10124412530E+03  0.00000000000E+00 0. -1.
         -2    1    3    3    0  502  0.34120434964E+02  0.32062635290E+02  0.97663182089E+02  0.10830657321E+03  0.00000000000E+00 0.  1.
<mgrwt>
<rscale>  0 0.93708775E+02</rscale>
<asrwt>0</asrwt>
<pdfrwt beam="1">  1        2 0.30537006E-01 0.93708775E+02</pdfrwt>
<pdfrwt beam="2">  1       -2 0.17015604E-02 0.93708775E+02</pdfrwt>
<totfact> 0.14326302E+05</totfact>
</mgrwt>
</event>
<event>
 5    1  0.3921687E+001  0.9082830E+02  0.7546771E-02  0.1300858E+00
         -3   -1    0    0    0  501 -0.00000000000E+00  0.00000000000E+00  0.67003912239E+02  0.67003912239E+02  0.00000000000E+00 0.  1.
          3   -1    0    0  501    0  0.00000000000E+00 -0.00000000000E+00 -0.30780964908E+02  0.30780964908E+02  0.00000000000E+00 0. -1.
         23    2    1    2    0    0  0.00000000000E+00  0.00000000000E+00  0.36222947331E+02  0.97784877146E+02  0.90828301125E+02 0.  0.
          2    1    3    3  502    0  0.13128361143E+02  0.41128003961E+02  0.29403897357E+01  0.43272537110E+02  0.00000000000E+00 0. -1.
         -2    1    3    3    0  502 -0.13128361143E+02 -0.41128003961E+02  0.33282557595E+02  0.54512340036E+02  0.00000000000E+00 0.  1.
<mgrwt>
<rscale>  0 0.90828301E+02</rscale>
<asrwt>0</asrwt>
<pdfrwt beam="2">  1        3 0.47355331E-02 0.90828301E+02</pdfrwt>
<pdfrwt beam="1">  1       -3 0.10308294E-01 0.90828301E+02</pdfrwt>
<totfact> 0.35202243E+04</totfact>
</mgrwt>
</event>
<event>
 5    1  0.3921687E+001  0.8666102E+02  0.7546771E-02  0.1311145E+00
         -1   -1    0    0    0  501 -0.00000000000E+00  0.00000000000E+00  0.27060187358E+01  0.27060187358E+01  0.00000000000E+00 0.  1.
          1   -1    0    0  501    0  0.00000000000E+00 -0.00000000000E+00 -0.69383587776E+03  0.69383587776E+03  0.00000000000E+00 0. -1.
         23    2    1    2    0    0  0.00000000000E+00  0.00000000000E+00 -0.69112985902E+03  0.69654189649E+03  0.86661015106E+02 0.  0.
          2    1    3    3  502    0  0.20495646975E+02 -0.37483405265E+01 -0.65092941064E+03  0.65126278816E+03  0.00000000000E+00 0. -1.
         -2    1    3    3    0  502 -0.20495646975E+02  0.37483405265E+01 -0.40200448378E+02  0.45279108333E+02  0.00000000000E+00 0.  1.
<mgrwt>
<rscale>  0 0.86661015E+02</rscale>
<asrwt>0</asrwt>
<pdfrwt beam="2">  1        1 0.10674410E+00 0.86661015E+02</pdfrwt>
<pdfrwt beam="1">  1       -1 0.41631011E-03 0.86661015E+02</pdfrwt>
<totfact> 0.16257265E+05</totfact>
</mgrwt>
</event>
<event>
 5    1  0.3921687E+001  0.9104961E+02  0.7546771E-02  0.1300330E+00
         -2   -1    0    0    0  501 -0.00000000000E+00  0.00000000000E+00  0.14897198128E+03  0.14897198128E+03  0.00000000000E+00 0. -1.
          2   -1    0    0  501    0  0.00000000000E+00 -0.00000000000E+00 -0.13912065907E+02  0.13912065907E+02  0.00000000000E+00 0.  1.
         23    2    1    2    0    0  0.00000000000E+00  0.00000000000E+00  0.13505991537E+03  0.16288404719E+03  0.91049613328E+02 0.  0.
          2    1    3    3  502    0 -0.22788336182E+02 -0.25370533911E+02  0.12148230403E+03  0.12617813776E+03  0.00000000000E+00 0. -1.
         -2    1    3    3    0  502  0.22788336182E+02  0.25370533911E+02  0.13577611345E+02  0.36705909425E+02  0.00000000000E+00 0.  1.
<mgrwt>
<rscale>  0 0.91049613E+02</rscale>
<asrwt>0</asrwt>
<pdfrwt beam="2">  1        2 0.21403179E-02 0.91049613E+02</pdfrwt>
<pdfrwt beam="1">  1       -2 0.22918765E-01 0.91049613E+02</pdfrwt>
<totfact> 0.70279550E+04</totfact>
</mgrwt>
</event>
<event>
 5    1  0.3921687E+001  0.9266242E+02  0.7546771E-02  0.1296529E+00
         -1   -1    0    0    0  501 -0.00000000000E+00  0.00000000000E+00  0.29214412184E+02  0.29214412184E+02  0.00000000000E+00 0.  1.
          1   -1    0    0  501    0  0.00000000000E+00 -0.00000000000E+00 -0.73476776896E+02  0.73476776896E+02  0.00000000000E+00 0. -1.
         23    2    1    2    0    0  0.00000000000E+00  0.00000000000E+00 -0.44262364713E+02  0.10269118908E+03  0.92662416247E+02 0.  0.
          2    1    3    3  502    0 -0.32470354766E+02 -0.18173730473E+02 -0.52722570929E+02  0.64531216502E+02  0.00000000000E+00 0. -1.
         -2    1    3    3    0  502  0.32470354766E+02  0.18173730473E+02  0.84602062161E+01  0.38159972578E+02  0.00000000000E+00 0.  1.
<mgrwt>
<rscale>  0 0.92662416E+02</rscale>
<asrwt>0</asrwt>
<pdfrwt beam="2">  1        1 0.11304119E-01 0.92662416E+02</pdfrwt>
<pdfrwt beam="1">  1       -1 0.44945250E-02 0.92662416E+02</pdfrwt>
<totfact> 0.95075499E+04</totfact>
</mgrwt>
</event>
<event>
 5    1  0.3921687E+001  0.8768518E+02  0.7546771E-02  0.1308556E+00
          1   -1    0    0  501    0  0.00000000000E+00  0.00000000000E+00  0.66202522093E+03  0.66202522093E+03  0.00000000000E+00 0. -1.
         -1   -1    0    0    0  501 -0.00000000000E+00 -0.00000000000E+00 -0.29034731973E+01  0.29034731973E+01  0.00000000000E+00 0.  1.
         23    2    1    2    0    0  0.00000000000E+00  0.00000000000E+00  0.65912174773E+03  0.66492869413E+03  0.87685175142E+02 0.  0.
          2    1    3    3  502    0 -0.11206234533E+02 -0.37273059900E+02  0.48260349530E+03  0.48417041872E+03  0.00000000000E+00 0. -1.
         -2    1    3    3    0  502  0.11206234533E+02  0.37273059900E+02  0.17651825243E+03  0.18075827540E+03  0.00000000000E+00 0.  1.
<mgrwt>
<rscale>  0 0.87685175E+02</rscale>
<asrwt>0</asrwt>
<pdfrwt beam="1">  1        1 0.10184991E+00 0.87685175E+02</pdfrwt>
<pdfrwt beam="2">  1       -1 0.44668871E-03 0.87685175E+02</pdfrwt>
<totfact> 0.15757397E+05</totfact>
</mgrwt>
</event>
<event>
 5    1  0.3921687E+001  0.8993858E+02  0.7546771E-02  0.1303001E+00
         -1   -1    0    0    0  501 -0.00000000000E+00  0.00000000000E+00  0.11393869237E+01  0.11393869237E+01  0.00000000000E+00 0.  1.
          1   -1    0    0  501    0  0.00000000000E+00 -0.00000000000E+00 -0.17748465123E+04  0.17748465123E+04  0.00000000000E+00 0. -1.
         23    2    1    2    0    0  0.00000000000E+00  0.00000000000E+00 -0.17737071254E+04  0.17759858993E+04  0.89938576989E+02 0.  0.
          2    1    3    3  502    0  0.57803859287E+01 -0.25366805010E+02 -0.16111411158E+04  0.16113511668E+04  0.00000000000E+00 0. -1.
         -2    1    3    3    0  502 -0.57803859287E+01  0.25366805010E+02 -0.16256600963E+03  0.16463473250E+03  0.00000000000E+00 0.  1.
<mgrwt>
<rscale>  0 0.89938577E+02</rscale>
<asrwt>0</asrwt>
<pdfrwt beam="2">  1        1 0.27305337E+00 0.89938577E+02</pdfrwt>
<pdfrwt beam="1">  1       -1 0.17529026E-03 0.89938577E+02</pdfrwt>
<totfact> 0.96995235E+04</totfact>
</mgrwt>
</event>
<event>
 5    1  0.3921687E+001  0.9460957E+02  0.7546771E-02  0.1292058E+00
          2   -1    0    0  501    0  0.00000000000E+00  0.00000000000E+00  0.88110643792E+03  0.88110643792E+03  0.00000000000E+00 0. -1.
         -2   -1    0    0    0  501 -0.00000000000E+00 -0.00000000000E+00 -0.25396960396E+01  0.25396960396E+01  0.00000000000E+00 0.  1.
         23    2    1    2    0    0  0.00000000000E+00  0.00000000000E+00  0.87856674188E+03  0.88364613396E+03  0.94609566765E+02 0.  0.
          2    1    3    3  502    0 -0.17943722552E+02  0.15877860687E+02  0.58326798417E+02  0.63056316516E+02  0.00000000000E+00 0.  1.
         -2    1    3    3    0  502  0.17943722552E+02 -0.15877860687E+02  0.82023994347E+03  0.82058981745E+03  0.00000000000E+00 0. -1.
<mgrwt>
<rscale>  0 0.94609567E+02</rscale>
<asrwt>0</asrwt>
<pdfrwt beam="1">  1        2 0.13555459E+00 0.94609567E+02</pdfrwt>
<pdfrwt beam="2">  1       -2 0.39072317E-03 0.94609567E+02</pdfrwt>
<totfact> 0.22433451E+05</totfact>
</mgrwt>
</event>
<event>
 5    1  0.3921687E+001  0.9058595E+02  0.7546771E-02  0.1301439E+00
         -1   -1    0    0    0  501 -0.00000000000E+00  0.00000000000E+00  0.19848218405E+01  0.19848218405E+01  0.00000000000E+00 0.  1.
          1   -1    0    0  501    0  0.00000000000E+00 -0.00000000000E+00 -0.10335706335E+04  0.10335706335E+04  0.00000000000E+00 0. -1.
         23    2    1    2    0    0  0.00000000000E+00  0.00000000000E+00 -0.10315858117E+04  0.10355554553E+04  0.90585949619E+02 0.  0.
          2    1    3    3  502    0  0.38187464157E+02 -0.20992579672E+01 -0.79317807718E+03  0.79409958533E+03  0.00000000000E+00 0. -1.
         -2    1    3    3    0  502 -0.38187464157E+02  0.20992579672E+01 -0.23840773448E+03  0.24145587001E+03  0.00000000000E+00 0.  1.
<mgrwt>
<rscale>  0 0.90585950E+02</rscale>
<asrwt>0</asrwt>
<pdfrwt beam="2">  1        1 0.15901114E+00 0.90585950E+02</pdfrwt>
<pdfrwt beam="1">  1       -1 0.30535668E-03 0.90585950E+02</pdfrwt>
<totfact> 0.13708954E+05</totfact>
</mgrwt>
</event>
<event>
 5    1  0.3921687E+001  0.9084470E+02  0.7546771E-02  0.1300819E+00
         -2   -1    0    0    0  501 -0.00000000000E+00  0.00000000000E+00  0.10503218657E+04  0.10503218657E+04  0.00000000000E+00 0.  1.
          2   -1    0    0  501    0  0.00000000000E+00 -0.00000000000E+00 -0.19643406137E+01  0.19643406137E+01  0.00000000000E+00 0. -1.
         23    2    1    2    0    0  0.00000000000E+00  0.00000000000E+00  0.10483575251E+04  0.10522862063E+04  0.90844700412E+02 0.  0.
          2    1    3    3  502    0 -0.11884791986E+02 -0.41675886249E+02  0.68175584332E+03  0.68313187429E+03  0.00000000000E+00 0.  1.
         -2    1    3    3    0  502  0.11884791986E+02  0.41675886249E+02  0.36660168176E+03  0.36915433201E+03  0.00000000000E+00 0. -1.
<mgrwt>
<rscale>  0 0.90844700E+02</rscale>
<asrwt>0</asrwt>
<pdfrwt beam="2">  1        2 0.30220709E-03 0.90844700E+02</pdfrwt>
<pdfrwt beam="1">  1       -2 0.16158753E+00 0.90844700E+02</pdfrwt>
<totfact> 0.17788359E+04</totfact>
</mgrwt>
</event>
<event>
 5    1  0.3921687E+001  0.8602716E+02  0.7546771E-02  0.1312768E+00
          1   -1    0    0  501    0  0.00000000000E+00  0.00000000000E+00  0.16108420777E+04  0.16108420777E+04  0.00000000000E+00 0. -1.
         -1   -1    0    0    0  501 -0.00000000000E+00 -0.00000000000E+00 -0.11485720291E+01  0.11485720291E+01  0.00000000000E+00 0.  1.
         23    2    1    2    0    0  0.00000000000E+00  0.00000000000E+00  0.16096935056E+04  0.16119906497E+04  0.86027162075E+02 0.  0.
          2    1    3    3  502    0 -0.23854184025E+02 -0.26710401998E+02  0.12513108640E+04  0.12518232087E+04  0.00000000000E+00 0. -1.
         -2    1    3    3    0  502  0.23854184025E+02  0.26710401998E+02  0.35838264169E+03  0.36016744097E+03  0.00000000000E+00 0.  1.
<mgrwt>
<rscale>  0 0.86027162E+02</rscale>
<asrwt>0</asrwt>
<pdfrwt beam="1">  1        1 0.24782005E+00 0.86027162E+02</pdfrwt>
<pdfrwt beam="2">  1       -1 0.17670468E-03 0.86027162E+02</pdfrwt>
<totfact> 0.12096755E+05</totfact>
</mgrwt>
</event>
<event>
 5    1  0.3921687E+001  0.9177216E+02  0.7546771E-02  0.1298616E+00
          3   -1    0    0  501    0  0.00000000000E+00  0.00000000000E+00  0.17169235320E+03  0.17169235320E+03  0.00000000000E+00 0. -1.
         -3   -1    0    0    0  501 -0.00000000000E+00 -0.00000000000E+00 -0.12263401267E+02  0.12263401267E+02  0.00000000000E+00 0.  1.
         23    2    1    2    0    0  0.00000000000E+00  0.00000000000E+00  0.15942895194E+03  0.18395575447E+03  0.91772157474E+02 0.  0.
          2    1    3    3  502    0  0.15621794740E+02  0.16041885926E+02  0.15999771323E+03  0.16155695842E+03  0.00000000000E+00 0. -1.
         -2    1    3    3    0  502 -0.15621794740E+02 -0.16041885926E+02 -0.56876129798E+00  0.22398796047E+02  0.00000000000E+00 0.  1.
<mgrwt>
<rscale>  0 0.91772157E+02</rscale>
<asrwt>0</asrwt>
<pdfrwt beam="1">  1        3 0.26414206E-01 0.91772157E+02</pdfrwt>
<pdfrwt beam="2">  1       -3 0.18866772E-02 0.91772157E+02</pdfrwt>
<totfact> 0.28837235E+04</totfact>
</mgrwt>
</event>
<event>
 5    1  0.3921687E+001  0.9224560E+02  0.7546771E-02  0.1297503E+00
          1   -1    0    0  501    0  0.00000000000E+00  0.00000000000E+00  0.61197156771E+02  0.61197156771E+02  0.00000000000E+00 0. -1.
         -1   -1    0    0    0  501 -0.00000000000E+00 -0.00000000000E+00 -0.34761623538E+02  0.34761623538E+02  0.00000000000E+00 0.  1.
         23    2    1    2    0    0  0.00000000000E+00  0.00000000000E+00  0.26435533232E+02  0.95958780309E+02  0.92245596649E+02 0.  0.
          2    1    3    3  502    0  0.54940630950E+01 -0.29216896180E+02  0.49900535100E+02  0.58085068261E+02  0.00000000000E+00 0. -1.
         -2    1    3    3    0  502 -0.54940630950E+01  0.29216896180E+02 -0.23465001867E+02  0.37873712048E+02  0.00000000000E+00 0.  1.
<mgrwt>
<rscale>  0 0.92245597E+02</rscale>
<asrwt>0</asrwt>
<pdfrwt beam="1">  1        1 0.94149472E-02 0.92245597E+02</pdfrwt>
<pdfrwt beam="2">  1       -1 0.53479421E-02 0.92245597E+02</pdfrwt>
<totfact> 0.93582307E+04</totfact>
</mgrwt>
</event>
<event>
 5    1  0.3921687E+001  0.9145454E+02  0.7546771E-02  0.1299367E+00
          2   -1    0    0  501    0  0.00000000000E+00  0.00000000000E+00  0.91653700986E+03  0.91653700986E+03  0.00000000000E+00 0. -1.
         -2   -1    0    0    0  501 -0.00000000000E+00 -0.00000000000E+00 -0.22813953948E+01  0.22813953948E+01  0.00000000000E+00 0.  1.
         23    2    1    2    0    0  0.00000000000E+00  0.00000000000E+00  0.91425561446E+03  0.91881840525E+03  0.91454542008E+02 0.  0.
          2    1    3    3  502    0  0.32602858618E+02  0.25650892998E+02  0.65039829045E+03  0.65171991754E+03  0.00000000000E+00 0. -1.
         -2    1    3    3    0  502 -0.32602858618E+02 -0.25650892998E+02  0.26385732402E+03  0.26709848771E+03  0.00000000000E+00 0.  1.
<mgrwt>
<rscale>  0 0.91454542E+02</rscale>
<asrwt>0</asrwt>
<pdfrwt beam="1">  1        2 0.14100540E+00 0.91454542E+02</pdfrwt>
<pdfrwt beam="2">  1       -2 0.35098464E-03 0.91454542E+02</pdfrwt>
<totfact> 0.24644248E+05</totfact>
</mgrwt>
</event>
<event>
 5    1  0.3921687E+001  0.1029043E+03  0.7546771E-02  0.1274304E+00
          2   -1    0    0  501    0  0.00000000000E+00  0.00000000000E+00  0.15558269846E+03  0.15558269846E+03  0.00000000000E+00 0. -1.
         -2   -1    0    0    0  501 -0.00000000000E+00 -0.00000000000E+00 -0.17015540489E+02  0.17015540489E+02  0.00000000000E+00 0.  1.
         23    2    1    2    0    0  0.00000000000E+00  0.00000000000E+00  0.13856715797E+03  0.17259823895E+03  0.10290429933E+03 0.  0.
          2    1    3    3  502    0  0.50272666435E+02  0.10865901310E+02  0.66962572981E+02  0.84435744694E+02  0.00000000000E+00 0. -1.
         -2    1    3    3    0  502 -0.50272666435E+02 -0.10865901310E+02  0.71604584990E+02  0.88162494256E+02  0.00000000000E+00 0.  1.
<mgrwt>
<rscale>  0 0.10290430E+03</rscale>
<asrwt>0</asrwt>
<pdfrwt beam="1">  1        2 0.23935799E-01 0.10290430E+03</pdfrwt>
<pdfrwt beam="2">  1       -2 0.26177756E-02 0.10290430E+03</pdfrwt>
<totfact> 0.10169229E+05</totfact>
</mgrwt>
</event>
<event>
 5    1  0.3921687E+001  0.9076256E+02  0.7546771E-02  0.1301015E+00
          3   -1    0    0  501    0  0.00000000000E+00  0.00000000000E+00  0.31535131977E+04  0.31535131977E+04  0.00000000000E+00 0. -1.
         -3   -1    0    0    0  501 -0.00000000000E+00 -0.00000000000E+00 -0.65306861020E+00  0.65306861020E+00  0.00000000000E+00 0.  1.
         23    2    1    2    0    0  0.00000000000E+00  0.00000000000E+00  0.31528601291E+04  0.31541662663E+04  0.90762557948E+02 0.  0.
          2    1    3    3  502    0 -0.42242950643E+02 -0.10066962503E+02  0.20343769237E+04  0.20348403569E+04  0.00000000000E+00 0. -1.
         -2    1    3    3    0  502  0.42242950643E+02  0.10066962503E+02  0.11184832054E+04  0.11193259094E+04  0.00000000000E+00 0.  1.
<mgrwt>
<rscale>  0 0.90762558E+02</rscale>
<asrwt>0</asrwt>
<pdfrwt beam="1">  1        3 0.48514369E+00 0.90762558E+02</pdfrwt>
<pdfrwt beam="2">  1       -3 0.10047462E-03 0.90762558E+02</pdfrwt>
<totfact> 0.93741517E+02</totfact>
</mgrwt>
</event>
<event>
 5    1  0.3921687E+001  0.6345179E+02  0.7546771E-02  0.1383892E+00
          1   -1    0    0  501    0  0.00000000000E+00  0.00000000000E+00  0.15702976368E+03  0.15702976368E+03  0.00000000000E+00 0.  1.
         -1   -1    0    0    0  501 -0.00000000000E+00 -0.00000000000E+00 -0.64098199846E+01  0.64098199846E+01  0.00000000000E+00 0. -1.
         23    2    1    2    0    0  0.00000000000E+00  0.00000000000E+00  0.15061994370E+03  0.16343958367E+03  0.63451793274E+02 0.  0.
          2    1    3    3  502    0 -0.16635203473E+02  0.13240118623E+02  0.14655221482E+02  0.25822591900E+02  0.00000000000E+00 0. -1.
         -2    1    3    3    0  502  0.16635203473E+02 -0.13240118623E+02  0.13596472221E+03  0.13761699176E+03  0.00000000000E+00 0.  1.
<mgrwt>
<rscale>  0 0.63451793E+02</rscale>
<asrwt>0</asrwt>
<pdfrwt beam="1">  1        1 0.24158422E-01 0.63451793E+02</pdfrwt>
<pdfrwt beam="2">  1       -1 0.98612628E-03 0.63451793E+02</pdfrwt>
<totfact> 0.29425625E+05</totfact>
</mgrwt>
</event>
<event>
 5    1  0.3921687E+001  0.9073221E+02  0.7546771E-02  0.1301088E+00
          4   -1    0    0  501    0  0.00000000000E+00  0.00000000000E+00  0.34362630174E+03  0.34362630174E+03  0.00000000000E+00 0. -1.
         -4   -1    0    0    0  501 -0.00000000000E+00 -0.00000000000E+00 -0.59893068171E+01  0.59893068171E+01  0.00000000000E+00 0.  1.
         23    2    1    2    0    0  0.00000000000E+00  0.00000000000E+00  0.33763699492E+03  0.34961560855E+03  0.90732207105E+02 0.  0.
          2    1    3    3  502    0 -0.32184767868E+02  0.11762337294E+02  0.54260898956E+02  0.64175205624E+02  0.00000000000E+00 0.  1.
         -2    1    3    3    0  502  0.32184767868E+02 -0.11762337294E+02  0.28337609596E+03  0.28544040293E+03  0.00000000000E+00 0. -1.
<mgrwt>
<rscale>  0 0.90732207E+02</rscale>
<asrwt>0</asrwt>
<pdfrwt beam="1">  1        4 0.52865570E-01 0.90732207E+02</pdfrwt>
<pdfrwt beam="2">  1       -4 0.92143209E-03 0.90732207E+02</pdfrwt>
<totfact> 0.16620569E+04</totfact>
</mgrwt>
</event>
<event>
 5    1  0.3921687E+001  0.9044571E+02  0.7546771E-02  0.1301776E+00
          2   -1    0    0  501    0  0.00000000000E+00  0.00000000000E+00  0.14714292388E+04  0.14714292388E+04  0.00000000000E+00 0. -1.
         -2   -1    0    0    0  501 -0.00000000000E+00 -0.00000000000E+00 -0.13898775745E+01  0.13898775745E+01  0.00000000000E+00 0.  1.
         23    2    1    2    0    0  0.00000000000E+00  0.00000000000E+00  0.14700393613E+04  0.14728191164E+04  0.90445707506E+02 0.  0.
          2    1    3    3  502    0  0.13562653867E+02  0.15823525669E+02  0.13885701881E+04  0.13887265738E+04  0.00000000000E+00 0. -1.
         -2    1    3    3    0  502 -0.13562653867E+02 -0.15823525669E+02  0.81469173210E+02  0.84092542643E+02  0.00000000000E+00 0.  1.
<mgrwt>
<rscale>  0 0.90445708E+02</rscale>
<asrwt>0</asrwt>
<pdfrwt beam="1">  1        2 0.22637248E+00 0.90445708E+02</pdfrwt>
<pdfrwt beam="2">  1       -2 0.21382850E-03 0.90445708E+02</pdfrwt>
<totfact> 0.24271869E+05</totfact>
</mgrwt>
</event>
<event>
 5    1  0.3921687E+001  0.9185994E+02  0.7546771E-02  0.1298409E+00
          1   -1    0    0  501    0  0.00000000000E+00  0.00000000000E+00  0.15165662232E+02  0.15165662232E+02  0.00000000000E+00 0. -1.
         -1   -1    0    0    0  501 -0.00000000000E+00 -0.00000000000E+00 -0.13910122087E+03  0.13910122087E+03  0.00000000000E+00 0.  1.
         23    2    1    2    0    0  0.00000000000E+00  0.00000000000E+00 -0.12393555863E+03  0.15426688310E+03  0.91859939728E+02 0.  0.
          2    1    3    3  502    0  0.23662125887E+02  0.32939426964E+02 -0.98168251128E+02  0.10621632445E+03  0.00000000000E+00 0.  1.
         -2    1    3    3    0  502 -0.23662125887E+02 -0.32939426964E+02 -0.25767307506E+02  0.48050558648E+02  0.00000000000E+00 0. -1.
<mgrwt>
<rscale>  0 0.91859940E+02</rscale>
<asrwt>0</asrwt>
<pdfrwt beam="1">  1        1 0.23331789E-02 0.91859940E+02</pdfrwt>
<pdfrwt beam="2">  1       -1 0.21400187E-01 0.91859940E+02</pdfrwt>
<totfact> 0.74629932E+04</totfact>
</mgrwt>
</event>
<event>
 5    1  0.3921687E+001  0.9212084E+02  0.7546771E-02  0.1297796E+00
          2   -1    0    0  501    0  0.00000000000E+00  0.00000000000E+00  0.22005674355E+04  0.22005674355E+04  0.00000000000E+00 0. -1.
         -2   -1    0    0    0  501 -0.00000000000E+00 -0.00000000000E+00 -0.96409790676E+00  0.96409790676E+00  0.00000000000E+00 0.  1.
         23    2    1    2    0    0  0.00000000000E+00  0.00000000000E+00  0.21996033375E+04  0.22015315334E+04  0.92120843639E+02 0.  0.
          2    1    3    3  502    0 -0.19574304207E+02 -0.41070808093E+02  0.92813634474E+03  0.92925079450E+03  0.00000000000E+00 0. -1.
         -2    1    3    3    0  502  0.19574304207E+02  0.41070808093E+02  0.12714669928E+04  0.12722807389E+04  0.00000000000E+00 0.  1.
<mgrwt>
<rscale>  0 0.92120844E+02</rscale>
<asrwt>0</asrwt>
<pdfrwt beam="1">  1        2 0.33854482E+00 0.92120844E+02</pdfrwt>
<pdfrwt beam="2">  1       -2 0.14832452E-03 0.92120844E+02</pdfrwt>
<totfact> 0.17305085E+05</totfact>
</mgrwt>
</event>
<event>
 5    1  0.3921687E+001  0.9104133E+02  0.7546771E-02  0.1300349E+00
          2   -1    0    0  501    0  0.00000000000E+00  0.00000000000E+00  0.11094897453E+04  0.11094897453E+04  0.00000000000E+00 0. -1.
         -2   -1    0    0    0  501 -0.00000000000E+00 -0.00000000000E+00 -0.18676430413E+01  0.18676430413E+01  0.00000000000E+00 0.  1.
         23    2    1    2    0    0  0.00000000000E+00  0.00000000000E+00  0.11076221023E+04  0.11113573884E+04  0.91041326929E+02 0.  0.
          2    1    3    3  502    0 -0.24969775743E+02  0.59832010751E+01  0.10126518456E+04  0.10129773190E+04  0.00000000000E+00 0. -1.
         -2    1    3    3    0  502  0.24969775743E+02 -0.59832010751E+01  0.94970256731E+02  0.98380069422E+02  0.00000000000E+00 0.  1.
<mgrwt>
<rscale>  0 0.91041327E+02</rscale>
<asrwt>0</asrwt>
<pdfrwt beam="1">  1        2 0.17069020E+00 0.91041327E+02</pdfrwt>
<pdfrwt beam="2">  1       -2 0.28733059E-03 0.91041327E+02</pdfrwt>
<totfact> 0.25109698E+05</totfact>
</mgrwt>
</event>
<event>
 5    1  0.3921687E+001  0.8982459E+02  0.7546771E-02  0.1303277E+00
          1   -1    0    0  501    0  0.00000000000E+00  0.00000000000E+00  0.15639503494E+04  0.15639503494E+04  0.00000000000E+00 0. -1.
         -1   -1    0    0    0  501 -0.00000000000E+00 -0.00000000000E+00 -0.12897560675E+01  0.12897560675E+01  0.00000000000E+00 0.  1.
         23    2    1    2    0    0  0.00000000000E+00  0.00000000000E+00  0.15626605933E+04  0.15652401054E+04  0.89824594681E+02 0.  0.
          2    1    3    3  502    0  0.30692530227E+02 -0.70553833183E+01  0.13393019747E+04  0.13396721947E+04  0.00000000000E+00 0. -1.
         -2    1    3    3    0  502 -0.30692530227E+02  0.70553833183E+01  0.22335861856E+03  0.22556791068E+03  0.00000000000E+00 0.  1.
<mgrwt>
<rscale>  0 0.89824595E+02</rscale>
<asrwt>0</asrwt>
<pdfrwt beam="1">  1        1 0.24060623E+00 0.89824595E+02</pdfrwt>
<pdfrwt beam="2">  1       -1 0.19842526E-03 0.89824595E+02</pdfrwt>
<totfact> 0.11092373E+05</totfact>
</mgrwt>
</event>
<event>
 5    1  0.3921687E+001  0.9138504E+02  0.7546771E-02  0.1299532E+00
          1   -1    0    0  501    0  0.00000000000E+00  0.00000000000E+00  0.98717974049E+03  0.98717974049E+03  0.00000000000E+00 0. -1.
         -1   -1    0    0    0  501 -0.00000000000E+00 -0.00000000000E+00 -0.21149203791E+01  0.21149203791E+01  0.00000000000E+00 0.  1.
         23    2    1    2    0    0  0.00000000000E+00  0.00000000000E+00  0.98506482011E+03  0.98929466087E+03  0.91385043656E+02 0.  0.
          2    1    3    3  502    0 -0.32684448026E+02  0.17530925697E+02  0.78143507120E+03  0.78231475571E+03  0.00000000000E+00 0. -1.
         -2    1    3    3    0  502  0.32684448026E+02 -0.17530925697E+02  0.20362974891E+03  0.20697990516E+03  0.00000000000E+00 0.  1.
<mgrwt>
<rscale>  0 0.91385044E+02</rscale>
<asrwt>0</asrwt>
<pdfrwt beam="1">  1        1 0.15187344E+00 0.91385044E+02</pdfrwt>
<pdfrwt beam="2">  1       -1 0.32537315E-03 0.91385044E+02</pdfrwt>
<totfact> 0.13565120E+05</totfact>
</mgrwt>
</event>
<event>
 5    1  0.3921687E+001  0.9104653E+02  0.7546771E-02  0.1300337E+00
          2   -1    0    0  501    0  0.00000000000E+00  0.00000000000E+00  0.10740628208E+04  0.10740628208E+04  0.00000000000E+00 0. -1.
         -2   -1    0    0    0  501 -0.00000000000E+00 -0.00000000000E+00 -0.19294660651E+01  0.19294660651E+01  0.00000000000E+00 0.  1.
         23    2    1    2    0    0  0.00000000000E+00  0.00000000000E+00  0.10721333547E+04  0.10759922868E+04  0.91046532377E+02 0.  0.
          2    1    3    3  502    0  0.22004046262E+02  0.28365462053E+02  0.86688554218E+03  0.86762856150E+03  0.00000000000E+00 0. -1.
         -2    1    3    3    0  502 -0.22004046262E+02 -0.28365462053E+02  0.20524781253E+03  0.20836372534E+03  0.00000000000E+00 0.  1.
<mgrwt>
<rscale>  0 0.91046532E+02</rscale>
<asrwt>0</asrwt>
<pdfrwt beam="1">  1        2 0.16523996E+00 0.91046532E+02</pdfrwt>
<pdfrwt beam="2">  1       -2 0.29684179E-03 0.91046532E+02</pdfrwt>
<totfact> 0.25125836E+05</totfact>
</mgrwt>
</event>
<event>
 5    1  0.3921687E+001  0.9222175E+02  0.7546771E-02  0.1297559E+00
         -2   -1    0    0    0  501 -0.00000000000E+00  0.00000000000E+00  0.17831020595E+01  0.17831020595E+01  0.00000000000E+00 0.  1.
          2   -1    0    0  501    0  0.00000000000E+00 -0.00000000000E+00 -0.11924233908E+04  0.11924233908E+04  0.00000000000E+00 0. -1.
         23    2    1    2    0    0  0.00000000000E+00  0.00000000000E+00 -0.11906402888E+04  0.11942064929E+04  0.92221745896E+02 0.  0.
          2    1    3    3  502    0  0.21384057804E+02 -0.31239627327E+01 -0.11227834542E+04  0.11229914168E+04  0.00000000000E+00 0. -1.
         -2    1    3    3    0  502 -0.21384057804E+02  0.31239627327E+01 -0.67856834546E+02  0.71215076114E+02  0.00000000000E+00 0.  1.
<mgrwt>
<rscale>  0 0.92221746E+02</rscale>
<asrwt>0</asrwt>
<pdfrwt beam="2">  1        2 0.18345007E+00 0.92221746E+02</pdfrwt>
<pdfrwt beam="1">  1       -2 0.27432292E-03 0.92221746E+02</pdfrwt>
<totfact> 0.24149487E+05</totfact>
</mgrwt>
</event>
<event>
 5    1  0.3921687E+001  0.9165394E+02  0.7546771E-02  0.1298895E+00
          2   -1    0    0  501    0  0.00000000000E+00  0.00000000000E+00  0.24764717137E+04  0.24764717137E+04  0.00000000000E+00 0. -1.
         -2   -1    0    0    0  501 -0.00000000000E+00 -0.00000000000E+00 -0.84802544279E+00  0.84802544279E+00  0.00000000000E+00 0.  1.
         23    2    1    2    0    0  0.00000000000E+00  0.00000000000E+00  0.24756236882E+04  0.24773197391E+04  0.91653936556E+02 0.  0.
          2    1    3    3  502    0 -0.33986289951E+02 -0.13887037832E+02  0.19791146943E+04  0.19794552005E+04  0.00000000000E+00 0. -1.
         -2    1    3    3    0  502  0.33986289951E+02  0.13887037832E+02  0.49650899395E+03  0.49786453860E+03  0.00000000000E+00 0.  1.
<mgrwt>
<rscale>  0 0.91653937E+02</rscale>
<asrwt>0</asrwt>
<pdfrwt beam="1">  1        2 0.38098986E+00 0.91653937E+02</pdfrwt>
<pdfrwt beam="2">  1       -2 0.13046744E-03 0.91653937E+02</pdfrwt>
<totfact> 0.14877824E+05</totfact>
</mgrwt>
</event>
<event>
 5    1  0.3921687E+001  0.7920808E+02  0.7546771E-02  0.1331314E+00
          2   -1    0    0  501    0  0.00000000000E+00  0.00000000000E+00  0.14768107165E+04  0.14768107165E+04  0.00000000000E+00 0.  1.
         -2   -1    0    0    0  501 -0.00000000000E+00 -0.00000000000E+00 -0.10620725359E+01  0.10620725359E+01  0.00000000000E+00 0. -1.
         23    2    1    2    0    0  0.00000000000E+00  0.00000000000E+00  0.14757486440E+04  0.14778727890E+04  0.79208082991E+02 0.  0.
          2    1    3    3  502    0  0.31816364705E+02  0.51080207976E+01  0.30828904678E+03  0.30996856180E+03  0.00000000000E+00 0. -1.
         -2    1    3    3    0  502 -0.31816364705E+02 -0.51080207976E+01  0.11674595972E+04  0.11679042272E+04  0.00000000000E+00 0.  1.
<mgrwt>
<rscale>  0 0.79208083E+02</rscale>
<asrwt>0</asrwt>
<pdfrwt beam="1">  1        2 0.22720001E+00 0.79208083E+02</pdfrwt>
<pdfrwt beam="2">  1       -2 0.16339696E-03 0.79208083E+02</pdfrwt>
<totfact> 0.34296994E+05</totfact>
</mgrwt>
</event>
<event>
 5    1  0.3921687E+001  0.9035484E+02  0.7546771E-02  0.1301995E+00
          2   -1    0    0  501    0  0.00000000000E+00  0.00000000000E+00  0.81583120025E+03  0.81583120025E+03  0.00000000000E+00 0. -1.
         -2   -1    0    0    0  501 -0.00000000000E+00 -0.00000000000E+00 -0.25017421933E+01  0.25017421933E+01  0.00000000000E+00 0.  1.
         23    2    1    2    0    0  0.00000000000E+00  0.00000000000E+00  0.81332945806E+03  0.81833294244E+03  0.90354841294E+02 0.  0.
          2    1    3    3  502    0  0.13061357050E+02  0.36067725842E+02  0.62280360256E+03  0.62398381970E+03  0.00000000000E+00 0. -1.
         -2    1    3    3    0  502 -0.13061357050E+02 -0.36067725842E+02  0.19052585550E+03  0.19434912274E+03  0.00000000000E+00 0.  1.
<mgrwt>
<rscale>  0 0.90354841E+02</rscale>
<asrwt>0</asrwt>
<pdfrwt beam="1">  1        2 0.12551228E+00 0.90354841E+02</pdfrwt>
<pdfrwt beam="2">  1       -2 0.38488406E-03 0.90354841E+02</pdfrwt>
<totfact> 0.25045973E+05</totfact>
</mgrwt>
</event>
<event>
 5    1  0.3921687E+001  0.8449780E+02  0.7546771E-02  0.1316751E+00
          1   -1    0    0  501    0  0.00000000000E+00  0.00000000000E+00  0.17724717456E+02  0.17724717456E+02  0.00000000000E+00 0. -1.
         -1   -1    0    0    0  501 -0.00000000000E+00 -0.00000000000E+00 -0.10070511534E+03  0.10070511534E+03  0.00000000000E+00 0.  1.
         23    2    1    2    0    0  0.00000000000E+00  0.00000000000E+00 -0.82980397883E+02  0.11842983279E+03  0.84497803894E+02 0.  0.
          2    1    3    3  502    0  0.18637143151E+02 -0.31980558952E+02 -0.12942444605E+02  0.39212321126E+02  0.00000000000E+00 0. -1.
         -2    1    3    3    0  502 -0.18637143151E+02  0.31980558952E+02 -0.70037953278E+02  0.79217511669E+02  0.00000000000E+00 0.  1.
<mgrwt>
<rscale>  0 0.84497804E+02</rscale>
<asrwt>0</asrwt>
<pdfrwt beam="1">  1        1 0.27268796E-02 0.84497804E+02</pdfrwt>
<pdfrwt beam="2">  1       -1 0.15493095E-01 0.84497804E+02</pdfrwt>
<totfact> 0.98812147E+04</totfact>
</mgrwt>
</event>
<event>
 5    1  0.3921687E+001  0.9111995E+02  0.7546771E-02  0.1300162E+00
         -1   -1    0    0    0  501 -0.00000000000E+00  0.00000000000E+00  0.98301915582E+01  0.98301915582E+01  0.00000000000E+00 0.  1.
          1   -1    0    0  501    0  0.00000000000E+00 -0.00000000000E+00 -0.21115675223E+03  0.21115675223E+03  0.00000000000E+00 0. -1.
         23    2    1    2    0    0  0.00000000000E+00  0.00000000000E+00 -0.20132656067E+03  0.22098694379E+03  0.91119950026E+02 0.  0.
          2    1    3    3  502    0  0.11067998110E+02  0.28794424079E+02 -0.18197516900E+03  0.18457134549E+03  0.00000000000E+00 0. -1.
         -2    1    3    3    0  502 -0.11067998110E+02 -0.28794424079E+02 -0.19351391666E+02  0.36415598301E+02  0.00000000000E+00 0.  1.
<mgrwt>
<rscale>  0 0.91119950E+02</rscale>
<asrwt>0</asrwt>
<pdfrwt beam="2">  1        1 0.32485652E-01 0.91119950E+02</pdfrwt>
<pdfrwt beam="1">  1       -1 0.15123373E-02 0.91119950E+02</pdfrwt>
<totfact> 0.11986253E+05</totfact>
</mgrwt>
</event>
<event>
 5    1  0.3921687E+001  0.9232411E+02  0.7546771E-02  0.1297319E+00
          1   -1    0    0  501    0  0.00000000000E+00  0.00000000000E+00  0.73878352928E+01  0.73878352928E+01  0.00000000000E+00 0. -1.
         -1   -1    0    0    0  501 -0.00000000000E+00 -0.00000000000E+00 -0.28843837740E+03  0.28843837740E+03  0.00000000000E+00 0.  1.
         23    2    1    2    0    0  0.00000000000E+00  0.00000000000E+00 -0.28105054211E+03  0.29582621269E+03  0.92324107888E+02 0.  0.
          2    1    3    3  502    0  0.35260848807E+02  0.25880613634E+02 -0.93237148672E+02  0.10298689001E+03  0.00000000000E+00 0. -1.
         -2    1    3    3    0  502 -0.35260848807E+02 -0.25880613634E+02 -0.18781339343E+03  0.19283932268E+03  0.00000000000E+00 0.  1.
<mgrwt>
<rscale>  0 0.92324108E+02</rscale>
<asrwt>0</asrwt>
<pdfrwt beam="1">  1        1 0.11365900E-02 0.92324108E+02</pdfrwt>
<pdfrwt beam="2">  1       -1 0.44375136E-01 0.92324108E+02</pdfrwt>
<totfact> 0.59535216E+04</totfact>
</mgrwt>
</event>
<event>
 5    1  0.3921687E+001  0.9021455E+02  0.7546771E-02  0.1302333E+00
          4   -1    0    0  501    0  0.00000000000E+00  0.00000000000E+00  0.65978750790E+02  0.65978750790E+02  0.00000000000E+00 0. -1.
         -4   -1    0    0    0  501 -0.00000000000E+00 -0.00000000000E+00 -0.30838205600E+02  0.30838205600E+02  0.00000000000E+00 0.  1.
         23    2    1    2    0    0  0.00000000000E+00  0.00000000000E+00  0.35140545190E+02  0.96816956391E+02  0.90214550537E+02 0.  0.
          2    1    3    3  502    0  0.25144909920E+02 -0.28539540774E+02  0.43591303441E+02  0.57853034649E+02  0.00000000000E+00 0. -1.
         -2    1    3    3    0  502 -0.25144909920E+02  0.28539540774E+02 -0.84507582509E+01  0.38963921742E+02  0.00000000000E+00 0.  1.
<mgrwt>
<rscale>  0 0.90214551E+02</rscale>
<asrwt>0</asrwt>
<pdfrwt beam="1">  1        4 0.10150577E-01 0.90214551E+02</pdfrwt>
<pdfrwt beam="2">  1       -4 0.47443393E-02 0.90214551E+02</pdfrwt>
<totfact> 0.27433166E+04</totfact>
</mgrwt>
</event>
<event>
 5    1  0.3921687E+001  0.1007209E+03  0.7546771E-02  0.1278787E+00
          1   -1    0    0  501    0  0.00000000000E+00  0.00000000000E+00  0.17341055516E+04  0.17341055516E+04  0.00000000000E+00 0. -1.
         -1   -1    0    0    0  501 -0.00000000000E+00 -0.00000000000E+00 -0.14625271054E+01  0.14625271054E+01  0.00000000000E+00 0.  1.
         23    2    1    2    0    0  0.00000000000E+00  0.00000000000E+00  0.17326430245E+04  0.17355680787E+04  0.10072092877E+03 0.  0.
          2    1    3    3  502    0  0.38796800368E+02 -0.28256732092E+01  0.14174588025E+04  0.14179924657E+04  0.00000000000E+00 0. -1.
         -2    1    3    3    0  502 -0.38796800368E+02  0.28256732092E+01  0.31518422204E+03  0.31757561300E+03  0.00000000000E+00 0.  1.
<mgrwt>
<rscale>  0 0.10072093E+03</rscale>
<asrwt>0</asrwt>
<pdfrwt beam="1">  1        1 0.26678382E+00 0.10072093E+03</pdfrwt>
<pdfrwt beam="2">  1       -1 0.22500556E-03 0.10072093E+03</pdfrwt>
<totfact> 0.73701573E+04</totfact>
</mgrwt>
</event>
<event>
 5    1  0.3921687E+001  0.9093391E+02  0.7546771E-02  0.1300606E+00
          3   -1    0    0  501    0  0.00000000000E+00  0.00000000000E+00  0.87965475440E+01  0.87965475440E+01  0.00000000000E+00 0. -1.
         -3   -1    0    0    0  501 -0.00000000000E+00 -0.00000000000E+00 -0.23500630217E+03  0.23500630217E+03  0.00000000000E+00 0.  1.
         23    2    1    2    0    0  0.00000000000E+00  0.00000000000E+00 -0.22620975463E+03  0.24380284971E+03  0.90933912490E+02 0.  0.
          2    1    3    3  502    0  0.29055868553E+02  0.27628850842E+02 -0.17058599662E+03  0.17523464023E+03  0.00000000000E+00 0. -1.
         -2    1    3    3    0  502 -0.29055868553E+02 -0.27628850842E+02 -0.55623758008E+02  0.68568209479E+02  0.00000000000E+00 0.  1.
<mgrwt>
<rscale>  0 0.90933912E+02</rscale>
<asrwt>0</asrwt>
<pdfrwt beam="1">  1        3 0.13533151E-02 0.90933912E+02</pdfrwt>
<pdfrwt beam="2">  1       -3 0.36154814E-01 0.90933912E+02</pdfrwt>
<totfact> 0.26567693E+04</totfact>
</mgrwt>
</event>
<event>
 5    1  0.3921687E+001  0.9548367E+02  0.7546771E-02  0.1290090E+00
          2   -1    0    0  501    0  0.00000000000E+00  0.00000000000E+00  0.23255388520E+02  0.23255388520E+02  0.00000000000E+00 0.  1.
         -2   -1    0    0    0  501 -0.00000000000E+00 -0.00000000000E+00 -0.98010954994E+02  0.98010954994E+02  0.00000000000E+00 0. -1.
         23    2    1    2    0    0  0.00000000000E+00  0.00000000000E+00 -0.74755566475E+02  0.12126634351E+03  0.95483670595E+02 0.  0.
          2    1    3    3  502    0 -0.23262980158E+02  0.34419878372E+01 -0.90145153598E+02  0.93162021464E+02  0.00000000000E+00 0. -1.
         -2    1    3    3    0  502  0.23262980158E+02 -0.34419878372E+01  0.15389587123E+02  0.28104322050E+02  0.00000000000E+00 0.  1.
<mgrwt>
<rscale>  0 0.95483671E+02</rscale>
<asrwt>0</asrwt>
<pdfrwt beam="1">  1        2 0.35777521E-02 0.95483671E+02</pdfrwt>
<pdfrwt beam="2">  1       -2 0.15078608E-01 0.95483671E+02</pdfrwt>
<totfact> 0.71579838E+04</totfact>
</mgrwt>
</event>
<event>
 5    1  0.3921687E+001  0.9482030E+02  0.7546771E-02  0.1291581E+00
          1   -1    0    0  501    0  0.00000000000E+00  0.00000000000E+00  0.32278050351E+03  0.32278050351E+03  0.00000000000E+00 0. -1.
         -1   -1    0    0    0  501 -0.00000000000E+00 -0.00000000000E+00 -0.69636243766E+01  0.69636243766E+01  0.00000000000E+00 0.  1.
         23    2    1    2    0    0  0.00000000000E+00  0.00000000000E+00  0.31581687914E+03  0.32974412789E+03  0.94820297037E+02 0.  0.
          2    1    3    3  502    0 -0.31126824039E+02 -0.20754559725E+02  0.25918222706E+03  0.26186839777E+03  0.00000000000E+00 0. -1.
         -2    1    3    3    0  502  0.31126824039E+02  0.20754559725E+02  0.56634652078E+02  0.67875730126E+02  0.00000000000E+00 0.  1.
<mgrwt>
<rscale>  0 0.94820297E+02</rscale>
<asrwt>0</asrwt>
<pdfrwt beam="1">  1        1 0.49658527E-01 0.94820297E+02</pdfrwt>
<pdfrwt beam="2">  1       -1 0.10713271E-02 0.94820297E+02</pdfrwt>
<totfact> 0.11700289E+05</totfact>
</mgrwt>
</event>
<event>
 5    1  0.3921687E+001  0.9049566E+02  0.7546771E-02  0.1301656E+00
         -1   -1    0    0    0  501 -0.00000000000E+00  0.00000000000E+00  0.83321517650E+03  0.83321517650E+03  0.00000000000E+00 0.  1.
          1   -1    0    0  501    0  0.00000000000E+00 -0.00000000000E+00 -0.24571878421E+01  0.24571878421E+01  0.00000000000E+00 0. -1.
         23    2    1    2    0    0  0.00000000000E+00  0.00000000000E+00  0.83075798866E+03  0.83567236434E+03  0.90495661809E+02 0.  0.
          2    1    3    3  502    0 -0.45212719654E+02  0.10223540828E+01  0.42885922988E+03  0.43123714390E+03  0.00000000000E+00 0. -1.
         -2    1    3    3    0  502  0.45212719654E+02 -0.10223540828E+01  0.40189875878E+03  0.40443522044E+03  0.00000000000E+00 0.  1.
<mgrwt>
<rscale>  0 0.90495662E+02</rscale>
<asrwt>0</asrwt>
<pdfrwt beam="2">  1        1 0.37802956E-03 0.90495662E+02</pdfrwt>
<pdfrwt beam="1">  1       -1 0.12818672E+00 0.90495662E+02</pdfrwt>
<totfact> 0.31991439E+04</totfact>
</mgrwt>
</event>
<event>
 5    1  0.3921687E+001  0.9350028E+02  0.7546771E-02  0.1294590E+00
          4   -1    0    0  501    0  0.00000000000E+00  0.00000000000E+00  0.12083453290E+03  0.12083453290E+03  0.00000000000E+00 0. -1.
         -4   -1    0    0    0  501 -0.00000000000E+00 -0.00000000000E+00 -0.18087340856E+02  0.18087340856E+02  0.00000000000E+00 0.  1.
         23    2    1    2    0    0  0.00000000000E+00  0.00000000000E+00  0.10274719204E+03  0.13892187375E+03  0.93500275588E+02 0.  0.
          2    1    3    3  502    0 -0.12440369279E+02  0.21628953327E+02  0.11011405907E+03  0.11290562615E+03  0.00000000000E+00 0. -1.
         -2    1    3    3    0  502  0.12440369279E+02 -0.21628953327E+02 -0.73668670305E+01  0.26016247609E+02  0.00000000000E+00 0.  1.
<mgrwt>
<rscale>  0 0.93500276E+02</rscale>
<asrwt>0</asrwt>
<pdfrwt beam="1">  1        4 0.18589928E-01 0.93500276E+02</pdfrwt>
<pdfrwt beam="2">  1       -4 0.27826679E-02 0.93500276E+02</pdfrwt>
<totfact> 0.22647208E+04</totfact>
</mgrwt>
</event>
<event>
 5    1  0.3921687E+001  0.9816770E+02  0.7546771E-02  0.1284197E+00
         -1   -1    0    0    0  501 -0.00000000000E+00  0.00000000000E+00  0.14057766158E+04  0.14057766158E+04  0.00000000000E+00 0.  1.
          1   -1    0    0  501    0  0.00000000000E+00 -0.00000000000E+00 -0.17138030052E+01  0.17138030052E+01  0.00000000000E+00 0. -1.
         23    2    1    2    0    0  0.00000000000E+00  0.00000000000E+00  0.14040628128E+04  0.14074904188E+04  0.98167697107E+02 0.  0.
          2    1    3    3  502    0  0.25478454498E+02  0.34513804405E+02  0.10439977011E+04  0.10448787271E+04  0.00000000000E+00 0. -1.
         -2    1    3    3    0  502 -0.25478454498E+02 -0.34513804405E+02  0.36006511164E+03  0.36261169170E+03  0.00000000000E+00 0.  1.
<mgrwt>
<rscale>  0 0.98167697E+02</rscale>
<asrwt>0</asrwt>
<pdfrwt beam="2">  1        1 0.26366312E-03 0.98167697E+02</pdfrwt>
<pdfrwt beam="1">  1       -1 0.21627240E+00 0.98167697E+02</pdfrwt>
<totfact> 0.12791696E+04</totfact>
</mgrwt>
</event>
<event>
 5    1  0.3921687E+001  0.9241341E+02  0.7546771E-02  0.1297110E+00
         -3   -1    0    0    0  501 -0.00000000000E+00  0.00000000000E+00  0.12850040610E+02  0.12850040610E+02  0.00000000000E+00 0.  1.
          3   -1    0    0  501    0  0.00000000000E+00 -0.00000000000E+00 -0.16615196690E+03  0.16615196690E+03  0.00000000000E+00 0. -1.
         23    2    1    2    0    0  0.00000000000E+00  0.00000000000E+00 -0.15330192629E+03  0.17900200751E+03  0.92413408595E+02 0.  0.
          2    1    3    3  502    0 -0.20948993085E+02  0.13348298957E+02 -0.15211881066E+03  0.15413361072E+03  0.00000000000E+00 0. -1.
         -2    1    3    3    0  502  0.20948993085E+02 -0.13348298957E+02 -0.11831156280E+01  0.24868396790E+02  0.00000000000E+00 0.  1.
<mgrwt>
<rscale>  0 0.92413409E+02</rscale>
<asrwt>0</asrwt>
<pdfrwt beam="2">  1        3 0.25561840E-01 0.92413409E+02</pdfrwt>
<pdfrwt beam="1">  1       -3 0.19769294E-02 0.92413409E+02</pdfrwt>
<totfact> 0.28560157E+04</totfact>
</mgrwt>
</event>
<event>
 5    1  0.3921687E+001  0.9157353E+02  0.7546771E-02  0.1299085E+00
         -1   -1    0    0    0  501 -0.00000000000E+00  0.00000000000E+00  0.19471530050E+03  0.19471530050E+03  0.00000000000E+00 0.  1.
          1   -1    0    0  501    0  0.00000000000E+00 -0.00000000000E+00 -0.10766631617E+02  0.10766631617E+02  0.00000000000E+00 0. -1.
         23    2    1    2    0    0  0.00000000000E+00  0.00000000000E+00  0.18394866889E+03  0.20548193212E+03  0.91573531342E+02 0.  0.
          2    1    3    3  502    0  0.32287222019E+02  0.23148287952E+01  0.19311958664E+02  0.37693167624E+02  0.00000000000E+00 0. -1.
         -2    1    3    3    0  502 -0.32287222019E+02 -0.23148287952E+01  0.16463671022E+03  0.16778876450E+03  0.00000000000E+00 0.  1.
<mgrwt>
<rscale>  0 0.91573531E+02</rscale>
<asrwt>0</asrwt>
<pdfrwt beam="2">  1        1 0.16564050E-02 0.91573531E+02</pdfrwt>
<pdfrwt beam="1">  1       -1 0.29956197E-01 0.91573531E+02</pdfrwt>
<totfact> 0.69165967E+04</totfact>
</mgrwt>
</event>
<event>
 5    1  0.3921687E+001  0.8967259E+02  0.7546771E-02  0.1303647E+00
          4   -1    0    0  501    0  0.00000000000E+00  0.00000000000E+00  0.21024582456E+03  0.21024582456E+03  0.00000000000E+00 0. -1.
         -4   -1    0    0    0  501 -0.00000000000E+00 -0.00000000000E+00 -0.95616324395E+01  0.95616324395E+01  0.00000000000E+00 0.  1.
         23    2    1    2    0    0  0.00000000000E+00  0.00000000000E+00  0.20068419212E+03  0.21980745700E+03  0.89672588818E+02 0.  0.
          2    1    3    3  502    0  0.15526846862E+02  0.34381595792E+02  0.15973639267E+03  0.16413071695E+03  0.00000000000E+00 0. -1.
         -2    1    3    3    0  502 -0.15526846862E+02 -0.34381595792E+02  0.40947799441E+02  0.55676740042E+02  0.00000000000E+00 0.  1.
<mgrwt>
<rscale>  0 0.89672589E+02</rscale>
<asrwt>0</asrwt>
<pdfrwt beam="1">  1        4 0.32345508E-01 0.89672589E+02</pdfrwt>
<pdfrwt beam="2">  1       -4 0.14710205E-02 0.89672589E+02</pdfrwt>
<totfact> 0.21519702E+04</totfact>
</mgrwt>
</event>
<event>
 5    1  0.3921687E+001  0.9083097E+02  0.7546771E-02  0.1300852E+00
         -1   -1    0    0    0  501 -0.00000000000E+00  0.00000000000E+00  0.11960266373E+02  0.11960266373E+02  0.00000000000E+00 0.  1.
          1   -1    0    0  501    0  0.00000000000E+00 -0.00000000000E+00 -0.17245155179E+03  0.17245155179E+03  0.00000000000E+00 0. -1.
         23    2    1    2    0    0  0.00000000000E+00  0.00000000000E+00 -0.16049128542E+03  0.18441181816E+03  0.90830974802E+02 0.  0.
          2    1    3    3  502    0 -0.27623523454E+02  0.22296326525E+02 -0.13775588088E+03  0.14225634587E+03  0.00000000000E+00 0. -1.
         -2    1    3    3    0  502  0.27623523454E+02 -0.22296326525E+02 -0.22735404537E+02  0.42155472290E+02  0.00000000000E+00 0.  1.
<mgrwt>
<rscale>  0 0.90830975E+02</rscale>
<asrwt>0</asrwt>
<pdfrwt beam="2">  1        1 0.26531006E-01 0.90830975E+02</pdfrwt>
<pdfrwt beam="1">  1       -1 0.18400411E-02 0.90830975E+02</pdfrwt>
<totfact> 0.11626771E+05</totfact>
</mgrwt>
</event>
<event>
 5    1  0.3921687E+001  0.9234994E+02  0.7546771E-02  0.1297259E+00
          2   -1    0    0  501    0  0.00000000000E+00  0.00000000000E+00  0.10572139591E+03  0.10572139591E+03  0.00000000000E+00 0. -1.
         -2   -1    0    0    0  501 -0.00000000000E+00 -0.00000000000E+00 -0.20167421535E+02  0.20167421535E+02  0.00000000000E+00 0.  1.
         23    2    1    2    0    0  0.00000000000E+00  0.00000000000E+00  0.85553974376E+02  0.12588881745E+03  0.92349942212E+02 0.  0.
          2    1    3    3  502    0 -0.62014077003E+01  0.37291523021E+02  0.78920648604E+02  0.87507622083E+02  0.00000000000E+00 0. -1.
         -2    1    3    3    0  502  0.62014077003E+01 -0.37291523021E+02  0.66333257724E+01  0.38381195363E+02  0.00000000000E+00 0.  1.
<mgrwt>
<rscale>  0 0.92349942E+02</rscale>
<asrwt>0</asrwt>
<pdfrwt beam="1">  1        2 0.16264830E-01 0.92349942E+02</pdfrwt>
<pdfrwt beam="2">  1       -2 0.31026803E-02 0.92349942E+02</pdfrwt>
<totfact> 0.12047471E+05</totfact>
</mgrwt>
</event>
<event>
 5    1  0.3921687E+001  0.9164275E+02  0.7546771E-02  0.1298922E+00
          2   -1    0    0  501    0  0.00000000000E+00  0.00000000000E+00  0.74066513044E+03  0.74066513044E+03  0.00000000000E+00 0. -1.
         -2   -1    0    0    0  501 -0.00000000000E+00 -0.00000000000E+00 -0.28347469999E+01  0.28347469999E+01  0.00000000000E+00 0.  1.
         23    2    1    2    0    0  0.00000000000E+00  0.00000000000E+00  0.73783038344E+03  0.74349987744E+03  0.91642746716E+02 0.  0.
          2    1    3    3  502    0  0.20277437105E+02  0.22125316942E+02  0.64982908874E+03  0.65052175112E+03  0.00000000000E+00 0. -1.
         -2    1    3    3    0  502 -0.20277437105E+02 -0.22125316942E+02  0.88001294695E+02  0.92978126316E+02  0.00000000000E+00 0.  1.
<mgrwt>
<rscale>  0 0.91642747E+02</rscale>
<asrwt>0</asrwt>
<pdfrwt beam="1">  1        2 0.11394833E+00 0.91642747E+02</pdfrwt>
<pdfrwt beam="2">  1       -2 0.43611551E-03 0.91642747E+02</pdfrwt>
<totfact> 0.23692586E+05</totfact>
</mgrwt>
</event>
<event>
 5    1  0.3921687E+001  0.9105287E+02  0.7546771E-02  0.1300322E+00
          1   -1    0    0  501    0  0.00000000000E+00  0.00000000000E+00  0.24913621564E+01  0.24913621564E+01  0.00000000000E+00 0. -1.
         -1   -1    0    0    0  501 -0.00000000000E+00 -0.00000000000E+00 -0.83193690534E+03  0.83193690534E+03  0.00000000000E+00 0.  1.
         23    2    1    2    0    0  0.00000000000E+00  0.00000000000E+00 -0.82944554319E+03  0.83442826750E+03  0.91052866456E+02 0.  0.
          2    1    3    3  502    0  0.11952397027E+02  0.18975472165E+02 -0.51638397973E+02  0.56297890581E+02  0.00000000000E+00 0. -1.
         -2    1    3    3    0  502 -0.11952397027E+02 -0.18975472165E+02 -0.77780714521E+03  0.77813037692E+03  0.00000000000E+00 0.  1.
<mgrwt>
<rscale>  0 0.91052866E+02</rscale>
<asrwt>0</asrwt>
<pdfrwt beam="1">  1        1 0.38328584E-03 0.91052866E+02</pdfrwt>
<pdfrwt beam="2">  1       -1 0.12799051E+00 0.91052866E+02</pdfrwt>
<totfact> 0.31528084E+04</totfact>
</mgrwt>
</event>
<event>
 5    1  0.3921687E+001  0.8997512E+02  0.7546771E-02  0.1302912E+00
         -4   -1    0    0    0  501 -0.00000000000E+00  0.00000000000E+00  0.11997505827E+03  0.11997505827E+03  0.00000000000E+00 0.  1.
          4   -1    0    0  501    0  0.00000000000E+00 -0.00000000000E+00 -0.16869176107E+02  0.16869176107E+02  0.00000000000E+00 0. -1.
         23    2    1    2    0    0  0.00000000000E+00  0.00000000000E+00  0.10310588217E+03  0.13684423438E+03  0.89975116259E+02 0.  0.
          2    1    3    3  502    0  0.15012591454E+02  0.17044494917E+02 -0.75083564637E+01  0.23922126284E+02  0.00000000000E+00 0. -1.
         -2    1    3    3    0  502 -0.15012591454E+02 -0.17044494917E+02  0.11061423863E+03  0.11292210810E+03  0.00000000000E+00 0.  1.
<mgrwt>
<rscale>  0 0.89975116E+02</rscale>
<asrwt>0</asrwt>
<pdfrwt beam="2">  1        4 0.25952579E-02 0.89975116E+02</pdfrwt>
<pdfrwt beam="1">  1       -4 0.18457701E-01 0.89975116E+02</pdfrwt>
<totfact> 0.25235302E+04</totfact>
</mgrwt>
</event>
<event>
 5    1  0.3921687E+001  0.9242175E+02  0.7546771E-02  0.1297091E+00
         -1   -1    0    0    0  501 -0.00000000000E+00  0.00000000000E+00  0.84977557909E+01  0.84977557909E+01  0.00000000000E+00 0.  1.
          1   -1    0    0  501    0  0.00000000000E+00 -0.00000000000E+00 -0.25129516427E+03  0.25129516427E+03  0.00000000000E+00 0. -1.
         23    2    1    2    0    0  0.00000000000E+00  0.00000000000E+00 -0.24279740848E+03  0.25979292006E+03  0.92421749332E+02 0.  0.
          2    1    3    3  502    0 -0.30199118803E+02 -0.52800016268E+00 -0.21970881875E+03  0.22177518030E+03  0.00000000000E+00 0. -1.
         -2    1    3    3    0  502  0.30199118803E+02  0.52800016268E+00 -0.23088589723E+02  0.38017739755E+02  0.00000000000E+00 0.  1.
<mgrwt>
<rscale>  0 0.92421749E+02</rscale>
<asrwt>0</asrwt>
<pdfrwt beam="2">  1        1 0.38660799E-01 0.92421749E+02</pdfrwt>
<pdfrwt beam="1">  1       -1 0.13073469E-02 0.92421749E+02</pdfrwt>
<totfact> 0.11938403E+05</totfact>
</mgrwt>
</event>
<event>
 5    1  0.3921687E+001  0.9129967E+02  0.7546771E-02  0.1299735E+00
          4   -1    0    0  501    0  0.00000000000E+00  0.00000000000E+00  0.15375744533E+02  0.15375744533E+02  0.00000000000E+00 0. -1.
         -4   -1    0    0    0  501 -0.00000000000E+00 -0.00000000000E+00 -0.13553211900E+03  0.13553211900E+03  0.00000000000E+00 0.  1.
         23    2    1    2    0    0  0.00000000000E+00  0.00000000000E+00 -0.12015637447E+03  0.15090786354E+03  0.91299665669E+02 0.  0.
          2    1    3    3  502    0  0.44314936981E+02 -0.10053604839E+02 -0.52869896830E+02  0.69714522165E+02  0.00000000000E+00 0. -1.
         -2    1    3    3    0  502 -0.44314936981E+02  0.10053604839E+02 -0.67286477641E+02  0.81193341372E+02  0.00000000000E+00 0.  1.
<mgrwt>
<rscale>  0 0.91299666E+02</rscale>
<asrwt>0</asrwt>
<pdfrwt beam="1">  1        4 0.23654991E-02 0.91299666E+02</pdfrwt>
<pdfrwt beam="2">  1       -4 0.20851096E-01 0.91299666E+02</pdfrwt>
<totfact> 0.23542042E+04</totfact>
</mgrwt>
</event>
<event>
 5    1  0.3921687E+001  0.9204819E+02  0.7546771E-02  0.1297966E+00
         -1   -1    0    0    0  501 -0.00000000000E+00  0.00000000000E+00  0.21289033019E+02  0.21289033019E+02  0.00000000000E+00 0.  1.
          1   -1    0    0  501    0  0.00000000000E+00 -0.00000000000E+00 -0.99498057663E+02  0.99498057663E+02  0.00000000000E+00 0. -1.
         23    2    1    2    0    0  0.00000000000E+00  0.00000000000E+00 -0.78209024644E+02  0.12078709068E+03  0.92048192485E+02 0.  0.
          2    1    3    3  502    0  0.39550916969E+02  0.58851106537E+01 -0.69007715384E+02  0.79755716679E+02  0.00000000000E+00 0. -1.
         -2    1    3    3    0  502 -0.39550916969E+02 -0.58851106537E+01 -0.92013092598E+01  0.41031374003E+02  0.00000000000E+00 0.  1.
<mgrwt>
<rscale>  0 0.92048192E+02</rscale>
<asrwt>0</asrwt>
<pdfrwt beam="2">  1        1 0.15307394E-01 0.92048192E+02</pdfrwt>
<pdfrwt beam="1">  1       -1 0.32752358E-02 0.92048192E+02</pdfrwt>
<totfact> 0.10168871E+05</totfact>
</mgrwt>
</event>
<event>
 5    1  0.3921687E+001  0.9402421E+02  0.7546771E-02  0.1293389E+00
          2   -1    0    0  501    0  0.00000000000E+00  0.00000000000E+00  0.19021127273E+03  0.19021127273E+03  0.00000000000E+00 0. -1.
         -2   -1    0    0    0  501 -0.00000000000E+00 -0.00000000000E+00 -0.11619385346E+02  0.11619385346E+02  0.00000000000E+00 0.  1.
         23    2    1    2    0    0  0.00000000000E+00  0.00000000000E+00  0.17859188738E+03  0.20183065807E+03  0.94024211242E+02 0.  0.
          2    1    3    3  502    0 -0.37528592821E+02  0.89103702315E+01  0.14698862243E+03  0.15196527597E+03  0.00000000000E+00 0. -1.
         -2    1    3    3    0  502  0.37528592821E+02 -0.89103702315E+01  0.31603264954E+02  0.49865382105E+02  0.00000000000E+00 0.  1.
<mgrwt>
<rscale>  0 0.94024211E+02</rscale>
<asrwt>0</asrwt>
<pdfrwt beam="1">  1        2 0.29263270E-01 0.94024211E+02</pdfrwt>
<pdfrwt beam="2">  1       -2 0.17875979E-02 0.94024211E+02</pdfrwt>
<totfact> 0.13979344E+05</totfact>
</mgrwt>
</event>
<event>
 5    1  0.3921687E+001  0.9323952E+02  0.7546771E-02  0.1295191E+00
          1   -1    0    0  501    0  0.00000000000E+00  0.00000000000E+00  0.21453031892E+02  0.21453031892E+02  0.00000000000E+00 0. -1.
         -1   -1    0    0    0  501 -0.00000000000E+00 -0.00000000000E+00 -0.10130978926E+03  0.10130978926E+03  0.00000000000E+00 0.  1.
         23    2    1    2    0    0  0.00000000000E+00  0.00000000000E+00 -0.79856757364E+02  0.12276282115E+03  0.93239522518E+02 0.  0.
          2    1    3    3  502    0 -0.15469712151E+02  0.41933819961E+02 -0.22478814756E+02  0.50030534311E+02  0.00000000000E+00 0. -1.
         -2    1    3    3    0  502  0.15469712151E+02 -0.41933819961E+02 -0.57377942608E+02  0.72732286837E+02  0.00000000000E+00 0.  1.
<mgrwt>
<rscale>  0 0.93239523E+02</rscale>
<asrwt>0</asrwt>
<pdfrwt beam="1">  1        1 0.33004663E-02 0.93239523E+02</pdfrwt>
<pdfrwt beam="2">  1       -1 0.15586122E-01 0.93239523E+02</pdfrwt>
<totfact> 0.76621966E+04</totfact>
</mgrwt>
</event>
<event>
 5    1  0.3921687E+001  0.9074790E+02  0.7546771E-02  0.1301051E+00
          2   -1    0    0  501    0  0.00000000000E+00  0.00000000000E+00  0.82316722656E+03  0.82316722656E+03  0.00000000000E+00 0. -1.
         -2   -1    0    0    0  501 -0.00000000000E+00 -0.00000000000E+00 -0.25010654608E+01  0.25010654608E+01  0.00000000000E+00 0.  1.
         23    2    1    2    0    0  0.00000000000E+00  0.00000000000E+00  0.82066616110E+03  0.82566829202E+03  0.90747895156E+02 0.  0.
          2    1    3    3  502    0 -0.29118721567E+02 -0.65221556472E+01  0.72133048553E+03  0.72194744117E+03  0.00000000000E+00 0. -1.
         -2    1    3    3    0  502  0.29118721567E+02  0.65221556472E+01  0.99335675567E+02  0.10372085085E+03  0.00000000000E+00 0.  1.
<mgrwt>
<rscale>  0 0.90747895E+02</rscale>
<asrwt>0</asrwt>
<pdfrwt beam="1">  1        2 0.12664090E+00 0.90747895E+02</pdfrwt>
<pdfrwt beam="2">  1       -2 0.38477996E-03 0.90747895E+02</pdfrwt>
<totfact> 0.24797691E+05</totfact>
</mgrwt>
</event>
<event>
 5    1  0.3921687E+001  0.7150971E+02  0.7546771E-02  0.1355033E+00
          2   -1    0    0  501    0  0.00000000000E+00  0.00000000000E+00  0.21065472429E+04  0.21065472429E+04  0.00000000000E+00 0. -1.
         -2   -1    0    0    0  501 -0.00000000000E+00 -0.00000000000E+00 -0.60687444562E+00  0.60687444562E+00  0.00000000000E+00 0.  1.
         23    2    1    2    0    0  0.00000000000E+00  0.00000000000E+00  0.21059403685E+04  0.21071541174E+04  0.71509710956E+02 0.  0.
          2    1    3    3  502    0  0.32800152681E+02  0.13443034230E+02  0.91524848181E+03  0.91593468579E+03  0.00000000000E+00 0. -1.
         -2    1    3    3    0  502 -0.32800152681E+02 -0.13443034230E+02  0.11906918867E+04  0.11912194316E+04  0.00000000000E+00 0.  1.
<mgrwt>
<rscale>  0 0.71509711E+02</rscale>
<asrwt>0</asrwt>
<pdfrwt beam="1">  1        2 0.32407834E+00 0.71509711E+02</pdfrwt>
<pdfrwt beam="2">  1       -2 0.93366986E-04 0.71509711E+02</pdfrwt>
<totfact> 0.35275695E+05</totfact>
</mgrwt>
</event>
<event>
 5    1  0.3921687E+001  0.8826382E+02  0.7546771E-02  0.1307111E+00
         -1   -1    0    0    0  501 -0.00000000000E+00  0.00000000000E+00  0.11458697494E+02  0.11458697494E+02  0.00000000000E+00 0.  1.
          1   -1    0    0  501    0  0.00000000000E+00 -0.00000000000E+00 -0.16996917916E+03  0.16996917916E+03  0.00000000000E+00 0. -1.
         23    2    1    2    0    0  0.00000000000E+00  0.00000000000E+00 -0.15851048167E+03  0.18142787665E+03  0.88263818346E+02 0.  0.
          2    1    3    3  502    0 -0.42218866576E+02  0.42369674955E+01 -0.54313002874E+02  0.68922324900E+02  0.00000000000E+00 0. -1.
         -2    1    3    3    0  502  0.42218866576E+02 -0.42369674955E+01 -0.10419747879E+03  0.11250555175E+03  0.00000000000E+00 0.  1.
<mgrwt>
<rscale>  0 0.88263818E+02</rscale>
<asrwt>0</asrwt>
<pdfrwt beam="2">  1        1 0.26149104E-01 0.88263818E+02</pdfrwt>
<pdfrwt beam="1">  1       -1 0.17628766E-02 0.88263818E+02</pdfrwt>
<totfact> 0.12522043E+05</totfact>
</mgrwt>
</event>
<event>
 5    1  0.3921687E+001  0.9178944E+02  0.7546771E-02  0.1298575E+00
         -2   -1    0    0    0  501 -0.00000000000E+00  0.00000000000E+00  0.30420745878E+02  0.30420745878E+02  0.00000000000E+00 0.  1.
          2   -1    0    0  501    0  0.00000000000E+00 -0.00000000000E+00 -0.69239767805E+02  0.69239767805E+02  0.00000000000E+00 0. -1.
         23    2    1    2    0    0  0.00000000000E+00  0.00000000000E+00 -0.38819021927E+02  0.99660513683E+02  0.91789441245E+02 0.  0.
          2    1    3    3  502    0 -0.92770179836E+01 -0.40131607604E+02 -0.41386695946E+02  0.58390646450E+02  0.00000000000E+00 0. -1.
         -2    1    3    3    0  502  0.92770179836E+01  0.40131607604E+02  0.25676740189E+01  0.41269867233E+02  0.00000000000E+00 0.  1.
<mgrwt>
<rscale>  0 0.91789441E+02</rscale>
<asrwt>0</asrwt>
<pdfrwt beam="2">  1        2 0.10652272E-01 0.91789441E+02</pdfrwt>
<pdfrwt beam="1">  1       -2 0.46801148E-02 0.91789441E+02</pdfrwt>
<totfact> 0.10823467E+05</totfact>
</mgrwt>
</event>
<event>
 5    1  0.3921687E+001  0.9820157E+02  0.7546771E-02  0.1284124E+00
          2   -1    0    0  501    0  0.00000000000E+00  0.00000000000E+00  0.29392581878E+03  0.29392581878E+03  0.00000000000E+00 0.  1.
         -2   -1    0    0    0  501 -0.00000000000E+00 -0.00000000000E+00 -0.82023653171E+01  0.82023653171E+01  0.00000000000E+00 0. -1.
         23    2    1    2    0    0  0.00000000000E+00  0.00000000000E+00  0.28572345346E+03  0.30212818410E+03  0.98201567029E+02 0.  0.
          2    1    3    3  502    0  0.12842132382E+01 -0.27957278743E+02  0.18739248223E+02  0.33681123234E+02  0.00000000000E+00 0. -1.
         -2    1    3    3    0  502 -0.12842132382E+01  0.27957278743E+02  0.26698420524E+03  0.26844706086E+03  0.00000000000E+00 0.  1.
<mgrwt>
<rscale>  0 0.98201567E+02</rscale>
<asrwt>0</asrwt>
<pdfrwt beam="1">  1        2 0.45219349E-01 0.98201567E+02</pdfrwt>
<pdfrwt beam="2">  1       -2 0.12619026E-02 0.98201567E+02</pdfrwt>
<totfact> 0.14611797E+05</totfact>
</mgrwt>
</event>
<event>
 5    1  0.3921687E+001  0.9090495E+02  0.7546771E-02  0.1300675E+00
          2   -1    0    0  501    0  0.00000000000E+00  0.00000000000E+00  0.12795146493E+04  0.12795146493E+04  0.00000000000E+00 0. -1.
         -2   -1    0    0    0  501 -0.00000000000E+00 -0.00000000000E+00 -0.16146182201E+01  0.16146182201E+01  0.00000000000E+00 0.  1.
         23    2    1    2    0    0  0.00000000000E+00  0.00000000000E+00  0.12779000310E+04  0.12811292675E+04  0.90904954003E+02 0.  0.
          2    1    3    3  502    0 -0.32526580820E+02 -0.24021610755E+02  0.93149954542E+03  0.93237675827E+03  0.00000000000E+00 0. -1.
         -2    1    3    3    0  502  0.32526580820E+02  0.24021610755E+02  0.34640048562E+03  0.34875250921E+03  0.00000000000E+00 0.  1.
<mgrwt>
<rscale>  0 0.90904954E+02</rscale>
<asrwt>0</asrwt>
<pdfrwt beam="1">  1        2 0.19684760E+00 0.90904954E+02</pdfrwt>
<pdfrwt beam="2">  1       -2 0.24840383E-03 0.90904954E+02</pdfrwt>
<totfact> 0.24836372E+05</totfact>
</mgrwt>
</event>
<event>
 5    1  0.3921687E+001  0.8945482E+02  0.7546771E-02  0.1304177E+00
         -2   -1    0    0    0  501 -0.00000000000E+00  0.00000000000E+00  0.87191155962E+01  0.87191155962E+01  0.00000000000E+00 0.  1.
          2   -1    0    0  501    0  0.00000000000E+00 -0.00000000000E+00 -0.22944314790E+03  0.22944314790E+03  0.00000000000E+00 0. -1.
         23    2    1    2    0    0  0.00000000000E+00  0.00000000000E+00 -0.22072403231E+03  0.23816226350E+03  0.89454822772E+02 0.  0.
          2    1    3    3  502    0 -0.28559672330E+02  0.29304869974E+02 -0.15844063036E+03  0.16363943179E+03  0.00000000000E+00 0. -1.
         -2    1    3    3    0  502  0.28559672330E+02 -0.29304869974E+02 -0.62283401945E+02  0.74522831707E+02  0.00000000000E+00 0.  1.
<mgrwt>
<rscale>  0 0.89454823E+02</rscale>
<asrwt>0</asrwt>
<pdfrwt beam="2">  1        2 0.35298945E-01 0.89454823E+02</pdfrwt>
<pdfrwt beam="1">  1       -2 0.13414024E-02 0.89454823E+02</pdfrwt>
<totfact> 0.17115132E+05</totfact>
</mgrwt>
</event>
<event>
 5    1  0.3921687E+001  0.9150477E+02  0.7546771E-02  0.1299248E+00
         -1   -1    0    0    0  501 -0.00000000000E+00  0.00000000000E+00  0.34940640782E+01  0.34940640782E+01  0.00000000000E+00 0.  1.
          1   -1    0    0  501    0  0.00000000000E+00 -0.00000000000E+00 -0.59909632534E+03  0.59909632534E+03  0.00000000000E+00 0. -1.
         23    2    1    2    0    0  0.00000000000E+00  0.00000000000E+00 -0.59560226126E+03  0.60259038942E+03  0.91504774733E+02 0.  0.
          2    1    3    3  502    0 -0.29526111573E+02 -0.28031387683E+02 -0.43526471660E+03  0.43716464115E+03  0.00000000000E+00 0. -1.
         -2    1    3    3    0  502  0.29526111573E+02  0.28031387683E+02 -0.16033754467E+03  0.16542574827E+03  0.00000000000E+00 0.  1.
<mgrwt>
<rscale>  0 0.91504775E+02</rscale>
<asrwt>0</asrwt>
<pdfrwt beam="2">  1        1 0.92168646E-01 0.91504775E+02</pdfrwt>
<pdfrwt beam="1">  1       -1 0.53754844E-03 0.91504775E+02</pdfrwt>
<totfact> 0.14023492E+05</totfact>
</mgrwt>
</event>
<event>
 5    1  0.3921687E+001  0.8394217E+02  0.7546771E-02  0.1318222E+00
         -1   -1    0    0    0  501 -0.00000000000E+00  0.00000000000E+00  0.21093937865E+01  0.21093937865E+01  0.00000000000E+00 0.  1.
          1   -1    0    0  501    0  0.00000000000E+00 -0.00000000000E+00 -0.83510824317E+03  0.83510824317E+03  0.00000000000E+00 0. -1.
         23    2    1    2    0    0  0.00000000000E+00  0.00000000000E+00 -0.83299884939E+03  0.83721763696E+03  0.83942173886E+02 0.  0.
          2    1    3    3  502    0 -0.95154473003E+01  0.40033226181E+02 -0.33403086375E+03  0.33655582133E+03  0.00000000000E+00 0. -1.
         -2    1    3    3    0  502  0.95154473003E+01 -0.40033226181E+02 -0.49896798564E+03  0.50066181563E+03  0.00000000000E+00 0.  1.
<mgrwt>
<rscale>  0 0.83942174E+02</rscale>
<asrwt>0</asrwt>
<pdfrwt beam="2">  1        1 0.12847803E+00 0.83942174E+02</pdfrwt>
<pdfrwt beam="1">  1       -1 0.32452252E-03 0.83942174E+02</pdfrwt>
<totfact> 0.17489584E+05</totfact>
</mgrwt>
</event>
<event>
 5    1  0.3921687E+001  0.9145304E+02  0.7546771E-02  0.1299371E+00
          2   -1    0    0  501    0  0.00000000000E+00  0.00000000000E+00  0.18618758399E+04  0.18618758399E+04  0.00000000000E+00 0.  1.
         -2   -1    0    0    0  501 -0.00000000000E+00 -0.00000000000E+00 -0.11230151210E+01  0.11230151210E+01  0.00000000000E+00 0. -1.
         23    2    1    2    0    0  0.00000000000E+00  0.00000000000E+00  0.18607528247E+04  0.18629988550E+04  0.91453041973E+02 0.  0.
          2    1    3    3  502    0  0.22771945291E+02  0.31686395181E+02  0.44473799214E+03  0.44644649263E+03  0.00000000000E+00 0. -1.
         -2    1    3    3    0  502 -0.22771945291E+02 -0.31686395181E+02  0.14160148326E+04  0.14165523624E+04  0.00000000000E+00 0.  1.
<mgrwt>
<rscale>  0 0.91453042E+02</rscale>
<asrwt>0</asrwt>
<pdfrwt beam="1">  1        2 0.28643997E+00 0.91453042E+02</pdfrwt>
<pdfrwt beam="2">  1       -2 0.17277305E-03 0.91453042E+02</pdfrwt>
<totfact> 0.20744821E+05</totfact>
</mgrwt>
</event>
<event>
 5    1  0.3921687E+001  0.9089223E+02  0.7546771E-02  0.1300705E+00
          3   -1    0    0  501    0  0.00000000000E+00  0.00000000000E+00  0.14668075281E+03  0.14668075281E+03  0.00000000000E+00 0. -1.
         -3   -1    0    0    0  501 -0.00000000000E+00 -0.00000000000E+00 -0.14080576083E+02  0.14080576083E+02  0.00000000000E+00 0.  1.
         23    2    1    2    0    0  0.00000000000E+00  0.00000000000E+00  0.13260017672E+03  0.16076132889E+03  0.90892232888E+02 0.  0.
          2    1    3    3  502    0  0.20247765272E+02 -0.33441902201E+02  0.10728733093E+03  0.11418802126E+03  0.00000000000E+00 0. -1.
         -2    1    3    3    0  502 -0.20247765272E+02  0.33441902201E+02  0.25312845794E+02  0.46573307629E+02  0.00000000000E+00 0.  1.
<mgrwt>
<rscale>  0 0.90892233E+02</rscale>
<asrwt>0</asrwt>
<pdfrwt beam="1">  1        3 0.22566269E-01 0.90892233E+02</pdfrwt>
<pdfrwt beam="2">  1       -3 0.21662426E-02 0.90892233E+02</pdfrwt>
<totfact> 0.30921824E+04</totfact>
</mgrwt>
</event>
<event>
 5    1  0.3921687E+001  0.9644838E+02  0.7546771E-02  0.1287947E+00
         -2   -1    0    0    0  501 -0.00000000000E+00  0.00000000000E+00  0.78320011056E+00  0.78320011056E+00  0.00000000000E+00 0.  1.
          2   -1    0    0  501    0  0.00000000000E+00 -0.00000000000E+00 -0.29693210684E+04  0.29693210684E+04  0.00000000000E+00 0. -1.
         23    2    1    2    0    0  0.00000000000E+00  0.00000000000E+00 -0.29685378683E+04  0.29701042685E+04  0.96448381823E+02 0.  0.
          2    1    3    3  502    0  0.20633360247E+02 -0.38600214710E+02 -0.21077090745E+04  0.21081634792E+04  0.00000000000E+00 0. -1.
         -2    1    3    3    0  502 -0.20633360247E+02  0.38600214710E+02 -0.86082879375E+03  0.86194078931E+03  0.00000000000E+00 0.  1.
<mgrwt>
<rscale>  0 0.96448382E+02</rscale>
<asrwt>0</asrwt>
<pdfrwt beam="2">  1        2 0.45681851E+00 0.96448382E+02</pdfrwt>
<pdfrwt beam="1">  1       -2 0.12049236E-03 0.96448382E+02</pdfrwt>
<totfact> 0.90004144E+04</totfact>
</mgrwt>
</event>
<event>
 5    1  0.3921687E+001  0.7227675E+02  0.7546771E-02  0.1352518E+00
          2   -1    0    0  501    0  0.00000000000E+00  0.00000000000E+00  0.14840329473E+04  0.14840329473E+04  0.00000000000E+00 0. -1.
         -2   -1    0    0    0  501 -0.00000000000E+00 -0.00000000000E+00 -0.88002240062E+00  0.88002240062E+00  0.00000000000E+00 0.  1.
         23    2    1    2    0    0  0.00000000000E+00  0.00000000000E+00  0.14831529249E+04  0.14849129697E+04  0.72276752469E+02 0.  0.
          2    1    3    3  502    0  0.34583217580E+02 -0.79514004435E+00  0.95641582276E+03  0.95704119933E+03  0.00000000000E+00 0. -1.
         -2    1    3    3    0  502 -0.34583217580E+02  0.79514004435E+00  0.52673710211E+03  0.52787177034E+03  0.00000000000E+00 0.  1.
<mgrwt>
<rscale>  0 0.72276752E+02</rscale>
<asrwt>0</asrwt>
<pdfrwt beam="1">  1        2 0.22831076E+00 0.72276752E+02</pdfrwt>
<pdfrwt beam="2">  1       -2 0.13538925E-03 0.72276752E+02</pdfrwt>
<totfact> 0.43386017E+05</totfact>
</mgrwt>
</event>
<event>
 5    1  0.3921687E+001  0.9169751E+02  0.7546771E-02  0.1298792E+00
          1   -1    0    0  501    0  0.00000000000E+00  0.00000000000E+00  0.10534450039E+04  0.10534450039E+04  0.00000000000E+00 0. -1.
         -1   -1    0    0    0  501 -0.00000000000E+00 -0.00000000000E+00 -0.19954610177E+01  0.19954610177E+01  0.00000000000E+00 0.  1.
         23    2    1    2    0    0  0.00000000000E+00  0.00000000000E+00  0.10514495429E+04  0.10554404649E+04  0.91697512279E+02 0.  0.
          2    1    3    3  502    0 -0.31033450909E+02  0.15070905080E+02  0.17814853447E+03  0.18145828058E+03  0.00000000000E+00 0.  1.
         -2    1    3    3    0  502  0.31033450909E+02 -0.15070905080E+02  0.87330100841E+03  0.87398218434E+03  0.00000000000E+00 0. -1.
<mgrwt>
<rscale>  0 0.91697512E+02</rscale>
<asrwt>0</asrwt>
<pdfrwt beam="1">  1        1 0.16206802E+00 0.91697512E+02</pdfrwt>
<pdfrwt beam="2">  1       -1 0.30699484E-03 0.91697512E+02</pdfrwt>
<totfact> 0.13196303E+05</totfact>
</mgrwt>
</event>
<event>
 5    1  0.3921687E+001  0.9485627E+02  0.7546771E-02  0.1291500E+00
         -2   -1    0    0    0  501 -0.00000000000E+00  0.00000000000E+00  0.47034937923E+02  0.47034937923E+02  0.00000000000E+00 0.  1.
          2   -1    0    0  501    0  0.00000000000E+00 -0.00000000000E+00 -0.47824622206E+02  0.47824622206E+02  0.00000000000E+00 0. -1.
         23    2    1    2    0    0  0.00000000000E+00  0.00000000000E+00 -0.78968428257E+00  0.94859560129E+02  0.94856273101E+02 0.  0.
          2    1    3    3  502    0 -0.11462083850E+02  0.40835980927E+02 -0.21619889912E+02  0.47606473764E+02  0.00000000000E+00 0. -1.
         -2    1    3    3    0  502  0.11462083850E+02 -0.40835980927E+02  0.20830205629E+02  0.47253086365E+02  0.00000000000E+00 0.  1.
<mgrwt>
<rscale>  0 0.94856273E+02</rscale>
<asrwt>0</asrwt>
<pdfrwt beam="2">  1        2 0.73576342E-02 0.94856273E+02</pdfrwt>
<pdfrwt beam="1">  1       -2 0.72361443E-02 0.94856273E+02</pdfrwt>
<totfact> 0.89171173E+04</totfact>
</mgrwt>
</event>
<event>
 5    1  0.3921687E+001  0.9063601E+02  0.7546771E-02  0.1301319E+00
          2   -1    0    0  501    0  0.00000000000E+00  0.00000000000E+00  0.21098687583E+02  0.21098687583E+02  0.00000000000E+00 0. -1.
         -2   -1    0    0    0  501 -0.00000000000E+00 -0.00000000000E+00 -0.97338841271E+02  0.97338841271E+02  0.00000000000E+00 0.  1.
         23    2    1    2    0    0  0.00000000000E+00  0.00000000000E+00 -0.76240153688E+02  0.11843752885E+03  0.90636014953E+02 0.  0.
          2    1    3    3  502    0  0.44059900919E+02 -0.29307785579E+00 -0.51971564088E+02  0.68135190888E+02  0.00000000000E+00 0. -1.
         -2    1    3    3    0  502 -0.44059900919E+02  0.29307785579E+00 -0.24268589600E+02  0.50302337966E+02  0.00000000000E+00 0.  1.
<mgrwt>
<rscale>  0 0.90636015E+02</rscale>
<asrwt>0</asrwt>
<pdfrwt beam="1">  1        2 0.32459519E-02 0.90636015E+02</pdfrwt>
<pdfrwt beam="2">  1       -2 0.14975207E-01 0.90636015E+02</pdfrwt>
<totfact> 0.81645285E+04</totfact>
</mgrwt>
</event>
<event>
 5    1  0.3921687E+001  0.9936131E+02  0.7546771E-02  0.1281645E+00
         -1   -1    0    0    0  501 -0.00000000000E+00  0.00000000000E+00  0.17147322191E+03  0.17147322191E+03  0.00000000000E+00 0.  1.
          1   -1    0    0  501    0  0.00000000000E+00 -0.00000000000E+00 -0.14393893397E+02  0.14393893397E+02  0.00000000000E+00 0. -1.
         23    2    1    2    0    0  0.00000000000E+00  0.00000000000E+00  0.15707932851E+03  0.18586711531E+03  0.99361305882E+02 0.  0.
          2    1    3    3  502    0 -0.32330519059E+01  0.42046057673E+02  0.29408097357E+02  0.51411669693E+02  0.00000000000E+00 0. -1.
         -2    1    3    3    0  502  0.32330519059E+01 -0.42046057673E+02  0.12767123116E+03  0.13445544561E+03  0.00000000000E+00 0.  1.
<mgrwt>
<rscale>  0 0.99361306E+02</rscale>
<asrwt>0</asrwt>
<pdfrwt beam="2">  1        1 0.22144453E-02 0.99361306E+02</pdfrwt>
<pdfrwt beam="1">  1       -1 0.26380494E-01 0.99361306E+02</pdfrwt>
<totfact> 0.57843370E+04</totfact>
</mgrwt>
</event>
<event>
 5    1  0.3921687E+001  0.8955244E+02  0.7546771E-02  0.1303939E+00
         -2   -1    0    0    0  501 -0.00000000000E+00  0.00000000000E+00  0.35934753716E+02  0.35934753716E+02  0.00000000000E+00 0.  1.
          2   -1    0    0  501    0  0.00000000000E+00 -0.00000000000E+00 -0.55793064460E+02  0.55793064460E+02  0.00000000000E+00 0. -1.
         23    2    1    2    0    0  0.00000000000E+00  0.00000000000E+00 -0.19858310744E+02  0.91727818176E+02  0.89552443416E+02 0.  0.
          2    1    3    3  502    0 -0.35499627929E+02  0.19778123454E+02 -0.29187806940E+02  0.50033247190E+02  0.00000000000E+00 0. -1.
         -2    1    3    3    0  502  0.35499627929E+02 -0.19778123454E+02  0.93294961953E+01  0.41694570986E+02  0.00000000000E+00 0.  1.
<mgrwt>
<rscale>  0 0.89552443E+02</rscale>
<asrwt>0</asrwt>
<pdfrwt beam="2">  1        2 0.85835484E-02 0.89552443E+02</pdfrwt>
<pdfrwt beam="1">  1       -2 0.55284236E-02 0.89552443E+02</pdfrwt>
<totfact> 0.10945457E+05</totfact>
</mgrwt>
</event>
<event>
 5    1  0.3921687E+001  0.8572477E+02  0.7546771E-02  0.1313548E+00
         -2   -1    0    0    0  501 -0.00000000000E+00  0.00000000000E+00  0.36498814217E+02  0.36498814217E+02  0.00000000000E+00 0.  1.
          2   -1    0    0  501    0  0.00000000000E+00 -0.00000000000E+00 -0.50335442967E+02  0.50335442967E+02  0.00000000000E+00 0. -1.
         23    2    1    2    0    0  0.00000000000E+00  0.00000000000E+00 -0.13836628750E+02  0.86834257184E+02  0.85724768449E+02 0.  0.
          2    1    3    3  502    0 -0.14425768927E+02  0.16673855399E+02 -0.44150856416E+02  0.49349958311E+02  0.00000000000E+00 0. -1.
         -2    1    3    3    0  502  0.14425768927E+02 -0.16673855399E+02  0.30314227666E+02  0.37484298873E+02  0.00000000000E+00 0.  1.
<mgrwt>
<rscale>  0 0.85724768E+02</rscale>
<asrwt>0</asrwt>
<pdfrwt beam="2">  1        2 0.77439143E-02 0.85724768E+02</pdfrwt>
<pdfrwt beam="1">  1       -2 0.56152022E-02 0.85724768E+02</pdfrwt>
<totfact> 0.12056908E+05</totfact>
</mgrwt>
</event>
<event>
 5    1  0.3921687E+001  0.8403576E+02  0.7546771E-02  0.1317974E+00
         -1   -1    0    0    0  501 -0.00000000000E+00  0.00000000000E+00  0.22736199802E+01  0.22736199802E+01  0.00000000000E+00 0.  1.
          1   -1    0    0  501    0  0.00000000000E+00 -0.00000000000E+00 -0.77651595472E+03  0.77651595472E+03  0.00000000000E+00 0. -1.
         23    2    1    2    0    0  0.00000000000E+00  0.00000000000E+00 -0.77424233474E+03  0.77878957470E+03  0.84035758807E+02 0.  0.
          2    1    3    3  502    0  0.15465103748E+02  0.31317008385E+02 -0.17065784241E+03  0.17419536052E+03  0.00000000000E+00 0.  1.
         -2    1    3    3    0  502 -0.15465103748E+02 -0.31317008385E+02 -0.60358449232E+03  0.60459421418E+03  0.00000000000E+00 0. -1.
<mgrwt>
<rscale>  0 0.84035759E+02</rscale>
<asrwt>0</asrwt>
<pdfrwt beam="2">  1        1 0.11946412E+00 0.84035759E+02</pdfrwt>
<pdfrwt beam="1">  1       -1 0.34978732E-03 0.84035759E+02</pdfrwt>
<totfact> 0.17555778E+05</totfact>
</mgrwt>
</event>
<event>
 5    1  0.3921687E+001  0.8675136E+02  0.7546771E-02  0.1310915E+00
          1   -1    0    0  501    0  0.00000000000E+00  0.00000000000E+00  0.71710119046E+03  0.71710119046E+03  0.00000000000E+00 0. -1.
         -1   -1    0    0    0  501 -0.00000000000E+00 -0.00000000000E+00 -0.26236878328E+01  0.26236878328E+01  0.00000000000E+00 0.  1.
         23    2    1    2    0    0  0.00000000000E+00  0.00000000000E+00  0.71447750262E+03  0.71972487829E+03  0.86751361218E+02 0.  0.
          2    1    3    3  502    0 -0.23500259073E+02 -0.18442536459E+02  0.96322211241E+02  0.10084819139E+03  0.00000000000E+00 0.  1.
         -2    1    3    3    0  502  0.23500259073E+02  0.18442536459E+02  0.61815529138E+03  0.61887668690E+03  0.00000000000E+00 0. -1.
<mgrwt>
<rscale>  0 0.86751361E+02</rscale>
<asrwt>0</asrwt>
<pdfrwt beam="1">  1        1 0.11032310E+00 0.86751361E+02</pdfrwt>
<pdfrwt beam="2">  1       -1 0.40364486E-03 0.86751361E+02</pdfrwt>
<totfact> 0.16205541E+05</totfact>
</mgrwt>
</event>
<event>
 5    1  0.3921687E+001  0.9212087E+02  0.7546771E-02  0.1297795E+00
          1   -1    0    0  501    0  0.00000000000E+00  0.00000000000E+00  0.76795892663E+03  0.76795892663E+03  0.00000000000E+00 0. -1.
         -1   -1    0    0    0  501 -0.00000000000E+00 -0.00000000000E+00 -0.27626004513E+01  0.27626004513E+01  0.00000000000E+00 0.  1.
         23    2    1    2    0    0  0.00000000000E+00  0.00000000000E+00  0.76519632617E+03  0.77072152708E+03  0.92120870105E+02 0.  0.
          2    1    3    3  502    0 -0.18063095278E+02  0.19192693706E+02  0.69863711001E+03  0.69913406896E+03  0.00000000000E+00 0. -1.
         -2    1    3    3    0  502  0.18063095278E+02 -0.19192693706E+02  0.66559216164E+02  0.71587458113E+02  0.00000000000E+00 0.  1.
<mgrwt>
<rscale>  0 0.92120870E+02</rscale>
<asrwt>0</asrwt>
<pdfrwt beam="1">  1        1 0.11814736E+00 0.92120870E+02</pdfrwt>
<pdfrwt beam="2">  1       -1 0.42501607E-03 0.92120870E+02</pdfrwt>
<totfact> 0.13791780E+05</totfact>
</mgrwt>
</event>
<event>
 5    1  0.3921687E+001  0.9188811E+02  0.7546771E-02  0.1298343E+00
          2   -1    0    0  501    0  0.00000000000E+00  0.00000000000E+00  0.33705172355E+04  0.33705172355E+04  0.00000000000E+00 0. -1.
         -2   -1    0    0    0  501 -0.00000000000E+00 -0.00000000000E+00 -0.62627069178E+00  0.62627069178E+00  0.00000000000E+00 0.  1.
         23    2    1    2    0    0  0.00000000000E+00  0.00000000000E+00  0.33698909648E+04  0.33711435062E+04  0.91888109367E+02 0.  0.
          2    1    3    3  502    0 -0.21975077978E+02  0.36704709119E+02  0.22996293937E+04  0.23000272799E+04  0.00000000000E+00 0. -1.
         -2    1    3    3    0  502  0.21975077978E+02 -0.36704709119E+02  0.10702615711E+04  0.10711162263E+04  0.00000000000E+00 0.  1.
<mgrwt>
<rscale>  0 0.91888109E+02</rscale>
<asrwt>0</asrwt>
<pdfrwt beam="1">  1        2 0.51852659E+00 0.91888109E+02</pdfrwt>
<pdfrwt beam="2">  1       -2 0.96352036E-04 0.91888109E+02</pdfrwt>
<totfact> 0.70688075E+04</totfact>
</mgrwt>
</event>
<event>
 5    1  0.3921687E+001  0.9053889E+02  0.7546771E-02  0.1301552E+00
          1   -1    0    0  501    0  0.00000000000E+00  0.00000000000E+00  0.90832181593E+02  0.90832181593E+02  0.00000000000E+00 0. -1.
         -1   -1    0    0    0  501 -0.00000000000E+00 -0.00000000000E+00 -0.22561635421E+02  0.22561635421E+02  0.00000000000E+00 0.  1.
         23    2    1    2    0    0  0.00000000000E+00  0.00000000000E+00  0.68270546171E+02  0.11339381701E+03  0.90538888122E+02 0.  0.
          2    1    3    3  502    0  0.25838632606E+02  0.18313906403E+02  0.74646923472E+02  0.81087590212E+02  0.00000000000E+00 0. -1.
         -2    1    3    3    0  502 -0.25838632606E+02 -0.18313906403E+02 -0.63763773001E+01  0.32306226801E+02  0.00000000000E+00 0.  1.
<mgrwt>
<rscale>  0 0.90538888E+02</rscale>
<asrwt>0</asrwt>
<pdfrwt beam="1">  1        1 0.13974182E-01 0.90538888E+02</pdfrwt>
<pdfrwt beam="2">  1       -1 0.34710209E-02 0.90538888E+02</pdfrwt>
<totfact> 0.10480447E+05</totfact>
</mgrwt>
</event>
<event>
 5    1  0.3921687E+001  0.9031464E+02  0.7546771E-02  0.1302092E+00
          1   -1    0    0  501    0  0.00000000000E+00  0.00000000000E+00  0.38265735350E+01  0.38265735350E+01  0.00000000000E+00 0. -1.
         -1   -1    0    0    0  501 -0.00000000000E+00 -0.00000000000E+00 -0.53290070554E+03  0.53290070554E+03  0.00000000000E+00 0.  1.
         23    2    1    2    0    0  0.00000000000E+00  0.00000000000E+00 -0.52907413201E+03  0.53672727908E+03  0.90314644141E+02 0.  0.
          2    1    3    3  502    0 -0.81436789878E+01 -0.27311935057E+02 -0.56373822021E+02  0.63168576945E+02  0.00000000000E+00 0. -1.
         -2    1    3    3    0  502  0.81436789878E+01  0.27311935057E+02 -0.47270030998E+03  0.47355870213E+03  0.00000000000E+00 0.  1.
<mgrwt>
<rscale>  0 0.90314644E+02</rscale>
<asrwt>0</asrwt>
<pdfrwt beam="1">  1        1 0.58870335E-03 0.90314644E+02</pdfrwt>
<pdfrwt beam="2">  1       -1 0.81984762E-01 0.90314644E+02</pdfrwt>
<totfact> 0.46315579E+04</totfact>
</mgrwt>
</event>
<event>
 5    1  0.3921687E+001  0.8919110E+02  0.7546771E-02  0.1304822E+00
          2   -1    0    0  501    0  0.00000000000E+00  0.00000000000E+00  0.13867096387E+02  0.13867096387E+02  0.00000000000E+00 0. -1.
         -2   -1    0    0    0  501 -0.00000000000E+00 -0.00000000000E+00 -0.14341598121E+03  0.14341598121E+03  0.00000000000E+00 0.  1.
         23    2    1    2    0    0  0.00000000000E+00  0.00000000000E+00 -0.12954888482E+03  0.15728307760E+03  0.89191103477E+02 0.  0.
          2    1    3    3  502    0 -0.27250208504E+02  0.48913857256E+01 -0.31230454991E+01  0.27861316032E+02  0.00000000000E+00 0. -1.
         -2    1    3    3    0  502  0.27250208504E+02 -0.48913857256E+01 -0.12642583932E+03  0.12942176156E+03  0.00000000000E+00 0.  1.
<mgrwt>
<rscale>  0 0.89191103E+02</rscale>
<asrwt>0</asrwt>
<pdfrwt beam="1">  1        2 0.21333996E-02 0.89191103E+02</pdfrwt>
<pdfrwt beam="2">  1       -2 0.22063996E-01 0.89191103E+02</pdfrwt>
<totfact> 0.75052641E+04</totfact>
</mgrwt>
</event>
<event>
 5    1  0.3921687E+001  0.9134055E+02  0.7546771E-02  0.1299637E+00
         -1   -1    0    0    0  501 -0.00000000000E+00  0.00000000000E+00  0.14220389285E+03  0.14220389285E+03  0.00000000000E+00 0.  1.
          1   -1    0    0  501    0  0.00000000000E+00 -0.00000000000E+00 -0.14667489475E+02  0.14667489475E+02  0.00000000000E+00 0. -1.
         23    2    1    2    0    0  0.00000000000E+00  0.00000000000E+00  0.12753640338E+03  0.15687138233E+03  0.91340551820E+02 0.  0.
          2    1    3    3  502    0  0.50355905266E+01 -0.34302921204E+02  0.12713112622E+02  0.36927913664E+02  0.00000000000E+00 0. -1.
         -2    1    3    3    0  502 -0.50355905266E+01  0.34302921204E+02  0.11482329075E+03  0.11994346866E+03  0.00000000000E+00 0.  1.
<mgrwt>
<rscale>  0 0.91340552E+02</rscale>
<asrwt>0</asrwt>
<pdfrwt beam="2">  1        1 0.22565369E-02 0.91340552E+02</pdfrwt>
<pdfrwt beam="1">  1       -1 0.21877521E-01 0.91340552E+02</pdfrwt>
<totfact> 0.75361405E+04</totfact>
</mgrwt>
</event>
<event>
 5    1  0.3921687E+001  0.9361886E+02  0.7546771E-02  0.1294317E+00
         -1   -1    0    0    0  501 -0.00000000000E+00  0.00000000000E+00  0.12726935523E+01  0.12726935523E+01  0.00000000000E+00 0.  1.
          1   -1    0    0  501    0  0.00000000000E+00 -0.00000000000E+00 -0.17216421138E+04  0.17216421138E+04  0.00000000000E+00 0. -1.
         23    2    1    2    0    0  0.00000000000E+00  0.00000000000E+00 -0.17203694202E+04  0.17229148073E+04  0.93618861724E+02 0.  0.
          2    1    3    3  502    0 -0.26026166024E+01  0.33352107295E+02 -0.14627374047E+04  0.14631199034E+04  0.00000000000E+00 0. -1.
         -2    1    3    3    0  502  0.26026166024E+01 -0.33352107295E+02 -0.25763201554E+03  0.25979490393E+03  0.00000000000E+00 0.  1.
<mgrwt>
<rscale>  0 0.93618862E+02</rscale>
<asrwt>0</asrwt>
<pdfrwt beam="2">  1        1 0.26486846E+00 0.93618862E+02</pdfrwt>
<pdfrwt beam="1">  1       -1 0.19579868E-03 0.93618862E+02</pdfrwt>
<totfact> 0.90292394E+04</totfact>
</mgrwt>
</event>
<event>
 5    1  0.3921687E+001  0.9334008E+02  0.7546771E-02  0.1294959E+00
         -2   -1    0    0    0  501 -0.00000000000E+00  0.00000000000E+00  0.47473582431E+03  0.47473582431E+03  0.00000000000E+00 0.  1.
          2   -1    0    0  501    0  0.00000000000E+00 -0.00000000000E+00 -0.45880096285E+01  0.45880096285E+01  0.00000000000E+00 0. -1.
         23    2    1    2    0    0  0.00000000000E+00  0.00000000000E+00  0.47014781468E+03  0.47932383394E+03  0.93340077843E+02 0.  0.
          2    1    3    3  502    0 -0.12937330691E+02  0.40350182589E+02  0.13463026902E+03  0.14114113892E+03  0.00000000000E+00 0. -1.
         -2    1    3    3    0  502  0.12937330691E+02 -0.40350182589E+02  0.33551754567E+03  0.33818269502E+03  0.00000000000E+00 0.  1.
<mgrwt>
<rscale>  0 0.93340078E+02</rscale>
<asrwt>0</asrwt>
<pdfrwt beam="2">  1        2 0.70584801E-03 0.93340078E+02</pdfrwt>
<pdfrwt beam="1">  1       -2 0.73036242E-01 0.93340078E+02</pdfrwt>
<totfact> 0.35546846E+04</totfact>
</mgrwt>
</event>
<event>
 5    1  0.3921687E+001  0.9456993E+02  0.7546771E-02  0.1292148E+00
         -1   -1    0    0    0  501 -0.00000000000E+00  0.00000000000E+00  0.50659427766E+01  0.50659427766E+01  0.00000000000E+00 0.  1.
          1   -1    0    0  501    0  0.00000000000E+00 -0.00000000000E+00 -0.44135278560E+03  0.44135278560E+03  0.00000000000E+00 0. -1.
         23    2    1    2    0    0  0.00000000000E+00  0.00000000000E+00 -0.43628684283E+03  0.44641872838E+03  0.94569930870E+02 0.  0.
          2    1    3    3  502    0 -0.80092527532E+01 -0.26827329067E+02 -0.39802006386E+03  0.39900354003E+03  0.00000000000E+00 0. -1.
         -2    1    3    3    0  502  0.80092527532E+01  0.26827329067E+02 -0.38266778963E+02  0.47415188355E+02  0.00000000000E+00 0.  1.
<mgrwt>
<rscale>  0 0.94569931E+02</rscale>
<asrwt>0</asrwt>
<pdfrwt beam="2">  1        1 0.67900401E-01 0.94569931E+02</pdfrwt>
<pdfrwt beam="1">  1       -1 0.77937612E-03 0.94569931E+02</pdfrwt>
<totfact> 0.12429187E+05</totfact>
</mgrwt>
</event>
<event>
 5    1  0.3921687E+001  0.7888326E+02  0.7546771E-02  0.1332251E+00
         -4   -1    0    0    0  501 -0.00000000000E+00  0.00000000000E+00  0.24732968978E+02  0.24732968978E+02  0.00000000000E+00 0.  1.
          4   -1    0    0  501    0  0.00000000000E+00 -0.00000000000E+00 -0.62897510150E+02  0.62897510150E+02  0.00000000000E+00 0. -1.
         23    2    1    2    0    0  0.00000000000E+00  0.00000000000E+00 -0.38164541172E+02  0.87630479128E+02  0.78883259753E+02 0.  0.
          2    1    3    3  502    0  0.30578501992E+02  0.23923935355E+02 -0.26798162616E+02  0.47175639758E+02  0.00000000000E+00 0. -1.
         -2    1    3    3    0  502 -0.30578501992E+02 -0.23923935355E+02 -0.11366378556E+02  0.40454839370E+02  0.00000000000E+00 0.  1.
<mgrwt>
<rscale>  0 0.78883260E+02</rscale>
<asrwt>0</asrwt>
<pdfrwt beam="2">  1        4 0.96765399E-02 0.78883260E+02</pdfrwt>
<pdfrwt beam="1">  1       -4 0.38050722E-02 0.78883260E+02</pdfrwt>
<totfact> 0.40201580E+04</totfact>
</mgrwt>
</event>
<event>
 5    1  0.3921687E+001  0.9048938E+02  0.7546771E-02  0.1301671E+00
         -1   -1    0    0    0  501 -0.00000000000E+00  0.00000000000E+00  0.11593785846E+02  0.11593785846E+02  0.00000000000E+00 0.  1.
          1   -1    0    0  501    0  0.00000000000E+00 -0.00000000000E+00 -0.17656718686E+03  0.17656718686E+03  0.00000000000E+00 0. -1.
         23    2    1    2    0    0  0.00000000000E+00  0.00000000000E+00 -0.16497340102E+03  0.18816097271E+03  0.90489383950E+02 0.  0.
          2    1    3    3  502    0 -0.23335690474E+02 -0.29182954941E+02 -0.13553644907E+03  0.14059277484E+03  0.00000000000E+00 0. -1.
         -2    1    3    3    0  502  0.23335690474E+02  0.29182954941E+02 -0.29436951942E+02  0.47568197870E+02  0.00000000000E+00 0.  1.
<mgrwt>
<rscale>  0 0.90489384E+02</rscale>
<asrwt>0</asrwt>
<pdfrwt beam="2">  1        1 0.27164181E-01 0.90489384E+02</pdfrwt>
<pdfrwt beam="1">  1       -1 0.17836595E-02 0.90489384E+02</pdfrwt>
<totfact> 0.11797419E+05</totfact>
</mgrwt>
</event>
<event>
 5    1  0.3921687E+001  0.9133715E+02  0.7546771E-02  0.1299646E+00
          2   -1    0    0  501    0  0.00000000000E+00  0.00000000000E+00  0.12483646686E+04  0.12483646686E+04  0.00000000000E+00 0. -1.
         -2   -1    0    0    0  501 -0.00000000000E+00 -0.00000000000E+00 -0.16706808634E+01  0.16706808634E+01  0.00000000000E+00 0.  1.
         23    2    1    2    0    0  0.00000000000E+00  0.00000000000E+00  0.12466939877E+04  0.12500353494E+04  0.91337154812E+02 0.  0.
          2    1    3    3  502    0  0.26530261977E+02 -0.21851507357E+02  0.10348995153E+04  0.10354701106E+04  0.00000000000E+00 0. -1.
         -2    1    3    3    0  502 -0.26530261977E+02  0.21851507357E+02  0.21179447240E+03  0.21456523883E+03  0.00000000000E+00 0.  1.
<mgrwt>
<rscale>  0 0.91337155E+02</rscale>
<asrwt>0</asrwt>
<pdfrwt beam="1">  1        2 0.19205536E+00 0.91337155E+02</pdfrwt>
<pdfrwt beam="2">  1       -2 0.25702882E-03 0.91337155E+02</pdfrwt>
<totfact> 0.24627006E+05</totfact>
</mgrwt>
</event>
<event>
 5    1  0.3921687E+001  0.9085276E+02  0.7546771E-02  0.1300800E+00
          3   -1    0    0  501    0  0.00000000000E+00  0.00000000000E+00  0.13880022502E+03  0.13880022502E+03  0.00000000000E+00 0. -1.
         -3   -1    0    0    0  501 -0.00000000000E+00 -0.00000000000E+00 -0.14867093156E+02  0.14867093156E+02  0.00000000000E+00 0.  1.
         23    2    1    2    0    0  0.00000000000E+00  0.00000000000E+00  0.12393313187E+03  0.15366731818E+03  0.90852757261E+02 0.  0.
          2    1    3    3  502    0 -0.12473986595E+02 -0.40961700297E+02  0.87623021200E+02  0.97525663684E+02  0.00000000000E+00 0. -1.
         -2    1    3    3    0  502  0.12473986595E+02  0.40961700297E+02  0.36310110667E+02  0.56141654495E+02  0.00000000000E+00 0.  1.
<mgrwt>
<rscale>  0 0.90852757E+02</rscale>
<asrwt>0</asrwt>
<pdfrwt beam="1">  1        3 0.21353880E-01 0.90852757E+02</pdfrwt>
<pdfrwt beam="2">  1       -3 0.22872452E-02 0.90852757E+02</pdfrwt>
<totfact> 0.31385129E+04</totfact>
</mgrwt>
</event>
<event>
 5    1  0.3921687E+001  0.9284071E+02  0.7546771E-02  0.1296115E+00
          1   -1    0    0  501    0  0.00000000000E+00  0.00000000000E+00  0.12440682403E+03  0.12440682403E+03  0.00000000000E+00 0. -1.
         -1   -1    0    0    0  501 -0.00000000000E+00 -0.00000000000E+00 -0.17320990152E+02  0.17320990152E+02  0.00000000000E+00 0.  1.
         23    2    1    2    0    0  0.00000000000E+00  0.00000000000E+00  0.10708583388E+03  0.14172781418E+03  0.92840710336E+02 0.  0.
          2    1    3    3  502    0  0.59423969385E+01 -0.37696588293E+02  0.93888987719E+02  0.10134834417E+03  0.00000000000E+00 0. -1.
         -2    1    3    3    0  502 -0.59423969385E+01  0.37696588293E+02  0.13196846160E+02  0.40379470017E+02  0.00000000000E+00 0.  1.
<mgrwt>
<rscale>  0 0.92840710E+02</rscale>
<asrwt>0</asrwt>
<pdfrwt beam="1">  1        1 0.19139511E-01 0.92840710E+02</pdfrwt>
<pdfrwt beam="2">  1       -1 0.26647678E-02 0.92840710E+02</pdfrwt>
<totfact> 0.10322564E+05</totfact>
</mgrwt>
</event>
<event>
 5    1  0.3921687E+001  0.8981518E+02  0.7546771E-02  0.1303300E+00
         -2   -1    0    0    0  501 -0.00000000000E+00  0.00000000000E+00  0.53568868849E+01  0.53568868849E+01  0.00000000000E+00 0.  1.
          2   -1    0    0  501    0  0.00000000000E+00 -0.00000000000E+00 -0.37646708648E+03  0.37646708648E+03  0.00000000000E+00 0. -1.
         23    2    1    2    0    0  0.00000000000E+00  0.00000000000E+00 -0.37111019959E+03  0.38182397336E+03  0.89815179076E+02 0.  0.
          2    1    3    3  502    0  0.11093435601E+02  0.42832303836E+02 -0.21821515053E+03  0.22265561409E+03  0.00000000000E+00 0.  1.
         -2    1    3    3    0  502 -0.11093435601E+02 -0.42832303836E+02 -0.15289504906E+03  0.15916835927E+03  0.00000000000E+00 0. -1.
<mgrwt>
<rscale>  0 0.89815179E+02</rscale>
<asrwt>0</asrwt>
<pdfrwt beam="2">  1        2 0.57918028E-01 0.89815179E+02</pdfrwt>
<pdfrwt beam="1">  1       -2 0.82413624E-03 0.89815179E+02</pdfrwt>
<totfact> 0.20326753E+05</totfact>
</mgrwt>
</event>
<event>
 5    1  0.3921687E+001  0.9177258E+02  0.7546771E-02  0.1298615E+00
          2   -1    0    0  501    0  0.00000000000E+00  0.00000000000E+00  0.31266321034E+03  0.31266321034E+03  0.00000000000E+00 0. -1.
         -2   -1    0    0    0  501 -0.00000000000E+00 -0.00000000000E+00 -0.67342487666E+01  0.67342487666E+01  0.00000000000E+00 0.  1.
         23    2    1    2    0    0  0.00000000000E+00  0.00000000000E+00  0.30592896157E+03  0.31939745911E+03  0.91772584982E+02 0.  0.
          2    1    3    3  502    0 -0.17770508738E+01 -0.40794192726E+02  0.22582100340E+03  0.22948300514E+03  0.00000000000E+00 0. -1.
         -2    1    3    3    0  502  0.17770508738E+01  0.40794192726E+02  0.80107958173E+02  0.89914453969E+02  0.00000000000E+00 0.  1.
<mgrwt>
<rscale>  0 0.91772585E+02</rscale>
<asrwt>0</asrwt>
<pdfrwt beam="1">  1        2 0.48102021E-01 0.91772585E+02</pdfrwt>
<pdfrwt beam="2">  1       -2 0.10360385E-02 0.91772585E+02</pdfrwt>
<totfact> 0.17930006E+05</totfact>
</mgrwt>
</event>
<event>
 5    1  0.3921687E+001  0.8655600E+02  0.7546771E-02  0.1311413E+00
         -1   -1    0    0    0  501 -0.00000000000E+00  0.00000000000E+00  0.36115862578E+01  0.36115862578E+01  0.00000000000E+00 0.  1.
          1   -1    0    0  501    0  0.00000000000E+00 -0.00000000000E+00 -0.51860457832E+03  0.51860457832E+03  0.00000000000E+00 0. -1.
         23    2    1    2    0    0  0.00000000000E+00  0.00000000000E+00 -0.51499299206E+03  0.52221616458E+03  0.86555997327E+02 0.  0.
          2    1    3    3  502    0 -0.27553024249E+01 -0.29856081421E+02 -0.69203406711E+02  0.75419419181E+02  0.00000000000E+00 0. -1.
         -2    1    3    3    0  502  0.27553024249E+01  0.29856081421E+02 -0.44578958535E+03  0.44679674540E+03  0.00000000000E+00 0.  1.
<mgrwt>
<rscale>  0 0.86555997E+02</rscale>
<asrwt>0</asrwt>
<pdfrwt beam="2">  1        1 0.79785323E-01 0.86555997E+02</pdfrwt>
<pdfrwt beam="1">  1       -1 0.55562863E-03 0.86555997E+02</pdfrwt>
<totfact> 0.16043721E+05</totfact>
</mgrwt>
</event>
<event>
 5    1  0.3921687E+001  0.9133330E+02  0.7546771E-02  0.1299655E+00
          2   -1    0    0  501    0  0.00000000000E+00  0.00000000000E+00  0.14246185549E+03  0.14246185549E+03  0.00000000000E+00 0. -1.
         -2   -1    0    0    0  501 -0.00000000000E+00 -0.00000000000E+00 -0.14638604827E+02  0.14638604827E+02  0.00000000000E+00 0.  1.
         23    2    1    2    0    0  0.00000000000E+00  0.00000000000E+00  0.12782325067E+03  0.15710046032E+03  0.91333297444E+02 0.  0.
          2    1    3    3  502    0 -0.10377885165E+02 -0.35773061087E+02  0.10935656073E+03  0.11552605669E+03  0.00000000000E+00 0. -1.
         -2    1    3    3    0  502  0.10377885165E+02  0.35773061087E+02  0.18466689941E+02  0.41574403633E+02  0.00000000000E+00 0.  1.
<mgrwt>
<rscale>  0 0.91333297E+02</rscale>
<asrwt>0</asrwt>
<pdfrwt beam="1">  1        2 0.21917208E-01 0.91333297E+02</pdfrwt>
<pdfrwt beam="2">  1       -2 0.22520931E-02 0.91333297E+02</pdfrwt>
<totfact> 0.13675435E+05</totfact>
</mgrwt>
</event>
<event>
 5    1  0.3921687E+001  0.9146423E+02  0.7546771E-02  0.1299344E+00
          2   -1    0    0  501    0  0.00000000000E+00  0.00000000000E+00  0.19043600216E+03  0.19043600216E+03  0.00000000000E+00 0. -1.
         -2   -1    0    0    0  501 -0.00000000000E+00 -0.00000000000E+00 -0.10982305488E+02  0.10982305488E+02  0.00000000000E+00 0.  1.
         23    2    1    2    0    0  0.00000000000E+00  0.00000000000E+00  0.17945369667E+03  0.20141830765E+03  0.91464230204E+02 0.  0.
          2    1    3    3  502    0  0.34538934303E+02 -0.25725136030E+02  0.12360752368E+03  0.13089515086E+03  0.00000000000E+00 0. -1.
         -2    1    3    3    0  502 -0.34538934303E+02  0.25725136030E+02  0.55846172989E+02  0.70523156793E+02  0.00000000000E+00 0.  1.
<mgrwt>
<rscale>  0 0.91464230E+02</rscale>
<asrwt>0</asrwt>
<pdfrwt beam="1">  1        2 0.29297844E-01 0.91464230E+02</pdfrwt>
<pdfrwt beam="2">  1       -2 0.16895856E-02 0.91464230E+02</pdfrwt>
<totfact> 0.15068824E+05</totfact>
</mgrwt>
</event>
<event>
 5    1  0.3921687E+001  0.9505804E+02  0.7546771E-02  0.1291045E+00
         -2   -1    0    0    0  501 -0.00000000000E+00  0.00000000000E+00  0.52623903623E+01  0.52623903623E+01  0.00000000000E+00 0.  1.
          2   -1    0    0  501    0  0.00000000000E+00 -0.00000000000E+00 -0.42927403426E+03  0.42927403426E+03  0.00000000000E+00 0. -1.
         23    2    1    2    0    0  0.00000000000E+00  0.00000000000E+00 -0.42401164390E+03  0.43453642462E+03  0.95058035761E+02 0.  0.
          2    1    3    3  502    0  0.12502944902E+01  0.47217429062E+02 -0.23617688858E+03  0.24085383855E+03  0.00000000000E+00 0. -1.
         -2    1    3    3    0  502 -0.12502944902E+01 -0.47217429062E+02 -0.18783475532E+03  0.19368258608E+03  0.00000000000E+00 0.  1.
<mgrwt>
<rscale>  0 0.95058036E+02</rscale>
<asrwt>0</asrwt>
<pdfrwt beam="2">  1        2 0.66042167E-01 0.95058036E+02</pdfrwt>
<pdfrwt beam="1">  1       -2 0.80959843E-03 0.95058036E+02</pdfrwt>
<totfact> 0.18319708E+05</totfact>
</mgrwt>
</event>
<event>
 5    1  0.3921687E+001  0.8994927E+02  0.7546771E-02  0.1302975E+00
         -1   -1    0    0    0  501 -0.00000000000E+00  0.00000000000E+00  0.50224487548E+01  0.50224487548E+01  0.00000000000E+00 0.  1.
          1   -1    0    0  501    0  0.00000000000E+00 -0.00000000000E+00 -0.40273538023E+03  0.40273538023E+03  0.00000000000E+00 0. -1.
         23    2    1    2    0    0  0.00000000000E+00  0.00000000000E+00 -0.39771293148E+03  0.40775782899E+03  0.89949270347E+02 0.  0.
          2    1    3    3  502    0  0.22216369366E+02  0.26929378091E+02 -0.32739155549E+03  0.32924761059E+03  0.00000000000E+00 0. -1.
         -2    1    3    3    0  502 -0.22216369366E+02 -0.26929378091E+02 -0.70321375986E+02  0.78510218397E+02  0.00000000000E+00 0.  1.
<mgrwt>
<rscale>  0 0.89949270E+02</rscale>
<asrwt>0</asrwt>
<pdfrwt beam="2">  1        1 0.61959284E-01 0.89949270E+02</pdfrwt>
<pdfrwt beam="1">  1       -1 0.77268449E-03 0.89949270E+02</pdfrwt>
<totfact> 0.13998507E+05</totfact>
</mgrwt>
</event>
<event>
 5    1  0.3921687E+001  0.9098526E+02  0.7546771E-02  0.1300483E+00
         -2   -1    0    0    0  501 -0.00000000000E+00  0.00000000000E+00  0.54902917924E+01  0.54902917924E+01  0.00000000000E+00 0. -1.
          2   -1    0    0  501    0  0.00000000000E+00 -0.00000000000E+00 -0.37695256727E+03  0.37695256727E+03  0.00000000000E+00 0.  1.
         23    2    1    2    0    0  0.00000000000E+00  0.00000000000E+00 -0.37146227548E+03  0.38244285907E+03  0.90985264439E+02 0.  0.
          2    1    3    3  502    0 -0.33902269051E+01 -0.38254007234E+02 -0.83224821491E+02  0.91658243601E+02  0.00000000000E+00 0. -1.
         -2    1    3    3    0  502  0.33902269051E+01  0.38254007234E+02 -0.28823745399E+03  0.29078461546E+03  0.00000000000E+00 0.  1.
<mgrwt>
<rscale>  0 0.90985264E+02</rscale>
<asrwt>0</asrwt>
<pdfrwt beam="2">  1        2 0.57992708E-01 0.90985264E+02</pdfrwt>
<pdfrwt beam="1">  1       -2 0.84466020E-03 0.90985264E+02</pdfrwt>
<totfact> 0.19649683E+05</totfact>
</mgrwt>
</event>
<event>
 5    1  0.3921687E+001  0.8998598E+02  0.7546771E-02  0.1302886E+00
          1   -1    0    0  501    0  0.00000000000E+00  0.00000000000E+00  0.24456538800E+01  0.24456538800E+01  0.00000000000E+00 0. -1.
         -1   -1    0    0    0  501 -0.00000000000E+00 -0.00000000000E+00 -0.82774149408E+03  0.82774149408E+03  0.00000000000E+00 0.  1.
         23    2    1    2    0    0  0.00000000000E+00  0.00000000000E+00 -0.82529584020E+03  0.83018714796E+03  0.89985981055E+02 0.  0.
          2    1    3    3  502    0  0.24309339273E+02 -0.77856528045E+01 -0.70821062845E+02  0.75280696782E+02  0.00000000000E+00 0. -1.
         -2    1    3    3    0  502 -0.24309339273E+02  0.77856528045E+01 -0.75447477735E+03  0.75490645118E+03  0.00000000000E+00 0.  1.
<mgrwt>
<rscale>  0 0.89985981E+02</rscale>
<asrwt>0</asrwt>
<pdfrwt beam="1">  1        1 0.37625439E-03 0.89985981E+02</pdfrwt>
<pdfrwt beam="2">  1       -1 0.12734486E+00 0.89985981E+02</pdfrwt>
<totfact> 0.32684650E+04</totfact>
</mgrwt>
</event>
<event>
 5    1  0.3921687E+001  0.9261207E+02  0.7546771E-02  0.1296647E+00
          2   -1    0    0  501    0  0.00000000000E+00  0.00000000000E+00  0.28313788792E+02  0.28313788792E+02  0.00000000000E+00 0. -1.
         -2   -1    0    0    0  501 -0.00000000000E+00 -0.00000000000E+00 -0.75731607773E+02  0.75731607773E+02  0.00000000000E+00 0.  1.
         23    2    1    2    0    0  0.00000000000E+00  0.00000000000E+00 -0.47417818981E+02  0.10404539656E+03  0.92612067191E+02 0.  0.
          2    1    3    3  502    0  0.46505964749E+01  0.39424780660E+02 -0.50491151841E+02  0.64228481158E+02  0.00000000000E+00 0.  1.
         -2    1    3    3    0  502 -0.46505964749E+01 -0.39424780660E+02  0.30733328594E+01  0.39816915407E+02  0.00000000000E+00 0. -1.
<mgrwt>
<rscale>  0 0.92612067E+02</rscale>
<asrwt>0</asrwt>
<pdfrwt beam="1">  1        2 0.43559676E-02 0.92612067E+02</pdfrwt>
<pdfrwt beam="2">  1       -2 0.11651016E-01 0.92612067E+02</pdfrwt>
<totfact> 0.83124852E+04</totfact>
</mgrwt>
</event>
<event>
 5    1  0.3921687E+001  0.9506424E+02  0.7546771E-02  0.1291031E+00
         -1   -1    0    0    0  501 -0.00000000000E+00  0.00000000000E+00  0.32539415649E+01  0.32539415649E+01  0.00000000000E+00 0.  1.
          1   -1    0    0  501    0  0.00000000000E+00 -0.00000000000E+00 -0.69432791669E+03  0.69432791669E+03  0.00000000000E+00 0. -1.
         23    2    1    2    0    0  0.00000000000E+00  0.00000000000E+00 -0.69107397512E+03  0.69758185825E+03  0.95064240759E+02 0.  0.
          2    1    3    3  502    0 -0.41112986474E+02 -0.13160709002E+02 -0.19954562489E+03  0.20416154959E+03  0.00000000000E+00 0.  1.
         -2    1    3    3    0  502  0.41112986474E+02  0.13160709002E+02 -0.49152835023E+03  0.49342030866E+03  0.00000000000E+00 0. -1.
<mgrwt>
<rscale>  0 0.95064241E+02</rscale>
<asrwt>0</asrwt>
<pdfrwt beam="2">  1        1 0.10681973E+00 0.95064241E+02</pdfrwt>
<pdfrwt beam="1">  1       -1 0.50060615E-03 0.95064241E+02</pdfrwt>
<totfact> 0.12728701E+05</totfact>
</mgrwt>
</event>
<event>
 5    1  0.3921687E+001  0.8102931E+02  0.7546771E-02  0.1326156E+00
         -2   -1    0    0    0  501 -0.00000000000E+00  0.00000000000E+00  0.79630127546E+00  0.79630127546E+00  0.00000000000E+00 0.  1.
          2   -1    0    0  501    0  0.00000000000E+00 -0.00000000000E+00 -0.20613271403E+04  0.20613271403E+04  0.00000000000E+00 0. -1.
         23    2    1    2    0    0  0.00000000000E+00  0.00000000000E+00 -0.20605308390E+04  0.20621234415E+04  0.81029313978E+02 0.  0.
          2    1    3    3  502    0 -0.10617722303E+02 -0.34128533753E+02 -0.15157664208E+04  0.15161877638E+04  0.00000000000E+00 0. -1.
         -2    1    3    3    0  502  0.10617722303E+02  0.34128533753E+02 -0.54476441823E+03  0.54593567772E+03  0.00000000000E+00 0.  1.
<mgrwt>
<rscale>  0 0.81029314E+02</rscale>
<asrwt>0</asrwt>
<pdfrwt beam="2">  1        2 0.31712639E+00 0.81029314E+02</pdfrwt>
<pdfrwt beam="1">  1       -2 0.12250822E-03 0.81029314E+02</pdfrwt>
<totfact> 0.26066808E+05</totfact>
</mgrwt>
</event>
<event>
 5    1  0.3921687E+001  0.9096692E+02  0.7546771E-02  0.1300527E+00
          1   -1    0    0  501    0  0.00000000000E+00  0.00000000000E+00  0.21405269350E+02  0.21405269350E+02  0.00000000000E+00 0. -1.
         -1   -1    0    0    0  501 -0.00000000000E+00 -0.00000000000E+00 -0.96646527650E+02  0.96646527650E+02  0.00000000000E+00 0.  1.
         23    2    1    2    0    0  0.00000000000E+00  0.00000000000E+00 -0.75241258300E+02  0.11805179700E+03  0.90966916098E+02 0.  0.
          2    1    3    3  502    0 -0.16583921101E+02 -0.16577288173E+02  0.12956647629E+02  0.26790066070E+02  0.00000000000E+00 0. -1.
         -2    1    3    3    0  502  0.16583921101E+02  0.16577288173E+02 -0.88197905929E+02  0.91261730930E+02  0.00000000000E+00 0.  1.
<mgrwt>
<rscale>  0 0.90966916E+02</rscale>
<asrwt>0</asrwt>
<pdfrwt beam="1">  1        1 0.32931184E-02 0.90966916E+02</pdfrwt>
<pdfrwt beam="2">  1       -1 0.14868697E-01 0.90966916E+02</pdfrwt>
<totfact> 0.82371541E+04</totfact>
</mgrwt>
</event>
<event>
 5    1  0.3921687E+001  0.9229791E+02  0.7546771E-02  0.1297380E+00
          2   -1    0    0  501    0  0.00000000000E+00  0.00000000000E+00  0.57050074757E+02  0.57050074757E+02  0.00000000000E+00 0. -1.
         -2   -1    0    0    0  501 -0.00000000000E+00 -0.00000000000E+00 -0.37330819393E+02  0.37330819393E+02  0.00000000000E+00 0.  1.
         23    2    1    2    0    0  0.00000000000E+00  0.00000000000E+00  0.19719255364E+02  0.94380894150E+02  0.92297909773E+02 0.  0.
          2    1    3    3  502    0  0.25608798654E+02 -0.29055889038E+02  0.35519175098E+02  0.52551565685E+02  0.00000000000E+00 0. -1.
         -2    1    3    3    0  502 -0.25608798654E+02  0.29055889038E+02 -0.15799919734E+02  0.41829328466E+02  0.00000000000E+00 0.  1.
<mgrwt>
<rscale>  0 0.92297910E+02</rscale>
<asrwt>0</asrwt>
<pdfrwt beam="1">  1        2 0.87769346E-02 0.92297910E+02</pdfrwt>
<pdfrwt beam="2">  1       -2 0.57432030E-02 0.92297910E+02</pdfrwt>
<totfact> 0.10108756E+05</totfact>
</mgrwt>
</event>
<event>
 5    1  0.3921687E+001  0.9289789E+02  0.7546771E-02  0.1295982E+00
         -1   -1    0    0    0  501 -0.00000000000E+00  0.00000000000E+00  0.10624013967E+02  0.10624013967E+02  0.00000000000E+00 0.  1.
          1   -1    0    0  501    0  0.00000000000E+00 -0.00000000000E+00 -0.20307808021E+03  0.20307808021E+03  0.00000000000E+00 0. -1.
         23    2    1    2    0    0  0.00000000000E+00  0.00000000000E+00 -0.19245406624E+03  0.21370209417E+03  0.92897887178E+02 0.  0.
          2    1    3    3  502    0 -0.28051198125E+02 -0.36680126236E+02 -0.84678444276E+02  0.96450714368E+02  0.00000000000E+00 0. -1.
         -2    1    3    3    0  502  0.28051198125E+02  0.36680126236E+02 -0.10777562196E+03  0.11725137981E+03  0.00000000000E+00 0.  1.
<mgrwt>
<rscale>  0 0.92897887E+02</rscale>
<asrwt>0</asrwt>
<pdfrwt beam="2">  1        1 0.31242779E-01 0.92897887E+02</pdfrwt>
<pdfrwt beam="1">  1       -1 0.16344638E-02 0.92897887E+02</pdfrwt>
<totfact> 0.11294014E+05</totfact>
</mgrwt>
</event>
<event>
 5    1  0.3921687E+001  0.8246562E+02  0.7546771E-02  0.1322196E+00
         -2   -1    0    0    0  501 -0.00000000000E+00  0.00000000000E+00  0.15345883013E+01  0.15345883013E+01  0.00000000000E+00 0.  1.
          2   -1    0    0  501    0  0.00000000000E+00 -0.00000000000E+00 -0.11078832566E+04  0.11078832566E+04  0.00000000000E+00 0. -1.
         23    2    1    2    0    0  0.00000000000E+00  0.00000000000E+00 -0.11063486683E+04  0.11094178449E+04  0.82465621560E+02 0.  0.
          2    1    3    3  502    0 -0.33679542021E+02  0.87735692004E+01 -0.85062394424E+03  0.85133564566E+03  0.00000000000E+00 0.  1.
         -2    1    3    3    0  502  0.33679542021E+02 -0.87735692004E+01 -0.25572472405E+03  0.25808219923E+03  0.00000000000E+00 0. -1.
<mgrwt>
<rscale>  0 0.82465622E+02</rscale>
<asrwt>0</asrwt>
<pdfrwt beam="2">  1        2 0.17044416E+00 0.82465622E+02</pdfrwt>
<pdfrwt beam="1">  1       -2 0.23608970E-03 0.82465622E+02</pdfrwt>
<totfact> 0.32539527E+05</totfact>
</mgrwt>
</event>
<event>
 5    1  0.3921687E+001  0.8780760E+02  0.7546771E-02  0.1308249E+00
          4   -1    0    0  501    0  0.00000000000E+00  0.00000000000E+00  0.30197046070E+02  0.30197046070E+02  0.00000000000E+00 0. -1.
         -4   -1    0    0    0  501 -0.00000000000E+00 -0.00000000000E+00 -0.63832189424E+02  0.63832189424E+02  0.00000000000E+00 0.  1.
         23    2    1    2    0    0  0.00000000000E+00  0.00000000000E+00 -0.33635143354E+02  0.94029235494E+02  0.87807597957E+02 0.  0.
          2    1    3    3  502    0 -0.36934128150E+02 -0.12765535216E+02  0.46117087882E+01  0.39349162246E+02  0.00000000000E+00 0. -1.
         -2    1    3    3    0  502  0.36934128150E+02  0.12765535216E+02 -0.38246852143E+02  0.54680073247E+02  0.00000000000E+00 0.  1.
<mgrwt>
<rscale>  0 0.87807598E+02</rscale>
<asrwt>0</asrwt>
<pdfrwt beam="1">  1        4 0.46456994E-02 0.87807598E+02</pdfrwt>
<pdfrwt beam="2">  1       -4 0.98203367E-02 0.87807598E+02</pdfrwt>
<totfact> 0.29706035E+04</totfact>
</mgrwt>
</event>
<event>
 5    1  0.3921687E+001  0.9173707E+02  0.7546771E-02  0.1298699E+00
          1   -1    0    0  501    0  0.00000000000E+00  0.00000000000E+00  0.29445517877E+03  0.29445517877E+03  0.00000000000E+00 0. -1.
         -1   -1    0    0    0  501 -0.00000000000E+00 -0.00000000000E+00 -0.71451368320E+01  0.71451368320E+01  0.00000000000E+00 0.  1.
         23    2    1    2    0    0  0.00000000000E+00  0.00000000000E+00  0.28731004194E+03  0.30160031560E+03  0.91737070876E+02 0.  0.
          2    1    3    3  502    0 -0.45615789528E+02  0.47674412748E+01  0.14159191891E+03  0.14883480860E+03  0.00000000000E+00 0. -1.
         -2    1    3    3    0  502  0.45615789528E+02 -0.47674412748E+01  0.14571812303E+03  0.15276550701E+03  0.00000000000E+00 0.  1.
<mgrwt>
<rscale>  0 0.91737071E+02</rscale>
<asrwt>0</asrwt>
<pdfrwt beam="1">  1        1 0.45300787E-01 0.91737071E+02</pdfrwt>
<pdfrwt beam="2">  1       -1 0.10992520E-02 0.91737071E+02</pdfrwt>
<totfact> 0.12559653E+05</totfact>
</mgrwt>
</event>
<event>
 5    1  0.3921687E+001  0.8937430E+02  0.7546771E-02  0.1304374E+00
          1   -1    0    0  501    0  0.00000000000E+00  0.00000000000E+00  0.16337207880E+02  0.16337207880E+02  0.00000000000E+00 0. -1.
         -1   -1    0    0    0  501 -0.00000000000E+00 -0.00000000000E+00 -0.12223271145E+03  0.12223271145E+03  0.00000000000E+00 0.  1.
         23    2    1    2    0    0  0.00000000000E+00  0.00000000000E+00 -0.10589550357E+03  0.13856991932E+03  0.89374296452E+02 0.  0.
          2    1    3    3  502    0 -0.15194951111E+02  0.41243536203E+02 -0.65450279904E+02  0.78839425146E+02  0.00000000000E+00 0.  1.
         -2    1    3    3    0  502  0.15194951111E+02 -0.41243536203E+02 -0.40445223661E+02  0.59730494179E+02  0.00000000000E+00 0. -1.
<mgrwt>
<rscale>  0 0.89374296E+02</rscale>
<asrwt>0</asrwt>
<pdfrwt beam="1">  1        1 0.25134166E-02 0.89374296E+02</pdfrwt>
<pdfrwt beam="2">  1       -1 0.18805033E-01 0.89374296E+02</pdfrwt>
<totfact> 0.82374355E+04</totfact>
</mgrwt>
</event>
<event>
 5    1  0.3921687E+001  0.9330057E+02  0.7546771E-02  0.1295050E+00
         -2   -1    0    0    0  501 -0.00000000000E+00  0.00000000000E+00  0.53518645352E+01  0.53518645352E+01  0.00000000000E+00 0.  1.
          2   -1    0    0  501    0  0.00000000000E+00 -0.00000000000E+00 -0.40663381827E+03  0.40663381827E+03  0.00000000000E+00 0. -1.
         23    2    1    2    0    0  0.00000000000E+00  0.00000000000E+00 -0.40128195374E+03  0.41198568281E+03  0.93300570434E+02 0.  0.
          2    1    3    3  502    0  0.31843318429E+02  0.21120930179E+02 -0.31880966045E+03  0.32109140477E+03  0.00000000000E+00 0. -1.
         -2    1    3    3    0  502 -0.31843318429E+02 -0.21120930179E+02 -0.82472293288E+02  0.90894278040E+02  0.00000000000E+00 0.  1.
<mgrwt>
<rscale>  0 0.93300570E+02</rscale>
<asrwt>0</asrwt>
<pdfrwt beam="2">  1        2 0.62559063E-01 0.93300570E+02</pdfrwt>
<pdfrwt beam="1">  1       -2 0.82336359E-03 0.93300570E+02</pdfrwt>
<totfact> 0.18887538E+05</totfact>
</mgrwt>
</event>
<event>
 5    1  0.3921687E+001  0.9201959E+02  0.7546771E-02  0.1298033E+00
          2   -1    0    0  501    0  0.00000000000E+00  0.00000000000E+00  0.21719314900E+04  0.21719314900E+04  0.00000000000E+00 0. -1.
         -2   -1    0    0    0  501 -0.00000000000E+00 -0.00000000000E+00 -0.97466307331E+00  0.97466307331E+00  0.00000000000E+00 0.  1.
         23    2    1    2    0    0  0.00000000000E+00  0.00000000000E+00  0.21709568270E+04  0.21729061531E+04  0.92019594024E+02 0.  0.
          2    1    3    3  502    0 -0.21919998321E+02  0.39855877342E+02  0.92200851122E+03  0.92312982405E+03  0.00000000000E+00 0. -1.
         -2    1    3    3    0  502  0.21919998321E+02 -0.39855877342E+02  0.12489483158E+04  0.12497763291E+04  0.00000000000E+00 0.  1.
<mgrwt>
<rscale>  0 0.92019594E+02</rscale>
<asrwt>0</asrwt>
<pdfrwt beam="1">  1        2 0.33413943E+00 0.92019594E+02</pdfrwt>
<pdfrwt beam="2">  1       -2 0.14994990E-03 0.92019594E+02</pdfrwt>
<totfact> 0.17625413E+05</totfact>
</mgrwt>
</event>
<event>
 5    1  0.3921687E+001  0.9117998E+02  0.7546771E-02  0.1300019E+00
         -1   -1    0    0    0  501 -0.00000000000E+00  0.00000000000E+00  0.53646412845E+02  0.53646412845E+02  0.00000000000E+00 0.  1.
          1   -1    0    0  501    0  0.00000000000E+00 -0.00000000000E+00 -0.38743451166E+02  0.38743451166E+02  0.00000000000E+00 0. -1.
         23    2    1    2    0    0  0.00000000000E+00  0.00000000000E+00  0.14902961679E+02  0.92389864011E+02  0.91179979738E+02 0.  0.
          2    1    3    3  502    0 -0.17891886401E+02  0.38111348518E+02 -0.10269223913E+02  0.43336490913E+02  0.00000000000E+00 0. -1.
         -2    1    3    3    0  502  0.17891886401E+02 -0.38111348518E+02  0.25172185592E+02  0.49053373098E+02  0.00000000000E+00 0.  1.
<mgrwt>
<rscale>  0 0.91179980E+02</rscale>
<asrwt>0</asrwt>
<pdfrwt beam="2">  1        1 0.59605310E-02 0.91179980E+02</pdfrwt>
<pdfrwt beam="1">  1       -1 0.82532943E-02 0.91179980E+02</pdfrwt>
<totfact> 0.90215224E+04</totfact>
</mgrwt>
</event>
<event>
 5    1  0.3921687E+001  0.9704078E+02  0.7546771E-02  0.1286645E+00
         -2   -1    0    0    0  501 -0.00000000000E+00  0.00000000000E+00  0.49378470502E+03  0.49378470502E+03  0.00000000000E+00 0.  1.
          2   -1    0    0  501    0  0.00000000000E+00 -0.00000000000E+00 -0.47677219856E+01  0.47677219856E+01  0.00000000000E+00 0. -1.
         23    2    1    2    0    0  0.00000000000E+00  0.00000000000E+00  0.48901698303E+03  0.49855242701E+03  0.97040778939E+02 0.  0.
          2    1    3    3  502    0  0.32242901262E+02 -0.27747763855E+02  0.12460569458E+03  0.13166670879E+03  0.00000000000E+00 0. -1.
         -2    1    3    3    0  502 -0.32242901262E+02  0.27747763855E+02  0.36441128845E+03  0.36688571822E+03  0.00000000000E+00 0.  1.
<mgrwt>
<rscale>  0 0.97040779E+02</rscale>
<asrwt>0</asrwt>
<pdfrwt beam="2">  1        2 0.73349608E-03 0.97040779E+02</pdfrwt>
<pdfrwt beam="1">  1       -2 0.75966837E-01 0.97040779E+02</pdfrwt>
<totfact> 0.31181289E+04</totfact>
</mgrwt>
</event>
<event>
 5    1  0.3921687E+001  0.9122293E+02  0.7546771E-02  0.1299917E+00
         -1   -1    0    0    0  501 -0.00000000000E+00  0.00000000000E+00  0.14501486562E+01  0.14501486562E+01  0.00000000000E+00 0.  1.
          1   -1    0    0  501    0  0.00000000000E+00 -0.00000000000E+00 -0.14346155692E+04  0.14346155692E+04  0.00000000000E+00 0. -1.
         23    2    1    2    0    0  0.00000000000E+00  0.00000000000E+00 -0.14331654205E+04  0.14360657178E+04  0.91222932201E+02 0.  0.
          2    1    3    3  502    0 -0.10750119167E+02 -0.42370191822E+02 -0.51156424860E+03  0.51342845525E+03  0.00000000000E+00 0. -1.
         -2    1    3    3    0  502  0.10750119167E+02  0.42370191822E+02 -0.92160117191E+03  0.92263726257E+03  0.00000000000E+00 0.  1.
<mgrwt>
<rscale>  0 0.91222932E+02</rscale>
<asrwt>0</asrwt>
<pdfrwt beam="2">  1        1 0.22071074E+00 0.91222932E+02</pdfrwt>
<pdfrwt beam="1">  1       -1 0.22309913E-03 0.91222932E+02</pdfrwt>
<totfact> 0.11425616E+05</totfact>
</mgrwt>
</event>
<event>
 5    1  0.3921687E+001  0.9080879E+02  0.7546771E-02  0.1300905E+00
         -3   -1    0    0    0  501 -0.00000000000E+00  0.00000000000E+00  0.20688488246E+02  0.20688488246E+02  0.00000000000E+00 0.  1.
          3   -1    0    0  501    0  0.00000000000E+00 -0.00000000000E+00 -0.99647636522E+02  0.99647636522E+02  0.00000000000E+00 0. -1.
         23    2    1    2    0    0  0.00000000000E+00  0.00000000000E+00 -0.78959148276E+02  0.12033612477E+03  0.90808787172E+02 0.  0.
          2    1    3    3  502    0  0.65523374659E+01  0.20819208487E+02 -0.92240002577E+02  0.94787080574E+02  0.00000000000E+00 0. -1.
         -2    1    3    3    0  502 -0.65523374659E+01 -0.20819208487E+02  0.13280854301E+02  0.25549044194E+02  0.00000000000E+00 0.  1.
<mgrwt>
<rscale>  0 0.90808787E+02</rscale>
<asrwt>0</asrwt>
<pdfrwt beam="2">  1        3 0.15330406E-01 0.90808787E+02</pdfrwt>
<pdfrwt beam="1">  1       -3 0.31828443E-02 0.90808787E+02</pdfrwt>
<totfact> 0.33590026E+04</totfact>
</mgrwt>
</event>
<event>
 5    1  0.3921687E+001  0.9051051E+02  0.7546771E-02  0.1301620E+00
         -2   -1    0    0    0  501 -0.00000000000E+00  0.00000000000E+00  0.52845783590E+01  0.52845783590E+01  0.00000000000E+00 0. -1.
          2   -1    0    0  501    0  0.00000000000E+00 -0.00000000000E+00 -0.38754996651E+03  0.38754996651E+03  0.00000000000E+00 0.  1.
         23    2    1    2    0    0  0.00000000000E+00  0.00000000000E+00 -0.38226538816E+03  0.39283454487E+03  0.90510511347E+02 0.  0.
          2    1    3    3  502    0  0.32504208238E+02 -0.27397685111E+02 -0.12377110192E+03  0.13086803420E+03  0.00000000000E+00 0. -1.
         -2    1    3    3    0  502 -0.32504208238E+02  0.27397685111E+02 -0.25849428623E+03  0.26196651068E+03  0.00000000000E+00 0.  1.
<mgrwt>
<rscale>  0 0.90510511E+02</rscale>
<asrwt>0</asrwt>
<pdfrwt beam="2">  1        2 0.59623083E-01 0.90510511E+02</pdfrwt>
<pdfrwt beam="1">  1       -2 0.81301191E-03 0.90510511E+02</pdfrwt>
<totfact> 0.20125150E+05</totfact>
</mgrwt>
</event>
<event>
 5    1  0.3921687E+001  0.9032228E+02  0.7546771E-02  0.1302073E+00
          2   -1    0    0  501    0  0.00000000000E+00  0.00000000000E+00  0.47649553536E+03  0.47649553536E+03  0.00000000000E+00 0. -1.
         -2   -1    0    0    0  501 -0.00000000000E+00 -0.00000000000E+00 -0.42802676442E+01  0.42802676442E+01  0.00000000000E+00 0.  1.
         23    2    1    2    0    0  0.00000000000E+00  0.00000000000E+00  0.47221526772E+03  0.48077580301E+03  0.90322276823E+02 0.  0.
          2    1    3    3  502    0  0.14167720762E+02  0.41827209270E+02  0.28640507789E+03  0.28978976585E+03  0.00000000000E+00 0. -1.
         -2    1    3    3    0  502 -0.14167720762E+02 -0.41827209270E+02  0.18581018982E+03  0.19098603716E+03  0.00000000000E+00 0.  1.
<mgrwt>
<rscale>  0 0.90322277E+02</rscale>
<asrwt>0</asrwt>
<pdfrwt beam="1">  1        2 0.73306963E-01 0.90322277E+02</pdfrwt>
<pdfrwt beam="2">  1       -2 0.65850309E-03 0.90322277E+02</pdfrwt>
<totfact> 0.21745791E+05</totfact>
</mgrwt>
</event>
<event>
 5    1  0.3921687E+001  0.9153779E+02  0.7546771E-02  0.1299170E+00
         -1   -1    0    0    0  501 -0.00000000000E+00  0.00000000000E+00  0.19149537144E+04  0.19149537144E+04  0.00000000000E+00 0.  1.
          1   -1    0    0  501    0  0.00000000000E+00 -0.00000000000E+00 -0.10939124516E+01  0.10939124516E+01  0.00000000000E+00 0. -1.
         23    2    1    2    0    0  0.00000000000E+00  0.00000000000E+00  0.19138598020E+04  0.19160476269E+04  0.91537789192E+02 0.  0.
          2    1    3    3  502    0 -0.35509255710E+02  0.27655667919E+02  0.11308633127E+04  0.11317586206E+04  0.00000000000E+00 0. -1.
         -2    1    3    3    0  502  0.35509255710E+02 -0.27655667919E+02  0.78299648927E+03  0.78428900631E+03  0.00000000000E+00 0.  1.
<mgrwt>
<rscale>  0 0.91537789E+02</rscale>
<asrwt>0</asrwt>
<pdfrwt beam="2">  1        1 0.16829576E-03 0.91537789E+02</pdfrwt>
<pdfrwt beam="1">  1       -1 0.29460558E+00 0.91537789E+02</pdfrwt>
<totfact> 0.77903881E+03</totfact>
</mgrwt>
</event>
<event>
 5    1  0.3921687E+001  0.9141322E+02  0.7546771E-02  0.1299465E+00
         -3   -1    0    0    0  501 -0.00000000000E+00  0.00000000000E+00  0.99848490890E+02  0.99848490890E+02  0.00000000000E+00 0.  1.
          3   -1    0    0  501    0  0.00000000000E+00 -0.00000000000E+00 -0.20922639402E+02  0.20922639402E+02  0.00000000000E+00 0. -1.
         23    2    1    2    0    0  0.00000000000E+00  0.00000000000E+00  0.78925851488E+02  0.12077113029E+03  0.91413215013E+02 0.  0.
          2    1    3    3  502    0  0.34156725863E+02 -0.20635902159E+02  0.10022432490E+02  0.41145735290E+02  0.00000000000E+00 0. -1.
         -2    1    3    3    0  502 -0.34156725863E+02  0.20635902159E+02  0.68903418998E+02  0.79625395002E+02  0.00000000000E+00 0.  1.
<mgrwt>
<rscale>  0 0.91413215E+02</rscale>
<asrwt>0</asrwt>
<pdfrwt beam="2">  1        3 0.32188676E-02 0.91413215E+02</pdfrwt>
<pdfrwt beam="1">  1       -3 0.15361306E-01 0.91413215E+02</pdfrwt>
<totfact> 0.32962328E+04</totfact>
</mgrwt>
</event>
<event>
 5    1  0.3921687E+001  0.8846799E+02  0.7546771E-02  0.1306605E+00
         -1   -1    0    0    0  501 -0.00000000000E+00  0.00000000000E+00  0.42588747912E+02  0.42588747912E+02  0.00000000000E+00 0.  1.
          1   -1    0    0  501    0  0.00000000000E+00 -0.00000000000E+00 -0.45942800151E+02  0.45942800151E+02  0.00000000000E+00 0. -1.
         23    2    1    2    0    0  0.00000000000E+00  0.00000000000E+00 -0.33540522394E+01  0.88531548063E+02  0.88467990460E+02 0.  0.
          2    1    3    3  502    0 -0.31801591651E+02 -0.30326724604E+02  0.33857464844E+01  0.44073968916E+02  0.00000000000E+00 0. -1.
         -2    1    3    3    0  502  0.31801591651E+02  0.30326724604E+02 -0.67397987237E+01  0.44457579147E+02  0.00000000000E+00 0.  1.
<mgrwt>
<rscale>  0 0.88467990E+02</rscale>
<asrwt>0</asrwt>
<pdfrwt beam="2">  1        1 0.70681231E-02 0.88467990E+02</pdfrwt>
<pdfrwt beam="1">  1       -1 0.65521151E-02 0.88467990E+02</pdfrwt>
<totfact> 0.10072759E+05</totfact>
</mgrwt>
</event>
<event>
 5    1  0.3921687E+001  0.9162639E+02  0.7546771E-02  0.1298960E+00
          3   -1    0    0  501    0  0.00000000000E+00  0.00000000000E+00  0.12598495912E+02  0.12598495912E+02  0.00000000000E+00 0. -1.
         -3   -1    0    0    0  501 -0.00000000000E+00 -0.00000000000E+00 -0.16659518678E+03  0.16659518678E+03  0.00000000000E+00 0.  1.
         23    2    1    2    0    0  0.00000000000E+00  0.00000000000E+00 -0.15399669086E+03  0.17919368269E+03  0.91626388766E+02 0.  0.
          2    1    3    3  502    0 -0.21623679330E+02 -0.17802470400E+02 -0.60968256478E+01  0.28665009037E+02  0.00000000000E+00 0. -1.
         -2    1    3    3    0  502  0.21623679330E+02  0.17802470400E+02 -0.14789986522E+03  0.15052867365E+03  0.00000000000E+00 0.  1.
<mgrwt>
<rscale>  0 0.91626389E+02</rscale>
<asrwt>0</asrwt>
<pdfrwt beam="1">  1        3 0.19382301E-02 0.91626389E+02</pdfrwt>
<pdfrwt beam="2">  1       -3 0.25630030E-01 0.91626389E+02</pdfrwt>
<totfact> 0.29218890E+04</totfact>
</mgrwt>
</event>
<event>
 5    1  0.3921687E+001  0.9363794E+02  0.7546771E-02  0.1294274E+00
         -2   -1    0    0    0  501 -0.00000000000E+00  0.00000000000E+00  0.32311733439E+02  0.32311733439E+02  0.00000000000E+00 0.  1.
          2   -1    0    0  501    0  0.00000000000E+00 -0.00000000000E+00 -0.67839620928E+02  0.67839620928E+02  0.00000000000E+00 0. -1.
         23    2    1    2    0    0  0.00000000000E+00  0.00000000000E+00 -0.35527887489E+02  0.10015135437E+03  0.93637935645E+02 0.  0.
          2    1    3    3  502    0  0.16227020342E+02  0.20185901674E+02  0.23952020300E+02  0.35277274441E+02  0.00000000000E+00 0. -1.
         -2    1    3    3    0  502 -0.16227020342E+02 -0.20185901674E+02 -0.59479907789E+02  0.64874079925E+02  0.00000000000E+00 0.  1.
<mgrwt>
<rscale>  0 0.93637936E+02</rscale>
<asrwt>0</asrwt>
<pdfrwt beam="2">  1        2 0.10436865E-01 0.93637936E+02</pdfrwt>
<pdfrwt beam="1">  1       -2 0.49710360E-02 0.93637936E+02</pdfrwt>
<totfact> 0.10175522E+05</totfact>
</mgrwt>
</event>
<event>
 5    1  0.3921687E+001  0.9069855E+02  0.7546771E-02  0.1301169E+00
         -1   -1    0    0    0  501 -0.00000000000E+00  0.00000000000E+00  0.61124132494E+01  0.61124132494E+01  0.00000000000E+00 0.  1.
          1   -1    0    0  501    0  0.00000000000E+00 -0.00000000000E+00 -0.33645580746E+03  0.33645580746E+03  0.00000000000E+00 0. -1.
         23    2    1    2    0    0  0.00000000000E+00  0.00000000000E+00 -0.33034339421E+03  0.34256822071E+03  0.90698554241E+02 0.  0.
          2    1    3    3  502    0  0.32395348307E+02  0.31719147216E+02 -0.16893742867E+03  0.17491545872E+03  0.00000000000E+00 0. -1.
         -2    1    3    3    0  502 -0.32395348307E+02 -0.31719147216E+02 -0.16140596553E+03  0.16765276199E+03  0.00000000000E+00 0.  1.
<mgrwt>
<rscale>  0 0.90698554E+02</rscale>
<asrwt>0</asrwt>
<pdfrwt beam="2">  1        1 0.51762436E-01 0.90698554E+02</pdfrwt>
<pdfrwt beam="1">  1       -1 0.94037119E-03 0.90698554E+02</pdfrwt>
<totfact> 0.13274033E+05</totfact>
</mgrwt>
</event>
<event>
 5    1  0.3921687E+001  0.9518532E+02  0.7546771E-02  0.1290759E+00
         -2   -1    0    0    0  501 -0.00000000000E+00  0.00000000000E+00  0.46910843640E+02  0.46910843640E+02  0.00000000000E+00 0. -1.
          2   -1    0    0  501    0  0.00000000000E+00 -0.00000000000E+00 -0.48284381229E+02  0.48284381229E+02  0.00000000000E+00 0.  1.
         23    2    1    2    0    0  0.00000000000E+00  0.00000000000E+00 -0.13735375895E+01  0.95195224869E+02  0.95185315214E+02 0.  0.
          2    1    3    3  502    0 -0.23252250199E+02  0.74294769932E+00  0.40836729388E+02  0.46998484845E+02  0.00000000000E+00 0. -1.
         -2    1    3    3    0  502  0.23252250199E+02 -0.74294769932E+00 -0.42210266978E+02  0.48196740024E+02  0.00000000000E+00 0.  1.
<mgrwt>
<rscale>  0 0.95185315E+02</rscale>
<asrwt>0</asrwt>
<pdfrwt beam="2">  1        2 0.74283663E-02 0.95185315E+02</pdfrwt>
<pdfrwt beam="1">  1       -2 0.72170529E-02 0.95185315E+02</pdfrwt>
<totfact> 0.88511673E+04</totfact>
</mgrwt>
</event>
<event>
 5    1  0.3921687E+001  0.9148194E+02  0.7546771E-02  0.1299302E+00
          2   -1    0    0  501    0  0.00000000000E+00  0.00000000000E+00  0.49353382223E+03  0.49353382223E+03  0.00000000000E+00 0. -1.
         -2   -1    0    0    0  501 -0.00000000000E+00 -0.00000000000E+00 -0.42392963972E+01  0.42392963972E+01  0.00000000000E+00 0.  1.
         23    2    1    2    0    0  0.00000000000E+00  0.00000000000E+00  0.48929452583E+03  0.49777311863E+03  0.91481936020E+02 0.  0.
          2    1    3    3  502    0  0.15917439109E+01  0.41630619733E+02  0.34739756618E+03  0.34988671186E+03  0.00000000000E+00 0. -1.
         -2    1    3    3    0  502 -0.15917439109E+01 -0.41630619733E+02  0.14189695965E+03  0.14788640677E+03  0.00000000000E+00 0.  1.
<mgrwt>
<rscale>  0 0.91481936E+02</rscale>
<asrwt>0</asrwt>
<pdfrwt beam="1">  1        2 0.75928235E-01 0.91481936E+02</pdfrwt>
<pdfrwt beam="2">  1       -2 0.65219984E-03 0.91481936E+02</pdfrwt>
<totfact> 0.21269355E+05</totfact>
</mgrwt>
</event>
<event>
 5    1  0.3921687E+001  0.9459276E+02  0.7546771E-02  0.1292096E+00
          4   -1    0    0  501    0  0.00000000000E+00  0.00000000000E+00  0.36307903952E+03  0.36307903952E+03  0.00000000000E+00 0.  1.
         -4   -1    0    0    0  501 -0.00000000000E+00 -0.00000000000E+00 -0.61610487316E+01  0.61610487316E+01  0.00000000000E+00 0. -1.
         23    2    1    2    0    0  0.00000000000E+00  0.00000000000E+00  0.35691799079E+03  0.36924008825E+03  0.94592762004E+02 0.  0.
          2    1    3    3  502    0 -0.14314833004E+02  0.20295691687E+02  0.21341597476E+02  0.32745890243E+02  0.00000000000E+00 0. -1.
         -2    1    3    3    0  502  0.14314833004E+02 -0.20295691687E+02  0.33557639331E+03  0.33649419801E+03  0.00000000000E+00 0.  1.
<mgrwt>
<rscale>  0 0.94592762E+02</rscale>
<asrwt>0</asrwt>
<pdfrwt beam="1">  1        4 0.55858297E-01 0.94592762E+02</pdfrwt>
<pdfrwt beam="2">  1       -4 0.94785394E-03 0.94592762E+02</pdfrwt>
<totfact> 0.14416527E+04</totfact>
</mgrwt>
</event>
<event>
 5    1  0.3921687E+001  0.9471396E+02  0.7546771E-02  0.1291822E+00
         -3   -1    0    0    0  501 -0.00000000000E+00  0.00000000000E+00  0.17172455984E+03  0.17172455984E+03  0.00000000000E+00 0.  1.
          3   -1    0    0  501    0  0.00000000000E+00 -0.00000000000E+00 -0.13059771410E+02  0.13059771410E+02  0.00000000000E+00 0. -1.
         23    2    1    2    0    0  0.00000000000E+00  0.00000000000E+00  0.15866478843E+03  0.18478433125E+03  0.94713958782E+02 0.  0.
          2    1    3    3  502    0  0.21194401161E+02  0.36337482882E+02  0.36898486426E+02  0.55956354450E+02  0.00000000000E+00 0. -1.
         -2    1    3    3    0  502 -0.21194401161E+02 -0.36337482882E+02  0.12176630200E+03  0.12882797680E+03  0.00000000000E+00 0.  1.
<mgrwt>
<rscale>  0 0.94713959E+02</rscale>
<asrwt>0</asrwt>
<pdfrwt beam="2">  1        3 0.20091957E-02 0.94713959E+02</pdfrwt>
<pdfrwt beam="1">  1       -3 0.26419161E-01 0.94713959E+02</pdfrwt>
<totfact> 0.26431917E+04</totfact>
</mgrwt>
</event>
<event>
 5    1  0.3921687E+001  0.9194667E+02  0.7546771E-02  0.1298205E+00
         -4   -1    0    0    0  501 -0.00000000000E+00  0.00000000000E+00  0.74920264910E+02  0.74920264910E+02  0.00000000000E+00 0.  1.
          4   -1    0    0  501    0  0.00000000000E+00 -0.00000000000E+00 -0.28210623920E+02  0.28210623920E+02  0.00000000000E+00 0. -1.
         23    2    1    2    0    0  0.00000000000E+00  0.00000000000E+00  0.46709640989E+02  0.10313088883E+03  0.91946667528E+02 0.  0.
          2    1    3    3  502    0  0.92377569928E+01 -0.42360037720E+02  0.62029793681E+01  0.43797099253E+02  0.00000000000E+00 0. -1.
         -2    1    3    3    0  502 -0.92377569928E+01  0.42360037720E+02  0.40506661621E+02  0.59333789577E+02  0.00000000000E+00 0.  1.
<mgrwt>
<rscale>  0 0.91946668E+02</rscale>
<asrwt>0</asrwt>
<pdfrwt beam="2">  1        4 0.43400960E-02 0.91946668E+02</pdfrwt>
<pdfrwt beam="1">  1       -4 0.11526195E-01 0.91946668E+02</pdfrwt>
<totfact> 0.25672916E+04</totfact>
</mgrwt>
</event>
<event>
 5    1  0.3921687E+001  0.9186801E+02  0.7546771E-02  0.1298390E+00
          1   -1    0    0  501    0  0.00000000000E+00  0.00000000000E+00  0.57868957864E+03  0.57868957864E+03  0.00000000000E+00 0. -1.
         -1   -1    0    0    0  501 -0.00000000000E+00 -0.00000000000E+00 -0.36460528969E+01  0.36460528969E+01  0.00000000000E+00 0.  1.
         23    2    1    2    0    0  0.00000000000E+00  0.00000000000E+00  0.57504352574E+03  0.58233563154E+03  0.91868009983E+02 0.  0.
          2    1    3    3  502    0  0.35222844073E+01  0.44134581127E+02  0.36506952873E+03  0.36774451531E+03  0.00000000000E+00 0. -1.
         -2    1    3    3    0  502 -0.35222844073E+01 -0.44134581127E+02  0.20997399702E+03  0.21459111622E+03  0.00000000000E+00 0.  1.
<mgrwt>
<rscale>  0 0.91868010E+02</rscale>
<asrwt>0</asrwt>
<pdfrwt beam="1">  1        1 0.89029093E-01 0.91868010E+02</pdfrwt>
<pdfrwt beam="2">  1       -1 0.56093167E-03 0.91868010E+02</pdfrwt>
<totfact> 0.13844955E+05</totfact>
</mgrwt>
</event>
<event>
 5    1  0.3921687E+001  0.9086001E+02  0.7546771E-02  0.1300782E+00
          2   -1    0    0  501    0  0.00000000000E+00  0.00000000000E+00  0.78396412645E+02  0.78396412645E+02  0.00000000000E+00 0. -1.
         -2   -1    0    0    0  501 -0.00000000000E+00 -0.00000000000E+00 -0.26326273014E+02  0.26326273014E+02  0.00000000000E+00 0.  1.
         23    2    1    2    0    0  0.00000000000E+00  0.00000000000E+00  0.52070139632E+02  0.10472268566E+03  0.90860010182E+02 0.  0.
          2    1    3    3  502    0  0.31648339346E+02  0.30898666743E+02  0.14082707244E+02  0.46418397573E+02  0.00000000000E+00 0. -1.
         -2    1    3    3    0  502 -0.31648339346E+02 -0.30898666743E+02  0.37987432387E+02  0.58304288086E+02  0.00000000000E+00 0.  1.
<mgrwt>
<rscale>  0 0.90860010E+02</rscale>
<asrwt>0</asrwt>
<pdfrwt beam="1">  1        2 0.12060986E-01 0.90860010E+02</pdfrwt>
<pdfrwt beam="2">  1       -2 0.40501959E-02 0.90860010E+02</pdfrwt>
<totfact> 0.11530489E+05</totfact>
</mgrwt>
</event>
<event>
 5    1  0.3921687E+001  0.8556393E+02  0.7546771E-02  0.1313964E+00
         -1   -1    0    0    0  501 -0.00000000000E+00  0.00000000000E+00  0.14289977938E+03  0.14289977938E+03  0.00000000000E+00 0.  1.
          1   -1    0    0  501    0  0.00000000000E+00 -0.00000000000E+00 -0.12808254396E+02  0.12808254396E+02  0.00000000000E+00 0. -1.
         23    2    1    2    0    0  0.00000000000E+00  0.00000000000E+00  0.13009152499E+03  0.15570803378E+03  0.85563934631E+02 0.  0.
          2    1    3    3  502    0 -0.41434082387E+02 -0.97644279801E+01  0.57288800801E+02  0.71373201794E+02  0.00000000000E+00 0. -1.
         -2    1    3    3    0  502  0.41434082387E+02  0.97644279801E+01  0.72802724185E+02  0.84334831983E+02  0.00000000000E+00 0.  1.
<mgrwt>
<rscale>  0 0.85563935E+02</rscale>
<asrwt>0</asrwt>
<pdfrwt beam="2">  1        1 0.19705008E-02 0.85563935E+02</pdfrwt>
<pdfrwt beam="1">  1       -1 0.21984580E-01 0.85563935E+02</pdfrwt>
<totfact> 0.89143281E+04</totfact>
</mgrwt>
</event>
<event>
 5    1  0.3921687E+001  0.9062213E+02  0.7546771E-02  0.1301352E+00
         -2   -1    0    0    0  501 -0.00000000000E+00  0.00000000000E+00  0.37478541354E+02  0.37478541354E+02  0.00000000000E+00 0.  1.
          2   -1    0    0  501    0  0.00000000000E+00 -0.00000000000E+00 -0.54780478855E+02  0.54780478855E+02  0.00000000000E+00 0. -1.
         23    2    1    2    0    0  0.00000000000E+00  0.00000000000E+00 -0.17301937501E+02  0.92259020208E+02  0.90622126264E+02 0.  0.
          2    1    3    3  502    0 -0.44976028705E+02 -0.53151056408E+01 -0.10090344060E+02  0.46399445571E+02  0.00000000000E+00 0. -1.
         -2    1    3    3    0  502  0.44976028705E+02  0.53151056408E+01 -0.72115934414E+01  0.45859574638E+02  0.00000000000E+00 0.  1.
<mgrwt>
<rscale>  0 0.90622126E+02</rscale>
<asrwt>0</asrwt>
<pdfrwt beam="2">  1        2 0.84277660E-02 0.90622126E+02</pdfrwt>
<pdfrwt beam="1">  1       -2 0.57659295E-02 0.90622126E+02</pdfrwt>
<totfact> 0.10533631E+05</totfact>
</mgrwt>
</event>
<event>
 5    1  0.3921687E+001  0.9223635E+02  0.7546771E-02  0.1297525E+00
          1   -1    0    0  501    0  0.00000000000E+00  0.00000000000E+00  0.39782537474E+02  0.39782537474E+02  0.00000000000E+00 0. -1.
         -1   -1    0    0    0  501 -0.00000000000E+00 -0.00000000000E+00 -0.53462803652E+02  0.53462803652E+02  0.00000000000E+00 0.  1.
         23    2    1    2    0    0  0.00000000000E+00  0.00000000000E+00 -0.13680266178E+02  0.93245341126E+02  0.92236348361E+02 0.  0.
          2    1    3    3  502    0  0.32167398117E+02  0.31540782670E+02 -0.16813319530E+02  0.48085862649E+02  0.00000000000E+00 0. -1.
         -2    1    3    3    0  502 -0.32167398117E+02 -0.31540782670E+02  0.31330533524E+01  0.45159478477E+02  0.00000000000E+00 0.  1.
<mgrwt>
<rscale>  0 0.92236348E+02</rscale>
<asrwt>0</asrwt>
<pdfrwt beam="1">  1        1 0.61203904E-02 0.92236348E+02</pdfrwt>
<pdfrwt beam="2">  1       -1 0.82250467E-02 0.92236348E+02</pdfrwt>
<totfact> 0.87673494E+04</totfact>
</mgrwt>
</event>
<event>
 5    1  0.3921687E+001  0.9283492E+02  0.7546771E-02  0.1296128E+00
          2   -1    0    0  501    0  0.00000000000E+00  0.00000000000E+00  0.20378112957E+03  0.20378112957E+03  0.00000000000E+00 0. -1.
         -2   -1    0    0    0  501 -0.00000000000E+00 -0.00000000000E+00 -0.10573014056E+02  0.10573014056E+02  0.00000000000E+00 0.  1.
         23    2    1    2    0    0  0.00000000000E+00  0.00000000000E+00  0.19320811551E+03  0.21435414362E+03  0.92834923327E+02 0.  0.
          2    1    3    3  502    0 -0.34125761438E+02 -0.89241113057E+01  0.16627156602E+03  0.16997188304E+03  0.00000000000E+00 0. -1.
         -2    1    3    3    0  502  0.34125761438E+02  0.89241113057E+01  0.26936549491E+02  0.44382260586E+02  0.00000000000E+00 0.  1.
<mgrwt>
<rscale>  0 0.92834923E+02</rscale>
<asrwt>0</asrwt>
<pdfrwt beam="1">  1        2 0.31350940E-01 0.92834923E+02</pdfrwt>
<pdfrwt beam="2">  1       -2 0.16266177E-02 0.92834923E+02</pdfrwt>
<totfact> 0.14834647E+05</totfact>
</mgrwt>
</event>
<event>
 5    1  0.3921687E+001  0.9461326E+02  0.7546771E-02  0.1292049E+00
         -2   -1    0    0    0  501 -0.00000000000E+00  0.00000000000E+00  0.10288528550E+04  0.10288528550E+04  0.00000000000E+00 0. -1.
          2   -1    0    0  501    0  0.00000000000E+00 -0.00000000000E+00 -0.21751579143E+01  0.21751579143E+01  0.00000000000E+00 0.  1.
         23    2    1    2    0    0  0.00000000000E+00  0.00000000000E+00  0.10266776971E+04  0.10310280129E+04  0.94613263980E+02 0.  0.
          2    1    3    3  502    0 -0.10239934737E+02  0.34631308063E+02  0.84632789633E+03  0.84709804148E+03  0.00000000000E+00 0. -1.
         -2    1    3    3    0  502  0.10239934737E+02 -0.34631308063E+02  0.18034980074E+03  0.18392997143E+03  0.00000000000E+00 0.  1.
<mgrwt>
<rscale>  0 0.94613264E+02</rscale>
<asrwt>0</asrwt>
<pdfrwt beam="2">  1        2 0.33464050E-03 0.94613264E+02</pdfrwt>
<pdfrwt beam="1">  1       -2 0.15828467E+00 0.94613264E+02</pdfrwt>
<totfact> 0.16405264E+04</totfact>
</mgrwt>
</event>
<event>
 5    1  0.3921687E+001  0.9466432E+02  0.7546771E-02  0.1291934E+00
          2   -1    0    0  501    0  0.00000000000E+00  0.00000000000E+00  0.73792631551E+03  0.73792631551E+03  0.00000000000E+00 0. -1.
         -2   -1    0    0    0  501 -0.00000000000E+00 -0.00000000000E+00 -0.30359853975E+01  0.30359853975E+01  0.00000000000E+00 0.  1.
         23    2    1    2    0    0  0.00000000000E+00  0.00000000000E+00  0.73489033012E+03  0.74096230091E+03  0.94664323129E+02 0.  0.
          2    1    3    3  502    0  0.42043948546E+02  0.11401354749E+02  0.51233386803E+03  0.51418253260E+03  0.00000000000E+00 0. -1.
         -2    1    3    3    0  502 -0.42043948546E+02 -0.11401354749E+02  0.22255646209E+03  0.22677976831E+03  0.00000000000E+00 0.  1.
<mgrwt>
<rscale>  0 0.94664323E+02</rscale>
<asrwt>0</asrwt>
<pdfrwt beam="1">  1        2 0.11352698E+00 0.94664323E+02</pdfrwt>
<pdfrwt beam="2">  1       -2 0.46707526E-03 0.94664323E+02</pdfrwt>
<totfact> 0.21728979E+05</totfact>
</mgrwt>
</event>
<event>
 5    1  0.3921687E+001  0.9035438E+02  0.7546771E-02  0.1301996E+00
         -2   -1    0    0    0  501 -0.00000000000E+00  0.00000000000E+00  0.11758459334E+02  0.11758459334E+02  0.00000000000E+00 0. -1.
          2   -1    0    0  501    0  0.00000000000E+00 -0.00000000000E+00 -0.17357534889E+03  0.17357534889E+03  0.00000000000E+00 0.  1.
         23    2    1    2    0    0  0.00000000000E+00  0.00000000000E+00 -0.16181688956E+03  0.18533380823E+03  0.90354384095E+02 0.  0.
          2    1    3    3  502    0 -0.39569169264E+02  0.30950907484E+01 -0.36644594909E+02  0.54019673074E+02  0.00000000000E+00 0. -1.
         -2    1    3    3    0  502  0.39569169264E+02 -0.30950907484E+01 -0.12517229465E+03  0.13131413515E+03  0.00000000000E+00 0.  1.
<mgrwt>
<rscale>  0 0.90354384E+02</rscale>
<asrwt>0</asrwt>
<pdfrwt beam="2">  1        2 0.26703898E-01 0.90354384E+02</pdfrwt>
<pdfrwt beam="1">  1       -2 0.18089939E-02 0.90354384E+02</pdfrwt>
<totfact> 0.15068817E+05</totfact>
</mgrwt>
</event>
<event>
 5    1  0.3921687E+001  0.8350478E+02  0.7546771E-02  0.1319390E+00
          1   -1    0    0  501    0  0.00000000000E+00  0.00000000000E+00  0.17175294136E+01  0.17175294136E+01  0.00000000000E+00 0. -1.
         -1   -1    0    0    0  501 -0.00000000000E+00 -0.00000000000E+00 -0.10149823035E+04  0.10149823035E+04  0.00000000000E+00 0.  1.
         23    2    1    2    0    0  0.00000000000E+00  0.00000000000E+00 -0.10132647741E+04  0.10166998329E+04  0.83504777362E+02 0.  0.
          2    1    3    3  502    0 -0.30833712394E+02 -0.27873644756E+02 -0.55472743426E+03  0.55628246800E+03  0.00000000000E+00 0. -1.
         -2    1    3    3    0  502  0.30833712394E+02  0.27873644756E+02 -0.45853733984E+03  0.46041736492E+03  0.00000000000E+00 0.  1.
<mgrwt>
<rscale>  0 0.83504777E+02</rscale>
<asrwt>0</asrwt>
<pdfrwt beam="1">  1        1 0.26423499E-03 0.83504777E+02</pdfrwt>
<pdfrwt beam="2">  1       -1 0.15615130E+00 0.83504777E+02</pdfrwt>
<totfact> 0.31711194E+04</totfact>
</mgrwt>
</event>
<event>
 5    1  0.3921687E+001  0.9246714E+02  0.7546771E-02  0.1296985E+00
         -1   -1    0    0    0  501 -0.00000000000E+00  0.00000000000E+00  0.29426455131E+02  0.29426455131E+02  0.00000000000E+00 0.  1.
          1   -1    0    0  501    0  0.00000000000E+00 -0.00000000000E+00 -0.72640181587E+02  0.72640181587E+02  0.00000000000E+00 0. -1.
         23    2    1    2    0    0  0.00000000000E+00  0.00000000000E+00 -0.43213726456E+02  0.10206663672E+03  0.92467141065E+02 0.  0.
          2    1    3    3  502    0 -0.44493709100E+02  0.35603892675E+01 -0.34906646666E+02  0.56664278895E+02  0.00000000000E+00 0. -1.
         -2    1    3    3    0  502  0.44493709100E+02 -0.35603892675E+01 -0.83070797892E+01  0.45402357823E+02  0.00000000000E+00 0.  1.
<mgrwt>
<rscale>  0 0.92467141E+02</rscale>
<asrwt>0</asrwt>
<pdfrwt beam="2">  1        1 0.11175412E-01 0.92467141E+02</pdfrwt>
<pdfrwt beam="1">  1       -1 0.45271470E-02 0.92467141E+02</pdfrwt>
<totfact> 0.95459454E+04</totfact>
</mgrwt>
</event>
<event>
 5    1  0.3921687E+001  0.9444666E+02  0.7546771E-02  0.1292427E+00
          1   -1    0    0  501    0  0.00000000000E+00  0.00000000000E+00  0.29056992770E+03  0.29056992770E+03  0.00000000000E+00 0. -1.
         -1   -1    0    0    0  501 -0.00000000000E+00 -0.00000000000E+00 -0.76747204640E+01  0.76747204640E+01  0.00000000000E+00 0.  1.
         23    2    1    2    0    0  0.00000000000E+00  0.00000000000E+00  0.28289520724E+03  0.29824464817E+03  0.94446661569E+02 0.  0.
          2    1    3    3  502    0  0.44188093018E+02  0.14539038253E+02  0.16711572159E+03  0.17346940826E+03  0.00000000000E+00 0. -1.
         -2    1    3    3    0  502 -0.44188093018E+02 -0.14539038253E+02  0.11577948565E+03  0.12477523991E+03  0.00000000000E+00 0.  1.
<mgrwt>
<rscale>  0 0.94446662E+02</rscale>
<asrwt>0</asrwt>
<pdfrwt beam="1">  1        1 0.44703057E-01 0.94446662E+02</pdfrwt>
<pdfrwt beam="2">  1       -1 0.11807265E-02 0.94446662E+02</pdfrwt>
<totfact> 0.11589877E+05</totfact>
</mgrwt>
</event>
<event>
 5    1  0.3921687E+001  0.9224166E+02  0.7546771E-02  0.1297512E+00
         -1   -1    0    0    0  501 -0.00000000000E+00  0.00000000000E+00  0.88188062433E+01  0.88188062433E+01  0.00000000000E+00 0.  1.
          1   -1    0    0  501    0  0.00000000000E+00 -0.00000000000E+00 -0.24120397776E+03  0.24120397776E+03  0.00000000000E+00 0. -1.
         23    2    1    2    0    0  0.00000000000E+00  0.00000000000E+00 -0.23238517152E+03  0.25002278401E+03  0.92241664014E+02 0.  0.
          2    1    3    3  502    0  0.33195779380E+02  0.17032195750E+02 -0.42704237485E+02  0.56707207300E+02  0.00000000000E+00 0.  1.
         -2    1    3    3    0  502 -0.33195779380E+02 -0.17032195750E+02 -0.18968093404E+03  0.19331557671E+03  0.00000000000E+00 0. -1.
<mgrwt>
<rscale>  0 0.92241664E+02</rscale>
<asrwt>0</asrwt>
<pdfrwt beam="2">  1        1 0.37108306E-01 0.92241664E+02</pdfrwt>
<pdfrwt beam="1">  1       -1 0.13567394E-02 0.92241664E+02</pdfrwt>
<totfact> 0.11905175E+05</totfact>
</mgrwt>
</event>
<event>
 5    1  0.3921687E+001  0.9136945E+02  0.7546771E-02  0.1299569E+00
          3   -1    0    0  501    0  0.00000000000E+00  0.00000000000E+00  0.51950901695E+02  0.51950901695E+02  0.00000000000E+00 0. -1.
         -3   -1    0    0    0  501 -0.00000000000E+00 -0.00000000000E+00 -0.40174355192E+02  0.40174355192E+02  0.00000000000E+00 0.  1.
         23    2    1    2    0    0  0.00000000000E+00  0.00000000000E+00  0.11776546503E+02  0.92125256887E+02  0.91369447350E+02 0.  0.
          2    1    3    3  502    0  0.43622000600E+02  0.67652171915E+01  0.17751949759E+02  0.47579184737E+02  0.00000000000E+00 0. -1.
         -2    1    3    3    0  502 -0.43622000600E+02 -0.67652171915E+01 -0.59754032560E+01  0.44546072151E+02  0.00000000000E+00 0.  1.
<mgrwt>
<rscale>  0 0.91369447E+02</rscale>
<asrwt>0</asrwt>
<pdfrwt beam="1">  1        3 0.79924464E-02 0.91369447E+02</pdfrwt>
<pdfrwt beam="2">  1       -3 0.61806700E-02 0.91369447E+02</pdfrwt>
<totfact> 0.35063589E+04</totfact>
</mgrwt>
</event>
<event>
 5    1  0.3921687E+001  0.1103047E+03  0.7546771E-02  0.1260007E+00
         -2   -1    0    0    0  501 -0.00000000000E+00  0.00000000000E+00  0.51288181560E+01  0.51288181560E+01  0.00000000000E+00 0.  1.
          2   -1    0    0  501    0  0.00000000000E+00 -0.00000000000E+00 -0.59307633925E+03  0.59307633925E+03  0.00000000000E+00 0. -1.
         23    2    1    2    0    0  0.00000000000E+00  0.00000000000E+00 -0.58794752109E+03  0.59820515740E+03  0.11030468162E+03 0.  0.
          2    1    3    3  502    0  0.28229933313E+02  0.39041806132E+02 -0.43955318641E+03  0.44218570244E+03  0.00000000000E+00 0. -1.
         -2    1    3    3    0  502 -0.28229933313E+02 -0.39041806132E+02 -0.14839433468E+03  0.15601945496E+03  0.00000000000E+00 0.  1.
<mgrwt>
<rscale>  0 0.11030468E+03</rscale>
<asrwt>0</asrwt>
<pdfrwt beam="2">  1        2 0.91242486E-01 0.11030468E+03</pdfrwt>
<pdfrwt beam="1">  1       -2 0.78904919E-03 0.11030468E+03</pdfrwt>
<totfact> 0.13664104E+05</totfact>
</mgrwt>
</event>
<event>
 5    1  0.3921687E+001  0.9023176E+02  0.7546771E-02  0.1302291E+00
          3   -1    0    0  501    0  0.00000000000E+00  0.00000000000E+00  0.17812142482E+03  0.17812142482E+03  0.00000000000E+00 0. -1.
         -3   -1    0    0    0  501 -0.00000000000E+00 -0.00000000000E+00 -0.11427275352E+02  0.11427275352E+02  0.00000000000E+00 0.  1.
         23    2    1    2    0    0  0.00000000000E+00  0.00000000000E+00  0.16669414947E+03  0.18954870017E+03  0.90231758655E+02 0.  0.
          2    1    3    3  502    0  0.15062885332E+02  0.29534095672E+02  0.14762567428E+03  0.15130265374E+03  0.00000000000E+00 0. -1.
         -2    1    3    3    0  502 -0.15062885332E+02 -0.29534095672E+02  0.19068475185E+02  0.38246046431E+02  0.00000000000E+00 0.  1.
<mgrwt>
<rscale>  0 0.90231759E+02</rscale>
<asrwt>0</asrwt>
<pdfrwt beam="1">  1        3 0.27403294E-01 0.90231759E+02</pdfrwt>
<pdfrwt beam="2">  1       -3 0.17580425E-02 0.90231759E+02</pdfrwt>
<totfact> 0.29875311E+04</totfact>
</mgrwt>
</event>
<event>
 5    1  0.3921687E+001  0.9192901E+02  0.7546771E-02  0.1298246E+00
         -4   -1    0    0    0  501 -0.00000000000E+00  0.00000000000E+00  0.69171286178E+03  0.69171286178E+03  0.00000000000E+00 0.  1.
          4   -1    0    0  501    0  0.00000000000E+00 -0.00000000000E+00 -0.30543535913E+01  0.30543535913E+01  0.00000000000E+00 0. -1.
         23    2    1    2    0    0  0.00000000000E+00  0.00000000000E+00  0.68865850819E+03  0.69476721537E+03  0.91929008774E+02 0.  0.
          2    1    3    3  502    0 -0.99193755961E+00 -0.45182190147E+02  0.40770608894E+03  0.41020320478E+03  0.00000000000E+00 0. -1.
         -2    1    3    3    0  502  0.99193755961E+00  0.45182190147E+02  0.28095241924E+03  0.28456401059E+03  0.00000000000E+00 0.  1.
<mgrwt>
<rscale>  0 0.91929009E+02</rscale>
<asrwt>0</asrwt>
<pdfrwt beam="2">  1        4 0.46990110E-03 0.91929009E+02</pdfrwt>
<pdfrwt beam="1">  1       -4 0.10641724E+00 0.91929009E+02</pdfrwt>
<totfact> 0.98912593E+03</totfact>
</mgrwt>
</event>
<event>
 5    1  0.3921687E+001  0.8912601E+02  0.7546771E-02  0.1304982E+00
         -2   -1    0    0    0  501 -0.00000000000E+00  0.00000000000E+00  0.10287739614E+01  0.10287739614E+01  0.00000000000E+00 0.  1.
          2   -1    0    0  501    0  0.00000000000E+00 -0.00000000000E+00 -0.19303184164E+04  0.19303184164E+04  0.00000000000E+00 0. -1.
         23    2    1    2    0    0  0.00000000000E+00  0.00000000000E+00 -0.19292896424E+04  0.19313471904E+04  0.89126007967E+02 0.  0.
          2    1    3    3  502    0 -0.32118407455E+02 -0.26636474520E+02 -0.13036706067E+04  0.13043382018E+04  0.00000000000E+00 0. -1.
         -2    1    3    3    0  502  0.32118407455E+02  0.26636474520E+02 -0.62561903571E+03  0.62700898855E+03  0.00000000000E+00 0.  1.
<mgrwt>
<rscale>  0 0.89126008E+02</rscale>
<asrwt>0</asrwt>
<pdfrwt beam="2">  1        2 0.29697413E+00 0.89126008E+02</pdfrwt>
<pdfrwt beam="1">  1       -2 0.15827182E-03 0.89126008E+02</pdfrwt>
<totfact> 0.21568839E+05</totfact>
</mgrwt>
</event>
<event>
 5    1  0.3921687E+001  0.9120252E+02  0.7546771E-02  0.1299965E+00
          1   -1    0    0  501    0  0.00000000000E+00  0.00000000000E+00  0.55601738183E+01  0.55601738183E+01  0.00000000000E+00 0. -1.
         -1   -1    0    0    0  501 -0.00000000000E+00 -0.00000000000E+00 -0.37399455354E+03  0.37399455354E+03  0.00000000000E+00 0.  1.
         23    2    1    2    0    0  0.00000000000E+00  0.00000000000E+00 -0.36843437973E+03  0.37955472736E+03  0.91202515860E+02 0.  0.
          2    1    3    3  502    0 -0.19168331641E+01  0.31090551749E+02 -0.45615596508E+02  0.55236575765E+02  0.00000000000E+00 0. -1.
         -2    1    3    3    0  502  0.19168331641E+01 -0.31090551749E+02 -0.32281878322E+03  0.32431815160E+03  0.00000000000E+00 0.  1.
<mgrwt>
<rscale>  0 0.91202516E+02</rscale>
<asrwt>0</asrwt>
<pdfrwt beam="1">  1        1 0.85541104E-03 0.91202516E+02</pdfrwt>
<pdfrwt beam="2">  1       -1 0.57537645E-01 0.91202516E+02</pdfrwt>
<totfact> 0.55035842E+04</totfact>
</mgrwt>
</event>
<event>
 5    1  0.3921687E+001  0.9353648E+02  0.7546771E-02  0.1294507E+00
         -3   -1    0    0    0  501 -0.00000000000E+00  0.00000000000E+00  0.24141286171E+02  0.24141286171E+02  0.00000000000E+00 0.  1.
          3   -1    0    0  501    0  0.00000000000E+00 -0.00000000000E+00 -0.90602811526E+02  0.90602811526E+02  0.00000000000E+00 0. -1.
         23    2    1    2    0    0  0.00000000000E+00  0.00000000000E+00 -0.66461525355E+02  0.11474409770E+03  0.93536482743E+02 0.  0.
          2    1    3    3  502    0 -0.16446107823E+02  0.23325023621E+02 -0.78681718771E+02  0.83697933416E+02  0.00000000000E+00 0. -1.
         -2    1    3    3    0  502  0.16446107823E+02 -0.23325023621E+02  0.12220193416E+02  0.31046164281E+02  0.00000000000E+00 0.  1.
<mgrwt>
<rscale>  0 0.93536483E+02</rscale>
<asrwt>0</asrwt>
<pdfrwt beam="2">  1        3 0.13938894E-01 0.93536483E+02</pdfrwt>
<pdfrwt beam="1">  1       -3 0.37140440E-02 0.93536483E+02</pdfrwt>
<totfact> 0.31348937E+04</totfact>
</mgrwt>
</event>
<event>
 5    1  0.3921687E+001  0.9170292E+02  0.7546771E-02  0.1298779E+00
         -2   -1    0    0    0  501 -0.00000000000E+00  0.00000000000E+00  0.84965222461E+02  0.84965222461E+02  0.00000000000E+00 0.  1.
          2   -1    0    0  501    0  0.00000000000E+00 -0.00000000000E+00 -0.24743730482E+02  0.24743730482E+02  0.00000000000E+00 0. -1.
         23    2    1    2    0    0  0.00000000000E+00  0.00000000000E+00  0.60221491979E+02  0.10970895294E+03  0.91702923943E+02 0.  0.
          2    1    3    3  502    0 -0.26037019920E+02  0.34105687138E+02  0.49446997818E+02  0.65468541260E+02  0.00000000000E+00 0.  1.
         -2    1    3    3    0  502  0.26037019920E+02 -0.34105687138E+02  0.10774494161E+02  0.44240411683E+02  0.00000000000E+00 0. -1.
<mgrwt>
<rscale>  0 0.91702924E+02</rscale>
<asrwt>0</asrwt>
<pdfrwt beam="2">  1        2 0.38067278E-02 0.91702924E+02</pdfrwt>
<pdfrwt beam="1">  1       -2 0.13071572E-01 0.91702924E+02</pdfrwt>
<totfact> 0.82483036E+04</totfact>
</mgrwt>
</event>
<event>
 5    1  0.3921687E+001  0.9087333E+02  0.7546771E-02  0.1300750E+00
          3   -1    0    0  501    0  0.00000000000E+00  0.00000000000E+00  0.11325948747E+02  0.11325948747E+02  0.00000000000E+00 0. -1.
         -3   -1    0    0    0  501 -0.00000000000E+00 -0.00000000000E+00 -0.18227971494E+03  0.18227971494E+03  0.00000000000E+00 0.  1.
         23    2    1    2    0    0  0.00000000000E+00  0.00000000000E+00 -0.17095376619E+03  0.19360566368E+03  0.90873334022E+02 0.  0.
          2    1    3    3  502    0 -0.11269916122E+02 -0.33213932864E+02 -0.14701531932E+03  0.15114125995E+03  0.00000000000E+00 0.  1.
         -2    1    3    3    0  502  0.11269916122E+02  0.33213932864E+02 -0.23938446871E+02  0.42464403732E+02  0.00000000000E+00 0. -1.
<mgrwt>
<rscale>  0 0.90873334E+02</rscale>
<asrwt>0</asrwt>
<pdfrwt beam="1">  1        3 0.17424539E-02 0.90873334E+02</pdfrwt>
<pdfrwt beam="2">  1       -3 0.28043030E-01 0.90873334E+02</pdfrwt>
<totfact> 0.29092226E+04</totfact>
</mgrwt>
</event>
<event>
 5    1  0.3921687E+001  0.8386022E+02  0.7546771E-02  0.1318440E+00
          1   -1    0    0  501    0  0.00000000000E+00  0.00000000000E+00  0.12090862149E+04  0.12090862149E+04  0.00000000000E+00 0. -1.
         -1   -1    0    0    0  501 -0.00000000000E+00 -0.00000000000E+00 -0.14541015932E+01  0.14541015932E+01  0.00000000000E+00 0.  1.
         23    2    1    2    0    0  0.00000000000E+00  0.00000000000E+00  0.12076321133E+04  0.12105403165E+04  0.83860221591E+02 0.  0.
          2    1    3    3  502    0  0.28794992621E+01  0.41831106308E+02  0.60432033172E+03  0.60577322184E+03  0.00000000000E+00 0. -1.
         -2    1    3    3    0  502 -0.28794992621E+01 -0.41831106308E+02  0.60331178156E+03  0.60476709463E+03  0.00000000000E+00 0.  1.
<mgrwt>
<rscale>  0 0.83860222E+02</rscale>
<asrwt>0</asrwt>
<pdfrwt beam="1">  1        1 0.18601246E+00 0.83860222E+02</pdfrwt>
<pdfrwt beam="2">  1       -1 0.22370890E-03 0.83860222E+02</pdfrwt>
<totfact> 0.15812221E+05</totfact>
</mgrwt>
</event>
<event>
 5    1  0.3921687E+001  0.8466062E+02  0.7546771E-02  0.1316322E+00
          2   -1    0    0  501    0  0.00000000000E+00  0.00000000000E+00  0.53283117046E+03  0.53283117046E+03  0.00000000000E+00 0. -1.
         -2   -1    0    0    0  501 -0.00000000000E+00 -0.00000000000E+00 -0.33628949087E+01  0.33628949087E+01  0.00000000000E+00 0.  1.
         23    2    1    2    0    0  0.00000000000E+00  0.00000000000E+00  0.52946827555E+03  0.53619406537E+03  0.84660622023E+02 0.  0.
          2    1    3    3  502    0  0.31543194856E+02 -0.25901971254E+01  0.86700677940E+02  0.92296748687E+02  0.00000000000E+00 0.  1.
         -2    1    3    3    0  502 -0.31543194856E+02  0.25901971254E+01  0.44276759761E+03  0.44389731668E+03  0.00000000000E+00 0. -1.
<mgrwt>
<rscale>  0 0.84660622E+02</rscale>
<asrwt>0</asrwt>
<pdfrwt beam="1">  1        2 0.81973959E-01 0.84660622E+02</pdfrwt>
<pdfrwt beam="2">  1       -2 0.51736887E-03 0.84660622E+02</pdfrwt>
<totfact> 0.26733580E+05</totfact>
</mgrwt>
</event>
<event>
 5    1  0.3921687E+001  0.8895073E+02  0.7546771E-02  0.1305413E+00
          1   -1    0    0  501    0  0.00000000000E+00  0.00000000000E+00  0.13373144055E+04  0.13373144055E+04  0.00000000000E+00 0. -1.
         -1   -1    0    0    0  501 -0.00000000000E+00 -0.00000000000E+00 -0.14791271635E+01  0.14791271635E+01  0.00000000000E+00 0.  1.
         23    2    1    2    0    0  0.00000000000E+00  0.00000000000E+00  0.13358352783E+04  0.13387935326E+04  0.88950729358E+02 0.  0.
          2    1    3    3  502    0  0.41418115122E+02 -0.11736383007E+02  0.49974038199E+03  0.50159112068E+03  0.00000000000E+00 0. -1.
         -2    1    3    3    0  502 -0.41418115122E+02  0.11736383007E+02  0.83609489630E+03  0.83720241195E+03  0.00000000000E+00 0.  1.
<mgrwt>
<rscale>  0 0.88950729E+02</rscale>
<asrwt>0</asrwt>
<pdfrwt beam="1">  1        1 0.20573971E+00 0.88950729E+02</pdfrwt>
<pdfrwt beam="2">  1       -1 0.22755909E-03 0.88950729E+02</pdfrwt>
<totfact> 0.12811077E+05</totfact>
</mgrwt>
</event>
<event>
 5    1  0.3921687E+001  0.9021754E+02  0.7546771E-02  0.1302326E+00
          1   -1    0    0  501    0  0.00000000000E+00  0.00000000000E+00  0.18875776293E+03  0.18875776293E+03  0.00000000000E+00 0. -1.
         -1   -1    0    0    0  501 -0.00000000000E+00 -0.00000000000E+00 -0.10779958998E+02  0.10779958998E+02  0.00000000000E+00 0.  1.
         23    2    1    2    0    0  0.00000000000E+00  0.00000000000E+00  0.17797780393E+03  0.19953772192E+03  0.90217535877E+02 0.  0.
          2    1    3    3  502    0 -0.13860524499E+02 -0.42768797027E+02  0.80857393938E+02  0.92515956964E+02  0.00000000000E+00 0.  1.
         -2    1    3    3    0  502  0.13860524499E+02  0.42768797027E+02  0.97120409989E+02  0.10702176496E+03  0.00000000000E+00 0. -1.
<mgrwt>
<rscale>  0 0.90217536E+02</rscale>
<asrwt>0</asrwt>
<pdfrwt beam="1">  1        1 0.29039654E-01 0.90217536E+02</pdfrwt>
<pdfrwt beam="2">  1       -1 0.16584554E-02 0.90217536E+02</pdfrwt>
<totfact> 0.12045780E+05</totfact>
</mgrwt>
</event>
<event>
 5    1  0.3921687E+001  0.8112685E+02  0.7546771E-02  0.1325884E+00
         -1   -1    0    0    0  501 -0.00000000000E+00  0.00000000000E+00  0.32484377270E+03  0.32484377270E+03  0.00000000000E+00 0.  1.
          1   -1    0    0  501    0  0.00000000000E+00 -0.00000000000E+00 -0.50651775544E+01  0.50651775544E+01  0.00000000000E+00 0. -1.
         23    2    1    2    0    0  0.00000000000E+00  0.00000000000E+00  0.31977859515E+03  0.32990895026E+03  0.81126848483E+02 0.  0.
          2    1    3    3  502    0  0.30973294472E+02 -0.26115130409E+02  0.15170911884E+03  0.15702548120E+03  0.00000000000E+00 0. -1.
         -2    1    3    3    0  502 -0.30973294472E+02  0.26115130409E+02  0.16806947631E+03  0.17288346906E+03  0.00000000000E+00 0.  1.
<mgrwt>
<rscale>  0 0.81126848E+02</rscale>
<asrwt>0</asrwt>
<pdfrwt beam="2">  1        1 0.77925834E-03 0.81126848E+02</pdfrwt>
<pdfrwt beam="1">  1       -1 0.49975949E-01 0.81126848E+02</pdfrwt>
<totfact> 0.79509743E+04</totfact>
</mgrwt>
</event>
<event>
 5    1  0.3921687E+001  0.9341942E+02  0.7546771E-02  0.1294776E+00
         -3   -1    0    0    0  501 -0.00000000000E+00  0.00000000000E+00  0.23366827124E+02  0.23366827124E+02  0.00000000000E+00 0.  1.
          3   -1    0    0  501    0  0.00000000000E+00 -0.00000000000E+00 -0.93371549582E+02  0.93371549582E+02  0.00000000000E+00 0. -1.
         23    2    1    2    0    0  0.00000000000E+00  0.00000000000E+00 -0.70004722458E+02  0.11673837671E+03  0.93419416770E+02 0.  0.
          2    1    3    3  502    0  0.24435227100E+02  0.87491554851E+01 -0.83531376200E+02  0.87470674258E+02  0.00000000000E+00 0. -1.
         -2    1    3    3    0  502 -0.24435227100E+02 -0.87491554851E+01  0.13526653743E+02  0.29267702449E+02  0.00000000000E+00 0.  1.
<mgrwt>
<rscale>  0 0.93419417E+02</rscale>
<asrwt>0</asrwt>
<pdfrwt beam="2">  1        3 0.14364853E-01 0.93419417E+02</pdfrwt>
<pdfrwt beam="1">  1       -3 0.35948966E-02 0.93419417E+02</pdfrwt>
<totfact> 0.31326672E+04</totfact>
</mgrwt>
</event>
<event>
 5    1  0.3921687E+001  0.9130765E+02  0.7546771E-02  0.1299716E+00
          1   -1    0    0  501    0  0.00000000000E+00  0.00000000000E+00  0.56482451752E+02  0.56482451752E+02  0.00000000000E+00 0. -1.
         -1   -1    0    0    0  501 -0.00000000000E+00 -0.00000000000E+00 -0.36901224176E+02  0.36901224176E+02  0.00000000000E+00 0.  1.
         23    2    1    2    0    0  0.00000000000E+00  0.00000000000E+00  0.19581227576E+02  0.93383675928E+02  0.91307647306E+02 0.  0.
          2    1    3    3  502    0 -0.32387595009E+02 -0.25573876930E+02  0.29761288103E+02  0.50879404096E+02  0.00000000000E+00 0. -1.
         -2    1    3    3    0  502  0.32387595009E+02  0.25573876930E+02 -0.10180060527E+02  0.42504271832E+02  0.00000000000E+00 0.  1.
<mgrwt>
<rscale>  0 0.91307647E+02</rscale>
<asrwt>0</asrwt>
<pdfrwt beam="1">  1        1 0.86896080E-02 0.91307647E+02</pdfrwt>
<pdfrwt beam="2">  1       -1 0.56771114E-02 0.91307647E+02</pdfrwt>
<totfact> 0.95116155E+04</totfact>
</mgrwt>
</event>
<event>
 5    1  0.3921687E+001  0.9029841E+02  0.7546771E-02  0.1302131E+00
          2   -1    0    0  501    0  0.00000000000E+00  0.00000000000E+00  0.30167988282E+04  0.30167988282E+04  0.00000000000E+00 0. -1.
         -2   -1    0    0    0  501 -0.00000000000E+00 -0.00000000000E+00 -0.67569996901E+00  0.67569996901E+00  0.00000000000E+00 0.  1.
         23    2    1    2    0    0  0.00000000000E+00  0.00000000000E+00  0.30161231282E+04  0.30174745282E+04  0.90298413601E+02 0.  0.
          2    1    3    3  502    0 -0.30805764705E+02  0.29119145605E+02  0.20273994638E+04  0.20278425742E+04  0.00000000000E+00 0. -1.
         -2    1    3    3    0  502  0.30805764705E+02 -0.29119145605E+02  0.98872366444E+03  0.98963195401E+03  0.00000000000E+00 0.  1.
<mgrwt>
<rscale>  0 0.90298414E+02</rscale>
<asrwt>0</asrwt>
<pdfrwt beam="1">  1        2 0.46411211E+00 0.90298414E+02</pdfrwt>
<pdfrwt beam="2">  1       -2 0.10395626E-03 0.90298414E+02</pdfrwt>
<totfact> 0.10309665E+05</totfact>
</mgrwt>
</event>
<event>
 5    1  0.3921687E+001  0.1093659E+03  0.7546771E-02  0.1261749E+00
          2   -1    0    0  501    0  0.00000000000E+00  0.00000000000E+00  0.96097904151E+03  0.96097904151E+03  0.00000000000E+00 0. -1.
         -2   -1    0    0    0  501 -0.00000000000E+00 -0.00000000000E+00 -0.31116447972E+01  0.31116447972E+01  0.00000000000E+00 0.  1.
         23    2    1    2    0    0  0.00000000000E+00  0.00000000000E+00  0.95786739672E+03  0.96409068631E+03  0.10936590757E+03 0.  0.
          2    1    3    3  502    0 -0.34108600968E+02  0.28347137725E+02  0.76092177206E+03  0.76221315921E+03  0.00000000000E+00 0. -1.
         -2    1    3    3    0  502  0.34108600968E+02 -0.28347137725E+02  0.19694562465E+03  0.20187752710E+03  0.00000000000E+00 0.  1.
<mgrwt>
<rscale>  0 0.10936591E+03</rscale>
<asrwt>0</asrwt>
<pdfrwt beam="1">  1        2 0.14784269E+00 0.10936591E+03</pdfrwt>
<pdfrwt beam="2">  1       -2 0.47871535E-03 0.10936591E+03</pdfrwt>
<totfact> 0.15384413E+05</totfact>
</mgrwt>
</event>
<event>
 5    1  0.3921687E+001  0.9218695E+02  0.7546771E-02  0.1297640E+00
         -1   -1    0    0    0  501 -0.00000000000E+00  0.00000000000E+00  0.16391311335E+02  0.16391311335E+02  0.00000000000E+00 0.  1.
          1   -1    0    0  501    0  0.00000000000E+00 -0.00000000000E+00 -0.12961796808E+03  0.12961796808E+03  0.00000000000E+00 0. -1.
         23    2    1    2    0    0  0.00000000000E+00  0.00000000000E+00 -0.11322665674E+03  0.14600927941E+03  0.92186950689E+02 0.  0.
          2    1    3    3  502    0 -0.10948962493E+02 -0.25037195828E+02  0.21781983608E+01  0.27413235903E+02  0.00000000000E+00 0.  1.
         -2    1    3    3    0  502  0.10948962493E+02  0.25037195828E+02 -0.11540485510E+03  0.11859604351E+03  0.00000000000E+00 0. -1.
<mgrwt>
<rscale>  0 0.92186951E+02</rscale>
<asrwt>0</asrwt>
<pdfrwt beam="2">  1        1 0.19941226E-01 0.92186951E+02</pdfrwt>
<pdfrwt beam="1">  1       -1 0.25217402E-02 0.92186951E+02</pdfrwt>
<totfact> 0.10599609E+05</totfact>
</mgrwt>
</event>
<event>
 5    1  0.3921687E+001  0.9159408E+02  0.7546771E-02  0.1299037E+00
         -2   -1    0    0    0  501 -0.00000000000E+00  0.00000000000E+00  0.79868356579E+01  0.79868356579E+01  0.00000000000E+00 0.  1.
          2   -1    0    0  501    0  0.00000000000E+00 -0.00000000000E+00 -0.26260323375E+03  0.26260323375E+03  0.00000000000E+00 0. -1.
         23    2    1    2    0    0  0.00000000000E+00  0.00000000000E+00 -0.25461639810E+03  0.27059006941E+03  0.91594079967E+02 0.  0.
          2    1    3    3  502    0  0.47389882328E-01  0.37599637095E+02 -0.20455068625E+03  0.20797768678E+03  0.00000000000E+00 0. -1.
         -2    1    3    3    0  502 -0.47389882328E-01 -0.37599637095E+02 -0.50065711849E+02  0.62612382629E+02  0.00000000000E+00 0.  1.
<mgrwt>
<rscale>  0 0.91594080E+02</rscale>
<asrwt>0</asrwt>
<pdfrwt beam="2">  1        2 0.40400493E-01 0.91594080E+02</pdfrwt>
<pdfrwt beam="1">  1       -2 0.12287441E-02 0.91594080E+02</pdfrwt>
<totfact> 0.16887833E+05</totfact>
</mgrwt>
</event>
<event>
 5    1  0.3921687E+001  0.9142577E+02  0.7546771E-02  0.1299435E+00
          1   -1    0    0  501    0  0.00000000000E+00  0.00000000000E+00  0.20229568945E+04  0.20229568945E+04  0.00000000000E+00 0. -1.
         -1   -1    0    0    0  501 -0.00000000000E+00 -0.00000000000E+00 -0.10329768961E+01  0.10329768961E+01  0.00000000000E+00 0.  1.
         23    2    1    2    0    0  0.00000000000E+00  0.00000000000E+00  0.20219239176E+04  0.20239898714E+04  0.91425767349E+02 0.  0.
          2    1    3    3  502    0 -0.43958044489E+02 -0.27340412639E+01  0.12819911198E+04  0.12827474482E+04  0.00000000000E+00 0. -1.
         -2    1    3    3    0  502  0.43958044489E+02  0.27340412639E+01  0.73993279777E+03  0.74124242314E+03  0.00000000000E+00 0.  1.
<mgrwt>
<rscale>  0 0.91425767E+02</rscale>
<asrwt>0</asrwt>
<pdfrwt beam="1">  1        1 0.31122097E+00 0.91425767E+02</pdfrwt>
<pdfrwt beam="2">  1       -1 0.15892114E-03 0.91425767E+02</pdfrwt>
<totfact> 0.77798979E+04</totfact>
</mgrwt>
</event>
<event>
 5    1  0.3921687E+001  0.9285929E+02  0.7546771E-02  0.1296072E+00
         -2   -1    0    0    0  501 -0.00000000000E+00  0.00000000000E+00  0.75060990172E+02  0.75060990172E+02  0.00000000000E+00 0.  1.
          2   -1    0    0  501    0  0.00000000000E+00 -0.00000000000E+00 -0.28719472425E+02  0.28719472425E+02  0.00000000000E+00 0. -1.
         23    2    1    2    0    0  0.00000000000E+00  0.00000000000E+00  0.46341517747E+02  0.10378046260E+03  0.92859292209E+02 0.  0.
          2    1    3    3  502    0  0.23773045144E+02 -0.20044550894E+02  0.61704325953E+02  0.69096783842E+02  0.00000000000E+00 0.  1.
         -2    1    3    3    0  502 -0.23773045144E+02  0.20044550894E+02 -0.15362808206E+02  0.34683678754E+02  0.00000000000E+00 0. -1.
<mgrwt>
<rscale>  0 0.92859292E+02</rscale>
<asrwt>0</asrwt>
<pdfrwt beam="2">  1        2 0.44183804E-02 0.92859292E+02</pdfrwt>
<pdfrwt beam="1">  1       -2 0.11547845E-01 0.92859292E+02</pdfrwt>
<totfact> 0.82786094E+04</totfact>
</mgrwt>
</event>
<event>
 5    1  0.3921687E+001  0.9137960E+02  0.7546771E-02  0.1299545E+00
          1   -1    0    0  501    0  0.00000000000E+00  0.00000000000E+00  0.10752373019E+03  0.10752373019E+03  0.00000000000E+00 0. -1.
         -1   -1    0    0    0  501 -0.00000000000E+00 -0.00000000000E+00 -0.19414857817E+02  0.19414857817E+02  0.00000000000E+00 0.  1.
         23    2    1    2    0    0  0.00000000000E+00  0.00000000000E+00  0.88108872373E+02  0.12693858801E+03  0.91379602399E+02 0.  0.
          2    1    3    3  502    0  0.29355257767E+02 -0.28048592258E+02  0.73163465507E+02  0.83674054349E+02  0.00000000000E+00 0. -1.
         -2    1    3    3    0  502 -0.29355257767E+02  0.28048592258E+02  0.14945406866E+02  0.43264533658E+02  0.00000000000E+00 0.  1.
<mgrwt>
<rscale>  0 0.91379602E+02</rscale>
<asrwt>0</asrwt>
<pdfrwt beam="1">  1        1 0.16542112E-01 0.91379602E+02</pdfrwt>
<pdfrwt beam="2">  1       -1 0.29869013E-02 0.91379602E+02</pdfrwt>
<totfact> 0.10509276E+05</totfact>
</mgrwt>
</event>
<event>
 5    1  0.3921687E+001  0.9090573E+02  0.7546771E-02  0.1300673E+00
          2   -1    0    0  501    0  0.00000000000E+00  0.00000000000E+00  0.82442827402E+03  0.82442827402E+03  0.00000000000E+00 0. -1.
         -2   -1    0    0    0  501 -0.00000000000E+00 -0.00000000000E+00 -0.25059338875E+01  0.25059338875E+01  0.00000000000E+00 0.  1.
         23    2    1    2    0    0  0.00000000000E+00  0.00000000000E+00  0.82192234013E+03  0.82693420791E+03  0.90905725885E+02 0.  0.
          2    1    3    3  502    0  0.13023522391E+02  0.37348758289E+02  0.61465642918E+03  0.61592781056E+03  0.00000000000E+00 0. -1.
         -2    1    3    3    0  502 -0.13023522391E+02 -0.37348758289E+02  0.20726591095E+03  0.21100639735E+03  0.00000000000E+00 0.  1.
<mgrwt>
<rscale>  0 0.90905726E+02</rscale>
<asrwt>0</asrwt>
<pdfrwt beam="1">  1        2 0.12683490E+00 0.90905726E+02</pdfrwt>
<pdfrwt beam="2">  1       -2 0.38552895E-03 0.90905726E+02</pdfrwt>
<totfact> 0.24690559E+05</totfact>
</mgrwt>
</event>
<event>
 5    1  0.3921687E+001  0.9164385E+02  0.7546771E-02  0.1298919E+00
         -2   -1    0    0    0  501 -0.00000000000E+00  0.00000000000E+00  0.73535821400E+01  0.73535821400E+01  0.00000000000E+00 0.  1.
          2   -1    0    0  501    0  0.00000000000E+00 -0.00000000000E+00 -0.28552733374E+03  0.28552733374E+03  0.00000000000E+00 0. -1.
         23    2    1    2    0    0  0.00000000000E+00  0.00000000000E+00 -0.27817375160E+03  0.29288091588E+03  0.91643847625E+02 0.  0.
          2    1    3    3  502    0 -0.22890676620E+02 -0.38809806572E+02 -0.11245085531E+03  0.12114197878E+03  0.00000000000E+00 0.  1.
         -2    1    3    3    0  502  0.22890676620E+02  0.38809806572E+02 -0.16572289629E+03  0.17173893710E+03  0.00000000000E+00 0. -1.
<mgrwt>
<rscale>  0 0.91643848E+02</rscale>
<asrwt>0</asrwt>
<pdfrwt beam="2">  1        2 0.43927293E-01 0.91643848E+02</pdfrwt>
<pdfrwt beam="1">  1       -2 0.11313201E-02 0.91643848E+02</pdfrwt>
<totfact> 0.17398643E+05</totfact>
</mgrwt>
</event>
<event>
 5    1  0.3921687E+001  0.9144236E+02  0.7546771E-02  0.1299396E+00
          1   -1    0    0  501    0  0.00000000000E+00  0.00000000000E+00  0.12281941449E+04  0.12281941449E+04  0.00000000000E+00 0. -1.
         -1   -1    0    0    0  501 -0.00000000000E+00 -0.00000000000E+00 -0.17020324332E+01  0.17020324332E+01  0.00000000000E+00 0.  1.
         23    2    1    2    0    0  0.00000000000E+00  0.00000000000E+00  0.12264921125E+04  0.12298961774E+04  0.91442359308E+02 0.  0.
          2    1    3    3  502    0 -0.59467836616E+01 -0.28114235608E+02  0.10915528068E+04  0.10919309980E+04  0.00000000000E+00 0. -1.
         -2    1    3    3    0  502  0.59467836616E+01  0.28114235608E+02  0.13493930570E+03  0.13796517931E+03  0.00000000000E+00 0.  1.
<mgrwt>
<rscale>  0 0.91442359E+02</rscale>
<asrwt>0</asrwt>
<pdfrwt beam="1">  1        1 0.18895224E+00 0.91442359E+02</pdfrwt>
<pdfrwt beam="2">  1       -1 0.26185213E-03 0.91442359E+02</pdfrwt>
<totfact> 0.12491018E+05</totfact>
</mgrwt>
</event>
<event>
 5    1  0.3921687E+001  0.9047171E+02  0.7546771E-02  0.1301713E+00
          2   -1    0    0  501    0  0.00000000000E+00  0.00000000000E+00  0.17964115566E+03  0.17964115566E+03  0.00000000000E+00 0. -1.
         -2   -1    0    0    0  501 -0.00000000000E+00 -0.00000000000E+00 -0.11390944635E+02  0.11390944635E+02  0.00000000000E+00 0.  1.
         23    2    1    2    0    0  0.00000000000E+00  0.00000000000E+00  0.16825021102E+03  0.19103210029E+03  0.90471707363E+02 0.  0.
          2    1    3    3  502    0  0.35055345850E+02 -0.10880309375E+02  0.13995150568E+03  0.14468476888E+03  0.00000000000E+00 0. -1.
         -2    1    3    3    0  502 -0.35055345850E+02  0.10880309375E+02  0.28298705343E+02  0.46347331410E+02  0.00000000000E+00 0.  1.
<mgrwt>
<rscale>  0 0.90471707E+02</rscale>
<asrwt>0</asrwt>
<pdfrwt beam="1">  1        2 0.27637099E-01 0.90471707E+02</pdfrwt>
<pdfrwt beam="2">  1       -2 0.17524531E-02 0.90471707E+02</pdfrwt>
<totfact> 0.15199074E+05</totfact>
</mgrwt>
</event>
<event>
 5    1  0.3921687E+001  0.8959477E+02  0.7546771E-02  0.1303836E+00
         -2   -1    0    0    0  501 -0.00000000000E+00  0.00000000000E+00  0.21368830491E+03  0.21368830491E+03  0.00000000000E+00 0.  1.
          2   -1    0    0  501    0  0.00000000000E+00 -0.00000000000E+00 -0.93912754571E+01  0.93912754571E+01  0.00000000000E+00 0. -1.
         23    2    1    2    0    0  0.00000000000E+00  0.00000000000E+00  0.20429702945E+03  0.22307958036E+03  0.89594770681E+02 0.  0.
          2    1    3    3  502    0 -0.27387862497E+02 -0.13119749978E+02  0.20149519759E+02  0.36444835000E+02  0.00000000000E+00 0. -1.
         -2    1    3    3    0  502  0.27387862497E+02  0.13119749978E+02  0.18414750969E+03  0.18663474536E+03  0.00000000000E+00 0.  1.
<mgrwt>
<rscale>  0 0.89594771E+02</rscale>
<asrwt>0</asrwt>
<pdfrwt beam="2">  1        2 0.14448118E-02 0.89594771E+02</pdfrwt>
<pdfrwt beam="1">  1       -2 0.32875120E-01 0.89594771E+02</pdfrwt>
<totfact> 0.63290415E+04</totfact>
</mgrwt>
</event>
<event>
 5    1  0.3921687E+001  0.8617114E+02  0.7546771E-02  0.1312398E+00
         -2   -1    0    0    0  501 -0.00000000000E+00  0.00000000000E+00  0.17721137474E+01  0.17721137474E+01  0.00000000000E+00 0.  1.
          2   -1    0    0  501    0  0.00000000000E+00 -0.00000000000E+00 -0.10475436694E+04  0.10475436694E+04  0.00000000000E+00 0. -1.
         23    2    1    2    0    0  0.00000000000E+00  0.00000000000E+00 -0.10457715557E+04  0.10493157832E+04  0.86171144534E+02 0.  0.
          2    1    3    3  502    0  0.27131979036E+00  0.42148091426E+02 -0.63168629962E+03  0.63309092266E+03  0.00000000000E+00 0.  1.
         -2    1    3    3    0  502 -0.27131979036E+00 -0.42148091426E+02 -0.41408525605E+03  0.41622486051E+03  0.00000000000E+00 0. -1.
<mgrwt>
<rscale>  0 0.86171145E+02</rscale>
<asrwt>0</asrwt>
<pdfrwt beam="2">  1        2 0.16116082E+00 0.86171145E+02</pdfrwt>
<pdfrwt beam="1">  1       -2 0.27263246E-03 0.86171145E+02</pdfrwt>
<totfact> 0.29032133E+05</totfact>
</mgrwt>
</event>
<event>
 5    1  0.3921687E+001  0.8707344E+02  0.7546771E-02  0.1310098E+00
         -2   -1    0    0    0  501 -0.00000000000E+00  0.00000000000E+00  0.18064303655E+01  0.18064303655E+01  0.00000000000E+00 0.  1.
          2   -1    0    0  501    0  0.00000000000E+00 -0.00000000000E+00 -0.10492770514E+04  0.10492770514E+04  0.00000000000E+00 0. -1.
         23    2    1    2    0    0  0.00000000000E+00  0.00000000000E+00 -0.10474706210E+04  0.10510834818E+04  0.87073438601E+02 0.  0.
          2    1    3    3  502    0  0.36250279647E+02 -0.19210117412E+02 -0.69963369082E+03  0.70083551045E+03  0.00000000000E+00 0. -1.
         -2    1    3    3    0  502 -0.36250279647E+02  0.19210117412E+02 -0.34783693021E+03  0.35024797130E+03  0.00000000000E+00 0.  1.
<mgrwt>
<rscale>  0 0.87073439E+02</rscale>
<asrwt>0</asrwt>
<pdfrwt beam="2">  1        2 0.16142701E+00 0.87073439E+02</pdfrwt>
<pdfrwt beam="1">  1       -2 0.27791275E-03 0.87073439E+02</pdfrwt>
<totfact> 0.28251084E+05</totfact>
</mgrwt>
</event>
<event>
 5    1  0.3921687E+001  0.9235901E+02  0.7546771E-02  0.1297238E+00
         -2   -1    0    0    0  501 -0.00000000000E+00  0.00000000000E+00  0.18473694639E+03  0.18473694639E+03  0.00000000000E+00 0.  1.
          2   -1    0    0  501    0  0.00000000000E+00 -0.00000000000E+00 -0.11543694132E+02  0.11543694132E+02  0.00000000000E+00 0. -1.
         23    2    1    2    0    0  0.00000000000E+00  0.00000000000E+00  0.17319325226E+03  0.19628064052E+03  0.92359012641E+02 0.  0.
          2    1    3    3  502    0  0.33726861027E+02  0.13955746970E+02  0.26476494885E+02  0.45091782063E+02  0.00000000000E+00 0. -1.
         -2    1    3    3    0  502 -0.33726861027E+02 -0.13955746970E+02  0.14671675737E+03  0.15118885846E+03  0.00000000000E+00 0.  1.
<mgrwt>
<rscale>  0 0.92359013E+02</rscale>
<asrwt>0</asrwt>
<pdfrwt beam="2">  1        2 0.17759531E-02 0.92359013E+02</pdfrwt>
<pdfrwt beam="1">  1       -2 0.28421067E-01 0.92359013E+02</pdfrwt>
<totfact> 0.62361875E+04</totfact>
</mgrwt>
</event>
<event>
 5    1  0.3921687E+001  0.9568538E+02  0.7546771E-02  0.1289640E+00
         -3   -1    0    0    0  501 -0.00000000000E+00  0.00000000000E+00  0.13699384787E+02  0.13699384787E+02  0.00000000000E+00 0.  1.
          3   -1    0    0  501    0  0.00000000000E+00 -0.00000000000E+00 -0.16708215781E+03  0.16708215781E+03  0.00000000000E+00 0. -1.
         23    2    1    2    0    0  0.00000000000E+00  0.00000000000E+00 -0.15338277302E+03  0.18078154260E+03  0.95685375494E+02 0.  0.
          2    1    3    3  502    0  0.28231254352E+02  0.13346972715E+02 -0.14517227880E+03  0.14849288176E+03  0.00000000000E+00 0. -1.
         -2    1    3    3    0  502 -0.28231254352E+02 -0.13346972715E+02 -0.82104942239E+01  0.32288660832E+02  0.00000000000E+00 0.  1.
<mgrwt>
<rscale>  0 0.95685375E+02</rscale>
<asrwt>0</asrwt>
<pdfrwt beam="2">  1        3 0.25704948E-01 0.95685375E+02</pdfrwt>
<pdfrwt beam="1">  1       -3 0.21075976E-02 0.95685375E+02</pdfrwt>
<totfact> 0.25899996E+04</totfact>
</mgrwt>
</event>
<event>
 5    1  0.3921687E+001  0.9032309E+02  0.7546771E-02  0.1302071E+00
          1   -1    0    0  501    0  0.00000000000E+00  0.00000000000E+00  0.10175761151E+04  0.10175761151E+04  0.00000000000E+00 0. -1.
         -1   -1    0    0    0  501 -0.00000000000E+00 -0.00000000000E+00 -0.20043366799E+01  0.20043366799E+01  0.00000000000E+00 0.  1.
         23    2    1    2    0    0  0.00000000000E+00  0.00000000000E+00  0.10155717785E+04  0.10195804518E+04  0.90323089675E+02 0.  0.
          2    1    3    3  502    0  0.14910519711E+02 -0.18010833184E+02  0.71640778530E+02  0.75359902192E+02  0.00000000000E+00 0.  1.
         -2    1    3    3    0  502 -0.14910519711E+02  0.18010833184E+02  0.94393099993E+03  0.94422054963E+03  0.00000000000E+00 0. -1.
<mgrwt>
<rscale>  0 0.90323090E+02</rscale>
<asrwt>0</asrwt>
<pdfrwt beam="1">  1        1 0.15654976E+00 0.90323090E+02</pdfrwt>
<pdfrwt beam="2">  1       -1 0.30836030E-03 0.90323090E+02</pdfrwt>
<totfact> 0.13877418E+05</totfact>
</mgrwt>
</event>
<event>
 5    1  0.3921687E+001  0.9158284E+02  0.7546771E-02  0.1299063E+00
          1   -1    0    0  501    0  0.00000000000E+00  0.00000000000E+00  0.15249689470E+02  0.15249689470E+02  0.00000000000E+00 0. -1.
         -1   -1    0    0    0  501 -0.00000000000E+00 -0.00000000000E+00 -0.13750144721E+03  0.13750144721E+03  0.00000000000E+00 0.  1.
         23    2    1    2    0    0  0.00000000000E+00  0.00000000000E+00 -0.12225175774E+03  0.15275113668E+03  0.91582844937E+02 0.  0.
          2    1    3    3  502    0 -0.25275311284E+02  0.35484741446E+02 -0.37606334832E+02  0.57552103832E+02  0.00000000000E+00 0. -1.
         -2    1    3    3    0  502  0.25275311284E+02 -0.35484741446E+02 -0.84645422909E+02  0.95199032849E+02  0.00000000000E+00 0.  1.
<mgrwt>
<rscale>  0 0.91582845E+02</rscale>
<asrwt>0</asrwt>
<pdfrwt beam="1">  1        1 0.23461061E-02 0.91582845E+02</pdfrwt>
<pdfrwt beam="2">  1       -1 0.21154069E-01 0.91582845E+02</pdfrwt>
<totfact> 0.75411459E+04</totfact>
</mgrwt>
</event>
<event>
 5    1  0.3921687E+001  0.9158260E+02  0.7546771E-02  0.1299064E+00
         -2   -1    0    0    0  501 -0.00000000000E+00  0.00000000000E+00  0.11961553295E+01  0.11961553295E+01  0.00000000000E+00 0. -1.
          2   -1    0    0  501    0  0.00000000000E+00 -0.00000000000E+00 -0.17529856255E+04  0.17529856255E+04  0.00000000000E+00 0.  1.
         23    2    1    2    0    0  0.00000000000E+00  0.00000000000E+00 -0.17517894702E+04  0.17541817808E+04  0.91582598751E+02 0.  0.
          2    1    3    3  502    0 -0.29419521507E+02 -0.33631663993E+02 -0.10676711625E+04  0.10686057778E+04  0.00000000000E+00 0.  1.
         -2    1    3    3    0  502  0.29419521507E+02  0.33631663993E+02 -0.68411830763E+03  0.68557600301E+03  0.00000000000E+00 0. -1.
<mgrwt>
<rscale>  0 0.91582599E+02</rscale>
<asrwt>0</asrwt>
<pdfrwt beam="2">  1        2 0.26968875E+00 0.91582599E+02</pdfrwt>
<pdfrwt beam="1">  1       -2 0.18402482E-03 0.91582599E+02</pdfrwt>
<totfact> 0.21561121E+05</totfact>
</mgrwt>
</event>
<event>
 5    1  0.3921687E+001  0.9095478E+02  0.7546771E-02  0.1300556E+00
         -1   -1    0    0    0  501 -0.00000000000E+00  0.00000000000E+00  0.12270141730E+02  0.12270141730E+02  0.00000000000E+00 0.  1.
          1   -1    0    0  501    0  0.00000000000E+00 -0.00000000000E+00 -0.16855492297E+03  0.16855492297E+03  0.00000000000E+00 0. -1.
         23    2    1    2    0    0  0.00000000000E+00  0.00000000000E+00 -0.15628478124E+03  0.18082506470E+03  0.90954775447E+02 0.  0.
          2    1    3    3  502    0 -0.24722682581E+02 -0.59133052997E+01 -0.15311198272E+03  0.15520778803E+03  0.00000000000E+00 0. -1.
         -2    1    3    3    0  502  0.24722682581E+02  0.59133052997E+01 -0.31727985235E+01  0.25617276671E+02  0.00000000000E+00 0.  1.
<mgrwt>
<rscale>  0 0.90954775E+02</rscale>
<asrwt>0</asrwt>
<pdfrwt beam="2">  1        1 0.25931524E-01 0.90954775E+02</pdfrwt>
<pdfrwt beam="1">  1       -1 0.18877143E-02 0.90954775E+02</pdfrwt>
<totfact> 0.11534574E+05</totfact>
</mgrwt>
</event>
<event>
 5    1  0.3921687E+001  0.9033650E+02  0.7546771E-02  0.1302039E+00
         -4   -1    0    0    0  501 -0.00000000000E+00  0.00000000000E+00  0.96788813413E+02  0.96788813413E+02  0.00000000000E+00 0.  1.
          4   -1    0    0  501    0  0.00000000000E+00 -0.00000000000E+00 -0.21078581130E+02  0.21078581130E+02  0.00000000000E+00 0. -1.
         23    2    1    2    0    0  0.00000000000E+00  0.00000000000E+00  0.75710232284E+02  0.11786739454E+03  0.90336501061E+02 0.  0.
          2    1    3    3  502    0  0.19187255266E+02  0.77441831561E+01 -0.14531381586E+02  0.25284069850E+02  0.00000000000E+00 0. -1.
         -2    1    3    3    0  502 -0.19187255266E+02 -0.77441831561E+01  0.90241613870E+02  0.92583324693E+02  0.00000000000E+00 0.  1.
<mgrwt>
<rscale>  0 0.90336501E+02</rscale>
<asrwt>0</asrwt>
<pdfrwt beam="2">  1        4 0.32428587E-02 0.90336501E+02</pdfrwt>
<pdfrwt beam="1">  1       -4 0.14890586E-01 0.90336501E+02</pdfrwt>
<totfact> 0.26036338E+04</totfact>
</mgrwt>
</event>
<event>
 5    1  0.3921687E+001  0.9192120E+02  0.7546771E-02  0.1298265E+00
          1   -1    0    0  501    0  0.00000000000E+00  0.00000000000E+00  0.46399081009E+02  0.46399081009E+02  0.00000000000E+00 0. -1.
         -1   -1    0    0    0  501 -0.00000000000E+00 -0.00000000000E+00 -0.45526260320E+02  0.45526260320E+02  0.00000000000E+00 0.  1.
         23    2    1    2    0    0  0.00000000000E+00  0.00000000000E+00  0.87282068810E+00  0.91925341329E+02  0.91921197569E+02 0.  0.
          2    1    3    3  502    0 -0.43455772134E+02 -0.14934753159E+02  0.13985643871E+01  0.45971806208E+02  0.00000000000E+00 0. -1.
         -2    1    3    3    0  502  0.43455772134E+02  0.14934753159E+02 -0.52574369899E+00  0.45953535121E+02  0.00000000000E+00 0.  1.
<mgrwt>
<rscale>  0 0.91921198E+02</rscale>
<asrwt>0</asrwt>
<pdfrwt beam="1">  1        1 0.71383201E-02 0.91921198E+02</pdfrwt>
<pdfrwt beam="2">  1       -1 0.70040401E-02 0.91921198E+02</pdfrwt>
<totfact> 0.90623787E+04</totfact>
</mgrwt>
</event>
<event>
 5    1  0.3921687E+001  0.8885883E+02  0.7546771E-02  0.1305639E+00
          1   -1    0    0  501    0  0.00000000000E+00  0.00000000000E+00  0.28328246498E+02  0.28328246498E+02  0.00000000000E+00 0. -1.
         -1   -1    0    0    0  501 -0.00000000000E+00 -0.00000000000E+00 -0.69682144908E+02  0.69682144908E+02  0.00000000000E+00 0.  1.
         23    2    1    2    0    0  0.00000000000E+00  0.00000000000E+00 -0.41353898410E+02  0.98010391406E+02  0.88858831356E+02 0.  0.
          2    1    3    3  502    0  0.15817215041E+02 -0.40670735851E+02 -0.29884102687E+02  0.52890005102E+02  0.00000000000E+00 0. -1.
         -2    1    3    3    0  502 -0.15817215041E+02  0.40670735851E+02 -0.11469795722E+02  0.45120386304E+02  0.00000000000E+00 0.  1.
<mgrwt>
<rscale>  0 0.88858831E+02</rscale>
<asrwt>0</asrwt>
<pdfrwt beam="1">  1        1 0.43581918E-02 0.88858831E+02</pdfrwt>
<pdfrwt beam="2">  1       -1 0.10720330E-01 0.88858831E+02</pdfrwt>
<totfact> 0.92471666E+04</totfact>
</mgrwt>
</event>
<event>
 5    1  0.3921687E+001  0.8244993E+02  0.7546771E-02  0.1322239E+00
         -2   -1    0    0    0  501 -0.00000000000E+00  0.00000000000E+00  0.20522107043E+01  0.20522107043E+01  0.00000000000E+00 0. -1.
          2   -1    0    0  501    0  0.00000000000E+00 -0.00000000000E+00 -0.82813014678E+03  0.82813014678E+03  0.00000000000E+00 0.  1.
         23    2    1    2    0    0  0.00000000000E+00  0.00000000000E+00 -0.82607793608E+03  0.83018235749E+03  0.82449925453E+02 0.  0.
          2    1    3    3  502    0 -0.30055295138E+02  0.28028090665E+02 -0.44582553670E+03  0.44771565061E+03  0.00000000000E+00 0. -1.
         -2    1    3    3    0  502  0.30055295138E+02 -0.28028090665E+02 -0.38025239938E+03  0.38246670687E+03  0.00000000000E+00 0.  1.
<mgrwt>
<rscale>  0 0.82449925E+02</rscale>
<asrwt>0</asrwt>
<pdfrwt beam="2">  1        2 0.12740487E+00 0.82449925E+02</pdfrwt>
<pdfrwt beam="1">  1       -2 0.31572414E-03 0.82449925E+02</pdfrwt>
<totfact> 0.31913197E+05</totfact>
</mgrwt>
</event>
<event>
 5    1  0.3921687E+001  0.9073700E+02  0.7546771E-02  0.1301077E+00
         -1   -1    0    0    0  501 -0.00000000000E+00  0.00000000000E+00  0.10035099314E+02  0.10035099314E+02  0.00000000000E+00 0.  1.
          1   -1    0    0  501    0  0.00000000000E+00 -0.00000000000E+00 -0.20511015078E+03  0.20511015078E+03  0.00000000000E+00 0. -1.
         23    2    1    2    0    0  0.00000000000E+00  0.00000000000E+00 -0.19507505146E+03  0.21514525009E+03  0.90736998702E+02 0.  0.
          2    1    3    3  502    0 -0.13819736620E+02  0.27360397328E+02 -0.17684404375E+03  0.17948089668E+03  0.00000000000E+00 0. -1.
         -2    1    3    3    0  502  0.13819736620E+02 -0.27360397328E+02 -0.18231007713E+02  0.35664353413E+02  0.00000000000E+00 0.  1.
<mgrwt>
<rscale>  0 0.90736999E+02</rscale>
<asrwt>0</asrwt>
<pdfrwt beam="2">  1        1 0.31555407E-01 0.90736999E+02</pdfrwt>
<pdfrwt beam="1">  1       -1 0.15438615E-02 0.90736999E+02</pdfrwt>
<totfact> 0.12053910E+05</totfact>
</mgrwt>
</event>
<event>
 5    1  0.3921687E+001  0.9139561E+02  0.7546771E-02  0.1299507E+00
          2   -1    0    0  501    0  0.00000000000E+00  0.00000000000E+00  0.75383701313E+03  0.75383701313E+03  0.00000000000E+00 0. -1.
         -2   -1    0    0    0  501 -0.00000000000E+00 -0.00000000000E+00 -0.27702131816E+01  0.27702131816E+01  0.00000000000E+00 0.  1.
         23    2    1    2    0    0  0.00000000000E+00  0.00000000000E+00  0.75106679995E+03  0.75660722632E+03  0.91395606690E+02 0.  0.
          2    1    3    3  502    0 -0.27470178910E+02  0.31765560863E+02  0.52468843380E+03  0.52636642575E+03  0.00000000000E+00 0. -1.
         -2    1    3    3    0  502  0.27470178910E+02 -0.31765560863E+02  0.22637836615E+03  0.23024080057E+03  0.00000000000E+00 0.  1.
<mgrwt>
<rscale>  0 0.91395607E+02</rscale>
<asrwt>0</asrwt>
<pdfrwt beam="1">  1        2 0.11597476E+00 0.91395607E+02</pdfrwt>
<pdfrwt beam="2">  1       -2 0.42618724E-03 0.91395607E+02</pdfrwt>
<totfact> 0.23949107E+05</totfact>
</mgrwt>
</event>
<event>
 5    1  0.3921687E+001  0.9199296E+02  0.7546771E-02  0.1298096E+00
         -1   -1    0    0    0  501 -0.00000000000E+00  0.00000000000E+00  0.28439057004E+02  0.28439057004E+02  0.00000000000E+00 0.  1.
          1   -1    0    0  501    0  0.00000000000E+00 -0.00000000000E+00 -0.74393332472E+02  0.74393332472E+02  0.00000000000E+00 0. -1.
         23    2    1    2    0    0  0.00000000000E+00  0.00000000000E+00 -0.45954275467E+02  0.10283238948E+03  0.91992961098E+02 0.  0.
          2    1    3    3  502    0  0.35950376384E+01  0.44285138177E+02 -0.36277820254E+02  0.57360073234E+02  0.00000000000E+00 0. -1.
         -2    1    3    3    0  502 -0.35950376384E+01 -0.44285138177E+02 -0.96764552129E+01  0.45472316242E+02  0.00000000000E+00 0.  1.
<mgrwt>
<rscale>  0 0.91992961E+02</rscale>
<asrwt>0</asrwt>
<pdfrwt beam="2">  1        1 0.11445128E-01 0.91992961E+02</pdfrwt>
<pdfrwt beam="1">  1       -1 0.43752396E-02 0.91992961E+02</pdfrwt>
<totfact> 0.97186276E+04</totfact>
</mgrwt>
</event>
<event>
 5    1  0.3921687E+001  0.9449744E+02  0.7546771E-02  0.1292312E+00
          2   -1    0    0  501    0  0.00000000000E+00  0.00000000000E+00  0.71452641248E+03  0.71452641248E+03  0.00000000000E+00 0. -1.
         -2   -1    0    0    0  501 -0.00000000000E+00 -0.00000000000E+00 -0.31243651881E+01  0.31243651881E+01  0.00000000000E+00 0.  1.
         23    2    1    2    0    0  0.00000000000E+00  0.00000000000E+00  0.71140204729E+03  0.71765077767E+03  0.94497438043E+02 0.  0.
          2    1    3    3  502    0  0.74986784803E+01 -0.23425209760E+02  0.66207348840E+03  0.66253020661E+03  0.00000000000E+00 0. -1.
         -2    1    3    3    0  502 -0.74986784803E+01  0.23425209760E+02  0.49328558895E+02  0.55120571059E+02  0.00000000000E+00 0.  1.
<mgrwt>
<rscale>  0 0.94497438E+02</rscale>
<asrwt>0</asrwt>
<pdfrwt beam="1">  1        2 0.10992701E+00 0.94497438E+02</pdfrwt>
<pdfrwt beam="2">  1       -2 0.48067213E-03 0.94497438E+02</pdfrwt>
<totfact> 0.21676939E+05</totfact>
</mgrwt>
</event>
<event>
 5    1  0.3921687E+001  0.9099599E+02  0.7546771E-02  0.1300458E+00
          2   -1    0    0  501    0  0.00000000000E+00  0.00000000000E+00  0.23816305625E+04  0.23816305625E+04  0.00000000000E+00 0.  1.
         -2   -1    0    0    0  501 -0.00000000000E+00 -0.00000000000E+00 -0.86918073125E+00  0.86918073125E+00  0.00000000000E+00 0. -1.
         23    2    1    2    0    0  0.00000000000E+00  0.00000000000E+00  0.23807613818E+04  0.23824997433E+04  0.90995986591E+02 0.  0.
          2    1    3    3  502    0 -0.43375671823E+02 -0.77379782299E+01  0.14874590765E+04  0.14881114976E+04  0.00000000000E+00 0. -1.
         -2    1    3    3    0  502  0.43375671823E+02  0.77379782299E+01  0.89330230534E+03  0.89438824564E+03  0.00000000000E+00 0.  1.
<mgrwt>
<rscale>  0 0.90995987E+02</rscale>
<asrwt>0</asrwt>
<pdfrwt beam="1">  1        2 0.36639948E+00 0.90995987E+02</pdfrwt>
<pdfrwt beam="2">  1       -2 0.13372202E-03 0.90995987E+02</pdfrwt>
<totfact> 0.16099339E+05</totfact>
</mgrwt>
</event>
<event>
 5    1  0.3921687E+001  0.9167231E+02  0.7546771E-02  0.1298852E+00
          1   -1    0    0  501    0  0.00000000000E+00  0.00000000000E+00  0.34817787634E+02  0.34817787634E+02  0.00000000000E+00 0. -1.
         -1   -1    0    0    0  501 -0.00000000000E+00 -0.00000000000E+00 -0.60341366832E+02  0.60341366832E+02  0.00000000000E+00 0.  1.
         23    2    1    2    0    0  0.00000000000E+00  0.00000000000E+00 -0.25523579198E+02  0.95159154465E+02  0.91672305433E+02 0.  0.
          2    1    3    3  502    0 -0.94194636075E+01 -0.44149544961E+02 -0.45197391440E+01  0.45368895258E+02  0.00000000000E+00 0.  1.
         -2    1    3    3    0  502  0.94194636075E+01  0.44149544961E+02 -0.21003840054E+02  0.49790259208E+02  0.00000000000E+00 0. -1.
<mgrwt>
<rscale>  0 0.91672305E+02</rscale>
<asrwt>0</asrwt>
<pdfrwt beam="1">  1        1 0.53565828E-02 0.91672305E+02</pdfrwt>
<pdfrwt beam="2">  1       -1 0.92832871E-02 0.91672305E+02</pdfrwt>
<totfact> 0.87391502E+04</totfact>
</mgrwt>
</event>
<event>
 5    1  0.3921687E+001  0.9197478E+02  0.7546771E-02  0.1298139E+00
         -3   -1    0    0    0  501 -0.00000000000E+00  0.00000000000E+00  0.38215585155E+02  0.38215585155E+02  0.00000000000E+00 0. -1.
          3   -1    0    0  501    0  0.00000000000E+00 -0.00000000000E+00 -0.55339721783E+02  0.55339721783E+02  0.00000000000E+00 0.  1.
         23    2    1    2    0    0  0.00000000000E+00  0.00000000000E+00 -0.17124136628E+02  0.93555306937E+02  0.91974775895E+02 0.  0.
          2    1    3    3  502    0  0.15713514572E+02  0.32967949257E+02 -0.36989408419E+02  0.51980924901E+02  0.00000000000E+00 0.  1.
         -2    1    3    3    0  502 -0.15713514572E+02 -0.32967949257E+02  0.19865271790E+02  0.41574382036E+02  0.00000000000E+00 0. -1.
<mgrwt>
<rscale>  0 0.91974776E+02</rscale>
<asrwt>0</asrwt>
<pdfrwt beam="2">  1        3 0.85138034E-02 0.91974776E+02</pdfrwt>
<pdfrwt beam="1">  1       -3 0.58793208E-02 0.91974776E+02</pdfrwt>
<totfact> 0.34330404E+04</totfact>
</mgrwt>
</event>
<event>
 5    1  0.3921687E+001  0.9213026E+02  0.7546771E-02  0.1297773E+00
         -2   -1    0    0    0  501 -0.00000000000E+00  0.00000000000E+00  0.25957898223E+02  0.25957898223E+02  0.00000000000E+00 0.  1.
          2   -1    0    0  501    0  0.00000000000E+00 -0.00000000000E+00 -0.81747612700E+02  0.81747612700E+02  0.00000000000E+00 0. -1.
         23    2    1    2    0    0  0.00000000000E+00  0.00000000000E+00 -0.55789714477E+02  0.10770551092E+03  0.92130260184E+02 0.  0.
          2    1    3    3  502    0  0.28841593121E+02 -0.90100958476E+00  0.14083024288E+02  0.32108891060E+02  0.00000000000E+00 0.  1.
         -2    1    3    3    0  502 -0.28841593121E+02  0.90100958476E+00 -0.69872738765E+02  0.75596619862E+02  0.00000000000E+00 0. -1.
<mgrwt>
<rscale>  0 0.92130260E+02</rscale>
<asrwt>0</asrwt>
<pdfrwt beam="2">  1        2 0.12576556E-01 0.92130260E+02</pdfrwt>
<pdfrwt beam="1">  1       -2 0.39935229E-02 0.92130260E+02</pdfrwt>
<totfact> 0.11227394E+05</totfact>
</mgrwt>
</event>
<event>
 5    1  0.3921687E+001  0.9209114E+02  0.7546771E-02  0.1297865E+00
         -2   -1    0    0    0  501 -0.00000000000E+00  0.00000000000E+00  0.23452741620E+02  0.23452741620E+02  0.00000000000E+00 0. -1.
          2   -1    0    0  501    0  0.00000000000E+00 -0.00000000000E+00 -0.90402841465E+02  0.90402841465E+02  0.00000000000E+00 0.  1.
         23    2    1    2    0    0  0.00000000000E+00  0.00000000000E+00 -0.66950099845E+02  0.11385558308E+03  0.92091139260E+02 0.  0.
          2    1    3    3  502    0  0.14633703929E+02 -0.37664344191E+02 -0.61789935917E+01  0.40876987118E+02  0.00000000000E+00 0. -1.
         -2    1    3    3    0  502 -0.14633703929E+02  0.37664344191E+02 -0.60771106253E+02  0.72978595967E+02  0.00000000000E+00 0.  1.
<mgrwt>
<rscale>  0 0.92091139E+02</rscale>
<asrwt>0</asrwt>
<pdfrwt beam="2">  1        2 0.13908129E-01 0.92091139E+02</pdfrwt>
<pdfrwt beam="1">  1       -2 0.36081141E-02 0.92091139E+02</pdfrwt>
<totfact> 0.11577228E+05</totfact>
</mgrwt>
</event>
<event>
 5    1  0.3921687E+001  0.9100060E+02  0.7546771E-02  0.1300447E+00
          2   -1    0    0  501    0  0.00000000000E+00  0.00000000000E+00  0.58343273922E+03  0.58343273922E+03  0.00000000000E+00 0. -1.
         -2   -1    0    0    0  501 -0.00000000000E+00 -0.00000000000E+00 -0.35484423789E+01  0.35484423789E+01  0.00000000000E+00 0.  1.
         23    2    1    2    0    0  0.00000000000E+00  0.00000000000E+00  0.57988429684E+03  0.58698118160E+03  0.91000603450E+02 0.  0.
          2    1    3    3  502    0  0.10197606660E+02  0.21566881055E+02  0.53985742675E+03  0.54038427323E+03  0.00000000000E+00 0. -1.
         -2    1    3    3    0  502 -0.10197606660E+02 -0.21566881055E+02  0.40026870095E+02  0.46596908370E+02  0.00000000000E+00 0.  1.
<mgrwt>
<rscale>  0 0.91000603E+02</rscale>
<asrwt>0</asrwt>
<pdfrwt beam="1">  1        2 0.89758807E-01 0.91000603E+02</pdfrwt>
<pdfrwt beam="2">  1       -2 0.54591468E-03 0.91000603E+02</pdfrwt>
<totfact> 0.22718274E+05</totfact>
</mgrwt>
</event>
<event>
 5    1  0.3921687E+001  0.9276256E+02  0.7546771E-02  0.1296296E+00
         -2   -1    0    0    0  501 -0.00000000000E+00  0.00000000000E+00  0.19819939922E+01  0.19819939922E+01  0.00000000000E+00 0.  1.
          2   -1    0    0  501    0  0.00000000000E+00 -0.00000000000E+00 -0.10853833235E+04  0.10853833235E+04  0.00000000000E+00 0. -1.
         23    2    1    2    0    0  0.00000000000E+00  0.00000000000E+00 -0.10834013295E+04  0.10873653175E+04  0.92762561982E+02 0.  0.
          2    1    3    3  502    0 -0.30916146791E+02  0.12562727414E+02 -0.91928698618E+03  0.91989249003E+03  0.00000000000E+00 0. -1.
         -2    1    3    3    0  502  0.30916146791E+02 -0.12562727414E+02 -0.16411434333E+03  0.16747282746E+03  0.00000000000E+00 0.  1.
<mgrwt>
<rscale>  0 0.92762562E+02</rscale>
<asrwt>0</asrwt>
<pdfrwt beam="2">  1        2 0.16698244E+00 0.92762562E+02</pdfrwt>
<pdfrwt beam="1">  1       -2 0.30492145E-03 0.92762562E+02</pdfrwt>
<totfact> 0.23915875E+05</totfact>
</mgrwt>
</event>
<event>
 5    1  0.3921687E+001  0.9204274E+02  0.7546771E-02  0.1297979E+00
         -1   -1    0    0    0  501 -0.00000000000E+00  0.00000000000E+00  0.27969787826E+01  0.27969787826E+01  0.00000000000E+00 0.  1.
          1   -1    0    0  501    0  0.00000000000E+00 -0.00000000000E+00 -0.75723372630E+03  0.75723372630E+03  0.00000000000E+00 0. -1.
         23    2    1    2    0    0  0.00000000000E+00  0.00000000000E+00 -0.75443674752E+03  0.76003070509E+03  0.92042743678E+02 0.  0.
          2    1    3    3  502    0  0.19131838254E+02  0.27693535960E+02 -0.63637442267E+03  0.63726396806E+03  0.00000000000E+00 0. -1.
         -2    1    3    3    0  502 -0.19131838254E+02 -0.27693535960E+02 -0.11806232486E+03  0.12276673702E+03  0.00000000000E+00 0.  1.
<mgrwt>
<rscale>  0 0.92042744E+02</rscale>
<asrwt>0</asrwt>
<pdfrwt beam="2">  1        1 0.11649755E+00 0.92042744E+02</pdfrwt>
<pdfrwt beam="1">  1       -1 0.43030424E-03 0.92042744E+02</pdfrwt>
<totfact> 0.13833697E+05</totfact>
</mgrwt>
</event>
<event>
 5    1  0.3921687E+001  0.8992584E+02  0.7546771E-02  0.1303031E+00
          2   -1    0    0  501    0  0.00000000000E+00  0.00000000000E+00  0.77732134404E+03  0.77732134404E+03  0.00000000000E+00 0. -1.
         -2   -1    0    0    0  501 -0.00000000000E+00 -0.00000000000E+00 -0.26008090029E+01  0.26008090029E+01  0.00000000000E+00 0.  1.
         23    2    1    2    0    0  0.00000000000E+00  0.00000000000E+00  0.77472053503E+03  0.77992215304E+03  0.89925843887E+02 0.  0.
          2    1    3    3  502    0 -0.23550651694E+02  0.39180852395E+01  0.71780752018E+03  0.71820444207E+03  0.00000000000E+00 0. -1.
         -2    1    3    3    0  502  0.23550651694E+02 -0.39180852395E+01  0.56913014857E+02  0.61717710969E+02  0.00000000000E+00 0.  1.
<mgrwt>
<rscale>  0 0.89925844E+02</rscale>
<asrwt>0</asrwt>
<pdfrwt beam="1">  1        2 0.11958771E+00 0.89925844E+02</pdfrwt>
<pdfrwt beam="2">  1       -2 0.40012508E-03 0.89925844E+02</pdfrwt>
<totfact> 0.25144807E+05</totfact>
</mgrwt>
</event>
<event>
 5    1  0.3921687E+001  0.9034205E+02  0.7546771E-02  0.1302025E+00
         -2   -1    0    0    0  501 -0.00000000000E+00  0.00000000000E+00  0.13504985835E+01  0.13504985835E+01  0.00000000000E+00 0.  1.
          2   -1    0    0  501    0  0.00000000000E+00 -0.00000000000E+00 -0.15108654554E+04  0.15108654554E+04  0.00000000000E+00 0. -1.
         23    2    1    2    0    0  0.00000000000E+00  0.00000000000E+00 -0.15095149568E+04  0.15122159540E+04  0.90342053495E+02 0.  0.
          2    1    3    3  502    0  0.33110764553E+02 -0.30023906263E+02 -0.64542365260E+03  0.64696943438E+03  0.00000000000E+00 0. -1.
         -2    1    3    3    0  502 -0.33110764553E+02  0.30023906263E+02 -0.86409130421E+03  0.86524651960E+03  0.00000000000E+00 0.  1.
<mgrwt>
<rscale>  0 0.90342053E+02</rscale>
<asrwt>0</asrwt>
<pdfrwt beam="2">  1        2 0.23244177E+00 0.90342053E+02</pdfrwt>
<pdfrwt beam="1">  1       -2 0.20776818E-03 0.90342053E+02</pdfrwt>
<totfact> 0.24108386E+05</totfact>
</mgrwt>
</event>
<event>
 5    1  0.3921687E+001  0.9266099E+02  0.7546771E-02  0.1296533E+00
         -2   -1    0    0    0  501 -0.00000000000E+00  0.00000000000E+00  0.28609602351E+01  0.28609602351E+01  0.00000000000E+00 0.  1.
          2   -1    0    0  501    0  0.00000000000E+00 -0.00000000000E+00 -0.75027771332E+03  0.75027771332E+03  0.00000000000E+00 0. -1.
         23    2    1    2    0    0  0.00000000000E+00  0.00000000000E+00 -0.74741675309E+03  0.75313867356E+03  0.92660988623E+02 0.  0.
          2    1    3    3  502    0  0.84864525311E+01  0.43719813272E+02 -0.47750153372E+03  0.47957393241E+03  0.00000000000E+00 0. -1.
         -2    1    3    3    0  502 -0.84864525311E+01 -0.43719813272E+02 -0.26991521937E+03  0.27356474115E+03  0.00000000000E+00 0.  1.
<mgrwt>
<rscale>  0 0.92660989E+02</rscale>
<asrwt>0</asrwt>
<pdfrwt beam="2">  1        2 0.11542722E+00 0.92660989E+02</pdfrwt>
<pdfrwt beam="1">  1       -2 0.44014819E-03 0.92660989E+02</pdfrwt>
<totfact> 0.23073258E+05</totfact>
</mgrwt>
</event>
<event>
 5    1  0.3921687E+001  0.9163997E+02  0.7546771E-02  0.1298928E+00
          2   -1    0    0  501    0  0.00000000000E+00  0.00000000000E+00  0.10820485737E+03  0.10820485737E+03  0.00000000000E+00 0. -1.
         -2   -1    0    0    0  501 -0.00000000000E+00 -0.00000000000E+00 -0.19402744907E+02  0.19402744907E+02  0.00000000000E+00 0.  1.
         23    2    1    2    0    0  0.00000000000E+00  0.00000000000E+00  0.88802112467E+02  0.12760760228E+03  0.91639974799E+02 0.  0.
          2    1    3    3  502    0  0.89442066709E+01 -0.44165058768E+02  0.55961225953E+02  0.71848521621E+02  0.00000000000E+00 0. -1.
         -2    1    3    3    0  502 -0.89442066709E+01  0.44165058768E+02  0.32840886514E+02  0.55759080660E+02  0.00000000000E+00 0.  1.
<mgrwt>
<rscale>  0 0.91639975E+02</rscale>
<asrwt>0</asrwt>
<pdfrwt beam="1">  1        2 0.16646901E-01 0.91639975E+02</pdfrwt>
<pdfrwt beam="2">  1       -2 0.29850377E-02 0.91639975E+02</pdfrwt>
<totfact> 0.12395313E+05</totfact>
</mgrwt>
</event>
<event>
 5    1  0.3921687E+001  0.9256944E+02  0.7546771E-02  0.1296746E+00
          1   -1    0    0  501    0  0.00000000000E+00  0.00000000000E+00  0.85560897416E+03  0.85560897416E+03  0.00000000000E+00 0. -1.
         -1   -1    0    0    0  501 -0.00000000000E+00 -0.00000000000E+00 -0.25038018545E+01  0.25038018545E+01  0.00000000000E+00 0.  1.
         23    2    1    2    0    0  0.00000000000E+00  0.00000000000E+00  0.85310517231E+03  0.85811277602E+03  0.92569440664E+02 0.  0.
          2    1    3    3  502    0  0.23527693692E+02  0.32715874173E+02  0.63761307464E+03  0.63888521172E+03  0.00000000000E+00 0. -1.
         -2    1    3    3    0  502 -0.23527693692E+02 -0.32715874173E+02  0.21549209766E+03  0.21922756430E+03  0.00000000000E+00 0.  1.
<mgrwt>
<rscale>  0 0.92569441E+02</rscale>
<asrwt>0</asrwt>
<pdfrwt beam="1">  1        1 0.13163192E+00 0.92569441E+02</pdfrwt>
<pdfrwt beam="2">  1       -1 0.38520097E-03 0.92569441E+02</pdfrwt>
<totfact> 0.13474428E+05</totfact>
</mgrwt>
</event>
<event>
 5    1  0.3921687E+001  0.9385600E+02  0.7546771E-02  0.1293774E+00
         -2   -1    0    0    0  501 -0.00000000000E+00  0.00000000000E+00  0.16887923170E+02  0.16887923170E+02  0.00000000000E+00 0.  1.
          2   -1    0    0  501    0  0.00000000000E+00 -0.00000000000E+00 -0.13040308180E+03  0.13040308180E+03  0.00000000000E+00 0. -1.
         23    2    1    2    0    0  0.00000000000E+00  0.00000000000E+00 -0.11351515863E+03  0.14729100497E+03  0.93856000906E+02 0.  0.
          2    1    3    3  502    0 -0.32430808995E+02 -0.19035198419E+02 -0.12700453537E+02  0.39691279533E+02  0.00000000000E+00 0.  1.
         -2    1    3    3    0  502  0.32430808995E+02  0.19035198419E+02 -0.10081470509E+03  0.10759972544E+03  0.00000000000E+00 0. -1.
<mgrwt>
<rscale>  0 0.93856001E+02</rscale>
<asrwt>0</asrwt>
<pdfrwt beam="2">  1        2 0.20062012E-01 0.93856001E+02</pdfrwt>
<pdfrwt beam="1">  1       -2 0.25981421E-02 0.93856001E+02</pdfrwt>
<totfact> 0.12326045E+05</totfact>
</mgrwt>
</event>
<event>
 5    1  0.3921687E+001  0.9162602E+02  0.7546771E-02  0.1298961E+00
         -3   -1    0    0    0  501 -0.00000000000E+00  0.00000000000E+00  0.10323838224E+03  0.10323838224E+03  0.00000000000E+00 0.  1.
          3   -1    0    0  501    0  0.00000000000E+00 -0.00000000000E+00 -0.20329956612E+02  0.20329956612E+02  0.00000000000E+00 0. -1.
         23    2    1    2    0    0  0.00000000000E+00  0.00000000000E+00  0.82908425628E+02  0.12356833885E+03  0.91626018829E+02 0.  0.
          2    1    3    3  502    0  0.17545600907E+02  0.32323197898E+02  0.46146521750E+01  0.37066592077E+02  0.00000000000E+00 0. -1.
         -2    1    3    3    0  502 -0.17545600907E+02 -0.32323197898E+02  0.78293773453E+02  0.86501746775E+02  0.00000000000E+00 0.  1.
<mgrwt>
<rscale>  0 0.91626019E+02</rscale>
<asrwt>0</asrwt>
<pdfrwt beam="2">  1        3 0.31276857E-02 0.91626019E+02</pdfrwt>
<pdfrwt beam="1">  1       -3 0.15882828E-01 0.91626019E+02</pdfrwt>
<totfact> 0.32567401E+04</totfact>
</mgrwt>
</event>
<event>
 5    1  0.3921687E+001  0.1178279E+03  0.7546771E-02  0.1246724E+00
         -2   -1    0    0    0  501 -0.00000000000E+00  0.00000000000E+00  0.22397334819E+01  0.22397334819E+01  0.00000000000E+00 0.  1.
          2   -1    0    0  501    0  0.00000000000E+00 -0.00000000000E+00 -0.15496719409E+04  0.15496719409E+04  0.00000000000E+00 0. -1.
         23    2    1    2    0    0  0.00000000000E+00  0.00000000000E+00 -0.15474322075E+04  0.15519116744E+04  0.11782787670E+03 0.  0.
          2    1    3    3  502    0  0.17021350623E+02 -0.50075902529E+02 -0.11155359994E+04  0.11167890975E+04  0.00000000000E+00 0. -1.
         -2    1    3    3    0  502 -0.17021350623E+02  0.50075902529E+02 -0.43189620804E+03  0.43512257688E+03  0.00000000000E+00 0.  1.
<mgrwt>
<rscale>  0 0.11782788E+03</rscale>
<asrwt>0</asrwt>
<pdfrwt beam="2">  1        2 0.23841185E+00 0.11782788E+03</pdfrwt>
<pdfrwt beam="1">  1       -2 0.34457326E-03 0.11782788E+03</pdfrwt>
<totfact> 0.11749890E+05</totfact>
</mgrwt>
</event>
<event>
 5    1  0.3921687E+001  0.9101369E+02  0.7546771E-02  0.1300415E+00
          2   -1    0    0  501    0  0.00000000000E+00  0.00000000000E+00  0.17016377239E+03  0.17016377239E+03  0.00000000000E+00 0.  1.
         -2   -1    0    0    0  501 -0.00000000000E+00 -0.00000000000E+00 -0.12169882790E+02  0.12169882790E+02  0.00000000000E+00 0. -1.
         23    2    1    2    0    0  0.00000000000E+00  0.00000000000E+00  0.15799388960E+03  0.18233365518E+03  0.91013694906E+02 0.  0.
          2    1    3    3  502    0 -0.42274131041E+01  0.31891623815E+02  0.14517014654E+02  0.35294339569E+02  0.00000000000E+00 0. -1.
         -2    1    3    3    0  502  0.42274131041E+01 -0.31891623815E+02  0.14347687495E+03  0.14703931561E+03  0.00000000000E+00 0.  1.
<mgrwt>
<rscale>  0 0.91013695E+02</rscale>
<asrwt>0</asrwt>
<pdfrwt beam="1">  1        2 0.26179040E-01 0.91013695E+02</pdfrwt>
<pdfrwt beam="2">  1       -2 0.18722898E-02 0.91013695E+02</pdfrwt>
<totfact> 0.14673689E+05</totfact>
</mgrwt>
</event>
<event>
 4    1  0.3921687E+001  0.1397998E+03  0.7546771E-02  0.1213599E+00
          2   -1    0    0  501    0  0.00000000000E+00  0.00000000000E+00  0.63781088461E+03  0.63781088461E+03  0.00000000000E+00 0.  1.
         -2   -1    0    0    0  501 -0.00000000000E+00 -0.00000000000E+00 -0.76605670742E+01  0.76605670742E+01  0.00000000000E+00 0. -1.
          2    1    1    2  502    0  0.37763845995E+02  0.51637261173E+02  0.18501684012E+03  0.19576451653E+03  0.00000000000E+00 0. -1.
         -2    1    1    2    0  502 -0.37763845995E+02 -0.51637261173E+02  0.44513347742E+03  0.44970693515E+03  0.00000000000E+00 0.  1.
<mgrwt>
<rscale>  0 0.13979976E+03</rscale>
<asrwt>0</asrwt>
<pdfrwt beam="1">  1        2 0.98124710E-01 0.13979976E+03</pdfrwt>
<pdfrwt beam="2">  1       -2 0.11785493E-02 0.13979976E+03</pdfrwt>
<totfact> 0.73135366E+04</totfact>
</mgrwt>
</event>
<event>
 5    1  0.3921687E+001  0.8936234E+02  0.7546771E-02  0.1304403E+00
         -1   -1    0    0    0  501 -0.00000000000E+00  0.00000000000E+00  0.91511117487E+02  0.91511117487E+02  0.00000000000E+00 0.  1.
          1   -1    0    0  501    0  0.00000000000E+00 -0.00000000000E+00 -0.21816005681E+02  0.21816005681E+02  0.00000000000E+00 0. -1.
         23    2    1    2    0    0  0.00000000000E+00  0.00000000000E+00  0.69695111806E+02  0.11332712317E+03  0.89362342381E+02 0.  0.
          2    1    3    3  502    0  0.40931899476E+02  0.46852349810E+01  0.12917461364E+02  0.43176760295E+02  0.00000000000E+00 0. -1.
         -2    1    3    3    0  502 -0.40931899476E+02 -0.46852349810E+01  0.56777650441E+02  0.70150362872E+02  0.00000000000E+00 0.  1.
<mgrwt>
<rscale>  0 0.89362342E+02</rscale>
<asrwt>0</asrwt>
<pdfrwt beam="2">  1        1 0.33563086E-02 0.89362342E+02</pdfrwt>
<pdfrwt beam="1">  1       -1 0.14078633E-01 0.89362342E+02</pdfrwt>
<totfact> 0.87074917E+04</totfact>
</mgrwt>
</event>
<event>
 5    1  0.3921687E+001  0.8834529E+02  0.7546771E-02  0.1306909E+00
          3   -1    0    0  501    0  0.00000000000E+00  0.00000000000E+00  0.18918725360E+02  0.18918725360E+02  0.00000000000E+00 0. -1.
         -3   -1    0    0    0  501 -0.00000000000E+00 -0.00000000000E+00 -0.10313710480E+03  0.10313710480E+03  0.00000000000E+00 0.  1.
         23    2    1    2    0    0  0.00000000000E+00  0.00000000000E+00 -0.84218379445E+02  0.12205583016E+03  0.88345289862E+02 0.  0.
          2    1    3    3  502    0  0.44540264020E+01 -0.31445404088E+02  0.30704492920E+00  0.31760762995E+02  0.00000000000E+00 0. -1.
         -2    1    3    3    0  502 -0.44540264020E+01  0.31445404088E+02 -0.84525424374E+02  0.90295067169E+02  0.00000000000E+00 0.  1.
<mgrwt>
<rscale>  0 0.88345290E+02</rscale>
<asrwt>0</asrwt>
<pdfrwt beam="1">  1        3 0.29105732E-02 0.88345290E+02</pdfrwt>
<pdfrwt beam="2">  1       -3 0.15867247E-01 0.88345290E+02</pdfrwt>
<totfact> 0.36059004E+04</totfact>
</mgrwt>
</event>
<event>
 5    1  0.3921687E+001  0.8925019E+02  0.7546771E-02  0.1304678E+00
          3   -1    0    0  501    0  0.00000000000E+00  0.00000000000E+00  0.39115322447E+03  0.39115322447E+03  0.00000000000E+00 0. -1.
         -3   -1    0    0    0  501 -0.00000000000E+00 -0.00000000000E+00 -0.50910977458E+01  0.50910977458E+01  0.00000000000E+00 0.  1.
         23    2    1    2    0    0  0.00000000000E+00  0.00000000000E+00  0.38606212672E+03  0.39624432221E+03  0.89250194383E+02 0.  0.
          2    1    3    3  502    0 -0.24995043581E+02 -0.52982959132E+01  0.35546443599E+03  0.35638152225E+03  0.00000000000E+00 0. -1.
         -2    1    3    3    0  502  0.24995043581E+02  0.52982959132E+01  0.30597690729E+02  0.39862799966E+02  0.00000000000E+00 0.  1.
<mgrwt>
<rscale>  0 0.89250194E+02</rscale>
<asrwt>0</asrwt>
<pdfrwt beam="1">  1        3 0.60177396E-01 0.89250194E+02</pdfrwt>
<pdfrwt beam="2">  1       -3 0.78324611E-03 0.89250194E+02</pdfrwt>
<totfact> 0.21944365E+04</totfact>
</mgrwt>
</event>
<event>
 5    1  0.3921687E+001  0.8889591E+02  0.7546771E-02  0.1305548E+00
          2   -1    0    0  501    0  0.00000000000E+00  0.00000000000E+00  0.60550972736E+03  0.60550972736E+03  0.00000000000E+00 0. -1.
         -2   -1    0    0    0  501 -0.00000000000E+00 -0.00000000000E+00 -0.32627398211E+01  0.32627398211E+01  0.00000000000E+00 0.  1.
         23    2    1    2    0    0  0.00000000000E+00  0.00000000000E+00  0.60224698754E+03  0.60877246718E+03  0.88895909907E+02 0.  0.
          2    1    3    3  502    0 -0.16735698124E+02  0.40988902103E+02  0.32803856096E+03  0.33101279608E+03  0.00000000000E+00 0. -1.
         -2    1    3    3    0  502  0.16735698124E+02 -0.40988902103E+02  0.27420842658E+03  0.27775967111E+03  0.00000000000E+00 0.  1.
<mgrwt>
<rscale>  0 0.88895910E+02</rscale>
<asrwt>0</asrwt>
<pdfrwt beam="1">  1        2 0.93155253E-01 0.88895910E+02</pdfrwt>
<pdfrwt beam="2">  1       -2 0.50196045E-03 0.88895910E+02</pdfrwt>
<totfact> 0.24422019E+05</totfact>
</mgrwt>
</event>
<event>
 5    1  0.3921687E+001  0.9114404E+02  0.7546771E-02  0.1300105E+00
         -1   -1    0    0    0  501 -0.00000000000E+00  0.00000000000E+00  0.31825323824E+01  0.31825323824E+01  0.00000000000E+00 0.  1.
          1   -1    0    0  501    0  0.00000000000E+00 -0.00000000000E+00 -0.65256490616E+03  0.65256490616E+03  0.00000000000E+00 0. -1.
         23    2    1    2    0    0  0.00000000000E+00  0.00000000000E+00 -0.64938237378E+03  0.65574743854E+03  0.91144038653E+02 0.  0.
          2    1    3    3  502    0  0.16882165029E+02 -0.26495464895E+02 -0.56220020272E+03  0.56307733492E+03  0.00000000000E+00 0. -1.
         -2    1    3    3    0  502 -0.16882165029E+02  0.26495464895E+02 -0.87182171057E+02  0.92670103628E+02  0.00000000000E+00 0.  1.
<mgrwt>
<rscale>  0 0.91144039E+02</rscale>
<asrwt>0</asrwt>
<pdfrwt beam="2">  1        1 0.10039469E+00 0.91144039E+02</pdfrwt>
<pdfrwt beam="1">  1       -1 0.48961992E-03 0.91144039E+02</pdfrwt>
<totfact> 0.14223173E+05</totfact>
</mgrwt>
</event>
<event>
 5    1  0.3921687E+001  0.9037125E+02  0.7546771E-02  0.1301955E+00
         -4   -1    0    0    0  501 -0.00000000000E+00  0.00000000000E+00  0.11513155888E+03  0.11513155888E+03  0.00000000000E+00 0.  1.
          4   -1    0    0  501    0  0.00000000000E+00 -0.00000000000E+00 -0.17733979011E+02  0.17733979011E+02  0.00000000000E+00 0. -1.
         23    2    1    2    0    0  0.00000000000E+00  0.00000000000E+00  0.97397579871E+02  0.13286553789E+03  0.90371248719E+02 0.  0.
          2    1    3    3  502    0  0.39078527059E+02  0.93016644841E+01  0.18279518963E+02  0.44133808501E+02  0.00000000000E+00 0. -1.
         -2    1    3    3    0  502 -0.39078527059E+02 -0.93016644841E+01  0.79118060908E+02  0.88731729393E+02  0.00000000000E+00 0.  1.
<mgrwt>
<rscale>  0 0.90371249E+02</rscale>
<asrwt>0</asrwt>
<pdfrwt beam="2">  1        4 0.27283045E-02 0.90371249E+02</pdfrwt>
<pdfrwt beam="1">  1       -4 0.17712547E-01 0.90371249E+02</pdfrwt>
<totfact> 0.25156674E+04</totfact>
</mgrwt>
</event>
<event>
 5    1  0.3921687E+001  0.9124917E+02  0.7546771E-02  0.1299855E+00
          1   -1    0    0  501    0  0.00000000000E+00  0.00000000000E+00  0.29249464831E+03  0.29249464831E+03  0.00000000000E+00 0. -1.
         -1   -1    0    0    0  501 -0.00000000000E+00 -0.00000000000E+00 -0.71167208843E+01  0.71167208843E+01  0.00000000000E+00 0.  1.
         23    2    1    2    0    0  0.00000000000E+00  0.00000000000E+00  0.28537792742E+03  0.29961136919E+03  0.91249170345E+02 0.  0.
          2    1    3    3  502    0 -0.11762426991E+00  0.45071779533E+02  0.16593509076E+03  0.17194747306E+03  0.00000000000E+00 0. -1.
         -2    1    3    3    0  502  0.11762426991E+00 -0.45071779533E+02  0.11944283666E+03  0.12766389613E+03  0.00000000000E+00 0.  1.
<mgrwt>
<rscale>  0 0.91249170E+02</rscale>
<asrwt>0</asrwt>
<pdfrwt beam="1">  1        1 0.44999168E-01 0.91249170E+02</pdfrwt>
<pdfrwt beam="2">  1       -1 0.10948804E-02 0.91249170E+02</pdfrwt>
<totfact> 0.12723301E+05</totfact>
</mgrwt>
</event>
<event>
 5    1  0.3921687E+001  0.9195250E+02  0.7546771E-02  0.1298191E+00
          2   -1    0    0  501    0  0.00000000000E+00  0.00000000000E+00  0.12497926647E+04  0.12497926647E+04  0.00000000000E+00 0. -1.
         -2   -1    0    0    0  501 -0.00000000000E+00 -0.00000000000E+00 -0.16913331018E+01  0.16913331018E+01  0.00000000000E+00 0.  1.
         23    2    1    2    0    0  0.00000000000E+00  0.00000000000E+00  0.12481013316E+04  0.12514839978E+04  0.91952503047E+02 0.  0.
          2    1    3    3  502    0  0.33710473911E+01 -0.45595042733E+02  0.55801170565E+03  0.55988153704E+03  0.00000000000E+00 0. -1.
         -2    1    3    3    0  502 -0.33710473911E+01  0.45595042733E+02  0.69008962591E+03  0.69160246072E+03  0.00000000000E+00 0.  1.
<mgrwt>
<rscale>  0 0.91952503E+02</rscale>
<asrwt>0</asrwt>
<pdfrwt beam="1">  1        2 0.19227506E+00 0.91952503E+02</pdfrwt>
<pdfrwt beam="2">  1       -2 0.26020609E-03 0.91952503E+02</pdfrwt>
<totfact> 0.24191138E+05</totfact>
</mgrwt>
</event>
<event>
 5    1  0.3921687E+001  0.8691245E+02  0.7546771E-02  0.1310506E+00
         -2   -1    0    0    0  501 -0.00000000000E+00  0.00000000000E+00  0.81183002042E+01  0.81183002042E+01  0.00000000000E+00 0.  1.
          2   -1    0    0  501    0  0.00000000000E+00 -0.00000000000E+00 -0.23261560024E+03  0.23261560024E+03  0.00000000000E+00 0. -1.
         23    2    1    2    0    0  0.00000000000E+00  0.00000000000E+00 -0.22449730004E+03  0.24073390044E+03  0.86912445022E+02 0.  0.
          2    1    3    3  502    0  0.20992282091E+02  0.30445298092E+02 -0.49034818316E+02  0.61416654830E+02  0.00000000000E+00 0. -1.
         -2    1    3    3    0  502 -0.20992282091E+02 -0.30445298092E+02 -0.17546248172E+03  0.17931724561E+03  0.00000000000E+00 0.  1.
<mgrwt>
<rscale>  0 0.86912445E+02</rscale>
<asrwt>0</asrwt>
<pdfrwt beam="2">  1        2 0.35787012E-01 0.86912445E+02</pdfrwt>
<pdfrwt beam="1">  1       -2 0.12489694E-02 0.86912445E+02</pdfrwt>
<totfact> 0.18578259E+05</totfact>
</mgrwt>
</event>
<event>
 5    1  0.3921687E+001  0.9062968E+02  0.7546771E-02  0.1301334E+00
          2   -1    0    0  501    0  0.00000000000E+00  0.00000000000E+00  0.52055427145E+02  0.52055427145E+02  0.00000000000E+00 0. -1.
         -2   -1    0    0    0  501 -0.00000000000E+00 -0.00000000000E+00 -0.39447084781E+02  0.39447084781E+02  0.00000000000E+00 0.  1.
         23    2    1    2    0    0  0.00000000000E+00  0.00000000000E+00  0.12608342364E+02  0.91502511926E+02  0.90629682729E+02 0.  0.
          2    1    3    3  502    0  0.29094091906E+02 -0.29004783843E+02 -0.13003051195E+02  0.43090869218E+02  0.00000000000E+00 0. -1.
         -2    1    3    3    0  502 -0.29094091906E+02  0.29004783843E+02  0.25611393559E+02  0.48411642708E+02  0.00000000000E+00 0.  1.
<mgrwt>
<rscale>  0 0.90629683E+02</rscale>
<asrwt>0</asrwt>
<pdfrwt beam="1">  1        2 0.80085273E-02 0.90629683E+02</pdfrwt>
<pdfrwt beam="2">  1       -2 0.60687823E-02 0.90629683E+02</pdfrwt>
<totfact> 0.10391200E+05</totfact>
</mgrwt>
</event>
<event>
 5    1  0.3921687E+001  0.9721248E+02  0.7546771E-02  0.1286269E+00
         -2   -1    0    0    0  501 -0.00000000000E+00  0.00000000000E+00  0.16340672042E+01  0.16340672042E+01  0.00000000000E+00 0.  1.
          2   -1    0    0  501    0  0.00000000000E+00 -0.00000000000E+00 -0.14458198515E+04  0.14458198515E+04  0.00000000000E+00 0. -1.
         23    2    1    2    0    0  0.00000000000E+00  0.00000000000E+00 -0.14441857843E+04  0.14474539187E+04  0.97212484849E+02 0.  0.
          2    1    3    3  502    0 -0.43579783479E+02  0.11534126819E+02 -0.99271221925E+03  0.99373526850E+03  0.00000000000E+00 0. -1.
         -2    1    3    3    0  502  0.43579783479E+02 -0.11534126819E+02 -0.45147356509E+03  0.45371865025E+03  0.00000000000E+00 0.  1.
<mgrwt>
<rscale>  0 0.97212485E+02</rscale>
<asrwt>0</asrwt>
<pdfrwt beam="2">  1        2 0.22243322E+00 0.97212485E+02</pdfrwt>
<pdfrwt beam="1">  1       -2 0.25139563E-03 0.97212485E+02</pdfrwt>
<totfact> 0.20179956E+05</totfact>
</mgrwt>
</event>
<event>
 5    1  0.3921687E+001  0.9160413E+02  0.7546771E-02  0.1299013E+00
         -2   -1    0    0    0  501 -0.00000000000E+00  0.00000000000E+00  0.98148632018E+00  0.98148632018E+00  0.00000000000E+00 0.  1.
          2   -1    0    0  501    0  0.00000000000E+00 -0.00000000000E+00 -0.21374001849E+04  0.21374001849E+04  0.00000000000E+00 0. -1.
         23    2    1    2    0    0  0.00000000000E+00  0.00000000000E+00 -0.21364186986E+04  0.21383816713E+04  0.91604127467E+02 0.  0.
          2    1    3    3  502    0 -0.11938069350E+02  0.42548703048E+02 -0.13492269112E+04  0.13499504316E+04  0.00000000000E+00 0. -1.
         -2    1    3    3    0  502  0.11938069350E+02 -0.42548703048E+02 -0.78719178737E+03  0.78843123970E+03  0.00000000000E+00 0.  1.
<mgrwt>
<rscale>  0 0.91604127E+02</rscale>
<asrwt>0</asrwt>
<pdfrwt beam="2">  1        2 0.32883221E+00 0.91604127E+02</pdfrwt>
<pdfrwt beam="1">  1       -2 0.15099725E-03 0.91604127E+02</pdfrwt>
<totfact> 0.18164777E+05</totfact>
</mgrwt>
</event>
<event>
 5    1  0.3921687E+001  0.7715475E+02  0.7546771E-02  0.1337325E+00
          3   -1    0    0  501    0  0.00000000000E+00  0.00000000000E+00  0.23047722718E+01  0.23047722718E+01  0.00000000000E+00 0. -1.
         -3   -1    0    0    0  501 -0.00000000000E+00 -0.00000000000E+00 -0.64570972304E+03  0.64570972304E+03  0.00000000000E+00 0.  1.
         23    2    1    2    0    0  0.00000000000E+00  0.00000000000E+00 -0.64340495077E+03  0.64801449531E+03  0.77154750089E+02 0.  0.
          2    1    3    3  502    0 -0.29633916695E+02  0.10891012061E+02 -0.13551382888E+03  0.13914302347E+03  0.00000000000E+00 0. -1.
         -2    1    3    3    0  502  0.29633916695E+02 -0.10891012061E+02 -0.50789112189E+03  0.50887147185E+03  0.00000000000E+00 0.  1.
<mgrwt>
<rscale>  0 0.77154750E+02</rscale>
<asrwt>0</asrwt>
<pdfrwt beam="1">  1        3 0.35458003E-03 0.77154750E+02</pdfrwt>
<pdfrwt beam="2">  1       -3 0.99340047E-01 0.77154750E+02</pdfrwt>
<totfact> 0.22970295E+04</totfact>
</mgrwt>
</event>
<event>
 5    1  0.3921687E+001  0.8953328E+02  0.7546771E-02  0.1303986E+00
         -2   -1    0    0    0  501 -0.00000000000E+00  0.00000000000E+00  0.10424266727E+01  0.10424266727E+01  0.00000000000E+00 0.  1.
          2   -1    0    0  501    0  0.00000000000E+00 -0.00000000000E+00 -0.19224871785E+04  0.19224871785E+04  0.00000000000E+00 0. -1.
         23    2    1    2    0    0  0.00000000000E+00  0.00000000000E+00 -0.19214447519E+04  0.19235296052E+04  0.89533276781E+02 0.  0.
          2    1    3    3  502    0 -0.94705958802E+00 -0.28887538905E+02 -0.16951676331E+04  0.16954140176E+04  0.00000000000E+00 0. -1.
         -2    1    3    3    0  502  0.94705958802E+00  0.28887538905E+02 -0.22627711872E+03  0.22811558755E+03  0.00000000000E+00 0.  1.
<mgrwt>
<rscale>  0 0.89533277E+02</rscale>
<asrwt>0</asrwt>
<pdfrwt beam="2">  1        2 0.29576610E+00 0.89533277E+02</pdfrwt>
<pdfrwt beam="1">  1       -2 0.16037396E-03 0.89533277E+02</pdfrwt>
<totfact> 0.21384168E+05</totfact>
</mgrwt>
</event>
<event>
 5    1  0.3921687E+001  0.9259235E+02  0.7546771E-02  0.1296693E+00
         -1   -1    0    0    0  501 -0.00000000000E+00  0.00000000000E+00  0.85593015098E+02  0.85593015098E+02  0.00000000000E+00 0.  1.
          1   -1    0    0  501    0  0.00000000000E+00 -0.00000000000E+00 -0.25041015527E+02  0.25041015527E+02  0.00000000000E+00 0. -1.
         23    2    1    2    0    0  0.00000000000E+00  0.00000000000E+00  0.60551999571E+02  0.11063403063E+03  0.92592354330E+02 0.  0.
          2    1    3    3  502    0  0.30787334928E+02 -0.30287627085E+02  0.10348998195E+02  0.44410608080E+02  0.00000000000E+00 0. -1.
         -2    1    3    3    0  502 -0.30787334928E+02  0.30287627085E+02  0.50203001376E+02  0.66223422545E+02  0.00000000000E+00 0.  1.
<mgrwt>
<rscale>  0 0.92592354E+02</rscale>
<asrwt>0</asrwt>
<pdfrwt beam="2">  1        1 0.38524640E-02 0.92592354E+02</pdfrwt>
<pdfrwt beam="1">  1       -1 0.13168156E-01 0.92592354E+02</pdfrwt>
<totfact> 0.80430665E+04</totfact>
</mgrwt>
</event>
<event>
 5    1  0.3921687E+001  0.7983512E+02  0.7546771E-02  0.1329520E+00
          2   -1    0    0  501    0  0.00000000000E+00  0.00000000000E+00  0.10201427521E+04  0.10201427521E+04  0.00000000000E+00 0. -1.
         -2   -1    0    0    0  501 -0.00000000000E+00 -0.00000000000E+00 -0.15619496912E+01  0.15619496912E+01  0.00000000000E+00 0.  1.
         23    2    1    2    0    0  0.00000000000E+00  0.00000000000E+00  0.10185808024E+04  0.10217047018E+04  0.79835121512E+02 0.  0.
          2    1    3    3  502    0 -0.21547073408E+02  0.20139886187E+02  0.85352677031E+03  0.85403620475E+03  0.00000000000E+00 0. -1.
         -2    1    3    3    0  502  0.21547073408E+02 -0.20139886187E+02  0.16505403212E+03  0.16766849707E+03  0.00000000000E+00 0.  1.
<mgrwt>
<rscale>  0 0.79835122E+02</rscale>
<asrwt>0</asrwt>
<pdfrwt beam="1">  1        2 0.15694451E+00 0.79835122E+02</pdfrwt>
<pdfrwt beam="2">  1       -2 0.24030077E-03 0.79835122E+02</pdfrwt>
<totfact> 0.35412773E+05</totfact>
</mgrwt>
</event>
<event>
 5    1  0.3921687E+001  0.9312612E+02  0.7546771E-02  0.1295453E+00
          1   -1    0    0  501    0  0.00000000000E+00  0.00000000000E+00  0.20054643435E+02  0.20054643435E+02  0.00000000000E+00 0. -1.
         -1   -1    0    0    0  501 -0.00000000000E+00 -0.00000000000E+00 -0.10811055670E+03  0.10811055670E+03  0.00000000000E+00 0.  1.
         23    2    1    2    0    0  0.00000000000E+00  0.00000000000E+00 -0.88055913260E+02  0.12816520013E+03  0.93126122352E+02 0.  0.
          2    1    3    3  502    0 -0.28180984564E+02 -0.22605908924E+02 -0.84456192210E+02  0.91858823267E+02  0.00000000000E+00 0.  1.
         -2    1    3    3    0  502  0.28180984564E+02  0.22605908924E+02 -0.35997210497E+01  0.36306376863E+02  0.00000000000E+00 0. -1.
<mgrwt>
<rscale>  0 0.93126122E+02</rscale>
<asrwt>0</asrwt>
<pdfrwt beam="1">  1        1 0.30853297E-02 0.93126122E+02</pdfrwt>
<pdfrwt beam="2">  1       -1 0.16632394E-01 0.93126122E+02</pdfrwt>
<totfact> 0.75912933E+04</totfact>
</mgrwt>
</event>
<event>
 5    1  0.3921687E+001  0.8947531E+02  0.7546771E-02  0.1304127E+00
          1   -1    0    0  501    0  0.00000000000E+00  0.00000000000E+00  0.29799164702E+03  0.29799164702E+03  0.00000000000E+00 0. -1.
         -1   -1    0    0    0  501 -0.00000000000E+00 -0.00000000000E+00 -0.67164887964E+01  0.67164887964E+01  0.00000000000E+00 0.  1.
         23    2    1    2    0    0  0.00000000000E+00  0.00000000000E+00  0.29127515822E+03  0.30470813581E+03  0.89475305165E+02 0.  0.
          2    1    3    3  502    0  0.30345158220E+02 -0.88811313231E+01  0.37851791534E+02  0.49319988273E+02  0.00000000000E+00 0.  1.
         -2    1    3    3    0  502 -0.30345158220E+02  0.88811313231E+01  0.25342336669E+03  0.25538814754E+03  0.00000000000E+00 0. -1.
<mgrwt>
<rscale>  0 0.89475305E+02</rscale>
<asrwt>0</asrwt>
<pdfrwt beam="1">  1        1 0.45844859E-01 0.89475305E+02</pdfrwt>
<pdfrwt beam="2">  1       -1 0.10333062E-02 0.89475305E+02</pdfrwt>
<totfact> 0.13453510E+05</totfact>
</mgrwt>
</event>
<event>
 5    1  0.3921687E+001  0.1020140E+03  0.7546771E-02  0.1276117E+00
          2   -1    0    0  501    0  0.00000000000E+00  0.00000000000E+00  0.11984081493E+04  0.11984081493E+04  0.00000000000E+00 0. -1.
         -2   -1    0    0    0  501 -0.00000000000E+00 -0.00000000000E+00 -0.21709760589E+01  0.21709760589E+01  0.00000000000E+00 0.  1.
         23    2    1    2    0    0  0.00000000000E+00  0.00000000000E+00  0.11962371732E+04  0.12005791253E+04  0.10201402650E+03 0.  0.
          2    1    3    3  502    0 -0.20500359193E+02 -0.46435928022E+02  0.65714485459E+03  0.65910235931E+03  0.00000000000E+00 0.  1.
         -2    1    3    3    0  502  0.20500359193E+02  0.46435928022E+02  0.53909231864E+03  0.54147676603E+03  0.00000000000E+00 0. -1.
<mgrwt>
<rscale>  0 0.10201403E+03</rscale>
<asrwt>0</asrwt>
<pdfrwt beam="1">  1        2 0.18436996E+00 0.10201403E+03</pdfrwt>
<pdfrwt beam="2">  1       -2 0.33399727E-03 0.10201403E+03</pdfrwt>
<totfact> 0.18475451E+05</totfact>
</mgrwt>
</event>
<event>
 5    1  0.3921687E+001  0.9338786E+02  0.7546771E-02  0.1294849E+00
          2   -1    0    0  501    0  0.00000000000E+00  0.00000000000E+00  0.17335106740E+04  0.17335106740E+04  0.00000000000E+00 0.  1.
         -2   -1    0    0    0  501 -0.00000000000E+00 -0.00000000000E+00 -0.12577499254E+01  0.12577499254E+01  0.00000000000E+00 0. -1.
         23    2    1    2    0    0  0.00000000000E+00  0.00000000000E+00  0.17322529241E+04  0.17347684239E+04  0.93387856190E+02 0.  0.
          2    1    3    3  502    0  0.39419685947E+01  0.32475321337E+02  0.24719942905E+03  0.24935465373E+03  0.00000000000E+00 0. -1.
         -2    1    3    3    0  502 -0.39419685947E+01 -0.32475321337E+02  0.14850534950E+04  0.14854137702E+04  0.00000000000E+00 0.  1.
<mgrwt>
<rscale>  0 0.93387856E+02</rscale>
<asrwt>0</asrwt>
<pdfrwt beam="1">  1        2 0.26669204E+00 0.93387856E+02</pdfrwt>
<pdfrwt beam="2">  1       -2 0.19350137E-03 0.93387856E+02</pdfrwt>
<totfact> 0.20622766E+05</totfact>
</mgrwt>
</event>
<event>
 5    1  0.3921687E+001  0.9259527E+02  0.7546771E-02  0.1296686E+00
         -2   -1    0    0    0  501 -0.00000000000E+00  0.00000000000E+00  0.99025286930E+01  0.99025286930E+01  0.00000000000E+00 0.  1.
          2   -1    0    0  501    0  0.00000000000E+00 -0.00000000000E+00 -0.21645695401E+03  0.21645695401E+03  0.00000000000E+00 0. -1.
         23    2    1    2    0    0  0.00000000000E+00  0.00000000000E+00 -0.20655442532E+03  0.22635948270E+03  0.92595274132E+02 0.  0.
          2    1    3    3  502    0 -0.20514474545E+02  0.13589644031E+02 -0.19914679893E+03  0.20066133064E+03  0.00000000000E+00 0. -1.
         -2    1    3    3    0  502  0.20514474545E+02 -0.13589644031E+02 -0.74076263889E+01  0.25698152063E+02  0.00000000000E+00 0.  1.
<mgrwt>
<rscale>  0 0.92595274E+02</rscale>
<asrwt>0</asrwt>
<pdfrwt beam="2">  1        2 0.33301067E-01 0.92595274E+02</pdfrwt>
<pdfrwt beam="1">  1       -2 0.15234661E-02 0.92595274E+02</pdfrwt>
<totfact> 0.15271286E+05</totfact>
</mgrwt>
</event>
<event>
 5    1  0.3921687E+001  0.9140332E+02  0.7546771E-02  0.1299488E+00
         -2   -1    0    0    0  501 -0.00000000000E+00  0.00000000000E+00  0.66630755263E+01  0.66630755263E+01  0.00000000000E+00 0.  1.
          2   -1    0    0  501    0  0.00000000000E+00 -0.00000000000E+00 -0.31346514417E+03  0.31346514417E+03  0.00000000000E+00 0. -1.
         23    2    1    2    0    0  0.00000000000E+00  0.00000000000E+00 -0.30680206865E+03  0.32012821970E+03  0.91403324458E+02 0.  0.
          2    1    3    3  502    0  0.18935084723E+02  0.36864443183E+02 -0.85929966643E+02  0.95401696903E+02  0.00000000000E+00 0.  1.
         -2    1    3    3    0  502 -0.18935084723E+02 -0.36864443183E+02 -0.22087210200E+03  0.22472652279E+03  0.00000000000E+00 0. -1.
<mgrwt>
<rscale>  0 0.91403324E+02</rscale>
<asrwt>0</asrwt>
<pdfrwt beam="2">  1        2 0.48225405E-01 0.91403324E+02</pdfrwt>
<pdfrwt beam="1">  1       -2 0.10250886E-02 0.91403324E+02</pdfrwt>
<totfact> 0.18141249E+05</totfact>
</mgrwt>
</event>
<event>
 5    1  0.3921687E+001  0.9068613E+02  0.7546771E-02  0.1301199E+00
         -2   -1    0    0    0  501 -0.00000000000E+00  0.00000000000E+00  0.56664785379E+03  0.56664785379E+03  0.00000000000E+00 0.  1.
          2   -1    0    0  501    0  0.00000000000E+00 -0.00000000000E+00 -0.36283443046E+01  0.36283443046E+01  0.00000000000E+00 0. -1.
         23    2    1    2    0    0  0.00000000000E+00  0.00000000000E+00  0.56301950949E+03  0.57027619810E+03  0.90686129326E+02 0.  0.
          2    1    3    3  502    0  0.45183589000E+02  0.19191803098E+01  0.26088825678E+03  0.26477900690E+03  0.00000000000E+00 0.  1.
         -2    1    3    3    0  502 -0.45183589000E+02 -0.19191803098E+01  0.30213125271E+03  0.30549719120E+03  0.00000000000E+00 0. -1.
<mgrwt>
<rscale>  0 0.90686129E+02</rscale>
<asrwt>0</asrwt>
<pdfrwt beam="2">  1        2 0.55820727E-03 0.90686129E+02</pdfrwt>
<pdfrwt beam="1">  1       -2 0.87176522E-01 0.90686129E+02</pdfrwt>
<totfact> 0.33281579E+04</totfact>
</mgrwt>
</event>
<event>
 5    1  0.3921687E+001  0.9216309E+02  0.7546771E-02  0.1297696E+00
         -3   -1    0    0    0  501 -0.00000000000E+00  0.00000000000E+00  0.41495581081E+03  0.41495581081E+03  0.00000000000E+00 0.  1.
          3   -1    0    0  501    0  0.00000000000E+00 -0.00000000000E+00 -0.51174340449E+01  0.51174340449E+01  0.00000000000E+00 0. -1.
         23    2    1    2    0    0  0.00000000000E+00  0.00000000000E+00  0.40983837677E+03  0.42007324486E+03  0.92163094423E+02 0.  0.
          2    1    3    3  502    0 -0.27428363074E+02  0.22945147649E+02  0.33739080711E+03  0.33928063845E+03  0.00000000000E+00 0. -1.
         -2    1    3    3    0  502  0.27428363074E+02 -0.22945147649E+02  0.72447569655E+02  0.80792606410E+02  0.00000000000E+00 0.  1.
<mgrwt>
<rscale>  0 0.92163094E+02</rscale>
<asrwt>0</asrwt>
<pdfrwt beam="2">  1        3 0.78729787E-03 0.92163094E+02</pdfrwt>
<pdfrwt beam="1">  1       -3 0.63839329E-01 0.92163094E+02</pdfrwt>
<totfact> 0.19438558E+04</totfact>
</mgrwt>
</event>
<event>
 5    1  0.3921687E+001  0.8512510E+02  0.7546771E-02  0.1315106E+00
          3   -1    0    0  501    0  0.00000000000E+00  0.00000000000E+00  0.21266544556E+03  0.21266544556E+03  0.00000000000E+00 0. -1.
         -3   -1    0    0    0  501 -0.00000000000E+00 -0.00000000000E+00 -0.85184054446E+01  0.85184054446E+01  0.00000000000E+00 0.  1.
         23    2    1    2    0    0  0.00000000000E+00  0.00000000000E+00  0.20414704011E+03  0.22118385100E+03  0.85125095931E+02 0.  0.
          2    1    3    3  502    0 -0.33036444529E+02  0.10093484273E+02  0.16668211488E+03  0.17022400686E+03  0.00000000000E+00 0. -1.
         -2    1    3    3    0  502  0.33036444529E+02 -0.10093484273E+02  0.37464925233E+02  0.50959844138E+02  0.00000000000E+00 0.  1.
<mgrwt>
<rscale>  0 0.85125096E+02</rscale>
<asrwt>0</asrwt>
<pdfrwt beam="1">  1        3 0.32717757E-01 0.85125096E+02</pdfrwt>
<pdfrwt beam="2">  1       -3 0.13105241E-02 0.85125096E+02</pdfrwt>
<totfact> 0.32984967E+04</totfact>
</mgrwt>
</event>
<event>
 5    1  0.3921687E+001  0.9213603E+02  0.7546771E-02  0.1297760E+00
          2   -1    0    0  501    0  0.00000000000E+00  0.00000000000E+00  0.39082567440E+03  0.39082567440E+03  0.00000000000E+00 0. -1.
         -2   -1    0    0    0  501 -0.00000000000E+00 -0.00000000000E+00 -0.54302007170E+01  0.54302007170E+01  0.00000000000E+00 0.  1.
         23    2    1    2    0    0  0.00000000000E+00  0.00000000000E+00  0.38539547369E+03  0.39625587512E+03  0.92136026772E+02 0.  0.
          2    1    3    3  502    0 -0.22098732783E+02  0.39176643623E+02  0.23551113402E+03  0.23976792455E+03  0.00000000000E+00 0. -1.
         -2    1    3    3    0  502  0.22098732783E+02 -0.39176643623E+02  0.14988433967E+03  0.15648795057E+03  0.00000000000E+00 0.  1.
<mgrwt>
<rscale>  0 0.92136027E+02</rscale>
<asrwt>0</asrwt>
<pdfrwt beam="1">  1        2 0.60127005E-01 0.92136027E+02</pdfrwt>
<pdfrwt beam="2">  1       -2 0.83541580E-03 0.92136027E+02</pdfrwt>
<totfact> 0.19253816E+05</totfact>
</mgrwt>
</event>
<event>
 5    1  0.3921687E+001  0.8856005E+02  0.7546771E-02  0.1306377E+00
          1   -1    0    0  501    0  0.00000000000E+00  0.00000000000E+00  0.13747127560E+02  0.13747127560E+02  0.00000000000E+00 0. -1.
         -1   -1    0    0    0  501 -0.00000000000E+00 -0.00000000000E+00 -0.14262765095E+03  0.14262765095E+03  0.00000000000E+00 0.  1.
         23    2    1    2    0    0  0.00000000000E+00  0.00000000000E+00 -0.12888052339E+03  0.15637477851E+03  0.88560047679E+02 0.  0.
          2    1    3    3  502    0  0.17588351494E+02 -0.25936949333E+02 -0.92018133758E+01  0.32661120899E+02  0.00000000000E+00 0. -1.
         -2    1    3    3    0  502 -0.17588351494E+02  0.25936949333E+02 -0.11967871002E+03  0.12371365761E+03  0.00000000000E+00 0.  1.
<mgrwt>
<rscale>  0 0.88560048E+02</rscale>
<asrwt>0</asrwt>
<pdfrwt beam="1">  1        1 0.21149428E-02 0.88560048E+02</pdfrwt>
<pdfrwt beam="2">  1       -1 0.21942715E-01 0.88560048E+02</pdfrwt>
<totfact> 0.81588164E+04</totfact>
</mgrwt>
</event>
<event>
 5    1  0.3921687E+001  0.8978767E+02  0.7546771E-02  0.1303367E+00
          1   -1    0    0  501    0  0.00000000000E+00  0.00000000000E+00  0.20152704757E+02  0.20152704757E+02  0.00000000000E+00 0. -1.
         -1   -1    0    0    0  501 -0.00000000000E+00 -0.00000000000E+00 -0.10000922193E+03  0.10000922193E+03  0.00000000000E+00 0.  1.
         23    2    1    2    0    0  0.00000000000E+00  0.00000000000E+00 -0.79856517170E+02  0.12016192668E+03  0.89787667805E+02 0.  0.
          2    1    3    3  502    0 -0.22165025972E+02 -0.27009543673E+02 -0.77654089874E+02  0.85152577764E+02  0.00000000000E+00 0.  1.
         -2    1    3    3    0  502  0.22165025972E+02  0.27009543673E+02 -0.22024272958E+01  0.35009348919E+02  0.00000000000E+00 0. -1.
<mgrwt>
<rscale>  0 0.89787668E+02</rscale>
<asrwt>0</asrwt>
<pdfrwt beam="1">  1        1 0.31004160E-02 0.89787668E+02</pdfrwt>
<pdfrwt beam="2">  1       -1 0.15386035E-01 0.89787668E+02</pdfrwt>
<totfact> 0.84647164E+04</totfact>
</mgrwt>
</event>
<event>
 5    1  0.3921687E+001  0.9039529E+02  0.7546771E-02  0.1301897E+00
         -1   -1    0    0    0  501 -0.00000000000E+00  0.00000000000E+00  0.11325267675E+03  0.11325267675E+03  0.00000000000E+00 0.  1.
          1   -1    0    0  501    0  0.00000000000E+00 -0.00000000000E+00 -0.18037780325E+02  0.18037780325E+02  0.00000000000E+00 0. -1.
         23    2    1    2    0    0  0.00000000000E+00  0.00000000000E+00  0.95214896428E+02  0.13129045708E+03  0.90395285376E+02 0.  0.
          2    1    3    3  502    0 -0.12237024818E+02  0.20000327718E+02  0.10372869648E+03  0.10634566451E+03  0.00000000000E+00 0.  1.
         -2    1    3    3    0  502  0.12237024818E+02 -0.20000327718E+02 -0.85138000533E+01  0.24944792574E+02  0.00000000000E+00 0. -1.
<mgrwt>
<rscale>  0 0.90395285E+02</rscale>
<asrwt>0</asrwt>
<pdfrwt beam="2">  1        1 0.27750432E-02 0.90395285E+02</pdfrwt>
<pdfrwt beam="1">  1       -1 0.17423488E-01 0.90395285E+02</pdfrwt>
<totfact> 0.81235179E+04</totfact>
</mgrwt>
</event>
<event>
 5    1  0.3921687E+001  0.8697580E+02  0.7546771E-02  0.1310345E+00
          3   -1    0    0  501    0  0.00000000000E+00  0.00000000000E+00  0.54296442534E+02  0.54296442534E+02  0.00000000000E+00 0. -1.
         -3   -1    0    0    0  501 -0.00000000000E+00 -0.00000000000E+00 -0.34830962491E+02  0.34830962491E+02  0.00000000000E+00 0.  1.
         23    2    1    2    0    0  0.00000000000E+00  0.00000000000E+00  0.19465480043E+02  0.89127405025E+02  0.86975797859E+02 0.  0.
          2    1    3    3  502    0  0.29157988627E+02 -0.95203517278E+01  0.41323468939E+02  0.51463137126E+02  0.00000000000E+00 0. -1.
         -2    1    3    3    0  502 -0.29157988627E+02  0.95203517278E+01 -0.21857988896E+02  0.37664267899E+02  0.00000000000E+00 0.  1.
<mgrwt>
<rscale>  0 0.86975798E+02</rscale>
<asrwt>0</asrwt>
<pdfrwt beam="1">  1        3 0.83532989E-02 0.86975798E+02</pdfrwt>
<pdfrwt beam="2">  1       -3 0.53586096E-02 0.86975798E+02</pdfrwt>
<totfact> 0.40344329E+04</totfact>
</mgrwt>
</event>
<event>
 5    1  0.3921687E+001  0.9349317E+02  0.7546771E-02  0.1294606E+00
          2   -1    0    0  501    0  0.00000000000E+00  0.00000000000E+00  0.58191006495E+03  0.58191006495E+03  0.00000000000E+00 0. -1.
         -2   -1    0    0    0  501 -0.00000000000E+00 -0.00000000000E+00 -0.37552937767E+01  0.37552937767E+01  0.00000000000E+00 0.  1.
         23    2    1    2    0    0  0.00000000000E+00  0.00000000000E+00  0.57815477117E+03  0.58566535873E+03  0.93493170778E+02 0.  0.
          2    1    3    3  502    0 -0.38351721239E+02  0.14687257633E+02  0.42896448225E+03  0.43092586032E+03  0.00000000000E+00 0. -1.
         -2    1    3    3    0  502  0.38351721239E+02 -0.14687257633E+02  0.14919028892E+03  0.15473949840E+03  0.00000000000E+00 0.  1.
<mgrwt>
<rscale>  0 0.93493171E+02</rscale>
<asrwt>0</asrwt>
<pdfrwt beam="1">  1        2 0.89524554E-01 0.93493171E+02</pdfrwt>
<pdfrwt beam="2">  1       -2 0.57773797E-03 0.93493171E+02</pdfrwt>
<totfact> 0.21134455E+05</totfact>
</mgrwt>
</event>
<event>
 5    1  0.3921687E+001  0.1178850E+03  0.7546771E-02  0.1246628E+00
          1   -1    0    0  501    0  0.00000000000E+00  0.00000000000E+00  0.21761783499E+03  0.21761783499E+03  0.00000000000E+00 0. -1.
         -1   -1    0    0    0  501 -0.00000000000E+00 -0.00000000000E+00 -0.15964764024E+02  0.15964764024E+02  0.00000000000E+00 0.  1.
         23    2    1    2    0    0  0.00000000000E+00  0.00000000000E+00  0.20165307096E+03  0.23358259901E+03  0.11788498434E+03 0.  0.
          2    1    3    3  502    0 -0.27405005836E+02  0.36365053958E+02  0.17498569088E+03  0.18081328354E+03  0.00000000000E+00 0. -1.
         -2    1    3    3    0  502  0.27405005836E+02 -0.36365053958E+02  0.26667380088E+02  0.52769315469E+02  0.00000000000E+00 0.  1.
<mgrwt>
<rscale>  0 0.11788498E+03</rscale>
<asrwt>0</asrwt>
<pdfrwt beam="1">  1        1 0.33479665E-01 0.11788498E+03</pdfrwt>
<pdfrwt beam="2">  1       -1 0.24561177E-02 0.11788498E+03</pdfrwt>
<totfact> 0.59882602E+04</totfact>
</mgrwt>
</event>
<event>
 5    1  0.3921687E+001  0.8912411E+02  0.7546771E-02  0.1304987E+00
         -1   -1    0    0    0  501 -0.00000000000E+00  0.00000000000E+00  0.28321467552E+03  0.28321467552E+03  0.00000000000E+00 0.  1.
          1   -1    0    0  501    0  0.00000000000E+00 -0.00000000000E+00 -0.70115597140E+01  0.70115597140E+01  0.00000000000E+00 0. -1.
         23    2    1    2    0    0  0.00000000000E+00  0.00000000000E+00  0.27620311581E+03  0.29022623524E+03  0.89124106936E+02 0.  0.
          2    1    3    3  502    0 -0.34834968912E+02  0.12442278176E+02  0.57181369342E+02  0.68102821859E+02  0.00000000000E+00 0. -1.
         -2    1    3    3    0  502  0.34834968912E+02 -0.12442278176E+02  0.21902174647E+03  0.22212341338E+03  0.00000000000E+00 0.  1.
<mgrwt>
<rscale>  0 0.89124107E+02</rscale>
<asrwt>0</asrwt>
<pdfrwt beam="2">  1        1 0.10787017E-02 0.89124107E+02</pdfrwt>
<pdfrwt beam="1">  1       -1 0.43571480E-01 0.89124107E+02</pdfrwt>
<totfact> 0.65736607E+04</totfact>
</mgrwt>
</event>
<event>
 5    1  0.3921687E+001  0.9129609E+02  0.7546771E-02  0.1299743E+00
          2   -1    0    0  501    0  0.00000000000E+00  0.00000000000E+00  0.26748149076E+02  0.26748149076E+02  0.00000000000E+00 0.  1.
         -2   -1    0    0    0  501 -0.00000000000E+00 -0.00000000000E+00 -0.77902369579E+02  0.77902369579E+02  0.00000000000E+00 0. -1.
         23    2    1    2    0    0  0.00000000000E+00  0.00000000000E+00 -0.51154220503E+02  0.10465051865E+03  0.91296093998E+02 0.  0.
          2    1    3    3  502    0  0.17020781340E+02 -0.25328481093E+02 -0.64491537503E+02  0.71347020691E+02  0.00000000000E+00 0. -1.
         -2    1    3    3    0  502 -0.17020781340E+02  0.25328481093E+02  0.13337317000E+02  0.33303497964E+02  0.00000000000E+00 0.  1.
<mgrwt>
<rscale>  0 0.91296094E+02</rscale>
<asrwt>0</asrwt>
<pdfrwt beam="1">  1        2 0.41150999E-02 0.91296094E+02</pdfrwt>
<pdfrwt beam="2">  1       -2 0.11984980E-01 0.91296094E+02</pdfrwt>
<totfact> 0.85428495E+04</totfact>
</mgrwt>
</event>
<event>
 5    1  0.3921687E+001  0.8918028E+02  0.7546771E-02  0.1304849E+00
          2   -1    0    0  501    0  0.00000000000E+00  0.00000000000E+00  0.19961401203E+03  0.19961401203E+03  0.00000000000E+00 0.  1.
         -2   -1    0    0    0  501 -0.00000000000E+00 -0.00000000000E+00 -0.99606267869E+01  0.99606267869E+01  0.00000000000E+00 0. -1.
         23    2    1    2    0    0  0.00000000000E+00  0.00000000000E+00  0.18965338524E+03  0.20957463882E+03  0.89180282019E+02 0.  0.
          2    1    3    3  502    0  0.43374366417E+02  0.95577594550E+01  0.85546604619E+02  0.96389356206E+02  0.00000000000E+00 0. -1.
         -2    1    3    3    0  502 -0.43374366417E+02 -0.95577594550E+01  0.10410678062E+03  0.11318528261E+03  0.00000000000E+00 0.  1.
<mgrwt>
<rscale>  0 0.89180282E+02</rscale>
<asrwt>0</asrwt>
<pdfrwt beam="1">  1        2 0.30709845E-01 0.89180282E+02</pdfrwt>
<pdfrwt beam="2">  1       -2 0.15324043E-02 0.89180282E+02</pdfrwt>
<totfact> 0.16404717E+05</totfact>
</mgrwt>
</event>
<event>
 5    1  0.3921687E+001  0.9026854E+02  0.7546771E-02  0.1302203E+00
          4   -1    0    0  501    0  0.00000000000E+00  0.00000000000E+00  0.52590391783E+03  0.52590391783E+03  0.00000000000E+00 0. -1.
         -4   -1    0    0    0  501 -0.00000000000E+00 -0.00000000000E+00 -0.38735259195E+01  0.38735259195E+01  0.00000000000E+00 0.  1.
         23    2    1    2    0    0  0.00000000000E+00  0.00000000000E+00  0.52203039191E+03  0.52977744375E+03  0.90268542846E+02 0.  0.
          2    1    3    3  502    0  0.36864914622E+02  0.20175965886E+02  0.16439888909E+03  0.16968525647E+03  0.00000000000E+00 0. -1.
         -2    1    3    3    0  502 -0.36864914622E+02 -0.20175965886E+02  0.35763150282E+03  0.36009218727E+03  0.00000000000E+00 0.  1.
<mgrwt>
<rscale>  0 0.90268543E+02</rscale>
<asrwt>0</asrwt>
<pdfrwt beam="1">  1        4 0.80908238E-01 0.90268543E+02</pdfrwt>
<pdfrwt beam="2">  1       -4 0.59592748E-03 0.90268543E+02</pdfrwt>
<totfact> 0.12871720E+04</totfact>
</mgrwt>
</event>
<event>
 5    1  0.3921687E+001  0.8813306E+02  0.7546771E-02  0.1307437E+00
          2   -1    0    0  501    0  0.00000000000E+00  0.00000000000E+00  0.20578259185E+04  0.20578259185E+04  0.00000000000E+00 0.  1.
         -2   -1    0    0    0  501 -0.00000000000E+00 -0.00000000000E+00 -0.94364598836E+00  0.94364598836E+00  0.00000000000E+00 0. -1.
         23    2    1    2    0    0  0.00000000000E+00  0.00000000000E+00  0.20568822725E+04  0.20587695645E+04  0.88133062416E+02 0.  0.
          2    1    3    3  502    0  0.26234834855E+02  0.99292785229E+01  0.23455127792E+03  0.23622268965E+03  0.00000000000E+00 0. -1.
         -2    1    3    3    0  502 -0.26234834855E+02 -0.99292785229E+01  0.18223309946E+04  0.18225468748E+04  0.00000000000E+00 0.  1.
<mgrwt>
<rscale>  0 0.88133062E+02</rscale>
<asrwt>0</asrwt>
<pdfrwt beam="1">  1        2 0.31658501E+00 0.88133062E+02</pdfrwt>
<pdfrwt beam="2">  1       -2 0.14517795E-03 0.88133062E+02</pdfrwt>
<totfact> 0.20941201E+05</totfact>
</mgrwt>
</event>
<event>
 5    1  0.3921687E+001  0.9020945E+02  0.7546771E-02  0.1302345E+00
         -1   -1    0    0    0  501 -0.00000000000E+00  0.00000000000E+00  0.12282442911E+01  0.12282442911E+01  0.00000000000E+00 0.  1.
          1   -1    0    0  501    0  0.00000000000E+00 -0.00000000000E+00 -0.16563773828E+04  0.16563773828E+04  0.00000000000E+00 0. -1.
         23    2    1    2    0    0  0.00000000000E+00  0.00000000000E+00 -0.16551491385E+04  0.16576056271E+04  0.90209446610E+02 0.  0.
          2    1    3    3  502    0  0.17431128222E+02  0.15929848045E+02 -0.15337209014E+04  0.15339026721E+04  0.00000000000E+00 0. -1.
         -2    1    3    3    0  502 -0.17431128222E+02 -0.15929848045E+02 -0.12142823716E+03  0.12370295498E+03  0.00000000000E+00 0.  1.
<mgrwt>
<rscale>  0 0.90209447E+02</rscale>
<asrwt>0</asrwt>
<pdfrwt beam="2">  1        1 0.25482915E+00 0.90209447E+02</pdfrwt>
<pdfrwt beam="1">  1       -1 0.18895928E-03 0.90209447E+02</pdfrwt>
<totfact> 0.10380420E+05</totfact>
</mgrwt>
</event>
<event>
 5    1  0.3921687E+001  0.9432432E+02  0.7546771E-02  0.1292705E+00
          4   -1    0    0  501    0  0.00000000000E+00  0.00000000000E+00  0.25152998467E+02  0.25152998467E+02  0.00000000000E+00 0.  1.
         -4   -1    0    0    0  501 -0.00000000000E+00 -0.00000000000E+00 -0.88429593008E+02  0.88429593008E+02  0.00000000000E+00 0. -1.
         23    2    1    2    0    0  0.00000000000E+00  0.00000000000E+00 -0.63276594541E+02  0.11358259147E+03  0.94324321728E+02 0.  0.
          2    1    3    3  502    0 -0.34201338682E+01 -0.26152889627E+02 -0.78718117079E+02  0.83019352611E+02  0.00000000000E+00 0. -1.
         -2    1    3    3    0  502  0.34201338682E+01  0.26152889627E+02  0.15441522538E+02  0.30563238863E+02  0.00000000000E+00 0.  1.
<mgrwt>
<rscale>  0 0.94324322E+02</rscale>
<asrwt>0</asrwt>
<pdfrwt beam="1">  1        4 0.38696922E-02 0.94324322E+02</pdfrwt>
<pdfrwt beam="2">  1       -4 0.13604552E-01 0.94324322E+02</pdfrwt>
<totfact> 0.23384706E+04</totfact>
</mgrwt>
</event>
<event>
 5    1  0.3921687E+001  0.9231339E+02  0.7546771E-02  0.1297344E+00
          2   -1    0    0  501    0  0.00000000000E+00  0.00000000000E+00  0.20050714511E+04  0.20050714511E+04  0.00000000000E+00 0. -1.
         -2   -1    0    0    0  501 -0.00000000000E+00 -0.00000000000E+00 -0.10625259989E+01  0.10625259989E+01  0.00000000000E+00 0.  1.
         23    2    1    2    0    0  0.00000000000E+00  0.00000000000E+00  0.20040089251E+04  0.20061339771E+04  0.92313391152E+02 0.  0.
          2    1    3    3  502    0 -0.39281934993E+02  0.19251249326E+01  0.15270254817E+04  0.15275318649E+04  0.00000000000E+00 0. -1.
         -2    1    3    3    0  502  0.39281934993E+02 -0.19251249326E+01  0.47698344340E+03  0.47860211220E+03  0.00000000000E+00 0.  1.
<mgrwt>
<rscale>  0 0.92313391E+02</rscale>
<asrwt>0</asrwt>
<pdfrwt beam="1">  1        2 0.30846950E+00 0.92313391E+02</pdfrwt>
<pdfrwt beam="2">  1       -2 0.16346714E-03 0.92313391E+02</pdfrwt>
<totfact> 0.19001731E+05</totfact>
</mgrwt>
</event>
<event>
 5    1  0.3921687E+001  0.8822381E+02  0.7546771E-02  0.1307211E+00
          3   -1    0    0  501    0  0.00000000000E+00  0.00000000000E+00  0.46252508586E+03  0.46252508586E+03  0.00000000000E+00 0. -1.
         -3   -1    0    0    0  501 -0.00000000000E+00 -0.00000000000E+00 -0.42070367064E+01  0.42070367064E+01  0.00000000000E+00 0.  1.
         23    2    1    2    0    0  0.00000000000E+00  0.00000000000E+00  0.45831804915E+03  0.46673212256E+03  0.88223806624E+02 0.  0.
          2    1    3    3  502    0 -0.13151459195E+02  0.25649932964E+02  0.52508288063E+02  0.59899918659E+02  0.00000000000E+00 0.  1.
         -2    1    3    3    0  502  0.13151459195E+02 -0.25649932964E+02  0.40580976109E+03  0.40683220391E+03  0.00000000000E+00 0. -1.
<mgrwt>
<rscale>  0 0.88223807E+02</rscale>
<asrwt>0</asrwt>
<pdfrwt beam="1">  1        3 0.71157665E-01 0.88223807E+02</pdfrwt>
<pdfrwt beam="2">  1       -3 0.64723678E-03 0.88223807E+02</pdfrwt>
<totfact> 0.20463370E+04</totfact>
</mgrwt>
</event>
<event>
 5    1  0.3921687E+001  0.8755188E+02  0.7546771E-02  0.1308891E+00
         -2   -1    0    0    0  501 -0.00000000000E+00  0.00000000000E+00  0.41970914451E+02  0.41970914451E+02  0.00000000000E+00 0.  1.
          2   -1    0    0  501    0  0.00000000000E+00 -0.00000000000E+00 -0.45658591611E+02  0.45658591611E+02  0.00000000000E+00 0. -1.
         23    2    1    2    0    0  0.00000000000E+00  0.00000000000E+00 -0.36876771601E+01  0.87629506062E+02  0.87551878163E+02 0.  0.
          2    1    3    3  502    0  0.27857871876E+02 -0.33363810927E+02 -0.70569053087E+01  0.44034132415E+02  0.00000000000E+00 0. -1.
         -2    1    3    3    0  502 -0.27857871876E+02  0.33363810927E+02  0.33692281486E+01  0.43595373646E+02  0.00000000000E+00 0.  1.
<mgrwt>
<rscale>  0 0.87551878E+02</rscale>
<asrwt>0</asrwt>
<pdfrwt beam="2">  1        2 0.70243987E-02 0.87551878E+02</pdfrwt>
<pdfrwt beam="1">  1       -2 0.64570638E-02 0.87551878E+02</pdfrwt>
<totfact> 0.11083775E+05</totfact>
</mgrwt>
</event>
<event>
 5    1  0.3921687E+001  0.9045538E+02  0.7546771E-02  0.1301753E+00
         -3   -1    0    0    0  501 -0.00000000000E+00  0.00000000000E+00  0.18077298054E+02  0.18077298054E+02  0.00000000000E+00 0.  1.
          3   -1    0    0  501    0  0.00000000000E+00 -0.00000000000E+00 -0.11315541045E+03  0.11315541045E+03  0.00000000000E+00 0. -1.
         23    2    1    2    0    0  0.00000000000E+00  0.00000000000E+00 -0.95078112396E+02  0.13123270850E+03  0.90455383059E+02 0.  0.
          2    1    3    3  502    0 -0.33256936116E+02 -0.95603068602E+01 -0.89790011798E+02  0.96227176440E+02  0.00000000000E+00 0. -1.
         -2    1    3    3    0  502  0.33256936116E+02  0.95603068602E+01 -0.52881005984E+01  0.35005532063E+02  0.00000000000E+00 0.  1.
<mgrwt>
<rscale>  0 0.90455383E+02</rscale>
<asrwt>0</asrwt>
<pdfrwt beam="2">  1        3 0.17408525E-01 0.90455383E+02</pdfrwt>
<pdfrwt beam="1">  1       -3 0.27811227E-02 0.90455383E+02</pdfrwt>
<totfact> 0.33201625E+04</totfact>
</mgrwt>
</event>
<event>
 5    1  0.3921687E+001  0.9206545E+02  0.7546771E-02  0.1297926E+00
          3   -1    0    0  501    0  0.00000000000E+00  0.00000000000E+00  0.13342876884E+03  0.13342876884E+03  0.00000000000E+00 0. -1.
         -3   -1    0    0    0  501 -0.00000000000E+00 -0.00000000000E+00 -0.15881221565E+02  0.15881221565E+02  0.00000000000E+00 0.  1.
         23    2    1    2    0    0  0.00000000000E+00  0.00000000000E+00  0.11754754727E+03  0.14930999040E+03  0.92065451524E+02 0.  0.
          2    1    3    3  502    0 -0.32688763540E+02  0.12013534483E+02  0.10759265352E+03  0.11308872341E+03  0.00000000000E+00 0. -1.
         -2    1    3    3    0  502  0.32688763540E+02 -0.12013534483E+02  0.99548937532E+01  0.36221266987E+02  0.00000000000E+00 0.  1.
<mgrwt>
<rscale>  0 0.92065452E+02</rscale>
<asrwt>0</asrwt>
<pdfrwt beam="1">  1        3 0.20527502E-01 0.92065452E+02</pdfrwt>
<pdfrwt beam="2">  1       -3 0.24432649E-02 0.92065452E+02</pdfrwt>
<totfact> 0.30534842E+04</totfact>
</mgrwt>
</event>
<event>
 5    1  0.3921687E+001  0.9118487E+02  0.7546771E-02  0.1300007E+00
         -2   -1    0    0    0  501 -0.00000000000E+00  0.00000000000E+00  0.25268186573E+01  0.25268186573E+01  0.00000000000E+00 0.  1.
          2   -1    0    0  501    0  0.00000000000E+00 -0.00000000000E+00 -0.82264312429E+03  0.82264312429E+03  0.00000000000E+00 0. -1.
         23    2    1    2    0    0  0.00000000000E+00  0.00000000000E+00 -0.82011630563E+03  0.82516994295E+03  0.91184867051E+02 0.  0.
          2    1    3    3  502    0 -0.31902524587E+02 -0.31622242093E+02 -0.48069737858E+03  0.48279157723E+03  0.00000000000E+00 0. -1.
         -2    1    3    3    0  502  0.31902524587E+02  0.31622242093E+02 -0.33941892706E+03  0.34237836572E+03  0.00000000000E+00 0.  1.
<mgrwt>
<rscale>  0 0.91184867E+02</rscale>
<asrwt>0</asrwt>
<pdfrwt beam="2">  1        2 0.12656065E+00 0.91184867E+02</pdfrwt>
<pdfrwt beam="1">  1       -2 0.38874082E-03 0.91184867E+02</pdfrwt>
<totfact> 0.24483379E+05</totfact>
</mgrwt>
</event>
<event>
 5    1  0.3921687E+001  0.8940482E+02  0.7546771E-02  0.1304299E+00
          2   -1    0    0  501    0  0.00000000000E+00  0.00000000000E+00  0.93220956873E+02  0.93220956873E+02  0.00000000000E+00 0. -1.
         -2   -1    0    0    0  501 -0.00000000000E+00 -0.00000000000E+00 -0.21436227167E+02  0.21436227167E+02  0.00000000000E+00 0.  1.
         23    2    1    2    0    0  0.00000000000E+00  0.00000000000E+00  0.71784729705E+02  0.11465718404E+03  0.89404823321E+02 0.  0.
          2    1    3    3  502    0  0.16088104171E+02 -0.36614823035E+02  0.61503922896E+02  0.73363512002E+02  0.00000000000E+00 0. -1.
         -2    1    3    3    0  502 -0.16088104171E+02  0.36614823035E+02  0.10280806809E+02  0.41293672038E+02  0.00000000000E+00 0.  1.
<mgrwt>
<rscale>  0 0.89404823E+02</rscale>
<asrwt>0</asrwt>
<pdfrwt beam="1">  1        2 0.14341685E-01 0.89404823E+02</pdfrwt>
<pdfrwt beam="2">  1       -2 0.32978812E-02 0.89404823E+02</pdfrwt>
<totfact> 0.12677875E+05</totfact>
</mgrwt>
</event>
<event>
 5    1  0.3921687E+001  0.9802672E+02  0.7546771E-02  0.1284501E+00
         -1   -1    0    0    0  501 -0.00000000000E+00  0.00000000000E+00  0.76168113174E+01  0.76168113174E+01  0.00000000000E+00 0.  1.
          1   -1    0    0  501    0  0.00000000000E+00 -0.00000000000E+00 -0.31539569975E+03  0.31539569975E+03  0.00000000000E+00 0. -1.
         23    2    1    2    0    0  0.00000000000E+00  0.00000000000E+00 -0.30777888843E+03  0.32301251107E+03  0.98026721567E+02 0.  0.
          2    1    3    3  502    0 -0.29384898643E+02  0.39227875087E+02 -0.15354254181E+03  0.16117571342E+03  0.00000000000E+00 0. -1.
         -2    1    3    3    0  502  0.29384898643E+02 -0.39227875087E+02 -0.15423634662E+03  0.16183679764E+03  0.00000000000E+00 0.  1.
<mgrwt>
<rscale>  0 0.98026722E+02</rscale>
<asrwt>0</asrwt>
<pdfrwt beam="2">  1        1 0.48522419E-01 0.98026722E+02</pdfrwt>
<pdfrwt beam="1">  1       -1 0.11718170E-02 0.98026722E+02</pdfrwt>
<totfact> 0.10656429E+05</totfact>
</mgrwt>
</event>
<event>
 5    1  0.3921687E+001  0.9074730E+02  0.7546771E-02  0.1301052E+00
         -4   -1    0    0    0  501 -0.00000000000E+00  0.00000000000E+00  0.30184798119E+02  0.30184798119E+02  0.00000000000E+00 0.  1.
          4   -1    0    0  501    0  0.00000000000E+00 -0.00000000000E+00 -0.68205468541E+02  0.68205468541E+02  0.00000000000E+00 0. -1.
         23    2    1    2    0    0  0.00000000000E+00  0.00000000000E+00 -0.38020670421E+02  0.98390266660E+02  0.90747304060E+02 0.  0.
          2    1    3    3  502    0 -0.15721278758E+02 -0.40836466064E+02 -0.59999938414E+01  0.44167584182E+02  0.00000000000E+00 0. -1.
         -2    1    3    3    0  502  0.15721278758E+02  0.40836466064E+02 -0.32020676580E+02  0.54222682477E+02  0.00000000000E+00 0.  1.
<mgrwt>
<rscale>  0 0.90747304E+02</rscale>
<asrwt>0</asrwt>
<pdfrwt beam="2">  1        4 0.10493149E-01 0.90747304E+02</pdfrwt>
<pdfrwt beam="1">  1       -4 0.46438151E-02 0.90747304E+02</pdfrwt>
<totfact> 0.26900075E+04</totfact>
</mgrwt>
</event>
<event>
 5    1  0.3921687E+001  0.9104683E+02  0.7546771E-02  0.1300336E+00
          2   -1    0    0  501    0  0.00000000000E+00  0.00000000000E+00  0.18885006148E+03  0.18885006148E+03  0.00000000000E+00 0. -1.
         -2   -1    0    0    0  501 -0.00000000000E+00 -0.00000000000E+00 -0.10973687057E+02  0.10973687057E+02  0.00000000000E+00 0.  1.
         23    2    1    2    0    0  0.00000000000E+00  0.00000000000E+00  0.17787637442E+03  0.19982374854E+03  0.91046833559E+02 0.  0.
          2    1    3    3  502    0  0.45230437528E+02  0.50965385355E+01  0.87218024865E+02  0.98380643652E+02  0.00000000000E+00 0. -1.
         -2    1    3    3    0  502 -0.45230437528E+02 -0.50965385355E+01  0.90658349558E+02  0.10144310488E+03  0.00000000000E+00 0.  1.
<mgrwt>
<rscale>  0 0.91046834E+02</rscale>
<asrwt>0</asrwt>
<pdfrwt beam="1">  1        2 0.29053853E-01 0.91046834E+02</pdfrwt>
<pdfrwt beam="2">  1       -2 0.16882597E-02 0.91046834E+02</pdfrwt>
<totfact> 0.15210289E+05</totfact>
</mgrwt>
</event>
<event>
 5    1  0.3921687E+001  0.9069586E+02  0.7546771E-02  0.1301175E+00
         -2   -1    0    0    0  501 -0.00000000000E+00  0.00000000000E+00  0.17648752870E+01  0.17648752870E+01  0.00000000000E+00 0.  1.
          2   -1    0    0  501    0  0.00000000000E+00 -0.00000000000E+00 -0.11652010609E+04  0.11652010609E+04  0.00000000000E+00 0. -1.
         23    2    1    2    0    0  0.00000000000E+00  0.00000000000E+00 -0.11634361856E+04  0.11669659362E+04  0.90695855623E+02 0.  0.
          2    1    3    3  502    0  0.15606101851E+02 -0.21842465484E+02 -0.10519801809E+04  0.10523226429E+04  0.00000000000E+00 0. -1.
         -2    1    3    3    0  502 -0.15606101851E+02  0.21842465484E+02 -0.11145600470E+03  0.11464329329E+03  0.00000000000E+00 0.  1.
<mgrwt>
<rscale>  0 0.90695856E+02</rscale>
<asrwt>0</asrwt>
<pdfrwt beam="2">  1        2 0.17926121E+00 0.90695856E+02</pdfrwt>
<pdfrwt beam="1">  1       -2 0.27152002E-03 0.90695856E+02</pdfrwt>
<totfact> 0.25288264E+05</totfact>
</mgrwt>
</event>
<event>
 5    1  0.3921687E+001  0.9078889E+02  0.7546771E-02  0.1300952E+00
         -1   -1    0    0    0  501 -0.00000000000E+00  0.00000000000E+00  0.83202575628E+01  0.83202575628E+01  0.00000000000E+00 0.  1.
          1   -1    0    0  501    0  0.00000000000E+00 -0.00000000000E+00 -0.24766727586E+03  0.24766727586E+03  0.00000000000E+00 0. -1.
         23    2    1    2    0    0  0.00000000000E+00  0.00000000000E+00 -0.23934701829E+03  0.25598753342E+03  0.90788887536E+02 0.  0.
          2    1    3    3  502    0 -0.16935517824E+02  0.27885545026E+02 -0.20866902794E+03  0.21120411598E+03  0.00000000000E+00 0. -1.
         -2    1    3    3    0  502  0.16935517824E+02 -0.27885545026E+02 -0.30677990353E+02  0.44783417439E+02  0.00000000000E+00 0.  1.
<mgrwt>
<rscale>  0 0.90788888E+02</rscale>
<asrwt>0</asrwt>
<pdfrwt beam="2">  1        1 0.38102659E-01 0.90788888E+02</pdfrwt>
<pdfrwt beam="1">  1       -1 0.12800396E-02 0.90788888E+02</pdfrwt>
<totfact> 0.12485823E+05</totfact>
</mgrwt>
</event>
<event>
 5    1  0.3921687E+001  0.8718898E+02  0.7546771E-02  0.1309805E+00
          1   -1    0    0  501    0  0.00000000000E+00  0.00000000000E+00  0.20802779966E+03  0.20802779966E+03  0.00000000000E+00 0. -1.
         -1   -1    0    0    0  501 -0.00000000000E+00 -0.00000000000E+00 -0.91357009910E+01  0.91357009910E+01  0.00000000000E+00 0.  1.
         23    2    1    2    0    0  0.00000000000E+00  0.00000000000E+00  0.19889209867E+03  0.21716350065E+03  0.87188984981E+02 0.  0.
          2    1    3    3  502    0 -0.31786114063E+02 -0.19827747242E+02  0.15497200626E+03  0.15943594116E+03  0.00000000000E+00 0. -1.
         -2    1    3    3    0  502  0.31786114063E+02  0.19827747242E+02  0.43920092403E+02  0.57727559490E+02  0.00000000000E+00 0.  1.
<mgrwt>
<rscale>  0 0.87188985E+02</rscale>
<asrwt>0</asrwt>
<pdfrwt beam="1">  1        1 0.32004273E-01 0.87188985E+02</pdfrwt>
<pdfrwt beam="2">  1       -1 0.14054926E-02 0.87188985E+02</pdfrwt>
<totfact> 0.13445814E+05</totfact>
</mgrwt>
</event>
<event>
 5    1  0.3921687E+001  0.9074902E+02  0.7546771E-02  0.1301048E+00
         -1   -1    0    0    0  501 -0.00000000000E+00  0.00000000000E+00  0.32956486382E+03  0.32956486382E+03  0.00000000000E+00 0.  1.
          1   -1    0    0  501    0  0.00000000000E+00 -0.00000000000E+00 -0.62471654615E+01  0.62471654615E+01  0.00000000000E+00 0. -1.
         23    2    1    2    0    0  0.00000000000E+00  0.00000000000E+00  0.32331769836E+03  0.33581202929E+03  0.90749021694E+02 0.  0.
          2    1    3    3  502    0 -0.19199758811E+02  0.37248039556E+02  0.97266903485E+02  0.10590985649E+03  0.00000000000E+00 0. -1.
         -2    1    3    3    0  502  0.19199758811E+02 -0.37248039556E+02  0.22605079488E+03  0.22990217279E+03  0.00000000000E+00 0.  1.
<mgrwt>
<rscale>  0 0.90749022E+02</rscale>
<asrwt>0</asrwt>
<pdfrwt beam="2">  1        1 0.96110264E-03 0.90749022E+02</pdfrwt>
<pdfrwt beam="1">  1       -1 0.50702273E-01 0.90749022E+02</pdfrwt>
<totfact> 0.59020840E+04</totfact>
</mgrwt>
</event>
<event>
 5    1  0.3921687E+001  0.9139203E+02  0.7546771E-02  0.1299515E+00
         -3   -1    0    0    0  501 -0.00000000000E+00  0.00000000000E+00  0.58367262060E+01  0.58367262060E+01  0.00000000000E+00 0.  1.
          3   -1    0    0  501    0  0.00000000000E+00 -0.00000000000E+00 -0.35775635779E+03  0.35775635779E+03  0.00000000000E+00 0. -1.
         23    2    1    2    0    0  0.00000000000E+00  0.00000000000E+00 -0.35191963158E+03  0.36359308399E+03  0.91392032669E+02 0.  0.
          2    1    3    3  502    0  0.31978322017E+02  0.26397260923E+02 -0.25235084152E+03  0.25573497156E+03  0.00000000000E+00 0. -1.
         -2    1    3    3    0  502 -0.31978322017E+02 -0.26397260923E+02 -0.99568790057E+02  0.10785811243E+03  0.00000000000E+00 0.  1.
<mgrwt>
<rscale>  0 0.91392033E+02</rscale>
<asrwt>0</asrwt>
<pdfrwt beam="2">  1        3 0.55039420E-01 0.91392033E+02</pdfrwt>
<pdfrwt beam="1">  1       -3 0.89795820E-03 0.91392033E+02</pdfrwt>
<totfact> 0.21625214E+04</totfact>
</mgrwt>
</event>
<event>
 5    1  0.3921687E+001  0.9161327E+02  0.7546771E-02  0.1298991E+00
         -3   -1    0    0    0  501 -0.00000000000E+00  0.00000000000E+00  0.34354420311E+03  0.34354420311E+03  0.00000000000E+00 0.  1.
          3   -1    0    0  501    0  0.00000000000E+00 -0.00000000000E+00 -0.61076508046E+01  0.61076508046E+01  0.00000000000E+00 0. -1.
         23    2    1    2    0    0  0.00000000000E+00  0.00000000000E+00  0.33743655231E+03  0.34965185392E+03  0.91613274771E+02 0.  0.
          2    1    3    3  502    0 -0.16164391287E+02  0.40596716113E+02  0.11626705413E+03  0.12420712049E+03  0.00000000000E+00 0. -1.
         -2    1    3    3    0  502  0.16164391287E+02 -0.40596716113E+02  0.22116949818E+03  0.22544473342E+03  0.00000000000E+00 0.  1.
<mgrwt>
<rscale>  0 0.91613275E+02</rscale>
<asrwt>0</asrwt>
<pdfrwt beam="2">  1        3 0.93963885E-03 0.91613275E+02</pdfrwt>
<pdfrwt beam="1">  1       -3 0.52852939E-01 0.91613275E+02</pdfrwt>
<totfact> 0.21935140E+04</totfact>
</mgrwt>
</event>
<event>
 5    1  0.3921687E+001  0.9095329E+02  0.7546771E-02  0.1300559E+00
          2   -1    0    0  501    0  0.00000000000E+00  0.00000000000E+00  0.20616611728E+03  0.20616611728E+03  0.00000000000E+00 0.  1.
         -2   -1    0    0    0  501 -0.00000000000E+00 -0.00000000000E+00 -0.10031352922E+02  0.10031352922E+02  0.00000000000E+00 0. -1.
         23    2    1    2    0    0  0.00000000000E+00  0.00000000000E+00  0.19613476436E+03  0.21619747020E+03  0.90953286537E+02 0.  0.
          2    1    3    3  502    0 -0.39646528192E+01  0.21071209290E+02  0.19339762402E+03  0.19458251542E+03  0.00000000000E+00 0.  1.
         -2    1    3    3    0  502  0.39646528192E+01 -0.21071209290E+02  0.27371403434E+01  0.21614954781E+02  0.00000000000E+00 0. -1.
<mgrwt>
<rscale>  0 0.90953287E+02</rscale>
<asrwt>0</asrwt>
<pdfrwt beam="1">  1        2 0.31717861E-01 0.90953287E+02</pdfrwt>
<pdfrwt beam="2">  1       -2 0.15432852E-02 0.90953287E+02</pdfrwt>
<totfact> 0.15742767E+05</totfact>
</mgrwt>
</event>
<event>
 5    1  0.3921687E+001  0.6995672E+02  0.7546771E-02  0.1360240E+00
          3   -1    0    0  501    0  0.00000000000E+00  0.00000000000E+00  0.14918152761E+04  0.14918152761E+04  0.00000000000E+00 0. -1.
         -3   -1    0    0    0  501 -0.00000000000E+00 -0.00000000000E+00 -0.82013204446E+00  0.82013204446E+00  0.00000000000E+00 0.  1.
         23    2    1    2    0    0  0.00000000000E+00  0.00000000000E+00  0.14909951440E+04  0.14926354081E+04  0.69956715541E+02 0.  0.
          2    1    3    3  502    0 -0.89794093738E+01  0.20393421689E+02  0.13207795939E+04  0.13209675458E+04  0.00000000000E+00 0. -1.
         -2    1    3    3    0  502  0.89794093738E+01 -0.20393421689E+02  0.17021555008E+03  0.17166786226E+03  0.00000000000E+00 0.  1.
<mgrwt>
<rscale>  0 0.69956716E+02</rscale>
<asrwt>0</asrwt>
<pdfrwt beam="1">  1        3 0.22950787E+00 0.69956716E+02</pdfrwt>
<pdfrwt beam="2">  1       -3 0.12617535E-03 0.69956716E+02</pdfrwt>
<totfact> 0.12351742E+04</totfact>
</mgrwt>
</event>
<event>
 5    1  0.3921687E+001  0.9226127E+02  0.7546771E-02  0.1297466E+00
         -2   -1    0    0    0  501 -0.00000000000E+00  0.00000000000E+00  0.27525785833E+01  0.27525785833E+01  0.00000000000E+00 0.  1.
          2   -1    0    0  501    0  0.00000000000E+00 -0.00000000000E+00 -0.77310621972E+03  0.77310621972E+03  0.00000000000E+00 0. -1.
         23    2    1    2    0    0  0.00000000000E+00  0.00000000000E+00 -0.77035364113E+03  0.77585879830E+03  0.92261272981E+02 0.  0.
          2    1    3    3  502    0  0.37430326443E+02 -0.23877460131E+02 -0.49050330808E+03  0.49250853564E+03  0.00000000000E+00 0. -1.
         -2    1    3    3    0  502 -0.37430326443E+02  0.23877460131E+02 -0.27985033305E+03  0.28335026266E+03  0.00000000000E+00 0.  1.
<mgrwt>
<rscale>  0 0.92261273E+02</rscale>
<asrwt>0</asrwt>
<pdfrwt beam="2">  1        2 0.11893928E+00 0.92261273E+02</pdfrwt>
<pdfrwt beam="1">  1       -2 0.42347414E-03 0.92261273E+02</pdfrwt>
<totfact> 0.23477520E+05</totfact>
</mgrwt>
</event>
<event>
 5    1  0.3921687E+001  0.9124813E+02  0.7546771E-02  0.1299857E+00
          2   -1    0    0  501    0  0.00000000000E+00  0.00000000000E+00  0.92990759725E+03  0.92990759725E+03  0.00000000000E+00 0. -1.
         -2   -1    0    0    0  501 -0.00000000000E+00 -0.00000000000E+00 -0.22384540553E+01  0.22384540553E+01  0.00000000000E+00 0.  1.
         23    2    1    2    0    0  0.00000000000E+00  0.00000000000E+00  0.92766914320E+03  0.93214605131E+03  0.91248132740E+02 0.  0.
          2    1    3    3  502    0  0.19837494235E+02  0.38333051808E+02  0.31279476942E+03  0.31575863696E+03  0.00000000000E+00 0.  1.
         -2    1    3    3    0  502 -0.19837494235E+02 -0.38333051808E+02  0.61487437377E+03  0.61638741434E+03  0.00000000000E+00 0. -1.
<mgrwt>
<rscale>  0 0.91248133E+02</rscale>
<asrwt>0</asrwt>
<pdfrwt beam="1">  1        2 0.14306240E+00 0.91248133E+02</pdfrwt>
<pdfrwt beam="2">  1       -2 0.34437829E-03 0.91248133E+02</pdfrwt>
<totfact> 0.24826195E+05</totfact>
</mgrwt>
</event>
<event>
 5    1  0.3921687E+001  0.8876991E+02  0.7546771E-02  0.1305858E+00
         -2   -1    0    0    0  501 -0.00000000000E+00  0.00000000000E+00  0.65030170862E+01  0.65030170862E+01  0.00000000000E+00 0.  1.
          2   -1    0    0  501    0  0.00000000000E+00 -0.00000000000E+00 -0.30294006796E+03  0.30294006796E+03  0.00000000000E+00 0. -1.
         23    2    1    2    0    0  0.00000000000E+00  0.00000000000E+00 -0.29643705088E+03  0.30944308505E+03  0.88769914680E+02 0.  0.
          2    1    3    3  502    0  0.20564567572E+02  0.33510618163E+02 -0.22001127507E+03  0.22349681011E+03  0.00000000000E+00 0. -1.
         -2    1    3    3    0  502 -0.20564567572E+02 -0.33510618163E+02 -0.76425775806E+02  0.85946274943E+02  0.00000000000E+00 0.  1.
<mgrwt>
<rscale>  0 0.88769915E+02</rscale>
<asrwt>0</asrwt>
<pdfrwt beam="2">  1        2 0.46606170E-01 0.88769915E+02</pdfrwt>
<pdfrwt beam="1">  1       -2 0.10004641E-02 0.88769915E+02</pdfrwt>
<totfact> 0.19362480E+05</totfact>
</mgrwt>
</event>
<event>
 5    1  0.3921687E+001  0.9159154E+02  0.7546771E-02  0.1299043E+00
          4   -1    0    0  501    0  0.00000000000E+00  0.00000000000E+00  0.26490324148E+01  0.26490324148E+01  0.00000000000E+00 0. -1.
         -4   -1    0    0    0  501 -0.00000000000E+00 -0.00000000000E+00 -0.79170510671E+03  0.79170510671E+03  0.00000000000E+00 0.  1.
         23    2    1    2    0    0  0.00000000000E+00  0.00000000000E+00 -0.78905607430E+03  0.79435413913E+03  0.91591538707E+02 0.  0.
          2    1    3    3  502    0  0.30940853623E+02 -0.28897276103E+02 -0.24309817587E+03  0.24675719260E+03  0.00000000000E+00 0. -1.
         -2    1    3    3    0  502 -0.30940853623E+02  0.28897276103E+02 -0.54595789843E+03  0.54759694652E+03  0.00000000000E+00 0.  1.
<mgrwt>
<rscale>  0 0.91591539E+02</rscale>
<asrwt>0</asrwt>
<pdfrwt beam="1">  1        4 0.40754231E-03 0.91591539E+02</pdfrwt>
<pdfrwt beam="2">  1       -4 0.12180113E+00 0.91591539E+02</pdfrwt>
<totfact> 0.88611851E+03</totfact>
</mgrwt>
</event>
<event>
 5    1  0.3921687E+001  0.9169270E+02  0.7546771E-02  0.1298804E+00
          1   -1    0    0  501    0  0.00000000000E+00  0.00000000000E+00  0.36708749647E+03  0.36708749647E+03  0.00000000000E+00 0. -1.
         -1   -1    0    0    0  501 -0.00000000000E+00 -0.00000000000E+00 -0.57258492706E+01  0.57258492706E+01  0.00000000000E+00 0.  1.
         23    2    1    2    0    0  0.00000000000E+00  0.00000000000E+00  0.36136164720E+03  0.37281334574E+03  0.91692697068E+02 0.  0.
          2    1    3    3  502    0 -0.33733690286E+02 -0.21735402565E+02  0.27082083735E+03  0.27377785799E+03  0.00000000000E+00 0. -1.
         -2    1    3    3    0  502  0.33733690286E+02  0.21735402565E+02  0.90540809847E+02  0.99035487744E+02  0.00000000000E+00 0.  1.
<mgrwt>
<rscale>  0 0.91692697E+02</rscale>
<asrwt>0</asrwt>
<pdfrwt beam="1">  1        1 0.56474981E-01 0.91692697E+02</pdfrwt>
<pdfrwt beam="2">  1       -1 0.88090018E-03 0.91692697E+02</pdfrwt>
<totfact> 0.13096325E+05</totfact>
</mgrwt>
</event>
<event>
 5    1  0.3921687E+001  0.9174816E+02  0.7546771E-02  0.1298673E+00
         -1   -1    0    0    0  501 -0.00000000000E+00  0.00000000000E+00  0.47310363003E+03  0.47310363003E+03  0.00000000000E+00 0.  1.
          1   -1    0    0  501    0  0.00000000000E+00 -0.00000000000E+00 -0.44481403799E+01  0.44481403799E+01  0.00000000000E+00 0. -1.
         23    2    1    2    0    0  0.00000000000E+00  0.00000000000E+00  0.46865548965E+03  0.47755177041E+03  0.91748163156E+02 0.  0.
          2    1    3    3  502    0 -0.15712451263E+02  0.42644296118E+02  0.20181641888E+03  0.20687021062E+03  0.00000000000E+00 0. -1.
         -2    1    3    3    0  502  0.15712451263E+02 -0.42644296118E+02  0.26683907077E+03  0.27068155978E+03  0.00000000000E+00 0.  1.
<mgrwt>
<rscale>  0 0.91748163E+02</rscale>
<asrwt>0</asrwt>
<pdfrwt beam="2">  1        1 0.68432966E-03 0.91748163E+02</pdfrwt>
<pdfrwt beam="1">  1       -1 0.72785134E-01 0.91748163E+02</pdfrwt>
<totfact> 0.47843070E+04</totfact>
</mgrwt>
</event>
<event>
 5    1  0.3921687E+001  0.9033970E+02  0.7546771E-02  0.1302031E+00
         -1   -1    0    0    0  501 -0.00000000000E+00  0.00000000000E+00  0.29642387067E+02  0.29642387067E+02  0.00000000000E+00 0.  1.
          1   -1    0    0  501    0  0.00000000000E+00 -0.00000000000E+00 -0.68831001424E+02  0.68831001424E+02  0.00000000000E+00 0. -1.
         23    2    1    2    0    0  0.00000000000E+00  0.00000000000E+00 -0.39188614357E+02  0.98473388491E+02  0.90339696400E+02 0.  0.
          2    1    3    3  502    0  0.52290161707E+01  0.32331032793E+02  0.14313947891E+02  0.35742515242E+02  0.00000000000E+00 0.  1.
         -2    1    3    3    0  502 -0.52290161707E+01 -0.32331032793E+02 -0.53502562247E+02  0.62730873249E+02  0.00000000000E+00 0. -1.
<mgrwt>
<rscale>  0 0.90339696E+02</rscale>
<asrwt>0</asrwt>
<pdfrwt beam="2">  1        1 0.10589385E-01 0.90339696E+02</pdfrwt>
<pdfrwt beam="1">  1       -1 0.45603673E-02 0.90339696E+02</pdfrwt>
<totfact> 0.10094486E+05</totfact>
</mgrwt>
</event>
<event>
 5    1  0.3921687E+001  0.9048368E+02  0.7546771E-02  0.1301685E+00
          3   -1    0    0  501    0  0.00000000000E+00  0.00000000000E+00  0.17448904383E+03  0.17448904383E+03  0.00000000000E+00 0. -1.
         -3   -1    0    0    0  501 -0.00000000000E+00 -0.00000000000E+00 -0.11730387310E+02  0.11730387310E+02  0.00000000000E+00 0.  1.
         23    2    1    2    0    0  0.00000000000E+00  0.00000000000E+00  0.16275865653E+03  0.18621943114E+03  0.90483679533E+02 0.  0.
          2    1    3    3  502    0  0.19367863144E+02  0.35358907850E+02  0.12362981110E+03  0.13003728958E+03  0.00000000000E+00 0. -1.
         -2    1    3    3    0  502 -0.19367863144E+02 -0.35358907850E+02  0.39128845422E+02  0.56182141568E+02  0.00000000000E+00 0.  1.
<mgrwt>
<rscale>  0 0.90483680E+02</rscale>
<asrwt>0</asrwt>
<pdfrwt beam="1">  1        3 0.26844466E-01 0.90483680E+02</pdfrwt>
<pdfrwt beam="2">  1       -3 0.18046751E-02 0.90483680E+02</pdfrwt>
<totfact> 0.29834569E+04</totfact>
</mgrwt>
</event>
<event>
 5    1  0.3921687E+001  0.9078183E+02  0.7546771E-02  0.1300969E+00
          1   -1    0    0  501    0  0.00000000000E+00  0.00000000000E+00  0.77980960083E+03  0.77980960083E+03  0.00000000000E+00 0. -1.
         -1   -1    0    0    0  501 -0.00000000000E+00 -0.00000000000E+00 -0.26421003760E+01  0.26421003760E+01  0.00000000000E+00 0.  1.
         23    2    1    2    0    0  0.00000000000E+00  0.00000000000E+00  0.77716750045E+03  0.78245170121E+03  0.90781831652E+02 0.  0.
          2    1    3    3  502    0  0.14558983058E+02 -0.26304950861E+02  0.68168424236E+03  0.68234692108E+03  0.00000000000E+00 0. -1.
         -2    1    3    3    0  502 -0.14558983058E+02  0.26304950861E+02  0.95483258093E+02  0.10010478012E+03  0.00000000000E+00 0.  1.
<mgrwt>
<rscale>  0 0.90781832E+02</rscale>
<asrwt>0</asrwt>
<pdfrwt beam="1">  1        1 0.11997052E+00 0.90781832E+02</pdfrwt>
<pdfrwt beam="2">  1       -1 0.40647760E-03 0.90781832E+02</pdfrwt>
<totfact> 0.14321883E+05</totfact>
</mgrwt>
</event>
<event>
 5    1  0.3921687E+001  0.9240149E+02  0.7546771E-02  0.1297138E+00
          1   -1    0    0  501    0  0.00000000000E+00  0.00000000000E+00  0.42974637738E+03  0.42974637738E+03  0.00000000000E+00 0. -1.
         -1   -1    0    0    0  501 -0.00000000000E+00 -0.00000000000E+00 -0.49669032489E+01  0.49669032489E+01  0.00000000000E+00 0.  1.
         23    2    1    2    0    0  0.00000000000E+00  0.00000000000E+00  0.42477947413E+03  0.43471328063E+03  0.92401486526E+02 0.  0.
          2    1    3    3  502    0  0.39086841304E+02 -0.24093364342E+02  0.23648788135E+03  0.24090410830E+03  0.00000000000E+00 0. -1.
         -2    1    3    3    0  502 -0.39086841304E+02  0.24093364342E+02  0.18829159278E+03  0.19380917233E+03  0.00000000000E+00 0.  1.
<mgrwt>
<rscale>  0 0.92401487E+02</rscale>
<asrwt>0</asrwt>
<pdfrwt beam="1">  1        1 0.66114798E-01 0.92401487E+02</pdfrwt>
<pdfrwt beam="2">  1       -1 0.76413930E-03 0.92401487E+02</pdfrwt>
<totfact> 0.13167778E+05</totfact>
</mgrwt>
</event>
<event>
 5    1  0.3921687E+001  0.8982153E+02  0.7546771E-02  0.1303284E+00
         -2   -1    0    0    0  501 -0.00000000000E+00  0.00000000000E+00  0.17116129760E+02  0.17116129760E+02  0.00000000000E+00 0.  1.
          2   -1    0    0  501    0  0.00000000000E+00 -0.00000000000E+00 -0.11784071723E+03  0.11784071723E+03  0.00000000000E+00 0. -1.
         23    2    1    2    0    0  0.00000000000E+00  0.00000000000E+00 -0.10072458747E+03  0.13495684699E+03  0.89821534324E+02 0.  0.
          2    1    3    3  502    0 -0.42594398875E+01 -0.44492929849E+02 -0.56948210750E+02  0.72393800441E+02  0.00000000000E+00 0. -1.
         -2    1    3    3    0  502  0.42594398875E+01  0.44492929849E+02 -0.43776376720E+02  0.62563046548E+02  0.00000000000E+00 0.  1.
<mgrwt>
<rscale>  0 0.89821534E+02</rscale>
<asrwt>0</asrwt>
<pdfrwt beam="2">  1        2 0.18129341E-01 0.89821534E+02</pdfrwt>
<pdfrwt beam="1">  1       -2 0.26332507E-02 0.89821534E+02</pdfrwt>
<totfact> 0.13450312E+05</totfact>
</mgrwt>
</event>
<event>
 5    1  0.3921687E+001  0.9631719E+02  0.7546771E-02  0.1288237E+00
          1   -1    0    0  501    0  0.00000000000E+00  0.00000000000E+00  0.25738204086E+02  0.25738204086E+02  0.00000000000E+00 0. -1.
         -1   -1    0    0    0  501 -0.00000000000E+00 -0.00000000000E+00 -0.90109259541E+02  0.90109259541E+02  0.00000000000E+00 0.  1.
         23    2    1    2    0    0  0.00000000000E+00  0.00000000000E+00 -0.64371055456E+02  0.11584746363E+03  0.96317194978E+02 0.  0.
          2    1    3    3  502    0  0.36836195373E+02  0.21287457445E+02 -0.50447448195E+01  0.42842859199E+02  0.00000000000E+00 0. -1.
         -2    1    3    3    0  502 -0.36836195373E+02 -0.21287457445E+02 -0.59326310636E+02  0.73004604428E+02  0.00000000000E+00 0.  1.
<mgrwt>
<rscale>  0 0.96317195E+02</rscale>
<asrwt>0</asrwt>
<pdfrwt beam="1">  1        1 0.39597236E-02 0.96317195E+02</pdfrwt>
<pdfrwt beam="2">  1       -1 0.13862963E-01 0.96317195E+02</pdfrwt>
<totfact> 0.72012996E+04</totfact>
</mgrwt>
</event>
<event>
 5    1  0.3921687E+001  0.9447937E+02  0.7546771E-02  0.1292353E+00
         -2   -1    0    0    0  501 -0.00000000000E+00  0.00000000000E+00  0.56032362978E+01  0.56032362978E+01  0.00000000000E+00 0.  1.
          2   -1    0    0  501    0  0.00000000000E+00 -0.00000000000E+00 -0.39826768419E+03  0.39826768419E+03  0.00000000000E+00 0. -1.
         23    2    1    2    0    0  0.00000000000E+00  0.00000000000E+00 -0.39266444789E+03  0.40387092049E+03  0.94479372230E+02 0.  0.
          2    1    3    3  502    0 -0.37833417071E+02  0.27585566817E+02 -0.22311552738E+03  0.22797558971E+03  0.00000000000E+00 0. -1.
         -2    1    3    3    0  502  0.37833417071E+02 -0.27585566817E+02 -0.16954892051E+03  0.17589533078E+03  0.00000000000E+00 0.  1.
<mgrwt>
<rscale>  0 0.94479372E+02</rscale>
<asrwt>0</asrwt>
<pdfrwt beam="2">  1        2 0.61271932E-01 0.94479372E+02</pdfrwt>
<pdfrwt beam="1">  1       -2 0.86203663E-03 0.94479372E+02</pdfrwt>
<totfact> 0.18130773E+05</totfact>
</mgrwt>
</event>
<event>
 5    1  0.3921687E+001  0.9146559E+02  0.7546771E-02  0.1299341E+00
          3   -1    0    0  501    0  0.00000000000E+00  0.00000000000E+00  0.46162593682E+02  0.46162593682E+02  0.00000000000E+00 0. -1.
         -3   -1    0    0    0  501 -0.00000000000E+00 -0.00000000000E+00 -0.45306995965E+02  0.45306995965E+02  0.00000000000E+00 0.  1.
         23    2    1    2    0    0  0.00000000000E+00  0.00000000000E+00  0.85559771663E+00  0.91469589648E+02  0.91465587971E+02 0.  0.
          2    1    3    3  502    0  0.91042812452E+01 -0.20127948723E+02 -0.39617256982E+02  0.45360217235E+02  0.00000000000E+00 0.  1.
         -2    1    3    3    0  502 -0.91042812452E+01  0.20127948723E+02  0.40472854699E+02  0.46109372413E+02  0.00000000000E+00 0. -1.
<mgrwt>
<rscale>  0 0.91465588E+02</rscale>
<asrwt>0</asrwt>
<pdfrwt beam="1">  1        3 0.71019375E-02 0.91465588E+02</pdfrwt>
<pdfrwt beam="2">  1       -3 0.69703071E-02 0.91465588E+02</pdfrwt>
<totfact> 0.35012490E+04</totfact>
</mgrwt>
</event>
<event>
 5    1  0.3921687E+001  0.9142279E+02  0.7546771E-02  0.1299442E+00
         -1   -1    0    0    0  501 -0.00000000000E+00  0.00000000000E+00  0.45191241871E+01  0.45191241871E+01  0.00000000000E+00 0.  1.
          1   -1    0    0  501    0  0.00000000000E+00 -0.00000000000E+00 -0.46237537773E+03  0.46237537773E+03  0.00000000000E+00 0. -1.
         23    2    1    2    0    0  0.00000000000E+00  0.00000000000E+00 -0.45785625354E+03  0.46689450192E+03  0.91422792629E+02 0.  0.
          2    1    3    3  502    0  0.18462480403E+02 -0.33526505246E+02 -0.10129016121E+03  0.10828012973E+03  0.00000000000E+00 0. -1.
         -2    1    3    3    0  502 -0.18462480403E+02  0.33526505246E+02 -0.35656609234E+03  0.35861437219E+03  0.00000000000E+00 0.  1.
<mgrwt>
<rscale>  0 0.91422793E+02</rscale>
<asrwt>0</asrwt>
<pdfrwt beam="2">  1        1 0.71134662E-01 0.91422793E+02</pdfrwt>
<pdfrwt beam="1">  1       -1 0.69524998E-03 0.91422793E+02</pdfrwt>
<totfact> 0.13689778E+05</totfact>
</mgrwt>
</event>
<event>
 5    1  0.3921687E+001  0.9154074E+02  0.7546771E-02  0.1299163E+00
         -2   -1    0    0    0  501 -0.00000000000E+00  0.00000000000E+00  0.60849404411E+00  0.60849404411E+00  0.00000000000E+00 0.  1.
          2   -1    0    0  501    0  0.00000000000E+00 -0.00000000000E+00 -0.34428060450E+04  0.34428060450E+04  0.00000000000E+00 0. -1.
         23    2    1    2    0    0  0.00000000000E+00  0.00000000000E+00 -0.34421975510E+04  0.34434145391E+04  0.91540744446E+02 0.  0.
          2    1    3    3  502    0 -0.32788685272E+02  0.30071939486E+02 -0.21253767206E+04  0.21258423328E+04  0.00000000000E+00 0. -1.
         -2    1    3    3    0  502  0.32788685272E+02 -0.30071939486E+02 -0.13168208304E+04  0.13175722063E+04  0.00000000000E+00 0.  1.
<mgrwt>
<rscale>  0 0.91540744E+02</rscale>
<asrwt>0</asrwt>
<pdfrwt beam="2">  1        2 0.52967195E+00 0.91540744E+02</pdfrwt>
<pdfrwt beam="1">  1       -2 0.93612792E-04 0.91540744E+02</pdfrwt>
<totfact> 0.66269262E+04</totfact>
</mgrwt>
</event>
<event>
 5    1  0.3921687E+001  0.9180734E+02  0.7546771E-02  0.1298533E+00
          2   -1    0    0  501    0  0.00000000000E+00  0.00000000000E+00  0.35917898645E+03  0.35917898645E+03  0.00000000000E+00 0. -1.
         -2   -1    0    0    0  501 -0.00000000000E+00 -0.00000000000E+00 -0.58665646339E+01  0.58665646339E+01  0.00000000000E+00 0.  1.
         23    2    1    2    0    0  0.00000000000E+00  0.00000000000E+00  0.35331242181E+03  0.36504555108E+03  0.91807336071E+02 0.  0.
          2    1    3    3  502    0  0.29350068861E+02  0.29204824473E+02  0.25546135050E+03  0.25879499592E+03  0.00000000000E+00 0. -1.
         -2    1    3    3    0  502 -0.29350068861E+02 -0.29204824473E+02  0.97851071318E+02  0.10625055516E+03  0.00000000000E+00 0.  1.
<mgrwt>
<rscale>  0 0.91807336E+02</rscale>
<asrwt>0</asrwt>
<pdfrwt beam="1">  1        2 0.55258288E-01 0.91807336E+02</pdfrwt>
<pdfrwt beam="2">  1       -2 0.90254869E-03 0.91807336E+02</pdfrwt>
<totfact> 0.18851339E+05</totfact>
</mgrwt>
</event>
<event>
 5    1  0.3921687E+001  0.9161482E+02  0.7546771E-02  0.1298988E+00
          1   -1    0    0  501    0  0.00000000000E+00  0.00000000000E+00  0.20905458039E+03  0.20905458039E+03  0.00000000000E+00 0. -1.
         -1   -1    0    0    0  501 -0.00000000000E+00 -0.00000000000E+00 -0.10037180764E+02  0.10037180764E+02  0.00000000000E+00 0.  1.
         23    2    1    2    0    0  0.00000000000E+00  0.00000000000E+00  0.19901739963E+03  0.21909176116E+03  0.91614815676E+02 0.  0.
          2    1    3    3  502    0  0.23997177055E+02 -0.13300249440E+02  0.18723129275E+03  0.18923085934E+03  0.00000000000E+00 0. -1.
         -2    1    3    3    0  502 -0.23997177055E+02  0.13300249440E+02  0.11786106876E+02  0.29860901813E+02  0.00000000000E+00 0.  1.
<mgrwt>
<rscale>  0 0.91614816E+02</rscale>
<asrwt>0</asrwt>
<pdfrwt beam="1">  1        1 0.32162240E-01 0.91614816E+02</pdfrwt>
<pdfrwt beam="2">  1       -1 0.15441818E-02 0.91614816E+02</pdfrwt>
<totfact> 0.11790377E+05</totfact>
</mgrwt>
</event>
<event>
 5    1  0.3921687E+001  0.8973356E+02  0.7546771E-02  0.1303498E+00
         -1   -1    0    0    0  501 -0.00000000000E+00  0.00000000000E+00  0.22268699048E+03  0.22268699048E+03  0.00000000000E+00 0.  1.
          1   -1    0    0  501    0  0.00000000000E+00 -0.00000000000E+00 -0.90397189675E+01  0.90397189675E+01  0.00000000000E+00 0. -1.
         23    2    1    2    0    0  0.00000000000E+00  0.00000000000E+00  0.21364727151E+03  0.23172670945E+03  0.89733556971E+02 0.  0.
          2    1    3    3  502    0 -0.16223619198E+01  0.23739063054E+02  0.85960744905E+01  0.25299558682E+02  0.00000000000E+00 0. -1.
         -2    1    3    3    0  502  0.16223619198E+01 -0.23739063054E+02  0.20505119702E+03  0.20642715077E+03  0.00000000000E+00 0.  1.
<mgrwt>
<rscale>  0 0.89733557E+02</rscale>
<asrwt>0</asrwt>
<pdfrwt beam="2">  1        1 0.13907262E-02 0.89733557E+02</pdfrwt>
<pdfrwt beam="1">  1       -1 0.34259533E-01 0.89733557E+02</pdfrwt>
<totfact> 0.70093404E+04</totfact>
</mgrwt>
</event>
<event>
 5    1  0.3921687E+001  0.8335596E+02  0.7546771E-02  0.1319789E+00
          3   -1    0    0  501    0  0.00000000000E+00  0.00000000000E+00  0.17479533914E+02  0.17479533914E+02  0.00000000000E+00 0. -1.
         -3   -1    0    0    0  501 -0.00000000000E+00 -0.00000000000E+00 -0.99376449866E+02  0.99376449866E+02  0.00000000000E+00 0.  1.
         23    2    1    2    0    0  0.00000000000E+00  0.00000000000E+00 -0.81896915952E+02  0.11685598378E+03  0.83355960212E+02 0.  0.
          2    1    3    3  502    0 -0.29565665722E+02 -0.23649544887E+02 -0.16520752394E+02  0.41308168958E+02  0.00000000000E+00 0. -1.
         -2    1    3    3    0  502  0.29565665722E+02  0.23649544887E+02 -0.65376163558E+02  0.75547814823E+02  0.00000000000E+00 0.  1.
<mgrwt>
<rscale>  0 0.83355960E+02</rscale>
<asrwt>0</asrwt>
<pdfrwt beam="1">  1        3 0.26891590E-02 0.83355960E+02</pdfrwt>
<pdfrwt beam="2">  1       -3 0.15288685E-01 0.83355960E+02</pdfrwt>
<totfact> 0.42627888E+04</totfact>
</mgrwt>
</event>
<event>
 5    1  0.3921687E+001  0.9147803E+02  0.7546771E-02  0.1299311E+00
         -2   -1    0    0    0  501 -0.00000000000E+00  0.00000000000E+00  0.10874974748E+01  0.10874974748E+01  0.00000000000E+00 0. -1.
          2   -1    0    0  501    0  0.00000000000E+00 -0.00000000000E+00 -0.19237353393E+04  0.19237353393E+04  0.00000000000E+00 0.  1.
         23    2    1    2    0    0  0.00000000000E+00  0.00000000000E+00 -0.19226478418E+04  0.19248228368E+04  0.91478026296E+02 0.  0.
          2    1    3    3  502    0 -0.77687867189E+00 -0.33747707509E+02 -0.16107309133E+04  0.16110845993E+04  0.00000000000E+00 0.  1.
         -2    1    3    3    0  502  0.77687867189E+00  0.33747707509E+02 -0.31191692859E+03  0.31373823746E+03  0.00000000000E+00 0. -1.
<mgrwt>
<rscale>  0 0.91478026E+02</rscale>
<asrwt>0</asrwt>
<pdfrwt beam="2">  1        2 0.29595623E+00 0.91478026E+02</pdfrwt>
<pdfrwt beam="1">  1       -2 0.16730903E-03 0.91478026E+02</pdfrwt>
<totfact> 0.20193523E+05</totfact>
</mgrwt>
</event>
<event>
 5    1  0.3921687E+001  0.9085436E+02  0.7546771E-02  0.1300796E+00
          1   -1    0    0  501    0  0.00000000000E+00  0.00000000000E+00  0.29513665106E+03  0.29513665106E+03  0.00000000000E+00 0. -1.
         -1   -1    0    0    0  501 -0.00000000000E+00 -0.00000000000E+00 -0.69921129507E+01  0.69921129507E+01  0.00000000000E+00 0.  1.
         23    2    1    2    0    0  0.00000000000E+00  0.00000000000E+00  0.28814453811E+03  0.30212876401E+03  0.90854362583E+02 0.  0.
          2    1    3    3  502    0 -0.33528446807E+02  0.28263928464E+02  0.18350651539E+03  0.18867338866E+03  0.00000000000E+00 0. -1.
         -2    1    3    3    0  502  0.33528446807E+02 -0.28263928464E+02  0.10463802272E+03  0.11345537535E+03  0.00000000000E+00 0.  1.
<mgrwt>
<rscale>  0 0.90854363E+02</rscale>
<asrwt>0</asrwt>
<pdfrwt beam="1">  1        1 0.45405629E-01 0.90854363E+02</pdfrwt>
<pdfrwt beam="2">  1       -1 0.10757099E-02 0.90854363E+02</pdfrwt>
<totfact> 0.12893387E+05</totfact>
</mgrwt>
</event>
<event>
 5    1  0.3921687E+001  0.9296721E+02  0.7546771E-02  0.1295821E+00
         -1   -1    0    0    0  501 -0.00000000000E+00  0.00000000000E+00  0.12873384545E+01  0.12873384545E+01  0.00000000000E+00 0.  1.
          1   -1    0    0  501    0  0.00000000000E+00 -0.00000000000E+00 -0.16784440246E+04  0.16784440246E+04  0.00000000000E+00 0. -1.
         23    2    1    2    0    0  0.00000000000E+00  0.00000000000E+00 -0.16771566862E+04  0.16797313631E+04  0.92967210062E+02 0.  0.
          2    1    3    3  502    0  0.34065887218E+02 -0.25856365001E+02 -0.11676388283E+04  0.11684217859E+04  0.00000000000E+00 0. -1.
         -2    1    3    3    0  502 -0.34065887218E+02  0.25856365001E+02 -0.50951785786E+03  0.51130957722E+03  0.00000000000E+00 0.  1.
<mgrwt>
<rscale>  0 0.92967210E+02</rscale>
<asrwt>0</asrwt>
<pdfrwt beam="2">  1        1 0.25822267E+00 0.92967210E+02</pdfrwt>
<pdfrwt beam="1">  1       -1 0.19805167E-03 0.92967210E+02</pdfrwt>
<totfact> 0.94537662E+04</totfact>
</mgrwt>
</event>
<event>
 5    1  0.3921687E+001  0.9030137E+02  0.7546771E-02  0.1302124E+00
          3   -1    0    0  501    0  0.00000000000E+00  0.00000000000E+00  0.70253530463E+01  0.70253530463E+01  0.00000000000E+00 0. -1.
         -3   -1    0    0    0  501 -0.00000000000E+00 -0.00000000000E+00 -0.29017535679E+03  0.29017535679E+03  0.00000000000E+00 0.  1.
         23    2    1    2    0    0  0.00000000000E+00  0.00000000000E+00 -0.28315000374E+03  0.29720070984E+03  0.90301369354E+02 0.  0.
          2    1    3    3  502    0  0.38262044640E+02  0.23934449477E+02 -0.13723061183E+03  0.14446135385E+03  0.00000000000E+00 0. -1.
         -2    1    3    3    0  502 -0.38262044640E+02 -0.23934449477E+02 -0.14591939191E+03  0.15273935599E+03  0.00000000000E+00 0.  1.
<mgrwt>
<rscale>  0 0.90301369E+02</rscale>
<asrwt>0</asrwt>
<pdfrwt beam="1">  1        3 0.10808240E-02 0.90301369E+02</pdfrwt>
<pdfrwt beam="2">  1       -3 0.44642346E-01 0.90301369E+02</pdfrwt>
<totfact> 0.24764566E+04</totfact>
</mgrwt>
</event>
<event>
 5    1  0.3921687E+001  0.9067342E+02  0.7546771E-02  0.1301229E+00
         -3   -1    0    0    0  501 -0.00000000000E+00  0.00000000000E+00  0.17588703237E+04  0.17588703237E+04  0.00000000000E+00 0.  1.
          3   -1    0    0  501    0  0.00000000000E+00 -0.00000000000E+00 -0.11686008303E+01  0.11686008303E+01  0.00000000000E+00 0. -1.
         23    2    1    2    0    0  0.00000000000E+00  0.00000000000E+00  0.17577017229E+04  0.17600389245E+04  0.90673421036E+02 0.  0.
          2    1    3    3  502    0 -0.11700455703E+02 -0.33753600800E+02  0.33701239489E+03  0.33890051717E+03  0.00000000000E+00 0. -1.
         -2    1    3    3    0  502  0.11700455703E+02  0.33753600800E+02  0.14206893280E+04  0.14211384073E+04  0.00000000000E+00 0.  1.
<mgrwt>
<rscale>  0 0.90673421E+02</rscale>
<asrwt>0</asrwt>
<pdfrwt beam="2">  1        3 0.17978615E-03 0.90673421E+02</pdfrwt>
<pdfrwt beam="1">  1       -3 0.27059332E+00 0.90673421E+02</pdfrwt>
<totfact> 0.47296623E+03</totfact>
</mgrwt>
</event>
<event>
 5    1  0.3921687E+001  0.9209087E+02  0.7546771E-02  0.1297866E+00
          3   -1    0    0  501    0  0.00000000000E+00  0.00000000000E+00  0.89292074393E+01  0.89292074393E+01  0.00000000000E+00 0. -1.
         -3   -1    0    0    0  501 -0.00000000000E+00 -0.00000000000E+00 -0.23744348268E+03  0.23744348268E+03  0.00000000000E+00 0.  1.
         23    2    1    2    0    0  0.00000000000E+00  0.00000000000E+00 -0.22851427524E+03  0.24637269012E+03  0.92090870599E+02 0.  0.
          2    1    3    3  502    0  0.12037840941E+00  0.29448315342E+02 -0.20895612675E+03  0.21102104320E+03  0.00000000000E+00 0.  1.
         -2    1    3    3    0  502 -0.12037840941E+00 -0.29448315342E+02 -0.19558148491E+02  0.35351646918E+02  0.00000000000E+00 0. -1.
<mgrwt>
<rscale>  0 0.92090871E+02</rscale>
<asrwt>0</asrwt>
<pdfrwt beam="1">  1        3 0.13737241E-02 0.92090871E+02</pdfrwt>
<pdfrwt beam="2">  1       -3 0.36529770E-01 0.92090871E+02</pdfrwt>
<totfact> 0.25564887E+04</totfact>
</mgrwt>
</event>
<event>
 5    1  0.3921687E+001  0.8917970E+02  0.7546771E-02  0.1304850E+00
          2   -1    0    0  501    0  0.00000000000E+00  0.00000000000E+00  0.13095947167E+04  0.13095947167E+04  0.00000000000E+00 0. -1.
         -2   -1    0    0    0  501 -0.00000000000E+00 -0.00000000000E+00 -0.15182212910E+01  0.15182212910E+01  0.00000000000E+00 0.  1.
         23    2    1    2    0    0  0.00000000000E+00  0.00000000000E+00  0.13080764954E+04  0.13111129380E+04  0.89179696827E+02 0.  0.
          2    1    3    3  502    0 -0.26436209371E+02 -0.10003255477E+02  0.11610555687E+04  0.11613995746E+04  0.00000000000E+00 0. -1.
         -2    1    3    3    0  502  0.26436209371E+02  0.10003255477E+02  0.14702092678E+03  0.14971336346E+03  0.00000000000E+00 0.  1.
<mgrwt>
<rscale>  0 0.89179697E+02</rscale>
<asrwt>0</asrwt>
<pdfrwt beam="1">  1        2 0.20147521E+00 0.89179697E+02</pdfrwt>
<pdfrwt beam="2">  1       -2 0.23357355E-03 0.89179697E+02</pdfrwt>
<totfact> 0.26005681E+05</totfact>
</mgrwt>
</event>
<event>
 5    1  0.3921687E+001  0.8114187E+02  0.7546771E-02  0.1325842E+00
          2   -1    0    0  501    0  0.00000000000E+00  0.00000000000E+00  0.76351089382E+03  0.76351089382E+03  0.00000000000E+00 0. -1.
         -2   -1    0    0    0  501 -0.00000000000E+00 -0.00000000000E+00 -0.21558316498E+01  0.21558316498E+01  0.00000000000E+00 0.  1.
         23    2    1    2    0    0  0.00000000000E+00  0.00000000000E+00  0.76135506217E+03  0.76566672547E+03  0.81141874512E+02 0.  0.
          2    1    3    3  502    0 -0.12218977366E+02  0.16652878562E+02  0.71018413625E+03  0.71048443274E+03  0.00000000000E+00 0. -1.
         -2    1    3    3    0  502  0.12218977366E+02 -0.16652878562E+02  0.51170925911E+02  0.55182292729E+02  0.00000000000E+00 0.  1.
<mgrwt>
<rscale>  0 0.81141875E+02</rscale>
<asrwt>0</asrwt>
<pdfrwt beam="1">  1        2 0.11746300E+00 0.81141875E+02</pdfrwt>
<pdfrwt beam="2">  1       -2 0.33166702E-03 0.81141875E+02</pdfrwt>
<totfact> 0.32796893E+05</totfact>
</mgrwt>
</event>
<event>
 4    1  0.3921687E+001  0.4349830E+02  0.7546771E-02  0.1483940E+00
         -1   -1    0    0    0  501 -0.00000000000E+00  0.00000000000E+00  0.15263929265E+03  0.15263929265E+03  0.00000000000E+00 0.  1.
          1   -1    0    0  501    0  0.00000000000E+00 -0.00000000000E+00 -0.30989765247E+01  0.30989765247E+01  0.00000000000E+00 0. -1.
          2    1    1    2  502    0  0.15200646823E+02  0.14333761951E+02  0.96403525483E+02  0.98641553724E+02  0.00000000000E+00 0. -1.
         -2    1    1    2    0  502 -0.15200646823E+02 -0.14333761951E+02  0.53136790641E+02  0.57096715449E+02  0.00000000000E+00 0.  1.
<mgrwt>
<rscale>  0 0.43498303E+02</rscale>
<asrwt>0</asrwt>
<pdfrwt beam="2">  1        1 0.47676574E-03 0.43498303E+02</pdfrwt>
<pdfrwt beam="1">  1       -1 0.23482962E-01 0.43498303E+02</pdfrwt>
<totfact> 0.48311562E+05</totfact>
</mgrwt>
</event>
<event>
 5    1  0.3921687E+001  0.8879352E+02  0.7546771E-02  0.1305800E+00
          4   -1    0    0  501    0  0.00000000000E+00  0.00000000000E+00  0.65900025428E+01  0.65900025428E+01  0.00000000000E+00 0. -1.
         -4   -1    0    0    0  501 -0.00000000000E+00 -0.00000000000E+00 -0.29910040013E+03  0.29910040013E+03  0.00000000000E+00 0.  1.
         23    2    1    2    0    0  0.00000000000E+00  0.00000000000E+00 -0.29251039758E+03  0.30569040267E+03  0.88793522227E+02 0.  0.
          2    1    3    3  502    0 -0.22368771112E+02 -0.55064043832E-01 -0.14227921992E+02  0.26510351136E+02  0.00000000000E+00 0. -1.
         -2    1    3    3    0  502  0.22368771112E+02  0.55064043832E-01 -0.27828247559E+03  0.27918005153E+03  0.00000000000E+00 0.  1.
<mgrwt>
<rscale>  0 0.88793522E+02</rscale>
<asrwt>0</asrwt>
<pdfrwt beam="1">  1        4 0.10138467E-02 0.88793522E+02</pdfrwt>
<pdfrwt beam="2">  1       -4 0.46015441E-01 0.88793522E+02</pdfrwt>
<totfact> 0.18930390E+04</totfact>
</mgrwt>
</event>
<event>
 5    1  0.3921687E+001  0.8002318E+02  0.7546771E-02  0.1328986E+00
         -2   -1    0    0    0  501 -0.00000000000E+00  0.00000000000E+00  0.43062105381E+03  0.43062105381E+03  0.00000000000E+00 0.  1.
          2   -1    0    0  501    0  0.00000000000E+00 -0.00000000000E+00 -0.37177176219E+01  0.37177176219E+01  0.00000000000E+00 0. -1.
         23    2    1    2    0    0  0.00000000000E+00  0.00000000000E+00  0.42690333618E+03  0.43433877143E+03  0.80023183644E+02 0.  0.
          2    1    3    3  502    0  0.32441409627E+02 -0.60829419319E+01  0.90700056420E+02  0.96519156004E+02  0.00000000000E+00 0. -1.
         -2    1    3    3    0  502 -0.32441409627E+02  0.60829419319E+01  0.33620327976E+03  0.33781961542E+03  0.00000000000E+00 0.  1.
<mgrwt>
<rscale>  0 0.80023184E+02</rscale>
<asrwt>0</asrwt>
<pdfrwt beam="2">  1        2 0.57195690E-03 0.80023184E+02</pdfrwt>
<pdfrwt beam="1">  1       -2 0.66249353E-01 0.80023184E+02</pdfrwt>
<totfact> 0.56769048E+04</totfact>
</mgrwt>
</event>
<event>
 5    1  0.3921687E+001  0.9081046E+02  0.7546771E-02  0.1300901E+00
         -2   -1    0    0    0  501 -0.00000000000E+00  0.00000000000E+00  0.56873037898E+02  0.56873037898E+02  0.00000000000E+00 0.  1.
          2   -1    0    0  501    0  0.00000000000E+00 -0.00000000000E+00 -0.36249773787E+02  0.36249773787E+02  0.00000000000E+00 0. -1.
         23    2    1    2    0    0  0.00000000000E+00  0.00000000000E+00  0.20623264111E+02  0.93122811684E+02  0.90810456630E+02 0.  0.
          2    1    3    3  502    0  0.94540376320E+01 -0.40601740233E+02 -0.81397205637E+01  0.42475112576E+02  0.00000000000E+00 0. -1.
         -2    1    3    3    0  502 -0.94540376320E+01  0.40601740233E+02  0.28762984675E+02  0.50647699108E+02  0.00000000000E+00 0.  1.
<mgrwt>
<rscale>  0 0.90810457E+02</rscale>
<asrwt>0</asrwt>
<pdfrwt beam="2">  1        2 0.55768883E-02 0.90810457E+02</pdfrwt>
<pdfrwt beam="1">  1       -2 0.87496981E-02 0.90810457E+02</pdfrwt>
<totfact> 0.94082846E+04</totfact>
</mgrwt>
</event>
<event>
 5    1  0.3921687E+001  0.9021220E+02  0.7546771E-02  0.1302339E+00
         -1   -1    0    0    0  501 -0.00000000000E+00  0.00000000000E+00  0.63760406005E+02  0.63760406005E+02  0.00000000000E+00 0.  1.
          1   -1    0    0  501    0  0.00000000000E+00 -0.00000000000E+00 -0.31909460115E+02  0.31909460115E+02  0.00000000000E+00 0. -1.
         23    2    1    2    0    0  0.00000000000E+00  0.00000000000E+00  0.31850945890E+02  0.95669866119E+02  0.90212197231E+02 0.  0.
          2    1    3    3  502    0  0.10254263297E+01  0.36039019006E+02 -0.12819655799E+02  0.38264944333E+02  0.00000000000E+00 0. -1.
         -2    1    3    3    0  502 -0.10254263297E+01 -0.36039019006E+02  0.44670601688E+02  0.57404921786E+02  0.00000000000E+00 0.  1.
<mgrwt>
<rscale>  0 0.90212197E+02</rscale>
<asrwt>0</asrwt>
<pdfrwt beam="2">  1        1 0.49091477E-02 0.90212197E+02</pdfrwt>
<pdfrwt beam="1">  1       -1 0.98092932E-02 0.90212197E+02</pdfrwt>
<totfact> 0.90243925E+04</totfact>
</mgrwt>
</event>
<event>
 5    1  0.3921687E+001  0.1054955E+03  0.7546771E-02  0.1269146E+00
          1   -1    0    0  501    0  0.00000000000E+00  0.00000000000E+00  0.91415624847E+02  0.91415624847E+02  0.00000000000E+00 0. -1.
         -1   -1    0    0    0  501 -0.00000000000E+00 -0.00000000000E+00 -0.30435975661E+02  0.30435975661E+02  0.00000000000E+00 0.  1.
         23    2    1    2    0    0  0.00000000000E+00  0.00000000000E+00  0.60979649187E+02  0.12185160051E+03  0.10549547351E+03 0.  0.
          2    1    3    3  502    0  0.29234909275E+02  0.86879781496E+01  0.80199050079E+02  0.85802380609E+02  0.00000000000E+00 0. -1.
         -2    1    3    3    0  502 -0.29234909275E+02 -0.86879781496E+01 -0.19219400892E+02  0.36049219899E+02  0.00000000000E+00 0.  1.
<mgrwt>
<rscale>  0 0.10549547E+03</rscale>
<asrwt>0</asrwt>
<pdfrwt beam="1">  1        1 0.14063942E-01 0.10549547E+03</pdfrwt>
<pdfrwt beam="2">  1       -1 0.46824578E-02 0.10549547E+03</pdfrwt>
<totfact> 0.68792695E+04</totfact>
</mgrwt>
</event>
<event>
 5    1  0.3921687E+001  0.9094841E+02  0.7546771E-02  0.1300571E+00
         -1   -1    0    0    0  501 -0.00000000000E+00  0.00000000000E+00  0.74761194666E+02  0.74761194666E+02  0.00000000000E+00 0.  1.
          1   -1    0    0  501    0  0.00000000000E+00 -0.00000000000E+00 -0.27660117842E+02  0.27660117842E+02  0.00000000000E+00 0. -1.
         23    2    1    2    0    0  0.00000000000E+00  0.00000000000E+00  0.47101076824E+02  0.10242131251E+03  0.90948412950E+02 0.  0.
          2    1    3    3  502    0 -0.28176231215E+02  0.35671031224E+02  0.24966522795E+02  0.51861833120E+02  0.00000000000E+00 0. -1.
         -2    1    3    3    0  502  0.28176231215E+02 -0.35671031224E+02  0.22134554029E+02  0.50559479389E+02  0.00000000000E+00 0.  1.
<mgrwt>
<rscale>  0 0.90948413E+02</rscale>
<asrwt>0</asrwt>
<pdfrwt beam="2">  1        1 0.42554028E-02 0.90948413E+02</pdfrwt>
<pdfrwt beam="1">  1       -1 0.11501722E-01 0.90948413E+02</pdfrwt>
<totfact> 0.86164504E+04</totfact>
</mgrwt>
</event>
<event>
 5    1  0.3921687E+001  0.9156057E+02  0.7546771E-02  0.1299116E+00
         -1   -1    0    0    0  501 -0.00000000000E+00  0.00000000000E+00  0.13732198778E+01  0.13732198778E+01  0.00000000000E+00 0.  1.
          1   -1    0    0  501    0  0.00000000000E+00 -0.00000000000E+00 -0.15262191997E+04  0.15262191997E+04  0.00000000000E+00 0. -1.
         23    2    1    2    0    0  0.00000000000E+00  0.00000000000E+00 -0.15248459798E+04  0.15275924196E+04  0.91560571054E+02 0.  0.
          2    1    3    3  502    0  0.30269768672E+02 -0.36494312520E+01 -0.13321885433E+04  0.13325373886E+04  0.00000000000E+00 0. -1.
         -2    1    3    3    0  502 -0.30269768672E+02  0.36494312520E+01 -0.19265743653E+03  0.19505503094E+03  0.00000000000E+00 0.  1.
<mgrwt>
<rscale>  0 0.91560571E+02</rscale>
<asrwt>0</asrwt>
<pdfrwt beam="2">  1        1 0.23480341E+00 0.91560571E+02</pdfrwt>
<pdfrwt beam="1">  1       -1 0.21126419E-03 0.91560571E+02</pdfrwt>
<totfact> 0.10771807E+05</totfact>
</mgrwt>
</event>
<event>
 5    1  0.3921687E+001  0.9041234E+02  0.7546771E-02  0.1301856E+00
         -2   -1    0    0    0  501 -0.00000000000E+00  0.00000000000E+00  0.57345031985E+02  0.57345031985E+02  0.00000000000E+00 0.  1.
          2   -1    0    0  501    0  0.00000000000E+00 -0.00000000000E+00 -0.35636879095E+02  0.35636879095E+02  0.00000000000E+00 0. -1.
         23    2    1    2    0    0  0.00000000000E+00  0.00000000000E+00  0.21708152890E+02  0.92981911080E+02  0.90412343661E+02 0.  0.
          2    1    3    3  502    0 -0.27914873756E+02 -0.26637960291E+02 -0.13369034176E+02  0.40835672886E+02  0.00000000000E+00 0. -1.
         -2    1    3    3    0  502  0.27914873756E+02  0.26637960291E+02  0.35077187067E+02  0.52146238194E+02  0.00000000000E+00 0.  1.
<mgrwt>
<rscale>  0 0.90412344E+02</rscale>
<asrwt>0</asrwt>
<pdfrwt beam="2">  1        2 0.54825968E-02 0.90412344E+02</pdfrwt>
<pdfrwt beam="1">  1       -2 0.88223126E-02 0.90412344E+02</pdfrwt>
<totfact> 0.94875634E+04</totfact>
</mgrwt>
</event>
<event>
 5    1  0.3921687E+001  0.9022443E+02  0.7546771E-02  0.1302309E+00
          1   -1    0    0  501    0  0.00000000000E+00  0.00000000000E+00  0.38785319335E+01  0.38785319335E+01  0.00000000000E+00 0. -1.
         -1   -1    0    0    0  501 -0.00000000000E+00 -0.00000000000E+00 -0.52471187526E+03  0.52471187526E+03  0.00000000000E+00 0.  1.
         23    2    1    2    0    0  0.00000000000E+00  0.00000000000E+00 -0.52083334332E+03  0.52859040719E+03  0.90224426051E+02 0.  0.
          2    1    3    3  502    0  0.22778791507E+02 -0.55504424428E+01 -0.34617994990E+02  0.41810122351E+02  0.00000000000E+00 0. -1.
         -2    1    3    3    0  502 -0.22778791507E+02  0.55504424428E+01 -0.48621534833E+03  0.48678028484E+03  0.00000000000E+00 0.  1.
<mgrwt>
<rscale>  0 0.90224426E+02</rscale>
<asrwt>0</asrwt>
<pdfrwt beam="1">  1        1 0.59669754E-03 0.90224426E+02</pdfrwt>
<pdfrwt beam="2">  1       -1 0.80724860E-01 0.90224426E+02</pdfrwt>
<totfact> 0.46906398E+04</totfact>
</mgrwt>
</event>
<event>
 5    1  0.3921687E+001  0.9537544E+02  0.7546771E-02  0.1290333E+00
          1   -1    0    0  501    0  0.00000000000E+00  0.00000000000E+00  0.40533169174E+03  0.40533169174E+03  0.00000000000E+00 0. -1.
         -1   -1    0    0    0  501 -0.00000000000E+00 -0.00000000000E+00 -0.56105127080E+01  0.56105127080E+01  0.00000000000E+00 0.  1.
         23    2    1    2    0    0  0.00000000000E+00  0.00000000000E+00  0.39972117903E+03  0.41094220444E+03  0.95375439342E+02 0.  0.
          2    1    3    3  502    0 -0.25303574556E+02  0.23444670669E+01  0.37372801906E+03  0.37459097646E+03  0.00000000000E+00 0. -1.
         -2    1    3    3    0  502  0.25303574556E+02 -0.23444670669E+01  0.25993159965E+02  0.36351227986E+02  0.00000000000E+00 0.  1.
<mgrwt>
<rscale>  0 0.95375439E+02</rscale>
<asrwt>0</asrwt>
<pdfrwt beam="1">  1        1 0.62358699E-01 0.95375439E+02</pdfrwt>
<pdfrwt beam="2">  1       -1 0.86315612E-03 0.95375439E+02</pdfrwt>
<totfact> 0.11991454E+05</totfact>
</mgrwt>
</event>
<event>
 5    1  0.3921687E+001  0.9057447E+02  0.7546771E-02  0.1301466E+00
          1   -1    0    0  501    0  0.00000000000E+00  0.00000000000E+00  0.12577104169E+04  0.12577104169E+04  0.00000000000E+00 0. -1.
         -1   -1    0    0    0  501 -0.00000000000E+00 -0.00000000000E+00 -0.16306884457E+01  0.16306884457E+01  0.00000000000E+00 0.  1.
         23    2    1    2    0    0  0.00000000000E+00  0.00000000000E+00  0.12560797285E+04  0.12593411053E+04  0.90574474215E+02 0.  0.
          2    1    3    3  502    0  0.34308474587E+02  0.15125482543E+02  0.98117837786E+03  0.98189452633E+03  0.00000000000E+00 0. -1.
         -2    1    3    3    0  502 -0.34308474587E+02 -0.15125482543E+02  0.27490135059E+03  0.27744657902E+03  0.00000000000E+00 0.  1.
<mgrwt>
<rscale>  0 0.90574474E+02</rscale>
<asrwt>0</asrwt>
<pdfrwt beam="1">  1        1 0.19349313E+00 0.90574474E+02</pdfrwt>
<pdfrwt beam="2">  1       -1 0.25087615E-03 0.90574474E+02</pdfrwt>
<totfact> 0.12653699E+05</totfact>
</mgrwt>
</event>
<event>
 5    1  0.3921687E+001  0.8867512E+02  0.7546771E-02  0.1306092E+00
         -1   -1    0    0    0  501 -0.00000000000E+00  0.00000000000E+00  0.19791440570E+01  0.19791440570E+01  0.00000000000E+00 0.  1.
          1   -1    0    0  501    0  0.00000000000E+00 -0.00000000000E+00 -0.99326745718E+03  0.99326745718E+03  0.00000000000E+00 0. -1.
         23    2    1    2    0    0  0.00000000000E+00  0.00000000000E+00 -0.99128831312E+03  0.99524660123E+03  0.88675123566E+02 0.  0.
          2    1    3    3  502    0 -0.61514815660E+01  0.23555242053E+02 -0.91154002599E+03  0.91186507178E+03  0.00000000000E+00 0. -1.
         -2    1    3    3    0  502  0.61514815660E+01 -0.23555242053E+02 -0.79748287133E+02  0.83381529455E+02  0.00000000000E+00 0.  1.
<mgrwt>
<rscale>  0 0.88675124E+02</rscale>
<asrwt>0</asrwt>
<pdfrwt beam="2">  1        1 0.15281045E+00 0.88675124E+02</pdfrwt>
<pdfrwt beam="1">  1       -1 0.30448356E-03 0.88675124E+02</pdfrwt>
<totfact> 0.14664199E+05</totfact>
</mgrwt>
</event>
<event>
 5    1  0.3921687E+001  0.8899154E+02  0.7546771E-02  0.1305312E+00
         -1   -1    0    0    0  501 -0.00000000000E+00  0.00000000000E+00  0.16391439260E+02  0.16391439260E+02  0.00000000000E+00 0.  1.
          1   -1    0    0  501    0  0.00000000000E+00 -0.00000000000E+00 -0.12078705745E+03  0.12078705745E+03  0.00000000000E+00 0. -1.
         23    2    1    2    0    0  0.00000000000E+00  0.00000000000E+00 -0.10439561819E+03  0.13717849671E+03  0.88991543770E+02 0.  0.
          2    1    3    3  502    0  0.64824237248E-01 -0.24049626960E+02 -0.10990521058E+03  0.11250575128E+03  0.00000000000E+00 0. -1.
         -2    1    3    3    0  502 -0.64824237248E-01  0.24049626960E+02  0.55095923814E+01  0.24672745435E+02  0.00000000000E+00 0.  1.
<mgrwt>
<rscale>  0 0.88991544E+02</rscale>
<asrwt>0</asrwt>
<pdfrwt beam="2">  1        1 0.18582624E-01 0.88991544E+02</pdfrwt>
<pdfrwt beam="1">  1       -1 0.25217599E-02 0.88991544E+02</pdfrwt>
<totfact> 0.11517833E+05</totfact>
</mgrwt>
</event>
<event>
 5    1  0.3921687E+001  0.8831747E+02  0.7546771E-02  0.1306978E+00
          3   -1    0    0  501    0  0.00000000000E+00  0.00000000000E+00  0.62844538499E+01  0.62844538499E+01  0.00000000000E+00 0. -1.
         -3   -1    0    0    0  501 -0.00000000000E+00 -0.00000000000E+00 -0.31028849802E+03  0.31028849802E+03  0.00000000000E+00 0.  1.
         23    2    1    2    0    0  0.00000000000E+00  0.00000000000E+00 -0.30400404417E+03  0.31657295187E+03  0.88317467038E+02 0.  0.
          2    1    3    3  502    0  0.42228936407E+02 -0.67695723630E+01 -0.19141242113E+03  0.19613216244E+03  0.00000000000E+00 0. -1.
         -2    1    3    3    0  502 -0.42228936407E+02  0.67695723630E+01 -0.11259162304E+03  0.12044078943E+03  0.00000000000E+00 0.  1.
<mgrwt>
<rscale>  0 0.88317467E+02</rscale>
<asrwt>0</asrwt>
<pdfrwt beam="1">  1        3 0.96683921E-03 0.88317467E+02</pdfrwt>
<pdfrwt beam="2">  1       -3 0.47736684E-01 0.88317467E+02</pdfrwt>
<totfact> 0.25475799E+04</totfact>
</mgrwt>
</event>
<event>
 5    1  0.3921687E+001  0.9081698E+02  0.7546771E-02  0.1300885E+00
          3   -1    0    0  501    0  0.00000000000E+00  0.00000000000E+00  0.23304379568E+02  0.23304379568E+02  0.00000000000E+00 0. -1.
         -3   -1    0    0    0  501 -0.00000000000E+00 -0.00000000000E+00 -0.88478261340E+02  0.88478261340E+02  0.00000000000E+00 0.  1.
         23    2    1    2    0    0  0.00000000000E+00  0.00000000000E+00 -0.65173881772E+02  0.11178264091E+03  0.90816980478E+02 0.  0.
          2    1    3    3  502    0 -0.27008886092E+02  0.11052974355E+02  0.10233461205E+02  0.30925263107E+02  0.00000000000E+00 0. -1.
         -2    1    3    3    0  502  0.27008886092E+02 -0.11052974355E+02 -0.75407342977E+02  0.80857377801E+02  0.00000000000E+00 0.  1.
<mgrwt>
<rscale>  0 0.90816980E+02</rscale>
<asrwt>0</asrwt>
<pdfrwt beam="1">  1        3 0.35852891E-02 0.90816980E+02</pdfrwt>
<pdfrwt beam="2">  1       -3 0.13612040E-01 0.90816980E+02</pdfrwt>
<totfact> 0.34184984E+04</totfact>
</mgrwt>
</event>
<event>
 5    1  0.3921687E+001  0.9043308E+02  0.7546771E-02  0.1301806E+00
         -2   -1    0    0    0  501 -0.00000000000E+00  0.00000000000E+00  0.66915966501E+02  0.66915966501E+02  0.00000000000E+00 0. -1.
          2   -1    0    0  501    0  0.00000000000E+00 -0.00000000000E+00 -0.30553779870E+02  0.30553779870E+02  0.00000000000E+00 0.  1.
         23    2    1    2    0    0  0.00000000000E+00  0.00000000000E+00  0.36362186632E+02  0.97469746371E+02  0.90433084880E+02 0.  0.
          2    1    3    3  502    0 -0.17375389240E+02 -0.20747682037E+02  0.57223515739E+02  0.63300088584E+02  0.00000000000E+00 0. -1.
         -2    1    3    3    0  502  0.17375389240E+02  0.20747682037E+02 -0.20861329107E+02  0.34169657787E+02  0.00000000000E+00 0.  1.
<mgrwt>
<rscale>  0 0.90433085E+02</rscale>
<asrwt>0</asrwt>
<pdfrwt beam="2">  1        2 0.47005815E-02 0.90433085E+02</pdfrwt>
<pdfrwt beam="1">  1       -2 0.10294764E-01 0.90433085E+02</pdfrwt>
<totfact> 0.91078620E+04</totfact>
</mgrwt>
</event>
<event>
 5    1  0.3921687E+001  0.9364207E+02  0.7546771E-02  0.1294264E+00
         -2   -1    0    0    0  501 -0.00000000000E+00  0.00000000000E+00  0.41898850223E+01  0.41898850223E+01  0.00000000000E+00 0. -1.
          2   -1    0    0  501    0  0.00000000000E+00 -0.00000000000E+00 -0.52321467310E+03  0.52321467310E+03  0.00000000000E+00 0.  1.
         23    2    1    2    0    0  0.00000000000E+00  0.00000000000E+00 -0.51902478808E+03  0.52740455812E+03  0.93642070081E+02 0.  0.
          2    1    3    3  502    0 -0.72234135521E+01  0.46239910785E+02 -0.25174439976E+03  0.25605770807E+03  0.00000000000E+00 0.  1.
         -2    1    3    3    0  502  0.72234135521E+01 -0.46239910785E+02 -0.26728038832E+03  0.27134685005E+03  0.00000000000E+00 0. -1.
<mgrwt>
<rscale>  0 0.93642070E+02</rscale>
<asrwt>0</asrwt>
<pdfrwt beam="2">  1        2 0.80494511E-01 0.93642070E+02</pdfrwt>
<pdfrwt beam="1">  1       -2 0.64459813E-03 0.93642070E+02</pdfrwt>
<totfact> 0.20373065E+05</totfact>
</mgrwt>
</event>
<event>
 5    1  0.3921687E+001  0.9219197E+02  0.7546771E-02  0.1297629E+00
          2   -1    0    0  501    0  0.00000000000E+00  0.00000000000E+00  0.47089588183E+03  0.47089588183E+03  0.00000000000E+00 0. -1.
         -2   -1    0    0    0  501 -0.00000000000E+00 -0.00000000000E+00 -0.45123349965E+01  0.45123349965E+01  0.00000000000E+00 0.  1.
         23    2    1    2    0    0  0.00000000000E+00  0.00000000000E+00  0.46638354683E+03  0.47540821682E+03  0.92191972910E+02 0.  0.
          2    1    3    3  502    0  0.10569424932E+02  0.44200612899E+02  0.19343715776E+03  0.19870415428E+03  0.00000000000E+00 0. -1.
         -2    1    3    3    0  502 -0.10569424932E+02 -0.44200612899E+02  0.27294638907E+03  0.27670406255E+03  0.00000000000E+00 0.  1.
<mgrwt>
<rscale>  0 0.92191973E+02</rscale>
<asrwt>0</asrwt>
<pdfrwt beam="1">  1        2 0.72445481E-01 0.92191973E+02</pdfrwt>
<pdfrwt beam="2">  1       -2 0.69420576E-03 0.92191973E+02</pdfrwt>
<totfact> 0.20515633E+05</totfact>
</mgrwt>
</event>
<event>
 5    1  0.3921687E+001  0.9556356E+02  0.7546771E-02  0.1289912E+00
         -3   -1    0    0    0  501 -0.00000000000E+00  0.00000000000E+00  0.15633822506E+03  0.15633822506E+03  0.00000000000E+00 0.  1.
          3   -1    0    0  501    0  0.00000000000E+00 -0.00000000000E+00 -0.14603585704E+02  0.14603585704E+02  0.00000000000E+00 0. -1.
         23    2    1    2    0    0  0.00000000000E+00  0.00000000000E+00  0.14173463936E+03  0.17094181077E+03  0.95563563529E+02 0.  0.
          2    1    3    3  502    0 -0.35328143472E+01  0.43376510973E+02  0.10615185900E+03  0.11472671724E+03  0.00000000000E+00 0.  1.
         -2    1    3    3    0  502  0.35328143472E+01 -0.43376510973E+02  0.35582780363E+02  0.56215093523E+02  0.00000000000E+00 0. -1.
<mgrwt>
<rscale>  0 0.95563564E+02</rscale>
<asrwt>0</asrwt>
<pdfrwt beam="2">  1        3 0.22467056E-02 0.95563564E+02</pdfrwt>
<pdfrwt beam="1">  1       -3 0.24052033E-01 0.95563564E+02</pdfrwt>
<totfact> 0.26471277E+04</totfact>
</mgrwt>
</event>
<event>
 5    1  0.3921687E+001  0.9613171E+02  0.7546771E-02  0.1288647E+00
          4   -1    0    0  501    0  0.00000000000E+00  0.00000000000E+00  0.13243024045E+02  0.13243024045E+02  0.00000000000E+00 0.  1.
         -4   -1    0    0    0  501 -0.00000000000E+00 -0.00000000000E+00 -0.17445612238E+03  0.17445612238E+03  0.00000000000E+00 0. -1.
         23    2    1    2    0    0  0.00000000000E+00  0.00000000000E+00 -0.16121309834E+03  0.18769914643E+03  0.96131714299E+02 0.  0.
          2    1    3    3  502    0  0.31067111248E+02  0.88584325881E+01 -0.15009788781E+03  0.15353505513E+03  0.00000000000E+00 0. -1.
         -2    1    3    3    0  502 -0.31067111248E+02 -0.88584325881E+01 -0.11115210533E+02  0.34164091301E+02  0.00000000000E+00 0.  1.
<mgrwt>
<rscale>  0 0.96131714E+02</rscale>
<asrwt>0</asrwt>
<pdfrwt beam="1">  1        4 0.20373884E-02 0.96131714E+02</pdfrwt>
<pdfrwt beam="2">  1       -4 0.26839403E-01 0.96131714E+02</pdfrwt>
<totfact> 0.19000172E+04</totfact>
</mgrwt>
</event>
<event>
 5    1  0.3921687E+001  0.8936438E+02  0.7546771E-02  0.1304398E+00
         -2   -1    0    0    0  501 -0.00000000000E+00  0.00000000000E+00  0.62163220580E+01  0.62163220580E+01  0.00000000000E+00 0.  1.
          2   -1    0    0  501    0  0.00000000000E+00 -0.00000000000E+00 -0.32117031127E+03  0.32117031127E+03  0.00000000000E+00 0. -1.
         23    2    1    2    0    0  0.00000000000E+00  0.00000000000E+00 -0.31495398921E+03  0.32738663333E+03  0.89364379711E+02 0.  0.
          2    1    3    3  502    0 -0.36013390949E+02  0.11488782426E+02 -0.70200887928E+02  0.79731556583E+02  0.00000000000E+00 0.  1.
         -2    1    3    3    0  502  0.36013390949E+02 -0.11488782426E+02 -0.24475310128E+03  0.24765507674E+03  0.00000000000E+00 0. -1.
<mgrwt>
<rscale>  0 0.89364380E+02</rscale>
<asrwt>0</asrwt>
<pdfrwt beam="2">  1        2 0.49410829E-01 0.89364380E+02</pdfrwt>
<pdfrwt beam="1">  1       -2 0.95635701E-03 0.89364380E+02</pdfrwt>
<totfact> 0.19438025E+05</totfact>
</mgrwt>
</event>
<event>
 5    1  0.3921687E+001  0.9091364E+02  0.7546771E-02  0.1300654E+00
         -2   -1    0    0    0  501 -0.00000000000E+00  0.00000000000E+00  0.66042561183E+01  0.66042561183E+01  0.00000000000E+00 0. -1.
          2   -1    0    0  501    0  0.00000000000E+00 -0.00000000000E+00 -0.31287742041E+03  0.31287742041E+03  0.00000000000E+00 0.  1.
         23    2    1    2    0    0  0.00000000000E+00  0.00000000000E+00 -0.30627316429E+03  0.31948167652E+03  0.90913642936E+02 0.  0.
          2    1    3    3  502    0 -0.31557550503E+02  0.20347037821E+02 -0.63100836161E+02  0.73427491214E+02  0.00000000000E+00 0.  1.
         -2    1    3    3    0  502  0.31557550503E+02 -0.20347037821E+02 -0.24317232813E+03  0.24605418531E+03  0.00000000000E+00 0. -1.
<mgrwt>
<rscale>  0 0.90913643E+02</rscale>
<asrwt>0</asrwt>
<pdfrwt beam="2">  1        2 0.48134981E-01 0.90913643E+02</pdfrwt>
<pdfrwt beam="1">  1       -2 0.10160396E-02 0.90913643E+02</pdfrwt>
<totfact> 0.18390191E+05</totfact>
</mgrwt>
</event>
<event>
 5    1  0.3921687E+001  0.8972566E+02  0.7546771E-02  0.1303517E+00
          1   -1    0    0  501    0  0.00000000000E+00  0.00000000000E+00  0.98282501276E+03  0.98282501276E+03  0.00000000000E+00 0. -1.
         -1   -1    0    0    0  501 -0.00000000000E+00 -0.00000000000E+00 -0.20478454594E+01  0.20478454594E+01  0.00000000000E+00 0.  1.
         23    2    1    2    0    0  0.00000000000E+00  0.00000000000E+00  0.98077716730E+03  0.98487285822E+03  0.89725664996E+02 0.  0.
          2    1    3    3  502    0  0.18446034673E+02  0.20174104650E+02  0.99924265260E+02  0.10359589510E+03  0.00000000000E+00 0.  1.
         -2    1    3    3    0  502 -0.18446034673E+02 -0.20174104650E+02  0.88085290204E+03  0.88127696312E+03  0.00000000000E+00 0. -1.
<mgrwt>
<rscale>  0 0.89725665E+02</rscale>
<asrwt>0</asrwt>
<pdfrwt beam="1">  1        1 0.15120347E+00 0.89725665E+02</pdfrwt>
<pdfrwt beam="2">  1       -1 0.31505393E-03 0.89725665E+02</pdfrwt>
<totfact> 0.14253844E+05</totfact>
</mgrwt>
</event>
<event>
 5    1  0.3921687E+001  0.9231683E+02  0.7546771E-02  0.1297336E+00
          3   -1    0    0  501    0  0.00000000000E+00  0.00000000000E+00  0.15540901465E+02  0.15540901465E+02  0.00000000000E+00 0. -1.
         -3   -1    0    0    0  501 -0.00000000000E+00 -0.00000000000E+00 -0.13709625196E+03  0.13709625196E+03  0.00000000000E+00 0.  1.
         23    2    1    2    0    0  0.00000000000E+00  0.00000000000E+00 -0.12155535049E+03  0.15263715342E+03  0.92316831465E+02 0.  0.
          2    1    3    3  502    0  0.19031865113E+02 -0.24788486046E+02 -0.46125256752E+01  0.31590446708E+02  0.00000000000E+00 0. -1.
         -2    1    3    3    0  502 -0.19031865113E+02  0.24788486046E+02 -0.11694282482E+03  0.12104670671E+03  0.00000000000E+00 0.  1.
<mgrwt>
<rscale>  0 0.92316831E+02</rscale>
<asrwt>0</asrwt>
<pdfrwt beam="1">  1        3 0.23909080E-02 0.92316831E+02</pdfrwt>
<pdfrwt beam="2">  1       -3 0.21091731E-01 0.92316831E+02</pdfrwt>
<totfact> 0.30114695E+04</totfact>
</mgrwt>
</event>
<event>
 5    1  0.3921687E+001  0.9064025E+02  0.7546771E-02  0.1301309E+00
         -2   -1    0    0    0  501 -0.00000000000E+00  0.00000000000E+00  0.80480140354E+01  0.80480140354E+01  0.00000000000E+00 0.  1.
          2   -1    0    0  501    0  0.00000000000E+00 -0.00000000000E+00 -0.25520753657E+03  0.25520753657E+03  0.00000000000E+00 0. -1.
         23    2    1    2    0    0  0.00000000000E+00  0.00000000000E+00 -0.24715952253E+03  0.26325555060E+03  0.90640252343E+02 0.  0.
          2    1    3    3  502    0  0.44126039888E+02 -0.10317690747E+02 -0.12530218977E+03  0.13324489071E+03  0.00000000000E+00 0. -1.
         -2    1    3    3    0  502 -0.44126039888E+02  0.10317690747E+02 -0.12185733276E+03  0.13001065989E+03  0.00000000000E+00 0.  1.
<mgrwt>
<rscale>  0 0.90640252E+02</rscale>
<asrwt>0</asrwt>
<pdfrwt beam="2">  1        2 0.39262698E-01 0.90640252E+02</pdfrwt>
<pdfrwt beam="1">  1       -2 0.12381560E-02 0.90640252E+02</pdfrwt>
<totfact> 0.17183869E+05</totfact>
</mgrwt>
</event>
<event>
 5    1  0.3921687E+001  0.9087472E+02  0.7546771E-02  0.1300747E+00
         -4   -1    0    0    0  501 -0.00000000000E+00  0.00000000000E+00  0.57815349856E+03  0.57815349856E+03  0.00000000000E+00 0.  1.
          4   -1    0    0  501    0  0.00000000000E+00 -0.00000000000E+00 -0.35709438570E+01  0.35709438570E+01  0.00000000000E+00 0. -1.
         23    2    1    2    0    0  0.00000000000E+00  0.00000000000E+00  0.57458255470E+03  0.58172444241E+03  0.90874720007E+02 0.  0.
          2    1    3    3  502    0 -0.31627825866E+02  0.29319178779E+02  0.19572230473E+03  0.20041744979E+03  0.00000000000E+00 0. -1.
         -2    1    3    3    0  502  0.31627825866E+02 -0.29319178779E+02  0.37886024997E+03  0.38130699262E+03  0.00000000000E+00 0.  1.
<mgrwt>
<rscale>  0 0.90874720E+02</rscale>
<asrwt>0</asrwt>
<pdfrwt beam="2">  1        4 0.54937644E-03 0.90874720E+02</pdfrwt>
<pdfrwt beam="1">  1       -4 0.88946618E-01 0.90874720E+02</pdfrwt>
<totfact> 0.11788589E+04</totfact>
</mgrwt>
</event>
<event>
 5    1  0.3921687E+001  0.8630756E+02  0.7546771E-02  0.1312048E+00
         -3   -1    0    0    0  501 -0.00000000000E+00  0.00000000000E+00  0.85535187039E+03  0.85535187039E+03  0.00000000000E+00 0.  1.
          3   -1    0    0  501    0  0.00000000000E+00 -0.00000000000E+00 -0.21771725384E+01  0.21771725384E+01  0.00000000000E+00 0. -1.
         23    2    1    2    0    0  0.00000000000E+00  0.00000000000E+00  0.85317469786E+03  0.85752904293E+03  0.86307557094E+02 0.  0.
          2    1    3    3  502    0 -0.25387819656E+02 -0.21212653933E+02  0.15128848518E+03  0.15486356519E+03  0.00000000000E+00 0. -1.
         -2    1    3    3    0  502  0.25387819656E+02  0.21212653933E+02  0.70188621267E+03  0.70266547775E+03  0.00000000000E+00 0.  1.
<mgrwt>
<rscale>  0 0.86307557E+02</rscale>
<asrwt>0</asrwt>
<pdfrwt beam="2">  1        3 0.33495030E-03 0.86307557E+02</pdfrwt>
<pdfrwt beam="1">  1       -3 0.13159233E+00 0.86307557E+02</pdfrwt>
<totfact> 0.13425937E+04</totfact>
</mgrwt>
</event>
<event>
 5    1  0.3921687E+001  0.9311200E+02  0.7546771E-02  0.1295486E+00
          1   -1    0    0  501    0  0.00000000000E+00  0.00000000000E+00  0.84399051195E+02  0.84399051195E+02  0.00000000000E+00 0. -1.
         -1   -1    0    0    0  501 -0.00000000000E+00 -0.00000000000E+00 -0.25681109424E+02  0.25681109424E+02  0.00000000000E+00 0.  1.
         23    2    1    2    0    0  0.00000000000E+00  0.00000000000E+00  0.58717941771E+02  0.11008016062E+03  0.93112002857E+02 0.  0.
          2    1    3    3  502    0  0.14085981369E+01  0.32310640071E+02 -0.10232620529E+02  0.33921499575E+02  0.00000000000E+00 0.  1.
         -2    1    3    3    0  502 -0.14085981369E+01 -0.32310640071E+02  0.68950562299E+02  0.76158661043E+02  0.00000000000E+00 0. -1.
<mgrwt>
<rscale>  0 0.93112003E+02</rscale>
<asrwt>0</asrwt>
<pdfrwt beam="1">  1        1 0.12984469E-01 0.93112003E+02</pdfrwt>
<pdfrwt beam="2">  1       -1 0.39509399E-02 0.93112003E+02</pdfrwt>
<totfact> 0.95908992E+04</totfact>
</mgrwt>
</event>
<event>
 5    1  0.3921687E+001  0.9201577E+02  0.7546771E-02  0.1298042E+00
          1   -1    0    0  501    0  0.00000000000E+00  0.00000000000E+00  0.36988451351E+03  0.36988451351E+03  0.00000000000E+00 0. -1.
         -1   -1    0    0    0  501 -0.00000000000E+00 -0.00000000000E+00 -0.57226663198E+01  0.57226663198E+01  0.00000000000E+00 0.  1.
         23    2    1    2    0    0  0.00000000000E+00  0.00000000000E+00  0.36416184719E+03  0.37560717983E+03  0.92015773598E+02 0.  0.
          2    1    3    3  502    0 -0.36376903834E+02 -0.24139137560E+01  0.29664008963E+03  0.29887196069E+03  0.00000000000E+00 0. -1.
         -2    1    3    3    0  502  0.36376903834E+02  0.24139137560E+01  0.67521757561E+02  0.76735219139E+02  0.00000000000E+00 0.  1.
<mgrwt>
<rscale>  0 0.92015774E+02</rscale>
<asrwt>0</asrwt>
<pdfrwt beam="1">  1        1 0.56905291E-01 0.92015774E+02</pdfrwt>
<pdfrwt beam="2">  1       -1 0.88041049E-03 0.92015774E+02</pdfrwt>
<totfact> 0.12991390E+05</totfact>
</mgrwt>
</event>
<event>
 5    1  0.3921687E+001  0.9457045E+02  0.7546771E-02  0.1292146E+00
          2   -1    0    0  501    0  0.00000000000E+00  0.00000000000E+00  0.29981187173E+03  0.29981187173E+03  0.00000000000E+00 0. -1.
         -2   -1    0    0    0  501 -0.00000000000E+00 -0.00000000000E+00 -0.74576510485E+01  0.74576510485E+01  0.00000000000E+00 0.  1.
         23    2    1    2    0    0  0.00000000000E+00  0.00000000000E+00  0.29235422069E+03  0.30726952278E+03  0.94570446115E+02 0.  0.
          2    1    3    3  502    0 -0.66466152223E+01 -0.43696521797E+02  0.20077069934E+03  0.20557829950E+03  0.00000000000E+00 0. -1.
         -2    1    3    3    0  502  0.66466152223E+01  0.43696521797E+02  0.91583521347E+02  0.10169122329E+03  0.00000000000E+00 0.  1.
<mgrwt>
<rscale>  0 0.94570446E+02</rscale>
<asrwt>0</asrwt>
<pdfrwt beam="1">  1        2 0.46124894E-01 0.94570446E+02</pdfrwt>
<pdfrwt beam="2">  1       -2 0.11473312E-02 0.94570446E+02</pdfrwt>
<totfact> 0.16288941E+05</totfact>
</mgrwt>
</event>
<event>
 5    1  0.3921687E+001  0.8035036E+02  0.7546771E-02  0.1328060E+00
         -2   -1    0    0    0  501 -0.00000000000E+00  0.00000000000E+00  0.17970787571E+01  0.17970787571E+01  0.00000000000E+00 0.  1.
          2   -1    0    0  501    0  0.00000000000E+00 -0.00000000000E+00 -0.89814941501E+03  0.89814941501E+03  0.00000000000E+00 0. -1.
         23    2    1    2    0    0  0.00000000000E+00  0.00000000000E+00 -0.89635233626E+03  0.89994649377E+03  0.80350363645E+02 0.  0.
          2    1    3    3  502    0  0.27007513061E+02  0.29016297393E+02 -0.37499285725E+03  0.37708221155E+03  0.00000000000E+00 0. -1.
         -2    1    3    3    0  502 -0.27007513061E+02 -0.29016297393E+02 -0.52135947900E+03  0.52286428222E+03  0.00000000000E+00 0.  1.
<mgrwt>
<rscale>  0 0.80350364E+02</rscale>
<asrwt>0</asrwt>
<pdfrwt beam="2">  1        2 0.13817680E+00 0.80350364E+02</pdfrwt>
<pdfrwt beam="1">  1       -2 0.27647373E-03 0.80350364E+02</pdfrwt>
<totfact> 0.34507475E+05</totfact>
</mgrwt>
</event>
<event>
 5    1  0.3921687E+001  0.8992803E+02  0.7546771E-02  0.1303026E+00
          1   -1    0    0  501    0  0.00000000000E+00  0.00000000000E+00  0.16064103461E+02  0.16064103461E+02  0.00000000000E+00 0. -1.
         -1   -1    0    0    0  501 -0.00000000000E+00 -0.00000000000E+00 -0.12585591762E+03  0.12585591762E+03  0.00000000000E+00 0.  1.
         23    2    1    2    0    0  0.00000000000E+00  0.00000000000E+00 -0.10979181416E+03  0.14192002108E+03  0.89928026372E+02 0.  0.
          2    1    3    3  502    0  0.93620386094E+01  0.43949019265E+02 -0.57439826343E+02  0.72928031041E+02  0.00000000000E+00 0. -1.
         -2    1    3    3    0  502 -0.93620386094E+01 -0.43949019265E+02 -0.52351987814E+02  0.68991990037E+02  0.00000000000E+00 0.  1.
<mgrwt>
<rscale>  0 0.89928026E+02</rscale>
<asrwt>0</asrwt>
<pdfrwt beam="1">  1        1 0.24714005E-02 0.89928026E+02</pdfrwt>
<pdfrwt beam="2">  1       -1 0.19362449E-01 0.89928026E+02</pdfrwt>
<totfact> 0.80580054E+04</totfact>
</mgrwt>
</event>
<event>
 5    1  0.3921687E+001  0.8969134E+02  0.7546771E-02  0.1303601E+00
          2   -1    0    0  501    0  0.00000000000E+00  0.00000000000E+00  0.88994877199E+03  0.88994877199E+03  0.00000000000E+00 0.  1.
         -2   -1    0    0    0  501 -0.00000000000E+00 -0.00000000000E+00 -0.22598310827E+01  0.22598310827E+01  0.00000000000E+00 0. -1.
         23    2    1    2    0    0  0.00000000000E+00  0.00000000000E+00  0.88768894090E+03  0.89220860307E+03  0.89691335077E+02 0.  0.
          2    1    3    3  502    0  0.40379686123E+02  0.49230841139E+01  0.25605492318E+03  0.25926603999E+03  0.00000000000E+00 0. -1.
         -2    1    3    3    0  502 -0.40379686123E+02 -0.49230841139E+01  0.63163401772E+03  0.63294256308E+03  0.00000000000E+00 0.  1.
<mgrwt>
<rscale>  0 0.89691335E+02</rscale>
<asrwt>0</asrwt>
<pdfrwt beam="1">  1        2 0.13691492E+00 0.89691335E+02</pdfrwt>
<pdfrwt beam="2">  1       -2 0.34766703E-03 0.89691335E+02</pdfrwt>
<totfact> 0.25855848E+05</totfact>
</mgrwt>
</event>
<event>
 5    1  0.3921687E+001  0.8914864E+02  0.7546771E-02  0.1304927E+00
         -1   -1    0    0    0  501 -0.00000000000E+00  0.00000000000E+00  0.45669750922E+02  0.45669750922E+02  0.00000000000E+00 0.  1.
          1   -1    0    0  501    0  0.00000000000E+00 -0.00000000000E+00 -0.43505166248E+02  0.43505166248E+02  0.00000000000E+00 0. -1.
         23    2    1    2    0    0  0.00000000000E+00  0.00000000000E+00  0.21645846738E+01  0.89174917169E+02  0.89148642308E+02 0.  0.
          2    1    3    3  502    0 -0.13713721084E+02  0.41005644510E+02 -0.97533090281E+01  0.44324440940E+02  0.00000000000E+00 0. -1.
         -2    1    3    3    0  502  0.13713721084E+02 -0.41005644510E+02  0.11917893702E+02  0.44850476229E+02  0.00000000000E+00 0.  1.
<mgrwt>
<rscale>  0 0.89148642E+02</rscale>
<asrwt>0</asrwt>
<pdfrwt beam="2">  1        1 0.66931025E-02 0.89148642E+02</pdfrwt>
<pdfrwt beam="1">  1       -1 0.70261155E-02 0.89148642E+02</pdfrwt>
<totfact> 0.97805345E+04</totfact>
</mgrwt>
</event>
<event>
 5    1  0.3921687E+001  0.9083307E+02  0.7546771E-02  0.1300847E+00
          2   -1    0    0  501    0  0.00000000000E+00  0.00000000000E+00  0.95794983213E+03  0.95794983213E+03  0.00000000000E+00 0. -1.
         -2   -1    0    0    0  501 -0.00000000000E+00 -0.00000000000E+00 -0.21532040513E+01  0.21532040513E+01  0.00000000000E+00 0.  1.
         23    2    1    2    0    0  0.00000000000E+00  0.00000000000E+00  0.95579662808E+03  0.96010303618E+03  0.90833065775E+02 0.  0.
          2    1    3    3  502    0 -0.13318016690E+02  0.41911907376E+02  0.59780295594E+03  0.59941834446E+03  0.00000000000E+00 0. -1.
         -2    1    3    3    0  502  0.13318016690E+02 -0.41911907376E+02  0.35799367214E+03  0.36068469172E+03  0.00000000000E+00 0.  1.
<mgrwt>
<rscale>  0 0.90833066E+02</rscale>
<asrwt>0</asrwt>
<pdfrwt beam="1">  1        2 0.14737656E+00 0.90833066E+02</pdfrwt>
<pdfrwt beam="2">  1       -2 0.33126293E-03 0.90833066E+02</pdfrwt>
<totfact> 0.25187913E+05</totfact>
</mgrwt>
</event>
<event>
 5    1  0.3921687E+001  0.9105466E+02  0.7546771E-02  0.1300318E+00
          2   -1    0    0  501    0  0.00000000000E+00  0.00000000000E+00  0.25499592625E+03  0.25499592625E+03  0.00000000000E+00 0. -1.
         -2   -1    0    0    0  501 -0.00000000000E+00 -0.00000000000E+00 -0.81285138288E+01  0.81285138288E+01  0.00000000000E+00 0.  1.
         23    2    1    2    0    0  0.00000000000E+00  0.00000000000E+00  0.24686741242E+03  0.26312444008E+03  0.91054662984E+02 0.  0.
          2    1    3    3  502    0 -0.25297269754E+02  0.84283569211E+01  0.16796807239E+02  0.31513834911E+02  0.00000000000E+00 0.  1.
         -2    1    3    3    0  502  0.25297269754E+02 -0.84283569211E+01  0.23007060518E+03  0.23161060516E+03  0.00000000000E+00 0. -1.
<mgrwt>
<rscale>  0 0.91054663E+02</rscale>
<asrwt>0</asrwt>
<pdfrwt beam="1">  1        2 0.39230136E-01 0.91054663E+02</pdfrwt>
<pdfrwt beam="2">  1       -2 0.12505408E-02 0.91054663E+02</pdfrwt>
<totfact> 0.16970321E+05</totfact>
</mgrwt>
</event>
<event>
 5    1  0.3921687E+001  0.8920072E+02  0.7546771E-02  0.1304799E+00
          1   -1    0    0  501    0  0.00000000000E+00  0.00000000000E+00  0.37672783688E+02  0.37672783688E+02  0.00000000000E+00 0. -1.
         -1   -1    0    0    0  501 -0.00000000000E+00 -0.00000000000E+00 -0.52801834059E+02  0.52801834059E+02  0.00000000000E+00 0.  1.
         23    2    1    2    0    0  0.00000000000E+00  0.00000000000E+00 -0.15129050371E+02  0.90474617747E+02  0.89200719119E+02 0.  0.
          2    1    3    3  502    0 -0.27777917278E+02  0.33070559823E+02 -0.18855323466E+02  0.47125341785E+02  0.00000000000E+00 0. -1.
         -2    1    3    3    0  502  0.27777917278E+02 -0.33070559823E+02  0.37262730944E+01  0.43349275963E+02  0.00000000000E+00 0.  1.
<mgrwt>
<rscale>  0 0.89200719E+02</rscale>
<asrwt>0</asrwt>
<pdfrwt beam="1">  1        1 0.57958129E-02 0.89200719E+02</pdfrwt>
<pdfrwt beam="2">  1       -1 0.81233591E-02 0.89200719E+02</pdfrwt>
<totfact> 0.95576425E+04</totfact>
</mgrwt>
</event>
<event>
 5    1  0.3921687E+001  0.8672492E+02  0.7546771E-02  0.1310982E+00
          3   -1    0    0  501    0  0.00000000000E+00  0.00000000000E+00  0.26061065337E+01  0.26061065337E+01  0.00000000000E+00 0. -1.
         -3   -1    0    0    0  501 -0.00000000000E+00 -0.00000000000E+00 -0.72149880369E+03  0.72149880369E+03  0.00000000000E+00 0.  1.
         23    2    1    2    0    0  0.00000000000E+00  0.00000000000E+00 -0.71889269716E+03  0.72410491022E+03  0.86724915597E+02 0.  0.
          2    1    3    3  502    0  0.33423850670E+02 -0.23081877113E+02 -0.23271731278E+03  0.23623563345E+03  0.00000000000E+00 0. -1.
         -2    1    3    3    0  502 -0.33423850670E+02  0.23081877113E+02 -0.48617538438E+03  0.48786927677E+03  0.00000000000E+00 0.  1.
<mgrwt>
<rscale>  0 0.86724916E+02</rscale>
<asrwt>0</asrwt>
<pdfrwt beam="1">  1        3 0.40093941E-03 0.86724916E+02</pdfrwt>
<pdfrwt beam="2">  1       -3 0.11099983E+00 0.86724916E+02</pdfrwt>
<totfact> 0.15413326E+04</totfact>
</mgrwt>
</event>
<event>
 5    1  0.3921687E+001  0.9041314E+02  0.7546771E-02  0.1301854E+00
          1   -1    0    0  501    0  0.00000000000E+00  0.00000000000E+00  0.77793509140E+01  0.77793509140E+01  0.00000000000E+00 0. -1.
         -1   -1    0    0    0  501 -0.00000000000E+00 -0.00000000000E+00 -0.26269980313E+03  0.26269980313E+03  0.00000000000E+00 0.  1.
         23    2    1    2    0    0  0.00000000000E+00  0.00000000000E+00 -0.25492045222E+03  0.27047915404E+03  0.90413139611E+02 0.  0.
          2    1    3    3  502    0  0.28748376094E+02  0.31027458916E+02 -0.79738802402E+02  0.90263220325E+02  0.00000000000E+00 0. -1.
         -2    1    3    3    0  502 -0.28748376094E+02 -0.31027458916E+02 -0.17518164981E+03  0.18021593372E+03  0.00000000000E+00 0.  1.
<mgrwt>
<rscale>  0 0.90413140E+02</rscale>
<asrwt>0</asrwt>
<pdfrwt beam="1">  1        1 0.11968232E-02 0.90413140E+02</pdfrwt>
<pdfrwt beam="2">  1       -1 0.40415355E-01 0.90413140E+02</pdfrwt>
<totfact> 0.65077051E+04</totfact>
</mgrwt>
</event>
<event>
 5    1  0.3921687E+001  0.9119518E+02  0.7546771E-02  0.1299983E+00
         -1   -1    0    0    0  501 -0.00000000000E+00  0.00000000000E+00  0.11696480238E+01  0.11696480238E+01  0.00000000000E+00 0.  1.
          1   -1    0    0  501    0  0.00000000000E+00 -0.00000000000E+00 -0.17775776841E+04  0.17775776841E+04  0.00000000000E+00 0. -1.
         23    2    1    2    0    0  0.00000000000E+00  0.00000000000E+00 -0.17764080361E+04  0.17787473321E+04  0.91195180254E+02 0.  0.
          2    1    3    3  502    0  0.34638859702E+02 -0.15102022020E+01 -0.14658268870E+04  0.14662368819E+04  0.00000000000E+00 0. -1.
         -2    1    3    3    0  502 -0.34638859702E+02  0.15102022020E+01 -0.31058114913E+03  0.31251045024E+03  0.00000000000E+00 0.  1.
<mgrwt>
<rscale>  0 0.91195180E+02</rscale>
<asrwt>0</asrwt>
<pdfrwt beam="2">  1        1 0.27347436E+00 0.91195180E+02</pdfrwt>
<pdfrwt beam="1">  1       -1 0.17994528E-03 0.91195180E+02</pdfrwt>
<totfact> 0.93320397E+04</totfact>
</mgrwt>
</event>
<event>
 5    1  0.3921687E+001  0.9322719E+02  0.7546771E-02  0.1295220E+00
         -2   -1    0    0    0  501 -0.00000000000E+00  0.00000000000E+00  0.84153684958E+00  0.84153684958E+00  0.00000000000E+00 0.  1.
          2   -1    0    0  501    0  0.00000000000E+00 -0.00000000000E+00 -0.25819749570E+04  0.25819749570E+04  0.00000000000E+00 0. -1.
         23    2    1    2    0    0  0.00000000000E+00  0.00000000000E+00 -0.25811334201E+04  0.25828164938E+04  0.93227186399E+02 0.  0.
          2    1    3    3  502    0  0.35506391165E+02  0.16910635722E+02 -0.19838191941E+04  0.19842089780E+04  0.00000000000E+00 0. -1.
         -2    1    3    3    0  502 -0.35506391165E+02 -0.16910635722E+02 -0.59731422602E+03  0.59860751584E+03  0.00000000000E+00 0.  1.
<mgrwt>
<rscale>  0 0.93227186E+02</rscale>
<asrwt>0</asrwt>
<pdfrwt beam="2">  1        2 0.39723109E+00 0.93227186E+02</pdfrwt>
<pdfrwt beam="1">  1       -2 0.12946585E-03 0.93227186E+02</pdfrwt>
<totfact> 0.13250799E+05</totfact>
</mgrwt>
</event>
<event>
 5    1  0.3921687E+001  0.9109074E+02  0.7546771E-02  0.1300232E+00
          1   -1    0    0  501    0  0.00000000000E+00  0.00000000000E+00  0.62817744949E+01  0.62817744949E+01  0.00000000000E+00 0. -1.
         -1   -1    0    0    0  501 -0.00000000000E+00 -0.00000000000E+00 -0.33022212814E+03  0.33022212814E+03  0.00000000000E+00 0.  1.
         23    2    1    2    0    0  0.00000000000E+00  0.00000000000E+00 -0.32394035365E+03  0.33650390264E+03  0.91090744693E+02 0.  0.
          2    1    3    3  502    0 -0.83343386575E+01  0.28573832259E+02 -0.34617704804E+02  0.45654250369E+02  0.00000000000E+00 0. -1.
         -2    1    3    3    0  502  0.83343386575E+01 -0.28573832259E+02 -0.28932264884E+03  0.29084965227E+03  0.00000000000E+00 0.  1.
<mgrwt>
<rscale>  0 0.91090745E+02</rscale>
<asrwt>0</asrwt>
<pdfrwt beam="1">  1        1 0.96642678E-03 0.91090745E+02</pdfrwt>
<pdfrwt beam="2">  1       -1 0.50803408E-01 0.91090745E+02</pdfrwt>
<totfact> 0.58393919E+04</totfact>
</mgrwt>
</event>
<event>
 5    1  0.3921687E+001  0.9040122E+02  0.7546771E-02  0.1301883E+00
         -1   -1    0    0    0  501 -0.00000000000E+00  0.00000000000E+00  0.12839620455E+02  0.12839620455E+02  0.00000000000E+00 0.  1.
          1   -1    0    0  501    0  0.00000000000E+00 -0.00000000000E+00 -0.15912425909E+03  0.15912425909E+03  0.00000000000E+00 0. -1.
         23    2    1    2    0    0  0.00000000000E+00  0.00000000000E+00 -0.14628463864E+03  0.17196387955E+03  0.90401218842E+02 0.  0.
          2    1    3    3  502    0 -0.21809425904E+02  0.38282317679E+02 -0.92345248746E+02  0.10231730973E+03  0.00000000000E+00 0. -1.
         -2    1    3    3    0  502  0.21809425904E+02 -0.38282317679E+02 -0.53939389893E+02  0.69646569816E+02  0.00000000000E+00 0.  1.
<mgrwt>
<rscale>  0 0.90401219E+02</rscale>
<asrwt>0</asrwt>
<pdfrwt beam="2">  1        1 0.24480655E-01 0.90401219E+02</pdfrwt>
<pdfrwt beam="1">  1       -1 0.19753263E-02 0.90401219E+02</pdfrwt>
<totfact> 0.11600085E+05</totfact>
</mgrwt>
</event>
<event>
 5    1  0.3921687E+001  0.9322450E+02  0.7546771E-02  0.1295226E+00
          2   -1    0    0  501    0  0.00000000000E+00  0.00000000000E+00  0.24470394613E+02  0.24470394613E+02  0.00000000000E+00 0. -1.
         -2   -1    0    0    0  501 -0.00000000000E+00 -0.00000000000E+00 -0.88789005380E+02  0.88789005380E+02  0.00000000000E+00 0.  1.
         23    2    1    2    0    0  0.00000000000E+00  0.00000000000E+00 -0.64318610767E+02  0.11325939999E+03  0.93224503194E+02 0.  0.
          2    1    3    3  502    0 -0.64876889771E+01  0.23141767185E+02  0.16362183727E+02  0.29074947171E+02  0.00000000000E+00 0. -1.
         -2    1    3    3    0  502  0.64876889771E+01 -0.23141767185E+02 -0.80680794493E+02  0.84184452821E+02  0.00000000000E+00 0.  1.
<mgrwt>
<rscale>  0 0.93224503E+02</rscale>
<asrwt>0</asrwt>
<pdfrwt beam="1">  1        2 0.37646761E-02 0.93224503E+02</pdfrwt>
<pdfrwt beam="2">  1       -2 0.13659847E-01 0.93224503E+02</pdfrwt>
<totfact> 0.78207186E+04</totfact>
</mgrwt>
</event>
<event>
 5    1  0.3921687E+001  0.8998217E+02  0.7546771E-02  0.1302895E+00
         -2   -1    0    0    0  501 -0.00000000000E+00  0.00000000000E+00  0.44693205967E+03  0.44693205967E+03  0.00000000000E+00 0.  1.
          2   -1    0    0  501    0  0.00000000000E+00 -0.00000000000E+00 -0.45290950031E+01  0.45290950031E+01  0.00000000000E+00 0. -1.
         23    2    1    2    0    0  0.00000000000E+00  0.00000000000E+00  0.44240296467E+03  0.45146115467E+03  0.89982170638E+02 0.  0.
          2    1    3    3  502    0 -0.14265392679E+02  0.38432179879E+02  0.12819122051E+03  0.13458648853E+03  0.00000000000E+00 0. -1.
         -2    1    3    3    0  502  0.14265392679E+02 -0.38432179879E+02  0.31421174415E+03  0.31687466614E+03  0.00000000000E+00 0.  1.
<mgrwt>
<rscale>  0 0.89982171E+02</rscale>
<asrwt>0</asrwt>
<pdfrwt beam="2">  1        2 0.69678420E-03 0.89982171E+02</pdfrwt>
<pdfrwt beam="1">  1       -2 0.68758744E-01 0.89982171E+02</pdfrwt>
<totfact> 0.40869088E+04</totfact>
</mgrwt>
</event>
<event>
 5    1  0.3921687E+001  0.9078806E+02  0.7546771E-02  0.1300954E+00
         -2   -1    0    0    0  501 -0.00000000000E+00  0.00000000000E+00  0.40511368116E+01  0.40511368116E+01  0.00000000000E+00 0.  1.
          2   -1    0    0  501    0  0.00000000000E+00 -0.00000000000E+00 -0.50865173241E+03  0.50865173241E+03  0.00000000000E+00 0. -1.
         23    2    1    2    0    0  0.00000000000E+00  0.00000000000E+00 -0.50460059559E+03  0.51270286922E+03  0.90788055545E+02 0.  0.
          2    1    3    3  502    0 -0.22903673802E+02 -0.22844435489E+02 -0.72457652964E+02  0.79350853679E+02  0.00000000000E+00 0.  1.
         -2    1    3    3    0  502  0.22903673802E+02  0.22844435489E+02 -0.43214294263E+03  0.43335201554E+03  0.00000000000E+00 0. -1.
<mgrwt>
<rscale>  0 0.90788056E+02</rscale>
<asrwt>0</asrwt>
<pdfrwt beam="2">  1        2 0.78254121E-01 0.90788056E+02</pdfrwt>
<pdfrwt beam="1">  1       -2 0.62325175E-03 0.90788056E+02</pdfrwt>
<totfact> 0.21915867E+05</totfact>
</mgrwt>
</event>
<event>
 5    1  0.3921687E+001  0.8824055E+02  0.7546771E-02  0.1307169E+00
          4   -1    0    0  501    0  0.00000000000E+00  0.00000000000E+00  0.22219254159E+02  0.22219254159E+02  0.00000000000E+00 0. -1.
         -4   -1    0    0    0  501 -0.00000000000E+00 -0.00000000000E+00 -0.87608634469E+02  0.87608634469E+02  0.00000000000E+00 0.  1.
         23    2    1    2    0    0  0.00000000000E+00  0.00000000000E+00 -0.65389380310E+02  0.10982788863E+03  0.88240546593E+02 0.  0.
          2    1    3    3  502    0  0.36040227951E+02  0.59061637733E+00 -0.10271319748E+01  0.36059698537E+02  0.00000000000E+00 0. -1.
         -2    1    3    3    0  502 -0.36040227951E+02 -0.59061637733E+00 -0.64362248335E+02  0.73768190091E+02  0.00000000000E+00 0.  1.
<mgrwt>
<rscale>  0 0.88240547E+02</rscale>
<asrwt>0</asrwt>
<pdfrwt beam="1">  1        4 0.34183468E-02 0.88240547E+02</pdfrwt>
<pdfrwt beam="2">  1       -4 0.13478251E-01 0.88240547E+02</pdfrwt>
<totfact> 0.28247848E+04</totfact>
</mgrwt>
</event>
<event>
 5    1  0.3921687E+001  0.9176467E+02  0.7546771E-02  0.1298634E+00
         -2   -1    0    0    0  501 -0.00000000000E+00  0.00000000000E+00  0.15907600685E+03  0.15907600685E+03  0.00000000000E+00 0.  1.
          2   -1    0    0  501    0  0.00000000000E+00 -0.00000000000E+00 -0.13233853053E+02  0.13233853053E+02  0.00000000000E+00 0. -1.
         23    2    1    2    0    0  0.00000000000E+00  0.00000000000E+00  0.14584215380E+03  0.17230985990E+03  0.91764666380E+02 0.  0.
          2    1    3    3  502    0  0.39638214674E+02 -0.10535310332E+02  0.34301388826E+02  0.53467430289E+02  0.00000000000E+00 0. -1.
         -2    1    3    3    0  502 -0.39638214674E+02  0.10535310332E+02  0.11154076497E+03  0.11884242961E+03  0.00000000000E+00 0.  1.
<mgrwt>
<rscale>  0 0.91764666E+02</rscale>
<asrwt>0</asrwt>
<pdfrwt beam="2">  1        2 0.20359775E-02 0.91764666E+02</pdfrwt>
<pdfrwt beam="1">  1       -2 0.24473230E-01 0.91764666E+02</pdfrwt>
<totfact> 0.67247686E+04</totfact>
</mgrwt>
</event>
<event>
 5    1  0.3921687E+001  0.9081011E+02  0.7546771E-02  0.1300902E+00
          1   -1    0    0  501    0  0.00000000000E+00  0.00000000000E+00  0.11835799554E+02  0.11835799554E+02  0.00000000000E+00 0. -1.
         -1   -1    0    0    0  501 -0.00000000000E+00 -0.00000000000E+00 -0.17418503982E+03  0.17418503982E+03  0.00000000000E+00 0.  1.
         23    2    1    2    0    0  0.00000000000E+00  0.00000000000E+00 -0.16234924027E+03  0.18602083938E+03  0.90810114341E+02 0.  0.
          2    1    3    3  502    0 -0.24448686598E+02 -0.20218061106E+02 -0.14635593831E+02  0.34938644479E+02  0.00000000000E+00 0. -1.
         -2    1    3    3    0  502  0.24448686598E+02  0.20218061106E+02 -0.14771364644E+03  0.15108219490E+03  0.00000000000E+00 0.  1.
<mgrwt>
<rscale>  0 0.90810114E+02</rscale>
<asrwt>0</asrwt>
<pdfrwt beam="1">  1        1 0.18208924E-02 0.90810114E+02</pdfrwt>
<pdfrwt beam="2">  1       -1 0.26797696E-01 0.90810114E+02</pdfrwt>
<totfact> 0.72846432E+04</totfact>
</mgrwt>
</event>
<event>
 5    1  0.3921687E+001  0.9107087E+02  0.7546771E-02  0.1300279E+00
          2   -1    0    0  501    0  0.00000000000E+00  0.00000000000E+00  0.16437708401E+02  0.16437708401E+02  0.00000000000E+00 0. -1.
         -2   -1    0    0    0  501 -0.00000000000E+00 -0.00000000000E+00 -0.12614141714E+03  0.12614141714E+03  0.00000000000E+00 0.  1.
         23    2    1    2    0    0  0.00000000000E+00  0.00000000000E+00 -0.10970370874E+03  0.14257912554E+03  0.91070869816E+02 0.  0.
          2    1    3    3  502    0 -0.45439594932E+01 -0.44383580770E+02 -0.40595060195E+02  0.60320052404E+02  0.00000000000E+00 0. -1.
         -2    1    3    3    0  502  0.45439594932E+01  0.44383580770E+02 -0.69108648543E+02  0.82259073137E+02  0.00000000000E+00 0.  1.
<mgrwt>
<rscale>  0 0.91070870E+02</rscale>
<asrwt>0</asrwt>
<pdfrwt beam="1">  1        2 0.25288783E-02 0.91070870E+02</pdfrwt>
<pdfrwt beam="2">  1       -2 0.19406371E-01 0.91070870E+02</pdfrwt>
<totfact> 0.74410004E+04</totfact>
</mgrwt>
</event>
<event>
 5    1  0.3921687E+001  0.9088469E+02  0.7546771E-02  0.1300723E+00
         -2   -1    0    0    0  501 -0.00000000000E+00  0.00000000000E+00  0.97647618664E+00  0.97647618664E+00  0.00000000000E+00 0.  1.
          2   -1    0    0  501    0  0.00000000000E+00 -0.00000000000E+00 -0.21147537065E+04  0.21147537065E+04  0.00000000000E+00 0. -1.
         23    2    1    2    0    0  0.00000000000E+00  0.00000000000E+00 -0.21137772304E+04  0.21157301827E+04  0.90884688150E+02 0.  0.
          2    1    3    3  502    0  0.21326582284E+02 -0.30874573266E+02 -0.16535580867E+04  0.16539837993E+04  0.00000000000E+00 0. -1.
         -2    1    3    3    0  502 -0.21326582284E+02  0.30874573266E+02 -0.46021914370E+03  0.46174638344E+03  0.00000000000E+00 0.  1.
<mgrwt>
<rscale>  0 0.90884688E+02</rscale>
<asrwt>0</asrwt>
<pdfrwt beam="2">  1        2 0.32534352E+00 0.90884688E+02</pdfrwt>
<pdfrwt beam="1">  1       -2 0.15022859E-03 0.90884688E+02</pdfrwt>
<totfact> 0.18765664E+05</totfact>
</mgrwt>
</event>
<event>
 4    1  0.3921687E+001  0.1773236E+03  0.7546771E-02  0.1170419E+00
          2   -1    0    0  501    0  0.00000000000E+00  0.00000000000E+00  0.12506861351E+03  0.12506861351E+03  0.00000000000E+00 0.  1.
         -2   -1    0    0    0  501 -0.00000000000E+00 -0.00000000000E+00 -0.62852784993E+02  0.62852784993E+02  0.00000000000E+00 0. -1.
          2    1    1    2  502    0 -0.65351062435E+01  0.25989281465E+02 -0.58458017412E+02  0.64307776859E+02  0.00000000000E+00 0. -1.
         -2    1    1    2    0  502  0.65351062435E+01 -0.25989281465E+02  0.12067384593E+03  0.12361362165E+03  0.00000000000E+00 0.  1.
<mgrwt>
<rscale>  0 0.17732355E+03</rscale>
<asrwt>0</asrwt>
<pdfrwt beam="1">  1        2 0.19241325E-01 0.17732355E+03</pdfrwt>
<pdfrwt beam="2">  1       -2 0.96696593E-02 0.17732355E+03</pdfrwt>
<totfact> 0.19359418E+04</totfact>
</mgrwt>
</event>
<event>
 5    1  0.3921687E+001  0.8914825E+02  0.7546771E-02  0.1304928E+00
          1   -1    0    0  501    0  0.00000000000E+00  0.00000000000E+00  0.46362670489E+03  0.46362670489E+03  0.00000000000E+00 0. -1.
         -1   -1    0    0    0  501 -0.00000000000E+00 -0.00000000000E+00 -0.42854579713E+01  0.42854579713E+01  0.00000000000E+00 0.  1.
         23    2    1    2    0    0  0.00000000000E+00  0.00000000000E+00  0.45934124692E+03  0.46791216287E+03  0.89148253111E+02 0.  0.
          2    1    3    3  502    0  0.24075794792E+01 -0.43061043667E+02  0.28877450224E+03  0.29197733313E+03  0.00000000000E+00 0. -1.
         -2    1    3    3    0  502 -0.24075794792E+01  0.43061043667E+02  0.17056674469E+03  0.17593482973E+03  0.00000000000E+00 0.  1.
<mgrwt>
<rscale>  0 0.89148253E+02</rscale>
<asrwt>0</asrwt>
<pdfrwt beam="1">  1        1 0.71327146E-01 0.89148253E+02</pdfrwt>
<pdfrwt beam="2">  1       -1 0.65930159E-03 0.89148253E+02</pdfrwt>
<totfact> 0.14639775E+05</totfact>
</mgrwt>
</event>
<event>
 5    1  0.3921687E+001  0.8908090E+02  0.7546771E-02  0.1305093E+00
          2   -1    0    0  501    0  0.00000000000E+00  0.00000000000E+00  0.46446081949E+01  0.46446081949E+01  0.00000000000E+00 0. -1.
         -2   -1    0    0    0  501 -0.00000000000E+00 -0.00000000000E+00 -0.42712999626E+03  0.42712999626E+03  0.00000000000E+00 0.  1.
         23    2    1    2    0    0  0.00000000000E+00  0.00000000000E+00 -0.42248538807E+03  0.43177460446E+03  0.89080895391E+02 0.  0.
          2    1    3    3  502    0  0.28449439713E+02 -0.11476000197E+02 -0.54722872978E+02  0.62734854965E+02  0.00000000000E+00 0. -1.
         -2    1    3    3    0  502 -0.28449439713E+02  0.11476000197E+02 -0.36776251509E+03  0.36903974949E+03  0.00000000000E+00 0.  1.
<mgrwt>
<rscale>  0 0.89080895E+02</rscale>
<asrwt>0</asrwt>
<pdfrwt beam="1">  1        2 0.71455543E-03 0.89080895E+02</pdfrwt>
<pdfrwt beam="2">  1       -2 0.65712277E-01 0.89080895E+02</pdfrwt>
<totfact> 0.43326995E+04</totfact>
</mgrwt>
</event>
<event>
 5    1  0.3921687E+001  0.8980643E+02  0.7546771E-02  0.1303321E+00
          4   -1    0    0  501    0  0.00000000000E+00  0.00000000000E+00  0.14695269346E+03  0.14695269346E+03  0.00000000000E+00 0. -1.
         -4   -1    0    0    0  501 -0.00000000000E+00 -0.00000000000E+00 -0.13720732572E+02  0.13720732572E+02  0.00000000000E+00 0.  1.
         23    2    1    2    0    0  0.00000000000E+00  0.00000000000E+00  0.13323196089E+03  0.16067342603E+03  0.89806427558E+02 0.  0.
          2    1    3    3  502    0 -0.41949715124E+02 -0.16015315977E+02  0.66924116893E+02  0.80592222744E+02  0.00000000000E+00 0. -1.
         -2    1    3    3    0  502  0.41949715124E+02  0.16015315977E+02  0.66307843996E+02  0.80081203289E+02  0.00000000000E+00 0.  1.
<mgrwt>
<rscale>  0 0.89806428E+02</rscale>
<asrwt>0</asrwt>
<pdfrwt beam="1">  1        4 0.22608106E-01 0.89806428E+02</pdfrwt>
<pdfrwt beam="2">  1       -4 0.21108820E-02 0.89806428E+02</pdfrwt>
<totfact> 0.24107622E+04</totfact>
</mgrwt>
</event>
<event>
 5    1  0.3921687E+001  0.8561524E+02  0.7546771E-02  0.1313831E+00
         -1   -1    0    0    0  501 -0.00000000000E+00  0.00000000000E+00  0.22214150351E+01  0.22214150351E+01  0.00000000000E+00 0.  1.
          1   -1    0    0  501    0  0.00000000000E+00 -0.00000000000E+00 -0.82492126836E+03  0.82492126836E+03  0.00000000000E+00 0. -1.
         23    2    1    2    0    0  0.00000000000E+00  0.00000000000E+00 -0.82269985333E+03  0.82714268340E+03  0.85615244165E+02 0.  0.
          2    1    3    3  502    0 -0.29094250059E+02 -0.15760915605E+02 -0.14896255723E+03  0.15259333309E+03  0.00000000000E+00 0.  1.
         -2    1    3    3    0  502  0.29094250059E+02  0.15760915605E+02 -0.67373729609E+03  0.67454935030E+03  0.00000000000E+00 0. -1.
<mgrwt>
<rscale>  0 0.85615244E+02</rscale>
<asrwt>0</asrwt>
<pdfrwt beam="2">  1        1 0.12691104E+00 0.85615244E+02</pdfrwt>
<pdfrwt beam="1">  1       -1 0.34175596E-03 0.85615244E+02</pdfrwt>
<totfact> 0.16629491E+05</totfact>
</mgrwt>
</event>
<event>
 5    1  0.3921687E+001  0.9515203E+02  0.7546771E-02  0.1290834E+00
          2   -1    0    0  501    0  0.00000000000E+00  0.00000000000E+00  0.44175243512E+03  0.44175243512E+03  0.00000000000E+00 0. -1.
         -2   -1    0    0    0  501 -0.00000000000E+00 -0.00000000000E+00 -0.51238586590E+01  0.51238586590E+01  0.00000000000E+00 0.  1.
         23    2    1    2    0    0  0.00000000000E+00  0.00000000000E+00  0.43662857646E+03  0.44687629378E+03  0.95152026564E+02 0.  0.
          2    1    3    3  502    0  0.98393709514E+01 -0.46460538099E+02  0.20496264952E+03  0.21039268647E+03  0.00000000000E+00 0. -1.
         -2    1    3    3    0  502 -0.98393709514E+01  0.46460538099E+02  0.23166592694E+03  0.23648360731E+03  0.00000000000E+00 0.  1.
<mgrwt>
<rscale>  0 0.95152027E+02</rscale>
<asrwt>0</asrwt>
<pdfrwt beam="1">  1        2 0.67961883E-01 0.95152027E+02</pdfrwt>
<pdfrwt beam="2">  1       -2 0.78828629E-03 0.95152027E+02</pdfrwt>
<totfact> 0.18455182E+05</totfact>
</mgrwt>
</event>
<event>
 5    1  0.3921687E+001  0.9251688E+02  0.7546771E-02  0.1296869E+00
          1   -1    0    0  501    0  0.00000000000E+00  0.00000000000E+00  0.16207927477E+03  0.16207927477E+03  0.00000000000E+00 0. -1.
         -1   -1    0    0    0  501 -0.00000000000E+00 -0.00000000000E+00 -0.13202448841E+02  0.13202448841E+02  0.00000000000E+00 0.  1.
         23    2    1    2    0    0  0.00000000000E+00  0.00000000000E+00  0.14887682593E+03  0.17528172361E+03  0.92516881345E+02 0.  0.
          2    1    3    3  502    0 -0.19743486179E+02 -0.32088536056E+02  0.12528849209E+03  0.13083075190E+03  0.00000000000E+00 0. -1.
         -2    1    3    3    0  502  0.19743486179E+02  0.32088536056E+02  0.23588333838E+02  0.44450971710E+02  0.00000000000E+00 0.  1.
<mgrwt>
<rscale>  0 0.92516881E+02</rscale>
<asrwt>0</asrwt>
<pdfrwt beam="1">  1        1 0.24935272E-01 0.92516881E+02</pdfrwt>
<pdfrwt beam="2">  1       -1 0.20311461E-02 0.92516881E+02</pdfrwt>
<totfact> 0.10936347E+05</totfact>
</mgrwt>
</event>
<event>
 5    1  0.3921687E+001  0.9365905E+02  0.7546771E-02  0.1294225E+00
         -2   -1    0    0    0  501 -0.00000000000E+00  0.00000000000E+00  0.16338376726E+02  0.16338376726E+02  0.00000000000E+00 0.  1.
          2   -1    0    0  501    0  0.00000000000E+00 -0.00000000000E+00 -0.13422412139E+03  0.13422412139E+03  0.00000000000E+00 0. -1.
         23    2    1    2    0    0  0.00000000000E+00  0.00000000000E+00 -0.11788574466E+03  0.15056249811E+03  0.93659046779E+02 0.  0.
          2    1    3    3  502    0  0.17017461906E+02  0.35901435234E+02 -0.98792753658E+02  0.10648246446E+03  0.00000000000E+00 0. -1.
         -2    1    3    3    0  502 -0.17017461906E+02 -0.35901435234E+02 -0.19092991003E+02  0.44080033655E+02  0.00000000000E+00 0.  1.
<mgrwt>
<rscale>  0 0.93659047E+02</rscale>
<asrwt>0</asrwt>
<pdfrwt beam="2">  1        2 0.20649866E-01 0.93659047E+02</pdfrwt>
<pdfrwt beam="1">  1       -2 0.25135962E-02 0.93659047E+02</pdfrwt>
<totfact> 0.12516630E+05</totfact>
</mgrwt>
</event>
<event>
 5    1  0.3921687E+001  0.9053363E+02  0.7546771E-02  0.1301565E+00
          1   -1    0    0  501    0  0.00000000000E+00  0.00000000000E+00  0.39802530809E+03  0.39802530809E+03  0.00000000000E+00 0. -1.
         -1   -1    0    0    0  501 -0.00000000000E+00 -0.00000000000E+00 -0.51481258944E+01  0.51481258944E+01  0.00000000000E+00 0.  1.
         23    2    1    2    0    0  0.00000000000E+00  0.00000000000E+00  0.39287718220E+03  0.40317343399E+03  0.90533626797E+02 0.  0.
          2    1    3    3  502    0 -0.21872496733E+02  0.17144059114E+02  0.35556290398E+03  0.35664730976E+03  0.00000000000E+00 0. -1.
         -2    1    3    3    0  502  0.21872496733E+02 -0.17144059114E+02  0.37314278222E+02  0.46526124226E+02  0.00000000000E+00 0.  1.
<mgrwt>
<rscale>  0 0.90533627E+02</rscale>
<asrwt>0</asrwt>
<pdfrwt beam="1">  1        1 0.61234639E-01 0.90533627E+02</pdfrwt>
<pdfrwt beam="2">  1       -1 0.79201968E-03 0.90533627E+02</pdfrwt>
<totfact> 0.13733815E+05</totfact>
</mgrwt>
</event>
<event>
 5    1  0.3921687E+001  0.9040167E+02  0.7546771E-02  0.1301882E+00
         -4   -1    0    0    0  501 -0.00000000000E+00  0.00000000000E+00  0.31276291536E+02  0.31276291536E+02  0.00000000000E+00 0.  1.
          4   -1    0    0  501    0  0.00000000000E+00 -0.00000000000E+00 -0.65324732909E+02  0.65324732909E+02  0.00000000000E+00 0. -1.
         23    2    1    2    0    0  0.00000000000E+00  0.00000000000E+00 -0.34048441373E+02  0.96601024445E+02  0.90401667927E+02 0.  0.
          2    1    3    3  502    0 -0.19375776043E+02  0.27427028402E+02 -0.49355528252E+02  0.59696153588E+02  0.00000000000E+00 0. -1.
         -2    1    3    3    0  502  0.19375776043E+02 -0.27427028402E+02  0.15307086879E+02  0.36904870857E+02  0.00000000000E+00 0.  1.
<mgrwt>
<rscale>  0 0.90401668E+02</rscale>
<asrwt>0</asrwt>
<pdfrwt beam="2">  1        4 0.10049959E-01 0.90401668E+02</pdfrwt>
<pdfrwt beam="1">  1       -4 0.48117373E-02 0.90401668E+02</pdfrwt>
<totfact> 0.27293913E+04</totfact>
</mgrwt>
</event>
<event>
 5    1  0.3921687E+001  0.9027252E+02  0.7546771E-02  0.1302193E+00
         -2   -1    0    0    0  501 -0.00000000000E+00  0.00000000000E+00  0.30800629952E+02  0.30800629952E+02  0.00000000000E+00 0. -1.
          2   -1    0    0  501    0  0.00000000000E+00 -0.00000000000E+00 -0.66144165500E+02  0.66144165500E+02  0.00000000000E+00 0.  1.
         23    2    1    2    0    0  0.00000000000E+00  0.00000000000E+00 -0.35343535548E+02  0.96944795451E+02  0.90272519961E+02 0.  0.
          2    1    3    3  502    0  0.40340083291E+02  0.11900666846E+02 -0.80116719182E-01  0.42058942094E+02  0.00000000000E+00 0. -1.
         -2    1    3    3    0  502 -0.40340083291E+02 -0.11900666846E+02 -0.35263418829E+02  0.54885853358E+02  0.00000000000E+00 0.  1.
<mgrwt>
<rscale>  0 0.90272520E+02</rscale>
<asrwt>0</asrwt>
<pdfrwt beam="2">  1        2 0.10176025E-01 0.90272520E+02</pdfrwt>
<pdfrwt beam="1">  1       -2 0.47385585E-02 0.90272520E+02</pdfrwt>
<totfact> 0.11199168E+05</totfact>
</mgrwt>
</event>
<event>
 5    1  0.3921687E+001  0.9008807E+02  0.7546771E-02  0.1302639E+00
         -2   -1    0    0    0  501 -0.00000000000E+00  0.00000000000E+00  0.19154358666E+01  0.19154358666E+01  0.00000000000E+00 0.  1.
          2   -1    0    0  501    0  0.00000000000E+00 -0.00000000000E+00 -0.10592706625E+04  0.10592706625E+04  0.00000000000E+00 0. -1.
         23    2    1    2    0    0  0.00000000000E+00  0.00000000000E+00 -0.10573552266E+04  0.10611860984E+04  0.90088068452E+02 0.  0.
          2    1    3    3  502    0  0.23979675031E+02  0.32712665298E+02 -0.75945277189E+03  0.76053511162E+03  0.00000000000E+00 0. -1.
         -2    1    3    3    0  502 -0.23979675031E+02 -0.32712665298E+02 -0.29790245473E+03  0.30065098673E+03  0.00000000000E+00 0.  1.
<mgrwt>
<rscale>  0 0.90088068E+02</rscale>
<asrwt>0</asrwt>
<pdfrwt beam="2">  1        2 0.16296486E+00 0.90088068E+02</pdfrwt>
<pdfrwt beam="1">  1       -2 0.29468219E-03 0.90088068E+02</pdfrwt>
<totfact> 0.25837229E+05</totfact>
</mgrwt>
</event>
<event>
 5    1  0.3921687E+001  0.8999249E+02  0.7546771E-02  0.1302870E+00
          1   -1    0    0  501    0  0.00000000000E+00  0.00000000000E+00  0.53446861638E+02  0.53446861638E+02  0.00000000000E+00 0.  1.
         -1   -1    0    0    0  501 -0.00000000000E+00 -0.00000000000E+00 -0.37881779756E+02  0.37881779756E+02  0.00000000000E+00 0. -1.
         23    2    1    2    0    0  0.00000000000E+00  0.00000000000E+00  0.15565081882E+02  0.91328641395E+02  0.89992493937E+02 0.  0.
          2    1    3    3  502    0  0.12273329330E+02  0.33907735995E+02 -0.19529733899E+02  0.41009507182E+02  0.00000000000E+00 0. -1.
         -2    1    3    3    0  502 -0.12273329330E+02 -0.33907735995E+02  0.35094815782E+02  0.50319134212E+02  0.00000000000E+00 0.  1.
<mgrwt>
<rscale>  0 0.89992494E+02</rscale>
<asrwt>0</asrwt>
<pdfrwt beam="1">  1        1 0.82225942E-02 0.89992494E+02</pdfrwt>
<pdfrwt beam="2">  1       -1 0.58279661E-02 0.89992494E+02</pdfrwt>
<totfact> 0.98214875E+04</totfact>
</mgrwt>
</event>
<event>
 5    1  0.3921687E+001  0.9143144E+02  0.7546771E-02  0.1299422E+00
          2   -1    0    0  501    0  0.00000000000E+00  0.00000000000E+00  0.16429630971E+04  0.16429630971E+04  0.00000000000E+00 0.  1.
         -2   -1    0    0    0  501 -0.00000000000E+00 -0.00000000000E+00 -0.12720475362E+01  0.12720475362E+01  0.00000000000E+00 0. -1.
         23    2    1    2    0    0  0.00000000000E+00  0.00000000000E+00  0.16416910495E+04  0.16442351446E+04  0.91431442287E+02 0.  0.
          2    1    3    3  502    0 -0.37689467838E+02 -0.24189957665E+02  0.98593645104E+03  0.98695305639E+03  0.00000000000E+00 0.  1.
         -2    1    3    3    0  502  0.37689467838E+02  0.24189957665E+02  0.65575459849E+03  0.65728208821E+03  0.00000000000E+00 0. -1.
<mgrwt>
<rscale>  0 0.91431442E+02</rscale>
<asrwt>0</asrwt>
<pdfrwt beam="1">  1        2 0.25276186E+00 0.91431442E+02</pdfrwt>
<pdfrwt beam="2">  1       -2 0.19570094E-03 0.91431442E+02</pdfrwt>
<totfact> 0.22486430E+05</totfact>
</mgrwt>
</event>
<event>
 5    1  0.3921687E+001  0.9100680E+02  0.7546771E-02  0.1300432E+00
          2   -1    0    0  501    0  0.00000000000E+00  0.00000000000E+00  0.15335614757E+01  0.15335614757E+01  0.00000000000E+00 0. -1.
         -2   -1    0    0    0  501 -0.00000000000E+00 -0.00000000000E+00 -0.13501640855E+04  0.13501640855E+04  0.00000000000E+00 0.  1.
         23    2    1    2    0    0  0.00000000000E+00  0.00000000000E+00 -0.13486305240E+04  0.13516976470E+04  0.91006804745E+02 0.  0.
          2    1    3    3  502    0 -0.38823395207E+02  0.12112610989E+02 -0.37116412019E+03  0.37338555875E+03  0.00000000000E+00 0. -1.
         -2    1    3    3    0  502  0.38823395207E+02 -0.12112610989E+02 -0.97746640383E+03  0.97831208823E+03  0.00000000000E+00 0.  1.
<mgrwt>
<rscale>  0 0.91006805E+02</rscale>
<asrwt>0</asrwt>
<pdfrwt beam="1">  1        2 0.23593269E-03 0.91006805E+02</pdfrwt>
<pdfrwt beam="2">  1       -2 0.20771741E+00 0.91006805E+02</pdfrwt>
<totfact> 0.12617409E+04</totfact>
</mgrwt>
</event>
<event>
 5    1  0.3921687E+001  0.9821420E+02  0.7546771E-02  0.1284097E+00
          3   -1    0    0  501    0  0.00000000000E+00  0.00000000000E+00  0.71942729372E+03  0.71942729372E+03  0.00000000000E+00 0. -1.
         -3   -1    0    0    0  501 -0.00000000000E+00 -0.00000000000E+00 -0.33519820970E+01  0.33519820970E+01  0.00000000000E+00 0.  1.
         23    2    1    2    0    0  0.00000000000E+00  0.00000000000E+00  0.71607531162E+03  0.72277927581E+03  0.98214202815E+02 0.  0.
          2    1    3    3  502    0  0.23561003587E+02 -0.11079636068E+02  0.66445219959E+03  0.66496210776E+03  0.00000000000E+00 0. -1.
         -2    1    3    3    0  502 -0.23561003587E+02  0.11079636068E+02  0.51623112034E+02  0.57817168051E+02  0.00000000000E+00 0.  1.
<mgrwt>
<rscale>  0 0.98214203E+02</rscale>
<asrwt>0</asrwt>
<pdfrwt beam="1">  1        3 0.11068100E+00 0.98214203E+02</pdfrwt>
<pdfrwt beam="2">  1       -3 0.51569013E-03 0.98214203E+02</pdfrwt>
<totfact> 0.11109490E+04</totfact>
</mgrwt>
</event>
<event>
 5    1  0.3921687E+001  0.8870326E+02  0.7546771E-02  0.1306023E+00
         -2   -1    0    0    0  501 -0.00000000000E+00  0.00000000000E+00  0.24482299474E+03  0.24482299474E+03  0.00000000000E+00 0.  1.
          2   -1    0    0  501    0  0.00000000000E+00 -0.00000000000E+00 -0.80346500576E+01  0.80346500576E+01  0.00000000000E+00 0. -1.
         23    2    1    2    0    0  0.00000000000E+00  0.00000000000E+00  0.23678834469E+03  0.25285764480E+03  0.88703260117E+02 0.  0.
          2    1    3    3  502    0  0.26704138076E+02 -0.37661052612E+01  0.18023342506E+02  0.32436636914E+02  0.00000000000E+00 0. -1.
         -2    1    3    3    0  502 -0.26704138076E+02  0.37661052612E+01  0.21876500218E+03  0.22042100789E+03  0.00000000000E+00 0.  1.
<mgrwt>
<rscale>  0 0.88703260E+02</rscale>
<asrwt>0</asrwt>
<pdfrwt beam="2">  1        2 0.12361002E-02 0.88703260E+02</pdfrwt>
<pdfrwt beam="1">  1       -2 0.37665071E-01 0.88703260E+02</pdfrwt>
<totfact> 0.60907335E+04</totfact>
</mgrwt>
</event>
<event>
 5    1  0.3921687E+001  0.9262939E+02  0.7546771E-02  0.1296606E+00
          2   -1    0    0  501    0  0.00000000000E+00  0.00000000000E+00  0.17098946793E+03  0.17098946793E+03  0.00000000000E+00 0. -1.
         -2   -1    0    0    0  501 -0.00000000000E+00 -0.00000000000E+00 -0.12544929113E+02  0.12544929113E+02  0.00000000000E+00 0.  1.
         23    2    1    2    0    0  0.00000000000E+00  0.00000000000E+00  0.15844453882E+03  0.18353439704E+03  0.92629385277E+02 0.  0.
          2    1    3    3  502    0 -0.43610646547E+02 -0.70967631150E+01  0.10673414456E+03  0.11551809449E+03  0.00000000000E+00 0. -1.
         -2    1    3    3    0  502  0.43610646547E+02  0.70967631150E+01  0.51710394252E+02  0.68016302551E+02  0.00000000000E+00 0.  1.
<mgrwt>
<rscale>  0 0.92629385E+02</rscale>
<asrwt>0</asrwt>
<pdfrwt beam="1">  1        2 0.26306070E-01 0.92629385E+02</pdfrwt>
<pdfrwt beam="2">  1       -2 0.19299892E-02 0.92629385E+02</pdfrwt>
<totfact> 0.14014574E+05</totfact>
</mgrwt>
</event>
<event>
 5    1  0.3921687E+001  0.9092542E+02  0.7546771E-02  0.1300626E+00
         -2   -1    0    0    0  501 -0.00000000000E+00  0.00000000000E+00  0.12948492158E+01  0.12948492158E+01  0.00000000000E+00 0.  1.
          2   -1    0    0  501    0  0.00000000000E+00 -0.00000000000E+00 -0.15962151764E+04  0.15962151764E+04  0.00000000000E+00 0. -1.
         23    2    1    2    0    0  0.00000000000E+00  0.00000000000E+00 -0.15949203272E+04  0.15975100256E+04  0.90925419313E+02 0.  0.
          2    1    3    3  502    0  0.42347499272E+02  0.10638064995E+02 -0.57495923671E+03  0.57661477869E+03  0.00000000000E+00 0. -1.
         -2    1    3    3    0  502 -0.42347499272E+02 -0.10638064995E+02 -0.10199610904E+04  0.10208952469E+04  0.00000000000E+00 0.  1.
<mgrwt>
<rscale>  0 0.90925419E+02</rscale>
<asrwt>0</asrwt>
<pdfrwt beam="2">  1        2 0.24557046E+00 0.90925419E+02</pdfrwt>
<pdfrwt beam="1">  1       -2 0.19920847E-03 0.90925419E+02</pdfrwt>
<totfact> 0.23148370E+05</totfact>
</mgrwt>
</event>
<event>
 5    1  0.3921687E+001  0.9687572E+02  0.7546771E-02  0.1287007E+00
          1   -1    0    0  501    0  0.00000000000E+00  0.00000000000E+00  0.17651801974E+02  0.17651801974E+02  0.00000000000E+00 0. -1.
         -1   -1    0    0    0  501 -0.00000000000E+00 -0.00000000000E+00 -0.13291710717E+03  0.13291710717E+03  0.00000000000E+00 0.  1.
         23    2    1    2    0    0  0.00000000000E+00  0.00000000000E+00 -0.11526530520E+03  0.15056890915E+03  0.96875723579E+02 0.  0.
          2    1    3    3  502    0 -0.52861762967E+01 -0.44244636975E+02 -0.87150884602E+02  0.97881603214E+02  0.00000000000E+00 0. -1.
         -2    1    3    3    0  502  0.52861762967E+01  0.44244636975E+02 -0.28114420597E+02  0.52687305932E+02  0.00000000000E+00 0.  1.
<mgrwt>
<rscale>  0 0.96875724E+02</rscale>
<asrwt>0</asrwt>
<pdfrwt beam="1">  1        1 0.27156618E-02 0.96875724E+02</pdfrwt>
<pdfrwt beam="2">  1       -1 0.20448786E-01 0.96875724E+02</pdfrwt>
<totfact> 0.65665232E+04</totfact>
</mgrwt>
</event>
<event>
 5    1  0.3921687E+001  0.9217234E+02  0.7546771E-02  0.1297675E+00
          1   -1    0    0  501    0  0.00000000000E+00  0.00000000000E+00  0.43581494278E+03  0.43581494278E+03  0.00000000000E+00 0. -1.
         -1   -1    0    0    0  501 -0.00000000000E+00 -0.00000000000E+00 -0.48734788282E+01  0.48734788282E+01  0.00000000000E+00 0.  1.
         23    2    1    2    0    0  0.00000000000E+00  0.00000000000E+00  0.43094146395E+03  0.44068842161E+03  0.92172336342E+02 0.  0.
          2    1    3    3  502    0 -0.27857438026E+02  0.26411590851E+02  0.93544662508E+02  0.10111484989E+03  0.00000000000E+00 0.  1.
         -2    1    3    3    0  502  0.27857438026E+02 -0.26411590851E+02  0.33739680144E+03  0.33957357172E+03  0.00000000000E+00 0. -1.
<mgrwt>
<rscale>  0 0.92172336E+02</rscale>
<asrwt>0</asrwt>
<pdfrwt beam="1">  1        1 0.67048422E-01 0.92172336E+02</pdfrwt>
<pdfrwt beam="2">  1       -1 0.74976632E-03 0.92172336E+02</pdfrwt>
<totfact> 0.13283012E+05</totfact>
</mgrwt>
</event>
<event>
 5    1  0.3921687E+001  0.9291171E+02  0.7546771E-02  0.1295950E+00
         -1   -1    0    0    0  501 -0.00000000000E+00  0.00000000000E+00  0.85689598507E+01  0.85689598507E+01  0.00000000000E+00 0.  1.
          1   -1    0    0  501    0  0.00000000000E+00 -0.00000000000E+00 -0.25185628563E+03  0.25185628563E+03  0.00000000000E+00 0. -1.
         23    2    1    2    0    0  0.00000000000E+00  0.00000000000E+00 -0.24328732578E+03  0.26042524549E+03  0.92911708621E+02 0.  0.
          2    1    3    3  502    0 -0.55927230731E+01 -0.35804854705E+02 -0.20311600643E+03  0.20632347961E+03  0.00000000000E+00 0. -1.
         -2    1    3    3    0  502  0.55927230731E+01  0.35804854705E+02 -0.40171319355E+02  0.54101765873E+02  0.00000000000E+00 0.  1.
<mgrwt>
<rscale>  0 0.92911709E+02</rscale>
<asrwt>0</asrwt>
<pdfrwt beam="2">  1        1 0.38747124E-01 0.92911709E+02</pdfrwt>
<pdfrwt beam="1">  1       -1 0.13183014E-02 0.92911709E+02</pdfrwt>
<totfact> 0.11775710E+05</totfact>
</mgrwt>
</event>
<event>
 5    1  0.3921687E+001  0.9068615E+02  0.7546771E-02  0.1301199E+00
          2   -1    0    0  501    0  0.00000000000E+00  0.00000000000E+00  0.12996783149E+04  0.12996783149E+04  0.00000000000E+00 0. -1.
         -2   -1    0    0    0  501 -0.00000000000E+00 -0.00000000000E+00 -0.15819257673E+01  0.15819257673E+01  0.00000000000E+00 0.  1.
         23    2    1    2    0    0  0.00000000000E+00  0.00000000000E+00  0.12980963891E+04  0.13012602407E+04  0.90686153641E+02 0.  0.
          2    1    3    3  502    0  0.98595075295E+01  0.42882751485E+02  0.49195763667E+03  0.49392150848E+03  0.00000000000E+00 0.  1.
         -2    1    3    3    0  502 -0.98595075295E+01 -0.42882751485E+02  0.80613875247E+03  0.80733873219E+03  0.00000000000E+00 0. -1.
<mgrwt>
<rscale>  0 0.90686154E+02</rscale>
<asrwt>0</asrwt>
<pdfrwt beam="1">  1        2 0.19994966E+00 0.90686154E+02</pdfrwt>
<pdfrwt beam="2">  1       -2 0.24337423E-03 0.90686154E+02</pdfrwt>
<totfact> 0.24922186E+05</totfact>
</mgrwt>
</event>
<event>
 5    1  0.3921687E+001  0.8954502E+02  0.7546771E-02  0.1303957E+00
         -2   -1    0    0    0  501 -0.00000000000E+00  0.00000000000E+00  0.11438222112E+01  0.11438222112E+01  0.00000000000E+00 0.  1.
          2   -1    0    0  501    0  0.00000000000E+00 -0.00000000000E+00 -0.17525253789E+04  0.17525253789E+04  0.00000000000E+00 0. -1.
         23    2    1    2    0    0  0.00000000000E+00  0.00000000000E+00 -0.17513815567E+04  0.17536692011E+04  0.89545015586E+02 0.  0.
          2    1    3    3  502    0 -0.40976334378E+02 -0.37144686946E+01 -0.52991964805E+03  0.53151452534E+03  0.00000000000E+00 0.  1.
         -2    1    3    3    0  502  0.40976334378E+02  0.37144686946E+01 -0.12214619087E+04  0.12221546758E+04  0.00000000000E+00 0. -1.
<mgrwt>
<rscale>  0 0.89545016E+02</rscale>
<asrwt>0</asrwt>
<pdfrwt beam="2">  1        2 0.26961784E+00 0.89545016E+02</pdfrwt>
<pdfrwt beam="1">  1       -2 0.17597359E-03 0.89545016E+02</pdfrwt>
<totfact> 0.22883278E+05</totfact>
</mgrwt>
</event>
<event>
 5    1  0.3921687E+001  0.9141741E+02  0.7546771E-02  0.1299455E+00
          2   -1    0    0  501    0  0.00000000000E+00  0.00000000000E+00  0.37363072727E+03  0.37363072727E+03  0.00000000000E+00 0. -1.
         -2   -1    0    0    0  501 -0.00000000000E+00 -0.00000000000E+00 -0.55918462201E+01  0.55918462201E+01  0.00000000000E+00 0.  1.
         23    2    1    2    0    0  0.00000000000E+00  0.00000000000E+00  0.36803888105E+03  0.37922257349E+03  0.91417406877E+02 0.  0.
          2    1    3    3  502    0  0.29446269632E+02  0.28550503614E+02  0.26771465788E+03  0.27083823972E+03  0.00000000000E+00 0. -1.
         -2    1    3    3    0  502 -0.29446269632E+02 -0.28550503614E+02  0.10032422317E+03  0.10838433377E+03  0.00000000000E+00 0.  1.
<mgrwt>
<rscale>  0 0.91417407E+02</rscale>
<asrwt>0</asrwt>
<pdfrwt beam="1">  1        2 0.57481631E-01 0.91417407E+02</pdfrwt>
<pdfrwt beam="2">  1       -2 0.86028433E-03 0.91417407E+02</pdfrwt>
<totfact> 0.19341380E+05</totfact>
</mgrwt>
</event>
<event>
 5    1  0.3921687E+001  0.8899221E+02  0.7546771E-02  0.1305311E+00
         -3   -1    0    0    0  501 -0.00000000000E+00  0.00000000000E+00  0.24307750384E+03  0.24307750384E+03  0.00000000000E+00 0.  1.
          3   -1    0    0  501    0  0.00000000000E+00 -0.00000000000E+00 -0.81451528497E+01  0.81451528497E+01  0.00000000000E+00 0. -1.
         23    2    1    2    0    0  0.00000000000E+00  0.00000000000E+00  0.23493235099E+03  0.25122265669E+03  0.88992211414E+02 0.  0.
          2    1    3    3  502    0 -0.99946654012E+01  0.36177199805E+02  0.49996499919E+02  0.62516662790E+02  0.00000000000E+00 0. -1.
         -2    1    3    3    0  502  0.99946654012E+01 -0.36177199805E+02  0.18493585107E+03  0.18870599390E+03  0.00000000000E+00 0.  1.
<mgrwt>
<rscale>  0 0.88992211E+02</rscale>
<asrwt>0</asrwt>
<pdfrwt beam="2">  1        3 0.12531006E-02 0.88992211E+02</pdfrwt>
<pdfrwt beam="1">  1       -3 0.37396533E-01 0.88992211E+02</pdfrwt>
<totfact> 0.27795980E+04</totfact>
</mgrwt>
</event>
<event>
 5    1  0.3921687E+001  0.7650867E+02  0.7546771E-02  0.1339262E+00
         -2   -1    0    0    0  501 -0.00000000000E+00  0.00000000000E+00  0.68794304166E+00  0.68794304166E+00  0.00000000000E+00 0.  1.
          2   -1    0    0  501    0  0.00000000000E+00 -0.00000000000E+00 -0.21272022340E+04  0.21272022340E+04  0.00000000000E+00 0. -1.
         23    2    1    2    0    0  0.00000000000E+00  0.00000000000E+00 -0.21265142909E+04  0.21278901770E+04  0.76508665524E+02 0.  0.
          2    1    3    3  502    0 -0.29330210242E+02 -0.22458630647E+02 -0.78688709646E+03  0.78775373938E+03  0.00000000000E+00 0.  1.
         -2    1    3    3    0  502  0.29330210242E+02  0.22458630647E+02 -0.13396271945E+04  0.13401364376E+04  0.00000000000E+00 0. -1.
<mgrwt>
<rscale>  0 0.76508666E+02</rscale>
<asrwt>0</asrwt>
<pdfrwt beam="2">  1        2 0.32725820E+00 0.76508666E+02</pdfrwt>
<pdfrwt beam="1">  1       -2 0.10583858E-03 0.76508666E+02</pdfrwt>
<totfact> 0.29294605E+05</totfact>
</mgrwt>
</event>
<event>
 5    1  0.3921687E+001  0.9123698E+02  0.7546771E-02  0.1299884E+00
         -2   -1    0    0    0  501 -0.00000000000E+00  0.00000000000E+00  0.14081298065E+01  0.14081298065E+01  0.00000000000E+00 0. -1.
          2   -1    0    0  501    0  0.00000000000E+00 -0.00000000000E+00 -0.14778798239E+04  0.14778798239E+04  0.00000000000E+00 0.  1.
         23    2    1    2    0    0  0.00000000000E+00  0.00000000000E+00 -0.14764716941E+04  0.14792879537E+04  0.91236980013E+02 0.  0.
          2    1    3    3  502    0  0.16064036851E+02  0.31589890530E+02 -0.27251273851E+03  0.27480750920E+03  0.00000000000E+00 0. -1.
         -2    1    3    3    0  502 -0.16064036851E+02 -0.31589890530E+02 -0.12039589556E+04  0.12044804445E+04  0.00000000000E+00 0.  1.
<mgrwt>
<rscale>  0 0.91236980E+02</rscale>
<asrwt>0</asrwt>
<pdfrwt beam="2">  1        2 0.22736723E+00 0.91236980E+02</pdfrwt>
<pdfrwt beam="1">  1       -2 0.21663430E-03 0.91236980E+02</pdfrwt>
<totfact> 0.23684492E+05</totfact>
</mgrwt>
</event>
<event>
 5    1  0.3921687E+001  0.8772902E+02  0.7546771E-02  0.1308446E+00
         -1   -1    0    0    0  501 -0.00000000000E+00  0.00000000000E+00  0.39473867664E+03  0.39473867664E+03  0.00000000000E+00 0.  1.
          1   -1    0    0  501    0  0.00000000000E+00 -0.00000000000E+00 -0.48743520324E+01  0.48743520324E+01  0.00000000000E+00 0. -1.
         23    2    1    2    0    0  0.00000000000E+00  0.00000000000E+00  0.38986432461E+03  0.39961302867E+03  0.87729020758E+02 0.  0.
          2    1    3    3  502    0 -0.11121546419E+01 -0.42786543307E+02  0.15120096437E+03  0.15714215476E+03  0.00000000000E+00 0. -1.
         -2    1    3    3    0  502  0.11121546419E+01  0.42786543307E+02  0.23866336024E+03  0.24247087392E+03  0.00000000000E+00 0.  1.
<mgrwt>
<rscale>  0 0.87729021E+02</rscale>
<asrwt>0</asrwt>
<pdfrwt beam="2">  1        1 0.74990062E-03 0.87729021E+02</pdfrwt>
<pdfrwt beam="1">  1       -1 0.60729002E-01 0.87729021E+02</pdfrwt>
<totfact> 0.59334751E+04</totfact>
</mgrwt>
</event>
<event>
 5    1  0.3921687E+001  0.9136070E+02  0.7546771E-02  0.1299590E+00
          1   -1    0    0  501    0  0.00000000000E+00  0.00000000000E+00  0.14299240276E+04  0.14299240276E+04  0.00000000000E+00 0. -1.
         -1   -1    0    0    0  501 -0.00000000000E+00 -0.00000000000E+00 -0.14593042110E+01  0.14593042110E+01  0.00000000000E+00 0.  1.
         23    2    1    2    0    0  0.00000000000E+00  0.00000000000E+00  0.14284647234E+04  0.14313833318E+04  0.91360695158E+02 0.  0.
          2    1    3    3  502    0  0.24438196050E+02 -0.12854184442E+02  0.12843699749E+04  0.12846667614E+04  0.00000000000E+00 0. -1.
         -2    1    3    3    0  502 -0.24438196050E+02  0.12854184442E+02  0.14409474848E+03  0.14671657037E+03  0.00000000000E+00 0.  1.
<mgrwt>
<rscale>  0 0.91360695E+02</rscale>
<asrwt>0</asrwt>
<pdfrwt beam="1">  1        1 0.21998719E+00 0.91360695E+02</pdfrwt>
<pdfrwt beam="2">  1       -1 0.22450948E-03 0.91360695E+02</pdfrwt>
<totfact> 0.11407607E+05</totfact>
</mgrwt>
</event>
<event>
 5    1  0.3921687E+001  0.9322573E+02  0.7546771E-02  0.1295223E+00
         -2   -1    0    0    0  501 -0.00000000000E+00  0.00000000000E+00  0.12068791233E+02  0.12068791233E+02  0.00000000000E+00 0.  1.
          2   -1    0    0  501    0  0.00000000000E+00 -0.00000000000E+00 -0.18003121924E+03  0.18003121924E+03  0.00000000000E+00 0. -1.
         23    2    1    2    0    0  0.00000000000E+00  0.00000000000E+00 -0.16796242801E+03  0.19210001048E+03  0.93225730365E+02 0.  0.
          2    1    3    3  502    0 -0.45129814716E+02  0.10319147273E+02 -0.72775274559E+02  0.86252104693E+02  0.00000000000E+00 0. -1.
         -2    1    3    3    0  502  0.45129814716E+02 -0.10319147273E+02 -0.95187153452E+02  0.10584790578E+03  0.00000000000E+00 0.  1.
<mgrwt>
<rscale>  0 0.93225730E+02</rscale>
<asrwt>0</asrwt>
<pdfrwt beam="2">  1        2 0.27697113E-01 0.93225730E+02</pdfrwt>
<pdfrwt beam="1">  1       -2 0.18567370E-02 0.93225730E+02</pdfrwt>
<totfact> 0.14026385E+05</totfact>
</mgrwt>
</event>
<event>
 5    1  0.3921687E+001  0.9050442E+02  0.7546771E-02  0.1301635E+00
          1   -1    0    0  501    0  0.00000000000E+00  0.00000000000E+00  0.10924185688E+04  0.10924185688E+04  0.00000000000E+00 0. -1.
         -1   -1    0    0    0  501 -0.00000000000E+00 -0.00000000000E+00 -0.18745218076E+01  0.18745218076E+01  0.00000000000E+00 0.  1.
         23    2    1    2    0    0  0.00000000000E+00  0.00000000000E+00  0.10905440470E+04  0.10942930906E+04  0.90504418239E+02 0.  0.
          2    1    3    3  502    0 -0.66314240633E+01  0.26523809212E+02  0.98126686106E+03  0.98164766635E+03  0.00000000000E+00 0. -1.
         -2    1    3    3    0  502  0.66314240633E+01 -0.26523809212E+02  0.10927718591E+03  0.11264542423E+03  0.00000000000E+00 0.  1.
<mgrwt>
<rscale>  0 0.90504418E+02</rscale>
<asrwt>0</asrwt>
<pdfrwt beam="1">  1        1 0.16806389E+00 0.90504418E+02</pdfrwt>
<pdfrwt beam="2">  1       -1 0.28838884E-03 0.90504418E+02</pdfrwt>
<totfact> 0.13494589E+05</totfact>
</mgrwt>
</event>
<event>
 5    1  0.3921687E+001  0.9638431E+02  0.7546771E-02  0.1288088E+00
         -1   -1    0    0    0  501 -0.00000000000E+00  0.00000000000E+00  0.25019518547E+02  0.25019518547E+02  0.00000000000E+00 0.  1.
          1   -1    0    0  501    0  0.00000000000E+00 -0.00000000000E+00 -0.92826874185E+02  0.92826874185E+02  0.00000000000E+00 0. -1.
         23    2    1    2    0    0  0.00000000000E+00  0.00000000000E+00 -0.67807355638E+02  0.11784639273E+03  0.96384307858E+02 0.  0.
          2    1    3    3  502    0  0.30392969630E+02  0.37395624242E+02 -0.34593577975E+02  0.59320156376E+02  0.00000000000E+00 0.  1.
         -2    1    3    3    0  502 -0.30392969630E+02 -0.37395624242E+02 -0.33213777663E+02  0.58526236356E+02  0.00000000000E+00 0. -1.
<mgrwt>
<rscale>  0 0.96384308E+02</rscale>
<asrwt>0</asrwt>
<pdfrwt beam="2">  1        1 0.14281057E-01 0.96384308E+02</pdfrwt>
<pdfrwt beam="1">  1       -1 0.38491567E-02 0.96384308E+02</pdfrwt>
<totfact> 0.88591462E+04</totfact>
</mgrwt>
</event>
<event>
 5    1  0.3921687E+001  0.9016627E+02  0.7546771E-02  0.1302450E+00
         -1   -1    0    0    0  501 -0.00000000000E+00  0.00000000000E+00  0.17435536712E+01  0.17435536712E+01  0.00000000000E+00 0.  1.
          1   -1    0    0  501    0  0.00000000000E+00 -0.00000000000E+00 -0.11657163383E+04  0.11657163383E+04  0.00000000000E+00 0. -1.
         23    2    1    2    0    0  0.00000000000E+00  0.00000000000E+00 -0.11639727846E+04  0.11674598920E+04  0.90166268666E+02 0.  0.
          2    1    3    3  502    0 -0.28490502879E+02 -0.32426244405E+02 -0.75046727044E+03  0.75170758549E+03  0.00000000000E+00 0. -1.
         -2    1    3    3    0  502  0.28490502879E+02  0.32426244405E+02 -0.41350551419E+03  0.41575230648E+03  0.00000000000E+00 0.  1.
<mgrwt>
<rscale>  0 0.90166269E+02</rscale>
<asrwt>0</asrwt>
<pdfrwt beam="2">  1        1 0.17934142E+00 0.90166269E+02</pdfrwt>
<pdfrwt beam="1">  1       -1 0.26823836E-03 0.90166269E+02</pdfrwt>
<totfact> 0.13283678E+05</totfact>
</mgrwt>
</event>
<event>
 5    1  0.3921687E+001  0.9088350E+02  0.7546771E-02  0.1300726E+00
         -1   -1    0    0    0  501 -0.00000000000E+00  0.00000000000E+00  0.12803948045E+01  0.12803948045E+01  0.00000000000E+00 0.  1.
          1   -1    0    0  501    0  0.00000000000E+00 -0.00000000000E+00 -0.16127469680E+04  0.16127469680E+04  0.00000000000E+00 0. -1.
         23    2    1    2    0    0  0.00000000000E+00  0.00000000000E+00 -0.16114665732E+04  0.16140273628E+04  0.90883504305E+02 0.  0.
          2    1    3    3  502    0  0.29136643072E+02 -0.15137787719E+02 -0.24783789084E+03  0.25000343342E+03  0.00000000000E+00 0. -1.
         -2    1    3    3    0  502 -0.29136643072E+02  0.15137787719E+02 -0.13636286823E+04  0.13640239293E+04  0.00000000000E+00 0.  1.
<mgrwt>
<rscale>  0 0.90883504E+02</rscale>
<asrwt>0</asrwt>
<pdfrwt beam="2">  1        1 0.24811467E+00 0.90883504E+02</pdfrwt>
<pdfrwt beam="1">  1       -1 0.19698401E-03 0.90883504E+02</pdfrwt>
<totfact> 0.10450319E+05</totfact>
</mgrwt>
</event>
<event>
 5    1  0.3921687E+001  0.9012879E+02  0.7546771E-02  0.1302540E+00
         -4   -1    0    0    0  501 -0.00000000000E+00  0.00000000000E+00  0.21362877044E+02  0.21362877044E+02  0.00000000000E+00 0.  1.
          4   -1    0    0  501    0  0.00000000000E+00 -0.00000000000E+00 -0.95062087360E+02  0.95062087360E+02  0.00000000000E+00 0. -1.
         23    2    1    2    0    0  0.00000000000E+00  0.00000000000E+00 -0.73699210315E+02  0.11642496440E+03  0.90128789714E+02 0.  0.
          2    1    3    3  502    0 -0.39148973328E+02 -0.37789916607E+01 -0.84344539444E+01  0.40225152628E+02  0.00000000000E+00 0.  1.
         -2    1    3    3    0  502  0.39148973328E+02  0.37789916607E+01 -0.65264756371E+02  0.76199811776E+02  0.00000000000E+00 0. -1.
<mgrwt>
<rscale>  0 0.90128790E+02</rscale>
<asrwt>0</asrwt>
<pdfrwt beam="2">  1        4 0.14624936E-01 0.90128790E+02</pdfrwt>
<pdfrwt beam="1">  1       -4 0.32865965E-02 0.90128790E+02</pdfrwt>
<totfact> 0.26283867E+04</totfact>
</mgrwt>
</event>
<event>
 5    1  0.3921687E+001  0.9198716E+02  0.7546771E-02  0.1298110E+00
         -1   -1    0    0    0  501 -0.00000000000E+00  0.00000000000E+00  0.29673598273E+01  0.29673598273E+01  0.00000000000E+00 0.  1.
          1   -1    0    0  501    0  0.00000000000E+00 -0.00000000000E+00 -0.71289284843E+03  0.71289284843E+03  0.00000000000E+00 0. -1.
         23    2    1    2    0    0  0.00000000000E+00  0.00000000000E+00 -0.70992548860E+03  0.71586020826E+03  0.91987164313E+02 0.  0.
          2    1    3    3  502    0  0.21736597138E+02 -0.35010924498E+02 -0.19601477609E+03  0.20029986753E+03  0.00000000000E+00 0.  1.
         -2    1    3    3    0  502 -0.21736597138E+02  0.35010924498E+02 -0.51391071252E+03  0.51556034073E+03  0.00000000000E+00 0. -1.
<mgrwt>
<rscale>  0 0.91987164E+02</rscale>
<asrwt>0</asrwt>
<pdfrwt beam="2">  1        1 0.10967579E+00 0.91987164E+02</pdfrwt>
<pdfrwt beam="1">  1       -1 0.45651705E-03 0.91987164E+02</pdfrwt>
<totfact> 0.13884999E+05</totfact>
</mgrwt>
</event>
<event>
 5    1  0.3921687E+001  0.9054109E+02  0.7546771E-02  0.1301547E+00
          2   -1    0    0  501    0  0.00000000000E+00  0.00000000000E+00  0.83118358089E+03  0.83118358089E+03  0.00000000000E+00 0. -1.
         -2   -1    0    0    0  501 -0.00000000000E+00 -0.00000000000E+00 -0.24656673375E+01  0.24656673375E+01  0.00000000000E+00 0.  1.
         23    2    1    2    0    0  0.00000000000E+00  0.00000000000E+00  0.82871791355E+03  0.83364924822E+03  0.90541089166E+02 0.  0.
          2    1    3    3  502    0  0.20296075735E+02 -0.29201980639E+02  0.67228749284E+03  0.67322742026E+03  0.00000000000E+00 0. -1.
         -2    1    3    3    0  502 -0.20296075735E+02  0.29201980639E+02  0.15643042071E+03  0.16042182796E+03  0.00000000000E+00 0.  1.
<mgrwt>
<rscale>  0 0.90541089E+02</rscale>
<asrwt>0</asrwt>
<pdfrwt beam="1">  1        2 0.12787417E+00 0.90541089E+02</pdfrwt>
<pdfrwt beam="2">  1       -2 0.37933410E-03 0.90541089E+02</pdfrwt>
<totfact> 0.24985558E+05</totfact>
</mgrwt>
</event>
<event>
 4    1  0.3921687E+001  0.4609122E+02  0.7546771E-02  0.1467642E+00
          1   -1    0    0  501    0  0.00000000000E+00  0.00000000000E+00  0.34318040022E+03  0.34318040022E+03  0.00000000000E+00 0. -1.
         -1   -1    0    0    0  501 -0.00000000000E+00 -0.00000000000E+00 -0.15475829624E+01  0.15475829624E+01  0.00000000000E+00 0.  1.
          2    1    1    2  502    0 -0.18047692026E+02  0.12297801455E+02  0.22585124042E+03  0.22690468904E+03  0.00000000000E+00 0. -1.
         -2    1    1    2    0  502  0.18047692026E+02 -0.12297801455E+02  0.11578157684E+03  0.11782329415E+03  0.00000000000E+00 0.  1.
<mgrwt>
<rscale>  0 0.46091220E+02</rscale>
<asrwt>0</asrwt>
<pdfrwt beam="1">  1        1 0.52796924E-01 0.46091220E+02</pdfrwt>
<pdfrwt beam="2">  1       -1 0.23808996E-03 0.46091220E+02</pdfrwt>
<totfact> 0.75562513E+05</totfact>
</mgrwt>
</event>
<event>
 5    1  0.3921687E+001  0.9087348E+02  0.7546771E-02  0.1300750E+00
         -1   -1    0    0    0  501 -0.00000000000E+00  0.00000000000E+00  0.40892967469E+01  0.40892967469E+01  0.00000000000E+00 0.  1.
          1   -1    0    0  501    0  0.00000000000E+00 -0.00000000000E+00 -0.50485387748E+03  0.50485387748E+03  0.00000000000E+00 0. -1.
         23    2    1    2    0    0  0.00000000000E+00  0.00000000000E+00 -0.50076458073E+03  0.50894317423E+03  0.90873479494E+02 0.  0.
          2    1    3    3  502    0  0.32003450596E+02  0.18314292552E+02 -0.39907324244E+03  0.40077311161E+03  0.00000000000E+00 0. -1.
         -2    1    3    3    0  502 -0.32003450596E+02 -0.18314292552E+02 -0.10169133830E+03  0.10817006261E+03  0.00000000000E+00 0.  1.
<mgrwt>
<rscale>  0 0.90873479E+02</rscale>
<asrwt>0</asrwt>
<pdfrwt beam="2">  1        1 0.77669840E-01 0.90873479E+02</pdfrwt>
<pdfrwt beam="1">  1       -1 0.62912247E-03 0.90873479E+02</pdfrwt>
<totfact> 0.14065868E+05</totfact>
</mgrwt>
</event>
<event>
 5    1  0.3921687E+001  0.9263475E+02  0.7546771E-02  0.1296594E+00
          1   -1    0    0  501    0  0.00000000000E+00  0.00000000000E+00  0.50670599182E+01  0.50670599182E+01  0.00000000000E+00 0. -1.
         -1   -1    0    0    0  501 -0.00000000000E+00 -0.00000000000E+00 -0.42338142068E+03  0.42338142068E+03  0.00000000000E+00 0.  1.
         23    2    1    2    0    0  0.00000000000E+00  0.00000000000E+00 -0.41831436076E+03  0.42844848060E+03  0.92634745681E+02 0.  0.
          2    1    3    3  502    0  0.32758785211E+02  0.15981262934E+02 -0.76975280105E+02  0.85168847126E+02  0.00000000000E+00 0. -1.
         -2    1    3    3    0  502 -0.32758785211E+02 -0.15981262934E+02 -0.34133908066E+03  0.34327963347E+03  0.00000000000E+00 0.  1.
<mgrwt>
<rscale>  0 0.92634746E+02</rscale>
<asrwt>0</asrwt>
<pdfrwt beam="1">  1        1 0.77954792E-03 0.92634746E+02</pdfrwt>
<pdfrwt beam="2">  1       -1 0.65135583E-01 0.92634746E+02</pdfrwt>
<totfact> 0.49634977E+04</totfact>
</mgrwt>
</event>
<event>
 5    1  0.3921687E+001  0.9351747E+02  0.7546771E-02  0.1294550E+00
         -2   -1    0    0    0  501 -0.00000000000E+00  0.00000000000E+00  0.29605526906E+01  0.29605526906E+01  0.00000000000E+00 0.  1.
          2   -1    0    0  501    0  0.00000000000E+00 -0.00000000000E+00 -0.73850383779E+03  0.73850383779E+03  0.00000000000E+00 0. -1.
         23    2    1    2    0    0  0.00000000000E+00  0.00000000000E+00 -0.73554328510E+03  0.74146439048E+03  0.93517474816E+02 0.  0.
          2    1    3    3  502    0  0.34054913322E+02 -0.13502043815E+02 -0.13738595633E+03  0.14218629788E+03  0.00000000000E+00 0.  1.
         -2    1    3    3    0  502 -0.34054913322E+02  0.13502043815E+02 -0.59815732877E+03  0.59927809260E+03  0.00000000000E+00 0. -1.
<mgrwt>
<rscale>  0 0.93517475E+02</rscale>
<asrwt>0</asrwt>
<pdfrwt beam="2">  1        2 0.11361608E+00 0.93517475E+02</pdfrwt>
<pdfrwt beam="1">  1       -2 0.45546922E-03 0.93517475E+02</pdfrwt>
<totfact> 0.22444819E+05</totfact>
</mgrwt>
</event>
<event>
 5    1  0.3921687E+001  0.8973321E+02  0.7546771E-02  0.1303499E+00
          4   -1    0    0  501    0  0.00000000000E+00  0.00000000000E+00  0.25440477755E+01  0.25440477755E+01  0.00000000000E+00 0. -1.
         -4   -1    0    0    0  501 -0.00000000000E+00 -0.00000000000E+00 -0.79126346514E+03  0.79126346514E+03  0.00000000000E+00 0.  1.
         23    2    1    2    0    0  0.00000000000E+00  0.00000000000E+00 -0.78871941737E+03  0.79380751292E+03  0.89733205857E+02 0.  0.
          2    1    3    3  502    0 -0.79066445476E+01  0.23101287053E+02 -0.61377890642E+02  0.66056263527E+02  0.00000000000E+00 0. -1.
         -2    1    3    3    0  502  0.79066445476E+01 -0.23101287053E+02 -0.72734152672E+03  0.72775124939E+03  0.00000000000E+00 0.  1.
<mgrwt>
<rscale>  0 0.89733206E+02</rscale>
<asrwt>0</asrwt>
<pdfrwt beam="1">  1        4 0.39139207E-03 0.89733206E+02</pdfrwt>
<pdfrwt beam="2">  1       -4 0.12173281E+00 0.89733206E+02</pdfrwt>
<totfact> 0.93560236E+03</totfact>
</mgrwt>
</event>
<event>
 5    1  0.3921687E+001  0.9177021E+02  0.7546771E-02  0.1298621E+00
          2   -1    0    0  501    0  0.00000000000E+00  0.00000000000E+00  0.18093202464E+03  0.18093202464E+03  0.00000000000E+00 0. -1.
         -2   -1    0    0    0  501 -0.00000000000E+00 -0.00000000000E+00 -0.11636650092E+02  0.11636650092E+02  0.00000000000E+00 0.  1.
         23    2    1    2    0    0  0.00000000000E+00  0.00000000000E+00  0.16929537455E+03  0.19256867473E+03  0.91770205649E+02 0.  0.
          2    1    3    3  502    0 -0.21123250905E+02  0.73560850984E+01  0.16871753342E+03  0.17019374195E+03  0.00000000000E+00 0. -1.
         -2    1    3    3    0  502  0.21123250905E+02 -0.73560850984E+01  0.57784113488E+00  0.22374932785E+02  0.00000000000E+00 0.  1.
<mgrwt>
<rscale>  0 0.91770206E+02</rscale>
<asrwt>0</asrwt>
<pdfrwt beam="1">  1        2 0.27835694E-01 0.91770206E+02</pdfrwt>
<pdfrwt beam="2">  1       -2 0.17902540E-02 0.91770206E+02</pdfrwt>
<totfact> 0.14662683E+05</totfact>
</mgrwt>
</event>
<event>
 5    1  0.3921687E+001  0.8717774E+02  0.7546771E-02  0.1309834E+00
          2   -1    0    0  501    0  0.00000000000E+00  0.00000000000E+00  0.11777566253E+04  0.11777566253E+04  0.00000000000E+00 0. -1.
         -2   -1    0    0    0  501 -0.00000000000E+00 -0.00000000000E+00 -0.16132277201E+01  0.16132277201E+01  0.00000000000E+00 0.  1.
         23    2    1    2    0    0  0.00000000000E+00  0.00000000000E+00  0.11761433976E+04  0.11793698531E+04  0.87177741093E+02 0.  0.
          2    1    3    3  502    0  0.22758193514E+02  0.58494726175E+01  0.10847363463E+04  0.10849908261E+04  0.00000000000E+00 0. -1.
         -2    1    3    3    0  502 -0.22758193514E+02 -0.58494726175E+01  0.91407051315E+02  0.94379026971E+02  0.00000000000E+00 0.  1.
<mgrwt>
<rscale>  0 0.87177741E+02</rscale>
<asrwt>0</asrwt>
<pdfrwt beam="1">  1        2 0.18119264E+00 0.87177741E+02</pdfrwt>
<pdfrwt beam="2">  1       -2 0.24818982E-03 0.87177741E+02</pdfrwt>
<totfact> 0.28031324E+05</totfact>
</mgrwt>
</event>
<event>
 5    1  0.3921687E+001  0.9325678E+02  0.7546771E-02  0.1295151E+00
         -2   -1    0    0    0  501 -0.00000000000E+00  0.00000000000E+00  0.69150819321E+02  0.69150819321E+02  0.00000000000E+00 0.  1.
          2   -1    0    0  501    0  0.00000000000E+00 -0.00000000000E+00 -0.31441520929E+02  0.31441520929E+02  0.00000000000E+00 0. -1.
         23    2    1    2    0    0  0.00000000000E+00  0.00000000000E+00  0.37709298392E+02  0.10059234025E+03  0.93256783837E+02 0.  0.
          2    1    3    3  502    0 -0.35382113058E+02 -0.29102054518E+02  0.94893333373E+01  0.46785371098E+02  0.00000000000E+00 0. -1.
         -2    1    3    3    0  502  0.35382113058E+02  0.29102054518E+02  0.28219965055E+02  0.53806969152E+02  0.00000000000E+00 0.  1.
<mgrwt>
<rscale>  0 0.93256784E+02</rscale>
<asrwt>0</asrwt>
<pdfrwt beam="2">  1        2 0.48371571E-02 0.93256784E+02</pdfrwt>
<pdfrwt beam="1">  1       -2 0.10638588E-01 0.93256784E+02</pdfrwt>
<totfact> 0.83780148E+04</totfact>
</mgrwt>
</event>
<event>
 5    1  0.3921687E+001  0.9086222E+02  0.7546771E-02  0.1300777E+00
         -2   -1    0    0    0  501 -0.00000000000E+00  0.00000000000E+00  0.40599875771E+02  0.40599875771E+02  0.00000000000E+00 0.  1.
          2   -1    0    0  501    0  0.00000000000E+00 -0.00000000000E+00 -0.50837241979E+02  0.50837241979E+02  0.00000000000E+00 0. -1.
         23    2    1    2    0    0  0.00000000000E+00  0.00000000000E+00 -0.10237366208E+02  0.91437117750E+02  0.90862218967E+02 0.  0.
          2    1    3    3  502    0 -0.15381966421E+02 -0.42672718123E+02 -0.76684758108E+01  0.46004035521E+02  0.00000000000E+00 0. -1.
         -2    1    3    3    0  502  0.15381966421E+02  0.42672718123E+02 -0.25688903969E+01  0.45433082229E+02  0.00000000000E+00 0.  1.
<mgrwt>
<rscale>  0 0.90862219E+02</rscale>
<asrwt>0</asrwt>
<pdfrwt beam="2">  1        2 0.78211141E-02 0.90862219E+02</pdfrwt>
<pdfrwt beam="1">  1       -2 0.62461348E-02 0.90862219E+02</pdfrwt>
<totfact> 0.10252174E+05</totfact>
</mgrwt>
</event>
<event>
 5    1  0.3921687E+001  0.9074031E+02  0.7546771E-02  0.1301069E+00
         -2   -1    0    0    0  501 -0.00000000000E+00  0.00000000000E+00  0.28367734533E+01  0.28367734533E+01  0.00000000000E+00 0.  1.
          2   -1    0    0  501    0  0.00000000000E+00 -0.00000000000E+00 -0.72563103802E+03  0.72563103802E+03  0.00000000000E+00 0. -1.
         23    2    1    2    0    0  0.00000000000E+00  0.00000000000E+00 -0.72279426456E+03  0.72846781147E+03  0.90740307813E+02 0.  0.
          2    1    3    3  502    0 -0.30901147722E+02 -0.14998794845E+02 -0.59935891976E+03  0.60034236855E+03  0.00000000000E+00 0. -1.
         -2    1    3    3    0  502  0.30901147722E+02  0.14998794845E+02 -0.12343534481E+03  0.12812544292E+03  0.00000000000E+00 0.  1.
<mgrwt>
<rscale>  0 0.90740308E+02</rscale>
<asrwt>0</asrwt>
<pdfrwt beam="2">  1        2 0.11163556E+00 0.90740308E+02</pdfrwt>
<pdfrwt beam="1">  1       -2 0.43642661E-03 0.90740308E+02</pdfrwt>
<totfact> 0.24212186E+05</totfact>
</mgrwt>
</event>
<event>
 5    1  0.3921687E+001  0.9290376E+02  0.7546771E-02  0.1295968E+00
         -1   -1    0    0    0  501 -0.00000000000E+00  0.00000000000E+00  0.11564736142E+03  0.11564736142E+03  0.00000000000E+00 0.  1.
          1   -1    0    0  501    0  0.00000000000E+00 -0.00000000000E+00 -0.18658248551E+02  0.18658248551E+02  0.00000000000E+00 0. -1.
         23    2    1    2    0    0  0.00000000000E+00  0.00000000000E+00  0.96989112865E+02  0.13430560997E+03  0.92903761248E+02 0.  0.
          2    1    3    3  502    0  0.18875632202E+02  0.28986265193E+02  0.36730191282E+01  0.34784826151E+02  0.00000000000E+00 0. -1.
         -2    1    3    3    0  502 -0.18875632202E+02 -0.28986265193E+02  0.93316093736E+02  0.99520783815E+02  0.00000000000E+00 0.  1.
<mgrwt>
<rscale>  0 0.92903761E+02</rscale>
<asrwt>0</asrwt>
<pdfrwt beam="2">  1        1 0.28704998E-02 0.92903761E+02</pdfrwt>
<pdfrwt beam="1">  1       -1 0.17791901E-01 0.92903761E+02</pdfrwt>
<totfact> 0.75371967E+04</totfact>
</mgrwt>
</event>
<event>
 5    1  0.3921687E+001  0.9129311E+02  0.7546771E-02  0.1299750E+00
         -3   -1    0    0    0  501 -0.00000000000E+00  0.00000000000E+00  0.12831818467E+04  0.12831818467E+04  0.00000000000E+00 0.  1.
          3   -1    0    0  501    0  0.00000000000E+00 -0.00000000000E+00 -0.16237822808E+01  0.16237822808E+01  0.00000000000E+00 0. -1.
         23    2    1    2    0    0  0.00000000000E+00  0.00000000000E+00  0.12815580644E+04  0.12848056290E+04  0.91293109176E+02 0.  0.
          2    1    3    3  502    0 -0.30339226342E+01 -0.41884181283E+02  0.38897951165E+03  0.39123976001E+03  0.00000000000E+00 0. -1.
         -2    1    3    3    0  502  0.30339226342E+01  0.41884181283E+02  0.89257855278E+03  0.89356586899E+03  0.00000000000E+00 0.  1.
<mgrwt>
<rscale>  0 0.91293109E+02</rscale>
<asrwt>0</asrwt>
<pdfrwt beam="2">  1        3 0.24981368E-03 0.91293109E+02</pdfrwt>
<pdfrwt beam="1">  1       -3 0.19741178E+00 0.91293109E+02</pdfrwt>
<totfact> 0.74682831E+03</totfact>
</mgrwt>
</event>
<event>
 5    1  0.3921687E+001  0.9166303E+02  0.7546771E-02  0.1298874E+00
          2   -1    0    0  501    0  0.00000000000E+00  0.00000000000E+00  0.57902204945E+02  0.57902204945E+02  0.00000000000E+00 0. -1.
         -2   -1    0    0    0  501 -0.00000000000E+00 -0.00000000000E+00 -0.36277165118E+02  0.36277165118E+02  0.00000000000E+00 0.  1.
         23    2    1    2    0    0  0.00000000000E+00  0.00000000000E+00  0.21625039828E+02  0.94179370063E+02  0.91663031795E+02 0.  0.
          2    1    3    3  502    0  0.25576702761E+02 -0.24302869699E+02  0.40868445536E+02  0.53990990362E+02  0.00000000000E+00 0. -1.
         -2    1    3    3    0  502 -0.25576702761E+02  0.24302869699E+02 -0.19243405709E+02  0.40188379701E+02  0.00000000000E+00 0.  1.
<mgrwt>
<rscale>  0 0.91663032E+02</rscale>
<asrwt>0</asrwt>
<pdfrwt beam="1">  1        2 0.89080316E-02 0.91663032E+02</pdfrwt>
<pdfrwt beam="2">  1       -2 0.55811023E-02 0.91663032E+02</pdfrwt>
<totfact> 0.10349476E+05</totfact>
</mgrwt>
</event>
<event>
 5    1  0.3921687E+001  0.9144173E+02  0.7546771E-02  0.1299397E+00
         -3   -1    0    0    0  501 -0.00000000000E+00  0.00000000000E+00  0.30074292029E+02  0.30074292029E+02  0.00000000000E+00 0.  1.
          3   -1    0    0  501    0  0.00000000000E+00 -0.00000000000E+00 -0.69507793458E+02  0.69507793458E+02  0.00000000000E+00 0. -1.
         23    2    1    2    0    0  0.00000000000E+00  0.00000000000E+00 -0.39433501429E+02  0.99582085488E+02  0.91441733990E+02 0.  0.
          2    1    3    3  502    0 -0.18872072811E+02 -0.35947362373E+02  0.31794003726E+01  0.40724397853E+02  0.00000000000E+00 0.  1.
         -2    1    3    3    0  502  0.18872072811E+02  0.35947362373E+02 -0.42612901802E+02  0.58857687635E+02  0.00000000000E+00 0. -1.
<mgrwt>
<rscale>  0 0.91441734E+02</rscale>
<asrwt>0</asrwt>
<pdfrwt beam="2">  1        3 0.10693507E-01 0.91441734E+02</pdfrwt>
<pdfrwt beam="1">  1       -3 0.46268141E-02 0.91441734E+02</pdfrwt>
<totfact> 0.34428552E+04</totfact>
</mgrwt>
</event>
<event>
 5    1  0.3921687E+001  0.8525134E+02  0.7546771E-02  0.1314777E+00
         -2   -1    0    0    0  501 -0.00000000000E+00  0.00000000000E+00  0.90942186159E+00  0.90942186159E+00  0.00000000000E+00 0.  1.
          2   -1    0    0  501    0  0.00000000000E+00 -0.00000000000E+00 -0.19979151863E+04  0.19979151863E+04  0.00000000000E+00 0. -1.
         23    2    1    2    0    0  0.00000000000E+00  0.00000000000E+00 -0.19970057645E+04  0.19988246082E+04  0.85251340120E+02 0.  0.
          2    1    3    3  502    0 -0.15994758039E+02  0.18985413952E+02 -0.18109315054E+04  0.18111016524E+04  0.00000000000E+00 0. -1.
         -2    1    3    3    0  502  0.15994758039E+02 -0.18985413952E+02 -0.18607425910E+03  0.18772295578E+03  0.00000000000E+00 0.  1.
<mgrwt>
<rscale>  0 0.85251340E+02</rscale>
<asrwt>0</asrwt>
<pdfrwt beam="2">  1        2 0.30736947E+00 0.85251340E+02</pdfrwt>
<pdfrwt beam="1">  1       -2 0.13991201E-03 0.85251340E+02</pdfrwt>
<totfact> 0.23517695E+05</totfact>
</mgrwt>
</event>
<event>
 5    1  0.3921687E+001  0.9020839E+02  0.7546771E-02  0.1302348E+00
         -2   -1    0    0    0  501 -0.00000000000E+00  0.00000000000E+00  0.36309548421E+03  0.36309548421E+03  0.00000000000E+00 0.  1.
          2   -1    0    0  501    0  0.00000000000E+00 -0.00000000000E+00 -0.56029024948E+01  0.56029024948E+01  0.00000000000E+00 0. -1.
         23    2    1    2    0    0  0.00000000000E+00  0.00000000000E+00  0.35749258171E+03  0.36869838670E+03  0.90208394162E+02 0.  0.
          2    1    3    3  502    0  0.19799973771E+02  0.71538527133E+01  0.15710538211E+02  0.26268566403E+02  0.00000000000E+00 0. -1.
         -2    1    3    3    0  502 -0.19799973771E+02 -0.71538527133E+01  0.34178204350E+03  0.34242982030E+03  0.00000000000E+00 0.  1.
<mgrwt>
<rscale>  0 0.90208394E+02</rscale>
<asrwt>0</asrwt>
<pdfrwt beam="2">  1        2 0.86198528E-03 0.90208394E+02</pdfrwt>
<pdfrwt beam="1">  1       -2 0.55860825E-01 0.90208394E+02</pdfrwt>
<totfact> 0.46762900E+04</totfact>
</mgrwt>
</event>
<event>
 5    1  0.3921687E+001  0.9138100E+02  0.7546771E-02  0.1299541E+00
         -1   -1    0    0    0  501 -0.00000000000E+00  0.00000000000E+00  0.25328395056E+03  0.25328395056E+03  0.00000000000E+00 0.  1.
          1   -1    0    0  501    0  0.00000000000E+00 -0.00000000000E+00 -0.82422195692E+01  0.82422195692E+01  0.00000000000E+00 0. -1.
         23    2    1    2    0    0  0.00000000000E+00  0.00000000000E+00  0.24504173099E+03  0.26152617012E+03  0.91381003142E+02 0.  0.
          2    1    3    3  502    0 -0.16782703359E+02 -0.10906100827E+02  0.49717628176E+01  0.20623302180E+02  0.00000000000E+00 0. -1.
         -2    1    3    3    0  502  0.16782703359E+02  0.10906100827E+02  0.24006996817E+03  0.24090286794E+03  0.00000000000E+00 0.  1.
<mgrwt>
<rscale>  0 0.91381003E+02</rscale>
<asrwt>0</asrwt>
<pdfrwt beam="2">  1        1 0.12680340E-02 0.91381003E+02</pdfrwt>
<pdfrwt beam="1">  1       -1 0.38966756E-01 0.91381003E+02</pdfrwt>
<totfact> 0.64101920E+04</totfact>
</mgrwt>
</event>
<event>
 5    1  0.3921687E+001  0.9410638E+02  0.7546771E-02  0.1293202E+00
         -2   -1    0    0    0  501 -0.00000000000E+00  0.00000000000E+00  0.26472833347E+02  0.26472833347E+02  0.00000000000E+00 0.  1.
          2   -1    0    0  501    0  0.00000000000E+00 -0.00000000000E+00 -0.83633011061E+02  0.83633011061E+02  0.00000000000E+00 0. -1.
         23    2    1    2    0    0  0.00000000000E+00  0.00000000000E+00 -0.57160177714E+02  0.11010584441E+03  0.94106381593E+02 0.  0.
          2    1    3    3  502    0  0.28524960323E+02  0.10591446672E+01 -0.72345637480E+02  0.77773301404E+02  0.00000000000E+00 0. -1.
         -2    1    3    3    0  502 -0.28524960323E+02 -0.10591446672E+01  0.15185459766E+02  0.32332543005E+02  0.00000000000E+00 0.  1.
<mgrwt>
<rscale>  0 0.94106382E+02</rscale>
<asrwt>0</asrwt>
<pdfrwt beam="2">  1        2 0.12866617E-01 0.94106382E+02</pdfrwt>
<pdfrwt beam="1">  1       -2 0.40727437E-02 0.94106382E+02</pdfrwt>
<totfact> 0.10653161E+05</totfact>
</mgrwt>
</event>
<event>
 5    1  0.3921687E+001  0.9098005E+02  0.7546771E-02  0.1300496E+00
          1   -1    0    0  501    0  0.00000000000E+00  0.00000000000E+00  0.16792646941E+02  0.16792646941E+02  0.00000000000E+00 0. -1.
         -1   -1    0    0    0  501 -0.00000000000E+00 -0.00000000000E+00 -0.12322908501E+03  0.12322908501E+03  0.00000000000E+00 0.  1.
         23    2    1    2    0    0  0.00000000000E+00  0.00000000000E+00 -0.10643643806E+03  0.14002173195E+03  0.90980053142E+02 0.  0.
          2    1    3    3  502    0 -0.29098014320E+02 -0.30441276409E+02 -0.79695785852E+02  0.90137583889E+02  0.00000000000E+00 0. -1.
         -2    1    3    3    0  502  0.29098014320E+02  0.30441276409E+02 -0.26740652213E+02  0.49884148059E+02  0.00000000000E+00 0.  1.
<mgrwt>
<rscale>  0 0.90980053E+02</rscale>
<asrwt>0</asrwt>
<pdfrwt beam="1">  1        1 0.25834841E-02 0.90980053E+02</pdfrwt>
<pdfrwt beam="2">  1       -1 0.18958321E-01 0.90980053E+02</pdfrwt>
<totfact> 0.78539838E+04</totfact>
</mgrwt>
</event>
<event>
 5    1  0.3921687E+001  0.8927145E+02  0.7546771E-02  0.1304626E+00
          2   -1    0    0  501    0  0.00000000000E+00  0.00000000000E+00  0.31504938739E+03  0.31504938739E+03  0.00000000000E+00 0. -1.
         -2   -1    0    0    0  501 -0.00000000000E+00 -0.00000000000E+00 -0.63239222403E+01  0.63239222403E+01  0.00000000000E+00 0.  1.
         23    2    1    2    0    0  0.00000000000E+00  0.00000000000E+00  0.30872546515E+03  0.32137330963E+03  0.89271447344E+02 0.  0.
          2    1    3    3  502    0  0.33172557608E+02  0.22280953655E+02  0.22595466396E+03  0.22946104166E+03  0.00000000000E+00 0. -1.
         -2    1    3    3    0  502 -0.33172557608E+02 -0.22280953655E+02  0.82770801193E+02  0.91912267974E+02  0.00000000000E+00 0.  1.
<mgrwt>
<rscale>  0 0.89271447E+02</rscale>
<asrwt>0</asrwt>
<pdfrwt beam="1">  1        2 0.48469124E-01 0.89271447E+02</pdfrwt>
<pdfrwt beam="2">  1       -2 0.97291136E-03 0.89271447E+02</pdfrwt>
<totfact> 0.19353665E+05</totfact>
</mgrwt>
</event>
<event>
 5    1  0.3921687E+001  0.8927895E+02  0.7546771E-02  0.1304607E+00
          2   -1    0    0  501    0  0.00000000000E+00  0.00000000000E+00  0.64736787191E+03  0.64736787191E+03  0.00000000000E+00 0. -1.
         -2   -1    0    0    0  501 -0.00000000000E+00 -0.00000000000E+00 -0.30781304659E+01  0.30781304659E+01  0.00000000000E+00 0.  1.
         23    2    1    2    0    0  0.00000000000E+00  0.00000000000E+00  0.64428974144E+03  0.65044600237E+03  0.89278950915E+02 0.  0.
          2    1    3    3  502    0 -0.16828875926E+02 -0.36332390875E+02  0.46591754745E+03  0.46763491605E+03  0.00000000000E+00 0. -1.
         -2    1    3    3    0  502  0.16828875926E+02  0.36332390875E+02  0.17837219399E+03  0.18281108632E+03  0.00000000000E+00 0.  1.
<mgrwt>
<rscale>  0 0.89278951E+02</rscale>
<asrwt>0</asrwt>
<pdfrwt beam="1">  1        2 0.99594949E-01 0.89278951E+02</pdfrwt>
<pdfrwt beam="2">  1       -2 0.47355905E-03 0.89278951E+02</pdfrwt>
<totfact> 0.24587175E+05</totfact>
</mgrwt>
</event>
<event>
 5    1  0.3921687E+001  0.9333263E+02  0.7546771E-02  0.1294976E+00
          1   -1    0    0  501    0  0.00000000000E+00  0.00000000000E+00  0.11008373837E+04  0.11008373837E+04  0.00000000000E+00 0. -1.
         -1   -1    0    0    0  501 -0.00000000000E+00 -0.00000000000E+00 -0.19782623447E+01  0.19782623447E+01  0.00000000000E+00 0.  1.
         23    2    1    2    0    0  0.00000000000E+00  0.00000000000E+00  0.10988591213E+04  0.11028156460E+04  0.93332634030E+02 0.  0.
          2    1    3    3  502    0 -0.26547015885E+02  0.31622863357E+02  0.80640874643E+03  0.80746505550E+03  0.00000000000E+00 0. -1.
         -2    1    3    3    0  502  0.26547015885E+02 -0.31622863357E+02  0.29245037489E+03  0.29535059051E+03  0.00000000000E+00 0.  1.
<mgrwt>
<rscale>  0 0.93332634E+02</rscale>
<asrwt>0</asrwt>
<pdfrwt beam="1">  1        1 0.16935911E+00 0.93332634E+02</pdfrwt>
<pdfrwt beam="2">  1       -1 0.30434893E-03 0.93332634E+02</pdfrwt>
<totfact> 0.12405043E+05</totfact>
</mgrwt>
</event>
<event>
 5    1  0.3921687E+001  0.9007233E+02  0.7546771E-02  0.1302677E+00
          1   -1    0    0  501    0  0.00000000000E+00  0.00000000000E+00  0.28918053129E+03  0.28918053129E+03  0.00000000000E+00 0. -1.
         -1   -1    0    0    0  501 -0.00000000000E+00 -0.00000000000E+00 -0.70138060672E+01  0.70138060672E+01  0.00000000000E+00 0.  1.
         23    2    1    2    0    0  0.00000000000E+00  0.00000000000E+00  0.28216672522E+03  0.29619433736E+03  0.90072330155E+02 0.  0.
          2    1    3    3  502    0  0.28105651478E+02 -0.26994137740E+02  0.66846560155E+02  0.77376183169E+02  0.00000000000E+00 0. -1.
         -2    1    3    3    0  502 -0.28105651478E+02  0.26994137740E+02  0.21532016507E+03  0.21881815419E+03  0.00000000000E+00 0.  1.
<mgrwt>
<rscale>  0 0.90072330E+02</rscale>
<asrwt>0</asrwt>
<pdfrwt beam="1">  1        1 0.44489303E-01 0.90072330E+02</pdfrwt>
<pdfrwt beam="2">  1       -1 0.10790473E-02 0.90072330E+02</pdfrwt>
<totfact> 0.13142021E+05</totfact>
</mgrwt>
</event>
<event>
 5    1  0.3921687E+001  0.9191475E+02  0.7546771E-02  0.1298280E+00
          2   -1    0    0  501    0  0.00000000000E+00  0.00000000000E+00  0.66227411982E+02  0.66227411982E+02  0.00000000000E+00 0. -1.
         -2   -1    0    0    0  501 -0.00000000000E+00 -0.00000000000E+00 -0.31891330170E+02  0.31891330170E+02  0.00000000000E+00 0.  1.
         23    2    1    2    0    0  0.00000000000E+00  0.00000000000E+00  0.34336081812E+02  0.98118742152E+02  0.91914748801E+02 0.  0.
          2    1    3    3  502    0  0.11992763339E+02  0.36566643965E+02  0.43986122433E+02  0.58444202364E+02  0.00000000000E+00 0. -1.
         -2    1    3    3    0  502 -0.11992763339E+02 -0.36566643965E+02 -0.96500406208E+01  0.39674539787E+02  0.00000000000E+00 0.  1.
<mgrwt>
<rscale>  0 0.91914749E+02</rscale>
<asrwt>0</asrwt>
<pdfrwt beam="1">  1        2 0.10188833E-01 0.91914749E+02</pdfrwt>
<pdfrwt beam="2">  1       -2 0.49063585E-02 0.91914749E+02</pdfrwt>
<totfact> 0.10650490E+05</totfact>
</mgrwt>
</event>
<event>
 5    1  0.3921687E+001  0.8937978E+02  0.7546771E-02  0.1304361E+00
          2   -1    0    0  501    0  0.00000000000E+00  0.00000000000E+00  0.17341209665E+04  0.17341209665E+04  0.00000000000E+00 0. -1.
         -2   -1    0    0    0  501 -0.00000000000E+00 -0.00000000000E+00 -0.11516994429E+01  0.11516994429E+01  0.00000000000E+00 0.  1.
         23    2    1    2    0    0  0.00000000000E+00  0.00000000000E+00  0.17329692670E+04  0.17352726659E+04  0.89379777376E+02 0.  0.
          2    1    3    3  502    0 -0.24524154265E+02 -0.33707082692E+02  0.11792854706E+04  0.11800219586E+04  0.00000000000E+00 0. -1.
         -2    1    3    3    0  502  0.24524154265E+02  0.33707082692E+02  0.55368379639E+03  0.55525070729E+03  0.00000000000E+00 0.  1.
<mgrwt>
<rscale>  0 0.89379777E+02</rscale>
<asrwt>0</asrwt>
<pdfrwt beam="1">  1        2 0.26678575E+00 0.89379777E+02</pdfrwt>
<pdfrwt beam="2">  1       -2 0.17718592E-03 0.89379777E+02</pdfrwt>
<totfact> 0.23148430E+05</totfact>
</mgrwt>
</event>
<event>
 5    1  0.3921687E+001  0.9253807E+02  0.7546771E-02  0.1296819E+00
          4   -1    0    0  501    0  0.00000000000E+00  0.00000000000E+00  0.89558797056E+02  0.89558797056E+02  0.00000000000E+00 0. -1.
         -4   -1    0    0    0  501 -0.00000000000E+00 -0.00000000000E+00 -0.23904112123E+02  0.23904112123E+02  0.00000000000E+00 0.  1.
         23    2    1    2    0    0  0.00000000000E+00  0.00000000000E+00  0.65654684934E+02  0.11346290918E+03  0.92538068413E+02 0.  0.
          2    1    3    3  502    0  0.43992231009E+01  0.34969642753E+02  0.69582251324E+02  0.77999479341E+02  0.00000000000E+00 0. -1.
         -2    1    3    3    0  502 -0.43992231009E+01 -0.34969642753E+02 -0.39275663900E+01  0.35463429838E+02  0.00000000000E+00 0.  1.
<mgrwt>
<rscale>  0 0.92538068E+02</rscale>
<asrwt>0</asrwt>
<pdfrwt beam="1">  1        4 0.13778276E-01 0.92538068E+02</pdfrwt>
<pdfrwt beam="2">  1       -4 0.36775558E-02 0.92538068E+02</pdfrwt>
<totfact> 0.24638497E+04</totfact>
</mgrwt>
</event>
<event>
 5    1  0.3921687E+001  0.9120159E+02  0.7546771E-02  0.1299968E+00
          1   -1    0    0  501    0  0.00000000000E+00  0.00000000000E+00  0.50871480548E+03  0.50871480548E+03  0.00000000000E+00 0. -1.
         -1   -1    0    0    0  501 -0.00000000000E+00 -0.00000000000E+00 -0.40876190309E+01  0.40876190309E+01  0.00000000000E+00 0.  1.
         23    2    1    2    0    0  0.00000000000E+00  0.00000000000E+00  0.50462718645E+03  0.51280242451E+03  0.91201585955E+02 0.  0.
          2    1    3    3  502    0 -0.20775879857E+02 -0.25382386558E+02  0.43043362762E+03  0.43168160780E+03  0.00000000000E+00 0. -1.
         -2    1    3    3    0  502  0.20775879857E+02  0.25382386558E+02  0.74193558827E+02  0.81120816703E+02  0.00000000000E+00 0.  1.
<mgrwt>
<rscale>  0 0.91201586E+02</rscale>
<asrwt>0</asrwt>
<pdfrwt beam="1">  1        1 0.78263766E-01 0.91201586E+02</pdfrwt>
<pdfrwt beam="2">  1       -1 0.62886487E-03 0.91201586E+02</pdfrwt>
<totfact> 0.13944350E+05</totfact>
</mgrwt>
</event>
<event>
 5    1  0.3921687E+001  0.9039825E+02  0.7546771E-02  0.1301890E+00
          1   -1    0    0  501    0  0.00000000000E+00  0.00000000000E+00  0.26094011556E+02  0.26094011556E+02  0.00000000000E+00 0. -1.
         -1   -1    0    0    0  501 -0.00000000000E+00 -0.00000000000E+00 -0.78292330625E+02  0.78292330625E+02  0.00000000000E+00 0.  1.
         23    2    1    2    0    0  0.00000000000E+00  0.00000000000E+00 -0.52198319069E+02  0.10438634218E+03  0.90398251754E+02 0.  0.
          2    1    3    3  502    0  0.11507586724E+02 -0.23355534650E+02  0.16564567436E+02  0.30859203576E+02  0.00000000000E+00 0. -1.
         -2    1    3    3    0  502 -0.11507586724E+02  0.23355534650E+02 -0.68762886505E+02  0.73527138605E+02  0.00000000000E+00 0.  1.
<mgrwt>
<rscale>  0 0.90398252E+02</rscale>
<asrwt>0</asrwt>
<pdfrwt beam="1">  1        1 0.40144634E-02 0.90398252E+02</pdfrwt>
<pdfrwt beam="2">  1       -1 0.12044974E-01 0.90398252E+02</pdfrwt>
<totfact> 0.86841827E+04</totfact>
</mgrwt>
</event>
<event>
 5    1  0.3921687E+001  0.9467257E+02  0.7546771E-02  0.1291915E+00
          2   -1    0    0  501    0  0.00000000000E+00  0.00000000000E+00  0.84438540450E+03  0.84438540450E+03  0.00000000000E+00 0. -1.
         -2   -1    0    0    0  501 -0.00000000000E+00 -0.00000000000E+00 -0.26536740818E+01  0.26536740818E+01  0.00000000000E+00 0.  1.
         23    2    1    2    0    0  0.00000000000E+00  0.00000000000E+00  0.84173173042E+03  0.84703907858E+03  0.94672565466E+02 0.  0.
          2    1    3    3  502    0 -0.16097407068E+02  0.40743168032E+02  0.26041889541E+03  0.26407789256E+03  0.00000000000E+00 0.  1.
         -2    1    3    3    0  502  0.16097407068E+02 -0.40743168032E+02  0.58131283501E+03  0.58296118602E+03  0.00000000000E+00 0. -1.
<mgrwt>
<rscale>  0 0.94672565E+02</rscale>
<asrwt>0</asrwt>
<pdfrwt beam="1">  1        2 0.12990523E+00 0.94672565E+02</pdfrwt>
<pdfrwt beam="2">  1       -2 0.40825822E-03 0.94672565E+02</pdfrwt>
<totfact> 0.22263595E+05</totfact>
</mgrwt>
</event>
<event>
 5    1  0.3921687E+001  0.9088207E+02  0.7546771E-02  0.1300730E+00
         -2   -1    0    0    0  501 -0.00000000000E+00  0.00000000000E+00  0.25928984879E+02  0.25928984879E+02  0.00000000000E+00 0.  1.
          2   -1    0    0  501    0  0.00000000000E+00 -0.00000000000E+00 -0.79636262303E+02  0.79636262303E+02  0.00000000000E+00 0. -1.
         23    2    1    2    0    0  0.00000000000E+00  0.00000000000E+00 -0.53707277423E+02  0.10556524718E+03  0.90882065141E+02 0.  0.
          2    1    3    3  502    0 -0.21216126920E+02  0.28853336960E+02  0.56337727250E+01  0.36254358225E+02  0.00000000000E+00 0.  1.
         -2    1    3    3    0  502  0.21216126920E+02 -0.28853336960E+02 -0.59341050148E+02  0.69310888957E+02  0.00000000000E+00 0. -1.
<mgrwt>
<rscale>  0 0.90882065E+02</rscale>
<asrwt>0</asrwt>
<pdfrwt beam="2">  1        2 0.12251733E-01 0.90882065E+02</pdfrwt>
<pdfrwt beam="1">  1       -2 0.39890746E-02 0.90882065E+02</pdfrwt>
<totfact> 0.11574311E+05</totfact>
</mgrwt>
</event>
<event>
 5    1  0.3921687E+001  0.8578691E+02  0.7546771E-02  0.1313387E+00
          1   -1    0    0  501    0  0.00000000000E+00  0.00000000000E+00  0.20918705646E+02  0.20918705646E+02  0.00000000000E+00 0. -1.
         -1   -1    0    0    0  501 -0.00000000000E+00 -0.00000000000E+00 -0.87952302726E+02  0.87952302726E+02  0.00000000000E+00 0.  1.
         23    2    1    2    0    0  0.00000000000E+00  0.00000000000E+00 -0.67033597080E+02  0.10887100837E+03  0.85786906497E+02 0.  0.
          2    1    3    3  502    0  0.64212586665E+01  0.22016066555E+02 -0.79518491271E+02  0.82759471987E+02  0.00000000000E+00 0.  1.
         -2    1    3    3    0  502 -0.64212586665E+01 -0.22016066555E+02  0.12484894191E+02  0.26111536385E+02  0.00000000000E+00 0. -1.
<mgrwt>
<rscale>  0 0.85786906E+02</rscale>
<asrwt>0</asrwt>
<pdfrwt beam="1">  1        1 0.32182624E-02 0.85786906E+02</pdfrwt>
<pdfrwt beam="2">  1       -1 0.13531123E-01 0.85786906E+02</pdfrwt>
<totfact> 0.97352939E+04</totfact>
</mgrwt>
</event>
<event>
 5    1  0.3921687E+001  0.7998112E+02  0.7546771E-02  0.1329105E+00
          1   -1    0    0  501    0  0.00000000000E+00  0.00000000000E+00  0.16614376933E+04  0.16614376933E+04  0.00000000000E+00 0.  1.
         -1   -1    0    0    0  501 -0.00000000000E+00 -0.00000000000E+00 -0.96256694701E+00  0.96256694701E+00  0.00000000000E+00 0. -1.
         23    2    1    2    0    0  0.00000000000E+00  0.00000000000E+00  0.16604751263E+04  0.16624002602E+04  0.79981122975E+02 0.  0.
          2    1    3    3  502    0  0.21980787309E+02  0.18737819269E+02  0.14051137410E+04  0.14054105756E+04  0.00000000000E+00 0. -1.
         -2    1    3    3    0  502 -0.21980787309E+02 -0.18737819269E+02  0.25536138531E+03  0.25698968460E+03  0.00000000000E+00 0.  1.
<mgrwt>
<rscale>  0 0.79981123E+02</rscale>
<asrwt>0</asrwt>
<pdfrwt beam="1">  1        1 0.25560350E+00 0.79981123E+02</pdfrwt>
<pdfrwt beam="2">  1       -1 0.14808855E-03 0.79981123E+02</pdfrwt>
<totfact> 0.14206962E+05</totfact>
</mgrwt>
</event>
<event>
 5    1  0.3921687E+001  0.8983853E+02  0.7546771E-02  0.1303243E+00
         -1   -1    0    0    0  501 -0.00000000000E+00  0.00000000000E+00  0.31223773254E+02  0.31223773254E+02  0.00000000000E+00 0.  1.
          1   -1    0    0  501    0  0.00000000000E+00 -0.00000000000E+00 -0.64621919129E+02  0.64621919129E+02  0.00000000000E+00 0. -1.
         23    2    1    2    0    0  0.00000000000E+00  0.00000000000E+00 -0.33398145875E+02  0.95845692383E+02  0.89838525146E+02 0.  0.
          2    1    3    3  502    0 -0.37586361545E+02 -0.74762010252E+01 -0.41699098367E+02  0.56634291384E+02  0.00000000000E+00 0. -1.
         -2    1    3    3    0  502  0.37586361545E+02  0.74762010252E+01  0.83009524925E+01  0.39211400998E+02  0.00000000000E+00 0.  1.
<mgrwt>
<rscale>  0 0.89838525E+02</rscale>
<asrwt>0</asrwt>
<pdfrwt beam="2">  1        1 0.99418337E-02 0.89838525E+02</pdfrwt>
<pdfrwt beam="1">  1       -1 0.48036574E-02 0.89838525E+02</pdfrwt>
<totfact> 0.10152525E+05</totfact>
</mgrwt>
</event>
<event>
 5    1  0.3921687E+001  0.9442320E+02  0.7546771E-02  0.1292481E+00
          1   -1    0    0  501    0  0.00000000000E+00  0.00000000000E+00  0.56761766148E+03  0.56761766148E+03  0.00000000000E+00 0. -1.
         -1   -1    0    0    0  501 -0.00000000000E+00 -0.00000000000E+00 -0.39268246397E+01  0.39268246397E+01  0.00000000000E+00 0.  1.
         23    2    1    2    0    0  0.00000000000E+00  0.00000000000E+00  0.56369083684E+03  0.57154448612E+03  0.94423196705E+02 0.  0.
          2    1    3    3  502    0 -0.29933325620E+02 -0.31775074362E+02  0.39067773175E+03  0.39310908081E+03  0.00000000000E+00 0. -1.
         -2    1    3    3    0  502  0.29933325620E+02  0.31775074362E+02  0.17301310509E+03  0.17843540530E+03  0.00000000000E+00 0.  1.
<mgrwt>
<rscale>  0 0.94423197E+02</rscale>
<asrwt>0</asrwt>
<pdfrwt beam="1">  1        1 0.87325729E-01 0.94423197E+02</pdfrwt>
<pdfrwt beam="2">  1       -1 0.60412732E-03 0.94423197E+02</pdfrwt>
<totfact> 0.12853770E+05</totfact>
</mgrwt>
</event>
<event>
 5    1  0.3921687E+001  0.8858825E+02  0.7546771E-02  0.1306307E+00
          2   -1    0    0  501    0  0.00000000000E+00  0.00000000000E+00  0.39184356686E+03  0.39184356686E+03  0.00000000000E+00 0. -1.
         -2   -1    0    0    0  501 -0.00000000000E+00 -0.00000000000E+00 -0.50070220380E+01  0.50070220380E+01  0.00000000000E+00 0.  1.
         23    2    1    2    0    0  0.00000000000E+00  0.00000000000E+00  0.38683654482E+03  0.39685058890E+03  0.88588246956E+02 0.  0.
          2    1    3    3  502    0 -0.31681013001E+02 -0.17054640585E+01  0.33188252695E+03  0.33339557118E+03  0.00000000000E+00 0. -1.
         -2    1    3    3    0  502  0.31681013001E+02  0.17054640585E+01  0.54954017873E+02  0.63455017712E+02  0.00000000000E+00 0.  1.
<mgrwt>
<rscale>  0 0.88588247E+02</rscale>
<asrwt>0</asrwt>
<pdfrwt beam="1">  1        2 0.60283602E-01 0.88588247E+02</pdfrwt>
<pdfrwt beam="2">  1       -2 0.77031139E-03 0.88588247E+02</pdfrwt>
<totfact> 0.21387459E+05</totfact>
</mgrwt>
</event>
<event>
 5    1  0.3921687E+001  0.9405717E+02  0.7546771E-02  0.1293314E+00
          1   -1    0    0  501    0  0.00000000000E+00  0.00000000000E+00  0.50179475153E+03  0.50179475153E+03  0.00000000000E+00 0. -1.
         -1   -1    0    0    0  501 -0.00000000000E+00 -0.00000000000E+00 -0.44075547995E+01  0.44075547995E+01  0.00000000000E+00 0.  1.
         23    2    1    2    0    0  0.00000000000E+00  0.00000000000E+00  0.49738719673E+03  0.50620230633E+03  0.94057171242E+02 0.  0.
          2    1    3    3  502    0 -0.28837740281E+02 -0.25930189878E+02  0.39186495678E+03  0.39377929652E+03  0.00000000000E+00 0. -1.
         -2    1    3    3    0  502  0.28837740281E+02  0.25930189878E+02  0.10552223995E+03  0.11242300981E+03  0.00000000000E+00 0.  1.
<mgrwt>
<rscale>  0 0.94057171E+02</rscale>
<asrwt>0</asrwt>
<pdfrwt beam="1">  1        1 0.77199147E-01 0.94057171E+02</pdfrwt>
<pdfrwt beam="2">  1       -1 0.67808575E-03 0.94057171E+02</pdfrwt>
<totfact> 0.12828175E+05</totfact>
</mgrwt>
</event>
<event>
 5    1  0.3921687E+001  0.8989373E+02  0.7546771E-02  0.1303109E+00
          1   -1    0    0  501    0  0.00000000000E+00  0.00000000000E+00  0.12062157405E+03  0.12062157405E+03  0.00000000000E+00 0. -1.
         -1   -1    0    0    0  501 -0.00000000000E+00 -0.00000000000E+00 -0.16748417801E+02  0.16748417801E+02  0.00000000000E+00 0.  1.
         23    2    1    2    0    0  0.00000000000E+00  0.00000000000E+00  0.10387315625E+03  0.13736999185E+03  0.89893726545E+02 0.  0.
          2    1    3    3  502    0  0.23198068561E+02  0.19531199712E+02  0.10263304691E+03  0.10701943966E+03  0.00000000000E+00 0. -1.
         -2    1    3    3    0  502 -0.23198068561E+02 -0.19531199712E+02  0.12401093381E+01  0.30350552191E+02  0.00000000000E+00 0.  1.
<mgrwt>
<rscale>  0 0.89893727E+02</rscale>
<asrwt>0</asrwt>
<pdfrwt beam="1">  1        1 0.18557165E-01 0.89893727E+02</pdfrwt>
<pdfrwt beam="2">  1       -1 0.25766797E-02 0.89893727E+02</pdfrwt>
<totfact> 0.11205390E+05</totfact>
</mgrwt>
</event>
<event>
 4    1  0.3921687E+001  0.4765333E+02  0.7546771E-02  0.1458426E+00
          2   -1    0    0  501    0  0.00000000000E+00  0.00000000000E+00  0.74815463438E+00  0.74815463438E+00  0.00000000000E+00 0.  1.
         -2   -1    0    0    0  501 -0.00000000000E+00 -0.00000000000E+00 -0.75881380412E+03  0.75881380412E+03  0.00000000000E+00 0. -1.
          2    1    1    2  502    0 -0.10336325158E+02  0.20734530187E+02 -0.29035844371E+03  0.29128128363E+03  0.00000000000E+00 0. -1.
         -2    1    1    2    0  502  0.10336325158E+02 -0.20734530187E+02 -0.46770720577E+03  0.46828067512E+03  0.00000000000E+00 0.  1.
<mgrwt>
<rscale>  0 0.47653334E+02</rscale>
<asrwt>0</asrwt>
<pdfrwt beam="1">  1        2 0.11510076E-03 0.47653334E+02</pdfrwt>
<pdfrwt beam="2">  1       -2 0.11674054E+00 0.47653334E+02</pdfrwt>
<totfact> 0.12914402E+05</totfact>
</mgrwt>
</event>
<event>
 5    1  0.3921687E+001  0.8285878E+02  0.7546771E-02  0.1321129E+00
         -3   -1    0    0    0  501 -0.00000000000E+00  0.00000000000E+00  0.17132059026E+01  0.17132059026E+01  0.00000000000E+00 0.  1.
          3   -1    0    0  501    0  0.00000000000E+00 -0.00000000000E+00 -0.10018611874E+04  0.10018611874E+04  0.00000000000E+00 0. -1.
         23    2    1    2    0    0  0.00000000000E+00  0.00000000000E+00 -0.10001479815E+04  0.10035743933E+04  0.82858783476E+02 0.  0.
          2    1    3    3  502    0 -0.12747633150E+02  0.30773366277E+02 -0.20169597315E+03  0.20442790369E+03  0.00000000000E+00 0.  1.
         -2    1    3    3    0  502  0.12747633150E+02 -0.30773366277E+02 -0.79845200832E+03  0.79914648959E+03  0.00000000000E+00 0. -1.
<mgrwt>
<rscale>  0 0.82858783E+02</rscale>
<asrwt>0</asrwt>
<pdfrwt beam="2">  1        3 0.15413225E+00 0.82858783E+02</pdfrwt>
<pdfrwt beam="1">  1       -3 0.26357055E-03 0.82858783E+02</pdfrwt>
<totfact> 0.12854077E+04</totfact>
</mgrwt>
</event>
<event>
 5    1  0.3921687E+001  0.8976609E+02  0.7546771E-02  0.1303419E+00
          1   -1    0    0  501    0  0.00000000000E+00  0.00000000000E+00  0.24676880042E+02  0.24676880042E+02  0.00000000000E+00 0. -1.
         -1   -1    0    0    0  501 -0.00000000000E+00 -0.00000000000E+00 -0.81634625352E+02  0.81634625352E+02  0.00000000000E+00 0.  1.
         23    2    1    2    0    0  0.00000000000E+00  0.00000000000E+00 -0.56957745310E+02  0.10631150539E+03  0.89766092864E+02 0.  0.
          2    1    3    3  502    0  0.19856300874E+02 -0.95807767918E+01  0.17822072208E+02  0.28349430790E+02  0.00000000000E+00 0. -1.
         -2    1    3    3    0  502 -0.19856300874E+02  0.95807767918E+01 -0.74779817518E+02  0.77962074603E+02  0.00000000000E+00 0.  1.
<mgrwt>
<rscale>  0 0.89766093E+02</rscale>
<asrwt>0</asrwt>
<pdfrwt beam="1">  1        1 0.37964431E-02 0.89766093E+02</pdfrwt>
<pdfrwt beam="2">  1       -1 0.12559173E-01 0.89766093E+02</pdfrwt>
<totfact> 0.87794523E+04</totfact>
</mgrwt>
</event>
<event>
 5    1  0.3921687E+001  0.9007537E+02  0.7546771E-02  0.1302669E+00
          2   -1    0    0  501    0  0.00000000000E+00  0.00000000000E+00  0.94378472125E+03  0.94378472125E+03  0.00000000000E+00 0. -1.
         -2   -1    0    0    0  501 -0.00000000000E+00 -0.00000000000E+00 -0.21492116975E+01  0.21492116975E+01  0.00000000000E+00 0.  1.
         23    2    1    2    0    0  0.00000000000E+00  0.00000000000E+00  0.94163550955E+03  0.94593393294E+03  0.90075372057E+02 0.  0.
          2    1    3    3  502    0  0.14440644943E+01  0.31603281493E+02  0.13418668155E+03  0.13786558029E+03  0.00000000000E+00 0.  1.
         -2    1    3    3    0  502 -0.14440644943E+01 -0.31603281493E+02  0.80744882800E+03  0.80806835266E+03  0.00000000000E+00 0. -1.
<mgrwt>
<rscale>  0 0.90075372E+02</rscale>
<asrwt>0</asrwt>
<pdfrwt beam="1">  1        2 0.14519732E+00 0.90075372E+02</pdfrwt>
<pdfrwt beam="2">  1       -2 0.33064871E-03 0.90075372E+02</pdfrwt>
<totfact> 0.25719323E+05</totfact>
</mgrwt>
</event>
<event>
 5    1  0.3921687E+001  0.9219400E+02  0.7546771E-02  0.1297624E+00
          3   -1    0    0  501    0  0.00000000000E+00  0.00000000000E+00  0.72160144486E+02  0.72160144486E+02  0.00000000000E+00 0. -1.
         -3   -1    0    0    0  501 -0.00000000000E+00 -0.00000000000E+00 -0.29447463654E+02  0.29447463654E+02  0.00000000000E+00 0.  1.
         23    2    1    2    0    0  0.00000000000E+00  0.00000000000E+00  0.42712680831E+02  0.10160760814E+03  0.92193996161E+02 0.  0.
          2    1    3    3  502    0  0.36357373874E+01 -0.45866209916E+02  0.18238053889E+02  0.49492973320E+02  0.00000000000E+00 0. -1.
         -2    1    3    3    0  502 -0.36357373874E+01  0.45866209916E+02  0.24474626942E+02  0.52114634820E+02  0.00000000000E+00 0.  1.
<mgrwt>
<rscale>  0 0.92193996E+02</rscale>
<asrwt>0</asrwt>
<pdfrwt beam="1">  1        3 0.11101561E-01 0.92193996E+02</pdfrwt>
<pdfrwt beam="2">  1       -3 0.45303791E-02 0.92193996E+02</pdfrwt>
<totfact> 0.33522333E+04</totfact>
</mgrwt>
</event>
<event>
 5    1  0.3921687E+001  0.9786687E+02  0.7546771E-02  0.1284847E+00
          2   -1    0    0  501    0  0.00000000000E+00  0.00000000000E+00  0.11724750672E+04  0.11724750672E+04  0.00000000000E+00 0. -1.
         -2   -1    0    0    0  501 -0.00000000000E+00 -0.00000000000E+00 -0.20422445625E+01  0.20422445625E+01  0.00000000000E+00 0.  1.
         23    2    1    2    0    0  0.00000000000E+00  0.00000000000E+00  0.11704328227E+04  0.11745173118E+04  0.97866865296E+02 0.  0.
          2    1    3    3  502    0  0.41412684631E+02  0.24320661790E+02  0.47265090268E+03  0.47508460388E+03  0.00000000000E+00 0. -1.
         -2    1    3    3    0  502 -0.41412684631E+02 -0.24320661790E+02  0.69778191999E+03  0.69943270792E+03  0.00000000000E+00 0.  1.
<mgrwt>
<rscale>  0 0.97866865E+02</rscale>
<asrwt>0</asrwt>
<pdfrwt beam="1">  1        2 0.18038024E+00 0.97866865E+02</pdfrwt>
<pdfrwt beam="2">  1       -2 0.31419241E-03 0.97866865E+02</pdfrwt>
<totfact> 0.20673254E+05</totfact>
</mgrwt>
</event>
<event>
 5    1  0.3921687E+001  0.9225563E+02  0.7546771E-02  0.1297480E+00
         -1   -1    0    0    0  501 -0.00000000000E+00  0.00000000000E+00  0.19065898638E+02  0.19065898638E+02  0.00000000000E+00 0.  1.
          1   -1    0    0  501    0  0.00000000000E+00 -0.00000000000E+00 -0.11160109097E+03  0.11160109097E+03  0.00000000000E+00 0. -1.
         23    2    1    2    0    0  0.00000000000E+00  0.00000000000E+00 -0.92535192331E+02  0.13066698961E+03  0.92255625050E+02 0.  0.
          2    1    3    3  502    0 -0.57083723245E+01  0.41599611213E+02 -0.73314542391E+02  0.84487486018E+02  0.00000000000E+00 0. -1.
         -2    1    3    3    0  502  0.57083723245E+01 -0.41599611213E+02 -0.19220649940E+02  0.46179503589E+02  0.00000000000E+00 0.  1.
<mgrwt>
<rscale>  0 0.92255625E+02</rscale>
<asrwt>0</asrwt>
<pdfrwt beam="2">  1        1 0.17169399E-01 0.92255625E+02</pdfrwt>
<pdfrwt beam="1">  1       -1 0.29332152E-02 0.92255625E+02</pdfrwt>
<totfact> 0.10304870E+05</totfact>
</mgrwt>
</event>
<event>
 5    1  0.3921687E+001  0.8948062E+02  0.7546771E-02  0.1304114E+00
         -3   -1    0    0    0  501 -0.00000000000E+00  0.00000000000E+00  0.13116088750E+01  0.13116088750E+01  0.00000000000E+00 0.  1.
          3   -1    0    0  501    0  0.00000000000E+00 -0.00000000000E+00 -0.15261373422E+04  0.15261373422E+04  0.00000000000E+00 0. -1.
         23    2    1    2    0    0  0.00000000000E+00  0.00000000000E+00 -0.15248257333E+04  0.15274489511E+04  0.89480618738E+02 0.  0.
          2    1    3    3  502    0 -0.24204682592E+02  0.11471549276E+01 -0.14044219095E+04  0.14046309418E+04  0.00000000000E+00 0. -1.
         -2    1    3    3    0  502  0.24204682592E+02 -0.11471549276E+01 -0.12040382376E+03  0.12281800927E+03  0.00000000000E+00 0.  1.
<mgrwt>
<rscale>  0 0.89480619E+02</rscale>
<asrwt>0</asrwt>
<pdfrwt beam="2">  1        3 0.23479042E+00 0.89480619E+02</pdfrwt>
<pdfrwt beam="1">  1       -3 0.20178593E-03 0.89480619E+02</pdfrwt>
<totfact> 0.62548313E+03</totfact>
</mgrwt>
</event>
<event>
 5    1  0.3921687E+001  0.8772097E+02  0.7546771E-02  0.1308466E+00
          2   -1    0    0  501    0  0.00000000000E+00  0.00000000000E+00  0.89633239013E+03  0.89633239013E+03  0.00000000000E+00 0. -1.
         -2   -1    0    0    0  501 -0.00000000000E+00 -0.00000000000E+00 -0.21462375127E+01  0.21462375127E+01  0.00000000000E+00 0.  1.
         23    2    1    2    0    0  0.00000000000E+00  0.00000000000E+00  0.89418615262E+03  0.89847862764E+03  0.87720971256E+02 0.  0.
          2    1    3    3  502    0  0.22954517220E+02  0.12205358536E+02  0.80890887208E+03  0.80932653729E+03  0.00000000000E+00 0. -1.
         -2    1    3    3    0  502 -0.22954517220E+02 -0.12205358536E+02  0.85277280540E+02  0.89152090352E+02  0.00000000000E+00 0.  1.
<mgrwt>
<rscale>  0 0.87720971E+02</rscale>
<asrwt>0</asrwt>
<pdfrwt beam="1">  1        2 0.13789699E+00 0.87720971E+02</pdfrwt>
<pdfrwt beam="2">  1       -2 0.33019110E-03 0.87720971E+02</pdfrwt>
<totfact> 0.27432094E+05</totfact>
</mgrwt>
</event>
<event>
 5    1  0.3921687E+001  0.9152867E+02  0.7546771E-02  0.1299191E+00
          2   -1    0    0  501    0  0.00000000000E+00  0.00000000000E+00  0.60504002572E+02  0.60504002572E+02  0.00000000000E+00 0. -1.
         -2   -1    0    0    0  501 -0.00000000000E+00 -0.00000000000E+00 -0.34615470059E+02  0.34615470059E+02  0.00000000000E+00 0.  1.
         23    2    1    2    0    0  0.00000000000E+00  0.00000000000E+00  0.25888532512E+02  0.95119472631E+02  0.91528672873E+02 0.  0.
          2    1    3    3  502    0  0.18827972905E+02  0.40536396035E+02  0.23162745199E+02  0.50340885296E+02  0.00000000000E+00 0. -1.
         -2    1    3    3    0  502 -0.18827972905E+02 -0.40536396035E+02  0.27257873129E+01  0.44778587335E+02  0.00000000000E+00 0.  1.
<mgrwt>
<rscale>  0 0.91528673E+02</rscale>
<asrwt>0</asrwt>
<pdfrwt beam="1">  1        2 0.93083080E-02 0.91528673E+02</pdfrwt>
<pdfrwt beam="2">  1       -2 0.53254570E-02 0.91528673E+02</pdfrwt>
<totfact> 0.10515823E+05</totfact>
</mgrwt>
</event>
<event>
 5    1  0.3921687E+001  0.9147518E+02  0.7546771E-02  0.1299318E+00
          1   -1    0    0  501    0  0.00000000000E+00  0.00000000000E+00  0.62237152033E+03  0.62237152033E+03  0.00000000000E+00 0. -1.
         -1   -1    0    0    0  501 -0.00000000000E+00 -0.00000000000E+00 -0.33612189328E+01  0.33612189328E+01  0.00000000000E+00 0.  1.
         23    2    1    2    0    0  0.00000000000E+00  0.00000000000E+00  0.61901030140E+03  0.62573273927E+03  0.91475175592E+02 0.  0.
          2    1    3    3  502    0 -0.33012365186E+02 -0.11610591270E+02  0.51095711890E+03  0.51215407783E+03  0.00000000000E+00 0. -1.
         -2    1    3    3    0  502  0.33012365186E+02  0.11610591270E+02  0.10805318250E+03  0.11357866144E+03  0.00000000000E+00 0.  1.
<mgrwt>
<rscale>  0 0.91475176E+02</rscale>
<asrwt>0</asrwt>
<pdfrwt beam="1">  1        1 0.95749373E-01 0.91475176E+02</pdfrwt>
<pdfrwt beam="2">  1       -1 0.51711110E-03 0.91475176E+02</pdfrwt>
<totfact> 0.14063849E+05</totfact>
</mgrwt>
</event>
<event>
 5    1  0.3921687E+001  0.9053557E+02  0.7546771E-02  0.1301560E+00
          1   -1    0    0  501    0  0.00000000000E+00  0.00000000000E+00  0.20291557427E+04  0.20291557427E+04  0.00000000000E+00 0. -1.
         -1   -1    0    0    0  501 -0.00000000000E+00 -0.00000000000E+00 -0.10098645234E+01  0.10098645234E+01  0.00000000000E+00 0.  1.
         23    2    1    2    0    0  0.00000000000E+00  0.00000000000E+00  0.20281458782E+04  0.20301656072E+04  0.90535570845E+02 0.  0.
          2    1    3    3  502    0  0.31600282756E+02 -0.28611227187E+02  0.13556187153E+04  0.13562887898E+04  0.00000000000E+00 0. -1.
         -2    1    3    3    0  502 -0.31600282756E+02  0.28611227187E+02  0.67252716290E+03  0.67387681740E+03  0.00000000000E+00 0.  1.
<mgrwt>
<rscale>  0 0.90535571E+02</rscale>
<asrwt>0</asrwt>
<pdfrwt beam="1">  1        1 0.31217454E+00 0.90535571E+02</pdfrwt>
<pdfrwt beam="2">  1       -1 0.15536540E-03 0.90535571E+02</pdfrwt>
<totfact> 0.79471857E+04</totfact>
</mgrwt>
</event>
<event>
 5    1  0.3921687E+001  0.7589946E+02  0.7546771E-02  0.1341108E+00
         -3   -1    0    0    0  501 -0.00000000000E+00  0.00000000000E+00  0.20187096845E+02  0.20187096845E+02  0.00000000000E+00 0.  1.
          3   -1    0    0  501    0  0.00000000000E+00 -0.00000000000E+00 -0.71341717532E+02  0.71341717532E+02  0.00000000000E+00 0. -1.
         23    2    1    2    0    0  0.00000000000E+00  0.00000000000E+00 -0.51154620687E+02  0.91528814377E+02  0.75899464054E+02 0.  0.
          2    1    3    3  502    0 -0.16865103397E+02  0.13451082431E+02 -0.63228706265E+02  0.66807429430E+02  0.00000000000E+00 0. -1.
         -2    1    3    3    0  502  0.16865103397E+02 -0.13451082431E+02  0.12074085578E+02  0.24721384947E+02  0.00000000000E+00 0.  1.
<mgrwt>
<rscale>  0 0.75899464E+02</rscale>
<asrwt>0</asrwt>
<pdfrwt beam="2">  1        3 0.10975649E-01 0.75899464E+02</pdfrwt>
<pdfrwt beam="1">  1       -3 0.31057072E-02 0.75899464E+02</pdfrwt>
<totfact> 0.57855880E+04</totfact>
</mgrwt>
</event>
<event>
 5    1  0.3921687E+001  0.9438272E+02  0.7546771E-02  0.1292572E+00
         -1   -1    0    0    0  501 -0.00000000000E+00  0.00000000000E+00  0.11462941327E+03  0.11462941327E+03  0.00000000000E+00 0.  1.
          1   -1    0    0  501    0  0.00000000000E+00 -0.00000000000E+00 -0.19428036497E+02  0.19428036497E+02  0.00000000000E+00 0. -1.
         23    2    1    2    0    0  0.00000000000E+00  0.00000000000E+00  0.95201376773E+02  0.13405744977E+03  0.94382719280E+02 0.  0.
          2    1    3    3  502    0  0.11911617191E+02 -0.45495645770E+02  0.53153554698E+02  0.70972112728E+02  0.00000000000E+00 0. -1.
         -2    1    3    3    0  502 -0.11911617191E+02  0.45495645770E+02  0.42047822075E+02  0.63085337039E+02  0.00000000000E+00 0.  1.
<mgrwt>
<rscale>  0 0.94382719E+02</rscale>
<asrwt>0</asrwt>
<pdfrwt beam="2">  1        1 0.29889288E-02 0.94382719E+02</pdfrwt>
<pdfrwt beam="1">  1       -1 0.17635294E-01 0.94382719E+02</pdfrwt>
<totfact> 0.72482344E+04</totfact>
</mgrwt>
</event>
<event>
 5    1  0.3921687E+001  0.8300261E+02  0.7546771E-02  0.1320740E+00
         -1   -1    0    0    0  501 -0.00000000000E+00  0.00000000000E+00  0.15729801390E+03  0.15729801390E+03  0.00000000000E+00 0.  1.
          1   -1    0    0  501    0  0.00000000000E+00 -0.00000000000E+00 -0.10949650525E+02  0.10949650525E+02  0.00000000000E+00 0. -1.
         23    2    1    2    0    0  0.00000000000E+00  0.00000000000E+00  0.14634836338E+03  0.16824766443E+03  0.83002609129E+02 0.  0.
          2    1    3    3  502    0 -0.25412471708E+02  0.32738754752E+02  0.68761752805E+02  0.80285729927E+02  0.00000000000E+00 0. -1.
         -2    1    3    3    0  502  0.25412471708E+02 -0.32738754752E+02  0.77586610571E+02  0.87961934500E+02  0.00000000000E+00 0.  1.
<mgrwt>
<rscale>  0 0.83002609E+02</rscale>
<asrwt>0</asrwt>
<pdfrwt beam="2">  1        1 0.16845617E-02 0.83002609E+02</pdfrwt>
<pdfrwt beam="1">  1       -1 0.24199693E-01 0.83002609E+02</pdfrwt>
<totfact> 0.94306636E+04</totfact>
</mgrwt>
</event>
<event>
 5    1  0.3921687E+001  0.9045029E+02  0.7546771E-02  0.1301765E+00
         -2   -1    0    0    0  501 -0.00000000000E+00  0.00000000000E+00  0.27913598839E+02  0.27913598839E+02  0.00000000000E+00 0.  1.
          2   -1    0    0  501    0  0.00000000000E+00 -0.00000000000E+00 -0.73273017149E+02  0.73273017149E+02  0.00000000000E+00 0. -1.
         23    2    1    2    0    0  0.00000000000E+00  0.00000000000E+00 -0.45359418310E+02  0.10118661599E+03  0.90450287041E+02 0.  0.
          2    1    3    3  502    0  0.28282428899E+01  0.31599384733E+02  0.13376307126E+02  0.34430301562E+02  0.00000000000E+00 0.  1.
         -2    1    3    3    0  502 -0.28282428899E+01 -0.31599384733E+02 -0.58735725435E+02  0.66756314426E+02  0.00000000000E+00 0. -1.
<mgrwt>
<rscale>  0 0.90450287E+02</rscale>
<asrwt>0</asrwt>
<pdfrwt beam="2">  1        2 0.11272772E-01 0.90450287E+02</pdfrwt>
<pdfrwt beam="1">  1       -2 0.42943999E-02 0.90450287E+02</pdfrwt>
<totfact> 0.11456335E+05</totfact>
</mgrwt>
</event>
<event>
 5    1  0.3921687E+001  0.9429658E+02  0.7546771E-02  0.1292768E+00
         -1   -1    0    0    0  501 -0.00000000000E+00  0.00000000000E+00  0.49360136573E+01  0.49360136573E+01  0.00000000000E+00 0.  1.
          1   -1    0    0  501    0  0.00000000000E+00 -0.00000000000E+00 -0.45035552382E+03  0.45035552382E+03  0.00000000000E+00 0. -1.
         23    2    1    2    0    0  0.00000000000E+00  0.00000000000E+00 -0.44541951017E+03  0.45529153748E+03  0.94296575044E+02 0.  0.
          2    1    3    3  502    0 -0.19618516382E+02 -0.41770321325E+02 -0.17606856821E+03  0.18201589667E+03  0.00000000000E+00 0. -1.
         -2    1    3    3    0  502  0.19618516382E+02  0.41770321325E+02 -0.26935094195E+03  0.27327564081E+03  0.00000000000E+00 0.  1.
<mgrwt>
<rscale>  0 0.94296575E+02</rscale>
<asrwt>0</asrwt>
<pdfrwt beam="2">  1        1 0.69285485E-01 0.94296575E+02</pdfrwt>
<pdfrwt beam="1">  1       -1 0.75938650E-03 0.94296575E+02</pdfrwt>
<totfact> 0.12562227E+05</totfact>
</mgrwt>
</event>
<event>
 5    1  0.3921687E+001  0.1044426E+03  0.7546771E-02  0.1271222E+00
          1   -1    0    0  501    0  0.00000000000E+00  0.00000000000E+00  0.87188430066E+01  0.87188430066E+01  0.00000000000E+00 0. -1.
         -1   -1    0    0    0  501 -0.00000000000E+00 -0.00000000000E+00 -0.31277809289E+03  0.31277809289E+03  0.00000000000E+00 0.  1.
         23    2    1    2    0    0  0.00000000000E+00  0.00000000000E+00 -0.30405924988E+03  0.32149693589E+03  0.10444257921E+03 0.  0.
          2    1    3    3  502    0  0.22168354575E+02 -0.58773970165E+01 -0.29644635058E+03  0.29733216865E+03  0.00000000000E+00 0.  1.
         -2    1    3    3    0  502 -0.22168354575E+02  0.58773970165E+01 -0.76128992982E+01  0.24164767244E+02  0.00000000000E+00 0. -1.
<mgrwt>
<rscale>  0 0.10444258E+03</rscale>
<asrwt>0</asrwt>
<pdfrwt beam="1">  1        1 0.13413602E-02 0.10444258E+03</pdfrwt>
<pdfrwt beam="2">  1       -1 0.48119716E-01 0.10444258E+03</pdfrwt>
<totfact> 0.41691629E+04</totfact>
</mgrwt>
</event>
<event>
 5    1  0.3921687E+001  0.1039247E+03  0.7546771E-02  0.1272253E+00
         -2   -1    0    0    0  501 -0.00000000000E+00  0.00000000000E+00  0.18388683223E+01  0.18388683223E+01  0.00000000000E+00 0.  1.
          2   -1    0    0  501    0  0.00000000000E+00 -0.00000000000E+00 -0.14683417835E+04  0.14683417835E+04  0.00000000000E+00 0. -1.
         23    2    1    2    0    0  0.00000000000E+00  0.00000000000E+00 -0.14665029151E+04  0.14701806518E+04  0.10392472645E+03 0.  0.
          2    1    3    3  502    0 -0.25573941452E+02  0.18507550259E+02 -0.13171358560E+04  0.13175141058E+04  0.00000000000E+00 0. -1.
         -2    1    3    3    0  502  0.25573941452E+02 -0.18507550259E+02 -0.14936705916E+03  0.15266654598E+03  0.00000000000E+00 0.  1.
<mgrwt>
<rscale>  0 0.10392473E+03</rscale>
<asrwt>0</asrwt>
<pdfrwt beam="2">  1        2 0.22589833E+00 0.10392473E+03</pdfrwt>
<pdfrwt beam="1">  1       -2 0.28290332E-03 0.10392473E+03</pdfrwt>
<totfact> 0.16808510E+05</totfact>
</mgrwt>
</event>
<event>
 5    1  0.3921687E+001  0.9825721E+02  0.7546771E-02  0.1284004E+00
         -2   -1    0    0    0  501 -0.00000000000E+00  0.00000000000E+00  0.14982992508E+01  0.14982992508E+01  0.00000000000E+00 0.  1.
          2   -1    0    0  501    0  0.00000000000E+00 -0.00000000000E+00 -0.16109063189E+04  0.16109063189E+04  0.00000000000E+00 0. -1.
         23    2    1    2    0    0  0.00000000000E+00  0.00000000000E+00 -0.16094080197E+04  0.16124046182E+04  0.98257207994E+02 0.  0.
          2    1    3    3  502    0  0.31477309191E+02 -0.36644075933E+02 -0.65791858574E+03  0.65968968065E+03  0.00000000000E+00 0.  1.
         -2    1    3    3    0  502 -0.31477309191E+02  0.36644075933E+02 -0.95148943391E+03  0.95271493750E+03  0.00000000000E+00 0. -1.
<mgrwt>
<rscale>  0 0.98257208E+02</rscale>
<asrwt>0</asrwt>
<pdfrwt beam="2">  1        2 0.24783193E+00 0.98257208E+02</pdfrwt>
<pdfrwt beam="1">  1       -2 0.23050740E-03 0.98257208E+02</pdfrwt>
<totfact> 0.18772550E+05</totfact>
</mgrwt>
</event>
<event>
 5    1  0.3921687E+001  0.8179001E+02  0.7546771E-02  0.1324047E+00
         -2   -1    0    0    0  501 -0.00000000000E+00  0.00000000000E+00  0.19308683300E+01  0.19308683300E+01  0.00000000000E+00 0.  1.
          2   -1    0    0  501    0  0.00000000000E+00 -0.00000000000E+00 -0.86613953816E+03  0.86613953816E+03  0.00000000000E+00 0. -1.
         23    2    1    2    0    0  0.00000000000E+00  0.00000000000E+00 -0.86420866983E+03  0.86807040649E+03  0.81790009257E+02 0.  0.
          2    1    3    3  502    0  0.31099598408E+02 -0.13247656218E+02 -0.67637776664E+03  0.67722194930E+03  0.00000000000E+00 0. -1.
         -2    1    3    3    0  502 -0.31099598408E+02  0.13247656218E+02 -0.18783090319E+03  0.19084845718E+03  0.00000000000E+00 0.  1.
<mgrwt>
<rscale>  0 0.81790009E+02</rscale>
<asrwt>0</asrwt>
<pdfrwt beam="2">  1        2 0.13325220E+00 0.81790009E+02</pdfrwt>
<pdfrwt beam="1">  1       -2 0.29705675E-03 0.81790009E+02</pdfrwt>
<totfact> 0.32802075E+05</totfact>
</mgrwt>
</event>
<event>
 5    1  0.3921687E+001  0.9024947E+02  0.7546771E-02  0.1302249E+00
         -1   -1    0    0    0  501 -0.00000000000E+00  0.00000000000E+00  0.10597127286E+03  0.10597127286E+03  0.00000000000E+00 0.  1.
          1   -1    0    0  501    0  0.00000000000E+00 -0.00000000000E+00 -0.19215034455E+02  0.19215034455E+02  0.00000000000E+00 0. -1.
         23    2    1    2    0    0  0.00000000000E+00  0.00000000000E+00  0.86756238407E+02  0.12518630732E+03  0.90249468902E+02 0.  0.
          2    1    3    3  502    0 -0.89686833497E+01 -0.40478743705E+02  0.18670518721E+02  0.45470366639E+02  0.00000000000E+00 0. -1.
         -2    1    3    3    0  502  0.89686833497E+01  0.40478743705E+02  0.68085719686E+02  0.79715940678E+02  0.00000000000E+00 0.  1.
<mgrwt>
<rscale>  0 0.90249469E+02</rscale>
<asrwt>0</asrwt>
<pdfrwt beam="2">  1        1 0.29561592E-02 0.90249469E+02</pdfrwt>
<pdfrwt beam="1">  1       -1 0.16303272E-01 0.90249469E+02</pdfrwt>
<totfact> 0.82633350E+04</totfact>
</mgrwt>
</event>
<event>
 5    1  0.3921687E+001  0.8861008E+02  0.7546771E-02  0.1306253E+00
          2   -1    0    0  501    0  0.00000000000E+00  0.00000000000E+00  0.12288728522E+03  0.12288728522E+03  0.00000000000E+00 0. -1.
         -2   -1    0    0    0  501 -0.00000000000E+00 -0.00000000000E+00 -0.15973469967E+02  0.15973469967E+02  0.00000000000E+00 0.  1.
         23    2    1    2    0    0  0.00000000000E+00  0.00000000000E+00  0.10691381525E+03  0.13886075519E+03  0.88610075268E+02 0.  0.
          2    1    3    3  502    0 -0.95299933253E+01 -0.42095842698E+02  0.69132254112E+02  0.81499382230E+02  0.00000000000E+00 0. -1.
         -2    1    3    3    0  502  0.95299933253E+01  0.42095842698E+02  0.37781561141E+02  0.57361372957E+02  0.00000000000E+00 0.  1.
<mgrwt>
<rscale>  0 0.88610075E+02</rscale>
<asrwt>0</asrwt>
<pdfrwt beam="1">  1        2 0.18905736E-01 0.88610075E+02</pdfrwt>
<pdfrwt beam="2">  1       -2 0.24574570E-02 0.88610075E+02</pdfrwt>
<totfact> 0.14144742E+05</totfact>
</mgrwt>
</event>
<event>
 5    1  0.3921687E+001  0.8901071E+02  0.7546771E-02  0.1305265E+00
          1   -1    0    0  501    0  0.00000000000E+00  0.00000000000E+00  0.10353301546E+01  0.10353301546E+01  0.00000000000E+00 0. -1.
         -1   -1    0    0    0  501 -0.00000000000E+00 -0.00000000000E+00 -0.19131352265E+04  0.19131352265E+04  0.00000000000E+00 0.  1.
         23    2    1    2    0    0  0.00000000000E+00  0.00000000000E+00 -0.19120998964E+04  0.19141705567E+04  0.89010709239E+02 0.  0.
          2    1    3    3  502    0  0.20301895470E+02 -0.38550996200E+02 -0.11512365995E+04  0.11520607858E+04  0.00000000000E+00 0.  1.
         -2    1    3    3    0  502 -0.20301895470E+02  0.38550996200E+02 -0.76086329691E+03  0.76210977087E+03  0.00000000000E+00 0. -1.
<mgrwt>
<rscale>  0 0.89010709E+02</rscale>
<asrwt>0</asrwt>
<pdfrwt beam="1">  1        1 0.15928230E-03 0.89010709E+02</pdfrwt>
<pdfrwt beam="2">  1       -1 0.29432714E+00 0.89010709E+02</pdfrwt>
<totfact> 0.84123275E+03</totfact>
</mgrwt>
</event>
<event>
 5    1  0.3921687E+001  0.9322135E+02  0.7546771E-02  0.1295233E+00
          3   -1    0    0  501    0  0.00000000000E+00  0.00000000000E+00  0.58607882778E+01  0.58607882778E+01  0.00000000000E+00 0. -1.
         -3   -1    0    0    0  501 -0.00000000000E+00 -0.00000000000E+00 -0.37069335081E+03  0.37069335081E+03  0.00000000000E+00 0.  1.
         23    2    1    2    0    0  0.00000000000E+00  0.00000000000E+00 -0.36483256253E+03  0.37655413909E+03  0.93221354744E+02 0.  0.
          2    1    3    3  502    0  0.25345896847E+02 -0.26018380394E+02 -0.30040311039E+03  0.30259114220E+03  0.00000000000E+00 0. -1.
         -2    1    3    3    0  502 -0.25345896847E+02  0.26018380394E+02 -0.64429452135E+02  0.73962996882E+02  0.00000000000E+00 0.  1.
<mgrwt>
<rscale>  0 0.93221355E+02</rscale>
<asrwt>0</asrwt>
<pdfrwt beam="1">  1        3 0.90165968E-03 0.93221355E+02</pdfrwt>
<pdfrwt beam="2">  1       -3 0.57029750E-01 0.93221355E+02</pdfrwt>
<totfact> 0.20097278E+04</totfact>
</mgrwt>
</event>
<event>
 5    1  0.3921687E+001  0.9304475E+02  0.7546771E-02  0.1295642E+00
          2   -1    0    0  501    0  0.00000000000E+00  0.00000000000E+00  0.33253420864E+04  0.33253420864E+04  0.00000000000E+00 0. -1.
         -2   -1    0    0    0  501 -0.00000000000E+00 -0.00000000000E+00 -0.65085981492E+00  0.65085981492E+00  0.00000000000E+00 0.  1.
         23    2    1    2    0    0  0.00000000000E+00  0.00000000000E+00  0.33246912266E+04  0.33259929462E+04  0.93044753423E+02 0.  0.
          2    1    3    3  502    0 -0.32436979456E+02 -0.30783331323E+02  0.12037898917E+04  0.12046202201E+04  0.00000000000E+00 0. -1.
         -2    1    3    3    0  502  0.32436979456E+02  0.30783331323E+02  0.21209013348E+04  0.21213727261E+04  0.00000000000E+00 0.  1.
<mgrwt>
<rscale>  0 0.93044753E+02</rscale>
<asrwt>0</asrwt>
<pdfrwt beam="1">  1        2 0.51157749E+00 0.93044753E+02</pdfrwt>
<pdfrwt beam="2">  1       -2 0.10013494E-03 0.93044753E+02</pdfrwt>
<totfact> 0.71528357E+04</totfact>
</mgrwt>
</event>
<event>
 5    1  0.3921687E+001  0.9137124E+02  0.7546771E-02  0.1299565E+00
          1   -1    0    0  501    0  0.00000000000E+00  0.00000000000E+00  0.30525612937E+03  0.30525612937E+03  0.00000000000E+00 0. -1.
         -1   -1    0    0    0  501 -0.00000000000E+00 -0.00000000000E+00 -0.68374577531E+01  0.68374577531E+01  0.00000000000E+00 0.  1.
         23    2    1    2    0    0  0.00000000000E+00  0.00000000000E+00  0.29841867162E+03  0.31209358713E+03  0.91371240300E+02 0.  0.
          2    1    3    3  502    0 -0.29410929540E+02 -0.36229557713E+01  0.26797665976E+03  0.26961012363E+03  0.00000000000E+00 0. -1.
         -2    1    3    3    0  502  0.29410929540E+02  0.36229557713E+01  0.30442011859E+02  0.42483463500E+02  0.00000000000E+00 0.  1.
<mgrwt>
<rscale>  0 0.91371240E+02</rscale>
<asrwt>0</asrwt>
<pdfrwt beam="1">  1        1 0.46962471E-01 0.91371240E+02</pdfrwt>
<pdfrwt beam="2">  1       -1 0.10519168E-02 0.91371240E+02</pdfrwt>
<totfact> 0.12781789E+05</totfact>
</mgrwt>
</event>
<event>
 5    1  0.3921687E+001  0.8901109E+02  0.7546771E-02  0.1305264E+00
          2   -1    0    0  501    0  0.00000000000E+00  0.00000000000E+00  0.10446106314E+03  0.10446106314E+03  0.00000000000E+00 0.  1.
         -2   -1    0    0    0  501 -0.00000000000E+00 -0.00000000000E+00 -0.18961548653E+02  0.18961548653E+02  0.00000000000E+00 0. -1.
         23    2    1    2    0    0  0.00000000000E+00  0.00000000000E+00  0.85499514486E+02  0.12342261179E+03  0.89011089894E+02 0.  0.
          2    1    3    3  502    0 -0.27475132174E+02 -0.21537807010E+02  0.44740344352E+01  0.35196264047E+02  0.00000000000E+00 0. -1.
         -2    1    3    3    0  502  0.27475132174E+02  0.21537807010E+02  0.81025480050E+02  0.88226347744E+02  0.00000000000E+00 0.  1.
<mgrwt>
<rscale>  0 0.89011090E+02</rscale>
<asrwt>0</asrwt>
<pdfrwt beam="1">  1        2 0.16070932E-01 0.89011090E+02</pdfrwt>
<pdfrwt beam="2">  1       -2 0.29171614E-02 0.89011090E+02</pdfrwt>
<totfact> 0.13279715E+05</totfact>
</mgrwt>
</event>
<event>
 5    1  0.3921687E+001  0.9081642E+02  0.7546771E-02  0.1300887E+00
         -1   -1    0    0    0  501 -0.00000000000E+00  0.00000000000E+00  0.79794109683E+02  0.79794109683E+02  0.00000000000E+00 0. -1.
          1   -1    0    0  501    0  0.00000000000E+00 -0.00000000000E+00 -0.25840321780E+02  0.25840321780E+02  0.00000000000E+00 0.  1.
         23    2    1    2    0    0  0.00000000000E+00  0.00000000000E+00  0.53953787903E+02  0.10563443146E+03  0.90816418567E+02 0.  0.
          2    1    3    3  502    0 -0.14665680368E+02  0.41723358033E+02  0.15002247965E+02  0.46701051704E+02  0.00000000000E+00 0.  1.
         -2    1    3    3    0  502  0.14665680368E+02 -0.41723358033E+02  0.38951539938E+02  0.58933379759E+02  0.00000000000E+00 0. -1.
<mgrwt>
<rscale>  0 0.90816419E+02</rscale>
<asrwt>0</asrwt>
<pdfrwt beam="2">  1        1 0.39754342E-02 0.90816419E+02</pdfrwt>
<pdfrwt beam="1">  1       -1 0.12276017E-01 0.90816419E+02</pdfrwt>
<totfact> 0.85550216E+04</totfact>
</mgrwt>
</event>
<event>
 5    1  0.3921687E+001  0.9198785E+02  0.7546771E-02  0.1298108E+00
          2   -1    0    0  501    0  0.00000000000E+00  0.00000000000E+00  0.12084997659E+03  0.12084997659E+03  0.00000000000E+00 0. -1.
         -2   -1    0    0    0  501 -0.00000000000E+00 -0.00000000000E+00 -0.17504689832E+02  0.17504689832E+02  0.00000000000E+00 0.  1.
         23    2    1    2    0    0  0.00000000000E+00  0.00000000000E+00  0.10334528676E+03  0.13835466642E+03  0.91987854773E+02 0.  0.
          2    1    3    3  502    0  0.24648967127E+02 -0.38718416466E+02  0.47222575344E+02  0.65853314086E+02  0.00000000000E+00 0. -1.
         -2    1    3    3    0  502 -0.24648967127E+02  0.38718416466E+02  0.56122711415E+02  0.72501352336E+02  0.00000000000E+00 0.  1.
<mgrwt>
<rscale>  0 0.91987855E+02</rscale>
<asrwt>0</asrwt>
<pdfrwt beam="1">  1        2 0.18592304E-01 0.91987855E+02</pdfrwt>
<pdfrwt beam="2">  1       -2 0.26930293E-02 0.91987855E+02</pdfrwt>
<totfact> 0.12704099E+05</totfact>
</mgrwt>
</event>
<event>
 5    1  0.3921687E+001  0.8964862E+02  0.7546771E-02  0.1303705E+00
         -2   -1    0    0    0  501 -0.00000000000E+00  0.00000000000E+00  0.29243787608E+01  0.29243787608E+01  0.00000000000E+00 0.  1.
          2   -1    0    0  501    0  0.00000000000E+00 -0.00000000000E+00 -0.68705832760E+03  0.68705832760E+03  0.00000000000E+00 0. -1.
         23    2    1    2    0    0  0.00000000000E+00  0.00000000000E+00 -0.68413394884E+03  0.68998270636E+03  0.89648620305E+02 0.  0.
          2    1    3    3  502    0  0.15258987696E+02  0.34188080475E+02 -0.53177608670E+03  0.53309236342E+03  0.00000000000E+00 0. -1.
         -2    1    3    3    0  502 -0.15258987696E+02 -0.34188080475E+02 -0.15235786214E+03  0.15689034294E+03  0.00000000000E+00 0.  1.
<mgrwt>
<rscale>  0 0.89648620E+02</rscale>
<asrwt>0</asrwt>
<pdfrwt beam="2">  1        2 0.10570141E+00 0.89648620E+02</pdfrwt>
<pdfrwt beam="1">  1       -2 0.44990386E-03 0.89648620E+02</pdfrwt>
<totfact> 0.24685418E+05</totfact>
</mgrwt>
</event>
<event>
 5    1  0.3921687E+001  0.9068005E+02  0.7546771E-02  0.1301213E+00
          2   -1    0    0  501    0  0.00000000000E+00  0.00000000000E+00  0.19395707171E+03  0.19395707171E+03  0.00000000000E+00 0. -1.
         -2   -1    0    0    0  501 -0.00000000000E+00 -0.00000000000E+00 -0.10598829994E+02  0.10598829994E+02  0.00000000000E+00 0.  1.
         23    2    1    2    0    0  0.00000000000E+00  0.00000000000E+00  0.18335824172E+03  0.20455590171E+03  0.90680053579E+02 0.  0.
          2    1    3    3  502    0 -0.41428720305E+02 -0.41039951675E+01  0.13219167311E+03  0.13859228002E+03  0.00000000000E+00 0. -1.
         -2    1    3    3    0  502  0.41428720305E+02  0.41039951675E+01  0.51166568607E+02  0.65963621682E+02  0.00000000000E+00 0.  1.
<mgrwt>
<rscale>  0 0.90680054E+02</rscale>
<asrwt>0</asrwt>
<pdfrwt beam="1">  1        2 0.29839547E-01 0.90680054E+02</pdfrwt>
<pdfrwt beam="2">  1       -2 0.16305894E-02 0.90680054E+02</pdfrwt>
<totfact> 0.15524420E+05</totfact>
</mgrwt>
</event>
<event>
 5    1  0.3921687E+001  0.9179360E+02  0.7546771E-02  0.1298565E+00
          2   -1    0    0  501    0  0.00000000000E+00  0.00000000000E+00  0.63362722959E+03  0.63362722959E+03  0.00000000000E+00 0. -1.
         -2   -1    0    0    0  501 -0.00000000000E+00 -0.00000000000E+00 -0.33245356098E+01  0.33245356098E+01  0.00000000000E+00 0.  1.
         23    2    1    2    0    0  0.00000000000E+00  0.00000000000E+00  0.63030269398E+03  0.63695176520E+03  0.91793600825E+02 0.  0.
          2    1    3    3  502    0 -0.34325871257E+02 -0.13746926446E+01  0.52634666549E+03  0.52746655580E+03  0.00000000000E+00 0. -1.
         -2    1    3    3    0  502  0.34325871257E+02  0.13746926446E+01  0.10395602849E+03  0.10948520940E+03  0.00000000000E+00 0.  1.
<mgrwt>
<rscale>  0 0.91793601E+02</rscale>
<asrwt>0</asrwt>
<pdfrwt beam="1">  1        2 0.97481017E-01 0.91793601E+02</pdfrwt>
<pdfrwt beam="2">  1       -2 0.51146752E-03 0.91793601E+02</pdfrwt>
<totfact> 0.22721463E+05</totfact>
</mgrwt>
</event>
<event>
 5    1  0.3921687E+001  0.9082635E+02  0.7546771E-02  0.1300863E+00
          2   -1    0    0  501    0  0.00000000000E+00  0.00000000000E+00  0.79493119811E+03  0.79493119811E+03  0.00000000000E+00 0. -1.
         -2   -1    0    0    0  501 -0.00000000000E+00 -0.00000000000E+00 -0.25943838041E+01  0.25943838041E+01  0.00000000000E+00 0.  1.
         23    2    1    2    0    0  0.00000000000E+00  0.00000000000E+00  0.79233681431E+03  0.79752558191E+03  0.90826353570E+02 0.  0.
          2    1    3    3  502    0 -0.44005319879E+02 -0.52784880276E+01  0.30923165498E+03  0.31239165650E+03  0.00000000000E+00 0. -1.
         -2    1    3    3    0  502  0.44005319879E+02  0.52784880276E+01  0.48310515933E+03  0.48513392541E+03  0.00000000000E+00 0.  1.
<mgrwt>
<rscale>  0 0.90826354E+02</rscale>
<asrwt>0</asrwt>
<pdfrwt beam="1">  1        2 0.12229691E+00 0.90826354E+02</pdfrwt>
<pdfrwt beam="2">  1       -2 0.39913660E-03 0.90826354E+02</pdfrwt>
<totfact> 0.24594837E+05</totfact>
</mgrwt>
</event>
<event>
 5    1  0.3921687E+001  0.8947926E+02  0.7546771E-02  0.1304118E+00
         -1   -1    0    0    0  501 -0.00000000000E+00  0.00000000000E+00  0.34124622315E+01  0.34124622315E+01  0.00000000000E+00 0.  1.
          1   -1    0    0  501    0  0.00000000000E+00 -0.00000000000E+00 -0.58656611272E+03  0.58656611272E+03  0.00000000000E+00 0. -1.
         23    2    1    2    0    0  0.00000000000E+00  0.00000000000E+00 -0.58315365049E+03  0.58997857495E+03  0.89479264770E+02 0.  0.
          2    1    3    3  502    0  0.16063371380E+02 -0.25099340195E+02 -0.51160763673E+03  0.51247476302E+03  0.00000000000E+00 0. -1.
         -2    1    3    3    0  502 -0.16063371380E+02  0.25099340195E+02 -0.71546013763E+02  0.77503811930E+02  0.00000000000E+00 0.  1.
<mgrwt>
<rscale>  0 0.89479265E+02</rscale>
<asrwt>0</asrwt>
<pdfrwt beam="2">  1        1 0.90241012E-01 0.89479265E+02</pdfrwt>
<pdfrwt beam="1">  1       -1 0.52499377E-03 0.89479265E+02</pdfrwt>
<totfact> 0.14858527E+05</totfact>
</mgrwt>
</event>
<event>
 5    1  0.3921687E+001  0.8570982E+02  0.7546771E-02  0.1313587E+00
         -2   -1    0    0    0  501 -0.00000000000E+00  0.00000000000E+00  0.15650401863E+02  0.15650401863E+02  0.00000000000E+00 0.  1.
          2   -1    0    0  501    0  0.00000000000E+00 -0.00000000000E+00 -0.11734800373E+03  0.11734800373E+03  0.00000000000E+00 0. -1.
         23    2    1    2    0    0  0.00000000000E+00  0.00000000000E+00 -0.10169760187E+03  0.13299840559E+03  0.85709822452E+02 0.  0.
          2    1    3    3  502    0 -0.46391739584E+01  0.36787479640E+02 -0.84191219879E+02  0.91994576460E+02  0.00000000000E+00 0. -1.
         -2    1    3    3    0  502  0.46391739584E+01 -0.36787479640E+02 -0.17506381987E+02  0.41003829133E+02  0.00000000000E+00 0.  1.
<mgrwt>
<rscale>  0 0.85709822E+02</rscale>
<asrwt>0</asrwt>
<pdfrwt beam="2">  1        2 0.18053539E-01 0.85709822E+02</pdfrwt>
<pdfrwt beam="1">  1       -2 0.24077541E-02 0.85709822E+02</pdfrwt>
<totfact> 0.15258107E+05</totfact>
</mgrwt>
</event>
<event>
 5    1  0.3921687E+001  0.8995343E+02  0.7546771E-02  0.1302965E+00
          2   -1    0    0  501    0  0.00000000000E+00  0.00000000000E+00  0.16889741323E+04  0.16889741323E+04  0.00000000000E+00 0. -1.
         -2   -1    0    0    0  501 -0.00000000000E+00 -0.00000000000E+00 -0.11977120902E+01  0.11977120902E+01  0.00000000000E+00 0.  1.
         23    2    1    2    0    0  0.00000000000E+00  0.00000000000E+00  0.16877764202E+04  0.16901718444E+04  0.89953426581E+02 0.  0.
          2    1    3    3  502    0  0.48467206747E+01  0.23824748837E+02  0.15548620637E+04  0.15550521363E+04  0.00000000000E+00 0. -1.
         -2    1    3    3    0  502 -0.48467206747E+01 -0.23824748837E+02  0.13291435653E+03  0.13511970815E+03  0.00000000000E+00 0.  1.
<mgrwt>
<rscale>  0 0.89953427E+02</rscale>
<asrwt>0</asrwt>
<pdfrwt beam="1">  1        2 0.25984027E+00 0.89953427E+02</pdfrwt>
<pdfrwt beam="2">  1       -2 0.18426475E-03 0.89953427E+02</pdfrwt>
<totfact> 0.23121808E+05</totfact>
</mgrwt>
</event>
<event>
 5    1  0.3921687E+001  0.9088458E+02  0.7546771E-02  0.1300724E+00
          2   -1    0    0  501    0  0.00000000000E+00  0.00000000000E+00  0.31326335969E+02  0.31326335969E+02  0.00000000000E+00 0. -1.
         -2   -1    0    0    0  501 -0.00000000000E+00 -0.00000000000E+00 -0.65919034262E+02  0.65919034262E+02  0.00000000000E+00 0.  1.
         23    2    1    2    0    0  0.00000000000E+00  0.00000000000E+00 -0.34592698294E+02  0.97245370231E+02  0.90884582060E+02 0.  0.
          2    1    3    3  502    0 -0.23520063146E+02  0.21528885663E+01  0.24243063026E+02  0.33846039717E+02  0.00000000000E+00 0. -1.
         -2    1    3    3    0  502  0.23520063146E+02 -0.21528885663E+01 -0.58835761320E+02  0.63399330515E+02  0.00000000000E+00 0.  1.
<mgrwt>
<rscale>  0 0.90884582E+02</rscale>
<asrwt>0</asrwt>
<pdfrwt beam="1">  1        2 0.48194364E-02 0.90884582E+02</pdfrwt>
<pdfrwt beam="2">  1       -2 0.10141390E-01 0.90884582E+02</pdfrwt>
<totfact> 0.90342912E+04</totfact>
</mgrwt>
</event>
<event>
 5    1  0.3921687E+001  0.8943233E+02  0.7546771E-02  0.1304232E+00
          3   -1    0    0  501    0  0.00000000000E+00  0.00000000000E+00  0.39395745598E+03  0.39395745598E+03  0.00000000000E+00 0. -1.
         -3   -1    0    0    0  501 -0.00000000000E+00 -0.00000000000E+00 -0.50755111515E+01  0.50755111515E+01  0.00000000000E+00 0.  1.
         23    2    1    2    0    0  0.00000000000E+00  0.00000000000E+00  0.38888194483E+03  0.39903296713E+03  0.89432331090E+02 0.  0.
          2    1    3    3  502    0  0.43509593718E+02  0.98138807494E+01  0.20864790191E+03  0.21336200217E+03  0.00000000000E+00 0. -1.
         -2    1    3    3    0  502 -0.43509593718E+02 -0.98138807494E+01  0.18023404292E+03  0.18567096496E+03  0.00000000000E+00 0.  1.
<mgrwt>
<rscale>  0 0.89432331E+02</rscale>
<asrwt>0</asrwt>
<pdfrwt beam="1">  1        3 0.60608815E-01 0.89432331E+02</pdfrwt>
<pdfrwt beam="2">  1       -3 0.78084818E-03 0.89432331E+02</pdfrwt>
<totfact> 0.21736243E+04</totfact>
</mgrwt>
</event>
<event>
 5    1  0.3921687E+001  0.9006700E+02  0.7546771E-02  0.1302690E+00
         -3   -1    0    0    0  501 -0.00000000000E+00  0.00000000000E+00  0.29942099401E+01  0.29942099401E+01  0.00000000000E+00 0.  1.
          3   -1    0    0  501    0  0.00000000000E+00 -0.00000000000E+00 -0.67731266408E+03  0.67731266408E+03  0.00000000000E+00 0. -1.
         23    2    1    2    0    0  0.00000000000E+00  0.00000000000E+00 -0.67431845414E+03  0.68030687402E+03  0.90067004199E+02 0.  0.
          2    1    3    3  502    0 -0.42494196418E+02 -0.17724012561E+01 -0.44896863396E+03  0.45097863853E+03  0.00000000000E+00 0. -1.
         -2    1    3    3    0  502  0.42494196418E+02  0.17724012561E+01 -0.22534982018E+03  0.22932823548E+03  0.00000000000E+00 0.  1.
<mgrwt>
<rscale>  0 0.90067004E+02</rscale>
<asrwt>0</asrwt>
<pdfrwt beam="2">  1        3 0.10420186E+00 0.90067004E+02</pdfrwt>
<pdfrwt beam="1">  1       -3 0.46064809E-03 0.90067004E+02</pdfrwt>
<totfact> 0.14721696E+04</totfact>
</mgrwt>
</event>
<event>
 5    1  0.3921687E+001  0.9029261E+02  0.7546771E-02  0.1302145E+00
          1   -1    0    0  501    0  0.00000000000E+00  0.00000000000E+00  0.35200790796E+03  0.35200790796E+03  0.00000000000E+00 0.  1.
         -1   -1    0    0    0  501 -0.00000000000E+00 -0.00000000000E+00 -0.57901791275E+01  0.57901791275E+01  0.00000000000E+00 0. -1.
         23    2    1    2    0    0  0.00000000000E+00  0.00000000000E+00  0.34621772884E+03  0.35779808709E+03  0.90292609696E+02 0.  0.
          2    1    3    3  502    0  0.16523502192E+02  0.36811620460E+02  0.92864713394E+02  0.10125204452E+03  0.00000000000E+00 0. -1.
         -2    1    3    3    0  502 -0.16523502192E+02 -0.36811620460E+02  0.25335301544E+03  0.25654604257E+03  0.00000000000E+00 0.  1.
<mgrwt>
<rscale>  0 0.90292610E+02</rscale>
<asrwt>0</asrwt>
<pdfrwt beam="1">  1        1 0.54155046E-01 0.90292610E+02</pdfrwt>
<pdfrwt beam="2">  1       -1 0.89079706E-03 0.90292610E+02</pdfrwt>
<totfact> 0.13542821E+05</totfact>
</mgrwt>
</event>
<event>
 5    1  0.3921687E+001  0.7696634E+02  0.7546771E-02  0.1337888E+00
         -1   -1    0    0    0  501 -0.00000000000E+00  0.00000000000E+00  0.36946407027E+02  0.36946407027E+02  0.00000000000E+00 0.  1.
          1   -1    0    0  501    0  0.00000000000E+00 -0.00000000000E+00 -0.40083858679E+02  0.40083858679E+02  0.00000000000E+00 0. -1.
         23    2    1    2    0    0  0.00000000000E+00  0.00000000000E+00 -0.31374516521E+01  0.77030265706E+02  0.76966344800E+02 0.  0.
          2    1    3    3  502    0  0.21987301504E+02  0.30906759133E+02 -0.80768465958E+01  0.38780209366E+02  0.00000000000E+00 0. -1.
         -2    1    3    3    0  502 -0.21987301504E+02 -0.30906759133E+02  0.49393949437E+01  0.38250056340E+02  0.00000000000E+00 0.  1.
<mgrwt>
<rscale>  0 0.76966345E+02</rscale>
<asrwt>0</asrwt>
<pdfrwt beam="2">  1        1 0.61667475E-02 0.76966345E+02</pdfrwt>
<pdfrwt beam="1">  1       -1 0.56840626E-02 0.76966345E+02</pdfrwt>
<totfact> 0.14534173E+05</totfact>
</mgrwt>
</event>
<event>
 5    1  0.3921687E+001  0.9190198E+02  0.7546771E-02  0.1298310E+00
         -4   -1    0    0    0  501 -0.00000000000E+00  0.00000000000E+00  0.26689619859E+03  0.26689619859E+03  0.00000000000E+00 0. -1.
          4   -1    0    0  501    0  0.00000000000E+00 -0.00000000000E+00 -0.79112905929E+01  0.79112905929E+01  0.00000000000E+00 0.  1.
         23    2    1    2    0    0  0.00000000000E+00  0.00000000000E+00  0.25898490800E+03  0.27480748918E+03  0.91901977893E+02 0.  0.
          2    1    3    3  502    0 -0.58855086633E+01 -0.42459888331E+02  0.17899055545E+03  0.18405189559E+03  0.00000000000E+00 0.  1.
         -2    1    3    3    0  502  0.58855086633E+01  0.42459888331E+02  0.79994352550E+02  0.90755593598E+02  0.00000000000E+00 0. -1.
<mgrwt>
<rscale>  0 0.91901978E+02</rscale>
<asrwt>0</asrwt>
<pdfrwt beam="2">  1        4 0.12171218E-02 0.91901978E+02</pdfrwt>
<pdfrwt beam="1">  1       -4 0.41060947E-01 0.91901978E+02</pdfrwt>
<totfact> 0.18228197E+04</totfact>
</mgrwt>
</event>
<event>
 5    1  0.3921687E+001  0.9446300E+02  0.7546771E-02  0.1292390E+00
         -1   -1    0    0    0  501 -0.00000000000E+00  0.00000000000E+00  0.83969668100E+03  0.83969668100E+03  0.00000000000E+00 0.  1.
          1   -1    0    0  501    0  0.00000000000E+00 -0.00000000000E+00 -0.26566907936E+01  0.26566907936E+01  0.00000000000E+00 0. -1.
         23    2    1    2    0    0  0.00000000000E+00  0.00000000000E+00  0.83703999021E+03  0.84235337179E+03  0.94462996815E+02 0.  0.
          2    1    3    3  502    0 -0.41359506656E+02  0.22248160771E+02  0.37373339150E+03  0.37667258643E+03  0.00000000000E+00 0. -1.
         -2    1    3    3    0  502  0.41359506656E+02 -0.22248160771E+02  0.46330659871E+03  0.46568078536E+03  0.00000000000E+00 0.  1.
<mgrwt>
<rscale>  0 0.94462997E+02</rscale>
<asrwt>0</asrwt>
<pdfrwt beam="2">  1        1 0.40872233E-03 0.94462997E+02</pdfrwt>
<pdfrwt beam="1">  1       -1 0.12918389E+00 0.94462997E+02</pdfrwt>
<totfact> 0.28352657E+04</totfact>
</mgrwt>
</event>
<event>
 5    1  0.3921687E+001  0.9350298E+02  0.7546771E-02  0.1294584E+00
          1   -1    0    0  501    0  0.00000000000E+00  0.00000000000E+00  0.49459335505E+02  0.49459335505E+02  0.00000000000E+00 0. -1.
         -1   -1    0    0    0  501 -0.00000000000E+00 -0.00000000000E+00 -0.44191899187E+02  0.44191899187E+02  0.00000000000E+00 0.  1.
         23    2    1    2    0    0  0.00000000000E+00  0.00000000000E+00  0.52674363173E+01  0.93651234692E+02  0.93502983236E+02 0.  0.
          2    1    3    3  502    0  0.22300825139E+02 -0.38911164257E+02  0.15856789066E+02  0.47569352163E+02  0.00000000000E+00 0. -1.
         -2    1    3    3    0  502 -0.22300825139E+02  0.38911164257E+02 -0.10589352749E+02  0.46081882529E+02  0.00000000000E+00 0.  1.
<mgrwt>
<rscale>  0 0.93502983E+02</rscale>
<asrwt>0</asrwt>
<pdfrwt beam="1">  1        1 0.76091285E-02 0.93502983E+02</pdfrwt>
<pdfrwt beam="2">  1       -1 0.67987538E-02 0.93502983E+02</pdfrwt>
<totfact> 0.87224704E+04</totfact>
</mgrwt>
</event>
<event>
 5    1  0.3921687E+001  0.9599942E+02  0.7546771E-02  0.1288941E+00
         -1   -1    0    0    0  501 -0.00000000000E+00  0.00000000000E+00  0.79585592118E+01  0.79585592118E+01  0.00000000000E+00 0.  1.
          1   -1    0    0  501    0  0.00000000000E+00 -0.00000000000E+00 -0.28949616537E+03  0.28949616537E+03  0.00000000000E+00 0. -1.
         23    2    1    2    0    0  0.00000000000E+00  0.00000000000E+00 -0.28153760616E+03  0.29745472459E+03  0.95999424450E+02 0.  0.
          2    1    3    3  502    0  0.36483943969E+02  0.81053183003E+01 -0.23409493999E+03  0.23705951844E+03  0.00000000000E+00 0. -1.
         -2    1    3    3    0  502 -0.36483943969E+02 -0.81053183003E+01 -0.47442666172E+02  0.60395206149E+02  0.00000000000E+00 0.  1.
<mgrwt>
<rscale>  0 0.95999424E+02</rscale>
<asrwt>0</asrwt>
<pdfrwt beam="2">  1        1 0.44537878E-01 0.95999424E+02</pdfrwt>
<pdfrwt beam="1">  1       -1 0.12243936E-02 0.95999424E+02</pdfrwt>
<totfact> 0.11086494E+05</totfact>
</mgrwt>
</event>
<event>
 5    1  0.3921687E+001  0.9245291E+02  0.7546771E-02  0.1297018E+00
         -1   -1    0    0    0  501 -0.00000000000E+00  0.00000000000E+00  0.30506056282E+01  0.30506056282E+01  0.00000000000E+00 0.  1.
          1   -1    0    0  501    0  0.00000000000E+00 -0.00000000000E+00 -0.70047901977E+03  0.70047901977E+03  0.00000000000E+00 0. -1.
         23    2    1    2    0    0  0.00000000000E+00  0.00000000000E+00 -0.69742841414E+03  0.70352962540E+03  0.92452912126E+02 0.  0.
          2    1    3    3  502    0 -0.11610710135E+02  0.16848903001E+02 -0.66414023690E+03  0.66445537727E+03  0.00000000000E+00 0. -1.
         -2    1    3    3    0  502  0.11610710135E+02 -0.16848903001E+02 -0.33288177243E+02  0.39074248123E+02  0.00000000000E+00 0.  1.
<mgrwt>
<rscale>  0 0.92452912E+02</rscale>
<asrwt>0</asrwt>
<pdfrwt beam="2">  1        1 0.10776586E+00 0.92452912E+02</pdfrwt>
<pdfrwt beam="1">  1       -1 0.46932454E-03 0.92452912E+02</pdfrwt>
<totfact> 0.13703862E+05</totfact>
</mgrwt>
</event>
<event>
 5    1  0.3921687E+001  0.8720448E+02  0.7546771E-02  0.1309766E+00
         -4   -1    0    0    0  501 -0.00000000000E+00  0.00000000000E+00  0.56004691174E+01  0.56004691174E+01  0.00000000000E+00 0.  1.
          4   -1    0    0  501    0  0.00000000000E+00 -0.00000000000E+00 -0.33946360662E+03  0.33946360662E+03  0.00000000000E+00 0. -1.
         23    2    1    2    0    0  0.00000000000E+00  0.00000000000E+00 -0.33386313750E+03  0.34506407574E+03  0.87204482577E+02 0.  0.
          2    1    3    3  502    0  0.25332215395E+02 -0.67015664411E+01 -0.30483144182E+03  0.30595561778E+03  0.00000000000E+00 0. -1.
         -2    1    3    3    0  502 -0.25332215395E+02  0.67015664411E+01 -0.29031695686E+02  0.39108457960E+02  0.00000000000E+00 0.  1.
<mgrwt>
<rscale>  0 0.87204483E+02</rscale>
<asrwt>0</asrwt>
<pdfrwt beam="2">  1        4 0.52225187E-01 0.87204483E+02</pdfrwt>
<pdfrwt beam="1">  1       -4 0.86161035E-03 0.87204483E+02</pdfrwt>
<totfact> 0.18591105E+04</totfact>
</mgrwt>
</event>
<event>
 5    1  0.3921687E+001  0.8934029E+02  0.7546771E-02  0.1304457E+00
          1   -1    0    0  501    0  0.00000000000E+00  0.00000000000E+00  0.22783783772E+04  0.22783783772E+04  0.00000000000E+00 0. -1.
         -1   -1    0    0    0  501 -0.00000000000E+00 -0.00000000000E+00 -0.87580794441E+00  0.87580794441E+00  0.00000000000E+00 0.  1.
         23    2    1    2    0    0  0.00000000000E+00  0.00000000000E+00  0.22775025692E+04  0.22792541851E+04  0.89340290644E+02 0.  0.
          2    1    3    3  502    0  0.35031132186E+02  0.14163951157E+02  0.17465724678E+04  0.17469811628E+04  0.00000000000E+00 0. -1.
         -2    1    3    3    0  502 -0.35031132186E+02 -0.14163951157E+02  0.53093010142E+03  0.53227302236E+03  0.00000000000E+00 0.  1.
<mgrwt>
<rscale>  0 0.89340291E+02</rscale>
<asrwt>0</asrwt>
<pdfrwt beam="1">  1        1 0.35051501E+00 0.89340291E+02</pdfrwt>
<pdfrwt beam="2">  1       -1 0.13474151E-03 0.89340291E+02</pdfrwt>
<totfact> 0.67302015E+04</totfact>
</mgrwt>
</event>
<event>
 5    1  0.3921687E+001  0.9158877E+02  0.7546771E-02  0.1299049E+00
          1   -1    0    0  501    0  0.00000000000E+00  0.00000000000E+00  0.55678776452E+02  0.55678776452E+02  0.00000000000E+00 0. -1.
         -1   -1    0    0    0  501 -0.00000000000E+00 -0.00000000000E+00 -0.37664724262E+02  0.37664724262E+02  0.00000000000E+00 0.  1.
         23    2    1    2    0    0  0.00000000000E+00  0.00000000000E+00  0.18014052191E+02  0.93343500714E+02  0.91588771415E+02 0.  0.
          2    1    3    3  502    0  0.41354871496E+01 -0.25543279818E+02  0.47514027452E+02  0.54103088659E+02  0.00000000000E+00 0. -1.
         -2    1    3    3    0  502 -0.41354871496E+01  0.25543279818E+02 -0.29499975261E+02  0.39240412055E+02  0.00000000000E+00 0.  1.
<mgrwt>
<rscale>  0 0.91588771E+02</rscale>
<asrwt>0</asrwt>
<pdfrwt beam="1">  1        1 0.85659656E-02 0.91588771E+02</pdfrwt>
<pdfrwt beam="2">  1       -1 0.57945730E-02 0.91588771E+02</pdfrwt>
<totfact> 0.94101583E+04</totfact>
</mgrwt>
</event>
<event>
 5    1  0.3921687E+001  0.8693595E+02  0.7546771E-02  0.1310446E+00
         -1   -1    0    0    0  501 -0.00000000000E+00  0.00000000000E+00  0.23601509576E+02  0.23601509576E+02  0.00000000000E+00 0.  1.
          1   -1    0    0  501    0  0.00000000000E+00 -0.00000000000E+00 -0.80056940886E+02  0.80056940886E+02  0.00000000000E+00 0. -1.
         23    2    1    2    0    0  0.00000000000E+00  0.00000000000E+00 -0.56455431310E+02  0.10365845046E+03  0.86935945544E+02 0.  0.
          2    1    3    3  502    0  0.26019120593E+02 -0.29970907651E+02 -0.70919205404E+01  0.40318051526E+02  0.00000000000E+00 0. -1.
         -2    1    3    3    0  502 -0.26019120593E+02  0.29970907651E+02 -0.49363510770E+02  0.63340398936E+02  0.00000000000E+00 0.  1.
<mgrwt>
<rscale>  0 0.86935946E+02</rscale>
<asrwt>0</asrwt>
<pdfrwt beam="2">  1        1 0.12316452E-01 0.86935946E+02</pdfrwt>
<pdfrwt beam="1">  1       -1 0.36310015E-02 0.86935946E+02</pdfrwt>
<totfact> 0.11476591E+05</totfact>
</mgrwt>
</event>
<event>
 5    1  0.3921687E+001  0.9052858E+02  0.7546771E-02  0.1301577E+00
         -3   -1    0    0    0  501 -0.00000000000E+00  0.00000000000E+00  0.11804659464E+02  0.11804659464E+02  0.00000000000E+00 0.  1.
          3   -1    0    0  501    0  0.00000000000E+00 -0.00000000000E+00 -0.17356331182E+03  0.17356331182E+03  0.00000000000E+00 0. -1.
         23    2    1    2    0    0  0.00000000000E+00  0.00000000000E+00 -0.16175865235E+03  0.18536797128E+03  0.90528576515E+02 0.  0.
          2    1    3    3  502    0 -0.25631740014E+02 -0.36844535766E+02 -0.68878487032E+02  0.82211628665E+02  0.00000000000E+00 0.  1.
         -2    1    3    3    0  502  0.25631740014E+02  0.36844535766E+02 -0.92880165322E+02  0.10315634262E+03  0.00000000000E+00 0. -1.
<mgrwt>
<rscale>  0 0.90528577E+02</rscale>
<asrwt>0</asrwt>
<pdfrwt beam="2">  1        3 0.26702047E-01 0.90528577E+02</pdfrwt>
<pdfrwt beam="1">  1       -3 0.18161015E-02 0.90528577E+02</pdfrwt>
<totfact> 0.29841678E+04</totfact>
</mgrwt>
</event>
<event>
 5    1  0.3921687E+001  0.9010588E+02  0.7546771E-02  0.1302595E+00
         -2   -1    0    0    0  501 -0.00000000000E+00  0.00000000000E+00  0.29943555576E+01  0.29943555576E+01  0.00000000000E+00 0.  1.
          2   -1    0    0  501    0  0.00000000000E+00 -0.00000000000E+00 -0.67786454317E+03  0.67786454317E+03  0.00000000000E+00 0. -1.
         23    2    1    2    0    0  0.00000000000E+00  0.00000000000E+00 -0.67487018761E+03  0.68085889873E+03  0.90105881321E+02 0.  0.
          2    1    3    3  502    0  0.38836561429E+02 -0.18749386793E+02 -0.23892882591E+03  0.24278962470E+03  0.00000000000E+00 0. -1.
         -2    1    3    3    0  502 -0.38836561429E+02  0.18749386793E+02 -0.43594136170E+03  0.43806927403E+03  0.00000000000E+00 0.  1.
<mgrwt>
<rscale>  0 0.90105881E+02</rscale>
<asrwt>0</asrwt>
<pdfrwt beam="2">  1        2 0.10428695E+00 0.90105881E+02</pdfrwt>
<pdfrwt beam="1">  1       -2 0.46066967E-03 0.90105881E+02</pdfrwt>
<totfact> 0.24277591E+05</totfact>
</mgrwt>
</event>
<event>
 5    1  0.3921687E+001  0.9118865E+02  0.7546771E-02  0.1299998E+00
         -1   -1    0    0    0  501 -0.00000000000E+00  0.00000000000E+00  0.17536629509E+02  0.17536629509E+02  0.00000000000E+00 0.  1.
          1   -1    0    0  501    0  0.00000000000E+00 -0.00000000000E+00 -0.11854287212E+03  0.11854287212E+03  0.00000000000E+00 0. -1.
         23    2    1    2    0    0  0.00000000000E+00  0.00000000000E+00 -0.10100624262E+03  0.13607950163E+03  0.91188649062E+02 0.  0.
          2    1    3    3  502    0 -0.26266379574E+02 -0.13632306083E+02 -0.10226370623E+03  0.10645951379E+03  0.00000000000E+00 0. -1.
         -2    1    3    3    0  502  0.26266379574E+02  0.13632306083E+02  0.12574636133E+01  0.29619987843E+02  0.00000000000E+00 0.  1.
<mgrwt>
<rscale>  0 0.91188649E+02</rscale>
<asrwt>0</asrwt>
<pdfrwt beam="2">  1        1 0.18237365E-01 0.91188649E+02</pdfrwt>
<pdfrwt beam="1">  1       -1 0.26979430E-02 0.91188649E+02</pdfrwt>
<totfact> 0.10747286E+05</totfact>
</mgrwt>
</event>
<event>
 5    1  0.3921687E+001  0.9293344E+02  0.7546771E-02  0.1295900E+00
         -1   -1    0    0    0  501 -0.00000000000E+00  0.00000000000E+00  0.15299576933E+02  0.15299576933E+02  0.00000000000E+00 0.  1.
          1   -1    0    0  501    0  0.00000000000E+00 -0.00000000000E+00 -0.14112520374E+03  0.14112520374E+03  0.00000000000E+00 0. -1.
         23    2    1    2    0    0  0.00000000000E+00  0.00000000000E+00 -0.12582562681E+03  0.15642478068E+03  0.92933436651E+02 0.  0.
          2    1    3    3  502    0  0.15121969938E+02  0.14535157266E+02 -0.13270361163E+03  0.13435100785E+03  0.00000000000E+00 0. -1.
         -2    1    3    3    0  502 -0.15121969938E+02 -0.14535157266E+02  0.68779848187E+01  0.22073772825E+02  0.00000000000E+00 0.  1.
<mgrwt>
<rscale>  0 0.92933437E+02</rscale>
<asrwt>0</asrwt>
<pdfrwt beam="2">  1        1 0.21711569E-01 0.92933437E+02</pdfrwt>
<pdfrwt beam="1">  1       -1 0.23537811E-02 0.92933437E+02</pdfrwt>
<totfact> 0.10530827E+05</totfact>
</mgrwt>
</event>
<event>
 5    1  0.3921687E+001  0.9349897E+02  0.7546771E-02  0.1294593E+00
         -1   -1    0    0    0  501 -0.00000000000E+00  0.00000000000E+00  0.12427949112E+03  0.12427949112E+03  0.00000000000E+00 0.  1.
          1   -1    0    0  501    0  0.00000000000E+00 -0.00000000000E+00 -0.17585478204E+02  0.17585478204E+02  0.00000000000E+00 0. -1.
         23    2    1    2    0    0  0.00000000000E+00  0.00000000000E+00  0.10669401292E+03  0.14186496932E+03  0.93498968599E+02 0.  0.
          2    1    3    3  502    0  0.27663524597E+02 -0.34104215092E+02  0.29016093473E+02  0.52633656159E+02  0.00000000000E+00 0. -1.
         -2    1    3    3    0  502 -0.27663524597E+02  0.34104215092E+02  0.77677919443E+02  0.89231313165E+02  0.00000000000E+00 0.  1.
<mgrwt>
<rscale>  0 0.93498969E+02</rscale>
<asrwt>0</asrwt>
<pdfrwt beam="2">  1        1 0.27054583E-02 0.93498969E+02</pdfrwt>
<pdfrwt beam="1">  1       -1 0.19119921E-01 0.93498969E+02</pdfrwt>
<totfact> 0.73046234E+04</totfact>
</mgrwt>
</event>
<event>
 5    1  0.3921687E+001  0.9018832E+02  0.7546771E-02  0.1302396E+00
          1   -1    0    0  501    0  0.00000000000E+00  0.00000000000E+00  0.10856866608E+03  0.10856866608E+03  0.00000000000E+00 0. -1.
         -1   -1    0    0    0  501 -0.00000000000E+00 -0.00000000000E+00 -0.18729929759E+02  0.18729929759E+02  0.00000000000E+00 0.  1.
         23    2    1    2    0    0  0.00000000000E+00  0.00000000000E+00  0.89838736321E+02  0.12729859584E+03  0.90188324959E+02 0.  0.
          2    1    3    3  502    0 -0.39017568370E+02 -0.15849551163E+01  0.76751212103E+02  0.86114059732E+02  0.00000000000E+00 0. -1.
         -2    1    3    3    0  502  0.39017568370E+02  0.15849551163E+01  0.13087524218E+02  0.41184536108E+02  0.00000000000E+00 0.  1.
<mgrwt>
<rscale>  0 0.90188325E+02</rscale>
<asrwt>0</asrwt>
<pdfrwt beam="1">  1        1 0.16702871E-01 0.90188325E+02</pdfrwt>
<pdfrwt beam="2">  1       -1 0.28815277E-02 0.90188325E+02</pdfrwt>
<totfact> 0.10908604E+05</totfact>
</mgrwt>
</event>
<event>
 5    1  0.3921687E+001  0.9267399E+02  0.7546771E-02  0.1296502E+00
          4   -1    0    0  501    0  0.00000000000E+00  0.00000000000E+00  0.12401722825E+03  0.12401722825E+03  0.00000000000E+00 0. -1.
         -4   -1    0    0    0  501 -0.00000000000E+00 -0.00000000000E+00 -0.17313055900E+02  0.17313055900E+02  0.00000000000E+00 0.  1.
         23    2    1    2    0    0  0.00000000000E+00  0.00000000000E+00  0.10670417235E+03  0.14133028415E+03  0.92673992151E+02 0.  0.
          2    1    3    3  502    0 -0.17527752997E+02  0.41553664958E+02  0.37127352744E+02  0.58415490397E+02  0.00000000000E+00 0. -1.
         -2    1    3    3    0  502  0.17527752997E+02 -0.41553664958E+02  0.69576819609E+02  0.82914793756E+02  0.00000000000E+00 0.  1.
<mgrwt>
<rscale>  0 0.92673992E+02</rscale>
<asrwt>0</asrwt>
<pdfrwt beam="1">  1        4 0.19079573E-01 0.92673992E+02</pdfrwt>
<pdfrwt beam="2">  1       -4 0.26635471E-02 0.92673992E+02</pdfrwt>
<totfact> 0.23077867E+04</totfact>
</mgrwt>
</event>
<event>
 5    1  0.3921687E+001  0.9101227E+02  0.7546771E-02  0.1300419E+00
         -1   -1    0    0    0  501 -0.00000000000E+00  0.00000000000E+00  0.41481734996E+01  0.41481734996E+01  0.00000000000E+00 0.  1.
          1   -1    0    0  501    0  0.00000000000E+00 -0.00000000000E+00 -0.49920967747E+03  0.49920967747E+03  0.00000000000E+00 0. -1.
         23    2    1    2    0    0  0.00000000000E+00  0.00000000000E+00 -0.49506150397E+03  0.50335785097E+03  0.91012270707E+02 0.  0.
          2    1    3    3  502    0 -0.39449713055E+02 -0.22582424131E+02 -0.25934439412E+03  0.26329785511E+03  0.00000000000E+00 0. -1.
         -2    1    3    3    0  502  0.39449713055E+02  0.22582424131E+02 -0.23571710985E+03  0.24005999586E+03  0.00000000000E+00 0.  1.
<mgrwt>
<rscale>  0 0.91012271E+02</rscale>
<asrwt>0</asrwt>
<pdfrwt beam="2">  1        1 0.76801413E-01 0.91012271E+02</pdfrwt>
<pdfrwt beam="1">  1       -1 0.63818117E-03 0.91012271E+02</pdfrwt>
<totfact> 0.13990736E+05</totfact>
</mgrwt>
</event>
<event>
 5    1  0.3921687E+001  0.9495761E+02  0.7546771E-02  0.1291272E+00
         -2   -1    0    0    0  501 -0.00000000000E+00  0.00000000000E+00  0.29559715046E+03  0.29559715046E+03  0.00000000000E+00 0.  1.
          2   -1    0    0  501    0  0.00000000000E+00 -0.00000000000E+00 -0.76260434923E+01  0.76260434923E+01  0.00000000000E+00 0. -1.
         23    2    1    2    0    0  0.00000000000E+00  0.00000000000E+00  0.28797110697E+03  0.30322319395E+03  0.94957605817E+02 0.  0.
          2    1    3    3  502    0  0.63514482135E+01 -0.44047424172E+02  0.19681622487E+03  0.20178489250E+03  0.00000000000E+00 0. -1.
         -2    1    3    3    0  502 -0.63514482135E+01  0.44047424172E+02  0.91154882100E+02  0.10143830145E+03  0.00000000000E+00 0.  1.
<mgrwt>
<rscale>  0 0.94957606E+02</rscale>
<asrwt>0</asrwt>
<pdfrwt beam="2">  1        2 0.11732377E-02 0.94957606E+02</pdfrwt>
<pdfrwt beam="1">  1       -2 0.45476476E-01 0.94957606E+02</pdfrwt>
<totfact> 0.46310080E+04</totfact>
</mgrwt>
</event>
<event>
 5    1  0.3921687E+001  0.9051689E+02  0.7546771E-02  0.1301605E+00
         -2   -1    0    0    0  501 -0.00000000000E+00  0.00000000000E+00  0.46894857913E+03  0.46894857913E+03  0.00000000000E+00 0.  1.
          2   -1    0    0  501    0  0.00000000000E+00 -0.00000000000E+00 -0.43679133956E+01  0.43679133956E+01  0.00000000000E+00 0. -1.
         23    2    1    2    0    0  0.00000000000E+00  0.00000000000E+00  0.46458066574E+03  0.47331649253E+03  0.90516888604E+02 0.  0.
          2    1    3    3  502    0 -0.32985426201E+02 -0.18781748571E+02  0.10340382918E+03  0.11015055293E+03  0.00000000000E+00 0. -1.
         -2    1    3    3    0  502  0.32985426201E+02  0.18781748571E+02  0.36117683656E+03  0.36316593960E+03  0.00000000000E+00 0.  1.
<mgrwt>
<rscale>  0 0.90516889E+02</rscale>
<asrwt>0</asrwt>
<pdfrwt beam="2">  1        2 0.67198705E-03 0.90516889E+02</pdfrwt>
<pdfrwt beam="1">  1       -2 0.72145895E-01 0.90516889E+02</pdfrwt>
<totfact> 0.38847555E+04</totfact>
</mgrwt>
</event>
<event>
 5    1  0.3921687E+001  0.9198890E+02  0.7546771E-02  0.1298106E+00
         -2   -1    0    0    0  501 -0.00000000000E+00  0.00000000000E+00  0.26884895112E+01  0.26884895112E+01  0.00000000000E+00 0.  1.
          2   -1    0    0  501    0  0.00000000000E+00 -0.00000000000E+00 -0.78686914217E+03  0.78686914217E+03  0.00000000000E+00 0. -1.
         23    2    1    2    0    0  0.00000000000E+00  0.00000000000E+00 -0.78418065266E+03  0.78955763168E+03  0.91988900099E+02 0.  0.
          2    1    3    3  502    0  0.89689870028E+01 -0.17971278321E+02 -0.74723918165E+03  0.74750906627E+03  0.00000000000E+00 0. -1.
         -2    1    3    3    0  502 -0.89689870028E+01  0.17971278321E+02 -0.36941471011E+02  0.42048565407E+02  0.00000000000E+00 0.  1.
<mgrwt>
<rscale>  0 0.91988900E+02</rscale>
<asrwt>0</asrwt>
<pdfrwt beam="2">  1        2 0.12105701E+00 0.91988900E+02</pdfrwt>
<pdfrwt beam="1">  1       -2 0.41361304E-03 0.91988900E+02</pdfrwt>
<totfact> 0.23739950E+05</totfact>
</mgrwt>
</event>
<event>
 5    1  0.3921687E+001  0.9128759E+02  0.7546771E-02  0.1299763E+00
         -2   -1    0    0    0  501 -0.00000000000E+00  0.00000000000E+00  0.15928633514E+02  0.15928633514E+02  0.00000000000E+00 0.  1.
          2   -1    0    0  501    0  0.00000000000E+00 -0.00000000000E+00 -0.13079312782E+03  0.13079312782E+03  0.00000000000E+00 0. -1.
         23    2    1    2    0    0  0.00000000000E+00  0.00000000000E+00 -0.11486449430E+03  0.14672176133E+03  0.91287585118E+02 0.  0.
          2    1    3    3  502    0  0.43112348899E+02  0.25243459179E+01 -0.81179779256E+02  0.91952180561E+02  0.00000000000E+00 0. -1.
         -2    1    3    3    0  502 -0.43112348899E+02 -0.25243459179E+01 -0.33684715045E+02  0.54769580769E+02  0.00000000000E+00 0.  1.
<mgrwt>
<rscale>  0 0.91287585E+02</rscale>
<asrwt>0</asrwt>
<pdfrwt beam="2">  1        2 0.20122019E-01 0.91287585E+02</pdfrwt>
<pdfrwt beam="1">  1       -2 0.24505591E-02 0.91287585E+02</pdfrwt>
<totfact> 0.13310547E+05</totfact>
</mgrwt>
</event>
<event>
 5    1  0.3921687E+001  0.9137862E+02  0.7546771E-02  0.1299547E+00
          2   -1    0    0  501    0  0.00000000000E+00  0.00000000000E+00  0.32118600696E+02  0.32118600696E+02  0.00000000000E+00 0. -1.
         -2   -1    0    0    0  501 -0.00000000000E+00 -0.00000000000E+00 -0.64993899423E+02  0.64993899423E+02  0.00000000000E+00 0.  1.
         23    2    1    2    0    0  0.00000000000E+00  0.00000000000E+00 -0.32875298727E+02  0.97112500119E+02  0.91378621204E+02 0.  0.
          2    1    3    3  502    0 -0.11683786660E+02 -0.23105628683E+02  0.23569325239E+02  0.35012769667E+02  0.00000000000E+00 0. -1.
         -2    1    3    3    0  502  0.11683786660E+02  0.23105628683E+02 -0.56444623966E+02  0.62099730452E+02  0.00000000000E+00 0.  1.
<mgrwt>
<rscale>  0 0.91378621E+02</rscale>
<asrwt>0</asrwt>
<pdfrwt beam="1">  1        2 0.49413233E-02 0.91378621E+02</pdfrwt>
<pdfrwt beam="2">  1       -2 0.99990613E-02 0.91378621E+02</pdfrwt>
<totfact> 0.89496773E+04</totfact>
</mgrwt>
</event>
<event>
 5    1  0.3921687E+001  0.9095366E+02  0.7546771E-02  0.1300559E+00
          2   -1    0    0  501    0  0.00000000000E+00  0.00000000000E+00  0.23262135518E+03  0.23262135518E+03  0.00000000000E+00 0. -1.
         -2   -1    0    0    0  501 -0.00000000000E+00 -0.00000000000E+00 -0.88905932896E+01  0.88905932896E+01  0.00000000000E+00 0.  1.
         23    2    1    2    0    0  0.00000000000E+00  0.00000000000E+00  0.22373076189E+03  0.24151194847E+03  0.90953655438E+02 0.  0.
          2    1    3    3  502    0 -0.28409643699E+02  0.33404512238E+02  0.79871955529E+02  0.91118047460E+02  0.00000000000E+00 0. -1.
         -2    1    3    3    0  502  0.28409643699E+02 -0.33404512238E+02  0.14385880636E+03  0.15039390101E+03  0.00000000000E+00 0.  1.
<mgrwt>
<rscale>  0 0.90953655E+02</rscale>
<asrwt>0</asrwt>
<pdfrwt beam="1">  1        2 0.35787896E-01 0.90953655E+02</pdfrwt>
<pdfrwt beam="2">  1       -2 0.13677838E-02 0.90953655E+02</pdfrwt>
<totfact> 0.16453288E+05</totfact>
</mgrwt>
</event>
<event>
 5    1  0.3921687E+001  0.9173925E+02  0.7546771E-02  0.1298694E+00
          2   -1    0    0  501    0  0.00000000000E+00  0.00000000000E+00  0.15437427043E+04  0.15437427043E+04  0.00000000000E+00 0. -1.
         -2   -1    0    0    0  501 -0.00000000000E+00 -0.00000000000E+00 -0.13629359724E+01  0.13629359724E+01  0.00000000000E+00 0.  1.
         23    2    1    2    0    0  0.00000000000E+00  0.00000000000E+00  0.15423797683E+04  0.15451056403E+04  0.91739249262E+02 0.  0.
          2    1    3    3  502    0 -0.29390424065E+02 -0.11828005666E+02  0.13298700244E+04  0.13302473382E+04  0.00000000000E+00 0. -1.
         -2    1    3    3    0  502  0.29390424065E+02  0.11828005666E+02  0.21250974388E+03  0.21485830212E+03  0.00000000000E+00 0.  1.
<mgrwt>
<rscale>  0 0.91739249E+02</rscale>
<asrwt>0</asrwt>
<pdfrwt beam="1">  1        2 0.23749748E+00 0.91739249E+02</pdfrwt>
<pdfrwt beam="2">  1       -2 0.20968369E-03 0.91739249E+02</pdfrwt>
<totfact> 0.22952039E+05</totfact>
</mgrwt>
</event>
<event>
 5    1  0.3921687E+001  0.9136560E+02  0.7546771E-02  0.1299578E+00
          1   -1    0    0  501    0  0.00000000000E+00  0.00000000000E+00  0.10376972422E+04  0.10376972422E+04  0.00000000000E+00 0. -1.
         -1   -1    0    0    0  501 -0.00000000000E+00 -0.00000000000E+00 -0.20111052885E+01  0.20111052885E+01  0.00000000000E+00 0.  1.
         23    2    1    2    0    0  0.00000000000E+00  0.00000000000E+00  0.10356861369E+04  0.10397083475E+04  0.91365604285E+02 0.  0.
          2    1    3    3  502    0 -0.35706082864E+02 -0.27757373344E+02  0.44451514058E+03  0.44680992192E+03  0.00000000000E+00 0. -1.
         -2    1    3    3    0  502  0.35706082864E+02  0.27757373344E+02  0.59117099633E+03  0.59289842556E+03  0.00000000000E+00 0.  1.
<mgrwt>
<rscale>  0 0.91365604E+02</rscale>
<asrwt>0</asrwt>
<pdfrwt beam="1">  1        1 0.15964530E+00 0.91365604E+02</pdfrwt>
<pdfrwt beam="2">  1       -1 0.30940164E-03 0.91365604E+02</pdfrwt>
<totfact> 0.13385895E+05</totfact>
</mgrwt>
</event>
<event>
 5    1  0.3921687E+001  0.9076465E+02  0.7546771E-02  0.1301010E+00
          1   -1    0    0  501    0  0.00000000000E+00  0.00000000000E+00  0.59112247112E+03  0.59112247112E+03  0.00000000000E+00 0. -1.
         -1   -1    0    0    0  501 -0.00000000000E+00 -0.00000000000E+00 -0.34841437213E+01  0.34841437213E+01  0.00000000000E+00 0.  1.
         23    2    1    2    0    0  0.00000000000E+00  0.00000000000E+00  0.58763832740E+03  0.59460661484E+03  0.90764654934E+02 0.  0.
          2    1    3    3  502    0 -0.47465468133E+01  0.43660736263E+02  0.36873273058E+03  0.37133895056E+03  0.00000000000E+00 0. -1.
         -2    1    3    3    0  502  0.47465468133E+01 -0.43660736263E+02  0.21890559682E+03  0.22326766429E+03  0.00000000000E+00 0.  1.
<mgrwt>
<rscale>  0 0.90764655E+02</rscale>
<asrwt>0</asrwt>
<pdfrwt beam="1">  1        1 0.90941839E-01 0.90764655E+02</pdfrwt>
<pdfrwt beam="2">  1       -1 0.53602258E-03 0.90764655E+02</pdfrwt>
<totfact> 0.14316149E+05</totfact>
</mgrwt>
</event>
<event>
 5    1  0.3921687E+001  0.9015401E+02  0.7546771E-02  0.1302479E+00
          1   -1    0    0  501    0  0.00000000000E+00  0.00000000000E+00  0.23106407546E+03  0.23106407546E+03  0.00000000000E+00 0. -1.
         -1   -1    0    0    0  501 -0.00000000000E+00 -0.00000000000E+00 -0.87938216741E+01  0.87938216741E+01  0.00000000000E+00 0.  1.
         23    2    1    2    0    0  0.00000000000E+00  0.00000000000E+00  0.22227025378E+03  0.23985789713E+03  0.90154007673E+02 0.  0.
          2    1    3    3  502    0 -0.64631599492E+01  0.36495978436E+02  0.17939262465E+03  0.18318144736E+03  0.00000000000E+00 0. -1.
         -2    1    3    3    0  502  0.64631599492E+01 -0.36495978436E+02  0.42877629134E+02  0.56676449771E+02  0.00000000000E+00 0.  1.
<mgrwt>
<rscale>  0 0.90154008E+02</rscale>
<asrwt>0</asrwt>
<pdfrwt beam="1">  1        1 0.35548315E-01 0.90154008E+02</pdfrwt>
<pdfrwt beam="2">  1       -1 0.13528958E-02 0.90154008E+02</pdfrwt>
<totfact> 0.12551140E+05</totfact>
</mgrwt>
</event>
<event>
 5    1  0.3921687E+001  0.9073590E+02  0.7546771E-02  0.1301079E+00
          4   -1    0    0  501    0  0.00000000000E+00  0.00000000000E+00  0.10766507348E+03  0.10766507348E+03  0.00000000000E+00 0. -1.
         -4   -1    0    0    0  501 -0.00000000000E+00 -0.00000000000E+00 -0.19117162833E+02  0.19117162833E+02  0.00000000000E+00 0.  1.
         23    2    1    2    0    0  0.00000000000E+00  0.00000000000E+00  0.88547910644E+02  0.12678223631E+03  0.90735896778E+02 0.  0.
          2    1    3    3  502    0  0.24990635516E+02  0.34021074076E+02  0.67499089783E+02  0.79612137682E+02  0.00000000000E+00 0. -1.
         -2    1    3    3    0  502 -0.24990635516E+02 -0.34021074076E+02  0.21048820861E+02  0.47170098626E+02  0.00000000000E+00 0.  1.
<mgrwt>
<rscale>  0 0.90735897E+02</rscale>
<asrwt>0</asrwt>
<pdfrwt beam="1">  1        4 0.16563857E-01 0.90735897E+02</pdfrwt>
<pdfrwt beam="2">  1       -4 0.29411020E-02 0.90735897E+02</pdfrwt>
<totfact> 0.25221374E+04</totfact>
</mgrwt>
</event>
<event>
 5    1  0.3921687E+001  0.9286637E+02  0.7546771E-02  0.1296055E+00
          2   -1    0    0  501    0  0.00000000000E+00  0.00000000000E+00  0.64436458426E+03  0.64436458426E+03  0.00000000000E+00 0. -1.
         -2   -1    0    0    0  501 -0.00000000000E+00 -0.00000000000E+00 -0.33459950588E+01  0.33459950588E+01  0.00000000000E+00 0.  1.
         23    2    1    2    0    0  0.00000000000E+00  0.00000000000E+00  0.64101858921E+03  0.64771057932E+03  0.92866370985E+02 0.  0.
          2    1    3    3  502    0 -0.17672010514E+02  0.26900397818E+02  0.87081413115E+02  0.92839128973E+02  0.00000000000E+00 0.  1.
         -2    1    3    3    0  502  0.17672010514E+02 -0.26900397818E+02  0.55393717609E+03  0.55487145035E+03  0.00000000000E+00 0. -1.
<mgrwt>
<rscale>  0 0.92866371E+02</rscale>
<asrwt>0</asrwt>
<pdfrwt beam="1">  1        2 0.99132914E-01 0.92866371E+02</pdfrwt>
<pdfrwt beam="2">  1       -2 0.51476898E-03 0.92866371E+02</pdfrwt>
<totfact> 0.22132342E+05</totfact>
</mgrwt>
</event>
<event>
 5    1  0.3921687E+001  0.9245397E+02  0.7546771E-02  0.1297016E+00
         -2   -1    0    0    0  501 -0.00000000000E+00  0.00000000000E+00  0.12772733832E+04  0.12772733832E+04  0.00000000000E+00 0.  1.
          2   -1    0    0  501    0  0.00000000000E+00 -0.00000000000E+00 -0.16730438290E+01  0.16730438290E+01  0.00000000000E+00 0. -1.
         23    2    1    2    0    0  0.00000000000E+00  0.00000000000E+00  0.12756003394E+04  0.12789464270E+04  0.92453974531E+02 0.  0.
          2    1    3    3  502    0  0.24307172603E+02  0.36141249931E+02  0.42353720523E+03  0.42577082193E+03  0.00000000000E+00 0. -1.
         -2    1    3    3    0  502 -0.24307172603E+02 -0.36141249931E+02  0.85206313412E+03  0.85317560509E+03  0.00000000000E+00 0.  1.
<mgrwt>
<rscale>  0 0.92453975E+02</rscale>
<asrwt>0</asrwt>
<pdfrwt beam="2">  1        2 0.25739238E-03 0.92453975E+02</pdfrwt>
<pdfrwt beam="1">  1       -2 0.19650282E+00 0.92453975E+02</pdfrwt>
<totfact> 0.13137650E+04</totfact>
</mgrwt>
</event>
<event>
 5    1  0.3921687E+001  0.9248878E+02  0.7546771E-02  0.1296934E+00
          2   -1    0    0  501    0  0.00000000000E+00  0.00000000000E+00  0.69480398024E+03  0.69480398024E+03  0.00000000000E+00 0.  1.
         -2   -1    0    0    0  501 -0.00000000000E+00 -0.00000000000E+00 -0.30779094974E+01  0.30779094974E+01  0.00000000000E+00 0. -1.
         23    2    1    2    0    0  0.00000000000E+00  0.00000000000E+00  0.69172607074E+03  0.69788188974E+03  0.92488783528E+02 0.  0.
          2    1    3    3  502    0 -0.43821615619E+02  0.99000623287E+01  0.42858911760E+03  0.43093732370E+03  0.00000000000E+00 0. -1.
         -2    1    3    3    0  502  0.43821615619E+02 -0.99000623287E+01  0.26313695314E+03  0.26694456604E+03  0.00000000000E+00 0.  1.
<mgrwt>
<rscale>  0 0.92488784E+02</rscale>
<asrwt>0</asrwt>
<pdfrwt beam="1">  1        2 0.10689280E+00 0.92488784E+02</pdfrwt>
<pdfrwt beam="2">  1       -2 0.47352509E-03 0.92488784E+02</pdfrwt>
<totfact> 0.22796568E+05</totfact>
</mgrwt>
</event>
<event>
 5    1  0.3921687E+001  0.9192179E+02  0.7546771E-02  0.1298263E+00
         -2   -1    0    0    0  501 -0.00000000000E+00  0.00000000000E+00  0.14790700206E+01  0.14790700206E+01  0.00000000000E+00 0.  1.
          2   -1    0    0  501    0  0.00000000000E+00 -0.00000000000E+00 -0.14281973425E+04  0.14281973425E+04  0.00000000000E+00 0. -1.
         23    2    1    2    0    0  0.00000000000E+00  0.00000000000E+00 -0.14267182725E+04  0.14296764125E+04  0.91921790078E+02 0.  0.
          2    1    3    3  502    0  0.25732335026E+02  0.28921051390E+02 -0.32802182073E+03  0.33029819126E+03  0.00000000000E+00 0.  1.
         -2    1    3    3    0  502 -0.25732335026E+02 -0.28921051390E+02 -0.10986964518E+04  0.10993782213E+04  0.00000000000E+00 0. -1.
<mgrwt>
<rscale>  0 0.91921790E+02</rscale>
<asrwt>0</asrwt>
<pdfrwt beam="2">  1        2 0.21972302E+00 0.91921790E+02</pdfrwt>
<pdfrwt beam="1">  1       -2 0.22754887E-03 0.91921790E+02</pdfrwt>
<totfact> 0.23488527E+05</totfact>
</mgrwt>
</event>
<event>
 5    1  0.3921687E+001  0.9141442E+02  0.7546771E-02  0.1299462E+00
         -2   -1    0    0    0  501 -0.00000000000E+00  0.00000000000E+00  0.14955547900E+01  0.14955547900E+01  0.00000000000E+00 0.  1.
          2   -1    0    0  501    0  0.00000000000E+00 -0.00000000000E+00 -0.13969058290E+04  0.13969058290E+04  0.00000000000E+00 0. -1.
         23    2    1    2    0    0  0.00000000000E+00  0.00000000000E+00 -0.13954102743E+04  0.13984013838E+04  0.91414423453E+02 0.  0.
          2    1    3    3  502    0 -0.18682362571E+02  0.17635446589E+02 -0.12760007294E+04  0.12762593393E+04  0.00000000000E+00 0. -1.
         -2    1    3    3    0  502  0.18682362571E+02 -0.17635446589E+02 -0.11940954483E+03  0.12214204454E+03  0.00000000000E+00 0.  1.
<mgrwt>
<rscale>  0 0.91414423E+02</rscale>
<asrwt>0</asrwt>
<pdfrwt beam="2">  1        2 0.21490877E+00 0.91414423E+02</pdfrwt>
<pdfrwt beam="1">  1       -2 0.23008516E-03 0.91414423E+02</pdfrwt>
<totfact> 0.23989978E+05</totfact>
</mgrwt>
</event>
<event>
 5    1  0.3921687E+001  0.8978614E+02  0.7546771E-02  0.1303370E+00
         -2   -1    0    0    0  501 -0.00000000000E+00  0.00000000000E+00  0.20903158184E+02  0.20903158184E+02  0.00000000000E+00 0.  1.
          2   -1    0    0  501    0  0.00000000000E+00 -0.00000000000E+00 -0.96415464519E+02  0.96415464519E+02  0.00000000000E+00 0. -1.
         23    2    1    2    0    0  0.00000000000E+00  0.00000000000E+00 -0.75512306335E+02  0.11731862270E+03  0.89786139381E+02 0.  0.
          2    1    3    3  502    0 -0.11727018113E+01  0.43948013752E+02 -0.49630428030E+02  0.66302206063E+02  0.00000000000E+00 0. -1.
         -2    1    3    3    0  502  0.11727018113E+01 -0.43948013752E+02 -0.25881878304E+02  0.51016416641E+02  0.00000000000E+00 0.  1.
<mgrwt>
<rscale>  0 0.89786139E+02</rscale>
<asrwt>0</asrwt>
<pdfrwt beam="2">  1        2 0.14833148E-01 0.89786139E+02</pdfrwt>
<pdfrwt beam="1">  1       -2 0.32158705E-02 0.89786139E+02</pdfrwt>
<totfact> 0.12656873E+05</totfact>
</mgrwt>
</event>
<event>
 5    1  0.3921687E+001  0.8943075E+02  0.7546771E-02  0.1304236E+00
          2   -1    0    0  501    0  0.00000000000E+00  0.00000000000E+00  0.69428896378E+02  0.69428896378E+02  0.00000000000E+00 0. -1.
         -2   -1    0    0    0  501 -0.00000000000E+00 -0.00000000000E+00 -0.28798740266E+02  0.28798740266E+02  0.00000000000E+00 0.  1.
         23    2    1    2    0    0  0.00000000000E+00  0.00000000000E+00  0.40630156112E+02  0.98227636644E+02  0.89430749829E+02 0.  0.
          2    1    3    3  502    0  0.35946398875E+02 -0.17885828488E+01  0.49460531801E+02  0.61169329134E+02  0.00000000000E+00 0. -1.
         -2    1    3    3    0  502 -0.35946398875E+02  0.17885828488E+01 -0.88303756883E+01  0.37058307510E+02  0.00000000000E+00 0.  1.
<mgrwt>
<rscale>  0 0.89430750E+02</rscale>
<asrwt>0</asrwt>
<pdfrwt beam="1">  1        2 0.10681369E-01 0.89430750E+02</pdfrwt>
<pdfrwt beam="2">  1       -2 0.44305755E-02 0.89430750E+02</pdfrwt>
<totfact> 0.11649130E+05</totfact>
</mgrwt>
</event>
<event>
 5    1  0.3921687E+001  0.1002978E+03  0.7546771E-02  0.1279671E+00
         -2   -1    0    0    0  501 -0.00000000000E+00  0.00000000000E+00  0.21578922380E+03  0.21578922380E+03  0.00000000000E+00 0.  1.
          2   -1    0    0  501    0  0.00000000000E+00 -0.00000000000E+00 -0.11654477891E+02  0.11654477891E+02  0.00000000000E+00 0. -1.
         23    2    1    2    0    0  0.00000000000E+00  0.00000000000E+00  0.20413474591E+03  0.22744370169E+03  0.10029777142E+03 0.  0.
          2    1    3    3  502    0  0.29134216820E+02  0.16074954156E+02  0.16985252786E+02  0.37359142830E+02  0.00000000000E+00 0. -1.
         -2    1    3    3    0  502 -0.29134216820E+02 -0.16074954156E+02  0.18714949312E+03  0.19008455886E+03  0.00000000000E+00 0.  1.
<mgrwt>
<rscale>  0 0.10029777E+03</rscale>
<asrwt>0</asrwt>
<pdfrwt beam="2">  1        2 0.17929968E-02 0.10029777E+03</pdfrwt>
<pdfrwt beam="1">  1       -2 0.33198339E-01 0.10029777E+03</pdfrwt>
<totfact> 0.47190109E+04</totfact>
</mgrwt>
</event>
<event>
 5    1  0.3921687E+001  0.8515630E+02  0.7546771E-02  0.1315024E+00
          2   -1    0    0  501    0  0.00000000000E+00  0.00000000000E+00  0.52413485420E+03  0.52413485420E+03  0.00000000000E+00 0. -1.
         -2   -1    0    0    0  501 -0.00000000000E+00 -0.00000000000E+00 -0.34588405089E+01  0.34588405089E+01  0.00000000000E+00 0.  1.
         23    2    1    2    0    0  0.00000000000E+00  0.00000000000E+00  0.52067601369E+03  0.52759369471E+03  0.85156300197E+02 0.  0.
          2    1    3    3  502    0  0.28185953260E+02 -0.22328265435E+01  0.63101513140E+02  0.69146470886E+02  0.00000000000E+00 0.  1.
         -2    1    3    3    0  502 -0.28185953260E+02  0.22328265435E+01  0.45757450055E+03  0.45844722382E+03  0.00000000000E+00 0. -1.
<mgrwt>
<rscale>  0 0.85156300E+02</rscale>
<asrwt>0</asrwt>
<pdfrwt beam="1">  1        2 0.80636068E-01 0.85156300E+02</pdfrwt>
<pdfrwt beam="2">  1       -2 0.53212973E-03 0.85156300E+02</pdfrwt>
<totfact> 0.26192293E+05</totfact>
</mgrwt>
</event>
<event>
 5    1  0.3921687E+001  0.9205490E+02  0.7546771E-02  0.1297950E+00
         -1   -1    0    0    0  501 -0.00000000000E+00  0.00000000000E+00  0.17343710586E+01  0.17343710586E+01  0.00000000000E+00 0.  1.
          1   -1    0    0  501    0  0.00000000000E+00 -0.00000000000E+00 -0.12214954254E+04  0.12214954254E+04  0.00000000000E+00 0. -1.
         23    2    1    2    0    0  0.00000000000E+00  0.00000000000E+00 -0.12197610544E+04  0.12232297965E+04  0.92054903489E+02 0.  0.
          2    1    3    3  502    0 -0.38433021496E+02 -0.15602800418E+02 -0.87497014925E+03  0.87595279929E+03  0.00000000000E+00 0. -1.
         -2    1    3    3    0  502  0.38433021496E+02  0.15602800418E+02 -0.34479090511E+03  0.34727699717E+03  0.00000000000E+00 0.  1.
<mgrwt>
<rscale>  0 0.92054903E+02</rscale>
<asrwt>0</asrwt>
<pdfrwt beam="2">  1        1 0.18792197E+00 0.92054903E+02</pdfrwt>
<pdfrwt beam="1">  1       -1 0.26682689E-03 0.92054903E+02</pdfrwt>
<totfact> 0.12305746E+05</totfact>
</mgrwt>
</event>
<event>
 5    1  0.3921687E+001  0.8888885E+02  0.7546771E-02  0.1305565E+00
          2   -1    0    0  501    0  0.00000000000E+00  0.00000000000E+00  0.53587684032E+03  0.53587684032E+03  0.00000000000E+00 0. -1.
         -2   -1    0    0    0  501 -0.00000000000E+00 -0.00000000000E+00 -0.36861209676E+01  0.36861209676E+01  0.00000000000E+00 0.  1.
         23    2    1    2    0    0  0.00000000000E+00  0.00000000000E+00  0.53219071935E+03  0.53956296128E+03  0.88888848730E+02 0.  0.
          2    1    3    3  502    0  0.33391044971E+02  0.13886375353E+02  0.10926689458E+03  0.11509581902E+03  0.00000000000E+00 0.  1.
         -2    1    3    3    0  502 -0.33391044971E+02 -0.13886375353E+02  0.42292382477E+03  0.42446714227E+03  0.00000000000E+00 0. -1.
<mgrwt>
<rscale>  0 0.88888849E+02</rscale>
<asrwt>0</asrwt>
<pdfrwt beam="1">  1        2 0.82442529E-01 0.88888849E+02</pdfrwt>
<pdfrwt beam="2">  1       -2 0.56709596E-03 0.88888849E+02</pdfrwt>
<totfact> 0.23558737E+05</totfact>
</mgrwt>
</event>
<event>
 5    1  0.3921687E+001  0.8885419E+02  0.7546771E-02  0.1305650E+00
         -2   -1    0    0    0  501 -0.00000000000E+00  0.00000000000E+00  0.10298246355E+01  0.10298246355E+01  0.00000000000E+00 0.  1.
          2   -1    0    0  501    0  0.00000000000E+00 -0.00000000000E+00 -0.19166048208E+04  0.19166048208E+04  0.00000000000E+00 0. -1.
         23    2    1    2    0    0  0.00000000000E+00  0.00000000000E+00 -0.19155749962E+04  0.19176346455E+04  0.88854192044E+02 0.  0.
          2    1    3    3  502    0  0.42013747575E+02  0.13549911819E+02 -0.10657219569E+04  0.10666358538E+04  0.00000000000E+00 0. -1.
         -2    1    3    3    0  502 -0.42013747575E+02 -0.13549911819E+02 -0.84985303930E+03  0.85099879171E+03  0.00000000000E+00 0.  1.
<mgrwt>
<rscale>  0 0.88854192E+02</rscale>
<asrwt>0</asrwt>
<pdfrwt beam="2">  1        2 0.29486124E+00 0.88854192E+02</pdfrwt>
<pdfrwt beam="1">  1       -2 0.15843512E-03 0.88854192E+02</pdfrwt>
<totfact> 0.21873762E+05</totfact>
</mgrwt>
</event>
<event>
 5    1  0.3921687E+001  0.6029782E+02  0.7546771E-02  0.1396586E+00
         -1   -1    0    0    0  501 -0.00000000000E+00  0.00000000000E+00  0.40012955630E+03  0.40012955630E+03  0.00000000000E+00 0.  1.
          1   -1    0    0  501    0  0.00000000000E+00 -0.00000000000E+00 -0.22716561656E+01  0.22716561656E+01  0.00000000000E+00 0. -1.
         23    2    1    2    0    0  0.00000000000E+00  0.00000000000E+00  0.39785790014E+03  0.40240121247E+03  0.60297819980E+02 0.  0.
          2    1    3    3  502    0  0.25465264498E+02  0.10782956429E+02  0.27906865172E+03  0.28043549029E+03  0.00000000000E+00 0. -1.
         -2    1    3    3    0  502 -0.25465264498E+02 -0.10782956429E+02  0.11878924842E+03  0.12196572217E+03  0.00000000000E+00 0.  1.
<mgrwt>
<rscale>  0 0.60297820E+02</rscale>
<asrwt>0</asrwt>
<pdfrwt beam="2">  1        1 0.34948588E-03 0.60297820E+02</pdfrwt>
<pdfrwt beam="1">  1       -1 0.61558337E-01 0.60297820E+02</pdfrwt>
<totfact> 0.15454693E+05</totfact>
</mgrwt>
</event>
<event>
 5    1  0.3921687E+001  0.9605559E+02  0.7546771E-02  0.1288816E+00
         -1   -1    0    0    0  501 -0.00000000000E+00  0.00000000000E+00  0.20035469390E+04  0.20035469390E+04  0.00000000000E+00 0.  1.
          1   -1    0    0  501    0  0.00000000000E+00 -0.00000000000E+00 -0.11512927910E+01  0.11512927910E+01  0.00000000000E+00 0. -1.
         23    2    1    2    0    0  0.00000000000E+00  0.00000000000E+00  0.20023956462E+04  0.20046982318E+04  0.96055591140E+02 0.  0.
          2    1    3    3  502    0 -0.19251363586E+02  0.43894502009E+02  0.93746052621E+03  0.93868502732E+03  0.00000000000E+00 0. -1.
         -2    1    3    3    0  502  0.19251363586E+02 -0.43894502009E+02  0.10649351200E+04  0.10660132044E+04  0.00000000000E+00 0.  1.
<mgrwt>
<rscale>  0 0.96055591E+02</rscale>
<asrwt>0</asrwt>
<pdfrwt beam="2">  1        1 0.17712357E-03 0.96055591E+02</pdfrwt>
<pdfrwt beam="1">  1       -1 0.30823520E+00 0.96055591E+02</pdfrwt>
<totfact> 0.60274533E+03</totfact>
</mgrwt>
</event>
<event>
 5    1  0.3921687E+001  0.9114651E+02  0.7546771E-02  0.1300099E+00
          3   -1    0    0  501    0  0.00000000000E+00  0.00000000000E+00  0.41095514024E+03  0.41095514024E+03  0.00000000000E+00 0.  1.
         -3   -1    0    0    0  501 -0.00000000000E+00 -0.00000000000E+00 -0.50538884837E+01  0.50538884837E+01  0.00000000000E+00 0. -1.
         23    2    1    2    0    0  0.00000000000E+00  0.00000000000E+00  0.40590125176E+03  0.41600902873E+03  0.91146507351E+02 0.  0.
          2    1    3    3  502    0 -0.39341062176E+02 -0.47959372863E+01  0.10026152839E+03  0.10781045525E+03  0.00000000000E+00 0. -1.
         -2    1    3    3    0  502  0.39341062176E+02  0.47959372863E+01  0.30563972337E+03  0.30819857347E+03  0.00000000000E+00 0.  1.
<mgrwt>
<rscale>  0 0.91146507E+02</rscale>
<asrwt>0</asrwt>
<pdfrwt beam="1">  1        3 0.63223841E-01 0.91146507E+02</pdfrwt>
<pdfrwt beam="2">  1       -3 0.77752163E-03 0.91146507E+02</pdfrwt>
<totfact> 0.20158348E+04</totfact>
</mgrwt>
</event>
<event>
 5    1  0.3921687E+001  0.8859787E+02  0.7546771E-02  0.1306283E+00
          2   -1    0    0  501    0  0.00000000000E+00  0.00000000000E+00  0.29132793492E+04  0.29132793492E+04  0.00000000000E+00 0. -1.
         -2   -1    0    0    0  501 -0.00000000000E+00 -0.00000000000E+00 -0.67360365270E+00  0.67360365270E+00  0.00000000000E+00 0.  1.
         23    2    1    2    0    0  0.00000000000E+00  0.00000000000E+00  0.29126057455E+04  0.29139529528E+04  0.88597869296E+02 0.  0.
          2    1    3    3  502    0 -0.24403168448E+02  0.36960445692E+02  0.14858383452E+04  0.14864982937E+04  0.00000000000E+00 0. -1.
         -2    1    3    3    0  502  0.24403168448E+02 -0.36960445692E+02  0.14267674003E+04  0.14274546591E+04  0.00000000000E+00 0.  1.
<mgrwt>
<rscale>  0 0.88597869E+02</rscale>
<asrwt>0</asrwt>
<pdfrwt beam="1">  1        2 0.44818673E+00 0.88597869E+02</pdfrwt>
<pdfrwt beam="2">  1       -2 0.10363366E-03 0.88597869E+02</pdfrwt>
<totfact> 0.11828494E+05</totfact>
</mgrwt>
</event>
<event>
 5    1  0.3921687E+001  0.9276930E+02  0.7546771E-02  0.1296281E+00
         -2   -1    0    0    0  501 -0.00000000000E+00  0.00000000000E+00  0.20661079726E+02  0.20661079726E+02  0.00000000000E+00 0.  1.
          2   -1    0    0  501    0  0.00000000000E+00 -0.00000000000E+00 -0.10413471332E+03  0.10413471332E+03  0.00000000000E+00 0. -1.
         23    2    1    2    0    0  0.00000000000E+00  0.00000000000E+00 -0.83473633598E+02  0.12479579305E+03  0.92769296952E+02 0.  0.
          2    1    3    3  502    0 -0.37535050112E+02  0.23963950688E+02 -0.24280726213E+02  0.50721835386E+02  0.00000000000E+00 0. -1.
         -2    1    3    3    0  502  0.37535050112E+02 -0.23963950688E+02 -0.59192907384E+02  0.74073957664E+02  0.00000000000E+00 0.  1.
<mgrwt>
<rscale>  0 0.92769297E+02</rscale>
<asrwt>0</asrwt>
<pdfrwt beam="2">  1        2 0.16020725E-01 0.92769297E+02</pdfrwt>
<pdfrwt beam="1">  1       -2 0.31786277E-02 0.92769297E+02</pdfrwt>
<totfact> 0.11842277E+05</totfact>
</mgrwt>
</event>
<event>
 5    1  0.3921687E+001  0.9127499E+02  0.7546771E-02  0.1299793E+00
         -1   -1    0    0    0  501 -0.00000000000E+00  0.00000000000E+00  0.10167650537E+03  0.10167650537E+03  0.00000000000E+00 0.  1.
          1   -1    0    0  501    0  0.00000000000E+00 -0.00000000000E+00 -0.20484389116E+02  0.20484389116E+02  0.00000000000E+00 0. -1.
         23    2    1    2    0    0  0.00000000000E+00  0.00000000000E+00  0.81192116259E+02  0.12216089449E+03  0.91274993291E+02 0.  0.
          2    1    3    3  502    0 -0.24545417270E+02 -0.17659735543E+02 -0.51530999844E+01  0.30674064092E+02  0.00000000000E+00 0. -1.
         -2    1    3    3    0  502  0.24545417270E+02  0.17659735543E+02  0.86345216243E+02  0.91486830400E+02  0.00000000000E+00 0.  1.
<mgrwt>
<rscale>  0 0.91274993E+02</rscale>
<asrwt>0</asrwt>
<pdfrwt beam="2">  1        1 0.31514445E-02 0.91274993E+02</pdfrwt>
<pdfrwt beam="1">  1       -1 0.15642539E-01 0.91274993E+02</pdfrwt>
<totfact> 0.80893608E+04</totfact>
</mgrwt>
</event>
<event>
 5    1  0.3921687E+001  0.9124204E+02  0.7546771E-02  0.1299871E+00
          2   -1    0    0  501    0  0.00000000000E+00  0.00000000000E+00  0.86379733205E+03  0.86379733205E+03  0.00000000000E+00 0. -1.
         -2   -1    0    0    0  501 -0.00000000000E+00 -0.00000000000E+00 -0.24094513963E+01  0.24094513963E+01  0.00000000000E+00 0.  1.
         23    2    1    2    0    0  0.00000000000E+00  0.00000000000E+00  0.86138788065E+03  0.86620678345E+03  0.91242044865E+02 0.  0.
          2    1    3    3  502    0 -0.40484528035E+02 -0.46175225100E+01  0.23591295680E+03  0.23940601853E+03  0.00000000000E+00 0. -1.
         -2    1    3    3    0  502  0.40484528035E+02  0.46175225100E+01  0.62547492386E+03  0.62680076492E+03  0.00000000000E+00 0.  1.
<mgrwt>
<rscale>  0 0.91242045E+02</rscale>
<asrwt>0</asrwt>
<pdfrwt beam="1">  1        2 0.13289165E+00 0.91242045E+02</pdfrwt>
<pdfrwt beam="2">  1       -2 0.37068552E-03 0.91242045E+02</pdfrwt>
<totfact> 0.24621503E+05</totfact>
</mgrwt>
</event>
<event>
 5    1  0.3921687E+001  0.9011356E+02  0.7546771E-02  0.1302577E+00
         -1   -1    0    0    0  501 -0.00000000000E+00  0.00000000000E+00  0.50662017854E+00  0.50662017854E+00  0.00000000000E+00 0.  1.
          1   -1    0    0  501    0  0.00000000000E+00 -0.00000000000E+00 -0.40071707095E+04  0.40071707095E+04  0.00000000000E+00 0. -1.
         23    2    1    2    0    0  0.00000000000E+00  0.00000000000E+00 -0.40066640894E+04  0.40076773297E+04  0.90113562582E+02 0.  0.
          2    1    3    3  502    0  0.21831983615E+02 -0.36198953261E+02 -0.26967696776E+04  0.26971009796E+04  0.00000000000E+00 0. -1.
         -2    1    3    3    0  502 -0.21831983615E+02  0.36198953261E+02 -0.13098944117E+04  0.13105763502E+04  0.00000000000E+00 0.  1.
<mgrwt>
<rscale>  0 0.90113563E+02</rscale>
<asrwt>0</asrwt>
<pdfrwt beam="2">  1        1 0.61651382E+00 0.90113563E+02</pdfrwt>
<pdfrwt beam="1">  1       -1 0.77938276E-04 0.90113563E+02</pdfrwt>
<totfact> 0.86833837E+03</totfact>
</mgrwt>
</event>
<event>
 5    1  0.3921687E+001  0.8865169E+02  0.7546771E-02  0.1306150E+00
         -2   -1    0    0    0  501 -0.00000000000E+00  0.00000000000E+00  0.12549706398E+01  0.12549706398E+01  0.00000000000E+00 0.  1.
          2   -1    0    0  501    0  0.00000000000E+00 -0.00000000000E+00 -0.15655988508E+04  0.15655988508E+04  0.00000000000E+00 0. -1.
         23    2    1    2    0    0  0.00000000000E+00  0.00000000000E+00 -0.15643438802E+04  0.15668538215E+04  0.88651691275E+02 0.  0.
          2    1    3    3  502    0 -0.29311456365E+02 -0.26460544382E+02 -0.42628277033E+03  0.42810783941E+03  0.00000000000E+00 0. -1.
         -2    1    3    3    0  502  0.29311456365E+02  0.26460544382E+02 -0.11380611099E+04  0.11387459821E+04  0.00000000000E+00 0.  1.
<mgrwt>
<rscale>  0 0.88651691E+02</rscale>
<asrwt>0</asrwt>
<pdfrwt beam="2">  1        2 0.24086100E+00 0.88651691E+02</pdfrwt>
<pdfrwt beam="1">  1       -2 0.19307269E-03 0.88651691E+02</pdfrwt>
<totfact> 0.24965252E+05</totfact>
</mgrwt>
</event>
<event>
 5    1  0.3921687E+001  0.9073035E+02  0.7546771E-02  0.1301093E+00
          1   -1    0    0  501    0  0.00000000000E+00  0.00000000000E+00  0.97211895612E+02  0.97211895612E+02  0.00000000000E+00 0. -1.
         -1   -1    0    0    0  501 -0.00000000000E+00 -0.00000000000E+00 -0.21170239221E+02  0.21170239221E+02  0.00000000000E+00 0.  1.
         23    2    1    2    0    0  0.00000000000E+00  0.00000000000E+00  0.76041656391E+02  0.11838213483E+03  0.90730349612E+02 0.  0.
          2    1    3    3  502    0  0.49309884923E+01  0.41104971522E+02  0.13818658200E+02  0.43645030024E+02  0.00000000000E+00 0.  1.
         -2    1    3    3    0  502 -0.49309884923E+01 -0.41104971522E+02  0.62222998191E+02  0.74737104808E+02  0.00000000000E+00 0. -1.
<mgrwt>
<rscale>  0 0.90730350E+02</rscale>
<asrwt>0</asrwt>
<pdfrwt beam="1">  1        1 0.14955676E-01 0.90730350E+02</pdfrwt>
<pdfrwt beam="2">  1       -1 0.32569599E-02 0.90730350E+02</pdfrwt>
<totfact> 0.10536431E+05</totfact>
</mgrwt>
</event>
<event>
 5    1  0.3921687E+001  0.9178841E+02  0.7546771E-02  0.1298578E+00
         -1   -1    0    0    0  501 -0.00000000000E+00  0.00000000000E+00  0.15779149182E+03  0.15779149182E+03  0.00000000000E+00 0.  1.
          1   -1    0    0  501    0  0.00000000000E+00 -0.00000000000E+00 -0.13348489487E+02  0.13348489487E+02  0.00000000000E+00 0. -1.
         23    2    1    2    0    0  0.00000000000E+00  0.00000000000E+00  0.14444300233E+03  0.17113998130E+03  0.91788410372E+02 0.  0.
          2    1    3    3  502    0  0.25542926536E+02  0.63429005998E+01  0.21199538179E+01  0.26403933196E+02  0.00000000000E+00 0. -1.
         -2    1    3    3    0  502 -0.25542926536E+02 -0.63429005998E+01  0.14232304851E+03  0.14473604811E+03  0.00000000000E+00 0.  1.
<mgrwt>
<rscale>  0 0.91788410E+02</rscale>
<asrwt>0</asrwt>
<pdfrwt beam="2">  1        1 0.20536139E-02 0.91788410E+02</pdfrwt>
<pdfrwt beam="1">  1       -1 0.24275613E-01 0.91788410E+02</pdfrwt>
<totfact> 0.72619092E+04</totfact>
</mgrwt>
</event>
<event>
 5    1  0.3921687E+001  0.9063033E+02  0.7546771E-02  0.1301332E+00
         -1   -1    0    0    0  501 -0.00000000000E+00  0.00000000000E+00  0.19918075584E+03  0.19918075584E+03  0.00000000000E+00 0.  1.
          1   -1    0    0  501    0  0.00000000000E+00 -0.00000000000E+00 -0.10309551594E+02  0.10309551594E+02  0.00000000000E+00 0. -1.
         23    2    1    2    0    0  0.00000000000E+00  0.00000000000E+00  0.18887120424E+03  0.20949030743E+03  0.90630332204E+02 0.  0.
          2    1    3    3  502    0  0.43009661491E+01  0.29885583396E+02  0.16328813724E+02  0.34326033304E+02  0.00000000000E+00 0. -1.
         -2    1    3    3    0  502 -0.43009661491E+01 -0.29885583396E+02  0.17254239052E+03  0.17516427413E+03  0.00000000000E+00 0.  1.
<mgrwt>
<rscale>  0 0.90630332E+02</rscale>
<asrwt>0</asrwt>
<pdfrwt beam="2">  1        1 0.15860850E-02 0.90630332E+02</pdfrwt>
<pdfrwt beam="1">  1       -1 0.30643190E-01 0.90630332E+02</pdfrwt>
<totfact> 0.70602632E+04</totfact>
</mgrwt>
</event>
<event>
 5    1  0.3921687E+001  0.5712401E+02  0.7546771E-02  0.1410313E+00
          2   -1    0    0  501    0  0.00000000000E+00  0.00000000000E+00  0.24989630353E+02  0.24989630353E+02  0.00000000000E+00 0.  1.
         -2   -1    0    0    0  501 -0.00000000000E+00 -0.00000000000E+00 -0.32645062988E+02  0.32645062988E+02  0.00000000000E+00 0. -1.
         23    2    1    2    0    0  0.00000000000E+00  0.00000000000E+00 -0.76554326354E+01  0.57634693341E+02  0.57124007455E+02 0.  0.
          2    1    3    3  502    0  0.21913337834E+02  0.17260004668E+02 -0.10021483616E+02  0.29640045041E+02  0.00000000000E+00 0. -1.
         -2    1    3    3    0  502 -0.21913337834E+02 -0.17260004668E+02  0.23660509804E+01  0.27994648300E+02  0.00000000000E+00 0.  1.
<mgrwt>
<rscale>  0 0.57124007E+02</rscale>
<asrwt>0</asrwt>
<pdfrwt beam="1">  1        2 0.38445585E-02 0.57124007E+02</pdfrwt>
<pdfrwt beam="2">  1       -2 0.50223174E-02 0.57124007E+02</pdfrwt>
<totfact> 0.31940710E+05</totfact>
</mgrwt>
</event>
<event>
 5    1  0.3921687E+001  0.9097129E+02  0.7546771E-02  0.1300516E+00
         -2   -1    0    0    0  501 -0.00000000000E+00  0.00000000000E+00  0.14342359060E+01  0.14342359060E+01  0.00000000000E+00 0.  1.
          2   -1    0    0  501    0  0.00000000000E+00 -0.00000000000E+00 -0.14425407484E+04  0.14425407484E+04  0.00000000000E+00 0. -1.
         23    2    1    2    0    0  0.00000000000E+00  0.00000000000E+00 -0.14411065125E+04  0.14439749843E+04  0.90971286398E+02 0.  0.
          2    1    3    3  502    0 -0.55121987518E+01  0.23302081645E+02 -0.13343987238E+04  0.13346135491E+04  0.00000000000E+00 0. -1.
         -2    1    3    3    0  502  0.55121987518E+01 -0.23302081645E+02 -0.10670778873E+03  0.10936143525E+03  0.00000000000E+00 0.  1.
<mgrwt>
<rscale>  0 0.90971286E+02</rscale>
<asrwt>0</asrwt>
<pdfrwt beam="2">  1        2 0.22192901E+00 0.90971286E+02</pdfrwt>
<pdfrwt beam="1">  1       -2 0.22065201E-03 0.90971286E+02</pdfrwt>
<totfact> 0.24064381E+05</totfact>
</mgrwt>
</event>
<event>
 5    1  0.3921687E+001  0.9188706E+02  0.7546771E-02  0.1298345E+00
          3   -1    0    0  501    0  0.00000000000E+00  0.00000000000E+00  0.63386569992E+02  0.63386569992E+02  0.00000000000E+00 0. -1.
         -3   -1    0    0    0  501 -0.00000000000E+00 -0.00000000000E+00 -0.33300551986E+02  0.33300551986E+02  0.00000000000E+00 0.  1.
         23    2    1    2    0    0  0.00000000000E+00  0.00000000000E+00  0.30086018006E+02  0.96687121978E+02  0.91887056090E+02 0.  0.
          2    1    3    3  502    0  0.31449358678E+02 -0.12307798689E+02  0.47819253234E+02  0.58542506349E+02  0.00000000000E+00 0. -1.
         -2    1    3    3    0  502 -0.31449358678E+02  0.12307798689E+02 -0.17733235227E+02  0.38144615629E+02  0.00000000000E+00 0.  1.
<mgrwt>
<rscale>  0 0.91887056E+02</rscale>
<asrwt>0</asrwt>
<pdfrwt beam="1">  1        3 0.97517800E-02 0.91887056E+02</pdfrwt>
<pdfrwt beam="2">  1       -3 0.51231619E-02 0.91887056E+02</pdfrwt>
<totfact> 0.34187160E+04</totfact>
</mgrwt>
</event>
<event>
 5    1  0.3921687E+001  0.9119623E+02  0.7546771E-02  0.1299980E+00
         -1   -1    0    0    0  501 -0.00000000000E+00  0.00000000000E+00  0.15472252316E+03  0.15472252316E+03  0.00000000000E+00 0.  1.
          1   -1    0    0  501    0  0.00000000000E+00 -0.00000000000E+00 -0.13438172418E+02  0.13438172418E+02  0.00000000000E+00 0. -1.
         23    2    1    2    0    0  0.00000000000E+00  0.00000000000E+00  0.14128435074E+03  0.16816069558E+03  0.91196226747E+02 0.  0.
          2    1    3    3  502    0 -0.39605884224E+01  0.42862672954E+02  0.42903664836E+02  0.60775154873E+02  0.00000000000E+00 0. -1.
         -2    1    3    3    0  502  0.39605884224E+01 -0.42862672954E+02  0.98380685908E+02  0.10738554071E+03  0.00000000000E+00 0.  1.
<mgrwt>
<rscale>  0 0.91196227E+02</rscale>
<asrwt>0</asrwt>
<pdfrwt beam="2">  1        1 0.20674113E-02 0.91196227E+02</pdfrwt>
<pdfrwt beam="1">  1       -1 0.23803464E-01 0.91196227E+02</pdfrwt>
<totfact> 0.74201243E+04</totfact>
</mgrwt>
</event>
<event>
 5    1  0.3921687E+001  0.1126034E+03  0.7546771E-02  0.1255823E+00
         -2   -1    0    0    0  501 -0.00000000000E+00  0.00000000000E+00  0.21830828751E+02  0.21830828751E+02  0.00000000000E+00 0.  1.
          2   -1    0    0  501    0  0.00000000000E+00 -0.00000000000E+00 -0.14520213637E+03  0.14520213637E+03  0.00000000000E+00 0. -1.
         23    2    1    2    0    0  0.00000000000E+00  0.00000000000E+00 -0.12337130762E+03  0.16703296512E+03  0.11260342754E+03 0.  0.
          2    1    3    3  502    0  0.47177841879E+02 -0.28675150758E+02 -0.45309991436E+02  0.71421343864E+02  0.00000000000E+00 0. -1.
         -2    1    3    3    0  502 -0.47177841879E+02  0.28675150758E+02 -0.78061316181E+02  0.95611621256E+02  0.00000000000E+00 0.  1.
<mgrwt>
<rscale>  0 0.11260343E+03</rscale>
<asrwt>0</asrwt>
<pdfrwt beam="2">  1        2 0.22338792E-01 0.11260343E+03</pdfrwt>
<pdfrwt beam="1">  1       -2 0.33585888E-02 0.11260343E+03</pdfrwt>
<totfact> 0.77269727E+04</totfact>
</mgrwt>
</event>
<event>
 5    1  0.3921687E+001  0.9073415E+02  0.7546771E-02  0.1301084E+00
          3   -1    0    0  501    0  0.00000000000E+00  0.00000000000E+00  0.67567758949E+02  0.67567758949E+02  0.00000000000E+00 0. -1.
         -3   -1    0    0    0  501 -0.00000000000E+00 -0.00000000000E+00 -0.30460852610E+02  0.30460852610E+02  0.00000000000E+00 0.  1.
         23    2    1    2    0    0  0.00000000000E+00  0.00000000000E+00  0.37106906339E+02  0.98028611559E+02  0.90734151156E+02 0.  0.
          2    1    3    3  502    0 -0.37538334340E+01 -0.28324943294E+02  0.56625307364E+02  0.63425697569E+02  0.00000000000E+00 0. -1.
         -2    1    3    3    0  502  0.37538334340E+01  0.28324943294E+02 -0.19518401025E+02  0.34602913990E+02  0.00000000000E+00 0.  1.
<mgrwt>
<rscale>  0 0.90734151E+02</rscale>
<asrwt>0</asrwt>
<pdfrwt beam="1">  1        3 0.10395040E-01 0.90734151E+02</pdfrwt>
<pdfrwt beam="2">  1       -3 0.46862850E-02 0.90734151E+02</pdfrwt>
<totfact> 0.35281795E+04</totfact>
</mgrwt>
</event>
<event>
 5    1  0.3921687E+001  0.9100902E+02  0.7546771E-02  0.1300426E+00
          1   -1    0    0  501    0  0.00000000000E+00  0.00000000000E+00  0.20760170223E+02  0.20760170223E+02  0.00000000000E+00 0. -1.
         -1   -1    0    0    0  501 -0.00000000000E+00 -0.00000000000E+00 -0.99741977912E+02  0.99741977912E+02  0.00000000000E+00 0.  1.
         23    2    1    2    0    0  0.00000000000E+00  0.00000000000E+00 -0.78981807688E+02  0.12050214813E+03  0.91009020209E+02 0.  0.
          2    1    3    3  502    0  0.12669473475E+02  0.33013300386E+02 -0.77412616062E+02  0.85106443270E+02  0.00000000000E+00 0.  1.
         -2    1    3    3    0  502 -0.12669473475E+02 -0.33013300386E+02 -0.15691916263E+01  0.35395704865E+02  0.00000000000E+00 0. -1.
<mgrwt>
<rscale>  0 0.91009020E+02</rscale>
<asrwt>0</asrwt>
<pdfrwt beam="1">  1        1 0.31938724E-02 0.91009020E+02</pdfrwt>
<pdfrwt beam="2">  1       -1 0.15344919E-01 0.91009020E+02</pdfrwt>
<totfact> 0.81797083E+04</totfact>
</mgrwt>
</event>
<event>
 5    1  0.3921687E+001  0.9170675E+02  0.7546771E-02  0.1298770E+00
         -1   -1    0    0    0  501 -0.00000000000E+00  0.00000000000E+00  0.22057298873E+01  0.22057298873E+01  0.00000000000E+00 0.  1.
          1   -1    0    0  501    0  0.00000000000E+00 -0.00000000000E+00 -0.95321382473E+03  0.95321382473E+03  0.00000000000E+00 0. -1.
         23    2    1    2    0    0  0.00000000000E+00  0.00000000000E+00 -0.95100809485E+03  0.95541955462E+03  0.91706754869E+02 0.  0.
          2    1    3    3  502    0 -0.61513505880E+01  0.37337246124E+02 -0.74529791494E+03  0.74625792531E+03  0.00000000000E+00 0. -1.
         -2    1    3    3    0  502  0.61513505880E+01 -0.37337246124E+02 -0.20571017990E+03  0.20916162932E+03  0.00000000000E+00 0.  1.
<mgrwt>
<rscale>  0 0.91706755E+02</rscale>
<asrwt>0</asrwt>
<pdfrwt beam="2">  1        1 0.14664852E+00 0.91706755E+02</pdfrwt>
<pdfrwt beam="1">  1       -1 0.33934251E-03 0.91706755E+02</pdfrwt>
<totfact> 0.13551798E+05</totfact>
</mgrwt>
</event>
<event>
 5    1  0.3921687E+001  0.9156300E+02  0.7546771E-02  0.1299110E+00
         -2   -1    0    0    0  501 -0.00000000000E+00  0.00000000000E+00  0.23434631633E+01  0.23434631633E+01  0.00000000000E+00 0. -1.
          2   -1    0    0  501    0  0.00000000000E+00 -0.00000000000E+00 -0.89437969362E+03  0.89437969362E+03  0.00000000000E+00 0.  1.
         23    2    1    2    0    0  0.00000000000E+00  0.00000000000E+00 -0.89203623045E+03  0.89672315678E+03  0.91563002703E+02 0.  0.
          2    1    3    3  502    0  0.27196481550E+02  0.26644387589E+02 -0.19702906219E+03  0.20067392293E+03  0.00000000000E+00 0. -1.
         -2    1    3    3    0  502 -0.27196481550E+02 -0.26644387589E+02 -0.69500716827E+03  0.69604923385E+03  0.00000000000E+00 0.  1.
<mgrwt>
<rscale>  0 0.91563003E+02</rscale>
<asrwt>0</asrwt>
<pdfrwt beam="2">  1        2 0.13759706E+00 0.91563003E+02</pdfrwt>
<pdfrwt beam="1">  1       -2 0.36053232E-03 0.91563003E+02</pdfrwt>
<totfact> 0.24502063E+05</totfact>
</mgrwt>
</event>
<event>
 5    1  0.3921687E+001  0.9279942E+02  0.7546771E-02  0.1296211E+00
          2   -1    0    0  501    0  0.00000000000E+00  0.00000000000E+00  0.35689318014E+02  0.35689318014E+02  0.00000000000E+00 0. -1.
         -2   -1    0    0    0  501 -0.00000000000E+00 -0.00000000000E+00 -0.60324300805E+02  0.60324300805E+02  0.00000000000E+00 0.  1.
         23    2    1    2    0    0  0.00000000000E+00  0.00000000000E+00 -0.24634982791E+02  0.96013618819E+02  0.92799421451E+02 0.  0.
          2    1    3    3  502    0  0.35138561680E+02 -0.43288055333E+01  0.18712551770E+02  0.40045182832E+02  0.00000000000E+00 0. -1.
         -2    1    3    3    0  502 -0.35138561680E+02  0.43288055333E+01 -0.43347534561E+02  0.55968435987E+02  0.00000000000E+00 0.  1.
<mgrwt>
<rscale>  0 0.92799421E+02</rscale>
<asrwt>0</asrwt>
<pdfrwt beam="1">  1        2 0.54906643E-02 0.92799421E+02</pdfrwt>
<pdfrwt beam="2">  1       -2 0.92806617E-02 0.92799421E+02</pdfrwt>
<totfact> 0.87939838E+04</totfact>
</mgrwt>
</event>
<event>
 5    1  0.3921687E+001  0.9323878E+02  0.7546771E-02  0.1295193E+00
          2   -1    0    0  501    0  0.00000000000E+00  0.00000000000E+00  0.15710070058E+04  0.15710070058E+04  0.00000000000E+00 0.  1.
         -2   -1    0    0    0  501 -0.00000000000E+00 -0.00000000000E+00 -0.13834231837E+01  0.13834231837E+01  0.00000000000E+00 0. -1.
         23    2    1    2    0    0  0.00000000000E+00  0.00000000000E+00  0.15696235826E+04  0.15723904290E+04  0.93238779778E+02 0.  0.
          2    1    3    3  502    0 -0.61124784392E+01 -0.42324734302E+02  0.10978773568E+04  0.10987098962E+04  0.00000000000E+00 0. -1.
         -2    1    3    3    0  502  0.61124784392E+01  0.42324734302E+02  0.47174622582E+03  0.47368053274E+03  0.00000000000E+00 0.  1.
<mgrwt>
<rscale>  0 0.93238780E+02</rscale>
<asrwt>0</asrwt>
<pdfrwt beam="1">  1        2 0.24169196E+00 0.93238780E+02</pdfrwt>
<pdfrwt beam="2">  1       -2 0.21283559E-03 0.93238780E+02</pdfrwt>
<totfact> 0.21824007E+05</totfact>
</mgrwt>
</event>
<event>
 5    1  0.3921687E+001  0.9234541E+02  0.7546771E-02  0.1297269E+00
         -2   -1    0    0    0  501 -0.00000000000E+00  0.00000000000E+00  0.19776081084E+01  0.19776081084E+01  0.00000000000E+00 0.  1.
          2   -1    0    0  501    0  0.00000000000E+00 -0.00000000000E+00 -0.10780287999E+04  0.10780287999E+04  0.00000000000E+00 0. -1.
         23    2    1    2    0    0  0.00000000000E+00  0.00000000000E+00 -0.10760511918E+04  0.10800064080E+04  0.92345405859E+02 0.  0.
          2    1    3    3  502    0  0.34001923849E+02 -0.21969943161E+02 -0.79773197697E+03  0.79875848434E+03  0.00000000000E+00 0.  1.
         -2    1    3    3    0  502 -0.34001923849E+02  0.21969943161E+02 -0.27831921485E+03  0.28124792369E+03  0.00000000000E+00 0. -1.
<mgrwt>
<rscale>  0 0.92345406E+02</rscale>
<asrwt>0</asrwt>
<pdfrwt beam="2">  1        2 0.16585114E+00 0.92345406E+02</pdfrwt>
<pdfrwt beam="1">  1       -2 0.30424638E-03 0.92345406E+02</pdfrwt>
<totfact> 0.24204517E+05</totfact>
</mgrwt>
</event>
<event>
 5    1  0.3921687E+001  0.8926668E+02  0.7546771E-02  0.1304637E+00
         -2   -1    0    0    0  501 -0.00000000000E+00  0.00000000000E+00  0.11843508906E+01  0.11843508906E+01  0.00000000000E+00 0.  1.
          2   -1    0    0  501    0  0.00000000000E+00 -0.00000000000E+00 -0.16820478773E+04  0.16820478773E+04  0.00000000000E+00 0. -1.
         23    2    1    2    0    0  0.00000000000E+00  0.00000000000E+00 -0.16808635264E+04  0.16832322282E+04  0.89266676905E+02 0.  0.
          2    1    3    3  502    0  0.27959151505E+02 -0.13100760626E+01 -0.18486831574E+03  0.18697519787E+03  0.00000000000E+00 0.  1.
         -2    1    3    3    0  502 -0.27959151505E+02  0.13100760626E+01 -0.14959952106E+04  0.14962570303E+04  0.00000000000E+00 0. -1.
<mgrwt>
<rscale>  0 0.89266677E+02</rscale>
<asrwt>0</asrwt>
<pdfrwt beam="2">  1        2 0.25877811E+00 0.89266677E+02</pdfrwt>
<pdfrwt beam="1">  1       -2 0.18220676E-03 0.89266677E+02</pdfrwt>
<totfact> 0.23648280E+05</totfact>
</mgrwt>
</event>
<event>
 5    1  0.3921687E+001  0.9329217E+02  0.7546771E-02  0.1295070E+00
         -1   -1    0    0    0  501 -0.00000000000E+00  0.00000000000E+00  0.62241809184E+02  0.62241809184E+02  0.00000000000E+00 0.  1.
          1   -1    0    0  501    0  0.00000000000E+00 -0.00000000000E+00 -0.34958128832E+02  0.34958128832E+02  0.00000000000E+00 0. -1.
         23    2    1    2    0    0  0.00000000000E+00  0.00000000000E+00  0.27283680352E+02  0.97199938016E+02  0.93292168679E+02 0.  0.
          2    1    3    3  502    0  0.34373113161E+02  0.13750550834E+02 -0.15924065635E+02  0.40300923351E+02  0.00000000000E+00 0. -1.
         -2    1    3    3    0  502 -0.34373113161E+02 -0.13750550834E+02  0.43207745987E+02  0.56899014665E+02  0.00000000000E+00 0.  1.
<mgrwt>
<rscale>  0 0.93292169E+02</rscale>
<asrwt>0</asrwt>
<pdfrwt beam="2">  1        1 0.53781737E-02 0.93292169E+02</pdfrwt>
<pdfrwt beam="1">  1       -1 0.95756630E-02 0.93292169E+02</pdfrwt>
<totfact> 0.83180503E+04</totfact>
</mgrwt>
</event>
<event>
 5    1  0.3921687E+001  0.9008303E+02  0.7546771E-02  0.1302651E+00
          3   -1    0    0  501    0  0.00000000000E+00  0.00000000000E+00  0.11608763176E+02  0.11608763176E+02  0.00000000000E+00 0. -1.
         -3   -1    0    0    0  501 -0.00000000000E+00 -0.00000000000E+00 -0.17475918916E+03  0.17475918916E+03  0.00000000000E+00 0.  1.
         23    2    1    2    0    0  0.00000000000E+00  0.00000000000E+00 -0.16315042599E+03  0.18636795234E+03  0.90083029254E+02 0.  0.
          2    1    3    3  502    0 -0.85972968890E+01 -0.38963953034E+02 -0.38344990617E+02  0.55339330094E+02  0.00000000000E+00 0. -1.
         -2    1    3    3    0  502  0.85972968890E+01  0.38963953034E+02 -0.12480543537E+03  0.13102862225E+03  0.00000000000E+00 0.  1.
<mgrwt>
<rscale>  0 0.90083029E+02</rscale>
<asrwt>0</asrwt>
<pdfrwt beam="1">  1        3 0.17859637E-02 0.90083029E+02</pdfrwt>
<pdfrwt beam="2">  1       -3 0.26886026E-01 0.90083029E+02</pdfrwt>
<totfact> 0.30184454E+04</totfact>
</mgrwt>
</event>
<event>
 5    1  0.3921687E+001  0.9392674E+02  0.7546771E-02  0.1293612E+00
          4   -1    0    0  501    0  0.00000000000E+00  0.00000000000E+00  0.10510706257E+03  0.10510706257E+03  0.00000000000E+00 0.  1.
         -4   -1    0    0    0  501 -0.00000000000E+00 -0.00000000000E+00 -0.20983917512E+02  0.20983917512E+02  0.00000000000E+00 0. -1.
         23    2    1    2    0    0  0.00000000000E+00  0.00000000000E+00  0.84123145057E+02  0.12609098008E+03  0.93926735934E+02 0.  0.
          2    1    3    3  502    0 -0.13894310137E+02  0.32614364166E+02  0.83412405520E+02  0.90633205829E+02  0.00000000000E+00 0.  1.
         -2    1    3    3    0  502  0.13894310137E+02 -0.32614364166E+02  0.71073953650E+00  0.35457774251E+02  0.00000000000E+00 0. -1.
<mgrwt>
<rscale>  0 0.93926736E+02</rscale>
<asrwt>0</asrwt>
<pdfrwt beam="1">  1        4 0.16170317E-01 0.93926736E+02</pdfrwt>
<pdfrwt beam="2">  1       -4 0.32282951E-02 0.93926736E+02</pdfrwt>
<totfact> 0.23003080E+04</totfact>
</mgrwt>
</event>
<event>
 5    1  0.3921687E+001  0.9079806E+02  0.7546771E-02  0.1300931E+00
         -1   -1    0    0    0  501 -0.00000000000E+00  0.00000000000E+00  0.31163485097E+01  0.31163485097E+01  0.00000000000E+00 0.  1.
          1   -1    0    0  501    0  0.00000000000E+00 -0.00000000000E+00 -0.66137406315E+03  0.66137406315E+03  0.00000000000E+00 0. -1.
         23    2    1    2    0    0  0.00000000000E+00  0.00000000000E+00 -0.65825771464E+03  0.66449041166E+03  0.90798063328E+02 0.  0.
          2    1    3    3  502    0  0.17820107766E+02 -0.15698901763E+02 -0.61228877851E+03  0.61274918200E+03  0.00000000000E+00 0. -1.
         -2    1    3    3    0  502 -0.17820107766E+02  0.15698901763E+02 -0.45968936134E+02  0.51741229659E+02  0.00000000000E+00 0.  1.
<mgrwt>
<rscale>  0 0.90798063E+02</rscale>
<asrwt>0</asrwt>
<pdfrwt beam="2">  1        1 0.10174990E+00 0.90798063E+02</pdfrwt>
<pdfrwt beam="1">  1       -1 0.47943804E-03 0.90798063E+02</pdfrwt>
<totfact> 0.14371041E+05</totfact>
</mgrwt>
</event>
<event>
 5    1  0.3921687E+001  0.9180458E+02  0.7546771E-02  0.1298540E+00
          2   -1    0    0  501    0  0.00000000000E+00  0.00000000000E+00  0.63431750526E+03  0.63431750526E+03  0.00000000000E+00 0.  1.
         -2   -1    0    0    0  501 -0.00000000000E+00 -0.00000000000E+00 -0.33217126089E+01  0.33217126089E+01  0.00000000000E+00 0. -1.
         23    2    1    2    0    0  0.00000000000E+00  0.00000000000E+00  0.63099579266E+03  0.63763921787E+03  0.91804584968E+02 0.  0.
          2    1    3    3  502    0 -0.13863581438E+02 -0.40724767169E+02  0.20429974201E+03  0.20878000416E+03  0.00000000000E+00 0. -1.
         -2    1    3    3    0  502  0.13863581438E+02  0.40724767169E+02  0.42669605065E+03  0.42885921372E+03  0.00000000000E+00 0.  1.
<mgrwt>
<rscale>  0 0.91804585E+02</rscale>
<asrwt>0</asrwt>
<pdfrwt beam="1">  1        2 0.97587212E-01 0.91804585E+02</pdfrwt>
<pdfrwt beam="2">  1       -2 0.51103321E-03 0.91804585E+02</pdfrwt>
<totfact> 0.22720887E+05</totfact>
</mgrwt>
</event>
<event>
 5    1  0.3921687E+001  0.6386175E+02  0.7546771E-02  0.1382305E+00
         -2   -1    0    0    0  501 -0.00000000000E+00  0.00000000000E+00  0.37073266890E+01  0.37073266890E+01  0.00000000000E+00 0.  1.
          2   -1    0    0  501    0  0.00000000000E+00 -0.00000000000E+00 -0.27501776314E+03  0.27501776314E+03  0.00000000000E+00 0. -1.
         23    2    1    2    0    0  0.00000000000E+00  0.00000000000E+00 -0.27131043645E+03  0.27872508983E+03  0.63861747337E+02 0.  0.
          2    1    3    3  502    0  0.21211728996E+02  0.21280442019E+02 -0.18282140012E+03  0.18527401059E+03  0.00000000000E+00 0. -1.
         -2    1    3    3    0  502 -0.21211728996E+02 -0.21280442019E+02 -0.88489036327E+02  0.93451079232E+02  0.00000000000E+00 0.  1.
<mgrwt>
<rscale>  0 0.63861747E+02</rscale>
<asrwt>0</asrwt>
<pdfrwt beam="2">  1        2 0.42310446E-01 0.63861747E+02</pdfrwt>
<pdfrwt beam="1">  1       -2 0.57035767E-03 0.63861747E+02</pdfrwt>
<totfact> 0.44194905E+05</totfact>
</mgrwt>
</event>
<event>
 5    1  0.3921687E+001  0.9153744E+02  0.7546771E-02  0.1299171E+00
          2   -1    0    0  501    0  0.00000000000E+00  0.00000000000E+00  0.30231669266E+04  0.30231669266E+04  0.00000000000E+00 0. -1.
         -2   -1    0    0    0  501 -0.00000000000E+00 -0.00000000000E+00 -0.69290768868E+00  0.69290768868E+00  0.00000000000E+00 0.  1.
         23    2    1    2    0    0  0.00000000000E+00  0.00000000000E+00  0.30224740189E+04  0.30238598343E+04  0.91537437316E+02 0.  0.
          2    1    3    3  502    0  0.46452304919E+01 -0.39587831324E+02  0.76815180079E+03  0.76918525962E+03  0.00000000000E+00 0.  1.
         -2    1    3    3    0  502 -0.46452304919E+01  0.39587831324E+02  0.22543222181E+04  0.22546745747E+04  0.00000000000E+00 0. -1.
<mgrwt>
<rscale>  0 0.91537437E+02</rscale>
<asrwt>0</asrwt>
<pdfrwt beam="1">  1        2 0.46509204E+00 0.91537437E+02</pdfrwt>
<pdfrwt beam="2">  1       -2 0.10660360E-03 0.91537437E+02</pdfrwt>
<totfact> 0.98867853E+04</totfact>
</mgrwt>
</event>
<event>
 5    1  0.3921687E+001  0.9193392E+02  0.7546771E-02  0.1298235E+00
         -1   -1    0    0    0  501 -0.00000000000E+00  0.00000000000E+00  0.49173435160E+01  0.49173435160E+01  0.00000000000E+00 0.  1.
          1   -1    0    0  501    0  0.00000000000E+00 -0.00000000000E+00 -0.42969571475E+03  0.42969571475E+03  0.00000000000E+00 0. -1.
         23    2    1    2    0    0  0.00000000000E+00  0.00000000000E+00 -0.42477837124E+03  0.43461305827E+03  0.91933920547E+02 0.  0.
          2    1    3    3  502    0  0.32986679773E+02  0.27108204932E+02 -0.29289277059E+03  0.29598843032E+03  0.00000000000E+00 0. -1.
         -2    1    3    3    0  502 -0.32986679773E+02 -0.27108204932E+02 -0.13188560064E+03  0.13862462795E+03  0.00000000000E+00 0.  1.
<mgrwt>
<rscale>  0 0.91933921E+02</rscale>
<asrwt>0</asrwt>
<pdfrwt beam="2">  1        1 0.66107051E-01 0.91933921E+02</pdfrwt>
<pdfrwt beam="1">  1       -1 0.75651418E-03 0.91933921E+02</pdfrwt>
<totfact> 0.13346264E+05</totfact>
</mgrwt>
</event>
<event>
 5    1  0.3921687E+001  0.9182495E+02  0.7546771E-02  0.1298492E+00
          2   -1    0    0  501    0  0.00000000000E+00  0.00000000000E+00  0.27970391767E+02  0.27970391767E+02  0.00000000000E+00 0. -1.
         -2   -1    0    0    0  501 -0.00000000000E+00 -0.00000000000E+00 -0.75363811215E+02  0.75363811215E+02  0.00000000000E+00 0.  1.
         23    2    1    2    0    0  0.00000000000E+00  0.00000000000E+00 -0.47393419449E+02  0.10333420298E+03  0.91824949218E+02 0.  0.
          2    1    3    3  502    0  0.39156309943E+02 -0.10702682397E+02  0.44414274797E+00  0.40595089378E+02  0.00000000000E+00 0. -1.
         -2    1    3    3    0  502 -0.39156309943E+02  0.10702682397E+02 -0.47837562197E+02  0.62739113604E+02  0.00000000000E+00 0.  1.
<mgrwt>
<rscale>  0 0.91824949E+02</rscale>
<asrwt>0</asrwt>
<pdfrwt beam="1">  1        2 0.43031372E-02 0.91824949E+02</pdfrwt>
<pdfrwt beam="2">  1       -2 0.11594433E-01 0.91824949E+02</pdfrwt>
<totfact> 0.84994163E+04</totfact>
</mgrwt>
</event>
<event>
 5    1  0.3921687E+001  0.9028754E+02  0.7546771E-02  0.1302157E+00
          1   -1    0    0  501    0  0.00000000000E+00  0.00000000000E+00  0.32064540821E+03  0.32064540821E+03  0.00000000000E+00 0. -1.
         -1   -1    0    0    0  501 -0.00000000000E+00 -0.00000000000E+00 -0.63558062617E+01  0.63558062617E+01  0.00000000000E+00 0.  1.
         23    2    1    2    0    0  0.00000000000E+00  0.00000000000E+00  0.31428960195E+03  0.32700121448E+03  0.90287542736E+02 0.  0.
          2    1    3    3  502    0 -0.19419720709E+02 -0.17593299855E+02  0.29028189774E+03  0.29146222724E+03  0.00000000000E+00 0. -1.
         -2    1    3    3    0  502  0.19419720709E+02  0.17593299855E+02  0.24007704212E+02  0.35538987236E+02  0.00000000000E+00 0.  1.
<mgrwt>
<rscale>  0 0.90287543E+02</rscale>
<asrwt>0</asrwt>
<pdfrwt beam="1">  1        1 0.49330050E-01 0.90287543E+02</pdfrwt>
<pdfrwt beam="2">  1       -1 0.97781660E-03 0.90287543E+02</pdfrwt>
<totfact> 0.13316684E+05</totfact>
</mgrwt>
</event>
<event>
 5    1  0.3921687E+001  0.8820048E+02  0.7546771E-02  0.1307269E+00
         -2   -1    0    0    0  501 -0.00000000000E+00  0.00000000000E+00  0.64125214096E+03  0.64125214096E+03  0.00000000000E+00 0.  1.
          2   -1    0    0  501    0  0.00000000000E+00 -0.00000000000E+00 -0.30328647119E+01  0.30328647119E+01  0.00000000000E+00 0. -1.
         23    2    1    2    0    0  0.00000000000E+00  0.00000000000E+00  0.63821927624E+03  0.64428500567E+03  0.88200475957E+02 0.  0.
          2    1    3    3  502    0  0.22781368949E+02 -0.13547704716E+02  0.57657589747E+03  0.57718480283E+03  0.00000000000E+00 0.  1.
         -2    1    3    3    0  502 -0.22781368949E+02  0.13547704716E+02  0.61643378778E+02  0.67100202842E+02  0.00000000000E+00 0. -1.
<mgrwt>
<rscale>  0 0.88200476E+02</rscale>
<asrwt>0</asrwt>
<pdfrwt beam="2">  1        2 0.46659508E-03 0.88200476E+02</pdfrwt>
<pdfrwt beam="1">  1       -2 0.98654067E-01 0.88200476E+02</pdfrwt>
<totfact> 0.32129802E+04</totfact>
</mgrwt>
</event>
<event>
 5    1  0.3921687E+001  0.8860450E+02  0.7546771E-02  0.1306267E+00
          2   -1    0    0  501    0  0.00000000000E+00  0.00000000000E+00  0.67266233852E+03  0.67266233852E+03  0.00000000000E+00 0. -1.
         -2   -1    0    0    0  501 -0.00000000000E+00 -0.00000000000E+00 -0.29177930964E+01  0.29177930964E+01  0.00000000000E+00 0.  1.
         23    2    1    2    0    0  0.00000000000E+00  0.00000000000E+00  0.66974454543E+03  0.67558013162E+03  0.88604503893E+02 0.  0.
          2    1    3    3  502    0 -0.37779834074E+02  0.86117797828E+01  0.49861833249E+03  0.50012170529E+03  0.00000000000E+00 0. -1.
         -2    1    3    3    0  502  0.37779834074E+02 -0.86117797828E+01  0.17112621294E+03  0.17545842633E+03  0.00000000000E+00 0.  1.
<mgrwt>
<rscale>  0 0.88604504E+02</rscale>
<asrwt>0</asrwt>
<pdfrwt beam="1">  1        2 0.10348639E+00 0.88604504E+02</pdfrwt>
<pdfrwt beam="2">  1       -2 0.44889178E-03 0.88604504E+02</pdfrwt>
<totfact> 0.25327554E+05</totfact>
</mgrwt>
</event>
<event>
 5    1  0.3921687E+001  0.8854259E+02  0.7546771E-02  0.1306420E+00
          3   -1    0    0  501    0  0.00000000000E+00  0.00000000000E+00  0.41712572832E+02  0.41712572832E+02  0.00000000000E+00 0. -1.
         -3   -1    0    0    0  501 -0.00000000000E+00 -0.00000000000E+00 -0.46986974890E+02  0.46986974890E+02  0.00000000000E+00 0.  1.
         23    2    1    2    0    0  0.00000000000E+00  0.00000000000E+00 -0.52744020583E+01  0.88699547722E+02  0.88542591158E+02 0.  0.
          2    1    3    3  502    0  0.35012341237E+02  0.21097201466E+02  0.14392688693E+02  0.43337113845E+02  0.00000000000E+00 0. -1.
         -2    1    3    3    0  502 -0.35012341237E+02 -0.21097201466E+02 -0.19667090751E+02  0.45362433877E+02  0.00000000000E+00 0.  1.
<mgrwt>
<rscale>  0 0.88542591E+02</rscale>
<asrwt>0</asrwt>
<pdfrwt beam="1">  1        3 0.64173189E-02 0.88542591E+02</pdfrwt>
<pdfrwt beam="2">  1       -3 0.72287654E-02 0.88542591E+02</pdfrwt>
<totfact> 0.38476314E+04</totfact>
</mgrwt>
</event>
<event>
 5    1  0.3921687E+001  0.9081478E+02  0.7546771E-02  0.1300891E+00
          4   -1    0    0  501    0  0.00000000000E+00  0.00000000000E+00  0.28834535865E+03  0.28834535865E+03  0.00000000000E+00 0. -1.
         -4   -1    0    0    0  501 -0.00000000000E+00 -0.00000000000E+00 -0.71505603102E+01  0.71505603102E+01  0.00000000000E+00 0.  1.
         23    2    1    2    0    0  0.00000000000E+00  0.00000000000E+00  0.28119479834E+03  0.29549591896E+03  0.90814775829E+02 0.  0.
          2    1    3    3  502    0  0.34394739117E+02 -0.25969569784E+02  0.94076237695E+02  0.10347828339E+03  0.00000000000E+00 0. -1.
         -2    1    3    3    0  502 -0.34394739117E+02  0.25969569784E+02  0.18711856065E+03  0.19201763558E+03  0.00000000000E+00 0.  1.
<mgrwt>
<rscale>  0 0.90814776E+02</rscale>
<asrwt>0</asrwt>
<pdfrwt beam="1">  1        4 0.44360815E-01 0.90814776E+02</pdfrwt>
<pdfrwt beam="2">  1       -4 0.11000864E-02 0.90814776E+02</pdfrwt>
<totfact> 0.18149305E+04</totfact>
</mgrwt>
</event>
<event>
 5    1  0.3921687E+001  0.8997468E+02  0.7546771E-02  0.1302913E+00
          1   -1    0    0  501    0  0.00000000000E+00  0.00000000000E+00  0.29055341184E+03  0.29055341184E+03  0.00000000000E+00 0. -1.
         -1   -1    0    0    0  501 -0.00000000000E+00 -0.00000000000E+00 -0.69655370136E+01  0.69655370136E+01  0.00000000000E+00 0.  1.
         23    2    1    2    0    0  0.00000000000E+00  0.00000000000E+00  0.28358787482E+03  0.29751894885E+03  0.89974675205E+02 0.  0.
          2    1    3    3  502    0  0.23662040373E+02 -0.31264139833E+02  0.21473054556E+03  0.21828088736E+03  0.00000000000E+00 0. -1.
         -2    1    3    3    0  502 -0.23662040373E+02  0.31264139833E+02  0.68857329267E+02  0.79238061485E+02  0.00000000000E+00 0.  1.
<mgrwt>
<rscale>  0 0.89974675E+02</rscale>
<asrwt>0</asrwt>
<pdfrwt beam="1">  1        1 0.44700516E-01 0.89974675E+02</pdfrwt>
<pdfrwt beam="2">  1       -1 0.10716213E-02 0.89974675E+02</pdfrwt>
<totfact> 0.13191991E+05</totfact>
</mgrwt>
</event>
<event>
 5    1  0.3921687E+001  0.9234804E+02  0.7546771E-02  0.1297263E+00
         -1   -1    0    0    0  501 -0.00000000000E+00  0.00000000000E+00  0.22285031577E+01  0.22285031577E+01  0.00000000000E+00 0.  1.
          1   -1    0    0  501    0  0.00000000000E+00 -0.00000000000E+00 -0.95671403207E+03  0.95671403207E+03  0.00000000000E+00 0. -1.
         23    2    1    2    0    0  0.00000000000E+00  0.00000000000E+00 -0.95448552892E+03  0.95894253523E+03  0.92348042568E+02 0.  0.
          2    1    3    3  502    0  0.21313848400E+02  0.14124244539E+02 -0.87648930036E+03  0.87686217165E+03  0.00000000000E+00 0. -1.
         -2    1    3    3    0  502 -0.21313848400E+02 -0.14124244539E+02 -0.77996228551E+02  0.82080363581E+02  0.00000000000E+00 0.  1.
<mgrwt>
<rscale>  0 0.92348043E+02</rscale>
<asrwt>0</asrwt>
<pdfrwt beam="2">  1        1 0.14718714E+00 0.92348043E+02</pdfrwt>
<pdfrwt beam="1">  1       -1 0.34284580E-03 0.92348043E+02</pdfrwt>
<totfact> 0.13293364E+05</totfact>
</mgrwt>
</event>
<event>
 5    1  0.3921687E+001  0.9336793E+02  0.7546771E-02  0.1294895E+00
         -1   -1    0    0    0  501 -0.00000000000E+00  0.00000000000E+00  0.42868672339E+01  0.42868672339E+01  0.00000000000E+00 0.  1.
          1   -1    0    0  501    0  0.00000000000E+00 -0.00000000000E+00 -0.50838812092E+03  0.50838812092E+03  0.00000000000E+00 0. -1.
         23    2    1    2    0    0  0.00000000000E+00  0.00000000000E+00 -0.50410125369E+03  0.51267498816E+03  0.93367925492E+02 0.  0.
          2    1    3    3  502    0 -0.17238934704E+01  0.45251698720E+02 -0.31434387873E+03  0.31758898303E+03  0.00000000000E+00 0. -1.
         -2    1    3    3    0  502  0.17238934704E+01 -0.45251698720E+02 -0.18975737496E+03  0.19508600513E+03  0.00000000000E+00 0.  1.
<mgrwt>
<rscale>  0 0.93367925E+02</rscale>
<asrwt>0</asrwt>
<pdfrwt beam="2">  1        1 0.78213561E-01 0.93367925E+02</pdfrwt>
<pdfrwt beam="1">  1       -1 0.65951800E-03 0.93367925E+02</pdfrwt>
<totfact> 0.13101233E+05</totfact>
</mgrwt>
</event>
<event>
 5    1  0.3921687E+001  0.9258756E+02  0.7546771E-02  0.1296704E+00
          1   -1    0    0  501    0  0.00000000000E+00  0.00000000000E+00  0.64261210347E+01  0.64261210347E+01  0.00000000000E+00 0. -1.
         -1   -1    0    0    0  501 -0.00000000000E+00 -0.00000000000E+00 -0.33350038543E+03  0.33350038543E+03  0.00000000000E+00 0.  1.
         23    2    1    2    0    0  0.00000000000E+00  0.00000000000E+00 -0.32707426440E+03  0.33992650646E+03  0.92587555144E+02 0.  0.
          2    1    3    3  502    0 -0.15950096429E+02 -0.30713015466E+02 -0.50649967487E+02  0.61344226310E+02  0.00000000000E+00 0. -1.
         -2    1    3    3    0  502  0.15950096429E+02  0.30713015466E+02 -0.27642429691E+03  0.27858228016E+03  0.00000000000E+00 0.  1.
<mgrwt>
<rscale>  0 0.92587555E+02</rscale>
<asrwt>0</asrwt>
<pdfrwt beam="1">  1        1 0.98863435E-03 0.92587555E+02</pdfrwt>
<pdfrwt beam="2">  1       -1 0.51307734E-01 0.92587555E+02</pdfrwt>
<totfact> 0.55716545E+04</totfact>
</mgrwt>
</event>
<event>
 5    1  0.3921687E+001  0.9426696E+02  0.7546771E-02  0.1292836E+00
         -1   -1    0    0    0  501 -0.00000000000E+00  0.00000000000E+00  0.10297241708E+02  0.10297241708E+02  0.00000000000E+00 0.  1.
          1   -1    0    0  501    0  0.00000000000E+00 -0.00000000000E+00 -0.21574370032E+03  0.21574370032E+03  0.00000000000E+00 0. -1.
         23    2    1    2    0    0  0.00000000000E+00  0.00000000000E+00 -0.20544645861E+03  0.22604094203E+03  0.94266961959E+02 0.  0.
          2    1    3    3  502    0 -0.30340641422E+02 -0.24903948977E+02 -0.16528925860E+03  0.16988613895E+03  0.00000000000E+00 0. -1.
         -2    1    3    3    0  502  0.30340641422E+02  0.24903948977E+02 -0.40157200006E+02  0.56154803079E+02  0.00000000000E+00 0.  1.
<mgrwt>
<rscale>  0 0.94266962E+02</rscale>
<asrwt>0</asrwt>
<pdfrwt beam="2">  1        1 0.33191341E-01 0.94266962E+02</pdfrwt>
<pdfrwt beam="1">  1       -1 0.15841909E-02 0.94266962E+02</pdfrwt>
<totfact> 0.10987805E+05</totfact>
</mgrwt>
</event>
<event>
 5    1  0.3921687E+001  0.9191803E+02  0.7546771E-02  0.1298272E+00
          2   -1    0    0  501    0  0.00000000000E+00  0.00000000000E+00  0.99936451152E+01  0.99936451152E+01  0.00000000000E+00 0. -1.
         -2   -1    0    0    0  501 -0.00000000000E+00 -0.00000000000E+00 -0.21135743097E+03  0.21135743097E+03  0.00000000000E+00 0.  1.
         23    2    1    2    0    0  0.00000000000E+00  0.00000000000E+00 -0.20136378585E+03  0.22135107609E+03  0.91918032128E+02 0.  0.
          2    1    3    3  502    0 -0.14057817614E+02  0.16534065781E+02 -0.31231674306E+01  0.21926051676E+02  0.00000000000E+00 0. -1.
         -2    1    3    3    0  502  0.14057817614E+02 -0.16534065781E+02 -0.19824061842E+03  0.19942502441E+03  0.00000000000E+00 0.  1.
<mgrwt>
<rscale>  0 0.91918032E+02</rscale>
<asrwt>0</asrwt>
<pdfrwt beam="1">  1        2 0.15374838E-02 0.91918032E+02</pdfrwt>
<pdfrwt beam="2">  1       -2 0.32516528E-01 0.91918032E+02</pdfrwt>
<totfact> 0.59573643E+04</totfact>
</mgrwt>
</event>
<event>
 5    1  0.3921687E+001  0.9168311E+02  0.7546771E-02  0.1298826E+00
          4   -1    0    0  501    0  0.00000000000E+00  0.00000000000E+00  0.52303716091E+02  0.52303716091E+02  0.00000000000E+00 0.  1.
         -4   -1    0    0    0  501 -0.00000000000E+00 -0.00000000000E+00 -0.40177795335E+02  0.40177795335E+02  0.00000000000E+00 0. -1.
         23    2    1    2    0    0  0.00000000000E+00  0.00000000000E+00  0.12125920756E+02  0.92481511425E+02  0.91683106412E+02 0.  0.
          2    1    3    3  502    0 -0.42819698176E+02  0.41068419593E+01 -0.99197450111E+01  0.44145147455E+02  0.00000000000E+00 0. -1.
         -2    1    3    3    0  502  0.42819698176E+02 -0.41068419593E+01  0.22045665767E+02  0.48336363970E+02  0.00000000000E+00 0.  1.
<mgrwt>
<rscale>  0 0.91683106E+02</rscale>
<asrwt>0</asrwt>
<pdfrwt beam="1">  1        4 0.80467256E-02 0.91683106E+02</pdfrwt>
<pdfrwt beam="2">  1       -4 0.61811993E-02 0.91683106E+02</pdfrwt>
<totfact> 0.26530068E+04</totfact>
</mgrwt>
</event>
<event>
 5    1  0.3921687E+001  0.9184479E+02  0.7546771E-02  0.1298445E+00
          2   -1    0    0  501    0  0.00000000000E+00  0.00000000000E+00  0.17807687511E+02  0.17807687511E+02  0.00000000000E+00 0. -1.
         -2   -1    0    0    0  501 -0.00000000000E+00 -0.00000000000E+00 -0.11842449520E+03  0.11842449520E+03  0.00000000000E+00 0.  1.
         23    2    1    2    0    0  0.00000000000E+00  0.00000000000E+00 -0.10061680768E+03  0.13623218271E+03  0.91844790904E+02 0.  0.
          2    1    3    3  502    0 -0.10107776579E+02 -0.37751657416E+02 -0.14539602760E+02  0.41698379267E+02  0.00000000000E+00 0. -1.
         -2    1    3    3    0  502  0.10107776579E+02  0.37751657416E+02 -0.86077204925E+02  0.94533803439E+02  0.00000000000E+00 0.  1.
<mgrwt>
<rscale>  0 0.91844791E+02</rscale>
<asrwt>0</asrwt>
<pdfrwt beam="1">  1        2 0.27396442E-02 0.91844791E+02</pdfrwt>
<pdfrwt beam="2">  1       -2 0.18219154E-01 0.91844791E+02</pdfrwt>
<totfact> 0.74363393E+04</totfact>
</mgrwt>
</event>
<event>
 5    1  0.3921687E+001  0.9268229E+02  0.7546771E-02  0.1296483E+00
         -2   -1    0    0    0  501 -0.00000000000E+00  0.00000000000E+00  0.37462444743E+01  0.37462444743E+01  0.00000000000E+00 0. -1.
          2   -1    0    0  501    0  0.00000000000E+00 -0.00000000000E+00 -0.57324117419E+03  0.57324117419E+03  0.00000000000E+00 0.  1.
         23    2    1    2    0    0  0.00000000000E+00  0.00000000000E+00 -0.56949492972E+03  0.57698741867E+03  0.92682287007E+02 0.  0.
          2    1    3    3  502    0  0.40599927641E+02  0.15399049333E+02 -0.38551812834E+03  0.38795581208E+03  0.00000000000E+00 0. -1.
         -2    1    3    3    0  502 -0.40599927641E+02 -0.15399049333E+02 -0.18397680137E+03  0.18903160659E+03  0.00000000000E+00 0.  1.
<mgrwt>
<rscale>  0 0.92682287E+02</rscale>
<asrwt>0</asrwt>
<pdfrwt beam="2">  1        2 0.88190907E-01 0.92682287E+02</pdfrwt>
<pdfrwt beam="1">  1       -2 0.57634558E-03 0.92682287E+02</pdfrwt>
<totfact> 0.21532419E+05</totfact>
</mgrwt>
</event>
<event>
 5    1  0.3921687E+001  0.9453484E+02  0.7546771E-02  0.1292227E+00
         -3   -1    0    0    0  501 -0.00000000000E+00  0.00000000000E+00  0.25070160142E+03  0.25070160142E+03  0.00000000000E+00 0.  1.
          3   -1    0    0  501    0  0.00000000000E+00 -0.00000000000E+00 -0.89118249133E+01  0.89118249133E+01  0.00000000000E+00 0. -1.
         23    2    1    2    0    0  0.00000000000E+00  0.00000000000E+00  0.24178977650E+03  0.25961342633E+03  0.94534835427E+02 0.  0.
          2    1    3    3  502    0  0.41147654648E+02 -0.17757545616E+02  0.79633097995E+02  0.91377733642E+02  0.00000000000E+00 0. -1.
         -2    1    3    3    0  502 -0.41147654648E+02  0.17757545616E+02  0.16215667851E+03  0.16823569269E+03  0.00000000000E+00 0.  1.
<mgrwt>
<rscale>  0 0.94534835E+02</rscale>
<asrwt>0</asrwt>
<pdfrwt beam="2">  1        3 0.13710502E-02 0.94534835E+02</pdfrwt>
<pdfrwt beam="1">  1       -3 0.38569472E-01 0.94534835E+02</pdfrwt>
<totfact> 0.23290655E+04</totfact>
</mgrwt>
</event>
<event>
 4    1  0.3921687E+001  0.1433300E+03  0.7546771E-02  0.1208917E+00
          1   -1    0    0  501    0  0.00000000000E+00  0.00000000000E+00  0.10930185572E+04  0.10930185572E+04  0.00000000000E+00 0. -1.
         -1   -1    0    0    0  501 -0.00000000000E+00 -0.00000000000E+00 -0.46987993766E+01  0.46987993766E+01  0.00000000000E+00 0.  1.
          2    1    1    2  502    0 -0.19035322945E+02 -0.65293033628E+02  0.71717651649E+03  0.72039411405E+03  0.00000000000E+00 0. -1.
         -2    1    1    2    0  502  0.19035322945E+02  0.65293033628E+02  0.37114324134E+03  0.37732324253E+03  0.00000000000E+00 0.  1.
<mgrwt>
<rscale>  0 0.14333004E+03</rscale>
<asrwt>0</asrwt>
<pdfrwt beam="1">  1        1 0.16815650E+00 0.14333004E+03</pdfrwt>
<pdfrwt beam="2">  1       -1 0.72289308E-03 0.14333004E+03</pdfrwt>
<totfact> 0.39014942E+04</totfact>
</mgrwt>
</event>
<event>
 5    1  0.3921687E+001  0.8939926E+02  0.7546771E-02  0.1304313E+00
         -1   -1    0    0    0  501 -0.00000000000E+00  0.00000000000E+00  0.45051481394E+01  0.45051481394E+01  0.00000000000E+00 0.  1.
          1   -1    0    0  501    0  0.00000000000E+00 -0.00000000000E+00 -0.44350530813E+03  0.44350530813E+03  0.00000000000E+00 0. -1.
         23    2    1    2    0    0  0.00000000000E+00  0.00000000000E+00 -0.43900015999E+03  0.44801045627E+03  0.89399264286E+02 0.  0.
          2    1    3    3  502    0  0.27835639675E+02 -0.22124334960E+02 -0.35524628419E+03  0.35702133195E+03  0.00000000000E+00 0. -1.
         -2    1    3    3    0  502 -0.27835639675E+02  0.22124334960E+02 -0.83753875800E+02  0.90989124323E+02  0.00000000000E+00 0.  1.
<mgrwt>
<rscale>  0 0.89399264E+02</rscale>
<asrwt>0</asrwt>
<pdfrwt beam="2">  1        1 0.68231606E-01 0.89399264E+02</pdfrwt>
<pdfrwt beam="1">  1       -1 0.69309950E-03 0.89399264E+02</pdfrwt>
<totfact> 0.14440862E+05</totfact>
</mgrwt>
</event>
<event>
 5    1  0.3921687E+001  0.9535823E+02  0.7546771E-02  0.1290371E+00
         -1   -1    0    0    0  501 -0.00000000000E+00  0.00000000000E+00  0.20577316444E+01  0.20577316444E+01  0.00000000000E+00 0.  1.
          1   -1    0    0  501    0  0.00000000000E+00 -0.00000000000E+00 -0.11047593077E+04  0.11047593077E+04  0.00000000000E+00 0. -1.
         23    2    1    2    0    0  0.00000000000E+00  0.00000000000E+00 -0.11027015760E+04  0.11068170393E+04  0.95358233768E+02 0.  0.
          2    1    3    3  502    0  0.41645188586E+02  0.39372135294E+01 -0.81691254265E+03  0.81798283951E+03  0.00000000000E+00 0. -1.
         -2    1    3    3    0  502 -0.41645188586E+02 -0.39372135294E+01 -0.28578903336E+03  0.28883419979E+03  0.00000000000E+00 0.  1.
<mgrwt>
<rscale>  0 0.95358234E+02</rscale>
<asrwt>0</asrwt>
<pdfrwt beam="2">  1        1 0.16996338E+00 0.95358234E+02</pdfrwt>
<pdfrwt beam="1">  1       -1 0.31657334E-03 0.95358234E+02</pdfrwt>
<totfact> 0.11703015E+05</totfact>
</mgrwt>
</event>
<event>
 5    1  0.3921687E+001  0.7877501E+02  0.7546771E-02  0.1332564E+00
         -1   -1    0    0    0  501 -0.00000000000E+00  0.00000000000E+00  0.58746123870E+00  0.58746123870E+00  0.00000000000E+00 0.  1.
          1   -1    0    0  501    0  0.00000000000E+00 -0.00000000000E+00 -0.26408137379E+04  0.26408137379E+04  0.00000000000E+00 0. -1.
         23    2    1    2    0    0  0.00000000000E+00  0.00000000000E+00 -0.26402262766E+04  0.26414011991E+04  0.78775014050E+02 0.  0.
          2    1    3    3  502    0  0.30800273125E+02 -0.88997414988E+01 -0.20873153010E+04  0.20875615028E+04  0.00000000000E+00 0. -1.
         -2    1    3    3    0  502 -0.30800273125E+02  0.88997414988E+01 -0.55291097564E+03  0.55383969630E+03  0.00000000000E+00 0.  1.
<mgrwt>
<rscale>  0 0.78775014E+02</rscale>
<asrwt>0</asrwt>
<pdfrwt beam="2">  1        1 0.40627166E+00 0.78775014E+02</pdfrwt>
<pdfrwt beam="1">  1       -1 0.90380293E-04 0.78775014E+02</pdfrwt>
<totfact> 0.67403776E+04</totfact>
</mgrwt>
</event>
<event>
 5    1  0.3921687E+001  0.8993591E+02  0.7546771E-02  0.1303007E+00
          1   -1    0    0  501    0  0.00000000000E+00  0.00000000000E+00  0.16643870957E+01  0.16643870957E+01  0.00000000000E+00 0.  1.
         -1   -1    0    0    0  501 -0.00000000000E+00 -0.00000000000E+00 -0.12149319297E+04  0.12149319297E+04  0.00000000000E+00 0. -1.
         23    2    1    2    0    0  0.00000000000E+00  0.00000000000E+00 -0.12132675426E+04  0.12165963168E+04  0.89935911091E+02 0.  0.
          2    1    3    3  502    0  0.14824359126E+02  0.29590531634E+02 -0.10184429520E+04  0.10189805728E+04  0.00000000000E+00 0. -1.
         -2    1    3    3    0  502 -0.14824359126E+02 -0.29590531634E+02 -0.19482459053E+03  0.19761574397E+03  0.00000000000E+00 0.  1.
<mgrwt>
<rscale>  0 0.89935911E+02</rscale>
<asrwt>0</asrwt>
<pdfrwt beam="1">  1        1 0.25605830E-03 0.89935911E+02</pdfrwt>
<pdfrwt beam="2">  1       -1 0.18691352E+00 0.89935911E+02</pdfrwt>
<totfact> 0.20454444E+04</totfact>
</mgrwt>
</event>
<event>
 5    1  0.3921687E+001  0.9173624E+02  0.7546771E-02  0.1298701E+00
         -3   -1    0    0    0  501 -0.00000000000E+00  0.00000000000E+00  0.16598565626E+03  0.16598565626E+03  0.00000000000E+00 0.  1.
          3   -1    0    0  501    0  0.00000000000E+00 -0.00000000000E+00 -0.12675097231E+02  0.12675097231E+02  0.00000000000E+00 0. -1.
         23    2    1    2    0    0  0.00000000000E+00  0.00000000000E+00  0.15331055903E+03  0.17866075349E+03  0.91736237812E+02 0.  0.
          2    1    3    3  502    0 -0.59892980491E+01  0.41908232347E+02  0.42270559995E+02  0.59824508956E+02  0.00000000000E+00 0. -1.
         -2    1    3    3    0  502  0.59892980491E+01 -0.41908232347E+02  0.11103999903E+03  0.11883624453E+03  0.00000000000E+00 0.  1.
<mgrwt>
<rscale>  0 0.91736238E+02</rscale>
<asrwt>0</asrwt>
<pdfrwt beam="2">  1        3 0.19500151E-02 0.91736238E+02</pdfrwt>
<pdfrwt beam="1">  1       -3 0.25536253E-01 0.91736238E+02</pdfrwt>
<totfact> 0.29153256E+04</totfact>
</mgrwt>
</event>
<event>
 5    1  0.3921687E+001  0.9102057E+02  0.7546771E-02  0.1300399E+00
          1   -1    0    0  501    0  0.00000000000E+00  0.00000000000E+00  0.96256110715E+01  0.96256110715E+01  0.00000000000E+00 0. -1.
         -1   -1    0    0    0  501 -0.00000000000E+00 -0.00000000000E+00 -0.21517450775E+03  0.21517450775E+03  0.00000000000E+00 0.  1.
         23    2    1    2    0    0  0.00000000000E+00  0.00000000000E+00 -0.20554889668E+03  0.22480011883E+03  0.91020571832E+02 0.  0.
          2    1    3    3  502    0 -0.30113301072E+02 -0.32930794216E+02 -0.80692689797E+02  0.92209317837E+02  0.00000000000E+00 0. -1.
         -2    1    3    3    0  502  0.30113301072E+02  0.32930794216E+02 -0.12485620689E+03  0.13259080099E+03  0.00000000000E+00 0.  1.
<mgrwt>
<rscale>  0 0.91020572E+02</rscale>
<asrwt>0</asrwt>
<pdfrwt beam="1">  1        1 0.14808633E-02 0.91020572E+02</pdfrwt>
<pdfrwt beam="2">  1       -1 0.33103769E-01 0.91020572E+02</pdfrwt>
<totfact> 0.68253252E+04</totfact>
</mgrwt>
</event>
<event>
 5    1  0.3921687E+001  0.9079373E+02  0.7546771E-02  0.1300941E+00
          1   -1    0    0  501    0  0.00000000000E+00  0.00000000000E+00  0.56740603276E+02  0.56740603276E+02  0.00000000000E+00 0. -1.
         -1   -1    0    0    0  501 -0.00000000000E+00 -0.00000000000E+00 -0.36320995772E+02  0.36320995772E+02  0.00000000000E+00 0.  1.
         23    2    1    2    0    0  0.00000000000E+00  0.00000000000E+00  0.20419607503E+02  0.93061599048E+02  0.90793726913E+02 0.  0.
          2    1    3    3  502    0  0.39868300378E+02 -0.71950474208E+01 -0.10786623967E+02  0.41923756261E+02  0.00000000000E+00 0.  1.
         -2    1    3    3    0  502 -0.39868300378E+02  0.71950474208E+01  0.31206231470E+02  0.51137842787E+02  0.00000000000E+00 0. -1.
<mgrwt>
<rscale>  0 0.90793727E+02</rscale>
<asrwt>0</asrwt>
<pdfrwt beam="1">  1        1 0.87293236E-02 0.90793727E+02</pdfrwt>
<pdfrwt beam="2">  1       -1 0.55878455E-02 0.90793727E+02</pdfrwt>
<totfact> 0.96686622E+04</totfact>
</mgrwt>
</event>
<event>
 5    1  0.3921687E+001  0.8406297E+02  0.7546771E-02  0.1317901E+00
          1   -1    0    0  501    0  0.00000000000E+00  0.00000000000E+00  0.36834963279E+01  0.36834963279E+01  0.00000000000E+00 0. -1.
         -1   -1    0    0    0  501 -0.00000000000E+00 -0.00000000000E+00 -0.47961108653E+03  0.47961108653E+03  0.00000000000E+00 0.  1.
         23    2    1    2    0    0  0.00000000000E+00  0.00000000000E+00 -0.47592759020E+03  0.48329458286E+03  0.84062968686E+02 0.  0.
          2    1    3    3  502    0  0.25576852925E+02 -0.19562485576E+02 -0.82652510173E+02  0.88703459264E+02  0.00000000000E+00 0. -1.
         -2    1    3    3    0  502 -0.25576852925E+02  0.19562485576E+02 -0.39327508003E+03  0.39459112360E+03  0.00000000000E+00 0.  1.
<mgrwt>
<rscale>  0 0.84062969E+02</rscale>
<asrwt>0</asrwt>
<pdfrwt beam="1">  1        1 0.56669175E-03 0.84062969E+02</pdfrwt>
<pdfrwt beam="2">  1       -1 0.73786320E-01 0.84062969E+02</pdfrwt>
<totfact> 0.59653423E+04</totfact>
</mgrwt>
</event>
<event>
 5    1  0.3921687E+001  0.9130148E+02  0.7546771E-02  0.1299730E+00
         -1   -1    0    0    0  501 -0.00000000000E+00  0.00000000000E+00  0.19328050118E+02  0.19328050118E+02  0.00000000000E+00 0.  1.
          1   -1    0    0  501    0  0.00000000000E+00 -0.00000000000E+00 -0.10782205935E+03  0.10782205935E+03  0.00000000000E+00 0. -1.
         23    2    1    2    0    0  0.00000000000E+00  0.00000000000E+00 -0.88494009231E+02  0.12715010947E+03  0.91301482288E+02 0.  0.
          2    1    3    3  502    0 -0.20139264664E+02  0.20717689290E+02 -0.93468068094E+02  0.97831959931E+02  0.00000000000E+00 0. -1.
         -2    1    3    3    0  502  0.20139264664E+02 -0.20717689290E+02  0.49740588626E+01  0.29318149537E+02  0.00000000000E+00 0.  1.
<mgrwt>
<rscale>  0 0.91301482E+02</rscale>
<asrwt>0</asrwt>
<pdfrwt beam="2">  1        1 0.16588009E-01 0.91301482E+02</pdfrwt>
<pdfrwt beam="1">  1       -1 0.29735461E-02 0.91301482E+02</pdfrwt>
<totfact> 0.10538731E+05</totfact>
</mgrwt>
</event>
<event>
 5    1  0.3921687E+001  0.9085856E+02  0.7546771E-02  0.1300786E+00
         -2   -1    0    0    0  501 -0.00000000000E+00  0.00000000000E+00  0.10566494439E+01  0.10566494439E+01  0.00000000000E+00 0.  1.
          2   -1    0    0  501    0  0.00000000000E+00 -0.00000000000E+00 -0.19531733000E+04  0.19531733000E+04  0.00000000000E+00 0. -1.
         23    2    1    2    0    0  0.00000000000E+00  0.00000000000E+00 -0.19521166505E+04  0.19542299494E+04  0.90858560000E+02 0.  0.
          2    1    3    3  502    0  0.32152303644E+02 -0.14210282872E+02 -0.15950083576E+04  0.15953956761E+04  0.00000000000E+00 0. -1.
         -2    1    3    3    0  502 -0.32152303644E+02  0.14210282872E+02 -0.35710829298E+03  0.35883427328E+03  0.00000000000E+00 0.  1.
<mgrwt>
<rscale>  0 0.90858560E+02</rscale>
<asrwt>0</asrwt>
<pdfrwt beam="2">  1        2 0.30048729E+00 0.90858560E+02</pdfrwt>
<pdfrwt beam="1">  1       -2 0.16256194E-03 0.90858560E+02</pdfrwt>
<totfact> 0.20293215E+05</totfact>
</mgrwt>
</event>
<event>
 5    1  0.3921687E+001  0.9182342E+02  0.7546771E-02  0.1298495E+00
          3   -1    0    0  501    0  0.00000000000E+00  0.00000000000E+00  0.18754246664E+03  0.18754246664E+03  0.00000000000E+00 0. -1.
         -3   -1    0    0    0  501 -0.00000000000E+00 -0.00000000000E+00 -0.11239508536E+02  0.11239508536E+02  0.00000000000E+00 0.  1.
         23    2    1    2    0    0  0.00000000000E+00  0.00000000000E+00  0.17630295811E+03  0.19878197518E+03  0.91823420861E+02 0.  0.
          2    1    3    3  502    0  0.19251280357E+02  0.36286764835E+02  0.13254599074E+03  0.13876520010E+03  0.00000000000E+00 0. -1.
         -2    1    3    3    0  502 -0.19251280357E+02 -0.36286764835E+02  0.43756967364E+02  0.60016775076E+02  0.00000000000E+00 0.  1.
<mgrwt>
<rscale>  0 0.91823421E+02</rscale>
<asrwt>0</asrwt>
<pdfrwt beam="1">  1        3 0.28852685E-01 0.91823421E+02</pdfrwt>
<pdfrwt beam="2">  1       -3 0.17291553E-02 0.91823421E+02</pdfrwt>
<totfact> 0.28021220E+04</totfact>
</mgrwt>
</event>
<event>
 5    1  0.3921687E+001  0.9150192E+02  0.7546771E-02  0.1299255E+00
         -3   -1    0    0    0  501 -0.00000000000E+00  0.00000000000E+00  0.67800785616E+01  0.67800785616E+01  0.00000000000E+00 0.  1.
          3   -1    0    0  501    0  0.00000000000E+00 -0.00000000000E+00 -0.30872066609E+03  0.30872066609E+03  0.00000000000E+00 0. -1.
         23    2    1    2    0    0  0.00000000000E+00  0.00000000000E+00 -0.30194058752E+03  0.31550074465E+03  0.91501920628E+02 0.  0.
          2    1    3    3  502    0  0.25253051418E+02  0.34541806707E+02 -0.20681308690E+03  0.21119305370E+03  0.00000000000E+00 0. -1.
         -2    1    3    3    0  502 -0.25253051418E+02 -0.34541806707E+02 -0.95127500620E+02  0.10430769095E+03  0.00000000000E+00 0.  1.
<mgrwt>
<rscale>  0 0.91501921E+02</rscale>
<asrwt>0</asrwt>
<pdfrwt beam="2">  1        3 0.47495475E-01 0.91501921E+02</pdfrwt>
<pdfrwt beam="1">  1       -3 0.10430893E-02 0.91501921E+02</pdfrwt>
<totfact> 0.23220588E+04</totfact>
</mgrwt>
</event>
<event>
 5    1  0.3921687E+001  0.9469336E+02  0.7546771E-02  0.1291868E+00
          2   -1    0    0  501    0  0.00000000000E+00  0.00000000000E+00  0.51965702785E+03  0.51965702785E+03  0.00000000000E+00 0. -1.
         -2   -1    0    0    0  501 -0.00000000000E+00 -0.00000000000E+00 -0.43138219187E+01  0.43138219187E+01  0.00000000000E+00 0.  1.
         23    2    1    2    0    0  0.00000000000E+00  0.00000000000E+00  0.51534320593E+03  0.52397084977E+03  0.94693355141E+02 0.  0.
          2    1    3    3  502    0  0.21975870496E+02  0.37417153341E+02  0.36247342293E+03  0.36506159011E+03  0.00000000000E+00 0. -1.
         -2    1    3    3    0  502 -0.21975870496E+02 -0.37417153341E+02  0.15286978300E+03  0.15890925965E+03  0.00000000000E+00 0.  1.
<mgrwt>
<rscale>  0 0.94693355E+02</rscale>
<asrwt>0</asrwt>
<pdfrwt beam="1">  1        2 0.79947186E-01 0.94693355E+02</pdfrwt>
<pdfrwt beam="2">  1       -2 0.66366532E-03 0.94693355E+02</pdfrwt>
<totfact> 0.19735238E+05</totfact>
</mgrwt>
</event>
<event>
 5    1  0.3921687E+001  0.9311833E+02  0.7546771E-02  0.1295471E+00
          1   -1    0    0  501    0  0.00000000000E+00  0.00000000000E+00  0.55573994048E+03  0.55573994048E+03  0.00000000000E+00 0. -1.
         -1   -1    0    0    0  501 -0.00000000000E+00 -0.00000000000E+00 -0.39006658411E+01  0.39006658411E+01  0.00000000000E+00 0.  1.
         23    2    1    2    0    0  0.00000000000E+00  0.00000000000E+00  0.55183927464E+03  0.55964060632E+03  0.93118329074E+02 0.  0.
          2    1    3    3  502    0 -0.43901276425E+02 -0.14858789191E+02  0.30256100925E+03  0.30609029715E+03  0.00000000000E+00 0. -1.
         -2    1    3    3    0  502  0.43901276425E+02  0.14858789191E+02  0.24927826539E+03  0.25355030918E+03  0.00000000000E+00 0.  1.
<mgrwt>
<rscale>  0 0.93118329E+02</rscale>
<asrwt>0</asrwt>
<pdfrwt beam="1">  1        1 0.85498390E-01 0.93118329E+02</pdfrwt>
<pdfrwt beam="2">  1       -1 0.60010288E-03 0.93118329E+02</pdfrwt>
<totfact> 0.13314026E+05</totfact>
</mgrwt>
</event>
<event>
 5    1  0.3921687E+001  0.9434642E+02  0.7546771E-02  0.1292655E+00
          1   -1    0    0  501    0  0.00000000000E+00  0.00000000000E+00  0.89136524184E+02  0.89136524184E+02  0.00000000000E+00 0. -1.
         -1   -1    0    0    0  501 -0.00000000000E+00 -0.00000000000E+00 -0.24965206562E+02  0.24965206562E+02  0.00000000000E+00 0.  1.
         23    2    1    2    0    0  0.00000000000E+00  0.00000000000E+00  0.64171317622E+02  0.11410173075E+03  0.94346419931E+02 0.  0.
          2    1    3    3  502    0  0.27495264700E+02 -0.38125751065E+02  0.27286148504E+02  0.54351599565E+02  0.00000000000E+00 0. -1.
         -2    1    3    3    0  502 -0.27495264700E+02  0.38125751065E+02  0.36885169118E+02  0.59750131180E+02  0.00000000000E+00 0.  1.
<mgrwt>
<rscale>  0 0.94346420E+02</rscale>
<asrwt>0</asrwt>
<pdfrwt beam="1">  1        1 0.13713311E-01 0.94346420E+02</pdfrwt>
<pdfrwt beam="2">  1       -1 0.38408010E-02 0.94346420E+02</pdfrwt>
<totfact> 0.93325636E+04</totfact>
</mgrwt>
</event>
<event>
 5    1  0.3921687E+001  0.9230987E+02  0.7546771E-02  0.1297352E+00
         -1   -1    0    0    0  501 -0.00000000000E+00  0.00000000000E+00  0.10684375210E+03  0.10684375210E+03  0.00000000000E+00 0.  1.
          1   -1    0    0  501    0  0.00000000000E+00 -0.00000000000E+00 -0.19938255182E+02  0.19938255182E+02  0.00000000000E+00 0. -1.
         23    2    1    2    0    0  0.00000000000E+00  0.00000000000E+00  0.86905496914E+02  0.12678200728E+03  0.92309869328E+02 0.  0.
          2    1    3    3  502    0 -0.18270247164E+02 -0.31336067238E+02  0.42549011286E+01  0.36521982764E+02  0.00000000000E+00 0. -1.
         -2    1    3    3    0  502  0.18270247164E+02  0.31336067238E+02  0.82650595785E+02  0.90260024513E+02  0.00000000000E+00 0.  1.
<mgrwt>
<rscale>  0 0.92309869E+02</rscale>
<asrwt>0</asrwt>
<pdfrwt beam="2">  1        1 0.30674239E-02 0.92309869E+02</pdfrwt>
<pdfrwt beam="1">  1       -1 0.16437500E-01 0.92309869E+02</pdfrwt>
<totfact> 0.77836633E+04</totfact>
</mgrwt>
</event>
<event>
 5    1  0.3921687E+001  0.8055600E+02  0.7546771E-02  0.1327481E+00
         -1   -1    0    0    0  501 -0.00000000000E+00  0.00000000000E+00  0.14439412397E+01  0.14439412397E+01  0.00000000000E+00 0.  1.
          1   -1    0    0  501    0  0.00000000000E+00 -0.00000000000E+00 -0.11235341101E+04  0.11235341101E+04  0.00000000000E+00 0. -1.
         23    2    1    2    0    0  0.00000000000E+00  0.00000000000E+00 -0.11220901689E+04  0.11249780514E+04  0.80555998804E+02 0.  0.
          2    1    3    3  502    0  0.62651125166E+01  0.37953958851E+02 -0.72778860974E+03  0.72880451089E+03  0.00000000000E+00 0. -1.
         -2    1    3    3    0  502 -0.62651125166E+01 -0.37953958851E+02 -0.39430155915E+03  0.39617354048E+03  0.00000000000E+00 0.  1.
<mgrwt>
<rscale>  0 0.80555999E+02</rscale>
<asrwt>0</asrwt>
<pdfrwt beam="2">  1        1 0.17285120E+00 0.80555999E+02</pdfrwt>
<pdfrwt beam="1">  1       -1 0.22214506E-03 0.80555999E+02</pdfrwt>
<totfact> 0.18133826E+05</totfact>
</mgrwt>
</event>
<event>
 5    1  0.3921687E+001  0.8951806E+02  0.7546771E-02  0.1304023E+00
          2   -1    0    0  501    0  0.00000000000E+00  0.00000000000E+00  0.60276901475E+03  0.60276901475E+03  0.00000000000E+00 0. -1.
         -2   -1    0    0    0  501 -0.00000000000E+00 -0.00000000000E+00 -0.33236124155E+01  0.33236124155E+01  0.00000000000E+00 0.  1.
         23    2    1    2    0    0  0.00000000000E+00  0.00000000000E+00  0.59944540233E+03  0.60609262716E+03  0.89518055857E+02 0.  0.
          2    1    3    3  502    0  0.19166789681E+02  0.14348566795E+02  0.55576700200E+03  0.55628248912E+03  0.00000000000E+00 0. -1.
         -2    1    3    3    0  502 -0.19166789681E+02 -0.14348566795E+02  0.43678400335E+02  0.49810138041E+02  0.00000000000E+00 0.  1.
<mgrwt>
<rscale>  0 0.89518056E+02</rscale>
<asrwt>0</asrwt>
<pdfrwt beam="1">  1        2 0.92733608E-01 0.89518056E+02</pdfrwt>
<pdfrwt beam="2">  1       -2 0.51132547E-03 0.89518056E+02</pdfrwt>
<totfact> 0.23946868E+05</totfact>
</mgrwt>
</event>
<event>
 5    1  0.3921687E+001  0.9036107E+02  0.7546771E-02  0.1301980E+00
          1   -1    0    0  501    0  0.00000000000E+00  0.00000000000E+00  0.21450830164E+02  0.21450830164E+02  0.00000000000E+00 0. -1.
         -1   -1    0    0    0  501 -0.00000000000E+00 -0.00000000000E+00 -0.95160930500E+02  0.95160930500E+02  0.00000000000E+00 0.  1.
         23    2    1    2    0    0  0.00000000000E+00  0.00000000000E+00 -0.73710100337E+02  0.11661176066E+03  0.90361074770E+02 0.  0.
          2    1    3    3  502    0 -0.19049655874E+02 -0.33785685843E+02 -0.69520094838E+01  0.39404217955E+02  0.00000000000E+00 0. -1.
         -2    1    3    3    0  502  0.19049655874E+02  0.33785685843E+02 -0.66758090853E+02  0.77207542709E+02  0.00000000000E+00 0.  1.
<mgrwt>
<rscale>  0 0.90361075E+02</rscale>
<asrwt>0</asrwt>
<pdfrwt beam="1">  1        1 0.33001277E-02 0.90361075E+02</pdfrwt>
<pdfrwt beam="2">  1       -1 0.14640143E-01 0.90361075E+02</pdfrwt>
<totfact> 0.84034611E+04</totfact>
</mgrwt>
</event>
<event>
 5    1  0.3921687E+001  0.9155959E+02  0.7546771E-02  0.1299118E+00
         -4   -1    0    0    0  501 -0.00000000000E+00  0.00000000000E+00  0.30220184867E+03  0.30220184867E+03  0.00000000000E+00 0.  1.
          4   -1    0    0  501    0  0.00000000000E+00 -0.00000000000E+00 -0.69350650791E+01  0.69350650791E+01  0.00000000000E+00 0. -1.
         23    2    1    2    0    0  0.00000000000E+00  0.00000000000E+00  0.29526678359E+03  0.30913691375E+03  0.91559586884E+02 0.  0.
          2    1    3    3  502    0  0.59782682491E+01 -0.40360945203E+02  0.77535042132E+02  0.87615228969E+02  0.00000000000E+00 0. -1.
         -2    1    3    3    0  502 -0.59782682491E+01  0.40360945203E+02  0.21773174146E+03  0.22152168478E+03  0.00000000000E+00 0.  1.
<mgrwt>
<rscale>  0 0.91559587E+02</rscale>
<asrwt>0</asrwt>
<pdfrwt beam="2">  1        4 0.10669333E-02 0.91559587E+02</pdfrwt>
<pdfrwt beam="1">  1       -4 0.46492582E-01 0.91559587E+02</pdfrwt>
<totfact> 0.17350446E+04</totfact>
</mgrwt>
</event>
<event>
 5    1  0.3921687E+001  0.8124216E+02  0.7546771E-02  0.1325563E+00
          1   -1    0    0  501    0  0.00000000000E+00  0.00000000000E+00  0.77427052704E+02  0.77427052704E+02  0.00000000000E+00 0. -1.
         -1   -1    0    0    0  501 -0.00000000000E+00 -0.00000000000E+00 -0.21311310310E+02  0.21311310310E+02  0.00000000000E+00 0.  1.
         23    2    1    2    0    0  0.00000000000E+00  0.00000000000E+00  0.56115742393E+02  0.98738363014E+02  0.81242155229E+02 0.  0.
          2    1    3    3  502    0  0.49653740698E+01  0.32650950992E+02  0.56801359817E+02  0.65704901015E+02  0.00000000000E+00 0. -1.
         -2    1    3    3    0  502 -0.49653740698E+01 -0.32650950992E+02 -0.68561742380E+00  0.33033461998E+02  0.00000000000E+00 0.  1.
<mgrwt>
<rscale>  0 0.81242155E+02</rscale>
<asrwt>0</asrwt>
<pdfrwt beam="1">  1        1 0.11911854E-01 0.81242155E+02</pdfrwt>
<pdfrwt beam="2">  1       -1 0.32786632E-02 0.81242155E+02</pdfrwt>
<totfact> 0.13724259E+05</totfact>
</mgrwt>
</event>
<event>
 5    1  0.3921687E+001  0.9131072E+02  0.7546771E-02  0.1299708E+00
         -2   -1    0    0    0  501 -0.00000000000E+00  0.00000000000E+00  0.60762348768E+01  0.60762348768E+01  0.00000000000E+00 0.  1.
          2   -1    0    0  501    0  0.00000000000E+00 -0.00000000000E+00 -0.34304336249E+03  0.34304336249E+03  0.00000000000E+00 0. -1.
         23    2    1    2    0    0  0.00000000000E+00  0.00000000000E+00 -0.33696712761E+03  0.34911959736E+03  0.91310723212E+02 0.  0.
          2    1    3    3  502    0  0.39738749706E+02 -0.13972600139E+02 -0.23580300146E+03  0.23953592065E+03  0.00000000000E+00 0. -1.
         -2    1    3    3    0  502 -0.39738749706E+02  0.13972600139E+02 -0.10116412615E+03  0.10958367671E+03  0.00000000000E+00 0.  1.
<mgrwt>
<rscale>  0 0.91310723E+02</rscale>
<asrwt>0</asrwt>
<pdfrwt beam="2">  1        2 0.52775908E-01 0.91310723E+02</pdfrwt>
<pdfrwt beam="1">  1       -2 0.93480526E-03 0.91310723E+02</pdfrwt>
<totfact> 0.18806584E+05</totfact>
</mgrwt>
</event>
<event>
 5    1  0.3921687E+001  0.9297179E+02  0.7546771E-02  0.1295811E+00
          1   -1    0    0  501    0  0.00000000000E+00  0.00000000000E+00  0.59230619277E+01  0.59230619277E+01  0.00000000000E+00 0. -1.
         -1   -1    0    0    0  501 -0.00000000000E+00 -0.00000000000E+00 -0.36483464987E+03  0.36483464987E+03  0.00000000000E+00 0.  1.
         23    2    1    2    0    0  0.00000000000E+00  0.00000000000E+00 -0.35891158794E+03  0.37075771180E+03  0.92971785496E+02 0.  0.
          2    1    3    3  502    0  0.24496136938E+02  0.36849916182E+02 -0.23626850426E+03  0.24037633651E+03  0.00000000000E+00 0. -1.
         -2    1    3    3    0  502 -0.24496136938E+02 -0.36849916182E+02 -0.12264308368E+03  0.13038137529E+03  0.00000000000E+00 0.  1.
<mgrwt>
<rscale>  0 0.92971785E+02</rscale>
<asrwt>0</asrwt>
<pdfrwt beam="1">  1        1 0.91124025E-03 0.92971785E+02</pdfrwt>
<pdfrwt beam="2">  1       -1 0.56128410E-01 0.92971785E+02</pdfrwt>
<totfact> 0.52945284E+04</totfact>
</mgrwt>
</event>
<event>
 5    1  0.3921687E+001  0.8995670E+02  0.7546771E-02  0.1302957E+00
          1   -1    0    0  501    0  0.00000000000E+00  0.00000000000E+00  0.17435297091E+03  0.17435297091E+03  0.00000000000E+00 0. -1.
         -1   -1    0    0    0  501 -0.00000000000E+00 -0.00000000000E+00 -0.11603197528E+02  0.11603197528E+02  0.00000000000E+00 0.  1.
         23    2    1    2    0    0  0.00000000000E+00  0.00000000000E+00  0.16274977338E+03  0.18595616843E+03  0.89956699829E+02 0.  0.
          2    1    3    3  502    0  0.64312330326E+01 -0.43029735858E+02  0.57793417819E+02  0.72339464123E+02  0.00000000000E+00 0. -1.
         -2    1    3    3    0  502 -0.64312330326E+01  0.43029735858E+02  0.10495635556E+03  0.11361670431E+03  0.00000000000E+00 0.  1.
<mgrwt>
<rscale>  0 0.89956700E+02</rscale>
<asrwt>0</asrwt>
<pdfrwt beam="1">  1        1 0.26823532E-01 0.89956700E+02</pdfrwt>
<pdfrwt beam="2">  1       -1 0.17851074E-02 0.89956700E+02</pdfrwt>
<totfact> 0.11957273E+05</totfact>
</mgrwt>
</event>
<event>
 5    1  0.3921687E+001  0.9162915E+02  0.7546771E-02  0.1298954E+00
         -1   -1    0    0    0  501 -0.00000000000E+00  0.00000000000E+00  0.14997053214E+02  0.14997053214E+02  0.00000000000E+00 0.  1.
          1   -1    0    0  501    0  0.00000000000E+00 -0.00000000000E+00 -0.13995916736E+03  0.13995916736E+03  0.00000000000E+00 0. -1.
         23    2    1    2    0    0  0.00000000000E+00  0.00000000000E+00 -0.12496211414E+03  0.15495622057E+03  0.91629145595E+02 0.  0.
          2    1    3    3  502    0  0.44702984724E+02 -0.93834020182E+00 -0.79370105174E+02  0.91098029182E+02  0.00000000000E+00 0. -1.
         -2    1    3    3    0  502 -0.44702984724E+02  0.93834020182E+00 -0.45592008969E+02  0.63858191388E+02  0.00000000000E+00 0.  1.
<mgrwt>
<rscale>  0 0.91629146E+02</rscale>
<asrwt>0</asrwt>
<pdfrwt beam="2">  1        1 0.21532180E-01 0.91629146E+02</pdfrwt>
<pdfrwt beam="1">  1       -1 0.23072389E-02 0.91629146E+02</pdfrwt>
<totfact> 0.10925182E+05</totfact>
</mgrwt>
</event>
<event>
 5    1  0.3921687E+001  0.8620669E+02  0.7546771E-02  0.1312307E+00
         -1   -1    0    0    0  501 -0.00000000000E+00  0.00000000000E+00  0.81001047224E+01  0.81001047224E+01  0.00000000000E+00 0.  1.
          1   -1    0    0  501    0  0.00000000000E+00 -0.00000000000E+00 -0.22936720677E+03  0.22936720677E+03  0.00000000000E+00 0. -1.
         23    2    1    2    0    0  0.00000000000E+00  0.00000000000E+00 -0.22126710205E+03  0.23746731149E+03  0.86206691033E+02 0.  0.
          2    1    3    3  502    0  0.50219685370E+01  0.27721052968E+02 -0.20049612701E+03  0.20246573510E+03  0.00000000000E+00 0. -1.
         -2    1    3    3    0  502 -0.50219685370E+01 -0.27721052968E+02 -0.20770975039E+02  0.35001576389E+02  0.00000000000E+00 0.  1.
<mgrwt>
<rscale>  0 0.86206691E+02</rscale>
<asrwt>0</asrwt>
<pdfrwt beam="2">  1        1 0.35287260E-01 0.86206691E+02</pdfrwt>
<pdfrwt beam="1">  1       -1 0.12461700E-02 0.86206691E+02</pdfrwt>
<totfact> 0.14120748E+05</totfact>
</mgrwt>
</event>
<event>
 5    1  0.3921687E+001  0.9123757E+02  0.7546771E-02  0.1299882E+00
         -2   -1    0    0    0  501 -0.00000000000E+00  0.00000000000E+00  0.86769871905E+00  0.86769871905E+00  0.00000000000E+00 0.  1.
          2   -1    0    0  501    0  0.00000000000E+00 -0.00000000000E+00 -0.23983827990E+04  0.23983827990E+04  0.00000000000E+00 0. -1.
         23    2    1    2    0    0  0.00000000000E+00  0.00000000000E+00 -0.23975151003E+04  0.23992504978E+04  0.91237573017E+02 0.  0.
          2    1    3    3  502    0 -0.41847444436E+02 -0.25855504837E+00 -0.16763154427E+04  0.16768377199E+04  0.00000000000E+00 0. -1.
         -2    1    3    3    0  502  0.41847444436E+02  0.25855504837E+00 -0.72119965764E+03  0.72241277788E+03  0.00000000000E+00 0.  1.
<mgrwt>
<rscale>  0 0.91237573E+02</rscale>
<asrwt>0</asrwt>
<pdfrwt beam="2">  1        2 0.36897925E+00 0.91237573E+02</pdfrwt>
<pdfrwt beam="1">  1       -2 0.13349309E-03 0.91237573E+02</pdfrwt>
<totfact> 0.15822382E+05</totfact>
</mgrwt>
</event>
<event>
 5    1  0.3921687E+001  0.9049706E+02  0.7546771E-02  0.1301652E+00
         -1   -1    0    0    0  501 -0.00000000000E+00  0.00000000000E+00  0.36632286974E+01  0.36632286974E+01  0.00000000000E+00 0.  1.
          1   -1    0    0  501    0  0.00000000000E+00 -0.00000000000E+00 -0.55891386127E+03  0.55891386127E+03  0.00000000000E+00 0. -1.
         23    2    1    2    0    0  0.00000000000E+00  0.00000000000E+00 -0.55525063257E+03  0.56257708997E+03  0.90497056216E+02 0.  0.
          2    1    3    3  502    0  0.14943410803E+02  0.34944564885E+02 -0.43027877962E+03  0.43195399794E+03  0.00000000000E+00 0. -1.
         -2    1    3    3    0  502 -0.14943410803E+02 -0.34944564885E+02 -0.12497185295E+03  0.13062309203E+03  0.00000000000E+00 0.  1.
<mgrwt>
<rscale>  0 0.90497056E+02</rscale>
<asrwt>0</asrwt>
<pdfrwt beam="2">  1        1 0.85986786E-01 0.90497056E+02</pdfrwt>
<pdfrwt beam="1">  1       -1 0.56357339E-03 0.90497056E+02</pdfrwt>
<totfact> 0.14367646E+05</totfact>
</mgrwt>
</event>
<event>
 5    1  0.3921687E+001  0.9218600E+02  0.7546771E-02  0.1297643E+00
          1   -1    0    0  501    0  0.00000000000E+00  0.00000000000E+00  0.25671922504E+03  0.25671922504E+03  0.00000000000E+00 0. -1.
         -1   -1    0    0    0  501 -0.00000000000E+00 -0.00000000000E+00 -0.82758295910E+01  0.82758295910E+01  0.00000000000E+00 0.  1.
         23    2    1    2    0    0  0.00000000000E+00  0.00000000000E+00  0.24844339545E+03  0.26499505463E+03  0.92185998051E+02 0.  0.
          2    1    3    3  502    0 -0.46530379300E+01 -0.45759762982E+02  0.13282520732E+03  0.14056365949E+03  0.00000000000E+00 0. -1.
         -2    1    3    3    0  502  0.46530379300E+01  0.45759762982E+02  0.11561818814E+03  0.12443139515E+03  0.00000000000E+00 0.  1.
<mgrwt>
<rscale>  0 0.92185998E+02</rscale>
<asrwt>0</asrwt>
<pdfrwt beam="1">  1        1 0.39495259E-01 0.92185998E+02</pdfrwt>
<pdfrwt beam="2">  1       -1 0.12732047E-02 0.92185998E+02</pdfrwt>
<totfact> 0.12070473E+05</totfact>
</mgrwt>
</event>
<event>
 5    1  0.3921687E+001  0.8989945E+02  0.7546771E-02  0.1303095E+00
         -2   -1    0    0    0  501 -0.00000000000E+00  0.00000000000E+00  0.21054397359E+01  0.21054397359E+01  0.00000000000E+00 0. -1.
          2   -1    0    0  501    0  0.00000000000E+00 -0.00000000000E+00 -0.95964639863E+03  0.95964639863E+03  0.00000000000E+00 0.  1.
         23    2    1    2    0    0  0.00000000000E+00  0.00000000000E+00 -0.95754095889E+03  0.96175183837E+03  0.89899447387E+02 0.  0.
          2    1    3    3  502    0  0.31108194362E+02 -0.48955437217E+01 -0.13563178198E+03  0.13923960065E+03  0.00000000000E+00 0. -1.
         -2    1    3    3    0  502 -0.31108194362E+02  0.48955437217E+01 -0.82190917691E+03  0.82251223772E+03  0.00000000000E+00 0.  1.
<mgrwt>
<rscale>  0 0.89899447E+02</rscale>
<asrwt>0</asrwt>
<pdfrwt beam="2">  1        2 0.14763810E+00 0.89899447E+02</pdfrwt>
<pdfrwt beam="1">  1       -2 0.32391338E-03 0.89899447E+02</pdfrwt>
<totfact> 0.25885258E+05</totfact>
</mgrwt>
</event>
<event>
 5    1  0.3921687E+001  0.8688864E+02  0.7546771E-02  0.1310566E+00
          1   -1    0    0  501    0  0.00000000000E+00  0.00000000000E+00  0.20128835951E+02  0.20128835951E+02  0.00000000000E+00 0. -1.
         -1   -1    0    0    0  501 -0.00000000000E+00 -0.00000000000E+00 -0.93766432924E+02  0.93766432924E+02  0.00000000000E+00 0.  1.
         23    2    1    2    0    0  0.00000000000E+00  0.00000000000E+00 -0.73637596973E+02  0.11389526888E+03  0.86888644737E+02 0.  0.
          2    1    3    3  502    0  0.30452139469E+02 -0.14540355707E+02 -0.95276474831E+00  0.33758887763E+02  0.00000000000E+00 0. -1.
         -2    1    3    3    0  502 -0.30452139469E+02  0.14540355707E+02 -0.72684832224E+02  0.80136381112E+02  0.00000000000E+00 0.  1.
<mgrwt>
<rscale>  0 0.86888645E+02</rscale>
<asrwt>0</asrwt>
<pdfrwt beam="1">  1        1 0.30967440E-02 0.86888645E+02</pdfrwt>
<pdfrwt beam="2">  1       -1 0.14425605E-01 0.86888645E+02</pdfrwt>
<totfact> 0.93173684E+04</totfact>
</mgrwt>
</event>
<event>
 5    1  0.3921687E+001  0.9021297E+02  0.7546771E-02  0.1302337E+00
          2   -1    0    0  501    0  0.00000000000E+00  0.00000000000E+00  0.38497088112E+03  0.38497088112E+03  0.00000000000E+00 0. -1.
         -2   -1    0    0    0  501 -0.00000000000E+00 -0.00000000000E+00 -0.52850620703E+01  0.52850620703E+01  0.00000000000E+00 0.  1.
         23    2    1    2    0    0  0.00000000000E+00  0.00000000000E+00  0.37968581905E+03  0.39025594319E+03  0.90212970287E+02 0.  0.
          2    1    3    3  502    0 -0.20994813600E+02  0.19142019480E+01  0.36234700239E+03  0.36295977257E+03  0.00000000000E+00 0. -1.
         -2    1    3    3    0  502  0.20994813600E+02 -0.19142019480E+01  0.17338816667E+02  0.27296170621E+02  0.00000000000E+00 0.  1.
<mgrwt>
<rscale>  0 0.90212970E+02</rscale>
<asrwt>0</asrwt>
<pdfrwt beam="1">  1        2 0.59226267E-01 0.90212970E+02</pdfrwt>
<pdfrwt beam="2">  1       -2 0.81308678E-03 0.90212970E+02</pdfrwt>
<totfact> 0.20252864E+05</totfact>
</mgrwt>
</event>
<event>
 5    1  0.3921687E+001  0.9004426E+02  0.7546771E-02  0.1302745E+00
         -2   -1    0    0    0  501 -0.00000000000E+00  0.00000000000E+00  0.20189173776E+01  0.20189173776E+01  0.00000000000E+00 0.  1.
          2   -1    0    0  501    0  0.00000000000E+00 -0.00000000000E+00 -0.10039994928E+04  0.10039994928E+04  0.00000000000E+00 0. -1.
         23    2    1    2    0    0  0.00000000000E+00  0.00000000000E+00 -0.10019805754E+04  0.10060184101E+04  0.90044256296E+02 0.  0.
          2    1    3    3  502    0  0.26246337092E+02  0.20730714153E+02 -0.16426266275E+03  0.16763309665E+03  0.00000000000E+00 0.  1.
         -2    1    3    3    0  502 -0.26246337092E+02 -0.20730714153E+02 -0.83771791263E+03  0.83838531348E+03  0.00000000000E+00 0. -1.
<mgrwt>
<rscale>  0 0.90044256E+02</rscale>
<asrwt>0</asrwt>
<pdfrwt beam="2">  1        2 0.15446165E+00 0.90044256E+02</pdfrwt>
<pdfrwt beam="1">  1       -2 0.31060230E-03 0.90044256E+02</pdfrwt>
<totfact> 0.25841714E+05</totfact>
</mgrwt>
</event>
<event>
 5    1  0.3921687E+001  0.9079633E+02  0.7546771E-02  0.1300935E+00
          2   -1    0    0  501    0  0.00000000000E+00  0.00000000000E+00  0.23818166151E+03  0.23818166151E+03  0.00000000000E+00 0. -1.
         -2   -1    0    0    0  501 -0.00000000000E+00 -0.00000000000E+00 -0.86530318968E+01  0.86530318968E+01  0.00000000000E+00 0.  1.
         23    2    1    2    0    0  0.00000000000E+00  0.00000000000E+00  0.22952862962E+03  0.24683469341E+03  0.90796332840E+02 0.  0.
          2    1    3    3  502    0 -0.11755899642E+02  0.35913501845E+02  0.18316242657E+03  0.18701993289E+03  0.00000000000E+00 0. -1.
         -2    1    3    3    0  502  0.11755899642E+02 -0.35913501845E+02  0.46366203046E+02  0.59814760520E+02  0.00000000000E+00 0.  1.
<mgrwt>
<rscale>  0 0.90796333E+02</rscale>
<asrwt>0</asrwt>
<pdfrwt beam="1">  1        2 0.36643328E-01 0.90796333E+02</pdfrwt>
<pdfrwt beam="2">  1       -2 0.13312359E-02 0.90796333E+02</pdfrwt>
<totfact> 0.16674182E+05</totfact>
</mgrwt>
</event>
<event>
 5    1  0.3921687E+001  0.9310716E+02  0.7546771E-02  0.1295497E+00
          2   -1    0    0  501    0  0.00000000000E+00  0.00000000000E+00  0.62300373614E+02  0.62300373614E+02  0.00000000000E+00 0. -1.
         -2   -1    0    0    0  501 -0.00000000000E+00 -0.00000000000E+00 -0.34786884931E+02  0.34786884931E+02  0.00000000000E+00 0.  1.
         23    2    1    2    0    0  0.00000000000E+00  0.00000000000E+00  0.27513488682E+02  0.97087258545E+02  0.93107162519E+02 0.  0.
          2    1    3    3  502    0 -0.73515502214E+01  0.36200120744E+02  0.43300595818E+02  0.56916040189E+02  0.00000000000E+00 0. -1.
         -2    1    3    3    0  502  0.73515502214E+01 -0.36200120744E+02 -0.15787107136E+02  0.40171218357E+02  0.00000000000E+00 0.  1.
<mgrwt>
<rscale>  0 0.93107163E+02</rscale>
<asrwt>0</asrwt>
<pdfrwt beam="1">  1        2 0.95846729E-02 0.93107163E+02</pdfrwt>
<pdfrwt beam="2">  1       -2 0.53518284E-02 0.93107163E+02</pdfrwt>
<totfact> 0.10099670E+05</totfact>
</mgrwt>
</event>
<event>
 5    1  0.3921687E+001  0.9199263E+02  0.7546771E-02  0.1298097E+00
          2   -1    0    0  501    0  0.00000000000E+00  0.00000000000E+00  0.24568657169E+04  0.24568657169E+04  0.00000000000E+00 0. -1.
         -2   -1    0    0    0  501 -0.00000000000E+00 -0.00000000000E+00 -0.86112195910E+00  0.86112195910E+00  0.00000000000E+00 0.  1.
         23    2    1    2    0    0  0.00000000000E+00  0.00000000000E+00  0.24560045949E+04  0.24577268388E+04  0.91992630560E+02 0.  0.
          2    1    3    3  502    0  0.32100733176E+02 -0.48363268207E+01  0.20985744594E+04  0.20988255308E+04  0.00000000000E+00 0. -1.
         -2    1    3    3    0  502 -0.32100733176E+02  0.48363268207E+01  0.35743013552E+03  0.35890130803E+03  0.00000000000E+00 0.  1.
<mgrwt>
<rscale>  0 0.91992631E+02</rscale>
<asrwt>0</asrwt>
<pdfrwt beam="1">  1        2 0.37797373E+00 0.91992631E+02</pdfrwt>
<pdfrwt beam="2">  1       -2 0.13248227E-03 0.91992631E+02</pdfrwt>
<totfact> 0.14920420E+05</totfact>
</mgrwt>
</event>
<event>
 5    1  0.3921687E+001  0.9351606E+02  0.7546771E-02  0.1294554E+00
         -3   -1    0    0    0  501 -0.00000000000E+00  0.00000000000E+00  0.79988329420E+02  0.79988329420E+02  0.00000000000E+00 0.  1.
          3   -1    0    0  501    0  0.00000000000E+00 -0.00000000000E+00 -0.27332903822E+02  0.27332903822E+02  0.00000000000E+00 0. -1.
         23    2    1    2    0    0  0.00000000000E+00  0.00000000000E+00  0.52655425598E+02  0.10732123324E+03  0.93516058832E+02 0.  0.
          2    1    3    3  502    0  0.14610881865E+02  0.41159599153E+02  0.45487282055E+02  0.63060949090E+02  0.00000000000E+00 0. -1.
         -2    1    3    3    0  502 -0.14610881865E+02 -0.41159599153E+02  0.71681435431E+01  0.44260284152E+02  0.00000000000E+00 0.  1.
<mgrwt>
<rscale>  0 0.93516059E+02</rscale>
<asrwt>0</asrwt>
<pdfrwt beam="2">  1        3 0.42050622E-02 0.93516059E+02</pdfrwt>
<pdfrwt beam="1">  1       -3 0.12305897E-01 0.93516059E+02</pdfrwt>
<totfact> 0.31858967E+04</totfact>
</mgrwt>
</event>
<event>
 5    1  0.3921687E+001  0.9047958E+02  0.7546771E-02  0.1301694E+00
         -1   -1    0    0    0  501 -0.00000000000E+00  0.00000000000E+00  0.12134487814E+02  0.12134487814E+02  0.00000000000E+00 0.  1.
          1   -1    0    0  501    0  0.00000000000E+00 -0.00000000000E+00 -0.16866295475E+03  0.16866295475E+03  0.00000000000E+00 0. -1.
         23    2    1    2    0    0  0.00000000000E+00  0.00000000000E+00 -0.15652846694E+03  0.18079744257E+03  0.90479579334E+02 0.  0.
          2    1    3    3  502    0  0.32813063636E+02  0.30865048124E+02 -0.69955361383E+02  0.83205173680E+02  0.00000000000E+00 0. -1.
         -2    1    3    3    0  502 -0.32813063636E+02 -0.30865048124E+02 -0.86573105557E+02  0.97592268888E+02  0.00000000000E+00 0.  1.
<mgrwt>
<rscale>  0 0.90479579E+02</rscale>
<asrwt>0</asrwt>
<pdfrwt beam="2">  1        1 0.25948145E-01 0.90479579E+02</pdfrwt>
<pdfrwt beam="1">  1       -1 0.18668444E-02 0.90479579E+02</pdfrwt>
<totfact> 0.11699469E+05</totfact>
</mgrwt>
</event>
<event>
 5    1  0.3921687E+001  0.9330484E+02  0.7546771E-02  0.1295040E+00
          1   -1    0    0  501    0  0.00000000000E+00  0.00000000000E+00  0.94668032696E+02  0.94668032696E+02  0.00000000000E+00 0. -1.
         -1   -1    0    0    0  501 -0.00000000000E+00 -0.00000000000E+00 -0.22990317002E+02  0.22990317002E+02  0.00000000000E+00 0.  1.
         23    2    1    2    0    0  0.00000000000E+00  0.00000000000E+00  0.71677715695E+02  0.11765834970E+03  0.93304835494E+02 0.  0.
          2    1    3    3  502    0 -0.31856396796E+02 -0.13428549219E+02 -0.36630215871E+01  0.34764546280E+02  0.00000000000E+00 0. -1.
         -2    1    3    3    0  502  0.31856396796E+02  0.13428549219E+02  0.75340737282E+02  0.82893803418E+02  0.00000000000E+00 0.  1.
<mgrwt>
<rscale>  0 0.93304835E+02</rscale>
<asrwt>0</asrwt>
<pdfrwt beam="1">  1        1 0.14564312E-01 0.93304835E+02</pdfrwt>
<pdfrwt beam="2">  1       -1 0.35369719E-02 0.93304835E+02</pdfrwt>
<totfact> 0.97176500E+04</totfact>
</mgrwt>
</event>
<event>
 5    1  0.3921687E+001  0.9150669E+02  0.7546771E-02  0.1299244E+00
         -1   -1    0    0    0  501 -0.00000000000E+00  0.00000000000E+00  0.93692068259E+02  0.93692068259E+02  0.00000000000E+00 0.  1.
          1   -1    0    0  501    0  0.00000000000E+00 -0.00000000000E+00 -0.22343070017E+02  0.22343070017E+02  0.00000000000E+00 0. -1.
         23    2    1    2    0    0  0.00000000000E+00  0.00000000000E+00  0.71348998242E+02  0.11603513828E+03  0.91506686995E+02 0.  0.
          2    1    3    3  502    0  0.33121121440E+01  0.44419709500E+02  0.22418195000E+02  0.49866382924E+02  0.00000000000E+00 0. -1.
         -2    1    3    3    0  502 -0.33121121440E+01 -0.44419709500E+02  0.48930803242E+02  0.66168755352E+02  0.00000000000E+00 0.  1.
<mgrwt>
<rscale>  0 0.91506687E+02</rscale>
<asrwt>0</asrwt>
<pdfrwt beam="2">  1        1 0.34373954E-02 0.91506687E+02</pdfrwt>
<pdfrwt beam="1">  1       -1 0.14414164E-01 0.91506687E+02</pdfrwt>
<totfact> 0.81585790E+04</totfact>
</mgrwt>
</event>
<event>
 5    1  0.3921687E+001  0.8763080E+02  0.7546771E-02  0.1308693E+00
         -2   -1    0    0    0  501 -0.00000000000E+00  0.00000000000E+00  0.14145869095E+02  0.14145869095E+02  0.00000000000E+00 0.  1.
          2   -1    0    0  501    0  0.00000000000E+00 -0.00000000000E+00 -0.13571377786E+03  0.13571377786E+03  0.00000000000E+00 0. -1.
         23    2    1    2    0    0  0.00000000000E+00  0.00000000000E+00 -0.12156790877E+03  0.14985964696E+03  0.87630801344E+02 0.  0.
          2    1    3    3  502    0 -0.40719096802E+02 -0.15407162697E+02 -0.52342822303E+02  0.68082277822E+02  0.00000000000E+00 0.  1.
         -2    1    3    3    0  502  0.40719096802E+02  0.15407162697E+02 -0.69225086465E+02  0.81777369136E+02  0.00000000000E+00 0. -1.
<mgrwt>
<rscale>  0 0.87630801E+02</rscale>
<asrwt>0</asrwt>
<pdfrwt beam="2">  1        2 0.20879042E-01 0.87630801E+02</pdfrwt>
<pdfrwt beam="1">  1       -2 0.21762876E-02 0.87630801E+02</pdfrwt>
<totfact> 0.15054949E+05</totfact>
</mgrwt>
</event>
<event>
 5    1  0.3921687E+001  0.9103741E+02  0.7546771E-02  0.1300359E+00
         -1   -1    0    0    0  501 -0.00000000000E+00  0.00000000000E+00  0.15920245671E+03  0.15920245671E+03  0.00000000000E+00 0.  1.
          1   -1    0    0  501    0  0.00000000000E+00 -0.00000000000E+00 -0.13014577446E+02  0.13014577446E+02  0.00000000000E+00 0. -1.
         23    2    1    2    0    0  0.00000000000E+00  0.00000000000E+00  0.14618787926E+03  0.17221703415E+03  0.91037414338E+02 0.  0.
          2    1    3    3  502    0 -0.90617378135E+00  0.26058067346E+02  0.14367574484E+03  0.14602247663E+03  0.00000000000E+00 0.  1.
         -2    1    3    3    0  502  0.90617378135E+00 -0.26058067346E+02  0.25121344237E+01  0.26194557528E+02  0.00000000000E+00 0. -1.
<mgrwt>
<rscale>  0 0.91037414E+02</rscale>
<asrwt>0</asrwt>
<pdfrwt beam="2">  1        1 0.20022428E-02 0.91037414E+02</pdfrwt>
<pdfrwt beam="1">  1       -1 0.24492684E-01 0.91037414E+02</pdfrwt>
<totfact> 0.74027023E+04</totfact>
</mgrwt>
</event>
<event>
 5    1  0.3921687E+001  0.9152113E+02  0.7546771E-02  0.1299209E+00
         -1   -1    0    0    0  501 -0.00000000000E+00  0.00000000000E+00  0.93583330153E+01  0.93583330153E+01  0.00000000000E+00 0.  1.
          1   -1    0    0  501    0  0.00000000000E+00 -0.00000000000E+00 -0.22376091066E+03  0.22376091066E+03  0.00000000000E+00 0. -1.
         23    2    1    2    0    0  0.00000000000E+00  0.00000000000E+00 -0.21440257764E+03  0.23311924367E+03  0.91521125817E+02 0.  0.
          2    1    3    3  502    0  0.41373640066E+02  0.16132468337E+02 -0.79067586962E+02  0.90684717208E+02  0.00000000000E+00 0. -1.
         -2    1    3    3    0  502 -0.41373640066E+02 -0.16132468337E+02 -0.13533499068E+03  0.14243452646E+03  0.00000000000E+00 0.  1.
<mgrwt>
<rscale>  0 0.91521126E+02</rscale>
<asrwt>0</asrwt>
<pdfrwt beam="2">  1        1 0.34424759E-01 0.91521126E+02</pdfrwt>
<pdfrwt beam="1">  1       -1 0.14397434E-02 0.91521126E+02</pdfrwt>
<totfact> 0.11980725E+05</totfact>
</mgrwt>
</event>
<event>
 5    1  0.3921687E+001  0.9216227E+02  0.7546771E-02  0.1297698E+00
          1   -1    0    0  501    0  0.00000000000E+00  0.00000000000E+00  0.22071245702E+01  0.22071245702E+01  0.00000000000E+00 0. -1.
         -1   -1    0    0    0  501 -0.00000000000E+00 -0.00000000000E+00 -0.96209839748E+03  0.96209839748E+03  0.00000000000E+00 0.  1.
         23    2    1    2    0    0  0.00000000000E+00  0.00000000000E+00 -0.95989127291E+03  0.96430552205E+03  0.92162270199E+02 0.  0.
          2    1    3    3  502    0 -0.24568496514E+02  0.18292351410E+02 -0.11972677595E+03  0.12358285488E+03  0.00000000000E+00 0. -1.
         -2    1    3    3    0  502  0.24568496514E+02 -0.18292351410E+02 -0.84016449696E+03  0.84072266717E+03  0.00000000000E+00 0.  1.
<mgrwt>
<rscale>  0 0.92162270E+02</rscale>
<asrwt>0</asrwt>
<pdfrwt beam="1">  1        1 0.33955860E-03 0.92162270E+02</pdfrwt>
<pdfrwt beam="2">  1       -1 0.14801472E+00 0.92162270E+02</pdfrwt>
<totfact> 0.26099012E+04</totfact>
</mgrwt>
</event>
<event>
 5    1  0.3921687E+001  0.9052301E+02  0.7546771E-02  0.1301590E+00
          2   -1    0    0  501    0  0.00000000000E+00  0.00000000000E+00  0.28880865407E+04  0.28880865407E+04  0.00000000000E+00 0. -1.
         -2   -1    0    0    0  501 -0.00000000000E+00 -0.00000000000E+00 -0.70932916280E+00  0.70932916280E+00  0.00000000000E+00 0.  1.
         23    2    1    2    0    0  0.00000000000E+00  0.00000000000E+00  0.28873772115E+04  0.28887958698E+04  0.90523013825E+02 0.  0.
          2    1    3    3  502    0  0.27262049142E+02 -0.27437819091E+02  0.21938314025E+04  0.21941723441E+04  0.00000000000E+00 0. -1.
         -2    1    3    3    0  502 -0.27262049142E+02  0.27437819091E+02  0.69354580906E+03  0.69462352573E+03  0.00000000000E+00 0.  1.
<mgrwt>
<rscale>  0 0.90523014E+02</rscale>
<asrwt>0</asrwt>
<pdfrwt beam="1">  1        2 0.44431159E+00 0.90523014E+02</pdfrwt>
<pdfrwt beam="2">  1       -2 0.10912988E-03 0.90523014E+02</pdfrwt>
<totfact> 0.11400243E+05</totfact>
</mgrwt>
</event>
<event>
 5    1  0.3921687E+001  0.9008889E+02  0.7546771E-02  0.1302637E+00
         -2   -1    0    0    0  501 -0.00000000000E+00  0.00000000000E+00  0.16225145183E+01  0.16225145183E+01  0.00000000000E+00 0.  1.
          2   -1    0    0  501    0  0.00000000000E+00 -0.00000000000E+00 -0.12505294066E+04  0.12505294066E+04  0.00000000000E+00 0. -1.
         23    2    1    2    0    0  0.00000000000E+00  0.00000000000E+00 -0.12489068920E+04  0.12521519211E+04  0.90088892049E+02 0.  0.
          2    1    3    3  502    0 -0.25398517559E+02  0.23531406861E+02 -0.10249277078E+04  0.10255123686E+04  0.00000000000E+00 0. -1.
         -2    1    3    3    0  502  0.25398517559E+02 -0.23531406861E+02 -0.22397918421E+03  0.22663955251E+03  0.00000000000E+00 0.  1.
<mgrwt>
<rscale>  0 0.90088892E+02</rscale>
<asrwt>0</asrwt>
<pdfrwt beam="2">  1        2 0.19238926E+00 0.90088892E+02</pdfrwt>
<pdfrwt beam="1">  1       -2 0.24961746E-03 0.90088892E+02</pdfrwt>
<totfact> 0.25528597E+05</totfact>
</mgrwt>
</event>
<event>
 5    1  0.3921687E+001  0.9240598E+02  0.7546771E-02  0.1297128E+00
         -2   -1    0    0    0  501 -0.00000000000E+00  0.00000000000E+00  0.19717758158E+01  0.19717758158E+01  0.00000000000E+00 0.  1.
          2   -1    0    0  501    0  0.00000000000E+00 -0.00000000000E+00 -0.10826364581E+04  0.10826364581E+04  0.00000000000E+00 0. -1.
         23    2    1    2    0    0  0.00000000000E+00  0.00000000000E+00 -0.10806646822E+04  0.10846082339E+04  0.92405982172E+02 0.  0.
          2    1    3    3  502    0 -0.36061266805E+02  0.71942935443E+01 -0.86867481882E+03  0.86945276679E+03  0.00000000000E+00 0. -1.
         -2    1    3    3    0  502  0.36061266805E+02 -0.71942935443E+01 -0.21198986342E+03  0.21515546708E+03  0.00000000000E+00 0.  1.
<mgrwt>
<rscale>  0 0.92405982E+02</rscale>
<asrwt>0</asrwt>
<pdfrwt beam="2">  1        2 0.16655944E+00 0.92405982E+02</pdfrwt>
<pdfrwt beam="1">  1       -2 0.30335016E-03 0.92405982E+02</pdfrwt>
<totfact> 0.24161096E+05</totfact>
</mgrwt>
</event>
<event>
 5    1  0.3921687E+001  0.9099449E+02  0.7546771E-02  0.1300461E+00
          3   -1    0    0  501    0  0.00000000000E+00  0.00000000000E+00  0.20713463677E+03  0.20713463677E+03  0.00000000000E+00 0. -1.
         -3   -1    0    0    0  501 -0.00000000000E+00 -0.00000000000E+00 -0.99934972649E+01  0.99934972649E+01  0.00000000000E+00 0.  1.
         23    2    1    2    0    0  0.00000000000E+00  0.00000000000E+00  0.19714113950E+03  0.21712813403E+03  0.90994492713E+02 0.  0.
          2    1    3    3  502    0  0.27705383190E+02  0.88756152813E+01  0.15101250765E+02  0.32778233312E+02  0.00000000000E+00 0. -1.
         -2    1    3    3    0  502 -0.27705383190E+02 -0.88756152813E+01  0.18203988874E+03  0.18434990072E+03  0.00000000000E+00 0.  1.
<mgrwt>
<rscale>  0 0.90994493E+02</rscale>
<asrwt>0</asrwt>
<pdfrwt beam="1">  1        3 0.31866864E-01 0.90994493E+02</pdfrwt>
<pdfrwt beam="2">  1       -3 0.15374613E-02 0.90994493E+02</pdfrwt>
<totfact> 0.27786289E+04</totfact>
</mgrwt>
</event>
<event>
 5    1  0.3921687E+001  0.8959855E+02  0.7546771E-02  0.1303827E+00
          1   -1    0    0  501    0  0.00000000000E+00  0.00000000000E+00  0.47988024738E+01  0.47988024738E+01  0.00000000000E+00 0. -1.
         -1   -1    0    0    0  501 -0.00000000000E+00 -0.00000000000E+00 -0.41822416277E+03  0.41822416277E+03  0.00000000000E+00 0.  1.
         23    2    1    2    0    0  0.00000000000E+00  0.00000000000E+00 -0.41342536030E+03  0.42302296525E+03  0.89598552375E+02 0.  0.
          2    1    3    3  502    0  0.21656028400E+02  0.63231679251E+01 -0.23978334606E+02  0.32923039792E+02  0.00000000000E+00 0. -1.
         -2    1    3    3    0  502 -0.21656028400E+02 -0.63231679251E+01 -0.38944702569E+03  0.39009992545E+03  0.00000000000E+00 0.  1.
<mgrwt>
<rscale>  0 0.89598552E+02</rscale>
<asrwt>0</asrwt>
<pdfrwt beam="1">  1        1 0.73827747E-03 0.89598552E+02</pdfrwt>
<pdfrwt beam="2">  1       -1 0.64342164E-01 0.89598552E+02</pdfrwt>
<totfact> 0.54516520E+04</totfact>
</mgrwt>
</event>
<event>
 5    1  0.3921687E+001  0.9162834E+02  0.7546771E-02  0.1298956E+00
         -2   -1    0    0    0  501 -0.00000000000E+00  0.00000000000E+00  0.20378617446E+02  0.20378617446E+02  0.00000000000E+00 0. -1.
          2   -1    0    0  501    0  0.00000000000E+00 -0.00000000000E+00 -0.10299708106E+03  0.10299708106E+03  0.00000000000E+00 0.  1.
         23    2    1    2    0    0  0.00000000000E+00  0.00000000000E+00 -0.82618463616E+02  0.12337569851E+03  0.91628338696E+02 0.  0.
          2    1    3    3  502    0  0.42575114644E+01 -0.41368020387E+02 -0.15426732583E+02  0.44355648939E+02  0.00000000000E+00 0. -1.
         -2    1    3    3    0  502 -0.42575114644E+01  0.41368020387E+02 -0.67191731033E+02  0.79020049569E+02  0.00000000000E+00 0.  1.
<mgrwt>
<rscale>  0 0.91628339E+02</rscale>
<asrwt>0</asrwt>
<pdfrwt beam="2">  1        2 0.15845705E-01 0.91628339E+02</pdfrwt>
<pdfrwt beam="1">  1       -2 0.31351719E-02 0.91628339E+02</pdfrwt>
<totfact> 0.12211669E+05</totfact>
</mgrwt>
</event>
<event>
 5    1  0.3921687E+001  0.9149063E+02  0.7546771E-02  0.1299282E+00
         -2   -1    0    0    0  501 -0.00000000000E+00  0.00000000000E+00  0.10449897406E+01  0.10449897406E+01  0.00000000000E+00 0.  1.
          2   -1    0    0  501    0  0.00000000000E+00 -0.00000000000E+00 -0.20025401196E+04  0.20025401196E+04  0.00000000000E+00 0. -1.
         23    2    1    2    0    0  0.00000000000E+00  0.00000000000E+00 -0.20014951298E+04  0.20035851093E+04  0.91490630779E+02 0.  0.
          2    1    3    3  502    0 -0.11188175424E+02 -0.44232365903E+02 -0.92825967502E+03  0.92938027833E+03  0.00000000000E+00 0. -1.
         -2    1    3    3    0  502  0.11188175424E+02  0.44232365903E+02 -0.10732354548E+04  0.10742048310E+04  0.00000000000E+00 0.  1.
<mgrwt>
<rscale>  0 0.91490631E+02</rscale>
<asrwt>0</asrwt>
<pdfrwt beam="2">  1        2 0.30808068E+00 0.91490631E+02</pdfrwt>
<pdfrwt beam="1">  1       -2 0.16076891E-03 0.91490631E+02</pdfrwt>
<totfact> 0.19479814E+05</totfact>
</mgrwt>
</event>
<event>
 5    1  0.3921687E+001  0.9125061E+02  0.7546771E-02  0.1299851E+00
          1   -1    0    0  501    0  0.00000000000E+00  0.00000000000E+00  0.12150686668E+04  0.12150686668E+04  0.00000000000E+00 0. -1.
         -1   -1    0    0    0  501 -0.00000000000E+00 -0.00000000000E+00 -0.17132107334E+01  0.17132107334E+01  0.00000000000E+00 0.  1.
         23    2    1    2    0    0  0.00000000000E+00  0.00000000000E+00  0.12133554561E+04  0.12167818775E+04  0.91250614942E+02 0.  0.
          2    1    3    3  502    0  0.32083925196E+02 -0.29781515027E+02  0.77814505648E+03  0.77937542034E+03  0.00000000000E+00 0. -1.
         -2    1    3    3    0  502 -0.32083925196E+02  0.29781515027E+02  0.43521039958E+03  0.43740645719E+03  0.00000000000E+00 0.  1.
<mgrwt>
<rscale>  0 0.91250615E+02</rscale>
<asrwt>0</asrwt>
<pdfrwt beam="1">  1        1 0.18693295E+00 0.91250615E+02</pdfrwt>
<pdfrwt beam="2">  1       -1 0.26357185E-03 0.91250615E+02</pdfrwt>
<totfact> 0.12627376E+05</totfact>
</mgrwt>
</event>
<event>
 5    1  0.3921687E+001  0.9074963E+02  0.7546771E-02  0.1301046E+00
         -1   -1    0    0    0  501 -0.00000000000E+00  0.00000000000E+00  0.50790729030E+01  0.50790729030E+01  0.00000000000E+00 0.  1.
          1   -1    0    0  501    0  0.00000000000E+00 -0.00000000000E+00 -0.40536413914E+03  0.40536413914E+03  0.00000000000E+00 0. -1.
         23    2    1    2    0    0  0.00000000000E+00  0.00000000000E+00 -0.40028506624E+03  0.41044321204E+03  0.90749633937E+02 0.  0.
          2    1    3    3  502    0  0.87827143529E+01  0.33175196263E+02 -0.33439791771E+03  0.33615427572E+03  0.00000000000E+00 0. -1.
         -2    1    3    3    0  502 -0.87827143529E+01 -0.33175196263E+02 -0.65887148530E+02  0.74288936322E+02  0.00000000000E+00 0.  1.
<mgrwt>
<rscale>  0 0.90749634E+02</rscale>
<asrwt>0</asrwt>
<pdfrwt beam="2">  1        1 0.62363724E-01 0.90749634E+02</pdfrwt>
<pdfrwt beam="1">  1       -1 0.78139570E-03 0.90749634E+02</pdfrwt>
<totfact> 0.13687974E+05</totfact>
</mgrwt>
</event>
<event>
 5    1  0.3921687E+001  0.8838545E+02  0.7546771E-02  0.1306809E+00
          1   -1    0    0  501    0  0.00000000000E+00  0.00000000000E+00  0.25150997715E+02  0.25150997715E+02  0.00000000000E+00 0. -1.
         -1   -1    0    0    0  501 -0.00000000000E+00 -0.00000000000E+00 -0.77650867661E+02  0.77650867661E+02  0.00000000000E+00 0.  1.
         23    2    1    2    0    0  0.00000000000E+00  0.00000000000E+00 -0.52499869946E+02  0.10280186538E+03  0.88385446654E+02 0.  0.
          2    1    3    3  502    0 -0.28248300124E+02 -0.23100514138E+02  0.27438333374E+01  0.36594109290E+02  0.00000000000E+00 0. -1.
         -2    1    3    3    0  502  0.28248300124E+02  0.23100514138E+02 -0.55243703284E+02  0.66207756085E+02  0.00000000000E+00 0.  1.
<mgrwt>
<rscale>  0 0.88385447E+02</rscale>
<asrwt>0</asrwt>
<pdfrwt beam="1">  1        1 0.38693842E-02 0.88385447E+02</pdfrwt>
<pdfrwt beam="2">  1       -1 0.11946287E-01 0.88385447E+02</pdfrwt>
<totfact> 0.92108760E+04</totfact>
</mgrwt>
</event>
<event>
 5    1  0.3921687E+001  0.8981125E+02  0.7546771E-02  0.1303309E+00
         -2   -1    0    0    0  501 -0.00000000000E+00  0.00000000000E+00  0.34294273459E+02  0.34294273459E+02  0.00000000000E+00 0.  1.
          2   -1    0    0  501    0  0.00000000000E+00 -0.00000000000E+00 -0.58800344704E+02  0.58800344704E+02  0.00000000000E+00 0. -1.
         23    2    1    2    0    0  0.00000000000E+00  0.00000000000E+00 -0.24506071245E+02  0.93094618164E+02  0.89811248757E+02 0.  0.
          2    1    3    3  502    0  0.28045833792E+02 -0.10825384632E+02 -0.46830574383E+02  0.55649442428E+02  0.00000000000E+00 0. -1.
         -2    1    3    3    0  502 -0.28045833792E+02  0.10825384632E+02  0.22324503138E+02  0.37445175736E+02  0.00000000000E+00 0.  1.
<mgrwt>
<rscale>  0 0.89811249E+02</rscale>
<asrwt>0</asrwt>
<pdfrwt beam="2">  1        2 0.90462068E-02 0.89811249E+02</pdfrwt>
<pdfrwt beam="1">  1       -2 0.52760421E-02 0.89811249E+02</pdfrwt>
<totfact> 0.11007995E+05</totfact>
</mgrwt>
</event>
<event>
 5    1  0.3921687E+001  0.8766580E+02  0.7546771E-02  0.1308605E+00
          2   -1    0    0  501    0  0.00000000000E+00  0.00000000000E+00  0.63093753701E+03  0.63093753701E+03  0.00000000000E+00 0. -1.
         -2   -1    0    0    0  501 -0.00000000000E+00 -0.00000000000E+00 -0.30451877284E+01  0.30451877284E+01  0.00000000000E+00 0.  1.
         23    2    1    2    0    0  0.00000000000E+00  0.00000000000E+00  0.62789234929E+03  0.63398272474E+03  0.87665802799E+02 0.  0.
          2    1    3    3  502    0 -0.74668696306E+01  0.43166825853E+02  0.30323369166E+03  0.30638178920E+03  0.00000000000E+00 0. -1.
         -2    1    3    3    0  502  0.74668696306E+01 -0.43166825853E+02  0.32465865762E+03  0.32760093554E+03  0.00000000000E+00 0.  1.
<mgrwt>
<rscale>  0 0.87665803E+02</rscale>
<asrwt>0</asrwt>
<pdfrwt beam="1">  1        2 0.97067209E-01 0.87665803E+02</pdfrwt>
<pdfrwt beam="2">  1       -2 0.46849092E-03 0.87665803E+02</pdfrwt>
<totfact> 0.25621163E+05</totfact>
</mgrwt>
</event>
<event>
 5    1  0.3921687E+001  0.9158283E+02  0.7546771E-02  0.1299063E+00
          2   -1    0    0  501    0  0.00000000000E+00  0.00000000000E+00  0.48534576899E+02  0.48534576899E+02  0.00000000000E+00 0. -1.
         -2   -1    0    0    0  501 -0.00000000000E+00 -0.00000000000E+00 -0.43203293512E+02  0.43203293512E+02  0.00000000000E+00 0.  1.
         23    2    1    2    0    0  0.00000000000E+00  0.00000000000E+00  0.53312833869E+01  0.91737870411E+02  0.91582827457E+02 0.  0.
          2    1    3    3  502    0 -0.13116752572E+02  0.27957243436E+02  0.36534076626E+02  0.47837176061E+02  0.00000000000E+00 0. -1.
         -2    1    3    3    0  502  0.13116752572E+02 -0.27957243436E+02 -0.31202793239E+02  0.43900694351E+02  0.00000000000E+00 0.  1.
<mgrwt>
<rscale>  0 0.91582827E+02</rscale>
<asrwt>0</asrwt>
<pdfrwt beam="1">  1        2 0.74668580E-02 0.91582827E+02</pdfrwt>
<pdfrwt beam="2">  1       -2 0.66466605E-02 0.91582827E+02</pdfrwt>
<totfact> 0.99027938E+04</totfact>
</mgrwt>
</event>
<event>
 5    1  0.3921687E+001  0.9160004E+02  0.7546771E-02  0.1299023E+00
         -1   -1    0    0    0  501 -0.00000000000E+00  0.00000000000E+00  0.36937555559E+02  0.36937555559E+02  0.00000000000E+00 0.  1.
          1   -1    0    0  501    0  0.00000000000E+00 -0.00000000000E+00 -0.56788868405E+02  0.56788868405E+02  0.00000000000E+00 0. -1.
         23    2    1    2    0    0  0.00000000000E+00  0.00000000000E+00 -0.19851312846E+02  0.93726423963E+02  0.91600043271E+02 0.  0.
          2    1    3    3  502    0 -0.25106445774E+02 -0.22290346597E+02  0.21949526415E+02  0.40112029127E+02  0.00000000000E+00 0.  1.
         -2    1    3    3    0  502  0.25106445774E+02  0.22290346597E+02 -0.41800839261E+02  0.53614394837E+02  0.00000000000E+00 0. -1.
<mgrwt>
<rscale>  0 0.91600043E+02</rscale>
<asrwt>0</asrwt>
<pdfrwt beam="2">  1        1 0.87367489E-02 0.91600043E+02</pdfrwt>
<pdfrwt beam="1">  1       -1 0.56827009E-02 0.91600043E+02</pdfrwt>
<totfact> 0.94350224E+04</totfact>
</mgrwt>
</event>
<event>
 5    1  0.3921687E+001  0.8840273E+02  0.7546771E-02  0.1306766E+00
         -1   -1    0    0    0  501 -0.00000000000E+00  0.00000000000E+00  0.11568553898E+02  0.11568553898E+02  0.00000000000E+00 0.  1.
          1   -1    0    0  501    0  0.00000000000E+00 -0.00000000000E+00 -0.16888545856E+03  0.16888545856E+03  0.00000000000E+00 0. -1.
         23    2    1    2    0    0  0.00000000000E+00  0.00000000000E+00 -0.15731690466E+03  0.18045401245E+03  0.88402726879E+02 0.  0.
          2    1    3    3  502    0 -0.43725794119E+01  0.42774727221E+02 -0.99571659244E+02  0.10845880353E+03  0.00000000000E+00 0. -1.
         -2    1    3    3    0  502  0.43725794119E+01 -0.42774727221E+02 -0.57745245414E+02  0.71995208920E+02  0.00000000000E+00 0.  1.
<mgrwt>
<rscale>  0 0.88402727E+02</rscale>
<asrwt>0</asrwt>
<pdfrwt beam="2">  1        1 0.25982379E-01 0.88402727E+02</pdfrwt>
<pdfrwt beam="1">  1       -1 0.17797775E-02 0.88402727E+02</pdfrwt>
<totfact> 0.12454537E+05</totfact>
</mgrwt>
</event>
<event>
 5    1  0.3921687E+001  0.6643797E+02  0.7546771E-02  0.1372643E+00
         -4   -1    0    0    0  501 -0.00000000000E+00  0.00000000000E+00  0.14304365129E+04  0.14304365129E+04  0.00000000000E+00 0.  1.
          4   -1    0    0  501    0  0.00000000000E+00 -0.00000000000E+00 -0.77144345327E+00  0.77144345327E+00  0.00000000000E+00 0. -1.
         23    2    1    2    0    0  0.00000000000E+00  0.00000000000E+00  0.14296650694E+04  0.14312079563E+04  0.66437967554E+02 0.  0.
          2    1    3    3  502    0  0.91206264493E+01 -0.31935269686E+02  0.72934115122E+03  0.73009695393E+03  0.00000000000E+00 0. -1.
         -2    1    3    3    0  502 -0.91206264493E+01  0.31935269686E+02  0.70032391820E+03  0.70111100240E+03  0.00000000000E+00 0.  1.
<mgrwt>
<rscale>  0 0.66437968E+02</rscale>
<asrwt>0</asrwt>
<pdfrwt beam="2">  1        4 0.11868475E-03 0.66437968E+02</pdfrwt>
<pdfrwt beam="1">  1       -4 0.22006503E+00 0.66437968E+02</pdfrwt>
<totfact> 0.10163491E+04</totfact>
</mgrwt>
</event>
<event>
 5    1  0.3921687E+001  0.9070798E+02  0.7546771E-02  0.1301146E+00
         -2   -1    0    0    0  501 -0.00000000000E+00  0.00000000000E+00  0.76593632778E+01  0.76593632778E+01  0.00000000000E+00 0.  1.
          2   -1    0    0  501    0  0.00000000000E+00 -0.00000000000E+00 -0.26855812862E+03  0.26855812862E+03  0.00000000000E+00 0. -1.
         23    2    1    2    0    0  0.00000000000E+00  0.00000000000E+00 -0.26089876534E+03  0.27621749190E+03  0.90707976900E+02 0.  0.
          2    1    3    3  502    0  0.26196374587E+01 -0.44964040197E+02 -0.11423371842E+03  0.12279238508E+03  0.00000000000E+00 0.  1.
         -2    1    3    3    0  502 -0.26196374587E+01  0.44964040197E+02 -0.14666504693E+03  0.15342510682E+03  0.00000000000E+00 0. -1.
<mgrwt>
<rscale>  0 0.90707977E+02</rscale>
<asrwt>0</asrwt>
<pdfrwt beam="2">  1        2 0.41316636E-01 0.90707977E+02</pdfrwt>
<pdfrwt beam="1">  1       -2 0.11783636E-02 0.90707977E+02</pdfrwt>
<totfact> 0.17478346E+05</totfact>
</mgrwt>
</event>
<event>
 5    1  0.3921687E+001  0.9159271E+02  0.7546771E-02  0.1299040E+00
         -1   -1    0    0    0  501 -0.00000000000E+00  0.00000000000E+00  0.21259668176E+01  0.21259668176E+01  0.00000000000E+00 0.  1.
          1   -1    0    0  501    0  0.00000000000E+00 -0.00000000000E+00 -0.98651870654E+03  0.98651870654E+03  0.00000000000E+00 0. -1.
         23    2    1    2    0    0  0.00000000000E+00  0.00000000000E+00 -0.98439273973E+03  0.98864467336E+03  0.91592707899E+02 0.  0.
          2    1    3    3  502    0  0.27986118272E+01  0.44983465144E+02 -0.57986115139E+03  0.58161009212E+03  0.00000000000E+00 0. -1.
         -2    1    3    3    0  502 -0.27986118272E+01 -0.44983465144E+02 -0.40453158834E+03  0.40703458125E+03  0.00000000000E+00 0.  1.
<mgrwt>
<rscale>  0 0.91592708E+02</rscale>
<asrwt>0</asrwt>
<pdfrwt beam="2">  1        1 0.15177181E+00 0.91592708E+02</pdfrwt>
<pdfrwt beam="1">  1       -1 0.32707245E-03 0.91592708E+02</pdfrwt>
<totfact> 0.13486236E+05</totfact>
</mgrwt>
</event>
<event>
 5    1  0.3921687E+001  0.9145468E+02  0.7546771E-02  0.1299367E+00
          2   -1    0    0  501    0  0.00000000000E+00  0.00000000000E+00  0.36601699117E+03  0.36601699117E+03  0.00000000000E+00 0. -1.
         -2   -1    0    0    0  501 -0.00000000000E+00 -0.00000000000E+00 -0.57128215535E+01  0.57128215535E+01  0.00000000000E+00 0.  1.
         23    2    1    2    0    0  0.00000000000E+00  0.00000000000E+00  0.36030416961E+03  0.37172981272E+03  0.91454682900E+02 0.  0.
          2    1    3    3  502    0  0.35856115690E+02 -0.28189040881E+02  0.19345201066E+03  0.19875604013E+03  0.00000000000E+00 0.  1.
         -2    1    3    3    0  502 -0.35856115690E+02  0.28189040881E+02  0.16685215896E+03  0.17297377260E+03  0.00000000000E+00 0. -1.
<mgrwt>
<rscale>  0 0.91454683E+02</rscale>
<asrwt>0</asrwt>
<pdfrwt beam="1">  1        2 0.56310288E-01 0.91454683E+02</pdfrwt>
<pdfrwt beam="2">  1       -2 0.87889591E-03 0.91454683E+02</pdfrwt>
<totfact> 0.19176616E+05</totfact>
</mgrwt>
</event>
<event>
 5    1  0.3921687E+001  0.8686339E+02  0.7546771E-02  0.1310630E+00
          1   -1    0    0  501    0  0.00000000000E+00  0.00000000000E+00  0.29645898549E+03  0.29645898549E+03  0.00000000000E+00 0. -1.
         -1   -1    0    0    0  501 -0.00000000000E+00 -0.00000000000E+00 -0.63628100000E+01  0.63628100000E+01  0.00000000000E+00 0.  1.
         23    2    1    2    0    0  0.00000000000E+00  0.00000000000E+00  0.29009617549E+03  0.30282179549E+03  0.86863391540E+02 0.  0.
          2    1    3    3  502    0  0.24573518450E+02 -0.29570910103E+02  0.21546691144E+03  0.21887047873E+03  0.00000000000E+00 0. -1.
         -2    1    3    3    0  502 -0.24573518450E+02  0.29570910103E+02  0.74629264050E+02  0.83951316761E+02  0.00000000000E+00 0.  1.
<mgrwt>
<rscale>  0 0.86863392E+02</rscale>
<asrwt>0</asrwt>
<pdfrwt beam="1">  1        1 0.45609064E-01 0.86863392E+02</pdfrwt>
<pdfrwt beam="2">  1       -1 0.97889408E-03 0.86863392E+02</pdfrwt>
<totfact> 0.14539883E+05</totfact>
</mgrwt>
</event>
<event>
 5    1  0.3921687E+001  0.8683245E+02  0.7546771E-02  0.1310709E+00
         -1   -1    0    0    0  501 -0.00000000000E+00  0.00000000000E+00  0.45171149946E+01  0.45171149946E+01  0.00000000000E+00 0.  1.
          1   -1    0    0  501    0  0.00000000000E+00 -0.00000000000E+00 -0.41729483030E+03  0.41729483030E+03  0.00000000000E+00 0. -1.
         23    2    1    2    0    0  0.00000000000E+00  0.00000000000E+00 -0.41277771531E+03  0.42181194530E+03  0.86832453267E+02 0.  0.
          2    1    3    3  502    0  0.12472620985E+02  0.26648900040E+02 -0.36147562079E+03  0.36267113832E+03  0.00000000000E+00 0. -1.
         -2    1    3    3    0  502 -0.12472620985E+02 -0.26648900040E+02 -0.51302094520E+02  0.59140806976E+02  0.00000000000E+00 0.  1.
<mgrwt>
<rscale>  0 0.86832453E+02</rscale>
<asrwt>0</asrwt>
<pdfrwt beam="2">  1        1 0.64199207E-01 0.86832453E+02</pdfrwt>
<pdfrwt beam="1">  1       -1 0.69494075E-03 0.86832453E+02</pdfrwt>
<totfact> 0.15454372E+05</totfact>
</mgrwt>
</event>
<event>
 5    1  0.3921687E+001  0.9137399E+02  0.7546771E-02  0.1299558E+00
          2   -1    0    0  501    0  0.00000000000E+00  0.00000000000E+00  0.25442378244E+03  0.25442378244E+03  0.00000000000E+00 0. -1.
         -2   -1    0    0    0  501 -0.00000000000E+00 -0.00000000000E+00 -0.82040344079E+01  0.82040344079E+01  0.00000000000E+00 0.  1.
         23    2    1    2    0    0  0.00000000000E+00  0.00000000000E+00  0.24621974803E+03  0.26262781685E+03  0.91373988975E+02 0.  0.
          2    1    3    3  502    0 -0.32199871979E+02  0.78964131456E+01  0.21345863181E+03  0.21601799136E+03  0.00000000000E+00 0. -1.
         -2    1    3    3    0  502  0.32199871979E+02 -0.78964131456E+01  0.32761116219E+02  0.46609825487E+02  0.00000000000E+00 0.  1.
<mgrwt>
<rscale>  0 0.91373989E+02</rscale>
<asrwt>0</asrwt>
<pdfrwt beam="1">  1        2 0.39142114E-01 0.91373989E+02</pdfrwt>
<pdfrwt beam="2">  1       -2 0.12621593E-02 0.91373989E+02</pdfrwt>
<totfact> 0.16797918E+05</totfact>
</mgrwt>
</event>
<event>
 5    1  0.3921687E+001  0.9186652E+02  0.7546771E-02  0.1298394E+00
          1   -1    0    0  501    0  0.00000000000E+00  0.00000000000E+00  0.93859465890E+01  0.93859465890E+01  0.00000000000E+00 0. -1.
         -1   -1    0    0    0  501 -0.00000000000E+00 -0.00000000000E+00 -0.22478974165E+03  0.22478974165E+03  0.00000000000E+00 0.  1.
         23    2    1    2    0    0  0.00000000000E+00  0.00000000000E+00 -0.21540379506E+03  0.23417568824E+03  0.91866522932E+02 0.  0.
          2    1    3    3  502    0  0.36066029801E+02 -0.15916603009E+02 -0.47607885714E+02  0.61811063242E+02  0.00000000000E+00 0. -1.
         -2    1    3    3    0  502 -0.36066029801E+02  0.15916603009E+02 -0.16779590935E+03  0.17236462500E+03  0.00000000000E+00 0.  1.
<mgrwt>
<rscale>  0 0.91866523E+02</rscale>
<asrwt>0</asrwt>
<pdfrwt beam="1">  1        1 0.14439917E-02 0.91866523E+02</pdfrwt>
<pdfrwt beam="2">  1       -1 0.34583040E-01 0.91866523E+02</pdfrwt>
<totfact> 0.65736365E+04</totfact>
</mgrwt>
</event>
<event>
 5    1  0.3921687E+001  0.9225467E+02  0.7546771E-02  0.1297482E+00
          2   -1    0    0  501    0  0.00000000000E+00  0.00000000000E+00  0.36833643722E+04  0.36833643722E+04  0.00000000000E+00 0. -1.
         -2   -1    0    0    0  501 -0.00000000000E+00 -0.00000000000E+00 -0.57765960618E+00  0.57765960618E+00  0.00000000000E+00 0.  1.
         23    2    1    2    0    0  0.00000000000E+00  0.00000000000E+00  0.36827867126E+04  0.36839420319E+04  0.92254665198E+02 0.  0.
          2    1    3    3  502    0 -0.42695637054E+02  0.64517667952E+01  0.24892181577E+04  0.24895926533E+04  0.00000000000E+00 0. -1.
         -2    1    3    3    0  502  0.42695637054E+02 -0.64517667952E+01  0.11935685550E+04  0.11943493786E+04  0.00000000000E+00 0.  1.
<mgrwt>
<rscale>  0 0.92254665E+02</rscale>
<asrwt>0</asrwt>
<pdfrwt beam="1">  1        2 0.56665264E+00 0.92254665E+02</pdfrwt>
<pdfrwt beam="2">  1       -2 0.88873658E-04 0.92254665E+02</pdfrwt>
<totfact> 0.49717666E+04</totfact>
</mgrwt>
</event>
<event>
 5    1  0.3921687E+001  0.9111817E+02  0.7546771E-02  0.1300166E+00
          1   -1    0    0  501    0  0.00000000000E+00  0.00000000000E+00  0.22142234633E+04  0.22142234633E+04  0.00000000000E+00 0. -1.
         -1   -1    0    0    0  501 -0.00000000000E+00 -0.00000000000E+00 -0.93740770536E+00  0.93740770536E+00  0.00000000000E+00 0.  1.
         23    2    1    2    0    0  0.00000000000E+00  0.00000000000E+00  0.22132860556E+04  0.22151608710E+04  0.91118168022E+02 0.  0.
          2    1    3    3  502    0 -0.36556365081E+02 -0.17819725826E+02  0.16058863055E+04  0.16064011755E+04  0.00000000000E+00 0. -1.
         -2    1    3    3    0  502  0.36556365081E+02  0.17819725826E+02  0.60739975016E+03  0.60875969557E+03  0.00000000000E+00 0.  1.
<mgrwt>
<rscale>  0 0.91118168E+02</rscale>
<asrwt>0</asrwt>
<pdfrwt beam="1">  1        1 0.34064558E+00 0.91118168E+02</pdfrwt>
<pdfrwt beam="2">  1       -1 0.14421834E-03 0.91118168E+02</pdfrwt>
<totfact> 0.67408532E+04</totfact>
</mgrwt>
</event>
<event>
 5    1  0.3921687E+001  0.8974966E+02  0.7546771E-02  0.1303459E+00
          2   -1    0    0  501    0  0.00000000000E+00  0.00000000000E+00  0.21343697198E+04  0.21343697198E+04  0.00000000000E+00 0.  1.
         -2   -1    0    0    0  501 -0.00000000000E+00 -0.00000000000E+00 -0.94348723526E+00  0.94348723526E+00  0.00000000000E+00 0. -1.
         23    2    1    2    0    0  0.00000000000E+00  0.00000000000E+00  0.21334262326E+04  0.21353132071E+04  0.89749664868E+02 0.  0.
          2    1    3    3  502    0  0.28011946040E+02 -0.15081377406E+02  0.31373357623E+03  0.31534247085E+03  0.00000000000E+00 0. -1.
         -2    1    3    3    0  502 -0.28011946040E+02  0.15081377406E+02  0.18196926564E+04  0.18199707362E+04  0.00000000000E+00 0.  1.
<mgrwt>
<rscale>  0 0.89749665E+02</rscale>
<asrwt>0</asrwt>
<pdfrwt beam="1">  1        2 0.32836071E+00 0.89749665E+02</pdfrwt>
<pdfrwt beam="2">  1       -2 0.14515359E-03 0.89749665E+02</pdfrwt>
<totfact> 0.19205251E+05</totfact>
</mgrwt>
</event>
<event>
 5    1  0.3921687E+001  0.8754926E+02  0.7546771E-02  0.1308897E+00
          1   -1    0    0  501    0  0.00000000000E+00  0.00000000000E+00  0.46473512208E+01  0.46473512208E+01  0.00000000000E+00 0. -1.
         -1   -1    0    0    0  501 -0.00000000000E+00 -0.00000000000E+00 -0.41232479123E+03  0.41232479123E+03  0.00000000000E+00 0.  1.
         23    2    1    2    0    0  0.00000000000E+00  0.00000000000E+00 -0.40767744001E+03  0.41697214245E+03  0.87549257492E+02 0.  0.
          2    1    3    3  502    0 -0.32473908679E+02  0.18797840478E+02 -0.31121703416E+03  0.31347082145E+03  0.00000000000E+00 0.  1.
         -2    1    3    3    0  502  0.32473908679E+02 -0.18797840478E+02 -0.96460405845E+02  0.10350132099E+03  0.00000000000E+00 0. -1.
<mgrwt>
<rscale>  0 0.87549257E+02</rscale>
<asrwt>0</asrwt>
<pdfrwt beam="1">  1        1 0.71497707E-03 0.87549257E+02</pdfrwt>
<pdfrwt beam="2">  1       -1 0.63434587E-01 0.87549257E+02</pdfrwt>
<totfact> 0.58346026E+04</totfact>
</mgrwt>
</event>
<event>
 5    1  0.3921687E+001  0.9320395E+02  0.7546771E-02  0.1295273E+00
          3   -1    0    0  501    0  0.00000000000E+00  0.00000000000E+00  0.73519050615E+01  0.73519050615E+01  0.00000000000E+00 0. -1.
         -3   -1    0    0    0  501 -0.00000000000E+00 -0.00000000000E+00 -0.29539882939E+03  0.29539882939E+03  0.00000000000E+00 0.  1.
         23    2    1    2    0    0  0.00000000000E+00  0.00000000000E+00 -0.28804692433E+03  0.30275073445E+03  0.93203951611E+02 0.  0.
          2    1    3    3  502    0  0.31115825812E+02  0.15473769159E+02 -0.43164470013E+02  0.55414832125E+02  0.00000000000E+00 0. -1.
         -2    1    3    3    0  502 -0.31115825812E+02 -0.15473769159E+02 -0.24488245431E+03  0.24733590233E+03  0.00000000000E+00 0.  1.
<mgrwt>
<rscale>  0 0.93203952E+02</rscale>
<asrwt>0</asrwt>
<pdfrwt beam="1">  1        3 0.11310624E-02 0.93203952E+02</pdfrwt>
<pdfrwt beam="2">  1       -3 0.45445970E-01 0.93203952E+02</pdfrwt>
<totfact> 0.22543280E+04</totfact>
</mgrwt>
</event>
<event>
 5    1  0.3921687E+001  0.9028618E+02  0.7546771E-02  0.1302160E+00
         -1   -1    0    0    0  501 -0.00000000000E+00  0.00000000000E+00  0.19998064933E+01  0.19998064933E+01  0.00000000000E+00 0.  1.
          1   -1    0    0  501    0  0.00000000000E+00 -0.00000000000E+00 -0.10190479879E+04  0.10190479879E+04  0.00000000000E+00 0. -1.
         23    2    1    2    0    0  0.00000000000E+00  0.00000000000E+00 -0.10170481814E+04  0.10210477944E+04  0.90286184620E+02 0.  0.
          2    1    3    3  502    0  0.22295995318E+02 -0.36299537882E+02 -0.67745326310E+03  0.67879134610E+03  0.00000000000E+00 0. -1.
         -2    1    3    3    0  502 -0.22295995318E+02  0.36299537882E+02 -0.33959491834E+03  0.34225644832E+03  0.00000000000E+00 0.  1.
<mgrwt>
<rscale>  0 0.90286185E+02</rscale>
<asrwt>0</asrwt>
<pdfrwt beam="2">  1        1 0.15677651E+00 0.90286185E+02</pdfrwt>
<pdfrwt beam="1">  1       -1 0.30766274E-03 0.90286185E+02</pdfrwt>
<totfact> 0.13886702E+05</totfact>
</mgrwt>
</event>
<event>
 5    1  0.3921687E+001  0.9195326E+02  0.7546771E-02  0.1298189E+00
          2   -1    0    0  501    0  0.00000000000E+00  0.00000000000E+00  0.10728931770E+03  0.10728931770E+03  0.00000000000E+00 0. -1.
         -2   -1    0    0    0  501 -0.00000000000E+00 -0.00000000000E+00 -0.19702340675E+02  0.19702340675E+02  0.00000000000E+00 0.  1.
         23    2    1    2    0    0  0.00000000000E+00  0.00000000000E+00  0.87586977021E+02  0.12699165837E+03  0.91953263957E+02 0.  0.
          2    1    3    3  502    0  0.20986999453E+02  0.97331080038E+01  0.98665740089E+02  0.10134157984E+03  0.00000000000E+00 0. -1.
         -2    1    3    3    0  502 -0.20986999453E+02 -0.97331080038E+01 -0.11078763069E+02  0.25650078530E+02  0.00000000000E+00 0.  1.
<mgrwt>
<rscale>  0 0.91953264E+02</rscale>
<asrwt>0</asrwt>
<pdfrwt beam="1">  1        2 0.16506049E-01 0.91953264E+02</pdfrwt>
<pdfrwt beam="2">  1       -2 0.30311294E-02 0.91953264E+02</pdfrwt>
<totfact> 0.12247040E+05</totfact>
</mgrwt>
</event>
<event>
 5    1  0.3921687E+001  0.9115475E+02  0.7546771E-02  0.1300079E+00
          1   -1    0    0  501    0  0.00000000000E+00  0.00000000000E+00  0.11327887355E+02  0.11327887355E+02  0.00000000000E+00 0. -1.
         -1   -1    0    0    0  501 -0.00000000000E+00 -0.00000000000E+00 -0.18337904459E+03  0.18337904459E+03  0.00000000000E+00 0.  1.
         23    2    1    2    0    0  0.00000000000E+00  0.00000000000E+00 -0.17205115724E+03  0.19470693195E+03  0.91154751066E+02 0.  0.
          2    1    3    3  502    0 -0.25954519997E+01 -0.26107642310E+02 -0.64195988345E+01  0.27010305575E+02  0.00000000000E+00 0. -1.
         -2    1    3    3    0  502  0.25954519997E+01  0.26107642310E+02 -0.16563155840E+03  0.16769662637E+03  0.00000000000E+00 0.  1.
<mgrwt>
<rscale>  0 0.91154751E+02</rscale>
<asrwt>0</asrwt>
<pdfrwt beam="1">  1        1 0.17427518E-02 0.91154751E+02</pdfrwt>
<pdfrwt beam="2">  1       -1 0.28212163E-01 0.91154751E+02</pdfrwt>
<totfact> 0.71160116E+04</totfact>
</mgrwt>
</event>
<event>
 5    1  0.3921687E+001  0.8772589E+02  0.7546771E-02  0.1308454E+00
          3   -1    0    0  501    0  0.00000000000E+00  0.00000000000E+00  0.37563414461E+02  0.37563414461E+02  0.00000000000E+00 0. -1.
         -3   -1    0    0    0  501 -0.00000000000E+00 -0.00000000000E+00 -0.51218925616E+02  0.51218925616E+02  0.00000000000E+00 0.  1.
         23    2    1    2    0    0  0.00000000000E+00  0.00000000000E+00 -0.13655511155E+02  0.88782340077E+02  0.87725885146E+02 0.  0.
          2    1    3    3  502    0  0.40464887906E+01  0.36375100716E+02  0.17638482643E+02  0.40628045653E+02  0.00000000000E+00 0. -1.
         -2    1    3    3    0  502 -0.40464887906E+01 -0.36375100716E+02 -0.31293993797E+02  0.48154294424E+02  0.00000000000E+00 0.  1.
<mgrwt>
<rscale>  0 0.87725885E+02</rscale>
<asrwt>0</asrwt>
<pdfrwt beam="1">  1        3 0.57789868E-02 0.87725885E+02</pdfrwt>
<pdfrwt beam="2">  1       -3 0.78798347E-02 0.87725885E+02</pdfrwt>
<totfact> 0.39447873E+04</totfact>
</mgrwt>
</event>
<event>
 5    1  0.3921687E+001  0.9261900E+02  0.7546771E-02  0.1296631E+00
         -1   -1    0    0    0  501 -0.00000000000E+00  0.00000000000E+00  0.71866824342E+03  0.71866824342E+03  0.00000000000E+00 0.  1.
          1   -1    0    0  501    0  0.00000000000E+00 -0.00000000000E+00 -0.29840887693E+01  0.29840887693E+01  0.00000000000E+00 0. -1.
         23    2    1    2    0    0  0.00000000000E+00  0.00000000000E+00  0.71568415465E+03  0.72165233219E+03  0.92619000946E+02 0.  0.
          2    1    3    3  502    0 -0.18600064110E+02 -0.27448498055E+02  0.10594390819E+03  0.11101123417E+03  0.00000000000E+00 0. -1.
         -2    1    3    3    0  502  0.18600064110E+02  0.27448498055E+02  0.60974024646E+03  0.61064109802E+03  0.00000000000E+00 0.  1.
<mgrwt>
<rscale>  0 0.92619001E+02</rscale>
<asrwt>0</asrwt>
<pdfrwt beam="2">  1        1 0.45909115E-03 0.92619001E+02</pdfrwt>
<pdfrwt beam="1">  1       -1 0.11056421E+00 0.92619001E+02</pdfrwt>
<totfact> 0.34565758E+04</totfact>
</mgrwt>
</event>
<event>
 5    1  0.3921687E+001  0.9179385E+02  0.7546771E-02  0.1298565E+00
          2   -1    0    0  501    0  0.00000000000E+00  0.00000000000E+00  0.90509378329E+02  0.90509378329E+02  0.00000000000E+00 0. -1.
         -2   -1    0    0    0  501 -0.00000000000E+00 -0.00000000000E+00 -0.23274139675E+02  0.23274139675E+02  0.00000000000E+00 0.  1.
         23    2    1    2    0    0  0.00000000000E+00  0.00000000000E+00  0.67235238654E+02  0.11378351800E+03  0.91793854111E+02 0.  0.
          2    1    3    3  502    0  0.25989582236E+02 -0.88620776429E+01  0.79204482027E+02  0.83829259677E+02  0.00000000000E+00 0. -1.
         -2    1    3    3    0  502 -0.25989582236E+02  0.88620776429E+01 -0.11969243373E+02  0.29954258326E+02  0.00000000000E+00 0.  1.
<mgrwt>
<rscale>  0 0.91793854E+02</rscale>
<asrwt>0</asrwt>
<pdfrwt beam="1">  1        2 0.13924520E-01 0.91793854E+02</pdfrwt>
<pdfrwt beam="2">  1       -2 0.35806369E-02 0.91793854E+02</pdfrwt>
<totfact> 0.11685485E+05</totfact>
</mgrwt>
</event>
<event>
 5    1  0.3921687E+001  0.9180858E+02  0.7546771E-02  0.1298530E+00
          2   -1    0    0  501    0  0.00000000000E+00  0.00000000000E+00  0.39735830891E+03  0.39735830891E+03  0.00000000000E+00 0. -1.
         -2   -1    0    0    0  501 -0.00000000000E+00 -0.00000000000E+00 -0.53030321456E+01  0.53030321456E+01  0.00000000000E+00 0.  1.
         23    2    1    2    0    0  0.00000000000E+00  0.00000000000E+00  0.39205527677E+03  0.40266134106E+03  0.91808580982E+02 0.  0.
          2    1    3    3  502    0 -0.42462270020E+02  0.17358192426E+02  0.20343531674E+03  0.20854323129E+03  0.00000000000E+00 0. -1.
         -2    1    3    3    0  502  0.42462270020E+02 -0.17358192426E+02  0.18861996003E+03  0.19411810977E+03  0.00000000000E+00 0.  1.
<mgrwt>
<rscale>  0 0.91808581E+02</rscale>
<asrwt>0</asrwt>
<pdfrwt beam="1">  1        2 0.61132024E-01 0.91808581E+02</pdfrwt>
<pdfrwt beam="2">  1       -2 0.81585141E-03 0.91808581E+02</pdfrwt>
<totfact> 0.19553104E+05</totfact>
</mgrwt>
</event>
<event>
 5    1  0.3921687E+001  0.8977630E+02  0.7546771E-02  0.1303394E+00
          4   -1    0    0  501    0  0.00000000000E+00  0.00000000000E+00  0.71327751044E+03  0.71327751044E+03  0.00000000000E+00 0. -1.
         -4   -1    0    0    0  501 -0.00000000000E+00 -0.00000000000E+00 -0.28249119026E+01  0.28249119026E+01  0.00000000000E+00 0.  1.
         23    2    1    2    0    0  0.00000000000E+00  0.00000000000E+00  0.71045259854E+03  0.71610242234E+03  0.89776302644E+02 0.  0.
          2    1    3    3  502    0 -0.30006346315E+02 -0.33263971456E+02  0.37789072391E+03  0.38053682060E+03  0.00000000000E+00 0. -1.
         -2    1    3    3    0  502  0.30006346315E+02  0.33263971456E+02  0.33256187463E+03  0.33556560174E+03  0.00000000000E+00 0.  1.
<mgrwt>
<rscale>  0 0.89776303E+02</rscale>
<asrwt>0</asrwt>
<pdfrwt beam="1">  1        4 0.10973486E+00 0.89776303E+02</pdfrwt>
<pdfrwt beam="2">  1       -4 0.43460240E-03 0.89776303E+02</pdfrwt>
<totfact> 0.10252533E+04</totfact>
</mgrwt>
</event>
<event>
 5    1  0.3921687E+001  0.9053077E+02  0.7546771E-02  0.1301571E+00
          3   -1    0    0  501    0  0.00000000000E+00  0.00000000000E+00  0.39236175486E+01  0.39236175486E+01  0.00000000000E+00 0. -1.
         -3   -1    0    0    0  501 -0.00000000000E+00 -0.00000000000E+00 -0.52221068230E+03  0.52221068230E+03  0.00000000000E+00 0.  1.
         23    2    1    2    0    0  0.00000000000E+00  0.00000000000E+00 -0.51828706475E+03  0.52613429984E+03  0.90530768187E+02 0.  0.
          2    1    3    3  502    0  0.28067279488E+02 -0.12775456186E+02 -0.45171669075E+03  0.45276810086E+03  0.00000000000E+00 0.  1.
         -2    1    3    3    0  502 -0.28067279488E+02  0.12775456186E+02 -0.66570374000E+02  0.73366198983E+02  0.00000000000E+00 0. -1.
<mgrwt>
<rscale>  0 0.90530768E+02</rscale>
<asrwt>0</asrwt>
<pdfrwt beam="1">  1        3 0.60363391E-03 0.90530768E+02</pdfrwt>
<pdfrwt beam="2">  1       -3 0.80340047E-01 0.90530768E+02</pdfrwt>
<totfact> 0.17604735E+04</totfact>
</mgrwt>
</event>
<event>
 5    1  0.3921687E+001  0.9157998E+02  0.7546771E-02  0.1299070E+00
         -2   -1    0    0    0  501 -0.00000000000E+00  0.00000000000E+00  0.39547926253E+01  0.39547926253E+01  0.00000000000E+00 0.  1.
          2   -1    0    0  501    0  0.00000000000E+00 -0.00000000000E+00 -0.53017276647E+03  0.53017276647E+03  0.00000000000E+00 0. -1.
         23    2    1    2    0    0  0.00000000000E+00  0.00000000000E+00 -0.52621797384E+03  0.53412755909E+03  0.91579983554E+02 0.  0.
          2    1    3    3  502    0  0.35900684996E+02  0.32608224260E+01 -0.42778736045E+03  0.42930352655E+03  0.00000000000E+00 0. -1.
         -2    1    3    3    0  502 -0.35900684996E+02 -0.32608224260E+01 -0.98430613391E+02  0.10482403254E+03  0.00000000000E+00 0.  1.
<mgrwt>
<rscale>  0 0.91579984E+02</rscale>
<asrwt>0</asrwt>
<pdfrwt beam="2">  1        2 0.81565063E-01 0.91579984E+02</pdfrwt>
<pdfrwt beam="1">  1       -2 0.60842947E-03 0.91579984E+02</pdfrwt>
<totfact> 0.21701634E+05</totfact>
</mgrwt>
</event>
<event>
 5    1  0.3921687E+001  0.8362009E+02  0.7546771E-02  0.1319081E+00
          1   -1    0    0  501    0  0.00000000000E+00  0.00000000000E+00  0.17312332255E+03  0.17312332255E+03  0.00000000000E+00 0. -1.
         -1   -1    0    0    0  501 -0.00000000000E+00 -0.00000000000E+00 -0.10097309417E+02  0.10097309417E+02  0.00000000000E+00 0.  1.
         23    2    1    2    0    0  0.00000000000E+00  0.00000000000E+00  0.16302601313E+03  0.18322063197E+03  0.83620087421E+02 0.  0.
          2    1    3    3  502    0  0.28060975151E+02 -0.25545871410E+02  0.11997115586E+03  0.12582959950E+03  0.00000000000E+00 0. -1.
         -2    1    3    3    0  502 -0.28060975151E+02  0.25545871410E+02  0.43054857271E+02  0.57391032463E+02  0.00000000000E+00 0.  1.
<mgrwt>
<rscale>  0 0.83620087E+02</rscale>
<asrwt>0</asrwt>
<pdfrwt beam="1">  1        1 0.26634355E-01 0.83620087E+02</pdfrwt>
<pdfrwt beam="2">  1       -1 0.15534323E-02 0.83620087E+02</pdfrwt>
<totfact> 0.14515603E+05</totfact>
</mgrwt>
</event>
<event>
 5    1  0.3921687E+001  0.9145140E+02  0.7546771E-02  0.1299375E+00
         -1   -1    0    0    0  501 -0.00000000000E+00  0.00000000000E+00  0.96173796081E+02  0.96173796081E+02  0.00000000000E+00 0.  1.
          1   -1    0    0  501    0  0.00000000000E+00 -0.00000000000E+00 -0.21740221392E+02  0.21740221392E+02  0.00000000000E+00 0. -1.
         23    2    1    2    0    0  0.00000000000E+00  0.00000000000E+00  0.74433574689E+02  0.11791401747E+03  0.91451399528E+02 0.  0.
          2    1    3    3  502    0  0.20563866565E+02  0.38447090387E+02  0.19454056180E+02  0.47744231790E+02  0.00000000000E+00 0. -1.
         -2    1    3    3    0  502 -0.20563866565E+02 -0.38447090387E+02  0.54979518509E+02  0.70169785683E+02  0.00000000000E+00 0.  1.
<mgrwt>
<rscale>  0 0.91451400E+02</rscale>
<asrwt>0</asrwt>
<pdfrwt beam="2">  1        1 0.33446495E-02 0.91451400E+02</pdfrwt>
<pdfrwt beam="1">  1       -1 0.14795968E-01 0.91451400E+02</pdfrwt>
<totfact> 0.81325472E+04</totfact>
</mgrwt>
</event>
<event>
 5    1  0.3921687E+001  0.9146218E+02  0.7546771E-02  0.1299349E+00
         -2   -1    0    0    0  501 -0.00000000000E+00  0.00000000000E+00  0.42496015459E+01  0.42496015459E+01  0.00000000000E+00 0.  1.
          2   -1    0    0  501    0  0.00000000000E+00 -0.00000000000E+00 -0.49212441136E+03  0.49212441136E+03  0.00000000000E+00 0. -1.
         23    2    1    2    0    0  0.00000000000E+00  0.00000000000E+00 -0.48787480981E+03  0.49637401291E+03  0.91462181459E+02 0.  0.
          2    1    3    3  502    0  0.41639552863E+02 -0.18119324800E+02 -0.27324893004E+03  0.27699664269E+03  0.00000000000E+00 0. -1.
         -2    1    3    3    0  502 -0.41639552863E+02  0.18119324800E+02 -0.21462587978E+03  0.21937737022E+03  0.00000000000E+00 0.  1.
<mgrwt>
<rscale>  0 0.91462181E+02</rscale>
<asrwt>0</asrwt>
<pdfrwt beam="2">  1        2 0.75711461E-01 0.91462181E+02</pdfrwt>
<pdfrwt beam="1">  1       -2 0.65378474E-03 0.91462181E+02</pdfrwt>
<totfact> 0.21261595E+05</totfact>
</mgrwt>
</event>
<event>
 5    1  0.3921687E+001  0.9902104E+02  0.7546771E-02  0.1282368E+00
          1   -1    0    0  501    0  0.00000000000E+00  0.00000000000E+00  0.82387083885E+03  0.82387083885E+03  0.00000000000E+00 0. -1.
         -1   -1    0    0    0  501 -0.00000000000E+00 -0.00000000000E+00 -0.29753347431E+01  0.29753347431E+01  0.00000000000E+00 0.  1.
         23    2    1    2    0    0  0.00000000000E+00  0.00000000000E+00  0.82089550411E+03  0.82684617360E+03  0.99021038789E+02 0.  0.
          2    1    3    3  502    0 -0.49279153293E+02  0.34571509975E+01  0.38287349164E+03  0.38604727358E+03  0.00000000000E+00 0. -1.
         -2    1    3    3    0  502  0.49279153293E+02 -0.34571509975E+01  0.43802201247E+03  0.44079890001E+03  0.00000000000E+00 0.  1.
<mgrwt>
<rscale>  0 0.99021039E+02</rscale>
<asrwt>0</asrwt>
<pdfrwt beam="1">  1        1 0.12674918E+00 0.99021039E+02</pdfrwt>
<pdfrwt beam="2">  1       -1 0.45774446E-03 0.99021039E+02</pdfrwt>
<totfact> 0.11317845E+05</totfact>
</mgrwt>
</event>
<event>
 5    1  0.3921687E+001  0.8927362E+02  0.7546771E-02  0.1304620E+00
         -4   -1    0    0    0  501 -0.00000000000E+00  0.00000000000E+00  0.52394969166E+03  0.52394969166E+03  0.00000000000E+00 0.  1.
          4   -1    0    0  501    0  0.00000000000E+00 -0.00000000000E+00 -0.38027405012E+01  0.38027405012E+01  0.00000000000E+00 0. -1.
         23    2    1    2    0    0  0.00000000000E+00  0.00000000000E+00  0.52014695115E+03  0.52775243216E+03  0.89273617896E+02 0.  0.
          2    1    3    3  502    0  0.22590520842E+02 -0.38279592844E+02  0.28429373632E+03  0.28774743677E+03  0.00000000000E+00 0. -1.
         -2    1    3    3    0  502 -0.22590520842E+02  0.38279592844E+02  0.23585321483E+03  0.24000499538E+03  0.00000000000E+00 0.  1.
<mgrwt>
<rscale>  0 0.89273618E+02</rscale>
<asrwt>0</asrwt>
<pdfrwt beam="2">  1        4 0.58503741E-03 0.89273618E+02</pdfrwt>
<pdfrwt beam="1">  1       -4 0.80607588E-01 0.89273618E+02</pdfrwt>
<totfact> 0.13288893E+04</totfact>
</mgrwt>
</event>
<event>
 5    1  0.3921687E+001  0.9636681E+02  0.7546771E-02  0.1288127E+00
         -1   -1    0    0    0  501 -0.00000000000E+00  0.00000000000E+00  0.44678751978E+02  0.44678751978E+02  0.00000000000E+00 0.  1.
          1   -1    0    0  501    0  0.00000000000E+00 -0.00000000000E+00 -0.51962967160E+02  0.51962967160E+02  0.00000000000E+00 0. -1.
         23    2    1    2    0    0  0.00000000000E+00  0.00000000000E+00 -0.72842151815E+01  0.96641719138E+02  0.96366810091E+02 0.  0.
          2    1    3    3  502    0  0.30272515113E+02 -0.34282638861E+02 -0.18848345576E+02  0.49467005463E+02  0.00000000000E+00 0. -1.
         -2    1    3    3    0  502 -0.30272515113E+02  0.34282638861E+02  0.11564130394E+02  0.47174713675E+02  0.00000000000E+00 0.  1.
<mgrwt>
<rscale>  0 0.96366810E+02</rscale>
<asrwt>0</asrwt>
<pdfrwt beam="2">  1        1 0.79943026E-02 0.96366810E+02</pdfrwt>
<pdfrwt beam="1">  1       -1 0.68736542E-02 0.96366810E+02</pdfrwt>
<totfact> 0.80742520E+04</totfact>
</mgrwt>
</event>
<event>
 5    1  0.3921687E+001  0.8869420E+02  0.7546771E-02  0.1306045E+00
         -3   -1    0    0    0  501 -0.00000000000E+00  0.00000000000E+00  0.23329831340E+02  0.23329831340E+02  0.00000000000E+00 0.  1.
          3   -1    0    0  501    0  0.00000000000E+00 -0.00000000000E+00 -0.84298314701E+02  0.84298314701E+02  0.00000000000E+00 0. -1.
         23    2    1    2    0    0  0.00000000000E+00  0.00000000000E+00 -0.60968483360E+02  0.10762814604E+03  0.88694204190E+02 0.  0.
          2    1    3    3  502    0  0.22324886092E+02 -0.10551146404E+02 -0.75184564332E+02  0.79135617412E+02  0.00000000000E+00 0. -1.
         -2    1    3    3    0  502 -0.22324886092E+02  0.10551146404E+02  0.14216080972E+02  0.28492528629E+02  0.00000000000E+00 0.  1.
<mgrwt>
<rscale>  0 0.88694204E+02</rscale>
<asrwt>0</asrwt>
<pdfrwt beam="2">  1        3 0.12968971E-01 0.88694204E+02</pdfrwt>
<pdfrwt beam="1">  1       -3 0.35892048E-02 0.88694204E+02</pdfrwt>
<totfact> 0.36765374E+04</totfact>
</mgrwt>
</event>
<event>
 5    1  0.3921687E+001  0.9064465E+02  0.7546771E-02  0.1301298E+00
          1   -1    0    0  501    0  0.00000000000E+00  0.00000000000E+00  0.57052798611E+03  0.57052798611E+03  0.00000000000E+00 0. -1.
         -1   -1    0    0    0  501 -0.00000000000E+00 -0.00000000000E+00 -0.36003724551E+01  0.36003724551E+01  0.00000000000E+00 0.  1.
         23    2    1    2    0    0  0.00000000000E+00  0.00000000000E+00  0.56692761366E+03  0.57412835857E+03  0.90644652265E+02 0.  0.
          2    1    3    3  502    0 -0.49354846724E+01 -0.32107311671E+02  0.83283046465E+02  0.89394095443E+02  0.00000000000E+00 0.  1.
         -2    1    3    3    0  502  0.49354846724E+01  0.32107311671E+02  0.48364456719E+03  0.48473426312E+03  0.00000000000E+00 0. -1.
<mgrwt>
<rscale>  0 0.90644652E+02</rscale>
<asrwt>0</asrwt>
<pdfrwt beam="1">  1        1 0.87773465E-01 0.90644652E+02</pdfrwt>
<pdfrwt beam="2">  1       -1 0.55390391E-03 0.90644652E+02</pdfrwt>
<totfact> 0.14329844E+05</totfact>
</mgrwt>
</event>
<event>
 5    1  0.3921687E+001  0.9040955E+02  0.7546771E-02  0.1301863E+00
          1   -1    0    0  501    0  0.00000000000E+00  0.00000000000E+00  0.85431451057E+02  0.85431451057E+02  0.00000000000E+00 0. -1.
         -1   -1    0    0    0  501 -0.00000000000E+00 -0.00000000000E+00 -0.23919428670E+02  0.23919428670E+02  0.00000000000E+00 0.  1.
         23    2    1    2    0    0  0.00000000000E+00  0.00000000000E+00  0.61512022387E+02  0.10935087973E+03  0.90409545950E+02 0.  0.
          2    1    3    3  502    0 -0.41843206008E+02  0.11595377133E+02  0.45967193313E+02  0.63232029233E+02  0.00000000000E+00 0. -1.
         -2    1    3    3    0  502  0.41843206008E+02 -0.11595377133E+02  0.15544829074E+02  0.46118850494E+02  0.00000000000E+00 0.  1.
<mgrwt>
<rscale>  0 0.90409546E+02</rscale>
<asrwt>0</asrwt>
<pdfrwt beam="1">  1        1 0.13143300E-01 0.90409546E+02</pdfrwt>
<pdfrwt beam="2">  1       -1 0.36799121E-02 0.90409546E+02</pdfrwt>
<totfact> 0.10418285E+05</totfact>
</mgrwt>
</event>
<event>
 5    1  0.3921687E+001  0.9136672E+02  0.7546771E-02  0.1299575E+00
          4   -1    0    0  501    0  0.00000000000E+00  0.00000000000E+00  0.12672530497E+02  0.12672530497E+02  0.00000000000E+00 0. -1.
         -4   -1    0    0    0  501 -0.00000000000E+00 -0.00000000000E+00 -0.16468451307E+03  0.16468451307E+03  0.00000000000E+00 0.  1.
         23    2    1    2    0    0  0.00000000000E+00  0.00000000000E+00 -0.15201198257E+03  0.17735704356E+03  0.91366722918E+02 0.  0.
          2    1    3    3  502    0  0.40964136102E+02 -0.29807990148E+01 -0.37181715349E+02  0.55402396750E+02  0.00000000000E+00 0. -1.
         -2    1    3    3    0  502 -0.40964136102E+02  0.29807990148E+01 -0.11483026722E+03  0.12195464681E+03  0.00000000000E+00 0.  1.
<mgrwt>
<rscale>  0 0.91366723E+02</rscale>
<asrwt>0</asrwt>
<pdfrwt beam="1">  1        4 0.19496202E-02 0.91366723E+02</pdfrwt>
<pdfrwt beam="2">  1       -4 0.25336077E-01 0.91366723E+02</pdfrwt>
<totfact> 0.22245547E+04</totfact>
</mgrwt>
</event>
<event>
 5    1  0.3921687E+001  0.8933522E+02  0.7546771E-02  0.1304470E+00
         -2   -1    0    0    0  501 -0.00000000000E+00  0.00000000000E+00  0.26667809861E+01  0.26667809861E+01  0.00000000000E+00 0.  1.
          2   -1    0    0  501    0  0.00000000000E+00 -0.00000000000E+00 -0.74816623295E+03  0.74816623295E+03  0.00000000000E+00 0. -1.
         23    2    1    2    0    0  0.00000000000E+00  0.00000000000E+00 -0.74549945197E+03  0.75083301394E+03  0.89335222269E+02 0.  0.
          2    1    3    3  502    0  0.12430291405E+02  0.22618531983E+02 -0.67915559067E+03  0.67964580957E+03  0.00000000000E+00 0. -1.
         -2    1    3    3    0  502 -0.12430291405E+02 -0.22618531983E+02 -0.66343861296E+02  0.71187204364E+02  0.00000000000E+00 0.  1.
<mgrwt>
<rscale>  0 0.89335222E+02</rscale>
<asrwt>0</asrwt>
<pdfrwt beam="2">  1        2 0.11510240E+00 0.89335222E+02</pdfrwt>
<pdfrwt beam="1">  1       -2 0.41027435E-03 0.89335222E+02</pdfrwt>
<totfact> 0.25392073E+05</totfact>
</mgrwt>
</event>
<event>
 5    1  0.3921687E+001  0.9230376E+02  0.7546771E-02  0.1297367E+00
          4   -1    0    0  501    0  0.00000000000E+00  0.00000000000E+00  0.24317464862E+02  0.24317464862E+02  0.00000000000E+00 0. -1.
         -4   -1    0    0    0  501 -0.00000000000E+00 -0.00000000000E+00 -0.87591209481E+02  0.87591209481E+02  0.00000000000E+00 0.  1.
         23    2    1    2    0    0  0.00000000000E+00  0.00000000000E+00 -0.63273744620E+02  0.11190867434E+03  0.92303762843E+02 0.  0.
          2    1    3    3  502    0 -0.16252854495E+02 -0.23549157704E+02 -0.75539623992E+02  0.80777180569E+02  0.00000000000E+00 0. -1.
         -2    1    3    3    0  502  0.16252854495E+02  0.23549157704E+02  0.12265879372E+02  0.31131493774E+02  0.00000000000E+00 0.  1.
<mgrwt>
<rscale>  0 0.92303763E+02</rscale>
<asrwt>0</asrwt>
<pdfrwt beam="1">  1        4 0.37411485E-02 0.92303763E+02</pdfrwt>
<pdfrwt beam="2">  1       -4 0.13475570E-01 0.92303763E+02</pdfrwt>
<totfact> 0.24896550E+04</totfact>
</mgrwt>
</event>
<event>
 5    1  0.3921687E+001  0.8850923E+02  0.7546771E-02  0.1306502E+00
         -1   -1    0    0    0  501 -0.00000000000E+00  0.00000000000E+00  0.13122939645E+02  0.13122939645E+02  0.00000000000E+00 0.  1.
          1   -1    0    0  501    0  0.00000000000E+00 -0.00000000000E+00 -0.14924027280E+03  0.14924027280E+03  0.00000000000E+00 0. -1.
         23    2    1    2    0    0  0.00000000000E+00  0.00000000000E+00 -0.13611733315E+03  0.16236321244E+03  0.88509233250E+02 0.  0.
          2    1    3    3  502    0 -0.80760615728E+00 -0.33677589332E+02 -0.12070491958E+03  0.12531763588E+03  0.00000000000E+00 0. -1.
         -2    1    3    3    0  502  0.80760615728E+00  0.33677589332E+02 -0.15412413569E+02  0.37045576563E+02  0.00000000000E+00 0.  1.
<mgrwt>
<rscale>  0 0.88509233E+02</rscale>
<asrwt>0</asrwt>
<pdfrwt beam="2">  1        1 0.22960042E-01 0.88509233E+02</pdfrwt>
<pdfrwt beam="1">  1       -1 0.20189138E-02 0.88509233E+02</pdfrwt>
<totfact> 0.12134883E+05</totfact>
</mgrwt>
</event>
<event>
 5    1  0.3921687E+001  0.9176539E+02  0.7546771E-02  0.1298632E+00
         -3   -1    0    0    0  501 -0.00000000000E+00  0.00000000000E+00  0.87059122358E+02  0.87059122358E+02  0.00000000000E+00 0.  1.
          3   -1    0    0  501    0  0.00000000000E+00 -0.00000000000E+00 -0.24181517682E+02  0.24181517682E+02  0.00000000000E+00 0. -1.
         23    2    1    2    0    0  0.00000000000E+00  0.00000000000E+00  0.62877604677E+02  0.11124064004E+03  0.91765390135E+02 0.  0.
          2    1    3    3  502    0  0.23990057002E+02 -0.39024466699E+02  0.28280051931E+02  0.53834869493E+02  0.00000000000E+00 0. -1.
         -2    1    3    3    0  502 -0.23990057002E+02  0.39024466699E+02  0.34597552746E+02  0.57405770547E+02  0.00000000000E+00 0.  1.
<mgrwt>
<rscale>  0 0.91765390E+02</rscale>
<asrwt>0</asrwt>
<pdfrwt beam="2">  1        3 0.37202335E-02 0.91765390E+02</pdfrwt>
<pdfrwt beam="1">  1       -3 0.13393711E-01 0.91765390E+02</pdfrwt>
<totfact> 0.33269976E+04</totfact>
</mgrwt>
</event>
<event>
 5    1  0.3921687E+001  0.9257322E+02  0.7546771E-02  0.1296737E+00
         -1   -1    0    0    0  501 -0.00000000000E+00  0.00000000000E+00  0.47897415917E+01  0.47897415917E+01  0.00000000000E+00 0.  1.
          1   -1    0    0  501    0  0.00000000000E+00 -0.00000000000E+00 -0.44729976093E+03  0.44729976093E+03  0.00000000000E+00 0. -1.
         23    2    1    2    0    0  0.00000000000E+00  0.00000000000E+00 -0.44251001934E+03  0.45208950252E+03  0.92573220078E+02 0.  0.
          2    1    3    3  502    0 -0.13146060293E+02  0.24000732729E+02 -0.40356376601E+03  0.40449050337E+03  0.00000000000E+00 0. -1.
         -2    1    3    3    0  502  0.13146060293E+02 -0.24000732729E+02 -0.38946253325E+02  0.47598999158E+02  0.00000000000E+00 0.  1.
<mgrwt>
<rscale>  0 0.92573220E+02</rscale>
<asrwt>0</asrwt>
<pdfrwt beam="2">  1        1 0.68815359E-01 0.92573220E+02</pdfrwt>
<pdfrwt beam="1">  1       -1 0.73688320E-03 0.92573220E+02</pdfrwt>
<totfact> 0.13180984E+05</totfact>
</mgrwt>
</event>
<event>
 5    1  0.3921687E+001  0.8978107E+02  0.7546771E-02  0.1303383E+00
         -2   -1    0    0    0  501 -0.00000000000E+00  0.00000000000E+00  0.12061554038E+01  0.12061554038E+01  0.00000000000E+00 0.  1.
          2   -1    0    0  501    0  0.00000000000E+00 -0.00000000000E+00 -0.16707302035E+04  0.16707302035E+04  0.00000000000E+00 0. -1.
         23    2    1    2    0    0  0.00000000000E+00  0.00000000000E+00 -0.16695240481E+04  0.16719363589E+04  0.89781072912E+02 0.  0.
          2    1    3    3  502    0 -0.39259221723E+02 -0.43448574991E+01 -0.12319890000E+04  0.12326220266E+04  0.00000000000E+00 0. -1.
         -2    1    3    3    0  502  0.39259221723E+02  0.43448574991E+01 -0.43753504811E+03  0.43931433234E+03  0.00000000000E+00 0.  1.
<mgrwt>
<rscale>  0 0.89781073E+02</rscale>
<asrwt>0</asrwt>
<pdfrwt beam="2">  1        2 0.25703575E+00 0.89781073E+02</pdfrwt>
<pdfrwt beam="1">  1       -2 0.18556213E-03 0.89781073E+02</pdfrwt>
<totfact> 0.23380982E+05</totfact>
</mgrwt>
</event>
<event>
 5    1  0.3921687E+001  0.9004822E+02  0.7546771E-02  0.1302735E+00
          2   -1    0    0  501    0  0.00000000000E+00  0.00000000000E+00  0.18592585678E+04  0.18592585678E+04  0.00000000000E+00 0. -1.
         -2   -1    0    0    0  501 -0.00000000000E+00 -0.00000000000E+00 -0.10903111739E+01  0.10903111739E+01  0.00000000000E+00 0.  1.
         23    2    1    2    0    0  0.00000000000E+00  0.00000000000E+00  0.18581682566E+04  0.18603488789E+04  0.90048218008E+02 0.  0.
          2    1    3    3  502    0 -0.34943282080E+02  0.12146701788E+02  0.39889781774E+03  0.40060959090E+03  0.00000000000E+00 0. -1.
         -2    1    3    3    0  502  0.34943282080E+02 -0.12146701788E+02  0.14592704389E+04  0.14597392880E+04  0.00000000000E+00 0.  1.
<mgrwt>
<rscale>  0 0.90048218E+02</rscale>
<asrwt>0</asrwt>
<pdfrwt beam="1">  1        2 0.28603724E+00 0.90048218E+02</pdfrwt>
<pdfrwt beam="2">  1       -2 0.16774167E-03 0.90048218E+02</pdfrwt>
<totfact> 0.21633468E+05</totfact>
</mgrwt>
</event>
<event>
 5    1  0.3921687E+001  0.9212007E+02  0.7546771E-02  0.1297797E+00
         -1   -1    0    0    0  501 -0.00000000000E+00  0.00000000000E+00  0.17273172932E+01  0.17273172932E+01  0.00000000000E+00 0.  1.
          1   -1    0    0  501    0  0.00000000000E+00 -0.00000000000E+00 -0.12282206232E+04  0.12282206232E+04  0.00000000000E+00 0. -1.
         23    2    1    2    0    0  0.00000000000E+00  0.00000000000E+00 -0.12264933059E+04  0.12299479405E+04  0.92120067786E+02 0.  0.
          2    1    3    3  502    0  0.12408625064E+02 -0.41684257873E+02 -0.41077083387E+03  0.41306685813E+03  0.00000000000E+00 0. -1.
         -2    1    3    3    0  502 -0.12408625064E+02  0.41684257873E+02 -0.81572247201E+03  0.81688108233E+03  0.00000000000E+00 0.  1.
<mgrwt>
<rscale>  0 0.92120068E+02</rscale>
<asrwt>0</asrwt>
<pdfrwt beam="2">  1        1 0.18895731E+00 0.92120068E+02</pdfrwt>
<pdfrwt beam="1">  1       -1 0.26574071E-03 0.92120068E+02</pdfrwt>
<totfact> 0.12249194E+05</totfact>
</mgrwt>
</event>
<event>
 5    1  0.3921687E+001  0.9172289E+02  0.7546771E-02  0.1298732E+00
         -1   -1    0    0    0  501 -0.00000000000E+00  0.00000000000E+00  0.95923814826E+00  0.95923814826E+00  0.00000000000E+00 0.  1.
          1   -1    0    0  501    0  0.00000000000E+00 -0.00000000000E+00 -0.21926484366E+04  0.21926484366E+04  0.00000000000E+00 0. -1.
         23    2    1    2    0    0  0.00000000000E+00  0.00000000000E+00 -0.21916891984E+04  0.21936076747E+04  0.91722887571E+02 0.  0.
          2    1    3    3  502    0  0.38874641006E+02  0.16531898212E+02 -0.66887873421E+03  0.67021138639E+03  0.00000000000E+00 0. -1.
         -2    1    3    3    0  502 -0.38874641006E+02 -0.16531898212E+02 -0.15228104642E+04  0.15233962883E+04  0.00000000000E+00 0.  1.
<mgrwt>
<rscale>  0 0.91722888E+02</rscale>
<asrwt>0</asrwt>
<pdfrwt beam="2">  1        1 0.33733042E+00 0.91722888E+02</pdfrwt>
<pdfrwt beam="1">  1       -1 0.14757515E-03 0.91722888E+02</pdfrwt>
<totfact> 0.67425013E+04</totfact>
</mgrwt>
</event>
<event>
 5    1  0.3921687E+001  0.1092826E+03  0.7546771E-02  0.1261904E+00
         -2   -1    0    0    0  501 -0.00000000000E+00  0.00000000000E+00  0.26154529707E+01  0.26154529707E+01  0.00000000000E+00 0.  1.
          2   -1    0    0  501    0  0.00000000000E+00 -0.00000000000E+00 -0.11415496673E+04  0.11415496673E+04  0.00000000000E+00 0. -1.
         23    2    1    2    0    0  0.00000000000E+00  0.00000000000E+00 -0.11389342143E+04  0.11441651203E+04  0.10928255979E+03 0.  0.
          2    1    3    3  502    0 -0.40791996133E+02 -0.27468681482E+02 -0.81880504702E+03  0.82028057422E+03  0.00000000000E+00 0. -1.
         -2    1    3    3    0  502  0.40791996133E+02  0.27468681482E+02 -0.32012916731E+03  0.32388454606E+03  0.00000000000E+00 0.  1.
<mgrwt>
<rscale>  0 0.10928256E+03</rscale>
<asrwt>0</asrwt>
<pdfrwt beam="2">  1        2 0.17562298E+00 0.10928256E+03</pdfrwt>
<pdfrwt beam="1">  1       -2 0.40237749E-03 0.10928256E+03</pdfrwt>
<totfact> 0.15437480E+05</totfact>
</mgrwt>
</event>
<event>
 5    1  0.3921687E+001  0.9235236E+02  0.7546771E-02  0.1297253E+00
         -2   -1    0    0    0  501 -0.00000000000E+00  0.00000000000E+00  0.24573102583E+02  0.24573102583E+02  0.00000000000E+00 0.  1.
          2   -1    0    0  501    0  0.00000000000E+00 -0.00000000000E+00 -0.86771286037E+02  0.86771286037E+02  0.00000000000E+00 0. -1.
         23    2    1    2    0    0  0.00000000000E+00  0.00000000000E+00 -0.62198183454E+02  0.11134438862E+03  0.92352362461E+02 0.  0.
          2    1    3    3  502    0 -0.37539627387E+02  0.22874724489E+02 -0.14058764698E+02  0.46153282762E+02  0.00000000000E+00 0. -1.
         -2    1    3    3    0  502  0.37539627387E+02 -0.22874724489E+02 -0.48139418756E+02  0.65191105858E+02  0.00000000000E+00 0.  1.
<mgrwt>
<rscale>  0 0.92352362E+02</rscale>
<asrwt>0</asrwt>
<pdfrwt beam="2">  1        2 0.13349429E-01 0.92352362E+02</pdfrwt>
<pdfrwt beam="1">  1       -2 0.37804773E-02 0.92352362E+02</pdfrwt>
<totfact> 0.11348163E+05</totfact>
</mgrwt>
</event>
<event>
 5    1  0.3921687E+001  0.8866511E+02  0.7546771E-02  0.1306117E+00
          1   -1    0    0  501    0  0.00000000000E+00  0.00000000000E+00  0.35186688380E+02  0.35186688380E+02  0.00000000000E+00 0. -1.
         -1   -1    0    0    0  501 -0.00000000000E+00 -0.00000000000E+00 -0.55855657705E+02  0.55855657705E+02  0.00000000000E+00 0.  1.
         23    2    1    2    0    0  0.00000000000E+00  0.00000000000E+00 -0.20668969324E+02  0.91042346085E+02  0.88665114265E+02 0.  0.
          2    1    3    3  502    0 -0.30073824212E+02 -0.32164272303E+02 -0.50586017824E+01  0.44323411055E+02  0.00000000000E+00 0. -1.
         -2    1    3    3    0  502  0.30073824212E+02  0.32164272303E+02 -0.15610367542E+02  0.46718935030E+02  0.00000000000E+00 0.  1.
<mgrwt>
<rscale>  0 0.88665114E+02</rscale>
<asrwt>0</asrwt>
<pdfrwt beam="1">  1        1 0.54133367E-02 0.88665114E+02</pdfrwt>
<pdfrwt beam="2">  1       -1 0.85931780E-02 0.88665114E+02</pdfrwt>
<totfact> 0.96222704E+04</totfact>
</mgrwt>
</event>
<event>
 5    1  0.3921687E+001  0.8970862E+02  0.7546771E-02  0.1303559E+00
          1   -1    0    0  501    0  0.00000000000E+00  0.00000000000E+00  0.23583270255E+02  0.23583270255E+02  0.00000000000E+00 0. -1.
         -1   -1    0    0    0  501 -0.00000000000E+00 -0.00000000000E+00 -0.85310860482E+02  0.85310860482E+02  0.00000000000E+00 0.  1.
         23    2    1    2    0    0  0.00000000000E+00  0.00000000000E+00 -0.61727590227E+02  0.10889413074E+03  0.89708618948E+02 0.  0.
          2    1    3    3  502    0 -0.17734646295E+01 -0.26988423047E+02  0.12571347896E+02  0.29825474737E+02  0.00000000000E+00 0. -1.
         -2    1    3    3    0  502  0.17734646295E+01  0.26988423047E+02 -0.74298938123E+02  0.79068656000E+02  0.00000000000E+00 0.  1.
<mgrwt>
<rscale>  0 0.89708619E+02</rscale>
<asrwt>0</asrwt>
<pdfrwt beam="1">  1        1 0.36281954E-02 0.89708619E+02</pdfrwt>
<pdfrwt beam="2">  1       -1 0.13124748E-01 0.89708619E+02</pdfrwt>
<totfact> 0.87279715E+04</totfact>
</mgrwt>
</event>
<event>
 5    1  0.3921687E+001  0.8804482E+02  0.7546771E-02  0.1307657E+00
         -3   -1    0    0    0  501 -0.00000000000E+00  0.00000000000E+00  0.10586513070E+03  0.10586513070E+03  0.00000000000E+00 0.  1.
          3   -1    0    0  501    0  0.00000000000E+00 -0.00000000000E+00 -0.18306053853E+02  0.18306053853E+02  0.00000000000E+00 0. -1.
         23    2    1    2    0    0  0.00000000000E+00  0.00000000000E+00  0.87559076842E+02  0.12417118455E+03  0.88044824577E+02 0.  0.
          2    1    3    3  502    0  0.42448011923E+02  0.24228346073E+01  0.27682816877E+02  0.50735019405E+02  0.00000000000E+00 0. -1.
         -2    1    3    3    0  502 -0.42448011923E+02 -0.24228346073E+01  0.59876259965E+02  0.73436165144E+02  0.00000000000E+00 0.  1.
<mgrwt>
<rscale>  0 0.88044825E+02</rscale>
<asrwt>0</asrwt>
<pdfrwt beam="2">  1        3 0.28163161E-02 0.88044825E+02</pdfrwt>
<pdfrwt beam="1">  1       -3 0.16286943E-01 0.88044825E+02</pdfrwt>
<totfact> 0.36234296E+04</totfact>
</mgrwt>
</event>
<event>
 5    1  0.3921687E+001  0.9043027E+02  0.7546771E-02  0.1301813E+00
          3   -1    0    0  501    0  0.00000000000E+00  0.00000000000E+00  0.38742340422E+02  0.38742340422E+02  0.00000000000E+00 0.  1.
         -3   -1    0    0    0  501 -0.00000000000E+00 -0.00000000000E+00 -0.52769359883E+02  0.52769359883E+02  0.00000000000E+00 0. -1.
         23    2    1    2    0    0  0.00000000000E+00  0.00000000000E+00 -0.14027019461E+02  0.91511700305E+02  0.90430271578E+02 0.  0.
          2    1    3    3  502    0  0.33460099353E+02 -0.79660579747E+01 -0.36713630080E+02  0.50308319014E+02  0.00000000000E+00 0. -1.
         -2    1    3    3    0  502 -0.33460099353E+02  0.79660579747E+01  0.22686610619E+02  0.41203381290E+02  0.00000000000E+00 0.  1.
<mgrwt>
<rscale>  0 0.90430272E+02</rscale>
<asrwt>0</asrwt>
<pdfrwt beam="1">  1        3 0.59603601E-02 0.90430272E+02</pdfrwt>
<pdfrwt beam="2">  1       -3 0.81183630E-02 0.90430272E+02</pdfrwt>
<totfact> 0.36112302E+04</totfact>
</mgrwt>
</event>
<event>
 5    1  0.3921687E+001  0.7834260E+02  0.7546771E-02  0.1333822E+00
          1   -1    0    0  501    0  0.00000000000E+00  0.00000000000E+00  0.16357397574E+03  0.16357397574E+03  0.00000000000E+00 0. -1.
         -1   -1    0    0    0  501 -0.00000000000E+00 -0.00000000000E+00 -0.93804083695E+01  0.93804083695E+01  0.00000000000E+00 0.  1.
         23    2    1    2    0    0  0.00000000000E+00  0.00000000000E+00  0.15419356737E+03  0.17295438411E+03  0.78342598657E+02 0.  0.
          2    1    3    3  502    0  0.17663049873E+02  0.16620886303E+02  0.91898060132E+01  0.25936262777E+02  0.00000000000E+00 0.  1.
         -2    1    3    3    0  502 -0.17663049873E+02 -0.16620886303E+02  0.14500376136E+03  0.14701812133E+03  0.00000000000E+00 0. -1.
<mgrwt>
<rscale>  0 0.78342599E+02</rscale>
<asrwt>0</asrwt>
<pdfrwt beam="1">  1        1 0.25165225E-01 0.78342599E+02</pdfrwt>
<pdfrwt beam="2">  1       -1 0.14431399E-02 0.78342599E+02</pdfrwt>
<totfact> 0.17080633E+05</totfact>
</mgrwt>
</event>
<event>
 5    1  0.3921687E+001  0.9090406E+02  0.7546771E-02  0.1300677E+00
         -1   -1    0    0    0  501 -0.00000000000E+00  0.00000000000E+00  0.18541088713E+02  0.18541088713E+02  0.00000000000E+00 0.  1.
          1   -1    0    0  501    0  0.00000000000E+00 -0.00000000000E+00 -0.11142209568E+03  0.11142209568E+03  0.00000000000E+00 0. -1.
         23    2    1    2    0    0  0.00000000000E+00  0.00000000000E+00 -0.92881006965E+02  0.12996318439E+03  0.90904058448E+02 0.  0.
          2    1    3    3  502    0 -0.30147539970E+02 -0.58398147862E+01  0.14676488262E+01  0.30742992633E+02  0.00000000000E+00 0.  1.
         -2    1    3    3    0  502  0.30147539970E+02  0.58398147862E+01 -0.94348655791E+02  0.99220191758E+02  0.00000000000E+00 0. -1.
<mgrwt>
<rscale>  0 0.90904058E+02</rscale>
<asrwt>0</asrwt>
<pdfrwt beam="2">  1        1 0.17141861E-01 0.90904058E+02</pdfrwt>
<pdfrwt beam="1">  1       -1 0.28524752E-02 0.90904058E+02</pdfrwt>
<totfact> 0.10724166E+05</totfact>
</mgrwt>
</event>
<event>
 5    1  0.3921687E+001  0.9293879E+02  0.7546771E-02  0.1295887E+00
         -2   -1    0    0    0  501 -0.00000000000E+00  0.00000000000E+00  0.52391662086E+01  0.52391662086E+01  0.00000000000E+00 0.  1.
          2   -1    0    0  501    0  0.00000000000E+00 -0.00000000000E+00 -0.41216572024E+03  0.41216572024E+03  0.00000000000E+00 0. -1.
         23    2    1    2    0    0  0.00000000000E+00  0.00000000000E+00 -0.40692655403E+03  0.41740488645E+03  0.92938790907E+02 0.  0.
          2    1    3    3  502    0 -0.73387372409E+00 -0.36026250047E+02 -0.33524521650E+03  0.33717619200E+03  0.00000000000E+00 0. -1.
         -2    1    3    3    0  502  0.73387372409E+00  0.36026250047E+02 -0.71681337526E+02  0.80228694447E+02  0.00000000000E+00 0.  1.
<mgrwt>
<rscale>  0 0.92938791E+02</rscale>
<asrwt>0</asrwt>
<pdfrwt beam="2">  1        2 0.63410138E-01 0.92938791E+02</pdfrwt>
<pdfrwt beam="1">  1       -2 0.80602523E-03 0.92938791E+02</pdfrwt>
<totfact> 0.19175809E+05</totfact>
</mgrwt>
</event>
<event>
 5    1  0.3921687E+001  0.9694129E+02  0.7546771E-02  0.1286863E+00
          4   -1    0    0  501    0  0.00000000000E+00  0.00000000000E+00  0.82655005062E+02  0.82655005062E+02  0.00000000000E+00 0. -1.
         -4   -1    0    0    0  501 -0.00000000000E+00 -0.00000000000E+00 -0.28424212782E+02  0.28424212782E+02  0.00000000000E+00 0.  1.
         23    2    1    2    0    0  0.00000000000E+00  0.00000000000E+00  0.54230792280E+02  0.11107921784E+03  0.96941290509E+02 0.  0.
          2    1    3    3  502    0 -0.44321465572E+02  0.61169340688E+00  0.49587799931E+02  0.66511024509E+02  0.00000000000E+00 0. -1.
         -2    1    3    3    0  502  0.44321465572E+02 -0.61169340688E+00  0.46429923490E+01  0.44568193335E+02  0.00000000000E+00 0.  1.
<mgrwt>
<rscale>  0 0.96941291E+02</rscale>
<asrwt>0</asrwt>
<pdfrwt beam="1">  1        4 0.12716155E-01 0.96941291E+02</pdfrwt>
<pdfrwt beam="2">  1       -4 0.43729558E-02 0.96941291E+02</pdfrwt>
<totfact> 0.21826941E+04</totfact>
</mgrwt>
</event>
<event>
 5    1  0.3921687E+001  0.9170627E+02  0.7546771E-02  0.1298772E+00
         -1   -1    0    0    0  501 -0.00000000000E+00  0.00000000000E+00  0.10278622518E+02  0.10278622518E+02  0.00000000000E+00 0.  1.
          1   -1    0    0  501    0  0.00000000000E+00 -0.00000000000E+00 -0.20455173090E+03  0.20455173090E+03  0.00000000000E+00 0. -1.
         23    2    1    2    0    0  0.00000000000E+00  0.00000000000E+00 -0.19427310838E+03  0.21483035342E+03  0.91706270831E+02 0.  0.
          2    1    3    3  502    0  0.65300613398E+01  0.29999716351E+02 -0.17691841106E+03  0.17956265997E+03  0.00000000000E+00 0. -1.
         -2    1    3    3    0  502 -0.65300613398E+01 -0.29999716351E+02 -0.17354697320E+02  0.35267693451E+02  0.00000000000E+00 0.  1.
<mgrwt>
<rscale>  0 0.91706271E+02</rscale>
<asrwt>0</asrwt>
<pdfrwt beam="2">  1        1 0.31469497E-01 0.91706271E+02</pdfrwt>
<pdfrwt beam="1">  1       -1 0.15813266E-02 0.91706271E+02</pdfrwt>
<totfact> 0.11709086E+05</totfact>
</mgrwt>
</event>
<event>
 5    1  0.3921687E+001  0.9392249E+02  0.7546771E-02  0.1293622E+00
         -3   -1    0    0    0  501 -0.00000000000E+00  0.00000000000E+00  0.17358688217E+02  0.17358688217E+02  0.00000000000E+00 0.  1.
          3   -1    0    0  501    0  0.00000000000E+00 -0.00000000000E+00 -0.12704639323E+03  0.12704639323E+03  0.00000000000E+00 0. -1.
         23    2    1    2    0    0  0.00000000000E+00  0.00000000000E+00 -0.10968770501E+03  0.14440508144E+03  0.93922494199E+02 0.  0.
          2    1    3    3  502    0 -0.25352967223E+02  0.21183696141E+02 -0.10615640749E+03  0.11117870651E+03  0.00000000000E+00 0. -1.
         -2    1    3    3    0  502  0.25352967223E+02 -0.21183696141E+02 -0.35312975172E+01  0.33226374936E+02  0.00000000000E+00 0.  1.
<mgrwt>
<rscale>  0 0.93922494E+02</rscale>
<asrwt>0</asrwt>
<pdfrwt beam="2">  1        3 0.19545599E-01 0.93922494E+02</pdfrwt>
<pdfrwt beam="1">  1       -3 0.26705674E-02 0.93922494E+02</pdfrwt>
<totfact> 0.29200585E+04</totfact>
</mgrwt>
</event>
<event>
 5    1  0.3921687E+001  0.8997370E+02  0.7546771E-02  0.1302915E+00
         -2   -1    0    0    0  501 -0.00000000000E+00  0.00000000000E+00  0.50884919306E+00  0.50884919306E+00  0.00000000000E+00 0.  1.
          2   -1    0    0  501    0  0.00000000000E+00 -0.00000000000E+00 -0.39772423810E+04  0.39772423810E+04  0.00000000000E+00 0. -1.
         23    2    1    2    0    0  0.00000000000E+00  0.00000000000E+00 -0.39767335318E+04  0.39777512302E+04  0.89973697850E+02 0.  0.
          2    1    3    3  502    0  0.44255064571E+02 -0.78926132575E+01 -0.20651002642E+04  0.20655894813E+04  0.00000000000E+00 0. -1.
         -2    1    3    3    0  502 -0.44255064571E+02  0.78926132575E+01 -0.19116332677E+04  0.19121617489E+04  0.00000000000E+00 0.  1.
<mgrwt>
<rscale>  0 0.89973698E+02</rscale>
<asrwt>0</asrwt>
<pdfrwt beam="2">  1        2 0.61191861E+00 0.89973698E+02</pdfrwt>
<pdfrwt beam="1">  1       -2 0.78279992E-04 0.89973698E+02</pdfrwt>
<totfact> 0.36766289E+04</totfact>
</mgrwt>
</event>
<event>
 5    1  0.3921687E+001  0.9118680E+02  0.7546771E-02  0.1300003E+00
          1   -1    0    0  501    0  0.00000000000E+00  0.00000000000E+00  0.19269935207E+03  0.19269935207E+03  0.00000000000E+00 0. -1.
         -1   -1    0    0    0  501 -0.00000000000E+00 -0.00000000000E+00 -0.10787571828E+02  0.10787571828E+02  0.00000000000E+00 0.  1.
         23    2    1    2    0    0  0.00000000000E+00  0.00000000000E+00  0.18191178024E+03  0.20348692389E+03  0.91186799521E+02 0.  0.
          2    1    3    3  502    0  0.39524733764E+02 -0.21570712022E+02  0.74979268071E+02  0.87460795999E+02  0.00000000000E+00 0. -1.
         -2    1    3    3    0  502 -0.39524733764E+02  0.21570712022E+02  0.10693251217E+03  0.11602612790E+03  0.00000000000E+00 0.  1.
<mgrwt>
<rscale>  0 0.91186800E+02</rscale>
<asrwt>0</asrwt>
<pdfrwt beam="1">  1        1 0.29646052E-01 0.91186800E+02</pdfrwt>
<pdfrwt beam="2">  1       -1 0.16596266E-02 0.91186800E+02</pdfrwt>
<totfact> 0.11752237E+05</totfact>
</mgrwt>
</event>
<event>
 5    1  0.3921687E+001  0.9153451E+02  0.7546771E-02  0.1299178E+00
         -2   -1    0    0    0  501 -0.00000000000E+00  0.00000000000E+00  0.93107852615E+02  0.93107852615E+02  0.00000000000E+00 0.  1.
          2   -1    0    0  501    0  0.00000000000E+00 -0.00000000000E+00 -0.22496936185E+02  0.22496936185E+02  0.00000000000E+00 0. -1.
         23    2    1    2    0    0  0.00000000000E+00  0.00000000000E+00  0.70610916430E+02  0.11560478880E+03  0.91534505375E+02 0.  0.
          2    1    3    3  502    0  0.15579325415E+02  0.17312189931E+02 -0.14452986827E+02  0.27410146457E+02  0.00000000000E+00 0. -1.
         -2    1    3    3    0  502 -0.15579325415E+02 -0.17312189931E+02  0.85063903256E+02  0.88194642342E+02  0.00000000000E+00 0.  1.
<mgrwt>
<rscale>  0 0.91534505E+02</rscale>
<asrwt>0</asrwt>
<pdfrwt beam="2">  1        2 0.34610672E-02 0.91534505E+02</pdfrwt>
<pdfrwt beam="1">  1       -2 0.14324285E-01 0.91534505E+02</pdfrwt>
<totfact> 0.80713595E+04</totfact>
</mgrwt>
</event>
<event>
 5    1  0.3921687E+001  0.8913603E+02  0.7546771E-02  0.1304958E+00
         -1   -1    0    0    0  501 -0.00000000000E+00  0.00000000000E+00  0.29306073821E+01  0.29306073821E+01  0.00000000000E+00 0.  1.
          1   -1    0    0  501    0  0.00000000000E+00 -0.00000000000E+00 -0.67778025871E+03  0.67778025871E+03  0.00000000000E+00 0. -1.
         23    2    1    2    0    0  0.00000000000E+00  0.00000000000E+00 -0.67484965133E+03  0.68071086609E+03  0.89136027051E+02 0.  0.
          2    1    3    3  502    0 -0.37590965072E+02  0.23756530652E+02 -0.31470057276E+03  0.31782684578E+03  0.00000000000E+00 0. -1.
         -2    1    3    3    0  502  0.37590965072E+02 -0.23756530652E+02 -0.36014907857E+03  0.36288402031E+03  0.00000000000E+00 0.  1.
<mgrwt>
<rscale>  0 0.89136027E+02</rscale>
<asrwt>0</asrwt>
<pdfrwt beam="2">  1        1 0.10427389E+00 0.89136027E+02</pdfrwt>
<pdfrwt beam="1">  1       -1 0.45086264E-03 0.89136027E+02</pdfrwt>
<totfact> 0.15094286E+05</totfact>
</mgrwt>
</event>
<event>
 5    1  0.3921687E+001  0.9342148E+02  0.7546771E-02  0.1294771E+00
          1   -1    0    0  501    0  0.00000000000E+00  0.00000000000E+00  0.16370850393E+04  0.16370850393E+04  0.00000000000E+00 0. -1.
         -1   -1    0    0    0  501 -0.00000000000E+00 -0.00000000000E+00 -0.13327916787E+01  0.13327916787E+01  0.00000000000E+00 0.  1.
         23    2    1    2    0    0  0.00000000000E+00  0.00000000000E+00  0.16357522476E+04  0.16384178310E+04  0.93421481849E+02 0.  0.
          2    1    3    3  502    0 -0.11778365275E+02  0.38558218812E+02  0.12315728522E+04  0.12322325902E+04  0.00000000000E+00 0. -1.
         -2    1    3    3    0  502  0.11778365275E+02 -0.38558218812E+02  0.40417939547E+03  0.40618524081E+03  0.00000000000E+00 0.  1.
<mgrwt>
<rscale>  0 0.93421482E+02</rscale>
<asrwt>0</asrwt>
<pdfrwt beam="1">  1        1 0.25185763E+00 0.93421482E+02</pdfrwt>
<pdfrwt beam="2">  1       -1 0.20504618E-03 0.93421482E+02</pdfrwt>
<totfact> 0.95732315E+04</totfact>
</mgrwt>
</event>
<event>
 5    1  0.3921687E+001  0.9171108E+02  0.7546771E-02  0.1298760E+00
         -2   -1    0    0    0  501 -0.00000000000E+00  0.00000000000E+00  0.74275841591E+00  0.74275841591E+00  0.00000000000E+00 0.  1.
          2   -1    0    0  501    0  0.00000000000E+00 -0.00000000000E+00 -0.28309748444E+04  0.28309748444E+04  0.00000000000E+00 0. -1.
         23    2    1    2    0    0  0.00000000000E+00  0.00000000000E+00 -0.28302320860E+04  0.28317176028E+04  0.91711076560E+02 0.  0.
          2    1    3    3  502    0  0.28603054070E+02  0.25454572724E+02 -0.21941960751E+04  0.21945301287E+04  0.00000000000E+00 0. -1.
         -2    1    3    3    0  502 -0.28603054070E+02 -0.25454572724E+02 -0.63603601091E+03  0.63718747410E+03  0.00000000000E+00 0.  1.
<mgrwt>
<rscale>  0 0.91711077E+02</rscale>
<asrwt>0</asrwt>
<pdfrwt beam="2">  1        2 0.43554009E+00 0.91711077E+02</pdfrwt>
<pdfrwt beam="1">  1       -2 0.11426908E-03 0.91711077E+02</pdfrwt>
<totfact> 0.11522032E+05</totfact>
</mgrwt>
</event>
<event>
 5    1  0.3921687E+001  0.9206073E+02  0.7546771E-02  0.1297937E+00
         -2   -1    0    0    0  501 -0.00000000000E+00  0.00000000000E+00  0.30030164530E+01  0.30030164530E+01  0.00000000000E+00 0.  1.
          2   -1    0    0  501    0  0.00000000000E+00 -0.00000000000E+00 -0.70555548319E+03  0.70555548319E+03  0.00000000000E+00 0. -1.
         23    2    1    2    0    0  0.00000000000E+00  0.00000000000E+00 -0.70255246674E+03  0.70855849964E+03  0.92060734833E+02 0.  0.
          2    1    3    3  502    0  0.26655865660E+02  0.33383639360E+02 -0.48319949680E+03  0.48508427748E+03  0.00000000000E+00 0. -1.
         -2    1    3    3    0  502 -0.26655865660E+02 -0.33383639360E+02 -0.21935296994E+03  0.22347422217E+03  0.00000000000E+00 0.  1.
<mgrwt>
<rscale>  0 0.92060735E+02</rscale>
<asrwt>0</asrwt>
<pdfrwt beam="2">  1        2 0.10854701E+00 0.92060735E+02</pdfrwt>
<pdfrwt beam="1">  1       -2 0.46200246E-03 0.92060735E+02</pdfrwt>
<totfact> 0.23160390E+05</totfact>
</mgrwt>
</event>
<event>
 5    1  0.3921687E+001  0.8854769E+02  0.7546771E-02  0.1306407E+00
          4   -1    0    0  501    0  0.00000000000E+00  0.00000000000E+00  0.45126896144E+02  0.45126896144E+02  0.00000000000E+00 0. -1.
         -4   -1    0    0    0  501 -0.00000000000E+00 -0.00000000000E+00 -0.43436920943E+02  0.43436920943E+02  0.00000000000E+00 0.  1.
         23    2    1    2    0    0  0.00000000000E+00  0.00000000000E+00  0.16899752009E+01  0.88563817087E+02  0.88547691561E+02 0.  0.
          2    1    3    3  502    0 -0.42689395112E+02 -0.33145123256E+01 -0.10417745723E+02  0.44066993010E+02  0.00000000000E+00 0. -1.
         -2    1    3    3    0  502  0.42689395112E+02  0.33145123256E+01  0.12107720924E+02  0.44496824077E+02  0.00000000000E+00 0.  1.
<mgrwt>
<rscale>  0 0.88547692E+02</rscale>
<asrwt>0</asrwt>
<pdfrwt beam="1">  1        4 0.69425994E-02 0.88547692E+02</pdfrwt>
<pdfrwt beam="2">  1       -4 0.66826032E-02 0.88547692E+02</pdfrwt>
<totfact> 0.29425513E+04</totfact>
</mgrwt>
</event>
<event>
 5    1  0.3921687E+001  0.8122656E+02  0.7546771E-02  0.1325606E+00
         -1   -1    0    0    0  501 -0.00000000000E+00  0.00000000000E+00  0.33747101618E+02  0.33747101618E+02  0.00000000000E+00 0.  1.
          1   -1    0    0  501    0  0.00000000000E+00 -0.00000000000E+00 -0.48876452810E+02  0.48876452810E+02  0.00000000000E+00 0. -1.
         23    2    1    2    0    0  0.00000000000E+00  0.00000000000E+00 -0.15129351192E+02  0.82623554428E+02  0.81226562643E+02 0.  0.
          2    1    3    3  502    0 -0.88765089938E+01  0.39627491782E+02 -0.81292921702E+01  0.41415165194E+02  0.00000000000E+00 0. -1.
         -2    1    3    3    0  502  0.88765089938E+01 -0.39627491782E+02 -0.70000590222E+01  0.41208389233E+02  0.00000000000E+00 0.  1.
<mgrwt>
<rscale>  0 0.81226563E+02</rscale>
<asrwt>0</asrwt>
<pdfrwt beam="2">  1        1 0.75194542E-02 0.81226563E+02</pdfrwt>
<pdfrwt beam="1">  1       -1 0.51918618E-02 0.81226563E+02</pdfrwt>
<totfact> 0.12870723E+05</totfact>
</mgrwt>
</event>
<event>
 5    1  0.3921687E+001  0.9434615E+02  0.7546771E-02  0.1292656E+00
          1   -1    0    0  501    0  0.00000000000E+00  0.00000000000E+00  0.16432827402E+03  0.16432827402E+03  0.00000000000E+00 0. -1.
         -1   -1    0    0    0  501 -0.00000000000E+00 -0.00000000000E+00 -0.13541788923E+02  0.13541788923E+02  0.00000000000E+00 0.  1.
         23    2    1    2    0    0  0.00000000000E+00  0.00000000000E+00  0.15078648509E+03  0.17787006294E+03  0.94346145674E+02 0.  0.
          2    1    3    3  502    0  0.17528905334E+02  0.13357545937E+02  0.15402625685E+03  0.15559490465E+03  0.00000000000E+00 0. -1.
         -2    1    3    3    0  502 -0.17528905334E+02 -0.13357545937E+02 -0.32397717538E+01  0.22275158287E+02  0.00000000000E+00 0.  1.
<mgrwt>
<rscale>  0 0.94346146E+02</rscale>
<asrwt>0</asrwt>
<pdfrwt beam="1">  1        1 0.25281272E-01 0.94346146E+02</pdfrwt>
<pdfrwt beam="2">  1       -1 0.20833523E-02 0.94346146E+02</pdfrwt>
<totfact> 0.10399711E+05</totfact>
</mgrwt>
</event>
<event>
 5    1  0.3921687E+001  0.8975096E+02  0.7546771E-02  0.1303456E+00
         -2   -1    0    0    0  501 -0.00000000000E+00  0.00000000000E+00  0.39585303177E+01  0.39585303177E+01  0.00000000000E+00 0.  1.
          2   -1    0    0  501    0  0.00000000000E+00 -0.00000000000E+00 -0.50872635655E+03  0.50872635655E+03  0.00000000000E+00 0. -1.
         23    2    1    2    0    0  0.00000000000E+00  0.00000000000E+00 -0.50476782623E+03  0.51268488686E+03  0.89750960013E+02 0.  0.
          2    1    3    3  502    0 -0.39399072772E+02 -0.49749723720E+01 -0.37176582210E+03  0.37388081492E+03  0.00000000000E+00 0. -1.
         -2    1    3    3    0  502  0.39399072772E+02  0.49749723720E+01 -0.13300200413E+03  0.13880407194E+03  0.00000000000E+00 0.  1.
<mgrwt>
<rscale>  0 0.89750960E+02</rscale>
<asrwt>0</asrwt>
<pdfrwt beam="2">  1        2 0.78265575E-01 0.89750960E+02</pdfrwt>
<pdfrwt beam="1">  1       -2 0.60900481E-03 0.89750960E+02</pdfrwt>
<totfact> 0.22592397E+05</totfact>
</mgrwt>
</event>
<event>
 5    1  0.3921687E+001  0.8555434E+02  0.7546771E-02  0.1313989E+00
         -1   -1    0    0    0  501 -0.00000000000E+00  0.00000000000E+00  0.18792265058E+02  0.18792265058E+02  0.00000000000E+00 0.  1.
          1   -1    0    0  501    0  0.00000000000E+00 -0.00000000000E+00 -0.97374448451E+02  0.97374448451E+02  0.00000000000E+00 0. -1.
         23    2    1    2    0    0  0.00000000000E+00  0.00000000000E+00 -0.78582183394E+02  0.11616671351E+03  0.85554344019E+02 0.  0.
          2    1    3    3  502    0  0.14457760778E+02 -0.40204930936E+02 -0.42146737468E+02  0.60015088082E+02  0.00000000000E+00 0. -1.
         -2    1    3    3    0  502 -0.14457760778E+02  0.40204930936E+02 -0.36435445925E+02  0.56151625427E+02  0.00000000000E+00 0.  1.
<mgrwt>
<rscale>  0 0.85554344E+02</rscale>
<asrwt>0</asrwt>
<pdfrwt beam="2">  1        1 0.14980684E-01 0.85554344E+02</pdfrwt>
<pdfrwt beam="1">  1       -1 0.28911177E-02 0.85554344E+02</pdfrwt>
<totfact> 0.12360772E+05</totfact>
</mgrwt>
</event>
<event>
 5    1  0.3921687E+001  0.9096146E+02  0.7546771E-02  0.1300540E+00
         -1   -1    0    0    0  501 -0.00000000000E+00  0.00000000000E+00  0.56957735690E+01  0.56957735690E+01  0.00000000000E+00 0.  1.
          1   -1    0    0  501    0  0.00000000000E+00 -0.00000000000E+00 -0.36316345990E+03  0.36316345990E+03  0.00000000000E+00 0. -1.
         23    2    1    2    0    0  0.00000000000E+00  0.00000000000E+00 -0.35746768633E+03  0.36885923347E+03  0.90961460765E+02 0.  0.
          2    1    3    3  502    0 -0.57508643537E+01  0.27522546508E+02 -0.32369692612E+03  0.32491577830E+03  0.00000000000E+00 0. -1.
         -2    1    3    3    0  502  0.57508643537E+01 -0.27522546508E+02 -0.33770760207E+02  0.43943455168E+02  0.00000000000E+00 0.  1.
<mgrwt>
<rscale>  0 0.90961461E+02</rscale>
<asrwt>0</asrwt>
<pdfrwt beam="2">  1        1 0.55871311E-01 0.90961461E+02</pdfrwt>
<pdfrwt beam="1">  1       -1 0.87627271E-03 0.90961461E+02</pdfrwt>
<totfact> 0.13353189E+05</totfact>
</mgrwt>
</event>
<event>
 5    1  0.3921687E+001  0.1111676E+03  0.7546771E-02  0.1258423E+00
          2   -1    0    0  501    0  0.00000000000E+00  0.00000000000E+00  0.66540891337E+02  0.66540891337E+02  0.00000000000E+00 0. -1.
         -2   -1    0    0    0  501 -0.00000000000E+00 -0.00000000000E+00 -0.46430981829E+02  0.46430981829E+02  0.00000000000E+00 0.  1.
         23    2    1    2    0    0  0.00000000000E+00  0.00000000000E+00  0.20109909508E+02  0.11297187317E+03  0.11116760169E+03 0.  0.
          2    1    3    3  502    0 -0.17410222198E+02  0.47061568354E+02  0.34352248558E+02  0.60811051906E+02  0.00000000000E+00 0. -1.
         -2    1    3    3    0  502  0.17410222198E+02 -0.47061568354E+02 -0.14242339050E+02  0.52160821260E+02  0.00000000000E+00 0.  1.
<mgrwt>
<rscale>  0 0.11116760E+03</rscale>
<asrwt>0</asrwt>
<pdfrwt beam="1">  1        2 0.10237060E-01 0.11116760E+03</pdfrwt>
<pdfrwt beam="2">  1       -2 0.71432280E-02 0.11116760E+03</pdfrwt>
<totfact> 0.61911403E+04</totfact>
</mgrwt>
</event>
<event>
 5    1  0.3921687E+001  0.9171867E+02  0.7546771E-02  0.1298742E+00
         -1   -1    0    0    0  501 -0.00000000000E+00  0.00000000000E+00  0.34399366313E+01  0.34399366313E+01  0.00000000000E+00 0.  1.
          1   -1    0    0  501    0  0.00000000000E+00 -0.00000000000E+00 -0.61137128563E+03  0.61137128563E+03  0.00000000000E+00 0. -1.
         23    2    1    2    0    0  0.00000000000E+00  0.00000000000E+00 -0.60793134900E+03  0.61481122226E+03  0.91718667255E+02 0.  0.
          2    1    3    3  502    0 -0.34072834851E+02  0.21235925635E+02 -0.45252287935E+03  0.45430042807E+03  0.00000000000E+00 0. -1.
         -2    1    3    3    0  502  0.34072834851E+02 -0.21235925635E+02 -0.15540846965E+03  0.16051079419E+03  0.00000000000E+00 0.  1.
<mgrwt>
<rscale>  0 0.91718667E+02</rscale>
<asrwt>0</asrwt>
<pdfrwt beam="2">  1        1 0.94057068E-01 0.91718667E+02</pdfrwt>
<pdfrwt beam="1">  1       -1 0.52922131E-03 0.91718667E+02</pdfrwt>
<totfact> 0.13953013E+05</totfact>
</mgrwt>
</event>
<event>
 5    1  0.3921687E+001  0.9989493E+02  0.7546771E-02  0.1280517E+00
         -2   -1    0    0    0  501 -0.00000000000E+00  0.00000000000E+00  0.21995210123E+01  0.21995210123E+01  0.00000000000E+00 0.  1.
          2   -1    0    0  501    0  0.00000000000E+00 -0.00000000000E+00 -0.11342238644E+04  0.11342238644E+04  0.00000000000E+00 0. -1.
         23    2    1    2    0    0  0.00000000000E+00  0.00000000000E+00 -0.11320243434E+04  0.11364233854E+04  0.99894929250E+02 0.  0.
          2    1    3    3  502    0 -0.24775555620E+02 -0.41258863113E+02 -0.71805663577E+03  0.71966759974E+03  0.00000000000E+00 0. -1.
         -2    1    3    3    0  502  0.24775555620E+02  0.41258863113E+02 -0.41396770765E+03  0.41675578570E+03  0.00000000000E+00 0.  1.
<mgrwt>
<rscale>  0 0.99894929E+02</rscale>
<asrwt>0</asrwt>
<pdfrwt beam="2">  1        2 0.17449591E+00 0.99894929E+02</pdfrwt>
<pdfrwt beam="1">  1       -2 0.33838798E-03 0.99894929E+02</pdfrwt>
<totfact> 0.19625028E+05</totfact>
</mgrwt>
</event>
<event>
 5    1  0.3921687E+001  0.8735555E+02  0.7546771E-02  0.1309385E+00
         -2   -1    0    0    0  501 -0.00000000000E+00  0.00000000000E+00  0.54455086529E+02  0.54455086529E+02  0.00000000000E+00 0.  1.
          2   -1    0    0  501    0  0.00000000000E+00 -0.00000000000E+00 -0.35033420180E+02  0.35033420180E+02  0.00000000000E+00 0. -1.
         23    2    1    2    0    0  0.00000000000E+00  0.00000000000E+00  0.19421666348E+02  0.89488506709E+02  0.87355547673E+02 0.  0.
          2    1    3    3  502    0 -0.16503065699E+02 -0.35562211940E+02  0.29435205613E+02  0.49025028557E+02  0.00000000000E+00 0.  1.
         -2    1    3    3    0  502  0.16503065699E+02  0.35562211940E+02 -0.10013539265E+02  0.40463478152E+02  0.00000000000E+00 0. -1.
<mgrwt>
<rscale>  0 0.87355548E+02</rscale>
<asrwt>0</asrwt>
<pdfrwt beam="2">  1        2 0.53897570E-02 0.87355548E+02</pdfrwt>
<pdfrwt beam="1">  1       -2 0.83777056E-02 0.87355548E+02</pdfrwt>
<totfact> 0.10439154E+05</totfact>
</mgrwt>
</event>
<event>
 5    1  0.3921687E+001  0.9057098E+02  0.7546771E-02  0.1301475E+00
         -4   -1    0    0    0  501 -0.00000000000E+00  0.00000000000E+00  0.74406377125E+02  0.74406377125E+02  0.00000000000E+00 0.  1.
          4   -1    0    0  501    0  0.00000000000E+00 -0.00000000000E+00 -0.27561826045E+02  0.27561826045E+02  0.00000000000E+00 0. -1.
         23    2    1    2    0    0  0.00000000000E+00  0.00000000000E+00  0.46844551080E+02  0.10196820317E+03  0.90570980407E+02 0.  0.
          2    1    3    3  502    0 -0.79821203647E+01  0.28874526759E+02  0.61656403516E+02  0.68548994417E+02  0.00000000000E+00 0.  1.
         -2    1    3    3    0  502  0.79821203647E+01 -0.28874526759E+02 -0.14811852437E+02  0.33419208753E+02  0.00000000000E+00 0. -1.
<mgrwt>
<rscale>  0 0.90570980E+02</rscale>
<asrwt>0</asrwt>
<pdfrwt beam="2">  1        4 0.42402810E-02 0.90570980E+02</pdfrwt>
<pdfrwt beam="1">  1       -4 0.11447135E-01 0.90570980E+02</pdfrwt>
<totfact> 0.26816379E+04</totfact>
</mgrwt>
</event>
<event>
 5    1  0.3921687E+001  0.9765089E+02  0.7546771E-02  0.1285315E+00
          1   -1    0    0  501    0  0.00000000000E+00  0.00000000000E+00  0.71788515345E+02  0.71788515345E+02  0.00000000000E+00 0. -1.
         -1   -1    0    0    0  501 -0.00000000000E+00 -0.00000000000E+00 -0.33207594640E+02  0.33207594640E+02  0.00000000000E+00 0.  1.
         23    2    1    2    0    0  0.00000000000E+00  0.00000000000E+00  0.38580920706E+02  0.10499610999E+03  0.97650886681E+02 0.  0.
          2    1    3    3  502    0  0.24071818863E+02  0.94363467615E+01  0.63823579554E+02  0.68861792096E+02  0.00000000000E+00 0. -1.
         -2    1    3    3    0  502 -0.24071818863E+02 -0.94363467615E+01 -0.25242658849E+02  0.36134317889E+02  0.00000000000E+00 0.  1.
<mgrwt>
<rscale>  0 0.97650887E+02</rscale>
<asrwt>0</asrwt>
<pdfrwt beam="1">  1        1 0.11044387E-01 0.97650887E+02</pdfrwt>
<pdfrwt beam="2">  1       -1 0.51088607E-02 0.97650887E+02</pdfrwt>
<totfact> 0.81904893E+04</totfact>
</mgrwt>
</event>
<event>
 5    1  0.3921687E+001  0.9251161E+02  0.7546771E-02  0.1296881E+00
         -2   -1    0    0    0  501 -0.00000000000E+00  0.00000000000E+00  0.82775558239E+00  0.82775558239E+00  0.00000000000E+00 0. -1.
          2   -1    0    0  501    0  0.00000000000E+00 -0.00000000000E+00 -0.25848206252E+04  0.25848206252E+04  0.00000000000E+00 0.  1.
         23    2    1    2    0    0  0.00000000000E+00  0.00000000000E+00 -0.25839928696E+04  0.25856483808E+04  0.92511614449E+02 0.  0.
          2    1    3    3  502    0  0.12782857292E+02  0.38635889663E+02 -0.67744773390E+03  0.67866896613E+03  0.00000000000E+00 0. -1.
         -2    1    3    3    0  502 -0.12782857292E+02 -0.38635889663E+02 -0.19065451357E+04  0.19069794146E+04  0.00000000000E+00 0.  1.
<mgrwt>
<rscale>  0 0.92511614E+02</rscale>
<asrwt>0</asrwt>
<pdfrwt beam="2">  1        2 0.39766986E+00 0.92511614E+02</pdfrwt>
<pdfrwt beam="1">  1       -2 0.12734536E-03 0.92511614E+02</pdfrwt>
<totfact> 0.13498505E+05</totfact>
</mgrwt>
</event>
<event>
 5    1  0.3921687E+001  0.8979988E+02  0.7546771E-02  0.1303337E+00
         -1   -1    0    0    0  501 -0.00000000000E+00  0.00000000000E+00  0.52119033471E+03  0.52119033471E+03  0.00000000000E+00 0.  1.
          1   -1    0    0  501    0  0.00000000000E+00 -0.00000000000E+00 -0.38680778371E+01  0.38680778371E+01  0.00000000000E+00 0. -1.
         23    2    1    2    0    0  0.00000000000E+00  0.00000000000E+00  0.51732225688E+03  0.52505841255E+03  0.89799883799E+02 0.  0.
          2    1    3    3  502    0 -0.24684223704E+02 -0.37505046236E+02  0.25716597420E+03  0.26105608148E+03  0.00000000000E+00 0. -1.
         -2    1    3    3    0  502  0.24684223704E+02  0.37505046236E+02  0.26015628268E+03  0.26400233107E+03  0.00000000000E+00 0.  1.
<mgrwt>
<rscale>  0 0.89799884E+02</rscale>
<asrwt>0</asrwt>
<pdfrwt beam="2">  1        1 0.59508931E-03 0.89799884E+02</pdfrwt>
<pdfrwt beam="1">  1       -1 0.80183073E-01 0.89799884E+02</pdfrwt>
<totfact> 0.47695582E+04</totfact>
</mgrwt>
</event>
<event>
 5    1  0.3921687E+001  0.8737739E+02  0.7546771E-02  0.1309330E+00
          1   -1    0    0  501    0  0.00000000000E+00  0.00000000000E+00  0.85815028596E+02  0.85815028596E+02  0.00000000000E+00 0. -1.
         -1   -1    0    0    0  501 -0.00000000000E+00 -0.00000000000E+00 -0.22242050911E+02  0.22242050911E+02  0.00000000000E+00 0.  1.
         23    2    1    2    0    0  0.00000000000E+00  0.00000000000E+00  0.63572977686E+02  0.10805707951E+03  0.87377393757E+02 0.  0.
          2    1    3    3  502    0  0.28331932227E+01 -0.31678474804E+02  0.68827816541E+02  0.75820980470E+02  0.00000000000E+00 0. -1.
         -2    1    3    3    0  502 -0.28331932227E+01  0.31678474804E+02 -0.52548388551E+01  0.32236099037E+02  0.00000000000E+00 0.  1.
<mgrwt>
<rscale>  0 0.87377394E+02</rscale>
<asrwt>0</asrwt>
<pdfrwt beam="1">  1        1 0.13202312E-01 0.87377394E+02</pdfrwt>
<pdfrwt beam="2">  1       -1 0.34218540E-02 0.87377394E+02</pdfrwt>
<totfact> 0.11442112E+05</totfact>
</mgrwt>
</event>
<event>
 5    1  0.3921687E+001  0.1045284E+03  0.7546771E-02  0.1271052E+00
         -2   -1    0    0    0  501 -0.00000000000E+00  0.00000000000E+00  0.19800244680E+01  0.19800244680E+01  0.00000000000E+00 0. -1.
          2   -1    0    0  501    0  0.00000000000E+00 -0.00000000000E+00 -0.13795508057E+04  0.13795508057E+04  0.00000000000E+00 0.  1.
         23    2    1    2    0    0  0.00000000000E+00  0.00000000000E+00 -0.13775707812E+04  0.13815308301E+04  0.10452835692E+03 0.  0.
          2    1    3    3  502    0 -0.15513065768E+02  0.29509033562E+02 -0.15680186536E+03  0.16030677856E+03  0.00000000000E+00 0. -1.
         -2    1    3    3    0  502  0.15513065768E+02 -0.29509033562E+02 -0.12207689158E+04  0.12212240516E+04  0.00000000000E+00 0.  1.
<mgrwt>
<rscale>  0 0.10452836E+03</rscale>
<asrwt>0</asrwt>
<pdfrwt beam="2">  1        2 0.21223859E+00 0.10452836E+03</pdfrwt>
<pdfrwt beam="1">  1       -2 0.30461914E-03 0.10452836E+03</pdfrwt>
<totfact> 0.16870968E+05</totfact>
</mgrwt>
</event>
<event>
 5    1  0.3921687E+001  0.9413310E+02  0.7546771E-02  0.1293141E+00
          1   -1    0    0  501    0  0.00000000000E+00  0.00000000000E+00  0.26905072155E+03  0.26905072155E+03  0.00000000000E+00 0. -1.
         -1   -1    0    0    0  501 -0.00000000000E+00 -0.00000000000E+00 -0.82336154756E+01  0.82336154756E+01  0.00000000000E+00 0.  1.
         23    2    1    2    0    0  0.00000000000E+00  0.00000000000E+00  0.26081710607E+03  0.27728433702E+03  0.94133101184E+02 0.  0.
          2    1    3    3  502    0 -0.15053347002E+02  0.14974111985E+02  0.66755524025E+01  0.22257364749E+02  0.00000000000E+00 0.  1.
         -2    1    3    3    0  502  0.15053347002E+02 -0.14974111985E+02  0.25414155367E+03  0.25502697227E+03  0.00000000000E+00 0. -1.
<mgrwt>
<rscale>  0 0.94133101E+02</rscale>
<asrwt>0</asrwt>
<pdfrwt beam="1">  1        1 0.41392412E-01 0.94133101E+02</pdfrwt>
<pdfrwt beam="2">  1       -1 0.12667103E-02 0.94133101E+02</pdfrwt>
<totfact> 0.11519313E+05</totfact>
</mgrwt>
</event>
<event>
 5    1  0.3921687E+001  0.9116794E+02  0.7546771E-02  0.1300048E+00
          1   -1    0    0  501    0  0.00000000000E+00  0.00000000000E+00  0.32004270636E+03  0.32004270636E+03  0.00000000000E+00 0. -1.
         -1   -1    0    0    0  501 -0.00000000000E+00 -0.00000000000E+00 -0.64925663260E+01  0.64925663260E+01  0.00000000000E+00 0.  1.
         23    2    1    2    0    0  0.00000000000E+00  0.00000000000E+00  0.31355014004E+03  0.32653527269E+03  0.91167943888E+02 0.  0.
          2    1    3    3  502    0  0.25640559462E+02  0.15568986931E+02  0.27970932381E+03  0.28131323728E+03  0.00000000000E+00 0. -1.
         -2    1    3    3    0  502 -0.25640559462E+02 -0.15568986931E+02  0.33840816231E+02  0.45222035411E+02  0.00000000000E+00 0.  1.
<mgrwt>
<rscale>  0 0.91167944E+02</rscale>
<asrwt>0</asrwt>
<pdfrwt beam="1">  1        1 0.49237327E-01 0.91167944E+02</pdfrwt>
<pdfrwt beam="2">  1       -1 0.99885661E-03 0.91167944E+02</pdfrwt>
<totfact> 0.12972831E+05</totfact>
</mgrwt>
</event>
<event>
 5    1  0.3921687E+001  0.8675522E+02  0.7546771E-02  0.1310905E+00
          1   -1    0    0  501    0  0.00000000000E+00  0.00000000000E+00  0.18882021057E+02  0.18882021057E+02  0.00000000000E+00 0. -1.
         -1   -1    0    0    0  501 -0.00000000000E+00 -0.00000000000E+00 -0.99651260917E+02  0.99651260917E+02  0.00000000000E+00 0.  1.
         23    2    1    2    0    0  0.00000000000E+00  0.00000000000E+00 -0.80769239860E+02  0.11853328197E+03  0.86755223634E+02 0.  0.
          2    1    3    3  502    0 -0.27697906975E+02 -0.18537488334E+02 -0.24516499032E+01  0.33418903510E+02  0.00000000000E+00 0. -1.
         -2    1    3    3    0  502  0.27697906975E+02  0.18537488334E+02 -0.78317589957E+02  0.85114378464E+02  0.00000000000E+00 0.  1.
<mgrwt>
<rscale>  0 0.86755224E+02</rscale>
<asrwt>0</asrwt>
<pdfrwt beam="1">  1        1 0.29049263E-02 0.86755224E+02</pdfrwt>
<pdfrwt beam="2">  1       -1 0.15330963E-01 0.86755224E+02</pdfrwt>
<totfact> 0.92522118E+04</totfact>
</mgrwt>
</event>
<event>
 5    1  0.3921687E+001  0.8711552E+02  0.7546771E-02  0.1309991E+00
          1   -1    0    0  501    0  0.00000000000E+00  0.00000000000E+00  0.21989285581E+02  0.21989285581E+02  0.00000000000E+00 0. -1.
         -1   -1    0    0    0  501 -0.00000000000E+00 -0.00000000000E+00 -0.86281949624E+02  0.86281949624E+02  0.00000000000E+00 0.  1.
         23    2    1    2    0    0  0.00000000000E+00  0.00000000000E+00 -0.64292664043E+02  0.10827123521E+03  0.87115519416E+02 0.  0.
          2    1    3    3  502    0  0.31677005625E+02  0.26206507191E+01 -0.69161009466E+02  0.76115344878E+02  0.00000000000E+00 0.  1.
         -2    1    3    3    0  502 -0.31677005625E+02 -0.26206507191E+01  0.48683454234E+01  0.32155890327E+02  0.00000000000E+00 0. -1.
<mgrwt>
<rscale>  0 0.87115519E+02</rscale>
<asrwt>0</asrwt>
<pdfrwt beam="1">  1        1 0.33829670E-02 0.87115519E+02</pdfrwt>
<pdfrwt beam="2">  1       -1 0.13274146E-01 0.87115519E+02</pdfrwt>
<totfact> 0.93904712E+04</totfact>
</mgrwt>
</event>
<event>
 5    1  0.3921687E+001  0.9254574E+02  0.7546771E-02  0.1296801E+00
          2   -1    0    0  501    0  0.00000000000E+00  0.00000000000E+00  0.98176811780E+03  0.98176811780E+03  0.00000000000E+00 0.  1.
         -2   -1    0    0    0  501 -0.00000000000E+00 -0.00000000000E+00 -0.21809411856E+01  0.21809411856E+01  0.00000000000E+00 0. -1.
         23    2    1    2    0    0  0.00000000000E+00  0.00000000000E+00  0.97958717662E+03  0.98394905899E+03  0.92545740535E+02 0.  0.
          2    1    3    3  502    0  0.72727343000E+01 -0.44683801330E+02  0.38801237515E+03  0.39064451620E+03  0.00000000000E+00 0. -1.
         -2    1    3    3    0  502 -0.72727343000E+01  0.44683801330E+02  0.59157480146E+03  0.59330454279E+03  0.00000000000E+00 0.  1.
<mgrwt>
<rscale>  0 0.92545741E+02</rscale>
<asrwt>0</asrwt>
<pdfrwt beam="1">  1        2 0.15104090E+00 0.92545741E+02</pdfrwt>
<pdfrwt beam="2">  1       -2 0.33553020E-03 0.92545741E+02</pdfrwt>
<totfact> 0.24016517E+05</totfact>
</mgrwt>
</event>
<event>
 5    1  0.3921687E+001  0.7869549E+02  0.7546771E-02  0.1332795E+00
          1   -1    0    0  501    0  0.00000000000E+00  0.00000000000E+00  0.43543361790E+01  0.43543361790E+01  0.00000000000E+00 0. -1.
         -1   -1    0    0    0  501 -0.00000000000E+00 -0.00000000000E+00 -0.35556394720E+03  0.35556394720E+03  0.00000000000E+00 0.  1.
         23    2    1    2    0    0  0.00000000000E+00  0.00000000000E+00 -0.35120961102E+03  0.35991828338E+03  0.78695488034E+02 0.  0.
          2    1    3    3  502    0 -0.18202661835E+02 -0.17990925375E+02 -0.38914768718E+02  0.46576491046E+02  0.00000000000E+00 0. -1.
         -2    1    3    3    0  502  0.18202661835E+02  0.17990925375E+02 -0.31229484230E+03  0.31334179233E+03  0.00000000000E+00 0.  1.
<mgrwt>
<rscale>  0 0.78695488E+02</rscale>
<asrwt>0</asrwt>
<pdfrwt beam="1">  1        1 0.66989795E-03 0.78695488E+02</pdfrwt>
<pdfrwt beam="2">  1       -1 0.54702140E-01 0.78695488E+02</pdfrwt>
<totfact> 0.82716631E+04</totfact>
</mgrwt>
</event>
<event>
 5    1  0.3921687E+001  0.9143300E+02  0.7546771E-02  0.1299418E+00
         -3   -1    0    0    0  501 -0.00000000000E+00  0.00000000000E+00  0.12536413860E+02  0.12536413860E+02  0.00000000000E+00 0.  1.
          3   -1    0    0  501    0  0.00000000000E+00 -0.00000000000E+00 -0.16671421938E+03  0.16671421938E+03  0.00000000000E+00 0. -1.
         23    2    1    2    0    0  0.00000000000E+00  0.00000000000E+00 -0.15417780552E+03  0.17925063324E+03  0.91433001711E+02 0.  0.
          2    1    3    3  502    0  0.30848791193E+02 -0.17007500679E+02 -0.13421518727E+03  0.13876101574E+03  0.00000000000E+00 0. -1.
         -2    1    3    3    0  502 -0.30848791193E+02  0.17007500679E+02 -0.19962618256E+02  0.40489617497E+02  0.00000000000E+00 0.  1.
<mgrwt>
<rscale>  0 0.91433002E+02</rscale>
<asrwt>0</asrwt>
<pdfrwt beam="2">  1        3 0.25648341E-01 0.91433002E+02</pdfrwt>
<pdfrwt beam="1">  1       -3 0.19286791E-02 0.91433002E+02</pdfrwt>
<totfact> 0.29383506E+04</totfact>
</mgrwt>
</event>
<event>
 5    1  0.3921687E+001  0.7498812E+02  0.7546771E-02  0.1343908E+00
          3   -1    0    0  501    0  0.00000000000E+00  0.00000000000E+00  0.56131672538E+02  0.56131672538E+02  0.00000000000E+00 0. -1.
         -3   -1    0    0    0  501 -0.00000000000E+00 -0.00000000000E+00 -0.25044763919E+02  0.25044763919E+02  0.00000000000E+00 0.  1.
         23    2    1    2    0    0  0.00000000000E+00  0.00000000000E+00  0.31086908620E+02  0.81176436457E+02  0.74988118715E+02 0.  0.
          2    1    3    3  502    0 -0.30624417648E+02  0.21554209715E+02  0.13557509754E+02  0.39827691164E+02  0.00000000000E+00 0.  1.
         -2    1    3    3    0  502  0.30624417648E+02 -0.21554209715E+02  0.17529398865E+02  0.41348745293E+02  0.00000000000E+00 0. -1.
<mgrwt>
<rscale>  0 0.74988119E+02</rscale>
<asrwt>0</asrwt>
<pdfrwt beam="1">  1        3 0.86356419E-02 0.74988119E+02</pdfrwt>
<pdfrwt beam="2">  1       -3 0.38530406E-02 0.74988119E+02</pdfrwt>
<totfact> 0.61166305E+04</totfact>
</mgrwt>
</event>
<event>
 5    1  0.3921687E+001  0.9204764E+02  0.7546771E-02  0.1297967E+00
         -1   -1    0    0    0  501 -0.00000000000E+00  0.00000000000E+00  0.55344657913E+02  0.55344657913E+02  0.00000000000E+00 0.  1.
          1   -1    0    0  501    0  0.00000000000E+00 -0.00000000000E+00 -0.38272747099E+02  0.38272747099E+02  0.00000000000E+00 0. -1.
         23    2    1    2    0    0  0.00000000000E+00  0.00000000000E+00  0.17071910813E+02  0.93617405012E+02  0.92047641916E+02 0.  0.
          2    1    3    3  502    0 -0.39675664929E+02  0.18445200061E+02  0.23055562611E+02  0.49456473390E+02  0.00000000000E+00 0.  1.
         -2    1    3    3    0  502  0.39675664929E+02 -0.18445200061E+02 -0.59836517980E+01  0.44160931622E+02  0.00000000000E+00 0. -1.
<mgrwt>
<rscale>  0 0.92047642E+02</rscale>
<asrwt>0</asrwt>
<pdfrwt beam="2">  1        1 0.58881149E-02 0.92047642E+02</pdfrwt>
<pdfrwt beam="1">  1       -1 0.85145628E-02 0.92047642E+02</pdfrwt>
<totfact> 0.87660209E+04</totfact>
</mgrwt>
</event>
<event>
 5    1  0.3921687E+001  0.9213913E+02  0.7546771E-02  0.1297753E+00
         -2   -1    0    0    0  501 -0.00000000000E+00  0.00000000000E+00  0.96130629648E+00  0.96130629648E+00  0.00000000000E+00 0. -1.
          2   -1    0    0  501    0  0.00000000000E+00 -0.00000000000E+00 -0.22078341548E+04  0.22078341548E+04  0.00000000000E+00 0.  1.
         23    2    1    2    0    0  0.00000000000E+00  0.00000000000E+00 -0.22068728485E+04  0.22087954611E+04  0.92139131202E+02 0.  0.
          2    1    3    3  502    0 -0.30359623965E+01 -0.26778095020E+02 -0.20771495119E+03  0.20945592470E+03  0.00000000000E+00 0. -1.
         -2    1    3    3    0  502  0.30359623965E+01  0.26778095020E+02 -0.19991578974E+04  0.19993395364E+04  0.00000000000E+00 0.  1.
<mgrwt>
<rscale>  0 0.92139131E+02</rscale>
<asrwt>0</asrwt>
<pdfrwt beam="2">  1        2 0.33966240E+00 0.92139131E+02</pdfrwt>
<pdfrwt beam="1">  1       -2 0.14789519E-03 0.92139131E+02</pdfrwt>
<totfact> 0.17227560E+05</totfact>
</mgrwt>
</event>
<event>
 5    1  0.3921687E+001  0.9370487E+02  0.7546771E-02  0.1294120E+00
         -1   -1    0    0    0  501 -0.00000000000E+00  0.00000000000E+00  0.69503998621E+01  0.69503998621E+01  0.00000000000E+00 0.  1.
          1   -1    0    0  501    0  0.00000000000E+00 -0.00000000000E+00 -0.31583086928E+03  0.31583086928E+03  0.00000000000E+00 0. -1.
         23    2    1    2    0    0  0.00000000000E+00  0.00000000000E+00 -0.30888046942E+03  0.32278126914E+03  0.93704873518E+02 0.  0.
          2    1    3    3  502    0 -0.24896887505E+02  0.17439880198E+02 -0.31627350066E+02  0.43866772174E+02  0.00000000000E+00 0.  1.
         -2    1    3    3    0  502  0.24896887505E+02 -0.17439880198E+02 -0.27725311935E+03  0.27891449697E+03  0.00000000000E+00 0. -1.
<mgrwt>
<rscale>  0 0.93704874E+02</rscale>
<asrwt>0</asrwt>
<pdfrwt beam="2">  1        1 0.48589373E-01 0.93704874E+02</pdfrwt>
<pdfrwt beam="1">  1       -1 0.10692921E-02 0.93704874E+02</pdfrwt>
<totfact> 0.12026986E+05</totfact>
</mgrwt>
</event>
<event>
 5    1  0.3921687E+001  0.9014802E+02  0.7546771E-02  0.1302494E+00
         -2   -1    0    0    0  501 -0.00000000000E+00  0.00000000000E+00  0.38982009867E+01  0.38982009867E+01  0.00000000000E+00 0.  1.
          2   -1    0    0  501    0  0.00000000000E+00 -0.00000000000E+00 -0.52118045945E+03  0.52118045945E+03  0.00000000000E+00 0. -1.
         23    2    1    2    0    0  0.00000000000E+00  0.00000000000E+00 -0.51728225846E+03  0.52507866044E+03  0.90148015647E+02 0.  0.
          2    1    3    3  502    0  0.25495486150E+02 -0.20663133746E+02 -0.43861000285E+03  0.43983601434E+03  0.00000000000E+00 0. -1.
         -2    1    3    3    0  502 -0.25495486150E+02  0.20663133746E+02 -0.78672255610E+02  0.85242646094E+02  0.00000000000E+00 0.  1.
<mgrwt>
<rscale>  0 0.90148016E+02</rscale>
<asrwt>0</asrwt>
<pdfrwt beam="2">  1        2 0.80181557E-01 0.90148016E+02</pdfrwt>
<pdfrwt beam="1">  1       -2 0.59972362E-03 0.90148016E+02</pdfrwt>
<totfact> 0.22503398E+05</totfact>
</mgrwt>
</event>
<event>
 5    1  0.3921687E+001  0.8936260E+02  0.7546771E-02  0.1304403E+00
          2   -1    0    0  501    0  0.00000000000E+00  0.00000000000E+00  0.52787896657E+03  0.52787896657E+03  0.00000000000E+00 0. -1.
         -2   -1    0    0    0  501 -0.00000000000E+00 -0.00000000000E+00 -0.37819626034E+01  0.37819626034E+01  0.00000000000E+00 0.  1.
         23    2    1    2    0    0  0.00000000000E+00  0.00000000000E+00  0.52409700396E+03  0.53166092917E+03  0.89362598680E+02 0.  0.
          2    1    3    3  502    0  0.25073969398E+02  0.34465042056E+02  0.18225548291E+03  0.18717265857E+03  0.00000000000E+00 0.  1.
         -2    1    3    3    0  502 -0.25073969398E+02 -0.34465042056E+02  0.34184152106E+03  0.34448827060E+03  0.00000000000E+00 0. -1.
<mgrwt>
<rscale>  0 0.89362599E+02</rscale>
<asrwt>0</asrwt>
<pdfrwt beam="1">  1        2 0.81212090E-01 0.89362599E+02</pdfrwt>
<pdfrwt beam="2">  1       -2 0.58184082E-03 0.89362599E+02</pdfrwt>
<totfact> 0.23122082E+05</totfact>
</mgrwt>
</event>
<event>
 5    1  0.3921687E+001  0.9087313E+02  0.7546771E-02  0.1300751E+00
          2   -1    0    0  501    0  0.00000000000E+00  0.00000000000E+00  0.14221678290E+02  0.14221678290E+02  0.00000000000E+00 0. -1.
         -2   -1    0    0    0  501 -0.00000000000E+00 -0.00000000000E+00 -0.14516441093E+03  0.14516441093E+03  0.00000000000E+00 0.  1.
         23    2    1    2    0    0  0.00000000000E+00  0.00000000000E+00 -0.13094273264E+03  0.15938608922E+03  0.90873132473E+02 0.  0.
          2    1    3    3  502    0 -0.33831320910E+02 -0.19685137827E+02 -0.10594214270E+03  0.11294158015E+03  0.00000000000E+00 0.  1.
         -2    1    3    3    0  502  0.33831320910E+02  0.19685137827E+02 -0.25000589936E+02  0.46444509072E+02  0.00000000000E+00 0. -1.
<mgrwt>
<rscale>  0 0.90873132E+02</rscale>
<asrwt>0</asrwt>
<pdfrwt beam="1">  1        2 0.21879505E-02 0.90873132E+02</pdfrwt>
<pdfrwt beam="2">  1       -2 0.22332986E-01 0.90873132E+02</pdfrwt>
<totfact> 0.71286209E+04</totfact>
</mgrwt>
</event>
<event>
 5    1  0.3921687E+001  0.9011233E+02  0.7546771E-02  0.1302580E+00
          2   -1    0    0  501    0  0.00000000000E+00  0.00000000000E+00  0.19662246283E+03  0.19662246283E+03  0.00000000000E+00 0.  1.
         -2   -1    0    0    0  501 -0.00000000000E+00 -0.00000000000E+00 -0.10324648749E+02  0.10324648749E+02  0.00000000000E+00 0. -1.
         23    2    1    2    0    0  0.00000000000E+00  0.00000000000E+00  0.18629781408E+03  0.20694711157E+03  0.90112326899E+02 0.  0.
          2    1    3    3  502    0  0.82070944128E+01  0.44214659340E+02  0.99548555461E+02  0.10923464374E+03  0.00000000000E+00 0.  1.
         -2    1    3    3    0  502 -0.82070944128E+01 -0.44214659340E+02  0.86749258616E+02  0.97712467832E+02  0.00000000000E+00 0. -1.
<mgrwt>
<rscale>  0 0.90112327E+02</rscale>
<asrwt>0</asrwt>
<pdfrwt beam="1">  1        2 0.30249607E-01 0.90112327E+02</pdfrwt>
<pdfrwt beam="2">  1       -2 0.15884076E-02 0.90112327E+02</pdfrwt>
<totfact> 0.15866531E+05</totfact>
</mgrwt>
</event>
<event>
 5    1  0.3921687E+001  0.8995505E+02  0.7546771E-02  0.1302961E+00
          2   -1    0    0  501    0  0.00000000000E+00  0.00000000000E+00  0.20665652673E+03  0.20665652673E+03  0.00000000000E+00 0. -1.
         -2   -1    0    0    0  501 -0.00000000000E+00 -0.00000000000E+00 -0.97890820774E+01  0.97890820774E+01  0.00000000000E+00 0.  1.
         23    2    1    2    0    0  0.00000000000E+00  0.00000000000E+00  0.19686744466E+03  0.21644560881E+03  0.89955048819E+02 0.  0.
          2    1    3    3  502    0 -0.14505343288E+02 -0.18303125960E+02  0.59432455707E+01  0.24098372802E+02  0.00000000000E+00 0.  1.
         -2    1    3    3    0  502  0.14505343288E+02  0.18303125960E+02  0.19092419909E+03  0.19234723601E+03  0.00000000000E+00 0. -1.
<mgrwt>
<rscale>  0 0.89955049E+02</rscale>
<asrwt>0</asrwt>
<pdfrwt beam="1">  1        2 0.31793308E-01 0.89955049E+02</pdfrwt>
<pdfrwt beam="2">  1       -2 0.15060128E-02 0.89955049E+02</pdfrwt>
<totfact> 0.16230318E+05</totfact>
</mgrwt>
</event>
<event>
 5    1  0.3921687E+001  0.9055832E+02  0.7546771E-02  0.1301505E+00
          1   -1    0    0  501    0  0.00000000000E+00  0.00000000000E+00  0.25286289096E+02  0.25286289096E+02  0.00000000000E+00 0. -1.
         -1   -1    0    0    0  501 -0.00000000000E+00 -0.00000000000E+00 -0.81079604463E+02  0.81079604463E+02  0.00000000000E+00 0.  1.
         23    2    1    2    0    0  0.00000000000E+00  0.00000000000E+00 -0.55793315367E+02  0.10636589356E+03  0.90558319734E+02 0.  0.
          2    1    3    3  502    0 -0.95837174919E+00 -0.38092009645E+02  0.83278748560E+00  0.38113163214E+02  0.00000000000E+00 0. -1.
         -2    1    3    3    0  502  0.95837174919E+00  0.38092009645E+02 -0.56626102853E+02  0.68252730345E+02  0.00000000000E+00 0.  1.
<mgrwt>
<rscale>  0 0.90558320E+02</rscale>
<asrwt>0</asrwt>
<pdfrwt beam="1">  1        1 0.38901983E-02 0.90558320E+02</pdfrwt>
<pdfrwt beam="2">  1       -1 0.12473785E-01 0.90558320E+02</pdfrwt>
<totfact> 0.85942628E+04</totfact>
</mgrwt>
</event>
<event>
 5    1  0.3921687E+001  0.9199619E+02  0.7546771E-02  0.1298088E+00
         -2   -1    0    0    0  501 -0.00000000000E+00  0.00000000000E+00  0.22022750793E+02  0.22022750793E+02  0.00000000000E+00 0.  1.
          2   -1    0    0  501    0  0.00000000000E+00 -0.00000000000E+00 -0.96074507842E+02  0.96074507842E+02  0.00000000000E+00 0. -1.
         23    2    1    2    0    0  0.00000000000E+00  0.00000000000E+00 -0.74051757049E+02  0.11809725863E+03  0.91996194350E+02 0.  0.
          2    1    3    3  502    0 -0.30272642690E+02 -0.33717304829E+02 -0.47177441951E+02  0.65414070118E+02  0.00000000000E+00 0. -1.
         -2    1    3    3    0  502  0.30272642690E+02  0.33717304829E+02 -0.26874315098E+02  0.52683188517E+02  0.00000000000E+00 0.  1.
<mgrwt>
<rscale>  0 0.91996194E+02</rscale>
<asrwt>0</asrwt>
<pdfrwt beam="2">  1        2 0.14780694E-01 0.91996194E+02</pdfrwt>
<pdfrwt beam="1">  1       -2 0.33881155E-02 0.91996194E+02</pdfrwt>
<totfact> 0.11823972E+05</totfact>
</mgrwt>
</event>
<event>
 5    1  0.3921687E+001  0.9065689E+02  0.7546771E-02  0.1301269E+00
          2   -1    0    0  501    0  0.00000000000E+00  0.00000000000E+00  0.21799204198E+01  0.21799204198E+01  0.00000000000E+00 0. -1.
         -2   -1    0    0    0  501 -0.00000000000E+00 -0.00000000000E+00 -0.94254253342E+03  0.94254253342E+03  0.00000000000E+00 0.  1.
         23    2    1    2    0    0  0.00000000000E+00  0.00000000000E+00 -0.94036261300E+03  0.94472245384E+03  0.90656885346E+02 0.  0.
          2    1    3    3  502    0  0.23394461666E+02  0.37417906949E+02 -0.36225265527E+03  0.36493066033E+03  0.00000000000E+00 0. -1.
         -2    1    3    3    0  502 -0.23394461666E+02 -0.37417906949E+02 -0.57810995773E+03  0.57979179351E+03  0.00000000000E+00 0.  1.
<mgrwt>
<rscale>  0 0.90656885E+02</rscale>
<asrwt>0</asrwt>
<pdfrwt beam="1">  1        2 0.33537196E-03 0.90656885E+02</pdfrwt>
<pdfrwt beam="2">  1       -2 0.14500672E+00 0.90656885E+02</pdfrwt>
<totfact> 0.20298664E+04</totfact>
</mgrwt>
</event>
<event>
 5    1  0.3921687E+001  0.9819512E+02  0.7546771E-02  0.1284138E+00
          1   -1    0    0  501    0  0.00000000000E+00  0.00000000000E+00  0.77729622463E+02  0.77729622463E+02  0.00000000000E+00 0. -1.
         -1   -1    0    0    0  501 -0.00000000000E+00 -0.00000000000E+00 -0.31012250432E+02  0.31012250432E+02  0.00000000000E+00 0.  1.
         23    2    1    2    0    0  0.00000000000E+00  0.00000000000E+00  0.46717372031E+02  0.10874187289E+03  0.98195122440E+02 0.  0.
          2    1    3    3  502    0 -0.46844111993E+02  0.11543642058E+02  0.33444232282E+02  0.58703859952E+02  0.00000000000E+00 0. -1.
         -2    1    3    3    0  502  0.46844111993E+02 -0.11543642058E+02  0.13273139749E+02  0.50038012942E+02  0.00000000000E+00 0.  1.
<mgrwt>
<rscale>  0 0.98195122E+02</rscale>
<asrwt>0</asrwt>
<pdfrwt beam="1">  1        1 0.11958403E-01 0.98195122E+02</pdfrwt>
<pdfrwt beam="2">  1       -1 0.47711155E-02 0.98195122E+02</pdfrwt>
<totfact> 0.81701553E+04</totfact>
</mgrwt>
</event>
<event>
 5    1  0.3921687E+001  0.9278643E+02  0.7546771E-02  0.1296241E+00
          1   -1    0    0  501    0  0.00000000000E+00  0.00000000000E+00  0.27707009998E+03  0.27707009998E+03  0.00000000000E+00 0. -1.
         -1   -1    0    0    0  501 -0.00000000000E+00 -0.00000000000E+00 -0.77681806825E+01  0.77681806825E+01  0.00000000000E+00 0.  1.
         23    2    1    2    0    0  0.00000000000E+00  0.00000000000E+00  0.26930191930E+03  0.28483828067E+03  0.92786434319E+02 0.  0.
          2    1    3    3  502    0  0.36870214898E+02  0.81015080820E+01  0.51863279496E+02  0.64147072730E+02  0.00000000000E+00 0.  1.
         -2    1    3    3    0  502 -0.36870214898E+02 -0.81015080820E+01  0.21743863981E+03  0.22069120794E+03  0.00000000000E+00 0. -1.
<mgrwt>
<rscale>  0 0.92786434E+02</rscale>
<asrwt>0</asrwt>
<pdfrwt beam="1">  1        1 0.42626162E-01 0.92786434E+02</pdfrwt>
<pdfrwt beam="2">  1       -1 0.11951049E-02 0.92786434E+02</pdfrwt>
<totfact> 0.12041223E+05</totfact>
</mgrwt>
</event>
<event>
 5    1  0.3921687E+001  0.8640092E+02  0.7546771E-02  0.1311809E+00
         -2   -1    0    0    0  501 -0.00000000000E+00  0.00000000000E+00  0.84357064376E+01  0.84357064376E+01  0.00000000000E+00 0.  1.
          2   -1    0    0  501    0  0.00000000000E+00 -0.00000000000E+00 -0.22123572100E+03  0.22123572100E+03  0.00000000000E+00 0. -1.
         23    2    1    2    0    0  0.00000000000E+00  0.00000000000E+00 -0.21280001456E+03  0.22967142744E+03  0.86400916566E+02 0.  0.
          2    1    3    3  502    0  0.16911668552E+02  0.31113660203E+02 -0.17217195123E+03  0.17577612231E+03  0.00000000000E+00 0. -1.
         -2    1    3    3    0  502 -0.16911668552E+02 -0.31113660203E+02 -0.40628063331E+02  0.53895305125E+02  0.00000000000E+00 0.  1.
<mgrwt>
<rscale>  0 0.86400917E+02</rscale>
<asrwt>0</asrwt>
<pdfrwt beam="2">  1        2 0.34036260E-01 0.86400917E+02</pdfrwt>
<pdfrwt beam="1">  1       -2 0.12978012E-02 0.86400917E+02</pdfrwt>
<totfact> 0.18531401E+05</totfact>
</mgrwt>
</event>
<event>
 5    1  0.3921687E+001  0.8742731E+02  0.7546771E-02  0.1309204E+00
          3   -1    0    0  501    0  0.00000000000E+00  0.00000000000E+00  0.32325404627E+01  0.32325404627E+01  0.00000000000E+00 0. -1.
         -3   -1    0    0    0  501 -0.00000000000E+00 -0.00000000000E+00 -0.59113994671E+03  0.59113994671E+03  0.00000000000E+00 0.  1.
         23    2    1    2    0    0  0.00000000000E+00  0.00000000000E+00 -0.58790740624E+03  0.59437248717E+03  0.87427313738E+02 0.  0.
          2    1    3    3  502    0  0.35222794880E+02  0.23956802962E+02 -0.22723501441E+03  0.23119326430E+03  0.00000000000E+00 0. -1.
         -2    1    3    3    0  502 -0.35222794880E+02 -0.23956802962E+02 -0.36067239184E+03  0.36317922287E+03  0.00000000000E+00 0.  1.
<mgrwt>
<rscale>  0 0.87427314E+02</rscale>
<asrwt>0</asrwt>
<pdfrwt beam="1">  1        3 0.49731394E-03 0.87427314E+02</pdfrwt>
<pdfrwt beam="2">  1       -3 0.90944603E-01 0.87427314E+02</pdfrwt>
<totfact> 0.17677532E+04</totfact>
</mgrwt>
</event>
<event>
 5    1  0.3921687E+001  0.9072388E+02  0.7546771E-02  0.1301108E+00
         -1   -1    0    0    0  501 -0.00000000000E+00  0.00000000000E+00  0.12578379039E+01  0.12578379039E+01  0.00000000000E+00 0.  1.
          1   -1    0    0  501    0  0.00000000000E+00 -0.00000000000E+00 -0.16359066787E+04  0.16359066787E+04  0.00000000000E+00 0. -1.
         23    2    1    2    0    0  0.00000000000E+00  0.00000000000E+00 -0.16346488408E+04  0.16371645166E+04  0.90723876191E+02 0.  0.
          2    1    3    3  502    0 -0.15356556843E+02  0.34776475405E+02 -0.12639217237E+04  0.12644933178E+04  0.00000000000E+00 0. -1.
         -2    1    3    3    0  502  0.15356556843E+02 -0.34776475405E+02 -0.37072711714E+03  0.37267119887E+03  0.00000000000E+00 0.  1.
<mgrwt>
<rscale>  0 0.90723876E+02</rscale>
<asrwt>0</asrwt>
<pdfrwt beam="2">  1        1 0.25167799E+00 0.90723876E+02</pdfrwt>
<pdfrwt beam="1">  1       -1 0.19351349E-03 0.90723876E+02</pdfrwt>
<totfact> 0.10353890E+05</totfact>
</mgrwt>
</event>
<event>
 5    1  0.3921687E+001  0.8938406E+02  0.7546771E-02  0.1304350E+00
          1   -1    0    0  501    0  0.00000000000E+00  0.00000000000E+00  0.13415993162E+04  0.13415993162E+04  0.00000000000E+00 0. -1.
         -1   -1    0    0    0  501 -0.00000000000E+00 -0.00000000000E+00 -0.14888033218E+01  0.14888033218E+01  0.00000000000E+00 0.  1.
         23    2    1    2    0    0  0.00000000000E+00  0.00000000000E+00  0.13401105129E+04  0.13430881195E+04  0.89384059397E+02 0.  0.
          2    1    3    3  502    0  0.88150158934E+01 -0.19659325035E+02  0.12584131245E+04  0.12585975471E+04  0.00000000000E+00 0. -1.
         -2    1    3    3    0  502 -0.88150158934E+01  0.19659325035E+02  0.81697388354E+02  0.84490572432E+02  0.00000000000E+00 0.  1.
<mgrwt>
<rscale>  0 0.89384059E+02</rscale>
<asrwt>0</asrwt>
<pdfrwt beam="1">  1        1 0.20639893E+00 0.89384059E+02</pdfrwt>
<pdfrwt beam="2">  1       -1 0.22904774E-03 0.89384059E+02</pdfrwt>
<totfact> 0.12622377E+05</totfact>
</mgrwt>
</event>
<event>
 5    1  0.3921687E+001  0.9145111E+02  0.7546771E-02  0.1299375E+00
          4   -1    0    0  501    0  0.00000000000E+00  0.00000000000E+00  0.12789082944E+03  0.12789082944E+03  0.00000000000E+00 0.  1.
         -4   -1    0    0    0  501 -0.00000000000E+00 -0.00000000000E+00 -0.16348523506E+02  0.16348523506E+02  0.00000000000E+00 0. -1.
         23    2    1    2    0    0  0.00000000000E+00  0.00000000000E+00  0.11154230594E+03  0.14423935295E+03  0.91451106748E+02 0.  0.
          2    1    3    3  502    0  0.43264501382E+02  0.95501943449E+01  0.37940583198E+02  0.58331047868E+02  0.00000000000E+00 0. -1.
         -2    1    3    3    0  502 -0.43264501382E+02 -0.95501943449E+01  0.73601722740E+02  0.85908305083E+02  0.00000000000E+00 0.  1.
<mgrwt>
<rscale>  0 0.91451107E+02</rscale>
<asrwt>0</asrwt>
<pdfrwt beam="1">  1        4 0.19675512E-01 0.91451107E+02</pdfrwt>
<pdfrwt beam="2">  1       -4 0.25151575E-02 0.91451107E+02</pdfrwt>
<totfact> 0.23772175E+04</totfact>
</mgrwt>
</event>
<event>
 5    1  0.3921687E+001  0.9122248E+02  0.7546771E-02  0.1299918E+00
          2   -1    0    0  501    0  0.00000000000E+00  0.00000000000E+00  0.15334062750E+03  0.15334062750E+03  0.00000000000E+00 0. -1.
         -2   -1    0    0    0  501 -0.00000000000E+00 -0.00000000000E+00 -0.13567083079E+02  0.13567083079E+02  0.00000000000E+00 0.  1.
         23    2    1    2    0    0  0.00000000000E+00  0.00000000000E+00  0.13977354442E+03  0.16690771058E+03  0.91222476020E+02 0.  0.
          2    1    3    3  502    0 -0.15998355624E+02 -0.42712552436E+02  0.69383978610E+02  0.83032800784E+02  0.00000000000E+00 0. -1.
         -2    1    3    3    0  502  0.15998355624E+02  0.42712552436E+02  0.70389565815E+02  0.83874909800E+02  0.00000000000E+00 0.  1.
<mgrwt>
<rscale>  0 0.91222476E+02</rscale>
<asrwt>0</asrwt>
<pdfrwt beam="1">  1        2 0.23590865E-01 0.91222476E+02</pdfrwt>
<pdfrwt beam="2">  1       -2 0.20872437E-02 0.91222476E+02</pdfrwt>
<totfact> 0.14067261E+05</totfact>
</mgrwt>
</event>
<event>
 5    1  0.3921687E+001  0.9909644E+02  0.7546771E-02  0.1282208E+00
          2   -1    0    0  501    0  0.00000000000E+00  0.00000000000E+00  0.14109942026E+04  0.14109942026E+04  0.00000000000E+00 0. -1.
         -2   -1    0    0    0  501 -0.00000000000E+00 -0.00000000000E+00 -0.17399263198E+01  0.17399263198E+01  0.00000000000E+00 0.  1.
         23    2    1    2    0    0  0.00000000000E+00  0.00000000000E+00  0.14092542763E+04  0.14127341289E+04  0.99096436872E+02 0.  0.
          2    1    3    3  502    0  0.12676046187E+02  0.18581450374E+02  0.75241966380E+02  0.78532196898E+02  0.00000000000E+00 0.  1.
         -2    1    3    3    0  502 -0.12676046187E+02 -0.18581450374E+02  0.13340123099E+04  0.13342019320E+04  0.00000000000E+00 0. -1.
<mgrwt>
<rscale>  0 0.99096437E+02</rscale>
<asrwt>0</asrwt>
<pdfrwt beam="1">  1        2 0.21707512E+00 0.99096437E+02</pdfrwt>
<pdfrwt beam="2">  1       -2 0.26768210E-03 0.99096437E+02</pdfrwt>
<totfact> 0.19323946E+05</totfact>
</mgrwt>
</event>
<event>
 5    1  0.3921687E+001  0.9239776E+02  0.7546771E-02  0.1297147E+00
         -1   -1    0    0    0  501 -0.00000000000E+00  0.00000000000E+00  0.78789274189E+00  0.78789274189E+00  0.00000000000E+00 0.  1.
          1   -1    0    0  501    0  0.00000000000E+00 -0.00000000000E+00 -0.27089174824E+04  0.27089174824E+04  0.00000000000E+00 0. -1.
         23    2    1    2    0    0  0.00000000000E+00  0.00000000000E+00 -0.27081295897E+04  0.27097053752E+04  0.92397758042E+02 0.  0.
          2    1    3    3  502    0  0.45187256399E+02 -0.75960862948E+00 -0.16351581084E+04  0.16357825358E+04  0.00000000000E+00 0. -1.
         -2    1    3    3    0  502 -0.45187256399E+02  0.75960862948E+00 -0.10729714813E+04  0.10739228393E+04  0.00000000000E+00 0.  1.
<mgrwt>
<rscale>  0 0.92397758E+02</rscale>
<asrwt>0</asrwt>
<pdfrwt beam="2">  1        1 0.41676776E+00 0.92397758E+02</pdfrwt>
<pdfrwt beam="1">  1       -1 0.12121100E-03 0.92397758E+02</pdfrwt>
<totfact> 0.41239674E+04</totfact>
</mgrwt>
</event>
<event>
 5    1  0.3921687E+001  0.9277595E+02  0.7546771E-02  0.1296265E+00
         -2   -1    0    0    0  501 -0.00000000000E+00  0.00000000000E+00  0.31762095629E+01  0.31762095629E+01  0.00000000000E+00 0.  1.
          2   -1    0    0  501    0  0.00000000000E+00 -0.00000000000E+00 -0.67748816840E+03  0.67748816840E+03  0.00000000000E+00 0. -1.
         23    2    1    2    0    0  0.00000000000E+00  0.00000000000E+00 -0.67431195884E+03  0.68066437797E+03  0.92775953765E+02 0.  0.
          2    1    3    3  502    0  0.38172584638E+02  0.23997586242E+02 -0.41712678468E+03  0.41955665274E+03  0.00000000000E+00 0. -1.
         -2    1    3    3    0  502 -0.38172584638E+02 -0.23997586242E+02 -0.25718517416E+03  0.26110772523E+03  0.00000000000E+00 0.  1.
<mgrwt>
<rscale>  0 0.92775954E+02</rscale>
<asrwt>0</asrwt>
<pdfrwt beam="2">  1        2 0.10422891E+00 0.92775954E+02</pdfrwt>
<pdfrwt beam="1">  1       -2 0.48864779E-03 0.92775954E+02</pdfrwt>
<totfact> 0.22473625E+05</totfact>
</mgrwt>
</event>
<event>
 5    1  0.3921687E+001  0.8628226E+02  0.7546771E-02  0.1312113E+00
         -4   -1    0    0    0  501 -0.00000000000E+00  0.00000000000E+00  0.31348502007E+03  0.31348502007E+03  0.00000000000E+00 0.  1.
          4   -1    0    0  501    0  0.00000000000E+00 -0.00000000000E+00 -0.59369891280E+01  0.59369891280E+01  0.00000000000E+00 0. -1.
         23    2    1    2    0    0  0.00000000000E+00  0.00000000000E+00  0.30754803094E+03  0.31942200920E+03  0.86282261351E+02 0.  0.
          2    1    3    3  502    0 -0.21272944194E+02  0.16442432781E+02  0.27867477709E+03  0.27996878958E+03  0.00000000000E+00 0.  1.
         -2    1    3    3    0  502  0.21272944194E+02 -0.16442432781E+02  0.28873253846E+02  0.39453219616E+02  0.00000000000E+00 0. -1.
<mgrwt>
<rscale>  0 0.86282261E+02</rscale>
<asrwt>0</asrwt>
<pdfrwt beam="2">  1        4 0.91338318E-03 0.86282261E+02</pdfrwt>
<pdfrwt beam="1">  1       -4 0.48228452E-01 0.86282261E+02</pdfrwt>
<totfact> 0.19949318E+04</totfact>
</mgrwt>
</event>
<event>
 5    1  0.3921687E+001  0.9090715E+02  0.7546771E-02  0.1300670E+00
          1   -1    0    0  501    0  0.00000000000E+00  0.00000000000E+00  0.52470464393E+02  0.52470464393E+02  0.00000000000E+00 0. -1.
         -1   -1    0    0    0  501 -0.00000000000E+00 -0.00000000000E+00 -0.39375052253E+02  0.39375052253E+02  0.00000000000E+00 0.  1.
         23    2    1    2    0    0  0.00000000000E+00  0.00000000000E+00  0.13095412139E+02  0.91845516646E+02  0.90907145533E+02 0.  0.
          2    1    3    3  502    0  0.23395003508E+02 -0.17853732333E+02  0.41545500041E+02  0.50912773653E+02  0.00000000000E+00 0. -1.
         -2    1    3    3    0  502 -0.23395003508E+02  0.17853732333E+02 -0.28450087901E+02  0.40932742994E+02  0.00000000000E+00 0.  1.
<mgrwt>
<rscale>  0 0.90907146E+02</rscale>
<asrwt>0</asrwt>
<pdfrwt beam="1">  1        1 0.80723792E-02 0.90907146E+02</pdfrwt>
<pdfrwt beam="2">  1       -1 0.60577003E-02 0.90907146E+02</pdfrwt>
<totfact> 0.95228539E+04</totfact>
</mgrwt>
</event>
<event>
 5    1  0.3921687E+001  0.8878484E+02  0.7546771E-02  0.1305821E+00
          2   -1    0    0  501    0  0.00000000000E+00  0.00000000000E+00  0.38420978643E+02  0.38420978643E+02  0.00000000000E+00 0. -1.
         -2   -1    0    0    0  501 -0.00000000000E+00 -0.00000000000E+00 -0.51291954544E+02  0.51291954544E+02  0.00000000000E+00 0.  1.
         23    2    1    2    0    0  0.00000000000E+00  0.00000000000E+00 -0.12870975901E+02  0.89712933186E+02  0.88784843077E+02 0.  0.
          2    1    3    3  502    0  0.11384566162E+02  0.29224987760E+02  0.25309132904E+02  0.40302114890E+02  0.00000000000E+00 0. -1.
         -2    1    3    3    0  502 -0.11384566162E+02 -0.29224987760E+02 -0.38180108805E+02  0.49410818296E+02  0.00000000000E+00 0.  1.
<mgrwt>
<rscale>  0 0.88784843E+02</rscale>
<asrwt>0</asrwt>
<pdfrwt beam="1">  1        2 0.59109198E-02 0.88784843E+02</pdfrwt>
<pdfrwt beam="2">  1       -2 0.78910699E-02 0.88784843E+02</pdfrwt>
<totfact> 0.10194997E+05</totfact>
</mgrwt>
</event>
<event>
 5    1  0.3921687E+001  0.8972852E+02  0.7546771E-02  0.1303510E+00
         -1   -1    0    0    0  501 -0.00000000000E+00  0.00000000000E+00  0.22807000981E+01  0.22807000981E+01  0.00000000000E+00 0.  1.
          1   -1    0    0  501    0  0.00000000000E+00 -0.00000000000E+00 -0.88253673143E+03  0.88253673143E+03  0.00000000000E+00 0. -1.
         23    2    1    2    0    0  0.00000000000E+00  0.00000000000E+00 -0.88025603133E+03  0.88481743153E+03  0.89728515199E+02 0.  0.
          2    1    3    3  502    0 -0.19951418805E+02  0.63043345822E+01 -0.83147606476E+03  0.83173929209E+03  0.00000000000E+00 0. -1.
         -2    1    3    3    0  502  0.19951418805E+02 -0.63043345822E+01 -0.48779966573E+02  0.53078139434E+02  0.00000000000E+00 0.  1.
<mgrwt>
<rscale>  0 0.89728515E+02</rscale>
<asrwt>0</asrwt>
<pdfrwt beam="2">  1        1 0.13577474E+00 0.89728515E+02</pdfrwt>
<pdfrwt beam="1">  1       -1 0.35087730E-03 0.89728515E+02</pdfrwt>
<totfact> 0.14565964E+05</totfact>
</mgrwt>
</event>
<event>
 5    1  0.3921687E+001  0.9228969E+02  0.7546771E-02  0.1297400E+00
         -1   -1    0    0    0  501 -0.00000000000E+00  0.00000000000E+00  0.81812046583E+01  0.81812046583E+01  0.00000000000E+00 0.  1.
          1   -1    0    0  501    0  0.00000000000E+00 -0.00000000000E+00 -0.26027299139E+03  0.26027299139E+03  0.00000000000E+00 0. -1.
         23    2    1    2    0    0  0.00000000000E+00  0.00000000000E+00 -0.25209178673E+03  0.26845419604E+03  0.92289687605E+02 0.  0.
          2    1    3    3  502    0 -0.93338134310E+01 -0.44853546398E+02 -0.11001147696E+03  0.11916998683E+03  0.00000000000E+00 0. -1.
         -2    1    3    3    0  502  0.93338134310E+01  0.44853546398E+02 -0.14208030977E+03  0.14928420922E+03  0.00000000000E+00 0.  1.
<mgrwt>
<rscale>  0 0.92289688E+02</rscale>
<asrwt>0</asrwt>
<pdfrwt beam="2">  1        1 0.40041991E-01 0.92289688E+02</pdfrwt>
<pdfrwt beam="1">  1       -1 0.12586471E-02 0.92289688E+02</pdfrwt>
<totfact> 0.12066769E+05</totfact>
</mgrwt>
</event>
<event>
 5    1  0.3921687E+001  0.9136688E+02  0.7546771E-02  0.1299575E+00
          1   -1    0    0  501    0  0.00000000000E+00  0.00000000000E+00  0.11099830620E+03  0.11099830620E+03  0.00000000000E+00 0. -1.
         -1   -1    0    0    0  501 -0.00000000000E+00 -0.00000000000E+00 -0.18801879594E+02  0.18801879594E+02  0.00000000000E+00 0.  1.
         23    2    1    2    0    0  0.00000000000E+00  0.00000000000E+00  0.92196426611E+02  0.12980018580E+03  0.91366882148E+02 0.  0.
          2    1    3    3  502    0  0.33213078543E+02 -0.25216183896E+02  0.72600526883E+02  0.83724554465E+02  0.00000000000E+00 0. -1.
         -2    1    3    3    0  502 -0.33213078543E+02  0.25216183896E+02  0.19595899728E+02  0.46075631334E+02  0.00000000000E+00 0.  1.
<mgrwt>
<rscale>  0 0.91366882E+02</rscale>
<asrwt>0</asrwt>
<pdfrwt beam="1">  1        1 0.17076662E-01 0.91366882E+02</pdfrwt>
<pdfrwt beam="2">  1       -1 0.28925969E-02 0.91366882E+02</pdfrwt>
<totfact> 0.10570260E+05</totfact>
</mgrwt>
</event>
<event>
 5    1  0.3921687E+001  0.9717262E+02  0.7546771E-02  0.1286356E+00
         -1   -1    0    0    0  501 -0.00000000000E+00  0.00000000000E+00  0.12896590761E+03  0.12896590761E+03  0.00000000000E+00 0.  1.
          1   -1    0    0  501    0  0.00000000000E+00 -0.00000000000E+00 -0.18304292094E+02  0.18304292094E+02  0.00000000000E+00 0. -1.
         23    2    1    2    0    0  0.00000000000E+00  0.00000000000E+00  0.11066161552E+03  0.14727019970E+03  0.97172622545E+02 0.  0.
          2    1    3    3  502    0 -0.18903330303E+02 -0.25364608838E+02 -0.55857166369E+00  0.31638762308E+02  0.00000000000E+00 0. -1.
         -2    1    3    3    0  502  0.18903330303E+02  0.25364608838E+02  0.11122018718E+03  0.11563143740E+03  0.00000000000E+00 0.  1.
<mgrwt>
<rscale>  0 0.97172623E+02</rscale>
<asrwt>0</asrwt>
<pdfrwt beam="2">  1        1 0.28160450E-02 0.97172623E+02</pdfrwt>
<pdfrwt beam="1">  1       -1 0.19840908E-01 0.97172623E+02</pdfrwt>
<totfact> 0.65576350E+04</totfact>
</mgrwt>
</event>
<event>
 5    1  0.3921687E+001  0.8740197E+02  0.7546771E-02  0.1309268E+00
          1   -1    0    0  501    0  0.00000000000E+00  0.00000000000E+00  0.14903877744E+03  0.14903877744E+03  0.00000000000E+00 0. -1.
         -1   -1    0    0    0  501 -0.00000000000E+00 -0.00000000000E+00 -0.12813955639E+02  0.12813955639E+02  0.00000000000E+00 0.  1.
         23    2    1    2    0    0  0.00000000000E+00  0.00000000000E+00  0.13622482180E+03  0.16185273308E+03  0.87401974407E+02 0.  0.
          2    1    3    3  502    0  0.40659290783E+02 -0.15242908446E+02  0.58992860072E+02  0.73250813814E+02  0.00000000000E+00 0.  1.
         -2    1    3    3    0  502 -0.40659290783E+02  0.15242908446E+02  0.77231961730E+02  0.88601919266E+02  0.00000000000E+00 0. -1.
<mgrwt>
<rscale>  0 0.87401974E+02</rscale>
<asrwt>0</asrwt>
<pdfrwt beam="1">  1        1 0.22929041E-01 0.87401974E+02</pdfrwt>
<pdfrwt beam="2">  1       -1 0.19713779E-02 0.87401974E+02</pdfrwt>
<totfact> 0.12548935E+05</totfact>
</mgrwt>
</event>
<event>
 5    1  0.3921687E+001  0.9149980E+02  0.7546771E-02  0.1299260E+00
         -3   -1    0    0    0  501 -0.00000000000E+00  0.00000000000E+00  0.17768537894E+04  0.17768537894E+04  0.00000000000E+00 0.  1.
          3   -1    0    0  501    0  0.00000000000E+00 -0.00000000000E+00 -0.11779547861E+01  0.11779547861E+01  0.00000000000E+00 0. -1.
         23    2    1    2    0    0  0.00000000000E+00  0.00000000000E+00  0.17756758347E+04  0.17780317442E+04  0.91499801649E+02 0.  0.
          2    1    3    3  502    0  0.21867127938E+02 -0.38551971532E+02  0.66745065228E+03  0.66892062236E+03  0.00000000000E+00 0. -1.
         -2    1    3    3    0  502 -0.21867127938E+02  0.38551971532E+02  0.11082251824E+04  0.11091111219E+04  0.00000000000E+00 0.  1.
<mgrwt>
<rscale>  0 0.91499802E+02</rscale>
<asrwt>0</asrwt>
<pdfrwt beam="2">  1        3 0.18122524E-03 0.91499802E+02</pdfrwt>
<pdfrwt beam="1">  1       -3 0.27335998E+00 0.91499802E+02</pdfrwt>
<totfact> 0.45305486E+03</totfact>
</mgrwt>
</event>
<event>
 5    1  0.3921687E+001  0.8930534E+02  0.7546771E-02  0.1304543E+00
         -1   -1    0    0    0  501 -0.00000000000E+00  0.00000000000E+00  0.10239012440E+01  0.10239012440E+01  0.00000000000E+00 0.  1.
          1   -1    0    0  501    0  0.00000000000E+00 -0.00000000000E+00 -0.19473177871E+04  0.19473177871E+04  0.00000000000E+00 0. -1.
         23    2    1    2    0    0  0.00000000000E+00  0.00000000000E+00 -0.19462938859E+04  0.19483416884E+04  0.89305343730E+02 0.  0.
          2    1    3    3  502    0 -0.13368667366E+02 -0.27723791305E+02 -0.16789178854E+04  0.16791999868E+04  0.00000000000E+00 0. -1.
         -2    1    3    3    0  502  0.13368667366E+02  0.27723791305E+02 -0.26737600054E+03  0.26914170159E+03  0.00000000000E+00 0.  1.
<mgrwt>
<rscale>  0 0.89305344E+02</rscale>
<asrwt>0</asrwt>
<pdfrwt beam="2">  1        1 0.29958870E+00 0.89305344E+02</pdfrwt>
<pdfrwt beam="1">  1       -1 0.15752256E-03 0.89305344E+02</pdfrwt>
<totfact> 0.87610869E+04</totfact>
</mgrwt>
</event>
<event>
 5    1  0.3921687E+001  0.1175214E+03  0.7546771E-02  0.1247243E+00
          1   -1    0    0  501    0  0.00000000000E+00  0.00000000000E+00  0.59604003961E+01  0.59604003961E+01  0.00000000000E+00 0. -1.
         -1   -1    0    0    0  501 -0.00000000000E+00 -0.00000000000E+00 -0.57929326338E+03  0.57929326338E+03  0.00000000000E+00 0.  1.
         23    2    1    2    0    0  0.00000000000E+00  0.00000000000E+00 -0.57333286298E+03  0.58525366377E+03  0.11752139884E+03 0.  0.
          2    1    3    3  502    0  0.90658226125E+01 -0.52078891360E+02 -0.41445105792E+03  0.41780866371E+03  0.00000000000E+00 0.  1.
         -2    1    3    3    0  502 -0.90658226125E+01  0.52078891360E+02 -0.15888180507E+03  0.16744500006E+03  0.00000000000E+00 0. -1.
<mgrwt>
<rscale>  0 0.11752140E+03</rscale>
<asrwt>0</asrwt>
<pdfrwt beam="1">  1        1 0.91698470E-03 0.11752140E+03</pdfrwt>
<pdfrwt beam="2">  1       -1 0.89122038E-01 0.11752140E+03</pdfrwt>
<totfact> 0.21781811E+04</totfact>
</mgrwt>
</event>
<event>
 5    1  0.3921687E+001  0.8998676E+02  0.7546771E-02  0.1302884E+00
          2   -1    0    0  501    0  0.00000000000E+00  0.00000000000E+00  0.20649779920E+04  0.20649779920E+04  0.00000000000E+00 0. -1.
         -2   -1    0    0    0  501 -0.00000000000E+00 -0.00000000000E+00 -0.98035151068E+00  0.98035151068E+00  0.00000000000E+00 0.  1.
         23    2    1    2    0    0  0.00000000000E+00  0.00000000000E+00  0.20639976405E+04  0.20659583435E+04  0.89986761115E+02 0.  0.
          2    1    3    3  502    0 -0.27539630847E+02  0.31726009807E+02  0.66220825732E+03  0.66353955951E+03  0.00000000000E+00 0. -1.
         -2    1    3    3    0  502  0.27539630847E+02 -0.31726009807E+02  0.14017893832E+04  0.14024187840E+04  0.00000000000E+00 0.  1.
<mgrwt>
<rscale>  0 0.89986761E+02</rscale>
<asrwt>0</asrwt>
<pdfrwt beam="1">  1        2 0.31768544E+00 0.89986761E+02</pdfrwt>
<pdfrwt beam="2">  1       -2 0.15082496E-03 0.89986761E+02</pdfrwt>
<totfact> 0.19751965E+05</totfact>
</mgrwt>
</event>
<event>
 5    1  0.3921687E+001  0.9355413E+02  0.7546771E-02  0.1294466E+00
          2   -1    0    0  501    0  0.00000000000E+00  0.00000000000E+00  0.50579816676E+03  0.50579816676E+03  0.00000000000E+00 0. -1.
         -2   -1    0    0    0  501 -0.00000000000E+00 -0.00000000000E+00 -0.43260219744E+01  0.43260219744E+01  0.00000000000E+00 0.  1.
         23    2    1    2    0    0  0.00000000000E+00  0.00000000000E+00  0.50147214479E+03  0.51012418874E+03  0.93554133720E+02 0.  0.
          2    1    3    3  502    0  0.35317497783E+02 -0.30334736867E+02  0.22600448629E+03  0.23074997234E+03  0.00000000000E+00 0. -1.
         -2    1    3    3    0  502 -0.35317497783E+02  0.30334736867E+02  0.27546765849E+03  0.27937421640E+03  0.00000000000E+00 0.  1.
<mgrwt>
<rscale>  0 0.93554134E+02</rscale>
<asrwt>0</asrwt>
<pdfrwt beam="1">  1        2 0.77815056E-01 0.93554134E+02</pdfrwt>
<pdfrwt beam="2">  1       -2 0.66554224E-03 0.93554134E+02</pdfrwt>
<totfact> 0.20203671E+05</totfact>
</mgrwt>
</event>
<event>
 5    1  0.3921687E+001  0.9059522E+02  0.7546771E-02  0.1301417E+00
         -3   -1    0    0    0  501 -0.00000000000E+00  0.00000000000E+00  0.55706912974E+02  0.55706912974E+02  0.00000000000E+00 0.  1.
          3   -1    0    0  501    0  0.00000000000E+00 -0.00000000000E+00 -0.36833371962E+02  0.36833371962E+02  0.00000000000E+00 0. -1.
         23    2    1    2    0    0  0.00000000000E+00  0.00000000000E+00  0.18873541013E+02  0.92540284936E+02  0.90595219442E+02 0.  0.
          2    1    3    3  502    0  0.26836462688E+02 -0.22714868847E+02 -0.19737103065E+02  0.40320146748E+02  0.00000000000E+00 0. -1.
         -2    1    3    3    0  502 -0.26836462688E+02  0.22714868847E+02  0.38610644077E+02  0.52220138188E+02  0.00000000000E+00 0.  1.
<mgrwt>
<rscale>  0 0.90595219E+02</rscale>
<asrwt>0</asrwt>
<pdfrwt beam="2">  1        3 0.56666726E-02 0.90595219E+02</pdfrwt>
<pdfrwt beam="1">  1       -3 0.85702943E-02 0.90595219E+02</pdfrwt>
<totfact> 0.35853650E+04</totfact>
</mgrwt>
</event>
<event>
 5    1  0.3921687E+001  0.9064056E+02  0.7546771E-02  0.1301308E+00
          1   -1    0    0  501    0  0.00000000000E+00  0.00000000000E+00  0.13171682739E+04  0.13171682739E+04  0.00000000000E+00 0. -1.
         -1   -1    0    0    0  501 -0.00000000000E+00 -0.00000000000E+00 -0.15593510444E+01  0.15593510444E+01  0.00000000000E+00 0.  1.
         23    2    1    2    0    0  0.00000000000E+00  0.00000000000E+00  0.13156089229E+04  0.13187276250E+04  0.90640558771E+02 0.  0.
          2    1    3    3  502    0 -0.15452894120E+02  0.27911792751E+02  0.18950185095E+03  0.19216870615E+03  0.00000000000E+00 0.  1.
         -2    1    3    3    0  502  0.15452894120E+02 -0.27911792751E+02  0.11261070719E+04  0.11265589188E+04  0.00000000000E+00 0. -1.
<mgrwt>
<rscale>  0 0.90640559E+02</rscale>
<asrwt>0</asrwt>
<pdfrwt beam="1">  1        1 0.20264038E+00 0.90640559E+02</pdfrwt>
<pdfrwt beam="2">  1       -1 0.23990121E-03 0.90640559E+02</pdfrwt>
<totfact> 0.12303135E+05</totfact>
</mgrwt>
</event>
<event>
 5    1  0.3921687E+001  0.8979570E+02  0.7546771E-02  0.1303347E+00
          1   -1    0    0  501    0  0.00000000000E+00  0.00000000000E+00  0.18856590994E+03  0.18856590994E+03  0.00000000000E+00 0. -1.
         -1   -1    0    0    0  501 -0.00000000000E+00 -0.00000000000E+00 -0.10690250327E+02  0.10690250327E+02  0.00000000000E+00 0.  1.
         23    2    1    2    0    0  0.00000000000E+00  0.00000000000E+00  0.17787565962E+03  0.19925616027E+03  0.89795696567E+02 0.  0.
          2    1    3    3  502    0 -0.34501040357E+02  0.19883688667E+02  0.13495904470E+03  0.14071114600E+03  0.00000000000E+00 0. -1.
         -2    1    3    3    0  502  0.34501040357E+02 -0.19883688667E+02  0.42916614916E+02  0.58545014276E+02  0.00000000000E+00 0.  1.
<mgrwt>
<rscale>  0 0.89795697E+02</rscale>
<asrwt>0</asrwt>
<pdfrwt beam="1">  1        1 0.29010138E-01 0.89795697E+02</pdfrwt>
<pdfrwt beam="2">  1       -1 0.16446540E-02 0.89795697E+02</pdfrwt>
<totfact> 0.12195587E+05</totfact>
</mgrwt>
</event>
<event>
 5    1  0.3921687E+001  0.9132661E+02  0.7546771E-02  0.1299671E+00
         -2   -1    0    0    0  501 -0.00000000000E+00  0.00000000000E+00  0.11845153793E+02  0.11845153793E+02  0.00000000000E+00 0.  1.
          2   -1    0    0  501    0  0.00000000000E+00 -0.00000000000E+00 -0.17603293925E+03  0.17603293925E+03  0.00000000000E+00 0. -1.
         23    2    1    2    0    0  0.00000000000E+00  0.00000000000E+00 -0.16418778545E+03  0.18787809304E+03  0.91326605936E+02 0.  0.
          2    1    3    3  502    0 -0.32093666687E+01  0.34395852714E+02 -0.14352713450E+03  0.14762592271E+03  0.00000000000E+00 0. -1.
         -2    1    3    3    0  502  0.32093666687E+01 -0.34395852714E+02 -0.20660650953E+02  0.40252170328E+02  0.00000000000E+00 0.  1.
<mgrwt>
<rscale>  0 0.91326606E+02</rscale>
<asrwt>0</asrwt>
<pdfrwt beam="2">  1        2 0.27081992E-01 0.91326606E+02</pdfrwt>
<pdfrwt beam="1">  1       -2 0.18223313E-02 0.91326606E+02</pdfrwt>
<totfact> 0.14712151E+05</totfact>
</mgrwt>
</event>
<event>
 5    1  0.3921687E+001  0.9162606E+02  0.7546771E-02  0.1298961E+00
          2   -1    0    0  501    0  0.00000000000E+00  0.00000000000E+00  0.39033349450E+03  0.39033349450E+03  0.00000000000E+00 0. -1.
         -2   -1    0    0    0  501 -0.00000000000E+00 -0.00000000000E+00 -0.53770265253E+01  0.53770265253E+01  0.00000000000E+00 0.  1.
         23    2    1    2    0    0  0.00000000000E+00  0.00000000000E+00  0.38495646797E+03  0.39571052103E+03  0.91626056417E+02 0.  0.
          2    1    3    3  502    0 -0.23168973360E+02  0.19042626959E+02  0.34204756153E+03  0.34335980737E+03  0.00000000000E+00 0. -1.
         -2    1    3    3    0  502  0.23168973360E+02 -0.19042626959E+02  0.42908906446E+02  0.52350713657E+02  0.00000000000E+00 0.  1.
<mgrwt>
<rscale>  0 0.91626056E+02</rscale>
<asrwt>0</asrwt>
<pdfrwt beam="1">  1        2 0.60051285E-01 0.91626056E+02</pdfrwt>
<pdfrwt beam="2">  1       -2 0.82723515E-03 0.91626056E+02</pdfrwt>
<totfact> 0.19531257E+05</totfact>
</mgrwt>
</event>
<event>
 5    1  0.3921687E+001  0.9173081E+02  0.7546771E-02  0.1298714E+00
          1   -1    0    0  501    0  0.00000000000E+00  0.00000000000E+00  0.69535676858E+01  0.69535676858E+01  0.00000000000E+00 0. -1.
         -1   -1    0    0    0  501 -0.00000000000E+00 -0.00000000000E+00 -0.30252602142E+03  0.30252602142E+03  0.00000000000E+00 0.  1.
         23    2    1    2    0    0  0.00000000000E+00  0.00000000000E+00 -0.29557245373E+03  0.30947958910E+03  0.91730805439E+02 0.  0.
          2    1    3    3  502    0 -0.79544417134E+01  0.40882555759E+02 -0.82979896796E+02  0.92845677231E+02  0.00000000000E+00 0.  1.
         -2    1    3    3    0  502  0.79544417134E+01 -0.40882555759E+02 -0.21259255693E+03  0.21663391187E+03  0.00000000000E+00 0. -1.
<mgrwt>
<rscale>  0 0.91730805E+02</rscale>
<asrwt>0</asrwt>
<pdfrwt beam="1">  1        1 0.10697796E-02 0.91730805E+02</pdfrwt>
<pdfrwt beam="2">  1       -1 0.46542465E-01 0.91730805E+02</pdfrwt>
<totfact> 0.59436039E+04</totfact>
</mgrwt>
</event>
<event>
 5    1  0.3921687E+001  0.9081240E+02  0.7546771E-02  0.1300896E+00
         -1   -1    0    0    0  501 -0.00000000000E+00  0.00000000000E+00  0.29863470457E+02  0.29863470457E+02  0.00000000000E+00 0.  1.
          1   -1    0    0  501    0  0.00000000000E+00 -0.00000000000E+00 -0.69038298444E+02  0.69038298444E+02  0.00000000000E+00 0. -1.
         23    2    1    2    0    0  0.00000000000E+00  0.00000000000E+00 -0.39174827987E+02  0.98901768901E+02  0.90812404131E+02 0.  0.
          2    1    3    3  502    0  0.17697466518E+02  0.33630774029E+02 -0.46650369465E+02  0.60170476600E+02  0.00000000000E+00 0. -1.
         -2    1    3    3    0  502 -0.17697466518E+02 -0.33630774029E+02  0.74755414785E+01  0.38731292302E+02  0.00000000000E+00 0.  1.
<mgrwt>
<rscale>  0 0.90812404E+02</rscale>
<asrwt>0</asrwt>
<pdfrwt beam="2">  1        1 0.10621277E-01 0.90812404E+02</pdfrwt>
<pdfrwt beam="1">  1       -1 0.45943801E-02 0.90812404E+02</pdfrwt>
<totfact> 0.99550261E+04</totfact>
</mgrwt>
</event>
<event>
 5    1  0.3921687E+001  0.9302165E+02  0.7546771E-02  0.1295695E+00
         -2   -1    0    0    0  501 -0.00000000000E+00  0.00000000000E+00  0.24258254083E+02  0.24258254083E+02  0.00000000000E+00 0.  1.
          2   -1    0    0  501    0  0.00000000000E+00 -0.00000000000E+00 -0.89176107519E+02  0.89176107519E+02  0.00000000000E+00 0. -1.
         23    2    1    2    0    0  0.00000000000E+00  0.00000000000E+00 -0.64917853436E+02  0.11343436160E+03  0.93021646392E+02 0.  0.
          2    1    3    3  502    0  0.28942809110E+02 -0.11400463221E+02  0.97062133041E+01  0.32586305982E+02  0.00000000000E+00 0.  1.
         -2    1    3    3    0  502 -0.28942809110E+02  0.11400463221E+02 -0.74624066740E+02  0.80848055621E+02  0.00000000000E+00 0. -1.
<mgrwt>
<rscale>  0 0.93021646E+02</rscale>
<asrwt>0</asrwt>
<pdfrwt beam="2">  1        2 0.13719401E-01 0.93021646E+02</pdfrwt>
<pdfrwt beam="1">  1       -2 0.37320391E-02 0.93021646E+02</pdfrwt>
<totfact> 0.11213189E+05</totfact>
</mgrwt>
</event>
<event>
 5    1  0.3921687E+001  0.7669689E+02  0.7546771E-02  0.1338695E+00
         -1   -1    0    0    0  501 -0.00000000000E+00  0.00000000000E+00  0.42423167095E+01  0.42423167095E+01  0.00000000000E+00 0.  1.
          1   -1    0    0  501    0  0.00000000000E+00 -0.00000000000E+00 -0.34665096669E+03  0.34665096669E+03  0.00000000000E+00 0. -1.
         23    2    1    2    0    0  0.00000000000E+00  0.00000000000E+00 -0.34240864998E+03  0.35089328340E+03  0.76696888811E+02 0.  0.
          2    1    3    3  502    0 -0.14828986884E+02 -0.34206212705E+02 -0.13012050537E+03  0.13535623280E+03  0.00000000000E+00 0.  1.
         -2    1    3    3    0  502  0.14828986884E+02  0.34206212705E+02 -0.21228814460E+03  0.21553705060E+03  0.00000000000E+00 0. -1.
<mgrwt>
<rscale>  0 0.76696889E+02</rscale>
<asrwt>0</asrwt>
<pdfrwt beam="2">  1        1 0.53330945E-01 0.76696889E+02</pdfrwt>
<pdfrwt beam="1">  1       -1 0.65266378E-03 0.76696889E+02</pdfrwt>
<totfact> 0.20760130E+05</totfact>
</mgrwt>
</event>
<event>
 5    1  0.3921687E+001  0.9109367E+02  0.7546771E-02  0.1300225E+00
         -1   -1    0    0    0  501 -0.00000000000E+00  0.00000000000E+00  0.25806818057E+01  0.25806818057E+01  0.00000000000E+00 0.  1.
          1   -1    0    0  501    0  0.00000000000E+00 -0.00000000000E+00 -0.80386279235E+03  0.80386279235E+03  0.00000000000E+00 0. -1.
         23    2    1    2    0    0  0.00000000000E+00  0.00000000000E+00 -0.80128211054E+03  0.80644347415E+03  0.91093667892E+02 0.  0.
          2    1    3    3  502    0 -0.44164687460E+02 -0.76716976105E+01 -0.47209200716E+03  0.47421539176E+03  0.00000000000E+00 0. -1.
         -2    1    3    3    0  502  0.44164687460E+02  0.76716976105E+01 -0.32919010339E+03  0.33222808239E+03  0.00000000000E+00 0.  1.
<mgrwt>
<rscale>  0 0.91093668E+02</rscale>
<asrwt>0</asrwt>
<pdfrwt beam="2">  1        1 0.12367141E+00 0.91093668E+02</pdfrwt>
<pdfrwt beam="1">  1       -1 0.39702728E-03 0.91093668E+02</pdfrwt>
<totfact> 0.14157938E+05</totfact>
</mgrwt>
</event>
<event>
 5    1  0.3921687E+001  0.9068875E+02  0.7546771E-02  0.1301192E+00
         -3   -1    0    0    0  501 -0.00000000000E+00  0.00000000000E+00  0.46181627772E+01  0.46181627772E+01  0.00000000000E+00 0.  1.
          3   -1    0    0  501    0  0.00000000000E+00 -0.00000000000E+00 -0.44522301513E+03  0.44522301513E+03  0.00000000000E+00 0. -1.
         23    2    1    2    0    0  0.00000000000E+00  0.00000000000E+00 -0.44060485235E+03  0.44984117790E+03  0.90688750261E+02 0.  0.
          2    1    3    3  502    0 -0.35436872418E+01  0.44399682191E+02 -0.17814800544E+03  0.18363170026E+03  0.00000000000E+00 0. -1.
         -2    1    3    3    0  502  0.35436872418E+01 -0.44399682191E+02 -0.26245684691E+03  0.26620947765E+03  0.00000000000E+00 0.  1.
<mgrwt>
<rscale>  0 0.90688750E+02</rscale>
<asrwt>0</asrwt>
<pdfrwt beam="2">  1        3 0.68495844E-01 0.90688750E+02</pdfrwt>
<pdfrwt beam="1">  1       -3 0.71048662E-03 0.90688750E+02</pdfrwt>
<totfact> 0.19469973E+04</totfact>
</mgrwt>
</event>
<event>
 5    1  0.3921687E+001  0.9147168E+02  0.7546771E-02  0.1299326E+00
          1   -1    0    0  501    0  0.00000000000E+00  0.00000000000E+00  0.28474499730E+03  0.28474499730E+03  0.00000000000E+00 0. -1.
         -1   -1    0    0    0  501 -0.00000000000E+00 -0.00000000000E+00 -0.73461059292E+01  0.73461059292E+01  0.00000000000E+00 0.  1.
         23    2    1    2    0    0  0.00000000000E+00  0.00000000000E+00  0.27739889137E+03  0.29209110323E+03  0.91471676774E+02 0.  0.
          2    1    3    3  502    0 -0.23165602365E+02 -0.25562222197E+01  0.26436017171E+03  0.26538553049E+03  0.00000000000E+00 0. -1.
         -2    1    3    3    0  502  0.23165602365E+02  0.25562222197E+01  0.13038719655E+02  0.26705572737E+02  0.00000000000E+00 0.  1.
<mgrwt>
<rscale>  0 0.91471677E+02</rscale>
<asrwt>0</asrwt>
<pdfrwt beam="1">  1        1 0.43806914E-01 0.91471677E+02</pdfrwt>
<pdfrwt beam="2">  1       -1 0.11301704E-02 0.91471677E+02</pdfrwt>
<totfact> 0.12575668E+05</totfact>
</mgrwt>
</event>
<event>
 5    1  0.3921687E+001  0.9896693E+02  0.7546771E-02  0.1282483E+00
          2   -1    0    0  501    0  0.00000000000E+00  0.00000000000E+00  0.38589265412E+01  0.38589265412E+01  0.00000000000E+00 0. -1.
         -2   -1    0    0    0  501 -0.00000000000E+00 -0.00000000000E+00 -0.63453220644E+03  0.63453220644E+03  0.00000000000E+00 0.  1.
         23    2    1    2    0    0  0.00000000000E+00  0.00000000000E+00 -0.63067327989E+03  0.63839113298E+03  0.98966927256E+02 0.  0.
          2    1    3    3  502    0 -0.12777548222E+01 -0.38926384755E+02 -0.11843978034E+03  0.12467909871E+03  0.00000000000E+00 0. -1.
         -2    1    3    3    0  502  0.12777548222E+01  0.38926384755E+02 -0.51223349955E+03  0.51371203427E+03  0.00000000000E+00 0.  1.
<mgrwt>
<rscale>  0 0.98966927E+02</rscale>
<asrwt>0</asrwt>
<pdfrwt beam="1">  1        2 0.59368111E-03 0.98966927E+02</pdfrwt>
<pdfrwt beam="2">  1       -2 0.97620322E-01 0.98966927E+02</pdfrwt>
<totfact> 0.24044464E+04</totfact>
</mgrwt>
</event>
<event>
 5    1  0.3921687E+001  0.9163797E+02  0.7546771E-02  0.1298933E+00
          1   -1    0    0  501    0  0.00000000000E+00  0.00000000000E+00  0.38171709666E+03  0.38171709666E+03  0.00000000000E+00 0. -1.
         -1   -1    0    0    0  501 -0.00000000000E+00 -0.00000000000E+00 -0.54998308218E+01  0.54998308218E+01  0.00000000000E+00 0.  1.
         23    2    1    2    0    0  0.00000000000E+00  0.00000000000E+00  0.37621726584E+03  0.38721692748E+03  0.91637971462E+02 0.  0.
          2    1    3    3  502    0  0.43270185181E+02 -0.20928945470E+01  0.25116508593E+03  0.25487367365E+03  0.00000000000E+00 0. -1.
         -2    1    3    3    0  502 -0.43270185181E+02  0.20928945470E+01  0.12505217991E+03  0.13234325383E+03  0.00000000000E+00 0.  1.
<mgrwt>
<rscale>  0 0.91637971E+02</rscale>
<asrwt>0</asrwt>
<pdfrwt beam="1">  1        1 0.58725687E-01 0.91637971E+02</pdfrwt>
<pdfrwt beam="2">  1       -1 0.84612812E-03 0.91637971E+02</pdfrwt>
<totfact> 0.13205786E+05</totfact>
</mgrwt>
</event>
<event>
 5    1  0.3921687E+001  0.8788532E+02  0.7546771E-02  0.1308055E+00
         -2   -1    0    0    0  501 -0.00000000000E+00  0.00000000000E+00  0.16177595162E+01  0.16177595162E+01  0.00000000000E+00 0.  1.
          2   -1    0    0  501    0  0.00000000000E+00 -0.00000000000E+00 -0.11935997034E+04  0.11935997034E+04  0.00000000000E+00 0. -1.
         23    2    1    2    0    0  0.00000000000E+00  0.00000000000E+00 -0.11919819439E+04  0.11952174630E+04  0.87885317973E+02 0.  0.
          2    1    3    3  502    0  0.39899880439E+02  0.18402460596E+02 -0.60351721858E+03  0.60511460413E+03  0.00000000000E+00 0. -1.
         -2    1    3    3    0  502 -0.39899880439E+02 -0.18402460596E+02 -0.58846472535E+03  0.59010285883E+03  0.00000000000E+00 0.  1.
<mgrwt>
<rscale>  0 0.87885318E+02</rscale>
<asrwt>0</asrwt>
<pdfrwt beam="2">  1        2 0.18363140E+00 0.87885318E+02</pdfrwt>
<pdfrwt beam="1">  1       -2 0.24888517E-03 0.87885318E+02</pdfrwt>
<totfact> 0.27407382E+05</totfact>
</mgrwt>
</event>
<event>
 5    1  0.3921687E+001  0.9012839E+02  0.7546771E-02  0.1302541E+00
         -2   -1    0    0    0  501 -0.00000000000E+00  0.00000000000E+00  0.36686097741E+01  0.36686097741E+01  0.00000000000E+00 0.  1.
          2   -1    0    0  501    0  0.00000000000E+00 -0.00000000000E+00 -0.55355623811E+03  0.55355623811E+03  0.00000000000E+00 0. -1.
         23    2    1    2    0    0  0.00000000000E+00  0.00000000000E+00 -0.54988762834E+03  0.55722484789E+03  0.90128393432E+02 0.  0.
          2    1    3    3  502    0  0.96555047424E+01  0.27080262386E+02 -0.48948980324E+03  0.49033339358E+03  0.00000000000E+00 0. -1.
         -2    1    3    3    0  502 -0.96555047424E+01 -0.27080262386E+02 -0.60397825097E+02  0.66891454306E+02  0.00000000000E+00 0.  1.
<mgrwt>
<rscale>  0 0.90128393E+02</rscale>
<asrwt>0</asrwt>
<pdfrwt beam="2">  1        2 0.85162474E-01 0.90128393E+02</pdfrwt>
<pdfrwt beam="1">  1       -2 0.56440166E-03 0.90128393E+02</pdfrwt>
<totfact> 0.22941449E+05</totfact>
</mgrwt>
</event>
<event>
 5    1  0.3921687E+001  0.9193737E+02  0.7546771E-02  0.1298227E+00
         -1   -1    0    0    0  501 -0.00000000000E+00  0.00000000000E+00  0.12041593624E+02  0.12041593624E+02  0.00000000000E+00 0.  1.
          1   -1    0    0  501    0  0.00000000000E+00 -0.00000000000E+00 -0.17548506610E+03  0.17548506610E+03  0.00000000000E+00 0. -1.
         23    2    1    2    0    0  0.00000000000E+00  0.00000000000E+00 -0.16344347248E+03  0.18752665973E+03  0.91937366792E+02 0.  0.
          2    1    3    3  502    0 -0.37774343177E+02  0.13573222846E+01 -0.13508206662E+03  0.14027083820E+03  0.00000000000E+00 0. -1.
         -2    1    3    3    0  502  0.37774343177E+02 -0.13573222846E+01 -0.28361405859E+02  0.47255821530E+02  0.00000000000E+00 0.  1.
<mgrwt>
<rscale>  0 0.91937367E+02</rscale>
<asrwt>0</asrwt>
<pdfrwt beam="2">  1        1 0.26997700E-01 0.91937367E+02</pdfrwt>
<pdfrwt beam="1">  1       -1 0.18525530E-02 0.91937367E+02</pdfrwt>
<totfact> 0.11291252E+05</totfact>
</mgrwt>
</event>
<event>
 5    1  0.3921687E+001  0.9247712E+02  0.7546771E-02  0.1296961E+00
         -3   -1    0    0    0  501 -0.00000000000E+00  0.00000000000E+00  0.60903047888E+01  0.60903047888E+01  0.00000000000E+00 0. -1.
          3   -1    0    0  501    0  0.00000000000E+00 -0.00000000000E+00 -0.35105051919E+03  0.35105051919E+03  0.00000000000E+00 0.  1.
         23    2    1    2    0    0  0.00000000000E+00  0.00000000000E+00 -0.34496021440E+03  0.35714082398E+03  0.92477124915E+02 0.  0.
          2    1    3    3  502    0 -0.18881097471E+02 -0.40637695456E+02 -0.12843260029E+03  0.13602518498E+03  0.00000000000E+00 0. -1.
         -2    1    3    3    0  502  0.18881097471E+02  0.40637695456E+02 -0.21652761411E+03  0.22111563899E+03  0.00000000000E+00 0.  1.
<mgrwt>
<rscale>  0 0.92477125E+02</rscale>
<asrwt>0</asrwt>
<pdfrwt beam="2">  1        3 0.54007783E-01 0.92477125E+02</pdfrwt>
<pdfrwt beam="1">  1       -3 0.93696977E-03 0.92477125E+02</pdfrwt>
<totfact> 0.21156932E+04</totfact>
</mgrwt>
</event>
<event>
 5    1  0.3921687E+001  0.9431365E+02  0.7546771E-02  0.1292729E+00
         -1   -1    0    0    0  501 -0.00000000000E+00  0.00000000000E+00  0.40871497807E+02  0.40871497807E+02  0.00000000000E+00 0.  1.
          1   -1    0    0  501    0  0.00000000000E+00 -0.00000000000E+00 -0.54408723909E+02  0.54408723909E+02  0.00000000000E+00 0. -1.
         23    2    1    2    0    0  0.00000000000E+00  0.00000000000E+00 -0.13537226101E+02  0.95280221716E+02  0.94313647791E+02 0.  0.
          2    1    3    3  502    0 -0.42905956594E+02  0.18926963112E+02 -0.11780809693E+02  0.48352233878E+02  0.00000000000E+00 0. -1.
         -2    1    3    3    0  502  0.42905956594E+02 -0.18926963112E+02 -0.17564164083E+01  0.46927987838E+02  0.00000000000E+00 0.  1.
<mgrwt>
<rscale>  0 0.94313648E+02</rscale>
<asrwt>0</asrwt>
<pdfrwt beam="2">  1        1 0.83705729E-02 0.94313648E+02</pdfrwt>
<pdfrwt beam="1">  1       -1 0.62879227E-02 0.94313648E+02</pdfrwt>
<totfact> 0.86395223E+04</totfact>
</mgrwt>
</event>
<event>
 4    1  0.3921687E+001  0.5440425E+02  0.7546771E-02  0.1422937E+00
          1   -1    0    0  501    0  0.00000000000E+00  0.00000000000E+00  0.11396496791E+04  0.11396496791E+04  0.00000000000E+00 0. -1.
         -1   -1    0    0    0  501 -0.00000000000E+00 -0.00000000000E+00 -0.64928334107E+00  0.64928334107E+00  0.00000000000E+00 0.  1.
          2    1    1    2  502    0 -0.38016949491E+01 -0.22600346925E+02  0.87663514202E+03  0.87693466165E+03  0.00000000000E+00 0. -1.
         -2    1    1    2    0  502  0.38016949491E+01  0.22600346925E+02  0.26236525374E+03  0.26336430080E+03  0.00000000000E+00 0.  1.
<mgrwt>
<rscale>  0 0.54404248E+02</rscale>
<asrwt>0</asrwt>
<pdfrwt beam="1">  1        1 0.17532912E+00 0.54404248E+02</pdfrwt>
<pdfrwt beam="2">  1       -1 0.99890657E-04 0.54404248E+02</pdfrwt>
<totfact> 0.49253995E+05</totfact>
</mgrwt>
</event>
<event>
 5    1  0.3921687E+001  0.9131396E+02  0.7546771E-02  0.1299701E+00
          2   -1    0    0  501    0  0.00000000000E+00  0.00000000000E+00  0.15155173594E+03  0.15155173594E+03  0.00000000000E+00 0. -1.
         -2   -1    0    0    0  501 -0.00000000000E+00 -0.00000000000E+00 -0.13754772945E+02  0.13754772945E+02  0.00000000000E+00 0.  1.
         23    2    1    2    0    0  0.00000000000E+00  0.00000000000E+00  0.13779696300E+03  0.16530650889E+03  0.91313957690E+02 0.  0.
          2    1    3    3  502    0 -0.39469789914E+02 -0.99390625031E+00  0.11040582085E+03  0.11725313405E+03  0.00000000000E+00 0. -1.
         -2    1    3    3    0  502  0.39469789914E+02  0.99390625031E+00  0.27391142142E+02  0.48053374838E+02  0.00000000000E+00 0.  1.
<mgrwt>
<rscale>  0 0.91313958E+02</rscale>
<asrwt>0</asrwt>
<pdfrwt beam="1">  1        2 0.23315651E-01 0.91313958E+02</pdfrwt>
<pdfrwt beam="2">  1       -2 0.21161190E-02 0.91313958E+02</pdfrwt>
<totfact> 0.13972910E+05</totfact>
</mgrwt>
</event>
<event>
 5    1  0.3921687E+001  0.9556144E+02  0.7546771E-02  0.1289917E+00
         -2   -1    0    0    0  501 -0.00000000000E+00  0.00000000000E+00  0.85353385701E+03  0.85353385701E+03  0.00000000000E+00 0.  1.
          2   -1    0    0  501    0  0.00000000000E+00 -0.00000000000E+00 -0.26747588964E+01  0.26747588964E+01  0.00000000000E+00 0. -1.
         23    2    1    2    0    0  0.00000000000E+00  0.00000000000E+00  0.85085909811E+03  0.85620861590E+03  0.95561441542E+02 0.  0.
          2    1    3    3  502    0  0.12028532238E+02 -0.23006507198E+02  0.66030779829E+02  0.70951031325E+02  0.00000000000E+00 0. -1.
         -2    1    3    3    0  502 -0.12028532238E+02  0.23006507198E+02  0.78482831828E+03  0.78525758458E+03  0.00000000000E+00 0.  1.
<mgrwt>
<rscale>  0 0.95561442E+02</rscale>
<asrwt>0</asrwt>
<pdfrwt beam="2">  1        2 0.41150205E-03 0.95561442E+02</pdfrwt>
<pdfrwt beam="1">  1       -2 0.13131268E+00 0.95561442E+02</pdfrwt>
<totfact> 0.19723991E+04</totfact>
</mgrwt>
</event>
<event>
 5    1  0.3921687E+001  0.9097960E+02  0.7546771E-02  0.1300497E+00
         -2   -1    0    0    0  501 -0.00000000000E+00  0.00000000000E+00  0.43681478494E+01  0.43681478494E+01  0.00000000000E+00 0.  1.
          2   -1    0    0  501    0  0.00000000000E+00 -0.00000000000E+00 -0.47372986141E+03  0.47372986141E+03  0.00000000000E+00 0. -1.
         23    2    1    2    0    0  0.00000000000E+00  0.00000000000E+00 -0.46936171356E+03  0.47809800926E+03  0.90979603765E+02 0.  0.
          2    1    3    3  502    0  0.51886901410E+00 -0.21897759589E+02 -0.25168926502E+02  0.33365490575E+02  0.00000000000E+00 0.  1.
         -2    1    3    3    0  502 -0.51886901410E+00  0.21897759589E+02 -0.44419278706E+03  0.44473251869E+03  0.00000000000E+00 0. -1.
<mgrwt>
<rscale>  0 0.90979604E+02</rscale>
<asrwt>0</asrwt>
<pdfrwt beam="2">  1        2 0.72881536E-01 0.90979604E+02</pdfrwt>
<pdfrwt beam="1">  1       -2 0.67202257E-03 0.90979604E+02</pdfrwt>
<totfact> 0.21291177E+05</totfact>
</mgrwt>
</event>
<event>
 5    1  0.3921687E+001  0.9138462E+02  0.7546771E-02  0.1299533E+00
         -2   -1    0    0    0  501 -0.00000000000E+00  0.00000000000E+00  0.36738333102E+01  0.36738333102E+01  0.00000000000E+00 0.  1.
          2   -1    0    0  501    0  0.00000000000E+00 -0.00000000000E+00 -0.56828579891E+03  0.56828579891E+03  0.00000000000E+00 0. -1.
         23    2    1    2    0    0  0.00000000000E+00  0.00000000000E+00 -0.56461196560E+03  0.57195963222E+03  0.91384622290E+02 0.  0.
          2    1    3    3  502    0  0.21987171869E+02  0.18804316131E+02 -0.50365489162E+03  0.50448517113E+03  0.00000000000E+00 0. -1.
         -2    1    3    3    0  502 -0.21987171869E+02 -0.18804316131E+02 -0.60957073976E+02  0.67474461092E+02  0.00000000000E+00 0.  1.
<mgrwt>
<rscale>  0 0.91384622E+02</rscale>
<asrwt>0</asrwt>
<pdfrwt beam="2">  1        2 0.87428468E-01 0.91384622E+02</pdfrwt>
<pdfrwt beam="1">  1       -2 0.56520588E-03 0.91384622E+02</pdfrwt>
<totfact> 0.22293387E+05</totfact>
</mgrwt>
</event>
<event>
 5    1  0.3921687E+001  0.8719139E+02  0.7546771E-02  0.1309799E+00
         -2   -1    0    0    0  501 -0.00000000000E+00  0.00000000000E+00  0.22505422932E+02  0.22505422932E+02  0.00000000000E+00 0. -1.
          2   -1    0    0  501    0  0.00000000000E+00 -0.00000000000E+00 -0.84450073592E+02  0.84450073592E+02  0.00000000000E+00 0.  1.
         23    2    1    2    0    0  0.00000000000E+00  0.00000000000E+00 -0.61944650660E+02  0.10695549652E+03  0.87191390007E+02 0.  0.
          2    1    3    3  502    0 -0.33078914446E+02 -0.15517287995E+02 -0.17995334641E+01  0.36581950854E+02  0.00000000000E+00 0. -1.
         -2    1    3    3    0  502  0.33078914446E+02  0.15517287995E+02 -0.60145117196E+02  0.70373545669E+02  0.00000000000E+00 0.  1.
<mgrwt>
<rscale>  0 0.87191390E+02</rscale>
<asrwt>0</asrwt>
<pdfrwt beam="2">  1        2 0.12992319E-01 0.87191390E+02</pdfrwt>
<pdfrwt beam="1">  1       -2 0.34623728E-02 0.87191390E+02</pdfrwt>
<totfact> 0.13198182E+05</totfact>
</mgrwt>
</event>
<event>
 5    1  0.3921687E+001  0.8826982E+02  0.7546771E-02  0.1307097E+00
         -1   -1    0    0    0  501 -0.00000000000E+00  0.00000000000E+00  0.26952544627E+03  0.26952544627E+03  0.00000000000E+00 0. -1.
          1   -1    0    0  501    0  0.00000000000E+00 -0.00000000000E+00 -0.72271102402E+01  0.72271102402E+01  0.00000000000E+00 0.  1.
         23    2    1    2    0    0  0.00000000000E+00  0.00000000000E+00  0.26229833603E+03  0.27675255651E+03  0.88269816194E+02 0.  0.
          2    1    3    3  502    0 -0.44106117690E+02  0.14141733955E+01  0.12884390274E+03  0.13619141227E+03  0.00000000000E+00 0.  1.
         -2    1    3    3    0  502  0.44106117690E+02 -0.14141733955E+01  0.13345443329E+03  0.14056114424E+03  0.00000000000E+00 0. -1.
<mgrwt>
<rscale>  0 0.88269816E+02</rscale>
<asrwt>0</asrwt>
<pdfrwt beam="2">  1        1 0.11118633E-02 0.88269816E+02</pdfrwt>
<pdfrwt beam="1">  1       -1 0.41465446E-01 0.88269816E+02</pdfrwt>
<totfact> 0.68646965E+04</totfact>
</mgrwt>
</event>
<event>
 5    1  0.3921687E+001  0.9060027E+02  0.7546771E-02  0.1301405E+00
          2   -1    0    0  501    0  0.00000000000E+00  0.00000000000E+00  0.86341818048E+01  0.86341818048E+01  0.00000000000E+00 0. -1.
         -2   -1    0    0    0  501 -0.00000000000E+00 -0.00000000000E+00 -0.23767186569E+03  0.23767186569E+03  0.00000000000E+00 0.  1.
         23    2    1    2    0    0  0.00000000000E+00  0.00000000000E+00 -0.22903768388E+03  0.24630604749E+03  0.90600267069E+02 0.  0.
          2    1    3    3  502    0 -0.42955762020E+01  0.40328859166E+02 -0.59657401287E+02  0.72137884533E+02  0.00000000000E+00 0. -1.
         -2    1    3    3    0  502  0.42955762020E+01 -0.40328859166E+02 -0.16938028259E+03  0.17416816296E+03  0.00000000000E+00 0.  1.
<mgrwt>
<rscale>  0 0.90600267E+02</rscale>
<asrwt>0</asrwt>
<pdfrwt beam="1">  1        2 0.13283358E-02 0.90600267E+02</pdfrwt>
<pdfrwt beam="2">  1       -2 0.36564898E-01 0.90600267E+02</pdfrwt>
<totfact> 0.58533125E+04</totfact>
</mgrwt>
</event>
<event>
 5    1  0.3921687E+001  0.9131146E+02  0.7546771E-02  0.1299707E+00
          2   -1    0    0  501    0  0.00000000000E+00  0.00000000000E+00  0.23264813748E+04  0.23264813748E+04  0.00000000000E+00 0. -1.
         -2   -1    0    0    0  501 -0.00000000000E+00 -0.00000000000E+00 -0.89596486688E+00  0.89596486688E+00  0.00000000000E+00 0.  1.
         23    2    1    2    0    0  0.00000000000E+00  0.00000000000E+00  0.23255854099E+04  0.23273773396E+04  0.91311457666E+02 0.  0.
          2    1    3    3  502    0 -0.39491294143E+02 -0.14059183824E+02  0.16238587919E+04  0.16243997658E+04  0.00000000000E+00 0. -1.
         -2    1    3    3    0  502  0.39491294143E+02  0.14059183824E+02  0.70172661799E+03  0.70297757387E+03  0.00000000000E+00 0.  1.
<mgrwt>
<rscale>  0 0.91311458E+02</rscale>
<asrwt>0</asrwt>
<pdfrwt beam="1">  1        2 0.35791538E+00 0.91311458E+02</pdfrwt>
<pdfrwt beam="2">  1       -2 0.13784261E-03 0.91311458E+02</pdfrwt>
<totfact> 0.16491172E+05</totfact>
</mgrwt>
</event>
<event>
 5    1  0.3921687E+001  0.9098684E+02  0.7546771E-02  0.1300479E+00
          2   -1    0    0  501    0  0.00000000000E+00  0.00000000000E+00  0.23497462322E+02  0.23497462322E+02  0.00000000000E+00 0. -1.
         -2   -1    0    0    0  501 -0.00000000000E+00 -0.00000000000E+00 -0.88079779915E+02  0.88079779915E+02  0.00000000000E+00 0.  1.
         23    2    1    2    0    0  0.00000000000E+00  0.00000000000E+00 -0.64582317593E+02  0.11157724224E+03  0.90986841024E+02 0.  0.
          2    1    3    3  502    0  0.85265601192E+01 -0.40511012447E+02 -0.91596345548E+01  0.42399802619E+02  0.00000000000E+00 0. -1.
         -2    1    3    3    0  502 -0.85265601192E+01  0.40511012447E+02 -0.55422683038E+02  0.69177439618E+02  0.00000000000E+00 0.  1.
<mgrwt>
<rscale>  0 0.90986841E+02</rscale>
<asrwt>0</asrwt>
<pdfrwt beam="1">  1        2 0.36149941E-02 0.90986841E+02</pdfrwt>
<pdfrwt beam="2">  1       -2 0.13550736E-01 0.90986841E+02</pdfrwt>
<totfact> 0.83241969E+04</totfact>
</mgrwt>
</event>
<event>
 5    1  0.3921687E+001  0.1044552E+03  0.7546771E-02  0.1271197E+00
          3   -1    0    0  501    0  0.00000000000E+00  0.00000000000E+00  0.20787261655E+02  0.20787261655E+02  0.00000000000E+00 0. -1.
         -3   -1    0    0    0  501 -0.00000000000E+00 -0.00000000000E+00 -0.13122074705E+03  0.13122074705E+03  0.00000000000E+00 0.  1.
         23    2    1    2    0    0  0.00000000000E+00  0.00000000000E+00 -0.11043348540E+03  0.15200800871E+03  0.10445515791E+03 0.  0.
          2    1    3    3  502    0 -0.39393874707E+02 -0.30036767110E+02 -0.31144164293E+02  0.58515328866E+02  0.00000000000E+00 0. -1.
         -2    1    3    3    0  502  0.39393874707E+02  0.30036767110E+02 -0.79289321106E+02  0.93492679843E+02  0.00000000000E+00 0.  1.
<mgrwt>
<rscale>  0 0.10445516E+03</rscale>
<asrwt>0</asrwt>
<pdfrwt beam="1">  1        3 0.31980404E-02 0.10445516E+03</pdfrwt>
<pdfrwt beam="2">  1       -3 0.20187807E-01 0.10445516E+03</pdfrwt>
<totfact> 0.21510533E+04</totfact>
</mgrwt>
</event>
<event>
 5    1  0.3921687E+001  0.9116284E+02  0.7546771E-02  0.1300060E+00
          2   -1    0    0  501    0  0.00000000000E+00  0.00000000000E+00  0.59427322522E+02  0.59427322522E+02  0.00000000000E+00 0.  1.
         -2   -1    0    0    0  501 -0.00000000000E+00 -0.00000000000E+00 -0.34961455751E+02  0.34961455751E+02  0.00000000000E+00 0. -1.
         23    2    1    2    0    0  0.00000000000E+00  0.00000000000E+00  0.24465866770E+02  0.94388778273E+02  0.91162836874E+02 0.  0.
          2    1    3    3  502    0  0.31326695847E+02  0.33072634404E+02  0.13871557413E+02  0.47619125613E+02  0.00000000000E+00 0.  1.
         -2    1    3    3    0  502 -0.31326695847E+02 -0.33072634404E+02  0.10594309358E+02  0.46769652659E+02  0.00000000000E+00 0. -1.
<mgrwt>
<rscale>  0 0.91162837E+02</rscale>
<asrwt>0</asrwt>
<pdfrwt beam="1">  1        2 0.91426650E-02 0.91162837E+02</pdfrwt>
<pdfrwt beam="2">  1       -2 0.53786855E-02 0.91162837E+02</pdfrwt>
<totfact> 0.10584288E+05</totfact>
</mgrwt>
</event>
<event>
 5    1  0.3921687E+001  0.9488565E+02  0.7546771E-02  0.1291434E+00
         -1   -1    0    0    0  501 -0.00000000000E+00  0.00000000000E+00  0.52287841907E+01  0.52287841907E+01  0.00000000000E+00 0.  1.
          1   -1    0    0  501    0  0.00000000000E+00 -0.00000000000E+00 -0.43046752210E+03  0.43046752210E+03  0.00000000000E+00 0. -1.
         23    2    1    2    0    0  0.00000000000E+00  0.00000000000E+00 -0.42523873791E+03  0.43569630629E+03  0.94885652744E+02 0.  0.
          2    1    3    3  502    0  0.21980599621E+02  0.39720037230E+02 -0.27591196066E+03  0.27962159815E+03  0.00000000000E+00 0. -1.
         -2    1    3    3    0  502 -0.21980599621E+02 -0.39720037230E+02 -0.14932677725E+03  0.15607470814E+03  0.00000000000E+00 0.  1.
<mgrwt>
<rscale>  0 0.94885653E+02</rscale>
<asrwt>0</asrwt>
<pdfrwt beam="2">  1        1 0.66225780E-01 0.94885653E+02</pdfrwt>
<pdfrwt beam="1">  1       -1 0.80442825E-03 0.94885653E+02</pdfrwt>
<totfact> 0.12273229E+05</totfact>
</mgrwt>
</event>
<event>
 5    1  0.3921687E+001  0.8855433E+02  0.7546771E-02  0.1306391E+00
          1   -1    0    0  501    0  0.00000000000E+00  0.00000000000E+00  0.22756081497E+02  0.22756081497E+02  0.00000000000E+00 0. -1.
         -1   -1    0    0    0  501 -0.00000000000E+00 -0.00000000000E+00 -0.86151364349E+02  0.86151364349E+02  0.00000000000E+00 0.  1.
         23    2    1    2    0    0  0.00000000000E+00  0.00000000000E+00 -0.63395282852E+02  0.10890744585E+03  0.88554332887E+02 0.  0.
          2    1    3    3  502    0 -0.14912987620E+02 -0.14586793434E+02  0.16333707516E+02  0.26494560643E+02  0.00000000000E+00 0. -1.
         -2    1    3    3    0  502  0.14912987620E+02  0.14586793434E+02 -0.79728990368E+02  0.82412885204E+02  0.00000000000E+00 0.  1.
<mgrwt>
<rscale>  0 0.88554333E+02</rscale>
<asrwt>0</asrwt>
<pdfrwt beam="1">  1        1 0.35009355E-02 0.88554333E+02</pdfrwt>
<pdfrwt beam="2">  1       -1 0.13254056E-01 0.88554333E+02</pdfrwt>
<totfact> 0.90070714E+04</totfact>
</mgrwt>
</event>
<event>
 5    1  0.3921687E+001  0.9000974E+02  0.7546771E-02  0.1302828E+00
          1   -1    0    0  501    0  0.00000000000E+00  0.00000000000E+00  0.14395113233E+03  0.14395113233E+03  0.00000000000E+00 0. -1.
         -1   -1    0    0    0  501 -0.00000000000E+00 -0.00000000000E+00 -0.14070318233E+02  0.14070318233E+02  0.00000000000E+00 0.  1.
         23    2    1    2    0    0  0.00000000000E+00  0.00000000000E+00  0.12988081409E+03  0.15802145056E+03  0.90009738181E+02 0.  0.
          2    1    3    3  502    0  0.36971717850E+02 -0.17271257238E+02  0.98261473490E+02  0.10639793898E+03  0.00000000000E+00 0. -1.
         -2    1    3    3    0  502 -0.36971717850E+02  0.17271257238E+02  0.31619340604E+02  0.51623511577E+02  0.00000000000E+00 0.  1.
<mgrwt>
<rscale>  0 0.90009738E+02</rscale>
<asrwt>0</asrwt>
<pdfrwt beam="1">  1        1 0.22146327E-01 0.90009738E+02</pdfrwt>
<pdfrwt beam="2">  1       -1 0.21646644E-02 0.90009738E+02</pdfrwt>
<totfact> 0.11522514E+05</totfact>
</mgrwt>
</event>
<event>
 5    1  0.3921687E+001  0.8844104E+02  0.7546771E-02  0.1306671E+00
          2   -1    0    0  501    0  0.00000000000E+00  0.00000000000E+00  0.78998491976E+03  0.78998491976E+03  0.00000000000E+00 0. -1.
         -2   -1    0    0    0  501 -0.00000000000E+00 -0.00000000000E+00 -0.24753062248E+01  0.24753062248E+01  0.00000000000E+00 0.  1.
         23    2    1    2    0    0  0.00000000000E+00  0.00000000000E+00  0.78750961353E+03  0.79246022598E+03  0.88441044530E+02 0.  0.
          2    1    3    3  502    0 -0.16748492864E+02 -0.34279882678E+02  0.59408007581E+03  0.59530392141E+03  0.00000000000E+00 0. -1.
         -2    1    3    3    0  502  0.16748492864E+02  0.34279882678E+02  0.19342953772E+03  0.19715630457E+03  0.00000000000E+00 0.  1.
<mgrwt>
<rscale>  0 0.88441045E+02</rscale>
<asrwt>0</asrwt>
<pdfrwt beam="1">  1        2 0.12153594E+00 0.88441045E+02</pdfrwt>
<pdfrwt beam="2">  1       -2 0.38081697E-03 0.88441045E+02</pdfrwt>
<totfact> 0.26348708E+05</totfact>
</mgrwt>
</event>
<event>
 5    1  0.3921687E+001  0.9042852E+02  0.7546771E-02  0.1301817E+00
         -4   -1    0    0    0  501 -0.00000000000E+00  0.00000000000E+00  0.65153478472E+03  0.65153478472E+03  0.00000000000E+00 0.  1.
          4   -1    0    0  501    0  0.00000000000E+00 -0.00000000000E+00 -0.31377135470E+01  0.31377135470E+01  0.00000000000E+00 0. -1.
         23    2    1    2    0    0  0.00000000000E+00  0.00000000000E+00  0.64839707117E+03  0.65467249827E+03  0.90428524711E+02 0.  0.
          2    1    3    3  502    0  0.32097329107E+02 -0.31155745135E+02  0.37189829558E+03  0.37457877843E+03  0.00000000000E+00 0.  1.
         -2    1    3    3    0  502 -0.32097329107E+02  0.31155745135E+02  0.27649877559E+03  0.28009371984E+03  0.00000000000E+00 0. -1.
<mgrwt>
<rscale>  0 0.90428525E+02</rscale>
<asrwt>0</asrwt>
<pdfrwt beam="2">  1        4 0.48272568E-03 0.90428525E+02</pdfrwt>
<pdfrwt beam="1">  1       -4 0.10023601E+00 0.90428525E+02</pdfrwt>
<totfact> 0.10864344E+04</totfact>
</mgrwt>
</event>
<event>
 5    1  0.3921687E+001  0.9339091E+02  0.7546771E-02  0.1294842E+00
          2   -1    0    0  501    0  0.00000000000E+00  0.00000000000E+00  0.89804016794E+03  0.89804016794E+03  0.00000000000E+00 0.  1.
         -2   -1    0    0    0  501 -0.00000000000E+00 -0.00000000000E+00 -0.24280265123E+01  0.24280265123E+01  0.00000000000E+00 0. -1.
         23    2    1    2    0    0  0.00000000000E+00  0.00000000000E+00  0.89561214143E+03  0.90046819445E+03  0.93390906127E+02 0.  0.
          2    1    3    3  502    0  0.15293216235E+02 -0.42095855923E+02  0.32042977479E+03  0.32354471734E+03  0.00000000000E+00 0. -1.
         -2    1    3    3    0  502 -0.15293216235E+02  0.42095855923E+02  0.57518236664E+03  0.57692347711E+03  0.00000000000E+00 0.  1.
<mgrwt>
<rscale>  0 0.93390906E+02</rscale>
<asrwt>0</asrwt>
<pdfrwt beam="1">  1        2 0.13815976E+00 0.93390906E+02</pdfrwt>
<pdfrwt beam="2">  1       -2 0.37354326E-03 0.93390906E+02</pdfrwt>
<totfact> 0.23268156E+05</totfact>
</mgrwt>
</event>
<event>
 5    1  0.3921687E+001  0.9538661E+02  0.7546771E-02  0.1290308E+00
          3   -1    0    0  501    0  0.00000000000E+00  0.00000000000E+00  0.10681523018E+01  0.10681523018E+01  0.00000000000E+00 0. -1.
         -3   -1    0    0    0  501 -0.00000000000E+00 -0.00000000000E+00 -0.21295194604E+04  0.21295194604E+04  0.00000000000E+00 0.  1.
         23    2    1    2    0    0  0.00000000000E+00  0.00000000000E+00 -0.21284513081E+04  0.21305876127E+04  0.95386605208E+02 0.  0.
          2    1    3    3  502    0 -0.33256858949E+02 -0.28649776246E+02 -0.64765275944E+03  0.64913860243E+03  0.00000000000E+00 0. -1.
         -2    1    3    3    0  502  0.33256858949E+02  0.28649776246E+02 -0.14807985486E+04  0.14814490102E+04  0.00000000000E+00 0.  1.
<mgrwt>
<rscale>  0 0.95386605E+02</rscale>
<asrwt>0</asrwt>
<pdfrwt beam="1">  1        3 0.16433255E-03 0.95386605E+02</pdfrwt>
<pdfrwt beam="2">  1       -3 0.32761554E+00 0.95386605E+02</pdfrwt>
<totfact> 0.27547292E+03</totfact>
</mgrwt>
</event>
<event>
 5    1  0.3921687E+001  0.9100983E+02  0.7546771E-02  0.1300425E+00
         -2   -1    0    0    0  501 -0.00000000000E+00  0.00000000000E+00  0.69333249197E+01  0.69333249197E+01  0.00000000000E+00 0.  1.
          2   -1    0    0  501    0  0.00000000000E+00 -0.00000000000E+00 -0.29865862307E+03  0.29865862307E+03  0.00000000000E+00 0. -1.
         23    2    1    2    0    0  0.00000000000E+00  0.00000000000E+00 -0.29172529815E+03  0.30559194799E+03  0.91009829663E+02 0.  0.
          2    1    3    3  502    0  0.33757332501E+02 -0.26982308091E+02 -0.98010324986E+02  0.10711501413E+03  0.00000000000E+00 0. -1.
         -2    1    3    3    0  502 -0.33757332501E+02  0.26982308091E+02 -0.19371497316E+03  0.19847693386E+03  0.00000000000E+00 0.  1.
<mgrwt>
<rscale>  0 0.91009830E+02</rscale>
<asrwt>0</asrwt>
<pdfrwt beam="2">  1        2 0.45947475E-01 0.91009830E+02</pdfrwt>
<pdfrwt beam="1">  1       -2 0.10666655E-02 0.91009830E+02</pdfrwt>
<totfact> 0.18024056E+05</totfact>
</mgrwt>
</event>
<event>
 5    1  0.3921687E+001  0.9166150E+02  0.7546771E-02  0.1298877E+00
          2   -1    0    0  501    0  0.00000000000E+00  0.00000000000E+00  0.57508964279E+03  0.57508964279E+03  0.00000000000E+00 0. -1.
         -2   -1    0    0    0  501 -0.00000000000E+00 -0.00000000000E+00 -0.36524003610E+01  0.36524003610E+01  0.00000000000E+00 0.  1.
         23    2    1    2    0    0  0.00000000000E+00  0.00000000000E+00  0.57143724243E+03  0.57874204316E+03  0.91661499419E+02 0.  0.
          2    1    3    3  502    0  0.26459911604E+01 -0.27520352645E+02  0.51650776202E+03  0.51724717428E+03  0.00000000000E+00 0. -1.
         -2    1    3    3    0  502 -0.26459911604E+01  0.27520352645E+02  0.54929480414E+02  0.61494868871E+02  0.00000000000E+00 0.  1.
<mgrwt>
<rscale>  0 0.91661499E+02</rscale>
<asrwt>0</asrwt>
<pdfrwt beam="1">  1        2 0.88475258E-01 0.91661499E+02</pdfrwt>
<pdfrwt beam="2">  1       -2 0.56190820E-03 0.91661499E+02</pdfrwt>
<totfact> 0.22193935E+05</totfact>
</mgrwt>
</event>
<event>
 5    1  0.3921687E+001  0.8995736E+02  0.7546771E-02  0.1302955E+00
         -2   -1    0    0    0  501 -0.00000000000E+00  0.00000000000E+00  0.83858669038E+01  0.83858669038E+01  0.00000000000E+00 0.  1.
          2   -1    0    0  501    0  0.00000000000E+00 -0.00000000000E+00 -0.24124895819E+03  0.24124895819E+03  0.00000000000E+00 0. -1.
         23    2    1    2    0    0  0.00000000000E+00  0.00000000000E+00 -0.23286309128E+03  0.24963482509E+03  0.89957359989E+02 0.  0.
          2    1    3    3  502    0 -0.44744267195E+01 -0.23702853170E+02 -0.22178190152E+03  0.22308979713E+03  0.00000000000E+00 0. -1.
         -2    1    3    3    0  502  0.44744267195E+01  0.23702853170E+02 -0.11081189767E+02  0.26545027962E+02  0.00000000000E+00 0.  1.
<mgrwt>
<rscale>  0 0.89957360E+02</rscale>
<asrwt>0</asrwt>
<pdfrwt beam="2">  1        2 0.37115222E-01 0.89957360E+02</pdfrwt>
<pdfrwt beam="1">  1       -2 0.12901334E-02 0.89957360E+02</pdfrwt>
<totfact> 0.17174348E+05</totfact>
</mgrwt>
</event>
<event>
 5    1  0.3921687E+001  0.9034433E+02  0.7546771E-02  0.1302020E+00
          1   -1    0    0  501    0  0.00000000000E+00  0.00000000000E+00  0.62345975225E+01  0.62345975225E+01  0.00000000000E+00 0. -1.
         -1   -1    0    0    0  501 -0.00000000000E+00 -0.00000000000E+00 -0.32729052069E+03  0.32729052069E+03  0.00000000000E+00 0.  1.
         23    2    1    2    0    0  0.00000000000E+00  0.00000000000E+00 -0.32105592316E+03  0.33352511821E+03  0.90344333954E+02 0.  0.
          2    1    3    3  502    0  0.23010331233E+02 -0.28749793036E+02 -0.63942013214E+02  0.73787580234E+02  0.00000000000E+00 0. -1.
         -2    1    3    3    0  502 -0.23010331233E+02  0.28749793036E+02 -0.25711390995E+03  0.25973753797E+03  0.00000000000E+00 0.  1.
<mgrwt>
<rscale>  0 0.90344334E+02</rscale>
<asrwt>0</asrwt>
<pdfrwt beam="1">  1        1 0.95916882E-03 0.90344334E+02</pdfrwt>
<pdfrwt beam="2">  1       -1 0.50352389E-01 0.90344334E+02</pdfrwt>
<totfact> 0.59890140E+04</totfact>
</mgrwt>
</event>
<event>
 5    1  0.3921687E+001  0.8101744E+02  0.7546771E-02  0.1326189E+00
         -1   -1    0    0    0  501 -0.00000000000E+00  0.00000000000E+00  0.15575674820E+02  0.15575674820E+02  0.00000000000E+00 0.  1.
          1   -1    0    0  501    0  0.00000000000E+00 -0.00000000000E+00 -0.10535378524E+03  0.10535378524E+03  0.00000000000E+00 0. -1.
         23    2    1    2    0    0  0.00000000000E+00  0.00000000000E+00 -0.89778110421E+02  0.12092946006E+03  0.81017437629E+02 0.  0.
          2    1    3    3  502    0  0.39354478764E+02  0.51149710335E+01 -0.32761143765E+02  0.51460960624E+02  0.00000000000E+00 0. -1.
         -2    1    3    3    0  502 -0.39354478764E+02 -0.51149710335E+01 -0.57016966655E+02  0.69468499437E+02  0.00000000000E+00 0.  1.
<mgrwt>
<rscale>  0 0.81017438E+02</rscale>
<asrwt>0</asrwt>
<pdfrwt beam="2">  1        1 0.16208275E-01 0.81017438E+02</pdfrwt>
<pdfrwt beam="1">  1       -1 0.23962576E-02 0.81017438E+02</pdfrwt>
<totfact> 0.14495171E+05</totfact>
</mgrwt>
</event>
<event>
 5    1  0.3921687E+001  0.9041745E+02  0.7546771E-02  0.1301844E+00
          4   -1    0    0  501    0  0.00000000000E+00  0.00000000000E+00  0.12138911085E+01  0.12138911085E+01  0.00000000000E+00 0. -1.
         -4   -1    0    0    0  501 -0.00000000000E+00 -0.00000000000E+00 -0.16837003627E+04  0.16837003627E+04  0.00000000000E+00 0.  1.
         23    2    1    2    0    0  0.00000000000E+00  0.00000000000E+00 -0.16824864716E+04  0.16849142538E+04  0.90417451847E+02 0.  0.
          2    1    3    3  502    0 -0.37680561721E+02 -0.19150698414E+02 -0.54235598940E+03  0.54400054524E+03  0.00000000000E+00 0. -1.
         -2    1    3    3    0  502  0.37680561721E+02  0.19150698414E+02 -0.11401304822E+04  0.11409137086E+04  0.00000000000E+00 0.  1.
<mgrwt>
<rscale>  0 0.90417452E+02</rscale>
<asrwt>0</asrwt>
<pdfrwt beam="1">  1        4 0.18675333E-03 0.90417452E+02</pdfrwt>
<pdfrwt beam="2">  1       -4 0.25902964E+00 0.90417452E+02</pdfrwt>
<totfact> 0.34771948E+03</totfact>
</mgrwt>
</event>
<event>
 5    1  0.3921687E+001  0.9183553E+02  0.7546771E-02  0.1298467E+00
         -4   -1    0    0    0  501 -0.00000000000E+00  0.00000000000E+00  0.52806969687E+02  0.52806969687E+02  0.00000000000E+00 0.  1.
          4   -1    0    0  501    0  0.00000000000E+00 -0.00000000000E+00 -0.39927324432E+02  0.39927324432E+02  0.00000000000E+00 0. -1.
         23    2    1    2    0    0  0.00000000000E+00  0.00000000000E+00  0.12879645255E+02  0.92734294119E+02  0.91835527134E+02 0.  0.
          2    1    3    3  502    0 -0.35768422173E+02 -0.60753586501E+01 -0.21980803119E+02  0.42419874036E+02  0.00000000000E+00 0. -1.
         -2    1    3    3    0  502  0.35768422173E+02  0.60753586501E+01  0.34860448374E+02  0.50314420083E+02  0.00000000000E+00 0.  1.
<mgrwt>
<rscale>  0 0.91835527E+02</rscale>
<asrwt>0</asrwt>
<pdfrwt beam="2">  1        4 0.61426653E-02 0.91835527E+02</pdfrwt>
<pdfrwt beam="1">  1       -4 0.81241492E-02 0.91835527E+02</pdfrwt>
<totfact> 0.26394590E+04</totfact>
</mgrwt>
</event>
<event>
 5    1  0.3921687E+001  0.8934083E+02  0.7546771E-02  0.1304456E+00
          1   -1    0    0  501    0  0.00000000000E+00  0.00000000000E+00  0.16069418355E+02  0.16069418355E+02  0.00000000000E+00 0. -1.
         -1   -1    0    0    0  501 -0.00000000000E+00 -0.00000000000E+00 -0.12417661388E+03  0.12417661388E+03  0.00000000000E+00 0.  1.
         23    2    1    2    0    0  0.00000000000E+00  0.00000000000E+00 -0.10810719552E+03  0.14024603223E+03  0.89340829598E+02 0.  0.
          2    1    3    3  502    0 -0.87444278738E+01 -0.23910246819E+02  0.35659308334E+01  0.25707601687E+02  0.00000000000E+00 0. -1.
         -2    1    3    3    0  502  0.87444278738E+01  0.23910246819E+02 -0.11167312636E+03  0.11453843055E+03  0.00000000000E+00 0.  1.
<mgrwt>
<rscale>  0 0.89340830E+02</rscale>
<asrwt>0</asrwt>
<pdfrwt beam="1">  1        1 0.24722182E-02 0.89340830E+02</pdfrwt>
<pdfrwt beam="2">  1       -1 0.19104094E-01 0.89340830E+02</pdfrwt>
<totfact> 0.82185336E+04</totfact>
</mgrwt>
</event>
<event>
 4    1  0.3921687E+001  0.5037408E+02  0.7546771E-02  0.1443334E+00
          3   -1    0    0  501    0  0.00000000000E+00  0.00000000000E+00  0.15430143841E+01  0.15430143841E+01  0.00000000000E+00 0. -1.
         -3   -1    0    0    0  501 -0.00000000000E+00 -0.00000000000E+00 -0.41113485788E+03  0.41113485788E+03  0.00000000000E+00 0.  1.
          2    1    1    2  502    0 -0.23160526773E+02  0.98922610216E+01 -0.20195601647E+03  0.20352026783E+03  0.00000000000E+00 0. -1.
         -2    1    1    2    0  502  0.23160526773E+02 -0.98922610216E+01 -0.20763582703E+03  0.20915760444E+03  0.00000000000E+00 0.  1.
<mgrwt>
<rscale>  0 0.50374081E+02</rscale>
<asrwt>0</asrwt>
<pdfrwt beam="1">  1        3 0.23738689E-03 0.50374081E+02</pdfrwt>
<pdfrwt beam="2">  1       -3 0.63251499E-01 0.50374081E+02</pdfrwt>
<totfact> 0.93374608E+04</totfact>
</mgrwt>
</event>
<event>
 5    1  0.3921687E+001  0.9141355E+02  0.7546771E-02  0.1299464E+00
          2   -1    0    0  501    0  0.00000000000E+00  0.00000000000E+00  0.58261389454E+03  0.58261389454E+03  0.00000000000E+00 0. -1.
         -2   -1    0    0    0  501 -0.00000000000E+00 -0.00000000000E+00 -0.35857524821E+01  0.35857524821E+01  0.00000000000E+00 0.  1.
         23    2    1    2    0    0  0.00000000000E+00  0.00000000000E+00  0.57902814206E+03  0.58619964702E+03  0.91413548633E+02 0.  0.
          2    1    3    3  502    0 -0.16480996809E+02 -0.31281540736E+02  0.47525316669E+03  0.47656660657E+03  0.00000000000E+00 0. -1.
         -2    1    3    3    0  502  0.16480996809E+02  0.31281540736E+02  0.10377497537E+03  0.10963304045E+03  0.00000000000E+00 0.  1.
<mgrwt>
<rscale>  0 0.91413549E+02</rscale>
<asrwt>0</asrwt>
<pdfrwt beam="1">  1        2 0.89632832E-01 0.91413549E+02</pdfrwt>
<pdfrwt beam="2">  1       -2 0.55165469E-03 0.91413549E+02</pdfrwt>
<totfact> 0.22438860E+05</totfact>
</mgrwt>
</event>
<event>
 5    1  0.3921687E+001  0.8945345E+02  0.7546771E-02  0.1304181E+00
          3   -1    0    0  501    0  0.00000000000E+00  0.00000000000E+00  0.14976316126E+04  0.14976316126E+04  0.00000000000E+00 0. -1.
         -3   -1    0    0    0  501 -0.00000000000E+00 -0.00000000000E+00 -0.13357624996E+01  0.13357624996E+01  0.00000000000E+00 0.  1.
         23    2    1    2    0    0  0.00000000000E+00  0.00000000000E+00  0.14962958501E+04  0.14989673751E+04  0.89453454854E+02 0.  0.
          2    1    3    3  502    0 -0.20435055849E+02  0.36312543770E+02  0.10205645595E+04  0.10214148092E+04  0.00000000000E+00 0. -1.
         -2    1    3    3    0  502  0.20435055849E+02 -0.36312543770E+02  0.47573129067E+03  0.47755256597E+03  0.00000000000E+00 0.  1.
<mgrwt>
<rscale>  0 0.89453455E+02</rscale>
<asrwt>0</asrwt>
<pdfrwt beam="1">  1        3 0.23040352E+00 0.89453455E+02</pdfrwt>
<pdfrwt beam="2">  1       -3 0.20550312E-03 0.89453455E+02</pdfrwt>
<totfact> 0.64373565E+03</totfact>
</mgrwt>
</event>
<event>
 5    1  0.3921687E+001  0.8905904E+02  0.7546771E-02  0.1305146E+00
         -3   -1    0    0    0  501 -0.00000000000E+00  0.00000000000E+00  0.23285597316E+01  0.23285597316E+01  0.00000000000E+00 0.  1.
          3   -1    0    0  501    0  0.00000000000E+00 -0.00000000000E+00 -0.85154712755E+03  0.85154712755E+03  0.00000000000E+00 0. -1.
         23    2    1    2    0    0  0.00000000000E+00  0.00000000000E+00 -0.84921856782E+03  0.85387568728E+03  0.89059044477E+02 0.  0.
          2    1    3    3  502    0 -0.25222800771E+02  0.35855321363E+02 -0.34967466706E+03  0.35241192734E+03  0.00000000000E+00 0. -1.
         -2    1    3    3    0  502  0.25222800771E+02 -0.35855321363E+02 -0.49954390076E+03  0.50146375994E+03  0.00000000000E+00 0.  1.
<mgrwt>
<rscale>  0 0.89059044E+02</rscale>
<asrwt>0</asrwt>
<pdfrwt beam="2">  1        3 0.13100744E+00 0.89059044E+02</pdfrwt>
<pdfrwt beam="1">  1       -3 0.35823945E-03 0.89059044E+02</pdfrwt>
<totfact> 0.12445129E+04</totfact>
</mgrwt>
</event>
<event>
 5    1  0.3921687E+001  0.9004681E+02  0.7546771E-02  0.1302738E+00
          2   -1    0    0  501    0  0.00000000000E+00  0.00000000000E+00  0.19954679390E+04  0.19954679390E+04  0.00000000000E+00 0. -1.
         -2   -1    0    0    0  501 -0.00000000000E+00 -0.00000000000E+00 -0.10158553813E+01  0.10158553813E+01  0.00000000000E+00 0.  1.
         23    2    1    2    0    0  0.00000000000E+00  0.00000000000E+00  0.19944520836E+04  0.19964837944E+04  0.90046806587E+02 0.  0.
          2    1    3    3  502    0 -0.76210022736E+01 -0.33666890055E+02  0.16381231188E+04  0.16384867688E+04  0.00000000000E+00 0. -1.
         -2    1    3    3    0  502  0.76210022736E+01  0.33666890055E+02  0.35632896483E+03  0.35799702560E+03  0.00000000000E+00 0.  1.
<mgrwt>
<rscale>  0 0.90046807E+02</rscale>
<asrwt>0</asrwt>
<pdfrwt beam="1">  1        2 0.30699193E+00 0.90046807E+02</pdfrwt>
<pdfrwt beam="2">  1       -2 0.15628704E-03 0.90046807E+02</pdfrwt>
<totfact> 0.20383354E+05</totfact>
</mgrwt>
</event>
<event>
 5    1  0.3921687E+001  0.9244389E+02  0.7546771E-02  0.1297039E+00
          1   -1    0    0  501    0  0.00000000000E+00  0.00000000000E+00  0.14690269650E+03  0.14690269650E+03  0.00000000000E+00 0. -1.
         -1   -1    0    0    0  501 -0.00000000000E+00 -0.00000000000E+00 -0.14543422620E+02  0.14543422620E+02  0.00000000000E+00 0.  1.
         23    2    1    2    0    0  0.00000000000E+00  0.00000000000E+00  0.13235927388E+03  0.16144611912E+03  0.92443885663E+02 0.  0.
          2    1    3    3  502    0  0.39657870376E+02 -0.38969069099E+01  0.10708231662E+03  0.11425653198E+03  0.00000000000E+00 0. -1.
         -2    1    3    3    0  502 -0.39657870376E+02  0.38969069099E+01  0.25276957251E+02  0.47189587136E+02  0.00000000000E+00 0.  1.
<mgrwt>
<rscale>  0 0.92443886E+02</rscale>
<asrwt>0</asrwt>
<pdfrwt beam="1">  1        1 0.22600414E-01 0.92443886E+02</pdfrwt>
<pdfrwt beam="2">  1       -1 0.22374497E-02 0.92443886E+02</pdfrwt>
<totfact> 0.10761334E+05</totfact>
</mgrwt>
</event>
<event>
 5    1  0.3921687E+001  0.9221761E+02  0.7546771E-02  0.1297569E+00
          3   -1    0    0  501    0  0.00000000000E+00  0.00000000000E+00  0.10327104195E+04  0.10327104195E+04  0.00000000000E+00 0. -1.
         -3   -1    0    0    0  501 -0.00000000000E+00 -0.00000000000E+00 -0.20586814382E+01  0.20586814382E+01  0.00000000000E+00 0.  1.
         23    2    1    2    0    0  0.00000000000E+00  0.00000000000E+00  0.10306517380E+04  0.10347691009E+04  0.92217607247E+02 0.  0.
          2    1    3    3  502    0  0.23786288531E+02  0.85990718115E+01  0.94792078532E+03  0.94825816464E+03  0.00000000000E+00 0. -1.
         -2    1    3    3    0  502 -0.23786288531E+02 -0.85990718115E+01  0.82730952724E+02  0.86510936284E+02  0.00000000000E+00 0.  1.
<mgrwt>
<rscale>  0 0.92217607E+02</rscale>
<asrwt>0</asrwt>
<pdfrwt beam="1">  1        3 0.15887811E+00 0.92217607E+02</pdfrwt>
<pdfrwt beam="2">  1       -3 0.31672105E-03 0.92217607E+02</pdfrwt>
<totfact> 0.93813877E+03</totfact>
</mgrwt>
</event>
<event>
 5    1  0.3921687E+001  0.9176119E+02  0.7546771E-02  0.1298642E+00
         -2   -1    0    0    0  501 -0.00000000000E+00  0.00000000000E+00  0.11620725930E+02  0.11620725930E+02  0.00000000000E+00 0.  1.
          2   -1    0    0  501    0  0.00000000000E+00 -0.00000000000E+00 -0.18114436362E+03  0.18114436362E+03  0.00000000000E+00 0. -1.
         23    2    1    2    0    0  0.00000000000E+00  0.00000000000E+00 -0.16952363769E+03  0.19276508955E+03  0.91761190127E+02 0.  0.
          2    1    3    3  502    0 -0.20046969280E+01 -0.45198722285E+02 -0.10077228404E+03  0.11046264770E+03  0.00000000000E+00 0. -1.
         -2    1    3    3    0  502  0.20046969280E+01  0.45198722285E+02 -0.68751353647E+02  0.82302441849E+02  0.00000000000E+00 0.  1.
<mgrwt>
<rscale>  0 0.91761190E+02</rscale>
<asrwt>0</asrwt>
<pdfrwt beam="2">  1        2 0.27868364E-01 0.91761190E+02</pdfrwt>
<pdfrwt beam="1">  1       -2 0.17878040E-02 0.91761190E+02</pdfrwt>
<totfact> 0.14672703E+05</totfact>
</mgrwt>
</event>
<event>
 5    1  0.3921687E+001  0.8653609E+02  0.7546771E-02  0.1311464E+00
         -2   -1    0    0    0  501 -0.00000000000E+00  0.00000000000E+00  0.13126015699E+01  0.13126015699E+01  0.00000000000E+00 0.  1.
          2   -1    0    0  501    0  0.00000000000E+00 -0.00000000000E+00 -0.14262695455E+04  0.14262695455E+04  0.00000000000E+00 0. -1.
         23    2    1    2    0    0  0.00000000000E+00  0.00000000000E+00 -0.14249569439E+04  0.14275821470E+04  0.86536088300E+02 0.  0.
          2    1    3    3  502    0  0.27046139529E+02 -0.66851429649E+01 -0.16634724630E+03  0.16866413712E+03  0.00000000000E+00 0.  1.
         -2    1    3    3    0  502 -0.27046139529E+02  0.66851429649E+01 -0.12586096976E+04  0.12589180099E+04  0.00000000000E+00 0. -1.
<mgrwt>
<rscale>  0 0.86536088E+02</rscale>
<asrwt>0</asrwt>
<pdfrwt beam="2">  1        2 0.21942639E+00 0.86536088E+02</pdfrwt>
<pdfrwt beam="1">  1       -2 0.20193842E-03 0.86536088E+02</pdfrwt>
<totfact> 0.27540579E+05</totfact>
</mgrwt>
</event>
<event>
 5    1  0.3921687E+001  0.9087742E+02  0.7546771E-02  0.1300741E+00
         -4   -1    0    0    0  501 -0.00000000000E+00  0.00000000000E+00  0.76193873418E+02  0.76193873418E+02  0.00000000000E+00 0.  1.
          4   -1    0    0  501    0  0.00000000000E+00 -0.00000000000E+00 -0.27097668304E+02  0.27097668304E+02  0.00000000000E+00 0. -1.
         23    2    1    2    0    0  0.00000000000E+00  0.00000000000E+00  0.49096205114E+02  0.10329154172E+03  0.90877418728E+02 0.  0.
          2    1    3    3  502    0 -0.41876694959E+02  0.14708953273E+02  0.35606812408E+02  0.56902161444E+02  0.00000000000E+00 0. -1.
         -2    1    3    3    0  502  0.41876694959E+02 -0.14708953273E+02  0.13489392705E+02  0.46389380278E+02  0.00000000000E+00 0.  1.
<mgrwt>
<rscale>  0 0.90877419E+02</rscale>
<asrwt>0</asrwt>
<pdfrwt beam="2">  1        4 0.41688721E-02 0.90877419E+02</pdfrwt>
<pdfrwt beam="1">  1       -4 0.11722134E-01 0.90877419E+02</pdfrwt>
<totfact> 0.26491006E+04</totfact>
</mgrwt>
</event>
<event>
 5    1  0.3921687E+001  0.6602074E+02  0.7546771E-02  0.1374173E+00
          2   -1    0    0  501    0  0.00000000000E+00  0.00000000000E+00  0.30216713338E+03  0.30216713338E+03  0.00000000000E+00 0. -1.
         -2   -1    0    0    0  501 -0.00000000000E+00 -0.00000000000E+00 -0.36062308883E+01  0.36062308883E+01  0.00000000000E+00 0.  1.
         23    2    1    2    0    0  0.00000000000E+00  0.00000000000E+00  0.29856090249E+03  0.30577336427E+03  0.66020737646E+02 0.  0.
          2    1    3    3  502    0  0.63581117327E+01  0.31817043932E+02  0.12113320812E+03  0.12540336510E+03  0.00000000000E+00 0.  1.
         -2    1    3    3    0  502 -0.63581117327E+01 -0.31817043932E+02  0.17742769437E+03  0.18036999917E+03  0.00000000000E+00 0. -1.
<mgrwt>
<rscale>  0 0.66020738E+02</rscale>
<asrwt>0</asrwt>
<pdfrwt beam="1">  1        2 0.46487231E-01 0.66020738E+02</pdfrwt>
<pdfrwt beam="2">  1       -2 0.55480499E-03 0.66020738E+02</pdfrwt>
<totfact> 0.41965756E+05</totfact>
</mgrwt>
</event>
<event>
 5    1  0.3921687E+001  0.1277270E+03  0.7546771E-02  0.1230868E+00
          1   -1    0    0  501    0  0.00000000000E+00  0.00000000000E+00  0.59254231765E+02  0.59254231765E+02  0.00000000000E+00 0. -1.
         -1   -1    0    0    0  501 -0.00000000000E+00 -0.00000000000E+00 -0.68831298537E+02  0.68831298537E+02  0.00000000000E+00 0.  1.
         23    2    1    2    0    0  0.00000000000E+00  0.00000000000E+00 -0.95770667720E+01  0.12808553030E+03  0.12772698566E+03 0.  0.
          2    1    3    3  502    0  0.20408865440E+01 -0.48747098851E+02  0.36535161629E+02  0.60952956446E+02  0.00000000000E+00 0. -1.
         -2    1    3    3    0  502 -0.20408865440E+01  0.48747098851E+02 -0.46112228401E+02  0.67132573855E+02  0.00000000000E+00 0.  1.
<mgrwt>
<rscale>  0 0.12772699E+03</rscale>
<asrwt>0</asrwt>
<pdfrwt beam="1">  1        1 0.91160357E-02 0.12772699E+03</pdfrwt>
<pdfrwt beam="2">  1       -1 0.10589431E-01 0.12772699E+03</pdfrwt>
<totfact> 0.36759270E+04</totfact>
</mgrwt>
</event>
<event>
 5    1  0.3921687E+001  0.9331090E+02  0.7546771E-02  0.1295026E+00
         -2   -1    0    0    0  501 -0.00000000000E+00  0.00000000000E+00  0.65781774561E+02  0.65781774561E+02  0.00000000000E+00 0. -1.
          2   -1    0    0  501    0  0.00000000000E+00 -0.00000000000E+00 -0.33090185317E+02  0.33090185317E+02  0.00000000000E+00 0.  1.
         23    2    1    2    0    0  0.00000000000E+00  0.00000000000E+00  0.32691589244E+02  0.98871959878E+02  0.93310902057E+02 0.  0.
          2    1    3    3  502    0 -0.11436007259E+02 -0.42281807198E+02  0.33371961269E+02  0.55065608876E+02  0.00000000000E+00 0. -1.
         -2    1    3    3    0  502  0.11436007259E+02  0.42281807198E+02 -0.68037202520E+00  0.43806351001E+02  0.00000000000E+00 0.  1.
<mgrwt>
<rscale>  0 0.93310902E+02</rscale>
<asrwt>0</asrwt>
<pdfrwt beam="2">  1        2 0.50907978E-02 0.93310902E+02</pdfrwt>
<pdfrwt beam="1">  1       -2 0.10120273E-01 0.93310902E+02</pdfrwt>
<totfact> 0.84797342E+04</totfact>
</mgrwt>
</event>
<event>
 5    1  0.3921687E+001  0.8940024E+02  0.7546771E-02  0.1304311E+00
          4   -1    0    0  501    0  0.00000000000E+00  0.00000000000E+00  0.30506668887E+02  0.30506668887E+02  0.00000000000E+00 0. -1.
         -4   -1    0    0    0  501 -0.00000000000E+00 -0.00000000000E+00 -0.65497174373E+02  0.65497174373E+02  0.00000000000E+00 0.  1.
         23    2    1    2    0    0  0.00000000000E+00  0.00000000000E+00 -0.34990505486E+02  0.96003843260E+02  0.89400237397E+02 0.  0.
          2    1    3    3  502    0  0.30715513738E+02  0.25869772953E+02  0.35868023379E+01  0.40318148368E+02  0.00000000000E+00 0. -1.
         -2    1    3    3    0  502 -0.30715513738E+02 -0.25869772953E+02 -0.38577307823E+02  0.55685694893E+02  0.00000000000E+00 0.  1.
<mgrwt>
<rscale>  0 0.89400237E+02</rscale>
<asrwt>0</asrwt>
<pdfrwt beam="1">  1        4 0.46933337E-02 0.89400237E+02</pdfrwt>
<pdfrwt beam="2">  1       -4 0.10076488E-01 0.89400237E+02</pdfrwt>
<totfact> 0.28167472E+04</totfact>
</mgrwt>
</event>
<event>
 5    1  0.3921687E+001  0.9230283E+02  0.7546771E-02  0.1297369E+00
         -1   -1    0    0    0  501 -0.00000000000E+00  0.00000000000E+00  0.19083673200E+02  0.19083673200E+02  0.00000000000E+00 0.  1.
          1   -1    0    0  501    0  0.00000000000E+00 -0.00000000000E+00 -0.11161126438E+03  0.11161126438E+03  0.00000000000E+00 0. -1.
         23    2    1    2    0    0  0.00000000000E+00  0.00000000000E+00 -0.92527591177E+02  0.13069493758E+03  0.92302825412E+02 0.  0.
          2    1    3    3  502    0  0.42881320303E+02 -0.61335102665E+01 -0.68809013464E+02  0.81308719784E+02  0.00000000000E+00 0. -1.
         -2    1    3    3    0  502 -0.42881320303E+02  0.61335102665E+01 -0.23718577714E+02  0.49386217792E+02  0.00000000000E+00 0.  1.
<mgrwt>
<rscale>  0 0.92302825E+02</rscale>
<asrwt>0</asrwt>
<pdfrwt beam="2">  1        1 0.17170963E-01 0.92302825E+02</pdfrwt>
<pdfrwt beam="1">  1       -1 0.29359498E-02 0.92302825E+02</pdfrwt>
<totfact> 0.10290682E+05</totfact>
</mgrwt>
</event>
<event>
 5    1  0.3921687E+001  0.9088830E+02  0.7546771E-02  0.1300715E+00
         -1   -1    0    0    0  501 -0.00000000000E+00  0.00000000000E+00  0.70522124680E+01  0.70522124680E+01  0.00000000000E+00 0.  1.
          1   -1    0    0  501    0  0.00000000000E+00 -0.00000000000E+00 -0.29284012064E+03  0.29284012064E+03  0.00000000000E+00 0. -1.
         23    2    1    2    0    0  0.00000000000E+00  0.00000000000E+00 -0.28578790817E+03  0.29989233311E+03  0.90888299575E+02 0.  0.
          2    1    3    3  502    0  0.37755697128E+02  0.25266917467E+02 -0.14659913207E+03  0.15347708398E+03  0.00000000000E+00 0. -1.
         -2    1    3    3    0  502 -0.37755697128E+02 -0.25266917467E+02 -0.13918877611E+03  0.14641524913E+03  0.00000000000E+00 0.  1.
<mgrwt>
<rscale>  0 0.90888300E+02</rscale>
<asrwt>0</asrwt>
<pdfrwt beam="2">  1        1 0.45052343E-01 0.90888300E+02</pdfrwt>
<pdfrwt beam="1">  1       -1 0.10849554E-02 0.90888300E+02</pdfrwt>
<totfact> 0.12861313E+05</totfact>
</mgrwt>
</event>
<event>
 5    1  0.3921687E+001  0.9182241E+02  0.7546771E-02  0.1298498E+00
          2   -1    0    0  501    0  0.00000000000E+00  0.00000000000E+00  0.37470207616E+02  0.37470207616E+02  0.00000000000E+00 0. -1.
         -2   -1    0    0    0  501 -0.00000000000E+00 -0.00000000000E+00 -0.56253720082E+02  0.56253720082E+02  0.00000000000E+00 0.  1.
         23    2    1    2    0    0  0.00000000000E+00  0.00000000000E+00 -0.18783512466E+02  0.93723927699E+02  0.91822406213E+02 0.  0.
          2    1    3    3  502    0 -0.28023808855E+02  0.35999673917E+02 -0.41345430758E+01  0.45808348926E+02  0.00000000000E+00 0. -1.
         -2    1    3    3    0  502  0.28023808855E+02 -0.35999673917E+02 -0.14648969390E+02  0.47915578772E+02  0.00000000000E+00 0.  1.
<mgrwt>
<rscale>  0 0.91822406E+02</rscale>
<asrwt>0</asrwt>
<pdfrwt beam="1">  1        2 0.57646474E-02 0.91822406E+02</pdfrwt>
<pdfrwt beam="2">  1       -2 0.86544184E-02 0.91822406E+02</pdfrwt>
<totfact> 0.91877337E+04</totfact>
</mgrwt>
</event>
<event>
 5    1  0.3921687E+001  0.9019800E+02  0.7546771E-02  0.1302373E+00
          1   -1    0    0  501    0  0.00000000000E+00  0.00000000000E+00  0.36057376219E+03  0.36057376219E+03  0.00000000000E+00 0. -1.
         -1   -1    0    0    0  501 -0.00000000000E+00 -0.00000000000E+00 -0.56407868538E+01  0.56407868538E+01  0.00000000000E+00 0.  1.
         23    2    1    2    0    0  0.00000000000E+00  0.00000000000E+00  0.35493297533E+03  0.36621454904E+03  0.90197998594E+02 0.  0.
          2    1    3    3  502    0  0.20597171066E+02  0.12715045845E+02  0.33196473512E+03  0.33284606233E+03  0.00000000000E+00 0. -1.
         -2    1    3    3    0  502 -0.20597171066E+02 -0.12715045845E+02  0.22968240213E+02  0.33368486709E+02  0.00000000000E+00 0.  1.
<mgrwt>
<rscale>  0 0.90197999E+02</rscale>
<asrwt>0</asrwt>
<pdfrwt beam="1">  1        1 0.55472869E-01 0.90197999E+02</pdfrwt>
<pdfrwt beam="2">  1       -1 0.86781364E-03 0.90197999E+02</pdfrwt>
<totfact> 0.13638286E+05</totfact>
</mgrwt>
</event>
<event>
 5    1  0.3921687E+001  0.9148904E+02  0.7546771E-02  0.1299285E+00
          1   -1    0    0  501    0  0.00000000000E+00  0.00000000000E+00  0.34160840243E+03  0.34160840243E+03  0.00000000000E+00 0. -1.
         -1   -1    0    0    0  501 -0.00000000000E+00 -0.00000000000E+00 -0.61256130597E+01  0.61256130597E+01  0.00000000000E+00 0.  1.
         23    2    1    2    0    0  0.00000000000E+00  0.00000000000E+00  0.33548278937E+03  0.34773401549E+03  0.91489035216E+02 0.  0.
          2    1    3    3  502    0  0.34261195730E+02  0.26114170602E+02  0.22622740111E+03  0.23029245852E+03  0.00000000000E+00 0. -1.
         -2    1    3    3    0  502 -0.34261195730E+02 -0.26114170602E+02  0.10925538826E+03  0.11744155697E+03  0.00000000000E+00 0.  1.
<mgrwt>
<rscale>  0 0.91489035E+02</rscale>
<asrwt>0</asrwt>
<pdfrwt beam="1">  1        1 0.52555124E-01 0.91489035E+02</pdfrwt>
<pdfrwt beam="2">  1       -1 0.94240227E-03 0.91489035E+02</pdfrwt>
<totfact> 0.13006972E+05</totfact>
</mgrwt>
</event>
<event>
 5    1  0.3921687E+001  0.8742175E+02  0.7546771E-02  0.1309218E+00
          3   -1    0    0  501    0  0.00000000000E+00  0.00000000000E+00  0.15766033888E+03  0.15766033888E+03  0.00000000000E+00 0. -1.
         -3   -1    0    0    0  501 -0.00000000000E+00 -0.00000000000E+00 -0.12118714228E+02  0.12118714228E+02  0.00000000000E+00 0.  1.
         23    2    1    2    0    0  0.00000000000E+00  0.00000000000E+00  0.14554162465E+03  0.16977905311E+03  0.87421749972E+02 0.  0.
          2    1    3    3  502    0 -0.39911189227E+02  0.16397230706E+02  0.59194599601E+02  0.73251435633E+02  0.00000000000E+00 0. -1.
         -2    1    3    3    0  502  0.39911189227E+02 -0.16397230706E+02  0.86347025052E+02  0.96527617476E+02  0.00000000000E+00 0.  1.
<mgrwt>
<rscale>  0 0.87421750E+02</rscale>
<asrwt>0</asrwt>
<pdfrwt beam="1">  1        3 0.24255435E-01 0.87421750E+02</pdfrwt>
<pdfrwt beam="2">  1       -3 0.18644177E-02 0.87421750E+02</pdfrwt>
<totfact> 0.33753580E+04</totfact>
</mgrwt>
</event>
<event>
 5    1  0.3921687E+001  0.9012171E+02  0.7546771E-02  0.1302557E+00
          4   -1    0    0  501    0  0.00000000000E+00  0.00000000000E+00  0.44237342938E+02  0.44237342938E+02  0.00000000000E+00 0. -1.
         -4   -1    0    0    0  501 -0.00000000000E+00 -0.00000000000E+00 -0.45899701077E+02  0.45899701077E+02  0.00000000000E+00 0.  1.
         23    2    1    2    0    0  0.00000000000E+00  0.00000000000E+00 -0.16623581386E+01  0.90137044015E+02  0.90121713639E+02 0.  0.
          2    1    3    3  502    0  0.24491295527E+02  0.20177654438E+02  0.31166754744E+02  0.44478398088E+02  0.00000000000E+00 0. -1.
         -2    1    3    3    0  502 -0.24491295527E+02 -0.20177654438E+02 -0.32829112883E+02  0.45658645927E+02  0.00000000000E+00 0.  1.
<mgrwt>
<rscale>  0 0.90121714E+02</rscale>
<asrwt>0</asrwt>
<pdfrwt beam="1">  1        4 0.68057451E-02 0.90121714E+02</pdfrwt>
<pdfrwt beam="2">  1       -4 0.70614924E-02 0.90121714E+02</pdfrwt>
<totfact> 0.27950989E+04</totfact>
</mgrwt>
</event>
<event>
 5    1  0.3921687E+001  0.9344753E+02  0.7546771E-02  0.1294711E+00
         -2   -1    0    0    0  501 -0.00000000000E+00  0.00000000000E+00  0.70157610331E+01  0.70157610331E+01  0.00000000000E+00 0.  1.
          2   -1    0    0  501    0  0.00000000000E+00 -0.00000000000E+00 -0.31117227756E+03  0.31117227756E+03  0.00000000000E+00 0. -1.
         23    2    1    2    0    0  0.00000000000E+00  0.00000000000E+00 -0.30415651652E+03  0.31818803859E+03  0.93447532647E+02 0.  0.
          2    1    3    3  502    0 -0.23692048453E+00  0.45762779395E+02 -0.18416878511E+03  0.18976941144E+03  0.00000000000E+00 0. -1.
         -2    1    3    3    0  502  0.23692048453E+00 -0.45762779395E+02 -0.11998773141E+03  0.12841862715E+03  0.00000000000E+00 0.  1.
<mgrwt>
<rscale>  0 0.93447533E+02</rscale>
<asrwt>0</asrwt>
<pdfrwt beam="2">  1        2 0.47872650E-01 0.93447533E+02</pdfrwt>
<pdfrwt beam="1">  1       -2 0.10793480E-02 0.93447533E+02</pdfrwt>
<totfact> 0.17053631E+05</totfact>
</mgrwt>
</event>
<event>
 5    1  0.3921687E+001  0.9056389E+02  0.7546771E-02  0.1301492E+00
          2   -1    0    0  501    0  0.00000000000E+00  0.00000000000E+00  0.17088236812E+02  0.17088236812E+02  0.00000000000E+00 0. -1.
         -2   -1    0    0    0  501 -0.00000000000E+00 -0.00000000000E+00 -0.11999215708E+03  0.11999215708E+03  0.00000000000E+00 0.  1.
         23    2    1    2    0    0  0.00000000000E+00  0.00000000000E+00 -0.10290392027E+03  0.13708039389E+03  0.90563886748E+02 0.  0.
          2    1    3    3  502    0  0.10710633054E+02 -0.41555898632E+02 -0.73326116748E+02  0.84960754286E+02  0.00000000000E+00 0.  1.
         -2    1    3    3    0  502 -0.10710633054E+02  0.41555898632E+02 -0.29577803521E+02  0.52119639606E+02  0.00000000000E+00 0. -1.
<mgrwt>
<rscale>  0 0.90563887E+02</rscale>
<asrwt>0</asrwt>
<pdfrwt beam="1">  1        2 0.26289596E-02 0.90563887E+02</pdfrwt>
<pdfrwt beam="2">  1       -2 0.18460332E-01 0.90563887E+02</pdfrwt>
<totfact> 0.76705148E+04</totfact>
</mgrwt>
</event>
<event>
 5    1  0.3921687E+001  0.9184033E+02  0.7546771E-02  0.1298455E+00
          2   -1    0    0  501    0  0.00000000000E+00  0.00000000000E+00  0.27782512226E+03  0.27782512226E+03  0.00000000000E+00 0. -1.
         -2   -1    0    0    0  501 -0.00000000000E+00 -0.00000000000E+00 -0.75898881347E+01  0.75898881347E+01  0.00000000000E+00 0.  1.
         23    2    1    2    0    0  0.00000000000E+00  0.00000000000E+00  0.27023523413E+03  0.28541501040E+03  0.91840330988E+02 0.  0.
          2    1    3    3  502    0 -0.39410190117E+02 -0.23384602224E+02  0.12597280996E+03  0.13404906399E+03  0.00000000000E+00 0. -1.
         -2    1    3    3    0  502  0.39410190117E+02  0.23384602224E+02  0.14426242417E+03  0.15136594641E+03  0.00000000000E+00 0.  1.
<mgrwt>
<rscale>  0 0.91840331E+02</rscale>
<asrwt>0</asrwt>
<pdfrwt beam="1">  1        2 0.42742319E-01 0.91840331E+02</pdfrwt>
<pdfrwt beam="2">  1       -2 0.11676753E-02 0.91840331E+02</pdfrwt>
<totfact> 0.17123451E+05</totfact>
</mgrwt>
</event>
<event>
 5    1  0.3921687E+001  0.8923414E+02  0.7546771E-02  0.1304717E+00
          2   -1    0    0  501    0  0.00000000000E+00  0.00000000000E+00  0.32093301168E+03  0.32093301168E+03  0.00000000000E+00 0. -1.
         -2   -1    0    0    0  501 -0.00000000000E+00 -0.00000000000E+00 -0.62027988945E+01  0.62027988945E+01  0.00000000000E+00 0.  1.
         23    2    1    2    0    0  0.00000000000E+00  0.00000000000E+00  0.31473021278E+03  0.32713581057E+03  0.89234139880E+02 0.  0.
          2    1    3    3  502    0 -0.14935725862E+02 -0.22620777468E+02  0.28728506216E+03  0.28856105493E+03  0.00000000000E+00 0. -1.
         -2    1    3    3    0  502  0.14935725862E+02  0.22620777468E+02  0.27445150621E+02  0.38574755643E+02  0.00000000000E+00 0.  1.
<mgrwt>
<rscale>  0 0.89234140E+02</rscale>
<asrwt>0</asrwt>
<pdfrwt beam="1">  1        2 0.49374296E-01 0.89234140E+02</pdfrwt>
<pdfrwt beam="2">  1       -2 0.95427701E-03 0.89234140E+02</pdfrwt>
<totfact> 0.19508171E+05</totfact>
</mgrwt>
</event>
<event>
 5    1  0.3921687E+001  0.9050915E+02  0.7546771E-02  0.1301623E+00
         -1   -1    0    0    0  501 -0.00000000000E+00  0.00000000000E+00  0.74365823060E+01  0.74365823060E+01  0.00000000000E+00 0.  1.
          1   -1    0    0  501    0  0.00000000000E+00 -0.00000000000E+00 -0.27539219562E+03  0.27539219562E+03  0.00000000000E+00 0. -1.
         23    2    1    2    0    0  0.00000000000E+00  0.00000000000E+00 -0.26795561331E+03  0.28282877792E+03  0.90509153772E+02 0.  0.
          2    1    3    3  502    0  0.35268786288E+02  0.20787870652E+02 -0.19424426044E+03  0.19851160058E+03  0.00000000000E+00 0. -1.
         -2    1    3    3    0  502 -0.35268786288E+02 -0.20787870652E+02 -0.73711352877E+02  0.84317177345E+02  0.00000000000E+00 0.  1.
<mgrwt>
<rscale>  0 0.90509154E+02</rscale>
<asrwt>0</asrwt>
<pdfrwt beam="2">  1        1 0.42368039E-01 0.90509154E+02</pdfrwt>
<pdfrwt beam="1">  1       -1 0.11440893E-02 0.90509154E+02</pdfrwt>
<totfact> 0.12852002E+05</totfact>
</mgrwt>
</event>
<event>
 5    1  0.3921687E+001  0.8841134E+02  0.7546771E-02  0.1306745E+00
         -1   -1    0    0    0  501 -0.00000000000E+00  0.00000000000E+00  0.40048387943E+01  0.40048387943E+01  0.00000000000E+00 0.  1.
          1   -1    0    0  501    0  0.00000000000E+00 -0.00000000000E+00 -0.48794507840E+03  0.48794507840E+03  0.00000000000E+00 0. -1.
         23    2    1    2    0    0  0.00000000000E+00  0.00000000000E+00 -0.48394023960E+03  0.49194991719E+03  0.88411342699E+02 0.  0.
          2    1    3    3  502    0 -0.24217580830E+02  0.35949530261E+02 -0.19369127810E+03  0.19848216837E+03  0.00000000000E+00 0. -1.
         -2    1    3    3    0  502  0.24217580830E+02 -0.35949530261E+02 -0.29024896150E+03  0.29346774882E+03  0.00000000000E+00 0.  1.
<mgrwt>
<rscale>  0 0.88411343E+02</rscale>
<asrwt>0</asrwt>
<pdfrwt beam="2">  1        1 0.75068494E-01 0.88411343E+02</pdfrwt>
<pdfrwt beam="1">  1       -1 0.61612888E-03 0.88411343E+02</pdfrwt>
<totfact> 0.15064187E+05</totfact>
</mgrwt>
</event>
<event>
 5    1  0.3921687E+001  0.6885672E+02  0.7546771E-02  0.1364025E+00
         -4   -1    0    0    0  501 -0.00000000000E+00  0.00000000000E+00  0.45426049428E+03  0.45426049428E+03  0.00000000000E+00 0. -1.
          4   -1    0    0  501    0  0.00000000000E+00 -0.00000000000E+00 -0.26093222410E+01  0.26093222410E+01  0.00000000000E+00 0.  1.
         23    2    1    2    0    0  0.00000000000E+00  0.00000000000E+00  0.45165117204E+03  0.45686981652E+03  0.68856721122E+02 0.  0.
          2    1    3    3  502    0  0.27361168749E+02  0.11764352156E+02  0.34041832104E+03  0.34171869548E+03  0.00000000000E+00 0. -1.
         -2    1    3    3    0  502 -0.27361168749E+02 -0.11764352156E+02  0.11123285100E+03  0.11515112105E+03  0.00000000000E+00 0.  1.
<mgrwt>
<rscale>  0 0.68856721E+02</rscale>
<asrwt>0</asrwt>
<pdfrwt beam="2">  1        4 0.40143455E-03 0.68856721E+02</pdfrwt>
<pdfrwt beam="1">  1       -4 0.69886167E-01 0.68856721E+02</pdfrwt>
<totfact> 0.28759244E+04</totfact>
</mgrwt>
</event>
<event>
 5    1  0.3921687E+001  0.9035837E+02  0.7546771E-02  0.1301986E+00
          2   -1    0    0  501    0  0.00000000000E+00  0.00000000000E+00  0.64087471637E+02  0.64087471637E+02  0.00000000000E+00 0. -1.
         -2   -1    0    0    0  501 -0.00000000000E+00 -0.00000000000E+00 -0.31849573446E+02  0.31849573446E+02  0.00000000000E+00 0.  1.
         23    2    1    2    0    0  0.00000000000E+00  0.00000000000E+00  0.32237898191E+02  0.95937045083E+02  0.90358367291E+02 0.  0.
          2    1    3    3  502    0  0.18150522656E+02  0.41049473758E+02  0.10637054802E+02  0.46126431721E+02  0.00000000000E+00 0. -1.
         -2    1    3    3    0  502 -0.18150522656E+02 -0.41049473758E+02  0.21600843389E+02  0.49810613362E+02  0.00000000000E+00 0.  1.
<mgrwt>
<rscale>  0 0.90358367E+02</rscale>
<asrwt>0</asrwt>
<pdfrwt beam="1">  1        2 0.98596110E-02 0.90358367E+02</pdfrwt>
<pdfrwt beam="2">  1       -2 0.48999344E-02 0.90358367E+02</pdfrwt>
<totfact> 0.11074097E+05</totfact>
</mgrwt>
</event>
<event>
 5    1  0.3921687E+001  0.9240964E+02  0.7546771E-02  0.1297119E+00
         -2   -1    0    0    0  501 -0.00000000000E+00  0.00000000000E+00  0.16882423460E+01  0.16882423460E+01  0.00000000000E+00 0.  1.
          2   -1    0    0  501    0  0.00000000000E+00 -0.00000000000E+00 -0.12645610028E+04  0.12645610028E+04  0.00000000000E+00 0. -1.
         23    2    1    2    0    0  0.00000000000E+00  0.00000000000E+00 -0.12628727605E+04  0.12662492451E+04  0.92409640927E+02 0.  0.
          2    1    3    3  502    0  0.28729006281E+02 -0.16933532905E+02 -0.10696583151E+04  0.10701780279E+04  0.00000000000E+00 0. -1.
         -2    1    3    3    0  502 -0.28729006281E+02  0.16933532905E+02 -0.19321444533E+03  0.19607121723E+03  0.00000000000E+00 0.  1.
<mgrwt>
<rscale>  0 0.92409641E+02</rscale>
<asrwt>0</asrwt>
<pdfrwt beam="2">  1        2 0.19454749E+00 0.92409641E+02</pdfrwt>
<pdfrwt beam="1">  1       -2 0.25973006E-03 0.92409641E+02</pdfrwt>
<totfact> 0.23832881E+05</totfact>
</mgrwt>
</event>
<event>
 5    1  0.3921687E+001  0.8690233E+02  0.7546771E-02  0.1310531E+00
          2   -1    0    0  501    0  0.00000000000E+00  0.00000000000E+00  0.81616754726E+03  0.81616754726E+03  0.00000000000E+00 0. -1.
         -2   -1    0    0    0  501 -0.00000000000E+00 -0.00000000000E+00 -0.23132550428E+01  0.23132550428E+01  0.00000000000E+00 0.  1.
         23    2    1    2    0    0  0.00000000000E+00  0.00000000000E+00  0.81385429221E+03  0.81848080230E+03  0.86902328956E+02 0.  0.
          2    1    3    3  502    0  0.38203263062E+02  0.14146581847E+02  0.26459129566E+03  0.26770911234E+03  0.00000000000E+00 0.  1.
         -2    1    3    3    0  502 -0.38203263062E+02 -0.14146581847E+02  0.54926299655E+03  0.55077168996E+03  0.00000000000E+00 0. -1.
<mgrwt>
<rscale>  0 0.86902329E+02</rscale>
<asrwt>0</asrwt>
<pdfrwt beam="1">  1        2 0.12556401E+00 0.86902329E+02</pdfrwt>
<pdfrwt beam="2">  1       -2 0.35588604E-03 0.86902329E+02</pdfrwt>
<totfact> 0.27747196E+05</totfact>
</mgrwt>
</event>
<event>
 5    1  0.3921687E+001  0.9382442E+02  0.7546771E-02  0.1293846E+00
          1   -1    0    0  501    0  0.00000000000E+00  0.00000000000E+00  0.32607095507E+01  0.32607095507E+01  0.00000000000E+00 0. -1.
         -1   -1    0    0    0  501 -0.00000000000E+00 -0.00000000000E+00 -0.67493152439E+03  0.67493152439E+03  0.00000000000E+00 0.  1.
         23    2    1    2    0    0  0.00000000000E+00  0.00000000000E+00 -0.67167081484E+03  0.67819223394E+03  0.93824424702E+02 0.  0.
          2    1    3    3  502    0 -0.13414327318E+02 -0.17120530739E+02 -0.35386289909E+02  0.41536083876E+02  0.00000000000E+00 0. -1.
         -2    1    3    3    0  502  0.13414327318E+02  0.17120530739E+02 -0.63628452493E+03  0.63665615007E+03  0.00000000000E+00 0.  1.
<mgrwt>
<rscale>  0 0.93824425E+02</rscale>
<asrwt>0</asrwt>
<pdfrwt beam="1">  1        1 0.50164784E-03 0.93824425E+02</pdfrwt>
<pdfrwt beam="2">  1       -1 0.10383558E+00 0.93824425E+02</pdfrwt>
<totfact> 0.35231635E+04</totfact>
</mgrwt>
</event>
<event>
 5    1  0.3921687E+001  0.9049872E+02  0.7546771E-02  0.1301648E+00
         -2   -1    0    0    0  501 -0.00000000000E+00  0.00000000000E+00  0.30098924617E+01  0.30098924617E+01  0.00000000000E+00 0.  1.
          2   -1    0    0  501    0  0.00000000000E+00 -0.00000000000E+00 -0.68025836188E+03  0.68025836188E+03  0.00000000000E+00 0. -1.
         23    2    1    2    0    0  0.00000000000E+00  0.00000000000E+00 -0.67724846942E+03  0.68326825434E+03  0.90498718565E+02 0.  0.
          2    1    3    3  502    0  0.22799726212E+02 -0.11540516058E+02 -0.62056447070E+03  0.62109039062E+03  0.00000000000E+00 0. -1.
         -2    1    3    3    0  502 -0.22799726212E+02  0.11540516058E+02 -0.56683998719E+02  0.62177863721E+02  0.00000000000E+00 0.  1.
<mgrwt>
<rscale>  0 0.90498719E+02</rscale>
<asrwt>0</asrwt>
<pdfrwt beam="2">  1        2 0.10465525E+00 0.90498719E+02</pdfrwt>
<pdfrwt beam="1">  1       -2 0.46305987E-03 0.90498719E+02</pdfrwt>
<totfact> 0.24021521E+05</totfact>
</mgrwt>
</event>
<event>
 5    1  0.3921687E+001  0.9312519E+02  0.7546771E-02  0.1295455E+00
         -2   -1    0    0    0  501 -0.00000000000E+00  0.00000000000E+00  0.23136574446E+02  0.23136574446E+02  0.00000000000E+00 0.  1.
          2   -1    0    0  501    0  0.00000000000E+00 -0.00000000000E+00 -0.93707697730E+02  0.93707697730E+02  0.00000000000E+00 0. -1.
         23    2    1    2    0    0  0.00000000000E+00  0.00000000000E+00 -0.70571123284E+02  0.11684427218E+03  0.93125187242E+02 0.  0.
          2    1    3    3  502    0 -0.37497223415E+02  0.89351080985E+01 -0.68056979859E+02  0.78215282574E+02  0.00000000000E+00 0. -1.
         -2    1    3    3    0  502  0.37497223415E+02 -0.89351080985E+01 -0.25141434247E+01  0.38628989603E+02  0.00000000000E+00 0.  1.
<mgrwt>
<rscale>  0 0.93125187E+02</rscale>
<asrwt>0</asrwt>
<pdfrwt beam="2">  1        2 0.14416569E-01 0.93125187E+02</pdfrwt>
<pdfrwt beam="1">  1       -2 0.35594730E-02 0.93125187E+02</pdfrwt>
<totfact> 0.11345775E+05</totfact>
</mgrwt>
</event>
<event>
 5    1  0.3921687E+001  0.9362072E+02  0.7546771E-02  0.1294313E+00
          3   -1    0    0  501    0  0.00000000000E+00  0.00000000000E+00  0.14712168271E+01  0.14712168271E+01  0.00000000000E+00 0. -1.
         -3   -1    0    0    0  501 -0.00000000000E+00 -0.00000000000E+00 -0.14893861976E+04  0.14893861976E+04  0.00000000000E+00 0.  1.
         23    2    1    2    0    0  0.00000000000E+00  0.00000000000E+00 -0.14879149808E+04  0.14908574144E+04  0.93620724970E+02 0.  0.
          2    1    3    3  502    0  0.76688846902E+01  0.34157274343E+02 -0.24909963322E+03  0.25154752722E+03  0.00000000000E+00 0. -1.
         -2    1    3    3    0  502 -0.76688846902E+01 -0.34157274343E+02 -0.12388153476E+04  0.12393098872E+04  0.00000000000E+00 0.  1.
<mgrwt>
<rscale>  0 0.93620725E+02</rscale>
<asrwt>0</asrwt>
<pdfrwt beam="1">  1        3 0.22634219E-03 0.93620725E+02</pdfrwt>
<pdfrwt beam="2">  1       -3 0.22913519E+00 0.93620725E+02</pdfrwt>
<totfact> 0.57006528E+03</totfact>
</mgrwt>
</event>
<event>
 5    1  0.3921687E+001  0.9138294E+02  0.7546771E-02  0.1299537E+00
          2   -1    0    0  501    0  0.00000000000E+00  0.00000000000E+00  0.53877019033E+03  0.53877019033E+03  0.00000000000E+00 0. -1.
         -2   -1    0    0    0  501 -0.00000000000E+00 -0.00000000000E+00 -0.38749552355E+01  0.38749552355E+01  0.00000000000E+00 0.  1.
         23    2    1    2    0    0  0.00000000000E+00  0.00000000000E+00  0.53489523509E+03  0.54264514556E+03  0.91382938664E+02 0.  0.
          2    1    3    3  502    0  0.36741845276E+02  0.20732892177E+02  0.16325146873E+03  0.16861452504E+03  0.00000000000E+00 0.  1.
         -2    1    3    3    0  502 -0.36741845276E+02 -0.20732892177E+02  0.37164376636E+03  0.37403062052E+03  0.00000000000E+00 0. -1.
<mgrwt>
<rscale>  0 0.91382939E+02</rscale>
<asrwt>0</asrwt>
<pdfrwt beam="1">  1        2 0.82887662E-01 0.91382939E+02</pdfrwt>
<pdfrwt beam="2">  1       -2 0.59614739E-03 0.91382939E+02</pdfrwt>
<totfact> 0.21935337E+05</totfact>
</mgrwt>
</event>
<event>
 5    1  0.3921687E+001  0.9263486E+02  0.7546771E-02  0.1296594E+00
         -2   -1    0    0    0  501 -0.00000000000E+00  0.00000000000E+00  0.15288105666E+01  0.15288105666E+01  0.00000000000E+00 0. -1.
          2   -1    0    0  501    0  0.00000000000E+00 -0.00000000000E+00 -0.14032505978E+04  0.14032505978E+04  0.00000000000E+00 0.  1.
         23    2    1    2    0    0  0.00000000000E+00  0.00000000000E+00 -0.14017217872E+04  0.14047794083E+04  0.92634860424E+02 0.  0.
          2    1    3    3  502    0 -0.42339706952E+02  0.64973421898E+01 -0.43367028433E+03  0.43578065785E+03  0.00000000000E+00 0. -1.
         -2    1    3    3    0  502  0.42339706952E+02 -0.64973421898E+01 -0.96805150288E+03  0.96899875050E+03  0.00000000000E+00 0.  1.
<mgrwt>
<rscale>  0 0.92634860E+02</rscale>
<asrwt>0</asrwt>
<pdfrwt beam="2">  1        2 0.21588521E+00 0.92634860E+02</pdfrwt>
<pdfrwt beam="1">  1       -2 0.23520108E-03 0.92634860E+02</pdfrwt>
<totfact> 0.23136089E+05</totfact>
</mgrwt>
</event>
<event>
 5    1  0.3921687E+001  0.8447614E+02  0.7546771E-02  0.1316808E+00
          3   -1    0    0  501    0  0.00000000000E+00  0.00000000000E+00  0.18225805061E+02  0.18225805061E+02  0.00000000000E+00 0. -1.
         -3   -1    0    0    0  501 -0.00000000000E+00 -0.00000000000E+00 -0.97886194490E+02  0.97886194490E+02  0.00000000000E+00 0.  1.
         23    2    1    2    0    0  0.00000000000E+00  0.00000000000E+00 -0.79660389429E+02  0.11611199955E+03  0.84476143352E+02 0.  0.
          2    1    3    3  502    0 -0.34229254914E+02  0.17001932907E+02 -0.64546155654E+02  0.75012757743E+02  0.00000000000E+00 0.  1.
         -2    1    3    3    0  502  0.34229254914E+02 -0.17001932907E+02 -0.15114233775E+02  0.41099241807E+02  0.00000000000E+00 0. -1.
<mgrwt>
<rscale>  0 0.84476143E+02</rscale>
<asrwt>0</asrwt>
<pdfrwt beam="1">  1        3 0.28039700E-02 0.84476143E+02</pdfrwt>
<pdfrwt beam="2">  1       -3 0.15059415E-01 0.84476143E+02</pdfrwt>
<totfact> 0.41190056E+04</totfact>
</mgrwt>
</event>
<event>
 5    1  0.3921687E+001  0.9101237E+02  0.7546771E-02  0.1300418E+00
          1   -1    0    0  501    0  0.00000000000E+00  0.00000000000E+00  0.70983320052E+03  0.70983320052E+03  0.00000000000E+00 0. -1.
         -1   -1    0    0    0  501 -0.00000000000E+00 -0.00000000000E+00 -0.29173230299E+01  0.29173230299E+01  0.00000000000E+00 0.  1.
         23    2    1    2    0    0  0.00000000000E+00  0.00000000000E+00  0.70691587749E+03  0.71275052355E+03  0.91012367143E+02 0.  0.
          2    1    3    3  502    0  0.31177489830E+02 -0.10390262330E+02  0.59996784017E+03  0.60086720884E+03  0.00000000000E+00 0. -1.
         -2    1    3    3    0  502 -0.31177489830E+02  0.10390262330E+02  0.10694803732E+03  0.11188331471E+03  0.00000000000E+00 0.  1.
<mgrwt>
<rscale>  0 0.91012367E+02</rscale>
<asrwt>0</asrwt>
<pdfrwt beam="1">  1        1 0.10920497E+00 0.91012367E+02</pdfrwt>
<pdfrwt beam="2">  1       -1 0.44881949E-03 0.91012367E+02</pdfrwt>
<totfact> 0.14283045E+05</totfact>
</mgrwt>
</event>
<event>
 5    1  0.3921687E+001  0.9162225E+02  0.7546771E-02  0.1298970E+00
         -3   -1    0    0    0  501 -0.00000000000E+00  0.00000000000E+00  0.10551242969E+02  0.10551242969E+02  0.00000000000E+00 0.  1.
          3   -1    0    0  501    0  0.00000000000E+00 -0.00000000000E+00 -0.19890159871E+03  0.19890159871E+03  0.00000000000E+00 0. -1.
         23    2    1    2    0    0  0.00000000000E+00  0.00000000000E+00 -0.18835035574E+03  0.20945284168E+03  0.91622248277E+02 0.  0.
          2    1    3    3  502    0  0.31230472744E+02 -0.10328583114E+01 -0.17075777570E+03  0.17359328094E+03  0.00000000000E+00 0. -1.
         -2    1    3    3    0  502 -0.31230472744E+02  0.10328583114E+01 -0.17592580040E+02  0.35859560741E+02  0.00000000000E+00 0.  1.
<mgrwt>
<rscale>  0 0.91622248E+02</rscale>
<asrwt>0</asrwt>
<pdfrwt beam="2">  1        3 0.30600244E-01 0.91622248E+02</pdfrwt>
<pdfrwt beam="1">  1       -3 0.16232683E-02 0.91622248E+02</pdfrwt>
<totfact> 0.27650749E+04</totfact>
</mgrwt>
</event>
<event>
 5    1  0.3921687E+001  0.8909958E+02  0.7546771E-02  0.1305047E+00
          2   -1    0    0  501    0  0.00000000000E+00  0.00000000000E+00  0.37291674200E+03  0.37291674200E+03  0.00000000000E+00 0. -1.
         -2   -1    0    0    0  501 -0.00000000000E+00 -0.00000000000E+00 -0.53220554431E+01  0.53220554431E+01  0.00000000000E+00 0.  1.
         23    2    1    2    0    0  0.00000000000E+00  0.00000000000E+00  0.36759468656E+03  0.37823879744E+03  0.89099575230E+02 0.  0.
          2    1    3    3  502    0 -0.21931813975E+02 -0.33332783574E+02  0.99683367541E+02  0.10737249503E+03  0.00000000000E+00 0.  1.
         -2    1    3    3    0  502  0.21931813975E+02  0.33332783574E+02  0.26791131901E+03  0.27086630241E+03  0.00000000000E+00 0. -1.
<mgrwt>
<rscale>  0 0.89099575E+02</rscale>
<asrwt>0</asrwt>
<pdfrwt beam="1">  1        2 0.57371786E-01 0.89099575E+02</pdfrwt>
<pdfrwt beam="2">  1       -2 0.81877806E-03 0.89099575E+02</pdfrwt>
<totfact> 0.20691144E+05</totfact>
</mgrwt>
</event>
<event>
 5    1  0.3921687E+001  0.9090806E+02  0.7546771E-02  0.1300667E+00
          2   -1    0    0  501    0  0.00000000000E+00  0.00000000000E+00  0.13038265281E+03  0.13038265281E+03  0.00000000000E+00 0. -1.
         -2   -1    0    0    0  501 -0.00000000000E+00 -0.00000000000E+00 -0.15846193531E+02  0.15846193531E+02  0.00000000000E+00 0.  1.
         23    2    1    2    0    0  0.00000000000E+00  0.00000000000E+00  0.11453645928E+03  0.14622884634E+03  0.90908057939E+02 0.  0.
          2    1    3    3  502    0 -0.85709763280E+01  0.30133714343E+02  0.11024173858E+03  0.11460690774E+03  0.00000000000E+00 0. -1.
         -2    1    3    3    0  502  0.85709763280E+01 -0.30133714343E+02  0.42947206979E+01  0.31621938606E+02  0.00000000000E+00 0.  1.
<mgrwt>
<rscale>  0 0.90908058E+02</rscale>
<asrwt>0</asrwt>
<pdfrwt beam="1">  1        2 0.20058869E-01 0.90908058E+02</pdfrwt>
<pdfrwt beam="2">  1       -2 0.24378760E-02 0.90908058E+02</pdfrwt>
<totfact> 0.13448722E+05</totfact>
</mgrwt>
</event>
<event>
 5    1  0.3921687E+001  0.8997359E+02  0.7546771E-02  0.1302916E+00
          3   -1    0    0  501    0  0.00000000000E+00  0.00000000000E+00  0.34636520919E+02  0.34636520919E+02  0.00000000000E+00 0. -1.
         -3   -1    0    0    0  501 -0.00000000000E+00 -0.00000000000E+00 -0.58429996175E+02  0.58429996175E+02  0.00000000000E+00 0.  1.
         23    2    1    2    0    0  0.00000000000E+00  0.00000000000E+00 -0.23793475256E+02  0.93066517095E+02  0.89973591344E+02 0.  0.
          2    1    3    3  502    0 -0.27937037808E+02  0.29744352975E+02 -0.31484638130E+02  0.51541120026E+02  0.00000000000E+00 0. -1.
         -2    1    3    3    0  502  0.27937037808E+02 -0.29744352975E+02  0.76911628744E+01  0.41525397069E+02  0.00000000000E+00 0.  1.
<mgrwt>
<rscale>  0 0.89973591E+02</rscale>
<asrwt>0</asrwt>
<pdfrwt beam="1">  1        3 0.53286956E-02 0.89973591E+02</pdfrwt>
<pdfrwt beam="2">  1       -3 0.89892301E-02 0.89973591E+02</pdfrwt>
<totfact> 0.36488775E+04</totfact>
</mgrwt>
</event>
<event>
 5    1  0.3921687E+001  0.9040514E+02  0.7546771E-02  0.1301874E+00
          1   -1    0    0  501    0  0.00000000000E+00  0.00000000000E+00  0.12731614548E+04  0.12731614548E+04  0.00000000000E+00 0. -1.
         -1   -1    0    0    0  501 -0.00000000000E+00 -0.00000000000E+00 -0.16048808430E+01  0.16048808430E+01  0.00000000000E+00 0.  1.
         23    2    1    2    0    0  0.00000000000E+00  0.00000000000E+00  0.12715565740E+04  0.12747663357E+04  0.90405142086E+02 0.  0.
          2    1    3    3  502    0  0.23495668715E+02  0.29891907430E+02  0.98050824512E+03  0.98124512296E+03  0.00000000000E+00 0. -1.
         -2    1    3    3    0  502 -0.23495668715E+02 -0.29891907430E+02  0.29104832888E+03  0.29352121273E+03  0.00000000000E+00 0.  1.
<mgrwt>
<rscale>  0 0.90405142E+02</rscale>
<asrwt>0</asrwt>
<pdfrwt beam="1">  1        1 0.19587019E+00 0.90405142E+02</pdfrwt>
<pdfrwt beam="2">  1       -1 0.24690576E-03 0.90405142E+02</pdfrwt>
<totfact> 0.12632600E+05</totfact>
</mgrwt>
</event>
<event>
 5    1  0.3921687E+001  0.9256423E+02  0.7546771E-02  0.1296758E+00
          2   -1    0    0  501    0  0.00000000000E+00  0.00000000000E+00  0.99128942410E+01  0.99128942410E+01  0.00000000000E+00 0. -1.
         -2   -1    0    0    0  501 -0.00000000000E+00 -0.00000000000E+00 -0.21608562646E+03  0.21608562646E+03  0.00000000000E+00 0.  1.
         23    2    1    2    0    0  0.00000000000E+00  0.00000000000E+00 -0.20617273222E+03  0.22599852070E+03  0.92564225533E+02 0.  0.
          2    1    3    3  502    0 -0.24222857383E+02 -0.18237501038E+02 -0.18845905355E+03  0.19088260300E+03  0.00000000000E+00 0.  1.
         -2    1    3    3    0  502  0.24222857383E+02  0.18237501038E+02 -0.17713678671E+02  0.35115917700E+02  0.00000000000E+00 0. -1.
<mgrwt>
<rscale>  0 0.92564226E+02</rscale>
<asrwt>0</asrwt>
<pdfrwt beam="1">  1        2 0.15250608E-02 0.92564226E+02</pdfrwt>
<pdfrwt beam="2">  1       -2 0.33243939E-01 0.92564226E+02</pdfrwt>
<totfact> 0.57932099E+04</totfact>
</mgrwt>
</event>
<event>
 5    1  0.3921687E+001  0.8546610E+02  0.7546771E-02  0.1314218E+00
          2   -1    0    0  501    0  0.00000000000E+00  0.00000000000E+00  0.38706657630E+03  0.38706657630E+03  0.00000000000E+00 0. -1.
         -2   -1    0    0    0  501 -0.00000000000E+00 -0.00000000000E+00 -0.47178280677E+01  0.47178280677E+01  0.00000000000E+00 0.  1.
         23    2    1    2    0    0  0.00000000000E+00  0.00000000000E+00  0.38234874823E+03  0.39178440437E+03  0.85466099893E+02 0.  0.
          2    1    3    3  502    0 -0.36363608737E+02  0.22393348485E+02  0.18416287044E+03  0.18904956214E+03  0.00000000000E+00 0. -1.
         -2    1    3    3    0  502  0.36363608737E+02 -0.22393348485E+02  0.19818587779E+03  0.20273484223E+03  0.00000000000E+00 0.  1.
<mgrwt>
<rscale>  0 0.85466100E+02</rscale>
<asrwt>0</asrwt>
<pdfrwt beam="1">  1        2 0.59548679E-01 0.85466100E+02</pdfrwt>
<pdfrwt beam="2">  1       -2 0.72582001E-03 0.85466100E+02</pdfrwt>
<totfact> 0.23410758E+05</totfact>
</mgrwt>
</event>
<event>
 5    1  0.3921687E+001  0.9275620E+02  0.7546771E-02  0.1296311E+00
          3   -1    0    0  501    0  0.00000000000E+00  0.00000000000E+00  0.73247555860E+02  0.73247555860E+02  0.00000000000E+00 0. -1.
         -3   -1    0    0    0  501 -0.00000000000E+00 -0.00000000000E+00 -0.29365188666E+02  0.29365188666E+02  0.00000000000E+00 0.  1.
         23    2    1    2    0    0  0.00000000000E+00  0.00000000000E+00  0.43882367194E+02  0.10261274453E+03  0.92756202965E+02 0.  0.
          2    1    3    3  502    0 -0.36722057003E+02 -0.26511704520E+02  0.32978801979E+02  0.56026612668E+02  0.00000000000E+00 0. -1.
         -2    1    3    3    0  502  0.36722057003E+02  0.26511704520E+02  0.10903565215E+02  0.46586131858E+02  0.00000000000E+00 0.  1.
<mgrwt>
<rscale>  0 0.92756203E+02</rscale>
<asrwt>0</asrwt>
<pdfrwt beam="1">  1        3 0.11268855E-01 0.92756203E+02</pdfrwt>
<pdfrwt beam="2">  1       -3 0.45177214E-02 0.92756203E+02</pdfrwt>
<totfact> 0.32900240E+04</totfact>
</mgrwt>
</event>
<event>
 5    1  0.3921687E+001  0.9012470E+02  0.7546771E-02  0.1302550E+00
          3   -1    0    0  501    0  0.00000000000E+00  0.00000000000E+00  0.10486707714E+02  0.10486707714E+02  0.00000000000E+00 0. -1.
         -3   -1    0    0    0  501 -0.00000000000E+00 -0.00000000000E+00 -0.19363707681E+03  0.19363707681E+03  0.00000000000E+00 0.  1.
         23    2    1    2    0    0  0.00000000000E+00  0.00000000000E+00 -0.18315036910E+03  0.20412378453E+03  0.90124700878E+02 0.  0.
          2    1    3    3  502    0 -0.24400540153E+02 -0.35277785893E+02 -0.60297617263E+02  0.73998048521E+02  0.00000000000E+00 0. -1.
         -2    1    3    3    0  502  0.24400540153E+02  0.35277785893E+02 -0.12285275184E+03  0.13012573601E+03  0.00000000000E+00 0.  1.
<mgrwt>
<rscale>  0 0.90124701E+02</rscale>
<asrwt>0</asrwt>
<pdfrwt beam="1">  1        3 0.16133397E-02 0.90124701E+02</pdfrwt>
<pdfrwt beam="2">  1       -3 0.29790319E-01 0.90124701E+02</pdfrwt>
<totfact> 0.29183076E+04</totfact>
</mgrwt>
</event>
<event>
 5    1  0.3921687E+001  0.9027815E+02  0.7546771E-02  0.1302180E+00
         -1   -1    0    0    0  501 -0.00000000000E+00  0.00000000000E+00  0.37279767548E+02  0.37279767548E+02  0.00000000000E+00 0.  1.
          1   -1    0    0  501    0  0.00000000000E+00 -0.00000000000E+00 -0.54655279824E+02  0.54655279824E+02  0.00000000000E+00 0. -1.
         23    2    1    2    0    0  0.00000000000E+00  0.00000000000E+00 -0.17375512276E+02  0.91935047371E+02  0.90278150780E+02 0.  0.
          2    1    3    3  502    0  0.19454123767E+02 -0.39123143943E+02 -0.20229468407E+02  0.48148880730E+02  0.00000000000E+00 0. -1.
         -2    1    3    3    0  502 -0.19454123767E+02  0.39123143943E+02  0.28539561315E+01  0.43786166641E+02  0.00000000000E+00 0.  1.
<mgrwt>
<rscale>  0 0.90278151E+02</rscale>
<asrwt>0</asrwt>
<pdfrwt beam="2">  1        1 0.84085046E-02 0.90278151E+02</pdfrwt>
<pdfrwt beam="1">  1       -1 0.57353488E-02 0.90278151E+02</pdfrwt>
<totfact> 0.97678590E+04</totfact>
</mgrwt>
</event>
<event>
 5    1  0.3921687E+001  0.9136521E+02  0.7546771E-02  0.1299579E+00
         -1   -1    0    0    0  501 -0.00000000000E+00  0.00000000000E+00  0.10823726728E+03  0.10823726728E+03  0.00000000000E+00 0.  1.
          1   -1    0    0  501    0  0.00000000000E+00 -0.00000000000E+00 -0.19280791710E+02  0.19280791710E+02  0.00000000000E+00 0. -1.
         23    2    1    2    0    0  0.00000000000E+00  0.00000000000E+00  0.88956475568E+02  0.12751805899E+03  0.91365205754E+02 0.  0.
          2    1    3    3  502    0 -0.34186996710E+02 -0.30229269722E+02  0.41570391610E+02  0.61730518794E+02  0.00000000000E+00 0. -1.
         -2    1    3    3    0  502  0.34186996710E+02  0.30229269722E+02  0.47386083958E+02  0.65787540194E+02  0.00000000000E+00 0.  1.
<mgrwt>
<rscale>  0 0.91365206E+02</rscale>
<asrwt>0</asrwt>
<pdfrwt beam="2">  1        1 0.29662757E-02 0.91365206E+02</pdfrwt>
<pdfrwt beam="1">  1       -1 0.16651887E-01 0.91365206E+02</pdfrwt>
<totfact> 0.79732365E+04</totfact>
</mgrwt>
</event>
<event>
 5    1  0.3921687E+001  0.9557844E+02  0.7546771E-02  0.1289879E+00
          3   -1    0    0  501    0  0.00000000000E+00  0.00000000000E+00  0.35809705875E+03  0.35809705875E+03  0.00000000000E+00 0. -1.
         -3   -1    0    0    0  501 -0.00000000000E+00 -0.00000000000E+00 -0.63776271401E+01  0.63776271401E+01  0.00000000000E+00 0.  1.
         23    2    1    2    0    0  0.00000000000E+00  0.00000000000E+00  0.35171943161E+03  0.36447468589E+03  0.95578439424E+02 0.  0.
          2    1    3    3  502    0  0.23236701331E+01 -0.28122766942E+02  0.32293471352E+03  0.32416526442E+03  0.00000000000E+00 0. -1.
         -2    1    3    3    0  502 -0.23236701331E+01  0.28122766942E+02  0.28784718090E+02  0.40309421466E+02  0.00000000000E+00 0.  1.
<mgrwt>
<rscale>  0 0.95578439E+02</rscale>
<asrwt>0</asrwt>
<pdfrwt beam="1">  1        3 0.55091839E-01 0.95578439E+02</pdfrwt>
<pdfrwt beam="2">  1       -3 0.98117369E-03 0.95578439E+02</pdfrwt>
<totfact> 0.19146736E+04</totfact>
</mgrwt>
</event>
<event>
 5    1  0.3921687E+001  0.9134408E+02  0.7546771E-02  0.1299629E+00
          1   -1    0    0  501    0  0.00000000000E+00  0.00000000000E+00  0.59982697803E+02  0.59982697803E+02  0.00000000000E+00 0. -1.
         -1   -1    0    0    0  501 -0.00000000000E+00 -0.00000000000E+00 -0.34775612903E+02  0.34775612903E+02  0.00000000000E+00 0.  1.
         23    2    1    2    0    0  0.00000000000E+00  0.00000000000E+00  0.25207084900E+02  0.94758310706E+02  0.91344076538E+02 0.  0.
          2    1    3    3  502    0  0.23196680493E+02  0.11177442376E+02  0.51735018277E+02  0.57788695435E+02  0.00000000000E+00 0. -1.
         -2    1    3    3    0  502 -0.23196680493E+02 -0.11177442376E+02 -0.26527933377E+02  0.36969615270E+02  0.00000000000E+00 0.  1.
<mgrwt>
<rscale>  0 0.91344077E+02</rscale>
<asrwt>0</asrwt>
<pdfrwt beam="1">  1        1 0.92281073E-02 0.91344077E+02</pdfrwt>
<pdfrwt beam="2">  1       -1 0.53500943E-02 0.91344077E+02</pdfrwt>
<totfact> 0.95877895E+04</totfact>
</mgrwt>
</event>
<event>
 5    1  0.3921687E+001  0.7825911E+02  0.7546771E-02  0.1334066E+00
         -1   -1    0    0    0  501 -0.00000000000E+00  0.00000000000E+00  0.67073384518E+01  0.67073384518E+01  0.00000000000E+00 0.  1.
          1   -1    0    0  501    0  0.00000000000E+00 -0.00000000000E+00 -0.22827564838E+03  0.22827564838E+03  0.00000000000E+00 0. -1.
         23    2    1    2    0    0  0.00000000000E+00  0.00000000000E+00 -0.22156830993E+03  0.23498298683E+03  0.78259108965E+02 0.  0.
          2    1    3    3  502    0 -0.35165981234E+02  0.11232929591E+02 -0.14973705758E+03  0.15422065800E+03  0.00000000000E+00 0. -1.
         -2    1    3    3    0  502  0.35165981234E+02 -0.11232929591E+02 -0.71831252352E+02  0.80762328829E+02  0.00000000000E+00 0.  1.
<mgrwt>
<rscale>  0 0.78259109E+02</rscale>
<asrwt>0</asrwt>
<pdfrwt beam="2">  1        1 0.35119324E-01 0.78259109E+02</pdfrwt>
<pdfrwt beam="1">  1       -1 0.10318984E-02 0.78259109E+02</pdfrwt>
<totfact> 0.18220807E+05</totfact>
</mgrwt>
</event>
<event>
 5    1  0.3921687E+001  0.9232129E+02  0.7546771E-02  0.1297326E+00
          2   -1    0    0  501    0  0.00000000000E+00  0.00000000000E+00  0.10264644085E+04  0.10264644085E+04  0.00000000000E+00 0. -1.
         -2   -1    0    0    0  501 -0.00000000000E+00 -0.00000000000E+00 -0.20758684042E+01  0.20758684042E+01  0.00000000000E+00 0.  1.
         23    2    1    2    0    0  0.00000000000E+00  0.00000000000E+00  0.10243885401E+04  0.10285402769E+04  0.92321287547E+02 0.  0.
          2    1    3    3  502    0  0.20401076812E+02  0.59890568114E+01  0.96866209756E+03  0.96889541849E+03  0.00000000000E+00 0. -1.
         -2    1    3    3    0  502 -0.20401076812E+02 -0.59890568114E+01  0.55726442530E+02  0.59644858401E+02  0.00000000000E+00 0.  1.
<mgrwt>
<rscale>  0 0.92321288E+02</rscale>
<asrwt>0</asrwt>
<pdfrwt beam="1">  1        2 0.15791720E+00 0.92321288E+02</pdfrwt>
<pdfrwt beam="2">  1       -2 0.31936519E-03 0.92321288E+02</pdfrwt>
<totfact> 0.24214638E+05</totfact>
</mgrwt>
</event>
<event>
 5    1  0.3921687E+001  0.9025126E+02  0.7546771E-02  0.1302244E+00
          1   -1    0    0  501    0  0.00000000000E+00  0.00000000000E+00  0.10708824806E+03  0.10708824806E+03  0.00000000000E+00 0. -1.
         -1   -1    0    0    0  501 -0.00000000000E+00 -0.00000000000E+00 -0.19015369739E+02  0.19015369739E+02  0.00000000000E+00 0.  1.
         23    2    1    2    0    0  0.00000000000E+00  0.00000000000E+00  0.88072878320E+02  0.12610361780E+03  0.90251263295E+02 0.  0.
          2    1    3    3  502    0  0.42366996334E+02  0.80275377998E+01  0.25451490758E+02  0.50071769723E+02  0.00000000000E+00 0. -1.
         -2    1    3    3    0  502 -0.42366996334E+02 -0.80275377998E+01  0.62621387562E+02  0.76031848075E+02  0.00000000000E+00 0.  1.
<mgrwt>
<rscale>  0 0.90251263E+02</rscale>
<asrwt>0</asrwt>
<pdfrwt beam="1">  1        1 0.16475115E-01 0.90251263E+02</pdfrwt>
<pdfrwt beam="2">  1       -1 0.29254416E-02 0.90251263E+02</pdfrwt>
<totfact> 0.10862827E+05</totfact>
</mgrwt>
</event>
<event>
 5    1  0.3921687E+001  0.9192177E+02  0.7546771E-02  0.1298263E+00
         -2   -1    0    0    0  501 -0.00000000000E+00  0.00000000000E+00  0.46789383002E+01  0.46789383002E+01  0.00000000000E+00 0.  1.
          2   -1    0    0  501    0  0.00000000000E+00 -0.00000000000E+00 -0.45147060221E+03  0.45147060221E+03  0.00000000000E+00 0. -1.
         23    2    1    2    0    0  0.00000000000E+00  0.00000000000E+00 -0.44679166391E+03  0.45614954051E+03  0.91921773092E+02 0.  0.
          2    1    3    3  502    0  0.31030251519E+02  0.33760040267E+02 -0.20787205798E+03  0.21286946544E+03  0.00000000000E+00 0. -1.
         -2    1    3    3    0  502 -0.31030251519E+02 -0.33760040267E+02 -0.23891960593E+03  0.24328007507E+03  0.00000000000E+00 0.  1.
<mgrwt>
<rscale>  0 0.91921773E+02</rscale>
<asrwt>0</asrwt>
<pdfrwt beam="2">  1        2 0.69457004E-01 0.91921773E+02</pdfrwt>
<pdfrwt beam="1">  1       -2 0.71983678E-03 0.91921773E+02</pdfrwt>
<totfact> 0.20382536E+05</totfact>
</mgrwt>
</event>
<event>
 5    1  0.3921687E+001  0.9081262E+02  0.7546771E-02  0.1300896E+00
         -3   -1    0    0    0  501 -0.00000000000E+00  0.00000000000E+00  0.16631445486E+03  0.16631445486E+03  0.00000000000E+00 0.  1.
          3   -1    0    0  501    0  0.00000000000E+00 -0.00000000000E+00 -0.12396594062E+02  0.12396594062E+02  0.00000000000E+00 0. -1.
         23    2    1    2    0    0  0.00000000000E+00  0.00000000000E+00  0.15391786080E+03  0.17871104892E+03  0.90812615502E+02 0.  0.
          2    1    3    3  502    0  0.42693409494E+02 -0.10265064620E+02  0.54209855909E+02  0.69762506001E+02  0.00000000000E+00 0. -1.
         -2    1    3    3    0  502 -0.42693409494E+02  0.10265064620E+02  0.99708004890E+02  0.10894854292E+03  0.00000000000E+00 0.  1.
<mgrwt>
<rscale>  0 0.90812616E+02</rscale>
<asrwt>0</asrwt>
<pdfrwt beam="2">  1        3 0.19071684E-02 0.90812616E+02</pdfrwt>
<pdfrwt beam="1">  1       -3 0.25586838E-01 0.90812616E+02</pdfrwt>
<totfact> 0.29959220E+04</totfact>
</mgrwt>
</event>
<event>
 5    1  0.3921687E+001  0.9019390E+02  0.7546771E-02  0.1302383E+00
          1   -1    0    0  501    0  0.00000000000E+00  0.00000000000E+00  0.32920712241E+02  0.32920712241E+02  0.00000000000E+00 0. -1.
         -1   -1    0    0    0  501 -0.00000000000E+00 -0.00000000000E+00 -0.61776757187E+02  0.61776757187E+02  0.00000000000E+00 0.  1.
         23    2    1    2    0    0  0.00000000000E+00  0.00000000000E+00 -0.28856044947E+02  0.94697469428E+02  0.90193898830E+02 0.  0.
          2    1    3    3  502    0 -0.24938684578E+02 -0.25010918406E+02 -0.43868291090E+02  0.56319721157E+02  0.00000000000E+00 0.  1.
         -2    1    3    3    0  502  0.24938684578E+02  0.25010918406E+02  0.15012246144E+02  0.38377748271E+02  0.00000000000E+00 0. -1.
<mgrwt>
<rscale>  0 0.90193899E+02</rscale>
<asrwt>0</asrwt>
<pdfrwt beam="1">  1        1 0.50647250E-02 0.90193899E+02</pdfrwt>
<pdfrwt beam="2">  1       -1 0.95041165E-02 0.90193899E+02</pdfrwt>
<totfact> 0.90737437E+04</totfact>
</mgrwt>
</event>
<event>
 5    1  0.3921687E+001  0.9171404E+02  0.7546771E-02  0.1298753E+00
         -2   -1    0    0    0  501 -0.00000000000E+00  0.00000000000E+00  0.61388947414E+02  0.61388947414E+02  0.00000000000E+00 0.  1.
          2   -1    0    0  501    0  0.00000000000E+00 -0.00000000000E+00 -0.34254803631E+02  0.34254803631E+02  0.00000000000E+00 0. -1.
         23    2    1    2    0    0  0.00000000000E+00  0.00000000000E+00  0.27134143783E+02  0.95643751045E+02  0.91714041210E+02 0.  0.
          2    1    3    3  502    0  0.15377044354E+02 -0.22333201943E+02  0.52133268947E+02  0.58763110309E+02  0.00000000000E+00 0.  1.
         -2    1    3    3    0  502 -0.15377044354E+02  0.22333201943E+02 -0.24999125164E+02  0.36880640736E+02  0.00000000000E+00 0. -1.
<mgrwt>
<rscale>  0 0.91714041E+02</rscale>
<asrwt>0</asrwt>
<pdfrwt beam="2">  1        2 0.52699698E-02 0.91714041E+02</pdfrwt>
<pdfrwt beam="1">  1       -2 0.94444534E-02 0.91714041E+02</pdfrwt>
<totfact> 0.90052694E+04</totfact>
</mgrwt>
</event>
<event>
 5    1  0.3921687E+001  0.9132547E+02  0.7546771E-02  0.1299673E+00
         -2   -1    0    0    0  501 -0.00000000000E+00  0.00000000000E+00  0.43357307229E+01  0.43357307229E+01  0.00000000000E+00 0.  1.
          2   -1    0    0  501    0  0.00000000000E+00 -0.00000000000E+00 -0.48090747978E+03  0.48090747978E+03  0.00000000000E+00 0. -1.
         23    2    1    2    0    0  0.00000000000E+00  0.00000000000E+00 -0.47657174905E+03  0.48524321050E+03  0.91325469283E+02 0.  0.
          2    1    3    3  502    0 -0.39063627870E+02 -0.59132192679E+00 -0.36388411959E+03  0.36597536689E+03  0.00000000000E+00 0. -1.
         -2    1    3    3    0  502  0.39063627870E+02  0.59132192679E+00 -0.11268762947E+03  0.11926784361E+03  0.00000000000E+00 0.  1.
<mgrwt>
<rscale>  0 0.91325469E+02</rscale>
<asrwt>0</asrwt>
<pdfrwt beam="2">  1        2 0.73985764E-01 0.91325469E+02</pdfrwt>
<pdfrwt beam="1">  1       -2 0.66703552E-03 0.91325469E+02</pdfrwt>
<totfact> 0.21184170E+05</totfact>
</mgrwt>
</event>
<event>
 5    1  0.3921687E+001  0.9067134E+02  0.7546771E-02  0.1301234E+00
          2   -1    0    0  501    0  0.00000000000E+00  0.00000000000E+00  0.11485296725E+02  0.11485296725E+02  0.00000000000E+00 0. -1.
         -2   -1    0    0    0  501 -0.00000000000E+00 -0.00000000000E+00 -0.17895252906E+03  0.17895252906E+03  0.00000000000E+00 0.  1.
         23    2    1    2    0    0  0.00000000000E+00  0.00000000000E+00 -0.16746723234E+03  0.19043782579E+03  0.90671338274E+02 0.  0.
          2    1    3    3  502    0 -0.41767383563E+01 -0.34959561205E+02 -0.23747569794E+02  0.42468378048E+02  0.00000000000E+00 0. -1.
         -2    1    3    3    0  502  0.41767383563E+01  0.34959561205E+02 -0.14371966255E+03  0.14796944774E+03  0.00000000000E+00 0.  1.
<mgrwt>
<rscale>  0 0.90671338E+02</rscale>
<asrwt>0</asrwt>
<pdfrwt beam="1">  1        2 0.17669687E-02 0.90671338E+02</pdfrwt>
<pdfrwt beam="2">  1       -2 0.27531158E-01 0.90671338E+02</pdfrwt>
<totfact> 0.66217935E+04</totfact>
</mgrwt>
</event>
<event>
 5    1  0.3921687E+001  0.8746020E+02  0.7546771E-02  0.1309121E+00
         -4   -1    0    0    0  501 -0.00000000000E+00  0.00000000000E+00  0.92842602598E+02  0.92842602598E+02  0.00000000000E+00 0.  1.
          4   -1    0    0  501    0  0.00000000000E+00 -0.00000000000E+00 -0.20597457600E+02  0.20597457600E+02  0.00000000000E+00 0. -1.
         23    2    1    2    0    0  0.00000000000E+00  0.00000000000E+00  0.72245144999E+02  0.11344006020E+03  0.87460198273E+02 0.  0.
          2    1    3    3  502    0  0.23398030963E+02 -0.36547704103E+02  0.29123434855E+02  0.52262577299E+02  0.00000000000E+00 0.  1.
         -2    1    3    3    0  502 -0.23398030963E+02  0.36547704103E+02  0.43121710144E+02  0.61177482900E+02  0.00000000000E+00 0. -1.
<mgrwt>
<rscale>  0 0.87460198E+02</rscale>
<asrwt>0</asrwt>
<pdfrwt beam="2">  1        4 0.31688397E-02 0.87460198E+02</pdfrwt>
<pdfrwt beam="1">  1       -4 0.14283477E-01 0.87460198E+02</pdfrwt>
<totfact> 0.28690658E+04</totfact>
</mgrwt>
</event>
<event>
 5    1  0.3921687E+001  0.9037200E+02  0.7546771E-02  0.1301953E+00
         -1   -1    0    0    0  501 -0.00000000000E+00  0.00000000000E+00  0.78232738926E+03  0.78232738926E+03  0.00000000000E+00 0.  1.
          1   -1    0    0  501    0  0.00000000000E+00 -0.00000000000E+00 -0.26098723928E+01  0.26098723928E+01  0.00000000000E+00 0. -1.
         23    2    1    2    0    0  0.00000000000E+00  0.00000000000E+00  0.77971751687E+03  0.78493726165E+03  0.90372001314E+02 0.  0.
          2    1    3    3  502    0  0.32262510717E+02 -0.19342749707E+02  0.17241209258E+03  0.17646796092E+03  0.00000000000E+00 0. -1.
         -2    1    3    3    0  502 -0.32262510717E+02  0.19342749707E+02  0.60730542428E+03  0.60846930073E+03  0.00000000000E+00 0.  1.
<mgrwt>
<rscale>  0 0.90372001E+02</rscale>
<asrwt>0</asrwt>
<pdfrwt beam="2">  1        1 0.40151945E-03 0.90372001E+02</pdfrwt>
<pdfrwt beam="1">  1       -1 0.12035787E+00 0.90372001E+02</pdfrwt>
<totfact> 0.34144871E+04</totfact>
</mgrwt>
</event>
<event>
 5    1  0.3921687E+001  0.9122049E+02  0.7546771E-02  0.1299923E+00
          3   -1    0    0  501    0  0.00000000000E+00  0.00000000000E+00  0.15837830490E+03  0.15837830490E+03  0.00000000000E+00 0. -1.
         -3   -1    0    0    0  501 -0.00000000000E+00 -0.00000000000E+00 -0.13134972391E+02  0.13134972391E+02  0.00000000000E+00 0.  1.
         23    2    1    2    0    0  0.00000000000E+00  0.00000000000E+00  0.14524333251E+03  0.17151327729E+03  0.91220494677E+02 0.  0.
          2    1    3    3  502    0 -0.21533356881E+02 -0.29837172551E+02  0.12329494340E+03  0.12866850971E+03  0.00000000000E+00 0. -1.
         -2    1    3    3    0  502  0.21533356881E+02  0.29837172551E+02  0.21948389115E+02  0.42844767582E+02  0.00000000000E+00 0.  1.
<mgrwt>
<rscale>  0 0.91220495E+02</rscale>
<asrwt>0</asrwt>
<pdfrwt beam="1">  1        3 0.24365892E-01 0.91220495E+02</pdfrwt>
<pdfrwt beam="2">  1       -3 0.20207651E-02 0.91220495E+02</pdfrwt>
<totfact> 0.30001633E+04</totfact>
</mgrwt>
</event>
<event>
 5    1  0.3921687E+001  0.9211352E+02  0.7546771E-02  0.1297813E+00
         -2   -1    0    0    0  501 -0.00000000000E+00  0.00000000000E+00  0.16187100363E+02  0.16187100363E+02  0.00000000000E+00 0.  1.
          2   -1    0    0  501    0  0.00000000000E+00 -0.00000000000E+00 -0.13104418132E+03  0.13104418132E+03  0.00000000000E+00 0. -1.
         23    2    1    2    0    0  0.00000000000E+00  0.00000000000E+00 -0.11485708096E+03  0.14723128169E+03  0.92113523765E+02 0.  0.
          2    1    3    3  502    0  0.19815521937E+02 -0.24897370306E+02 -0.11064941755E+03  0.11513395487E+03  0.00000000000E+00 0. -1.
         -2    1    3    3    0  502 -0.19815521937E+02  0.24897370306E+02 -0.42076634072E+01  0.32097326822E+02  0.00000000000E+00 0.  1.
<mgrwt>
<rscale>  0 0.92113524E+02</rscale>
<asrwt>0</asrwt>
<pdfrwt beam="2">  1        2 0.20160643E-01 0.92113524E+02</pdfrwt>
<pdfrwt beam="1">  1       -2 0.24903232E-02 0.92113524E+02</pdfrwt>
<totfact> 0.12995405E+05</totfact>
</mgrwt>
</event>
<event>
 5    1  0.3921687E+001  0.9261078E+02  0.7546771E-02  0.1296650E+00
          2   -1    0    0  501    0  0.00000000000E+00  0.00000000000E+00  0.13504991928E+04  0.13504991928E+04  0.00000000000E+00 0. -1.
         -2   -1    0    0    0  501 -0.00000000000E+00 -0.00000000000E+00 -0.15877012048E+01  0.15877012048E+01  0.00000000000E+00 0.  1.
         23    2    1    2    0    0  0.00000000000E+00  0.00000000000E+00  0.13489114916E+04  0.13520868940E+04  0.92610781134E+02 0.  0.
          2    1    3    3  502    0 -0.90113958714E+01 -0.39176579513E+02  0.33892381958E+03  0.34129952405E+03  0.00000000000E+00 0. -1.
         -2    1    3    3    0  502  0.90113958714E+01  0.39176579513E+02  0.10099876721E+04  0.10107873700E+04  0.00000000000E+00 0.  1.
<mgrwt>
<rscale>  0 0.92610781E+02</rscale>
<asrwt>0</asrwt>
<pdfrwt beam="1">  1        2 0.20776819E+00 0.92610781E+02</pdfrwt>
<pdfrwt beam="2">  1       -2 0.24426280E-03 0.92610781E+02</pdfrwt>
<totfact> 0.23386091E+05</totfact>
</mgrwt>
</event>
<event>
 5    1  0.3921687E+001  0.9180094E+02  0.7546771E-02  0.1298548E+00
         -1   -1    0    0    0  501 -0.00000000000E+00  0.00000000000E+00  0.10602564626E+02  0.10602564626E+02  0.00000000000E+00 0.  1.
          1   -1    0    0  501    0  0.00000000000E+00 -0.00000000000E+00 -0.19871164943E+03  0.19871164943E+03  0.00000000000E+00 0. -1.
         23    2    1    2    0    0  0.00000000000E+00  0.00000000000E+00 -0.18810908480E+03  0.20931421405E+03  0.91800939101E+02 0.  0.
          2    1    3    3  502    0  0.20158052025E+02  0.15550527141E+02 -0.18113740079E+03  0.18291780646E+03  0.00000000000E+00 0. -1.
         -2    1    3    3    0  502 -0.20158052025E+02 -0.15550527141E+02 -0.69716840127E+01  0.26396407593E+02  0.00000000000E+00 0.  1.
<mgrwt>
<rscale>  0 0.91800939E+02</rscale>
<asrwt>0</asrwt>
<pdfrwt beam="2">  1        1 0.30571022E-01 0.91800939E+02</pdfrwt>
<pdfrwt beam="1">  1       -1 0.16311639E-02 0.91800939E+02</pdfrwt>
<totfact> 0.11611124E+05</totfact>
</mgrwt>
</event>
<event>
 5    1  0.3921687E+001  0.9017635E+02  0.7546771E-02  0.1302425E+00
          2   -1    0    0  501    0  0.00000000000E+00  0.00000000000E+00  0.81308380814E+03  0.81308380814E+03  0.00000000000E+00 0. -1.
         -2   -1    0    0    0  501 -0.00000000000E+00 -0.00000000000E+00 -0.25002879829E+01  0.25002879829E+01  0.00000000000E+00 0.  1.
         23    2    1    2    0    0  0.00000000000E+00  0.00000000000E+00  0.81058352016E+03  0.81558409613E+03  0.90176353321E+02 0.  0.
          2    1    3    3  502    0  0.29705522492E+02  0.31406410039E+02  0.52117316226E+03  0.52296294871E+03  0.00000000000E+00 0. -1.
         -2    1    3    3    0  502 -0.29705522492E+02 -0.31406410039E+02  0.28941035790E+03  0.29262114742E+03  0.00000000000E+00 0.  1.
<mgrwt>
<rscale>  0 0.90176353E+02</rscale>
<asrwt>0</asrwt>
<pdfrwt beam="1">  1        2 0.12508961E+00 0.90176353E+02</pdfrwt>
<pdfrwt beam="2">  1       -2 0.38466034E-03 0.90176353E+02</pdfrwt>
<totfact> 0.25162505E+05</totfact>
</mgrwt>
</event>
<event>
 5    1  0.3921687E+001  0.9014779E+02  0.7546771E-02  0.1302494E+00
          1   -1    0    0  501    0  0.00000000000E+00  0.00000000000E+00  0.12067289475E+02  0.12067289475E+02  0.00000000000E+00 0. -1.
         -1   -1    0    0    0  501 -0.00000000000E+00 -0.00000000000E+00 -0.16836058475E+03  0.16836058475E+03  0.00000000000E+00 0.  1.
         23    2    1    2    0    0  0.00000000000E+00  0.00000000000E+00 -0.15629329527E+03  0.18042787422E+03  0.90147787822E+02 0.  0.
          2    1    3    3  502    0 -0.27976787976E+02  0.18748874949E+02 -0.13810504890E+03  0.14215212102E+03  0.00000000000E+00 0. -1.
         -2    1    3    3    0  502  0.27976787976E+02 -0.18748874949E+02 -0.18188246368E+02  0.38275753203E+02  0.00000000000E+00 0.  1.
<mgrwt>
<rscale>  0 0.90147788E+02</rscale>
<asrwt>0</asrwt>
<pdfrwt beam="1">  1        1 0.18565061E-02 0.90147788E+02</pdfrwt>
<pdfrwt beam="2">  1       -1 0.25901629E-01 0.90147788E+02</pdfrwt>
<totfact> 0.74892411E+04</totfact>
</mgrwt>
</event>
<event>
 5    1  0.3921687E+001  0.9843774E+02  0.7546771E-02  0.1283616E+00
         -2   -1    0    0    0  501 -0.00000000000E+00  0.00000000000E+00  0.26934665037E+01  0.26934665037E+01  0.00000000000E+00 0. -1.
          2   -1    0    0  501    0  0.00000000000E+00 -0.00000000000E+00 -0.89939760126E+03  0.89939760126E+03  0.00000000000E+00 0.  1.
         23    2    1    2    0    0  0.00000000000E+00  0.00000000000E+00 -0.89670413476E+03  0.90209106776E+03  0.98437743015E+02 0.  0.
          2    1    3    3  502    0  0.45149829028E+01  0.39978790715E+02 -0.18853657632E+03  0.19278155873E+03  0.00000000000E+00 0. -1.
         -2    1    3    3    0  502 -0.45149829028E+01 -0.39978790715E+02 -0.70816755844E+03  0.70930950903E+03  0.00000000000E+00 0.  1.
<mgrwt>
<rscale>  0 0.98437743E+02</rscale>
<asrwt>0</asrwt>
<pdfrwt beam="2">  1        2 0.13836902E+00 0.98437743E+02</pdfrwt>
<pdfrwt beam="1">  1       -2 0.41437899E-03 0.98437743E+02</pdfrwt>
<totfact> 0.20245554E+05</totfact>
</mgrwt>
</event>
<event>
 5    1  0.3921687E+001  0.9270631E+02  0.7546771E-02  0.1296427E+00
          4   -1    0    0  501    0  0.00000000000E+00  0.00000000000E+00  0.23370204807E+03  0.23370204807E+03  0.00000000000E+00 0. -1.
         -4   -1    0    0    0  501 -0.00000000000E+00 -0.00000000000E+00 -0.91938217925E+01  0.91938217925E+01  0.00000000000E+00 0.  1.
         23    2    1    2    0    0  0.00000000000E+00  0.00000000000E+00  0.22450822627E+03  0.24289586986E+03  0.92706310087E+02 0.  0.
          2    1    3    3  502    0  0.39869641605E+02 -0.23567892486E+02  0.11721225938E+03  0.12603074080E+03  0.00000000000E+00 0.  1.
         -2    1    3    3    0  502 -0.39869641605E+02  0.23567892486E+02  0.10729596689E+03  0.11686512906E+03  0.00000000000E+00 0. -1.
<mgrwt>
<rscale>  0 0.92706310E+02</rscale>
<asrwt>0</asrwt>
<pdfrwt beam="1">  1        4 0.35954157E-01 0.92706310E+02</pdfrwt>
<pdfrwt beam="2">  1       -4 0.14144343E-02 0.92706310E+02</pdfrwt>
<totfact> 0.18859837E+04</totfact>
</mgrwt>
</event>
<event>
 5    1  0.3921687E+001  0.9157863E+02  0.7546771E-02  0.1299073E+00
          2   -1    0    0  501    0  0.00000000000E+00  0.00000000000E+00  0.91834478449E+03  0.91834478449E+03  0.00000000000E+00 0. -1.
         -2   -1    0    0    0  501 -0.00000000000E+00 -0.00000000000E+00 -0.22830871860E+01  0.22830871860E+01  0.00000000000E+00 0.  1.
         23    2    1    2    0    0  0.00000000000E+00  0.00000000000E+00  0.91606169730E+03  0.92062787167E+03  0.91578626541E+02 0.  0.
          2    1    3    3  502    0  0.20400520486E+02  0.37802199823E+02  0.61744844117E+03  0.61894084131E+03  0.00000000000E+00 0. -1.
         -2    1    3    3    0  502 -0.20400520486E+02 -0.37802199823E+02  0.29861325613E+03  0.30168703036E+03  0.00000000000E+00 0.  1.
<mgrwt>
<rscale>  0 0.91578627E+02</rscale>
<asrwt>0</asrwt>
<pdfrwt beam="1">  1        2 0.14128352E+00 0.91578627E+02</pdfrwt>
<pdfrwt beam="2">  1       -2 0.35124491E-03 0.91578627E+02</pdfrwt>
<totfact> 0.24561242E+05</totfact>
</mgrwt>
</event>
<event>
 5    1  0.3921687E+001  0.9003517E+02  0.7546771E-02  0.1302767E+00
          2   -1    0    0  501    0  0.00000000000E+00  0.00000000000E+00  0.78332484756E+02  0.78332484756E+02  0.00000000000E+00 0.  1.
         -2   -1    0    0    0  501 -0.00000000000E+00 -0.00000000000E+00 -0.25871549585E+02  0.25871549585E+02  0.00000000000E+00 0. -1.
         23    2    1    2    0    0  0.00000000000E+00  0.00000000000E+00  0.52460935171E+02  0.10420403434E+03  0.90035165653E+02 0.  0.
          2    1    3    3  502    0 -0.99857944875E+01 -0.33728828794E+02  0.58744806096E+02  0.68471178072E+02  0.00000000000E+00 0.  1.
         -2    1    3    3    0  502  0.99857944875E+01  0.33728828794E+02 -0.62838709247E+01  0.35732856270E+02  0.00000000000E+00 0. -1.
<mgrwt>
<rscale>  0 0.90035166E+02</rscale>
<asrwt>0</asrwt>
<pdfrwt beam="1">  1        2 0.12051151E-01 0.90035166E+02</pdfrwt>
<pdfrwt beam="2">  1       -2 0.39802384E-02 0.90035166E+02</pdfrwt>
<totfact> 0.11823347E+05</totfact>
</mgrwt>
</event>
<event>
 5    1  0.3921687E+001  0.8911913E+02  0.7546771E-02  0.1304999E+00
          2   -1    0    0  501    0  0.00000000000E+00  0.00000000000E+00  0.18171209272E+04  0.18171209272E+04  0.00000000000E+00 0.  1.
         -2   -1    0    0    0  501 -0.00000000000E+00 -0.00000000000E+00 -0.10926926356E+01  0.10926926356E+01  0.00000000000E+00 0. -1.
         23    2    1    2    0    0  0.00000000000E+00  0.00000000000E+00  0.18160282346E+04  0.18182136199E+04  0.89119126010E+02 0.  0.
          2    1    3    3  502    0 -0.14670724861E+02 -0.38278825550E+02  0.55167477436E+03  0.55319576582E+03  0.00000000000E+00 0.  1.
         -2    1    3    3    0  502  0.14670724861E+02  0.38278825550E+02  0.12643534602E+04  0.12650178540E+04  0.00000000000E+00 0. -1.
<mgrwt>
<rscale>  0 0.89119126E+02</rscale>
<asrwt>0</asrwt>
<pdfrwt beam="1">  1        2 0.27955465E+00 0.89119126E+02</pdfrwt>
<pdfrwt beam="2">  1       -2 0.16810801E-03 0.89119126E+02</pdfrwt>
<totfact> 0.22612364E+05</totfact>
</mgrwt>
</event>
<event>
 5    1  0.3921687E+001  0.9017641E+02  0.7546771E-02  0.1302425E+00
         -1   -1    0    0    0  501 -0.00000000000E+00  0.00000000000E+00  0.13975182819E+01  0.13975182819E+01  0.00000000000E+00 0.  1.
          1   -1    0    0  501    0  0.00000000000E+00 -0.00000000000E+00 -0.14546829655E+04  0.14546829655E+04  0.00000000000E+00 0. -1.
         23    2    1    2    0    0  0.00000000000E+00  0.00000000000E+00 -0.14532854472E+04  0.14560804838E+04  0.90176405753E+02 0.  0.
          2    1    3    3  502    0  0.42582153744E+02  0.19848011047E+01 -0.48945906946E+03  0.49131187643E+03  0.00000000000E+00 0. -1.
         -2    1    3    3    0  502 -0.42582153744E+02 -0.19848011047E+01 -0.96382637778E+03  0.96476860736E+03  0.00000000000E+00 0.  1.
<mgrwt>
<rscale>  0 0.90176406E+02</rscale>
<asrwt>0</asrwt>
<pdfrwt beam="2">  1        1 0.22379806E+00 0.90176406E+02</pdfrwt>
<pdfrwt beam="1">  1       -1 0.21500216E-03 0.90176406E+02</pdfrwt>
<totfact> 0.11657793E+05</totfact>
</mgrwt>
</event>
<event>
 5    1  0.3921687E+001  0.7635059E+02  0.7546771E-02  0.1339739E+00
          3   -1    0    0  501    0  0.00000000000E+00  0.00000000000E+00  0.35768333158E+02  0.35768333158E+02  0.00000000000E+00 0. -1.
         -3   -1    0    0    0  501 -0.00000000000E+00 -0.00000000000E+00 -0.40744226781E+02  0.40744226781E+02  0.00000000000E+00 0.  1.
         23    2    1    2    0    0  0.00000000000E+00  0.00000000000E+00 -0.49758936229E+01  0.76512559939E+02  0.76350588151E+02 0.  0.
          2    1    3    3  502    0  0.24675583131E+02 -0.56291556259E+01  0.26152067724E+02  0.36393714323E+02  0.00000000000E+00 0. -1.
         -2    1    3    3    0  502 -0.24675583131E+02  0.56291556259E+01 -0.31127961347E+02  0.40118845616E+02  0.00000000000E+00 0.  1.
<mgrwt>
<rscale>  0 0.76350588E+02</rscale>
<asrwt>0</asrwt>
<pdfrwt beam="1">  1        3 0.55028205E-02 0.76350588E+02</pdfrwt>
<pdfrwt beam="2">  1       -3 0.62683426E-02 0.76350588E+02</pdfrwt>
<totfact> 0.58932514E+04</totfact>
</mgrwt>
</event>
<event>
 5    1  0.3921687E+001  0.9242399E+02  0.7546771E-02  0.1297086E+00
          1   -1    0    0  501    0  0.00000000000E+00  0.00000000000E+00  0.21163567411E+02  0.21163567411E+02  0.00000000000E+00 0. -1.
         -1   -1    0    0    0  501 -0.00000000000E+00 -0.00000000000E+00 -0.10090682531E+03  0.10090682531E+03  0.00000000000E+00 0.  1.
         23    2    1    2    0    0  0.00000000000E+00  0.00000000000E+00 -0.79743257897E+02  0.12207039272E+03  0.92423988220E+02 0.  0.
          2    1    3    3  502    0  0.36061708837E+02 -0.24871469609E+02 -0.20437450945E+02  0.48339696378E+02  0.00000000000E+00 0. -1.
         -2    1    3    3    0  502 -0.36061708837E+02  0.24871469609E+02 -0.59305806952E+02  0.73730696341E+02  0.00000000000E+00 0.  1.
<mgrwt>
<rscale>  0 0.92423988E+02</rscale>
<asrwt>0</asrwt>
<pdfrwt beam="1">  1        1 0.32559335E-02 0.92423988E+02</pdfrwt>
<pdfrwt beam="2">  1       -1 0.15524127E-01 0.92423988E+02</pdfrwt>
<totfact> 0.78437014E+04</totfact>
</mgrwt>
</event>
<event>
 5    1  0.3921687E+001  0.9365158E+02  0.7546771E-02  0.1294242E+00
          2   -1    0    0  501    0  0.00000000000E+00  0.00000000000E+00  0.45788045952E+03  0.45788045952E+03  0.00000000000E+00 0. -1.
         -2   -1    0    0    0  501 -0.00000000000E+00 -0.00000000000E+00 -0.47887050967E+01  0.47887050967E+01  0.00000000000E+00 0.  1.
         23    2    1    2    0    0  0.00000000000E+00  0.00000000000E+00  0.45309175442E+03  0.46266916462E+03  0.93651577460E+02 0.  0.
          2    1    3    3  502    0 -0.59615054537E+01 -0.24677579451E+02  0.32162351467E+02  0.40974862132E+02  0.00000000000E+00 0.  1.
         -2    1    3    3    0  502  0.59615054537E+01  0.24677579451E+02  0.42092940296E+03  0.42169430248E+03  0.00000000000E+00 0. -1.
<mgrwt>
<rscale>  0 0.93651577E+02</rscale>
<asrwt>0</asrwt>
<pdfrwt beam="1">  1        2 0.70443113E-01 0.93651577E+02</pdfrwt>
<pdfrwt beam="2">  1       -2 0.73672422E-03 0.93651577E+02</pdfrwt>
<totfact> 0.19491556E+05</totfact>
</mgrwt>
</event>
<event>
 5    1  0.3921687E+001  0.9076933E+02  0.7546771E-02  0.1300999E+00
         -2   -1    0    0    0  501 -0.00000000000E+00  0.00000000000E+00  0.15923703548E+01  0.15923703548E+01  0.00000000000E+00 0.  1.
          2   -1    0    0  501    0  0.00000000000E+00 -0.00000000000E+00 -0.12935231625E+04  0.12935231625E+04  0.00000000000E+00 0. -1.
         23    2    1    2    0    0  0.00000000000E+00  0.00000000000E+00 -0.12919307922E+04  0.12951155329E+04  0.90769332646E+02 0.  0.
          2    1    3    3  502    0  0.18704812133E+02 -0.40125231650E+02 -0.78855020277E+03  0.78979195140E+03  0.00000000000E+00 0. -1.
         -2    1    3    3    0  502 -0.18704812133E+02  0.40125231650E+02 -0.50338058940E+03  0.50532358148E+03  0.00000000000E+00 0.  1.
<mgrwt>
<rscale>  0 0.90769333E+02</rscale>
<asrwt>0</asrwt>
<pdfrwt beam="2">  1        2 0.19900302E+00 0.90769333E+02</pdfrwt>
<pdfrwt beam="1">  1       -2 0.24498072E-03 0.90769333E+02</pdfrwt>
<totfact> 0.24884680E+05</totfact>
</mgrwt>
</event>
<event>
 5    1  0.3921687E+001  0.8976228E+02  0.7546771E-02  0.1303428E+00
          1   -1    0    0  501    0  0.00000000000E+00  0.00000000000E+00  0.11890634689E+03  0.11890634689E+03  0.00000000000E+00 0. -1.
         -1   -1    0    0    0  501 -0.00000000000E+00 -0.00000000000E+00 -0.16940363531E+02  0.16940363531E+02  0.00000000000E+00 0.  1.
         23    2    1    2    0    0  0.00000000000E+00  0.00000000000E+00  0.10196598336E+03  0.13584671042E+03  0.89762280330E+02 0.  0.
          2    1    3    3  502    0  0.18727598779E+02  0.83298017385E+01  0.11140953722E+03  0.11327927232E+03  0.00000000000E+00 0. -1.
         -2    1    3    3    0  502 -0.18727598779E+02 -0.83298017385E+01 -0.94435538618E+01  0.22567438104E+02  0.00000000000E+00 0.  1.
<mgrwt>
<rscale>  0 0.89762280E+02</rscale>
<asrwt>0</asrwt>
<pdfrwt beam="1">  1        1 0.18293284E-01 0.89762280E+02</pdfrwt>
<pdfrwt beam="2">  1       -1 0.26062098E-02 0.89762280E+02</pdfrwt>
<totfact> 0.11222048E+05</totfact>
</mgrwt>
</event>
<event>
 5    1  0.3921687E+001  0.9474025E+02  0.7546771E-02  0.1291762E+00
         -2   -1    0    0    0  501 -0.00000000000E+00  0.00000000000E+00  0.33517450592E+01  0.33517450592E+01  0.00000000000E+00 0.  1.
          2   -1    0    0  501    0  0.00000000000E+00 -0.00000000000E+00 -0.66948067606E+03  0.66948067606E+03  0.00000000000E+00 0. -1.
         23    2    1    2    0    0  0.00000000000E+00  0.00000000000E+00 -0.66612893100E+03  0.67283242112E+03  0.94740245898E+02 0.  0.
          2    1    3    3  502    0  0.30418579836E+02 -0.19265694689E+02 -0.55166715121E+03  0.55284093799E+03  0.00000000000E+00 0. -1.
         -2    1    3    3    0  502 -0.30418579836E+02  0.19265694689E+02 -0.11446177978E+03  0.11999148312E+03  0.00000000000E+00 0.  1.
<mgrwt>
<rscale>  0 0.94740246E+02</rscale>
<asrwt>0</asrwt>
<pdfrwt beam="2">  1        2 0.10299697E+00 0.94740246E+02</pdfrwt>
<pdfrwt beam="1">  1       -2 0.51565337E-03 0.94740246E+02</pdfrwt>
<totfact> 0.21198881E+05</totfact>
</mgrwt>
</event>
<event>
 5    1  0.3921687E+001  0.8906820E+02  0.7546771E-02  0.1305124E+00
          2   -1    0    0  501    0  0.00000000000E+00  0.00000000000E+00  0.17233038142E+04  0.17233038142E+04  0.00000000000E+00 0. -1.
         -2   -1    0    0    0  501 -0.00000000000E+00 -0.00000000000E+00 -0.11508626792E+01  0.11508626792E+01  0.00000000000E+00 0.  1.
         23    2    1    2    0    0  0.00000000000E+00  0.00000000000E+00  0.17221529515E+04  0.17244546769E+04  0.89068199593E+02 0.  0.
          2    1    3    3  502    0  0.43802656506E+02 -0.57482456036E+01  0.75229040744E+03  0.75358647293E+03  0.00000000000E+00 0. -1.
         -2    1    3    3    0  502 -0.43802656506E+02  0.57482456036E+01  0.96986254409E+03  0.97086820396E+03  0.00000000000E+00 0.  1.
<mgrwt>
<rscale>  0 0.89068200E+02</rscale>
<asrwt>0</asrwt>
<pdfrwt beam="1">  1        2 0.26512160E+00 0.89068200E+02</pdfrwt>
<pdfrwt beam="2">  1       -2 0.17705717E-03 0.89068200E+02</pdfrwt>
<totfact> 0.23452266E+05</totfact>
</mgrwt>
</event>
<event>
 5    1  0.3921687E+001  0.9184743E+02  0.7546771E-02  0.1298439E+00
         -2   -1    0    0    0  501 -0.00000000000E+00  0.00000000000E+00  0.78830002159E+02  0.78830002159E+02  0.00000000000E+00 0.  1.
          2   -1    0    0  501    0  0.00000000000E+00 -0.00000000000E+00 -0.26753615677E+02  0.26753615677E+02  0.00000000000E+00 0. -1.
         23    2    1    2    0    0  0.00000000000E+00  0.00000000000E+00  0.52076386482E+02  0.10558361784E+03  0.91847429612E+02 0.  0.
          2    1    3    3  502    0  0.58044360004E+00 -0.30109911913E+02 -0.13817437953E+02  0.33134050488E+02  0.00000000000E+00 0. -1.
         -2    1    3    3    0  502 -0.58044360004E+00  0.30109911913E+02  0.65893824436E+02  0.72449567348E+02  0.00000000000E+00 0.  1.
<mgrwt>
<rscale>  0 0.91847430E+02</rscale>
<asrwt>0</asrwt>
<pdfrwt beam="2">  1        2 0.41159409E-02 0.91847430E+02</pdfrwt>
<pdfrwt beam="1">  1       -2 0.12127693E-01 0.91847430E+02</pdfrwt>
<totfact> 0.83900706E+04</totfact>
</mgrwt>
</event>
<event>
 5    1  0.3921687E+001  0.8993537E+02  0.7546771E-02  0.1303008E+00
         -2   -1    0    0    0  501 -0.00000000000E+00  0.00000000000E+00  0.14728655305E+02  0.14728655305E+02  0.00000000000E+00 0.  1.
          2   -1    0    0  501    0  0.00000000000E+00 -0.00000000000E+00 -0.13728968683E+03  0.13728968683E+03  0.00000000000E+00 0. -1.
         23    2    1    2    0    0  0.00000000000E+00  0.00000000000E+00 -0.12256103153E+03  0.15201834214E+03  0.89935365109E+02 0.  0.
          2    1    3    3  502    0  0.38317015614E+02 -0.23530398492E+02 -0.60489250878E+02  0.75371233309E+02  0.00000000000E+00 0. -1.
         -2    1    3    3    0  502 -0.38317015614E+02  0.23530398492E+02 -0.62071780649E+02  0.76647108828E+02  0.00000000000E+00 0.  1.
<mgrwt>
<rscale>  0 0.89935365E+02</rscale>
<asrwt>0</asrwt>
<pdfrwt beam="2">  1        2 0.21121490E-01 0.89935365E+02</pdfrwt>
<pdfrwt beam="1">  1       -2 0.22659470E-02 0.89935365E+02</pdfrwt>
<totfact> 0.14085639E+05</totfact>
</mgrwt>
</event>
<event>
 5    1  0.3921687E+001  0.9467913E+02  0.7546771E-02  0.1291900E+00
         -4   -1    0    0    0  501 -0.00000000000E+00  0.00000000000E+00  0.89463835084E+01  0.89463835084E+01  0.00000000000E+00 0. -1.
          4   -1    0    0  501    0  0.00000000000E+00 -0.00000000000E+00 -0.25049610208E+03  0.25049610208E+03  0.00000000000E+00 0.  1.
         23    2    1    2    0    0  0.00000000000E+00  0.00000000000E+00 -0.24154971858E+03  0.25944248559E+03  0.94679125400E+02 0.  0.
          2    1    3    3  502    0  0.12089737834E+02 -0.28826770822E+02 -0.21819336185E+03  0.22042115967E+03  0.00000000000E+00 0.  1.
         -2    1    3    3    0  502 -0.12089737834E+02  0.28826770822E+02 -0.23356356725E+02  0.39021325918E+02  0.00000000000E+00 0. -1.
<mgrwt>
<rscale>  0 0.94679125E+02</rscale>
<asrwt>0</asrwt>
<pdfrwt beam="2">  1        4 0.38537856E-01 0.94679125E+02</pdfrwt>
<pdfrwt beam="1">  1       -4 0.13763669E-02 0.94679125E+02</pdfrwt>
<totfact> 0.17298535E+04</totfact>
</mgrwt>
</event>
<event>
 5    1  0.3921687E+001  0.9176171E+02  0.7546771E-02  0.1298641E+00
         -1   -1    0    0    0  501 -0.00000000000E+00  0.00000000000E+00  0.17630616435E+03  0.17630616435E+03  0.00000000000E+00 0.  1.
          1   -1    0    0  501    0  0.00000000000E+00 -0.00000000000E+00 -0.11939757313E+02  0.11939757313E+02  0.00000000000E+00 0. -1.
         23    2    1    2    0    0  0.00000000000E+00  0.00000000000E+00  0.16436640704E+03  0.18824592166E+03  0.91761709121E+02 0.  0.
          2    1    3    3  502    0 -0.26050991290E+02  0.23554633958E+02  0.14274757068E+03  0.14700457089E+03  0.00000000000E+00 0. -1.
         -2    1    3    3    0  502  0.26050991290E+02 -0.23554633958E+02  0.21618836358E+02  0.41241350773E+02  0.00000000000E+00 0.  1.
<mgrwt>
<rscale>  0 0.91761709E+02</rscale>
<asrwt>0</asrwt>
<pdfrwt beam="2">  1        1 0.18368859E-02 0.91761709E+02</pdfrwt>
<pdfrwt beam="1">  1       -1 0.27124023E-01 0.91761709E+02</pdfrwt>
<totfact> 0.70674038E+04</totfact>
</mgrwt>
</event>
<event>
 5    1  0.3921687E+001  0.9149167E+02  0.7546771E-02  0.1299279E+00
          2   -1    0    0  501    0  0.00000000000E+00  0.00000000000E+00  0.51218517047E+01  0.51218517047E+01  0.00000000000E+00 0. -1.
         -2   -1    0    0    0  501 -0.00000000000E+00 -0.00000000000E+00 -0.40857908212E+03  0.40857908212E+03  0.00000000000E+00 0.  1.
         23    2    1    2    0    0  0.00000000000E+00  0.00000000000E+00 -0.40345723041E+03  0.41370093382E+03  0.91491671058E+02 0.  0.
          2    1    3    3  502    0  0.33627439597E+02 -0.15848409225E+02 -0.81183522606E+02  0.89290207254E+02  0.00000000000E+00 0. -1.
         -2    1    3    3    0  502 -0.33627439597E+02  0.15848409225E+02 -0.32227370781E+03  0.32441072657E+03  0.00000000000E+00 0.  1.
<mgrwt>
<rscale>  0 0.91491671E+02</rscale>
<asrwt>0</asrwt>
<pdfrwt beam="1">  1        2 0.78797747E-03 0.91491671E+02</pdfrwt>
<pdfrwt beam="2">  1       -2 0.62858298E-01 0.91491671E+02</pdfrwt>
<totfact> 0.41706239E+04</totfact>
</mgrwt>
</event>
<event>
 5    1  0.3921687E+001  0.9101097E+02  0.7546771E-02  0.1300422E+00
          4   -1    0    0  501    0  0.00000000000E+00  0.00000000000E+00  0.21525519477E+02  0.21525519477E+02  0.00000000000E+00 0. -1.
         -4   -1    0    0    0  501 -0.00000000000E+00 -0.00000000000E+00 -0.96199722231E+02  0.96199722231E+02  0.00000000000E+00 0.  1.
         23    2    1    2    0    0  0.00000000000E+00  0.00000000000E+00 -0.74674202754E+02  0.11772524171E+03  0.91010966252E+02 0.  0.
          2    1    3    3  502    0 -0.32535796555E+02  0.24983733938E+02 -0.11858079016E+02  0.42701042808E+02  0.00000000000E+00 0. -1.
         -2    1    3    3    0  502  0.32535796555E+02 -0.24983733938E+02 -0.62816123739E+02  0.75024198899E+02  0.00000000000E+00 0.  1.
<mgrwt>
<rscale>  0 0.91010966E+02</rscale>
<asrwt>0</asrwt>
<pdfrwt beam="1">  1        4 0.33116184E-02 0.91010966E+02</pdfrwt>
<pdfrwt beam="2">  1       -4 0.14799957E-01 0.91010966E+02</pdfrwt>
<totfact> 0.25527834E+04</totfact>
</mgrwt>
</event>
<event>
 5    1  0.3921687E+001  0.9070287E+02  0.7546771E-02  0.1301158E+00
          2   -1    0    0  501    0  0.00000000000E+00  0.00000000000E+00  0.19097157671E+03  0.19097157671E+03  0.00000000000E+00 0. -1.
         -2   -1    0    0    0  501 -0.00000000000E+00 -0.00000000000E+00 -0.10769942408E+02  0.10769942408E+02  0.00000000000E+00 0.  1.
         23    2    1    2    0    0  0.00000000000E+00  0.00000000000E+00  0.18020163431E+03  0.20174151912E+03  0.90702874986E+02 0.  0.
          2    1    3    3  502    0 -0.21789303821E+02  0.39735591269E+02  0.86208839705E+02  0.97394327442E+02  0.00000000000E+00 0.  1.
         -2    1    3    3    0  502  0.21789303821E+02 -0.39735591269E+02  0.93992794602E+02  0.10434719168E+03  0.00000000000E+00 0. -1.
<mgrwt>
<rscale>  0 0.90702875E+02</rscale>
<asrwt>0</asrwt>
<pdfrwt beam="1">  1        2 0.29380240E-01 0.90702875E+02</pdfrwt>
<pdfrwt beam="2">  1       -2 0.16569144E-02 0.90702875E+02</pdfrwt>
<totfact> 0.15427747E+05</totfact>
</mgrwt>
</event>
<event>
 5    1  0.3921687E+001  0.8778449E+02  0.7546771E-02  0.1308307E+00
         -1   -1    0    0    0  501 -0.00000000000E+00  0.00000000000E+00  0.21299647678E+01  0.21299647678E+01  0.00000000000E+00 0.  1.
          1   -1    0    0  501    0  0.00000000000E+00 -0.00000000000E+00 -0.90448883128E+03  0.90448883128E+03  0.00000000000E+00 0. -1.
         23    2    1    2    0    0  0.00000000000E+00  0.00000000000E+00 -0.90235886651E+03  0.90661879604E+03  0.87784493927E+02 0.  0.
          2    1    3    3  502    0 -0.37782329309E+02  0.16937125107E+02 -0.30074842688E+03  0.30358522179E+03  0.00000000000E+00 0.  1.
         -2    1    3    3    0  502  0.37782329309E+02 -0.16937125107E+02 -0.60161043962E+03  0.60303357426E+03  0.00000000000E+00 0. -1.
<mgrwt>
<rscale>  0 0.87784494E+02</rscale>
<asrwt>0</asrwt>
<pdfrwt beam="2">  1        1 0.13915230E+00 0.87784494E+02</pdfrwt>
<pdfrwt beam="1">  1       -1 0.32768649E-03 0.87784494E+02</pdfrwt>
<totfact> 0.15368709E+05</totfact>
</mgrwt>
</event>
<event>
 5    1  0.3921687E+001  0.9130170E+02  0.7546771E-02  0.1299730E+00
         -2   -1    0    0    0  501 -0.00000000000E+00  0.00000000000E+00  0.23533436415E+01  0.23533436415E+01  0.00000000000E+00 0.  1.
          2   -1    0    0  501    0  0.00000000000E+00 -0.00000000000E+00 -0.88554862762E+03  0.88554862762E+03  0.00000000000E+00 0. -1.
         23    2    1    2    0    0  0.00000000000E+00  0.00000000000E+00 -0.88319528398E+03  0.88790197126E+03  0.91301702768E+02 0.  0.
          2    1    3    3  502    0  0.22560969844E+02  0.26442763878E+02 -0.72939342479E+03  0.73022118927E+03  0.00000000000E+00 0. -1.
         -2    1    3    3    0  502 -0.22560969844E+02 -0.26442763878E+02 -0.15380185918E+03  0.15768078199E+03  0.00000000000E+00 0.  1.
<mgrwt>
<rscale>  0 0.91301703E+02</rscale>
<asrwt>0</asrwt>
<pdfrwt beam="2">  1        2 0.13623818E+00 0.91301703E+02</pdfrwt>
<pdfrwt beam="1">  1       -2 0.36205305E-03 0.91301703E+02</pdfrwt>
<totfact> 0.24658117E+05</totfact>
</mgrwt>
</event>
<event>
 5    1  0.3921687E+001  0.9178407E+02  0.7546771E-02  0.1298588E+00
          2   -1    0    0  501    0  0.00000000000E+00  0.00000000000E+00  0.10787718452E+04  0.10787718452E+04  0.00000000000E+00 0. -1.
         -2   -1    0    0    0  501 -0.00000000000E+00 -0.00000000000E+00 -0.19522933430E+01  0.19522933430E+01  0.00000000000E+00 0.  1.
         23    2    1    2    0    0  0.00000000000E+00  0.00000000000E+00  0.10768195518E+04  0.10807241385E+04  0.91784074695E+02 0.  0.
          2    1    3    3  502    0  0.28616850704E+02  0.24136418167E+02  0.85095669397E+03  0.85177977544E+03  0.00000000000E+00 0. -1.
         -2    1    3    3    0  502 -0.28616850704E+02 -0.24136418167E+02  0.22586285784E+03  0.22894436307E+03  0.00000000000E+00 0.  1.
<mgrwt>
<rscale>  0 0.91784075E+02</rscale>
<asrwt>0</asrwt>
<pdfrwt beam="1">  1        2 0.16596442E+00 0.91784075E+02</pdfrwt>
<pdfrwt beam="2">  1       -2 0.30035368E-03 0.91784075E+02</pdfrwt>
<totfact> 0.24596296E+05</totfact>
</mgrwt>
</event>
<event>
 5    1  0.3921687E+001  0.9108555E+02  0.7546771E-02  0.1300244E+00
         -1   -1    0    0    0  501 -0.00000000000E+00  0.00000000000E+00  0.60870336729E+02  0.60870336729E+02  0.00000000000E+00 0.  1.
          1   -1    0    0  501    0  0.00000000000E+00 -0.00000000000E+00 -0.34074798956E+02  0.34074798956E+02  0.00000000000E+00 0. -1.
         23    2    1    2    0    0  0.00000000000E+00  0.00000000000E+00  0.26795537773E+02  0.94945135685E+02  0.91085552892E+02 0.  0.
          2    1    3    3  502    0 -0.74748139000E+01  0.44676856447E+02  0.18314648901E+02  0.48860216016E+02  0.00000000000E+00 0. -1.
         -2    1    3    3    0  502  0.74748139000E+01 -0.44676856447E+02  0.84808888723E+01  0.46084919668E+02  0.00000000000E+00 0.  1.
<mgrwt>
<rscale>  0 0.91085553E+02</rscale>
<asrwt>0</asrwt>
<pdfrwt beam="2">  1        1 0.52422768E-02 0.91085553E+02</pdfrwt>
<pdfrwt beam="1">  1       -1 0.93646672E-02 0.91085553E+02</pdfrwt>
<totfact> 0.88706944E+04</totfact>
</mgrwt>
</event>
<event>
 5    1  0.3921687E+001  0.9265979E+02  0.7546771E-02  0.1296536E+00
          2   -1    0    0  501    0  0.00000000000E+00  0.00000000000E+00  0.46789798098E+03  0.46789798098E+03  0.00000000000E+00 0. -1.
         -2   -1    0    0    0  501 -0.00000000000E+00 -0.00000000000E+00 -0.45874515123E+01  0.45874515123E+01  0.00000000000E+00 0.  1.
         23    2    1    2    0    0  0.00000000000E+00  0.00000000000E+00  0.46331052947E+03  0.47248543250E+03  0.92659792801E+02 0.  0.
          2    1    3    3  502    0 -0.28253658013E+01  0.45756067083E+02  0.19750283778E+03  0.20275347420E+03  0.00000000000E+00 0. -1.
         -2    1    3    3    0  502  0.28253658013E+01 -0.45756067083E+02  0.26580769169E+03  0.26973195830E+03  0.00000000000E+00 0.  1.
<mgrwt>
<rscale>  0 0.92659793E+02</rscale>
<asrwt>0</asrwt>
<pdfrwt beam="1">  1        2 0.71984267E-01 0.92659793E+02</pdfrwt>
<pdfrwt beam="2">  1       -2 0.70576214E-03 0.92659793E+02</pdfrwt>
<totfact> 0.20198424E+05</totfact>
</mgrwt>
</event>
<event>
 5    1  0.3921687E+001  0.9220469E+02  0.7546771E-02  0.1297599E+00
         -3   -1    0    0    0  501 -0.00000000000E+00  0.00000000000E+00  0.13014756793E+02  0.13014756793E+02  0.00000000000E+00 0.  1.
          3   -1    0    0  501    0  0.00000000000E+00 -0.00000000000E+00 -0.16330894193E+03  0.16330894193E+03  0.00000000000E+00 0. -1.
         23    2    1    2    0    0  0.00000000000E+00  0.00000000000E+00 -0.15029418514E+03  0.17632369872E+03  0.92204688846E+02 0.  0.
          2    1    3    3  502    0  0.61904100594E+01  0.45591606511E+02 -0.80725788328E+02  0.92916998779E+02  0.00000000000E+00 0. -1.
         -2    1    3    3    0  502 -0.61904100594E+01 -0.45591606511E+02 -0.69568396809E+02  0.83406699944E+02  0.00000000000E+00 0.  1.
<mgrwt>
<rscale>  0 0.92204689E+02</rscale>
<asrwt>0</asrwt>
<pdfrwt beam="2">  1        3 0.25124452E-01 0.92204689E+02</pdfrwt>
<pdfrwt beam="1">  1       -3 0.20022703E-02 0.92204689E+02</pdfrwt>
<totfact> 0.28879812E+04</totfact>
</mgrwt>
</event>
<event>
 5    1  0.3921687E+001  0.1008835E+03  0.7546771E-02  0.1278449E+00
          1   -1    0    0  501    0  0.00000000000E+00  0.00000000000E+00  0.41812849113E+03  0.41812849113E+03  0.00000000000E+00 0. -1.
         -1   -1    0    0    0  501 -0.00000000000E+00 -0.00000000000E+00 -0.60851427183E+01  0.60851427183E+01  0.00000000000E+00 0.  1.
         23    2    1    2    0    0  0.00000000000E+00  0.00000000000E+00  0.41204334841E+03  0.42421363384E+03  0.10088352776E+03 0.  0.
          2    1    3    3  502    0 -0.16218994140E+02 -0.21536111914E+02  0.26753595457E+02  0.37981768747E+02  0.00000000000E+00 0.  1.
         -2    1    3    3    0  502  0.16218994140E+02  0.21536111914E+02  0.38528975295E+03  0.38623186510E+03  0.00000000000E+00 0. -1.
<mgrwt>
<rscale>  0 0.10088353E+03</rscale>
<asrwt>0</asrwt>
<pdfrwt beam="1">  1        1 0.64327438E-01 0.10088353E+03</pdfrwt>
<pdfrwt beam="2">  1       -1 0.93617613E-03 0.10088353E+03</pdfrwt>
<totfact> 0.10371327E+05</totfact>
</mgrwt>
</event>
<event>
 5    1  0.3921687E+001  0.9458488E+02  0.7546771E-02  0.1292114E+00
         -1   -1    0    0    0  501 -0.00000000000E+00  0.00000000000E+00  0.16530520276E+02  0.16530520276E+02  0.00000000000E+00 0.  1.
          1   -1    0    0  501    0  0.00000000000E+00 -0.00000000000E+00 -0.13529971619E+03  0.13529971619E+03  0.00000000000E+00 0. -1.
         23    2    1    2    0    0  0.00000000000E+00  0.00000000000E+00 -0.11876919592E+03  0.15183023647E+03  0.94584876208E+02 0.  0.
          2    1    3    3  502    0 -0.33450468364E+02 -0.56977702786E+01 -0.11226402187E+03  0.11728004531E+03  0.00000000000E+00 0. -1.
         -2    1    3    3    0  502  0.33450468364E+02  0.56977702786E+01 -0.65051740431E+01  0.34550191161E+02  0.00000000000E+00 0.  1.
<mgrwt>
<rscale>  0 0.94584876E+02</rscale>
<asrwt>0</asrwt>
<pdfrwt beam="2">  1        1 0.20815342E-01 0.94584876E+02</pdfrwt>
<pdfrwt beam="1">  1       -1 0.25431569E-02 0.94584876E+02</pdfrwt>
<totfact> 0.99624261E+04</totfact>
</mgrwt>
</event>
<event>
 5    1  0.3921687E+001  0.9377056E+02  0.7546771E-02  0.1293969E+00
         -1   -1    0    0    0  501 -0.00000000000E+00  0.00000000000E+00  0.18810862285E+02  0.18810862285E+02  0.00000000000E+00 0.  1.
          1   -1    0    0  501    0  0.00000000000E+00 -0.00000000000E+00 -0.11685958585E+03  0.11685958585E+03  0.00000000000E+00 0. -1.
         23    2    1    2    0    0  0.00000000000E+00  0.00000000000E+00 -0.98048723569E+02  0.13567044814E+03  0.93770562036E+02 0.  0.
          2    1    3    3  502    0 -0.44946070402E+02 -0.20027875970E+01 -0.68113207770E+02  0.81630689544E+02  0.00000000000E+00 0. -1.
         -2    1    3    3    0  502  0.44946070402E+02  0.20027875970E+01 -0.29935515799E+02  0.54039758594E+02  0.00000000000E+00 0.  1.
<mgrwt>
<rscale>  0 0.93770562E+02</rscale>
<asrwt>0</asrwt>
<pdfrwt beam="2">  1        1 0.17978398E-01 0.93770562E+02</pdfrwt>
<pdfrwt beam="1">  1       -1 0.28939788E-02 0.93770562E+02</pdfrwt>
<totfact> 0.99364236E+04</totfact>
</mgrwt>
</event>
<event>
 5    1  0.3921687E+001  0.9269705E+02  0.7546771E-02  0.1296449E+00
         -2   -1    0    0    0  501 -0.00000000000E+00  0.00000000000E+00  0.36713915085E+03  0.36713915085E+03  0.00000000000E+00 0.  1.
          2   -1    0    0  501    0  0.00000000000E+00 -0.00000000000E+00 -0.58511492889E+01  0.58511492889E+01  0.00000000000E+00 0. -1.
         23    2    1    2    0    0  0.00000000000E+00  0.00000000000E+00  0.36128800157E+03  0.37299030014E+03  0.92697054569E+02 0.  0.
          2    1    3    3  502    0  0.25646176607E+02  0.29095331220E+02  0.78538767614E+02  0.87593394109E+02  0.00000000000E+00 0. -1.
         -2    1    3    3    0  502 -0.25646176607E+02 -0.29095331220E+02  0.28274923395E+03  0.28539690603E+03  0.00000000000E+00 0.  1.
<mgrwt>
<rscale>  0 0.92697055E+02</rscale>
<asrwt>0</asrwt>
<pdfrwt beam="2">  1        2 0.90017710E-03 0.92697055E+02</pdfrwt>
<pdfrwt beam="1">  1       -2 0.56482928E-01 0.92697055E+02</pdfrwt>
<totfact> 0.43281018E+04</totfact>
</mgrwt>
</event>
<event>
 5    1  0.3921687E+001  0.9132843E+02  0.7546771E-02  0.1299666E+00
         -1   -1    0    0    0  501 -0.00000000000E+00  0.00000000000E+00  0.59821287546E+03  0.59821287546E+03  0.00000000000E+00 0.  1.
          1   -1    0    0  501    0  0.00000000000E+00 -0.00000000000E+00 -0.34857500899E+01  0.34857500899E+01  0.00000000000E+00 0. -1.
         23    2    1    2    0    0  0.00000000000E+00  0.00000000000E+00  0.59472712537E+03  0.60169862555E+03  0.91328431157E+02 0.  0.
          2    1    3    3  502    0 -0.28085420688E+02 -0.28272235203E+02  0.15047111534E+03  0.15565881501E+03  0.00000000000E+00 0. -1.
         -2    1    3    3    0  502  0.28085420688E+02  0.28272235203E+02  0.44425601003E+03  0.44603981054E+03  0.00000000000E+00 0.  1.
<mgrwt>
<rscale>  0 0.91328431E+02</rscale>
<asrwt>0</asrwt>
<pdfrwt beam="2">  1        1 0.53626972E-03 0.91328431E+02</pdfrwt>
<pdfrwt beam="1">  1       -1 0.92032669E-01 0.91328431E+02</pdfrwt>
<totfact> 0.41524931E+04</totfact>
</mgrwt>
</event>
<event>
 5    1  0.3921687E+001  0.1003322E+03  0.7546771E-02  0.1279599E+00
         -2   -1    0    0    0  501 -0.00000000000E+00  0.00000000000E+00  0.35180711598E+02  0.35180711598E+02  0.00000000000E+00 0.  1.
          2   -1    0    0  501    0  0.00000000000E+00 -0.00000000000E+00 -0.71534559307E+02  0.71534559307E+02  0.00000000000E+00 0. -1.
         23    2    1    2    0    0  0.00000000000E+00  0.00000000000E+00 -0.36353847709E+02  0.10671527090E+03  0.10033218228E+03 0.  0.
          2    1    3    3  502    0 -0.17671462136E+02 -0.11978747616E+02 -0.66461804434E+02  0.69806464006E+02  0.00000000000E+00 0. -1.
         -2    1    3    3    0  502  0.17671462136E+02  0.11978747616E+02  0.30107956725E+02  0.36908806898E+02  0.00000000000E+00 0.  1.
<mgrwt>
<rscale>  0 0.10033218E+03</rscale>
<asrwt>0</asrwt>
<pdfrwt beam="2">  1        2 0.11005317E-01 0.10033218E+03</pdfrwt>
<pdfrwt beam="1">  1       -2 0.54124172E-02 0.10033218E+03</pdfrwt>
<totfact> 0.84973183E+04</totfact>
</mgrwt>
</event>
<event>
 5    1  0.3921687E+001  0.9123550E+02  0.7546771E-02  0.1299887E+00
         -3   -1    0    0    0  501 -0.00000000000E+00  0.00000000000E+00  0.24562182935E+02  0.24562182935E+02  0.00000000000E+00 0.  1.
          3   -1    0    0  501    0  0.00000000000E+00 -0.00000000000E+00 -0.84722897217E+02  0.84722897217E+02  0.00000000000E+00 0. -1.
         23    2    1    2    0    0  0.00000000000E+00  0.00000000000E+00 -0.60160714281E+02  0.10928508015E+03  0.91235504060E+02 0.  0.
          2    1    3    3  502    0 -0.70928425522E+01 -0.44665229554E+02 -0.37236171070E+02  0.58581768346E+02  0.00000000000E+00 0. -1.
         -2    1    3    3    0  502  0.70928425522E+01  0.44665229554E+02 -0.22924543211E+02  0.50703311805E+02  0.00000000000E+00 0.  1.
<mgrwt>
<rscale>  0 0.91235504E+02</rscale>
<asrwt>0</asrwt>
<pdfrwt beam="2">  1        3 0.13034292E-01 0.91235504E+02</pdfrwt>
<pdfrwt beam="1">  1       -3 0.37787974E-02 0.91235504E+02</pdfrwt>
<totfact> 0.33936332E+04</totfact>
</mgrwt>
</event>
<event>
 5    1  0.3921687E+001  0.9245961E+02  0.7546771E-02  0.1297002E+00
         -2   -1    0    0    0  501 -0.00000000000E+00  0.00000000000E+00  0.11791238258E+03  0.11791238258E+03  0.00000000000E+00 0.  1.
          2   -1    0    0  501    0  0.00000000000E+00 -0.00000000000E+00 -0.18125281140E+02  0.18125281140E+02  0.00000000000E+00 0. -1.
         23    2    1    2    0    0  0.00000000000E+00  0.00000000000E+00  0.99787101435E+02  0.13603766372E+03  0.92459614623E+02 0.  0.
          2    1    3    3  502    0 -0.14570822557E+02 -0.41392696065E+02  0.28494523963E+02  0.52322099092E+02  0.00000000000E+00 0. -1.
         -2    1    3    3    0  502  0.14570822557E+02  0.41392696065E+02  0.71292577473E+02  0.83715564623E+02  0.00000000000E+00 0.  1.
<mgrwt>
<rscale>  0 0.92459615E+02</rscale>
<asrwt>0</asrwt>
<pdfrwt beam="2">  1        2 0.27885049E-02 0.92459615E+02</pdfrwt>
<pdfrwt beam="1">  1       -2 0.18140366E-01 0.92459615E+02</pdfrwt>
<totfact> 0.73230595E+04</totfact>
</mgrwt>
</event>
<event>
 5    1  0.3921687E+001  0.9075792E+02  0.7546771E-02  0.1301027E+00
          4   -1    0    0  501    0  0.00000000000E+00  0.00000000000E+00  0.17380023124E+02  0.17380023124E+02  0.00000000000E+00 0.  1.
         -4   -1    0    0    0  501 -0.00000000000E+00 -0.00000000000E+00 -0.11848373554E+03  0.11848373554E+03  0.00000000000E+00 0. -1.
         23    2    1    2    0    0  0.00000000000E+00  0.00000000000E+00 -0.10110371242E+03  0.13586375867E+03  0.90757921164E+02 0.  0.
          2    1    3    3  502    0 -0.38359030718E+02 -0.10741732615E+01 -0.14292499989E+02  0.40949293544E+02  0.00000000000E+00 0.  1.
         -2    1    3    3    0  502  0.38359030718E+02  0.10741732615E+01 -0.86811212431E+02  0.94914465123E+02  0.00000000000E+00 0. -1.
<mgrwt>
<rscale>  0 0.90757921E+02</rscale>
<asrwt>0</asrwt>
<pdfrwt beam="1">  1        4 0.26738497E-02 0.90757921E+02</pdfrwt>
<pdfrwt beam="2">  1       -4 0.18228267E-01 0.90757921E+02</pdfrwt>
<totfact> 0.24707433E+04</totfact>
</mgrwt>
</event>
<event>
 5    1  0.3921687E+001  0.8940750E+02  0.7546771E-02  0.1304293E+00
         -2   -1    0    0    0  501 -0.00000000000E+00  0.00000000000E+00  0.16757494329E+01  0.16757494329E+01  0.00000000000E+00 0.  1.
          2   -1    0    0  501    0  0.00000000000E+00 -0.00000000000E+00 -0.11925561075E+04  0.11925561075E+04  0.00000000000E+00 0. -1.
         23    2    1    2    0    0  0.00000000000E+00  0.00000000000E+00 -0.11908803581E+04  0.11942318569E+04  0.89407499034E+02 0.  0.
          2    1    3    3  502    0  0.17285387818E+02 -0.20598226517E+02 -0.11842739246E+03  0.12144183321E+03  0.00000000000E+00 0.  1.
         -2    1    3    3    0  502 -0.17285387818E+02  0.20598226517E+02 -0.10724529656E+04  0.10727900237E+04  0.00000000000E+00 0. -1.
<mgrwt>
<rscale>  0 0.89407499E+02</rscale>
<asrwt>0</asrwt>
<pdfrwt beam="2">  1        2 0.18346942E+00 0.89407499E+02</pdfrwt>
<pdfrwt beam="1">  1       -2 0.25780866E-03 0.89407499E+02</pdfrwt>
<totfact> 0.26201448E+05</totfact>
</mgrwt>
</event>
<event>
 5    1  0.3921687E+001  0.8922947E+02  0.7546771E-02  0.1304728E+00
         -3   -1    0    0    0  501 -0.00000000000E+00  0.00000000000E+00  0.23905906021E+02  0.23905906021E+02  0.00000000000E+00 0.  1.
          3   -1    0    0  501    0  0.00000000000E+00 -0.00000000000E+00 -0.83262879797E+02  0.83262879797E+02  0.00000000000E+00 0. -1.
         23    2    1    2    0    0  0.00000000000E+00  0.00000000000E+00 -0.59356973776E+02  0.10716878582E+03  0.89229470008E+02 0.  0.
          2    1    3    3  502    0  0.43562483678E+02 -0.77559772311E+01 -0.22817847008E+02  0.49784528813E+02  0.00000000000E+00 0. -1.
         -2    1    3    3    0  502 -0.43562483678E+02  0.77559772311E+01 -0.36539126769E+02  0.57384257005E+02  0.00000000000E+00 0.  1.
<mgrwt>
<rscale>  0 0.89229470E+02</rscale>
<asrwt>0</asrwt>
<pdfrwt beam="2">  1        3 0.12809674E-01 0.89229470E+02</pdfrwt>
<pdfrwt beam="1">  1       -3 0.36778317E-02 0.89229470E+02</pdfrwt>
<totfact> 0.36206538E+04</totfact>
</mgrwt>
</event>
<event>
 5    1  0.3921687E+001  0.9249764E+02  0.7546771E-02  0.1296914E+00
          2   -1    0    0  501    0  0.00000000000E+00  0.00000000000E+00  0.23377450270E+03  0.23377450270E+03  0.00000000000E+00 0. -1.
         -2   -1    0    0    0  501 -0.00000000000E+00 -0.00000000000E+00 -0.91496433562E+01  0.91496433562E+01  0.00000000000E+00 0.  1.
         23    2    1    2    0    0  0.00000000000E+00  0.00000000000E+00  0.22462485935E+03  0.24292414606E+03  0.92497639440E+02 0.  0.
          2    1    3    3  502    0  0.14624737040E+02 -0.42252419917E+02  0.14336509673E+03  0.15017556686E+03  0.00000000000E+00 0. -1.
         -2    1    3    3    0  502 -0.14624737040E+02  0.42252419917E+02  0.81259762619E+02  0.92748579198E+02  0.00000000000E+00 0.  1.
<mgrwt>
<rscale>  0 0.92497639E+02</rscale>
<asrwt>0</asrwt>
<pdfrwt beam="1">  1        2 0.35965304E-01 0.92497639E+02</pdfrwt>
<pdfrwt beam="2">  1       -2 0.14076376E-02 0.92497639E+02</pdfrwt>
<totfact> 0.15754649E+05</totfact>
</mgrwt>
</event>
<event>
 5    1  0.3921687E+001  0.9258152E+02  0.7546771E-02  0.1296718E+00
          2   -1    0    0  501    0  0.00000000000E+00  0.00000000000E+00  0.21279615443E+03  0.21279615443E+03  0.00000000000E+00 0. -1.
         -2   -1    0    0    0  501 -0.00000000000E+00 -0.00000000000E+00 -0.10069893097E+02  0.10069893097E+02  0.00000000000E+00 0.  1.
         23    2    1    2    0    0  0.00000000000E+00  0.00000000000E+00  0.20272626133E+03  0.22286604752E+03  0.92581521408E+02 0.  0.
          2    1    3    3  502    0  0.82071564073E+01  0.21160026189E+02  0.19848361404E+03  0.19977699859E+03  0.00000000000E+00 0. -1.
         -2    1    3    3    0  502 -0.82071564073E+01 -0.21160026189E+02  0.42426472933E+01  0.23089048934E+02  0.00000000000E+00 0.  1.
<mgrwt>
<rscale>  0 0.92581521E+02</rscale>
<asrwt>0</asrwt>
<pdfrwt beam="1">  1        2 0.32737867E-01 0.92581521E+02</pdfrwt>
<pdfrwt beam="2">  1       -2 0.15492145E-02 0.92581521E+02</pdfrwt>
<totfact> 0.15182286E+05</totfact>
</mgrwt>
</event>
<event>
 5    1  0.3921687E+001  0.9112514E+02  0.7546771E-02  0.1300150E+00
         -1   -1    0    0    0  501 -0.00000000000E+00  0.00000000000E+00  0.61221891201E+02  0.61221891201E+02  0.00000000000E+00 0.  1.
          1   -1    0    0  501    0  0.00000000000E+00 -0.00000000000E+00 -0.33908586897E+02  0.33908586897E+02  0.00000000000E+00 0. -1.
         23    2    1    2    0    0  0.00000000000E+00  0.00000000000E+00  0.27313304305E+02  0.95130478098E+02  0.91125140719E+02 0.  0.
          2    1    3    3  502    0  0.27687838138E+01  0.24757489843E+02 -0.26169188011E+02  0.36130677662E+02  0.00000000000E+00 0. -1.
         -2    1    3    3    0  502 -0.27687838138E+01 -0.24757489843E+02  0.53482492316E+02  0.58999800436E+02  0.00000000000E+00 0.  1.
<mgrwt>
<rscale>  0 0.91125141E+02</rscale>
<asrwt>0</asrwt>
<pdfrwt beam="2">  1        1 0.52167057E-02 0.91125141E+02</pdfrwt>
<pdfrwt beam="1">  1       -1 0.94187524E-02 0.91125141E+02</pdfrwt>
<totfact> 0.88529407E+04</totfact>
</mgrwt>
</event>
<event>
 5    1  0.3921687E+001  0.9143647E+02  0.7546771E-02  0.1299410E+00
          1   -1    0    0  501    0  0.00000000000E+00  0.00000000000E+00  0.12381791719E+01  0.12381791719E+01  0.00000000000E+00 0. -1.
         -1   -1    0    0    0  501 -0.00000000000E+00 -0.00000000000E+00 -0.16880894831E+04  0.16880894831E+04  0.00000000000E+00 0.  1.
         23    2    1    2    0    0  0.00000000000E+00  0.00000000000E+00 -0.16868513039E+04  0.16893276623E+04  0.91436474958E+02 0.  0.
          2    1    3    3  502    0 -0.20244767870E+02  0.22136064659E+02 -0.20600979356E+03  0.20818235042E+03  0.00000000000E+00 0. -1.
         -2    1    3    3    0  502  0.20244767870E+02 -0.22136064659E+02 -0.14808415104E+04  0.14811453118E+04  0.00000000000E+00 0.  1.
<mgrwt>
<rscale>  0 0.91436475E+02</rscale>
<asrwt>0</asrwt>
<pdfrwt beam="1">  1        1 0.19049036E-03 0.91436475E+02</pdfrwt>
<pdfrwt beam="2">  1       -1 0.25970436E+00 0.91436475E+02</pdfrwt>
<totfact> 0.10695876E+04</totfact>
</mgrwt>
</event>
<event>
 5    1  0.3921687E+001  0.9156166E+02  0.7546771E-02  0.1299113E+00
          2   -1    0    0  501    0  0.00000000000E+00  0.00000000000E+00  0.12050214967E+04  0.12050214967E+04  0.00000000000E+00 0. -1.
         -2   -1    0    0    0  501 -0.00000000000E+00 -0.00000000000E+00 -0.17392920804E+01  0.17392920804E+01  0.00000000000E+00 0.  1.
         23    2    1    2    0    0  0.00000000000E+00  0.00000000000E+00  0.12032822047E+04  0.12067607888E+04  0.91561658919E+02 0.  0.
          2    1    3    3  502    0  0.43414103928E+02 -0.93871733887E+00  0.79273342872E+03  0.79392188194E+03  0.00000000000E+00 0. -1.
         -2    1    3    3    0  502 -0.43414103928E+02  0.93871733887E+00  0.41054877593E+03  0.41283890688E+03  0.00000000000E+00 0.  1.
<mgrwt>
<rscale>  0 0.91561659E+02</rscale>
<asrwt>0</asrwt>
<pdfrwt beam="1">  1        2 0.18538726E+00 0.91561659E+02</pdfrwt>
<pdfrwt beam="2">  1       -2 0.26758436E-03 0.91561659E+02</pdfrwt>
<totfact> 0.24582694E+05</totfact>
</mgrwt>
</event>
<event>
 5    1  0.3921687E+001  0.9134335E+02  0.7546771E-02  0.1299631E+00
         -3   -1    0    0    0  501 -0.00000000000E+00  0.00000000000E+00  0.64843218313E+02  0.64843218313E+02  0.00000000000E+00 0.  1.
          3   -1    0    0  501    0  0.00000000000E+00 -0.00000000000E+00 -0.32168390452E+02  0.32168390452E+02  0.00000000000E+00 0. -1.
         23    2    1    2    0    0  0.00000000000E+00  0.00000000000E+00  0.32674827861E+02  0.97011608765E+02  0.91343351478E+02 0.  0.
          2    1    3    3  502    0  0.42162243512E+02  0.42366355968E+01 -0.17580143044E+01  0.42411018303E+02  0.00000000000E+00 0. -1.
         -2    1    3    3    0  502 -0.42162243512E+02 -0.42366355968E+01  0.34432842166E+02  0.54600590462E+02  0.00000000000E+00 0.  1.
<mgrwt>
<rscale>  0 0.91343351E+02</rscale>
<asrwt>0</asrwt>
<pdfrwt beam="2">  1        3 0.49489832E-02 0.91343351E+02</pdfrwt>
<pdfrwt beam="1">  1       -3 0.99758797E-02 0.91343351E+02</pdfrwt>
<totfact> 0.34722039E+04</totfact>
</mgrwt>
</event>
<event>
 5    1  0.3921687E+001  0.9146219E+02  0.7546771E-02  0.1299349E+00
         -1   -1    0    0    0  501 -0.00000000000E+00  0.00000000000E+00  0.14693984486E+03  0.14693984486E+03  0.00000000000E+00 0.  1.
          1   -1    0    0  501    0  0.00000000000E+00 -0.00000000000E+00 -0.14232580852E+02  0.14232580852E+02  0.00000000000E+00 0. -1.
         23    2    1    2    0    0  0.00000000000E+00  0.00000000000E+00  0.13270726401E+03  0.16117242572E+03  0.91462193773E+02 0.  0.
          2    1    3    3  502    0 -0.36859600713E+02 -0.92625938480E+01  0.21533803322E+02  0.43682153049E+02  0.00000000000E+00 0. -1.
         -2    1    3    3    0  502  0.36859600713E+02  0.92625938480E+01  0.11117346069E+03  0.11749027267E+03  0.00000000000E+00 0.  1.
<mgrwt>
<rscale>  0 0.91462194E+02</rscale>
<asrwt>0</asrwt>
<pdfrwt beam="2">  1        1 0.21896279E-02 0.91462194E+02</pdfrwt>
<pdfrwt beam="1">  1       -1 0.22606129E-01 0.91462194E+02</pdfrwt>
<totfact> 0.74540495E+04</totfact>
</mgrwt>
</event>
<event>
 5    1  0.3921687E+001  0.9360138E+02  0.7546771E-02  0.1294358E+00
         -2   -1    0    0    0  501 -0.00000000000E+00  0.00000000000E+00  0.21402175423E+01  0.21402175423E+01  0.00000000000E+00 0. -1.
          2   -1    0    0  501    0  0.00000000000E+00 -0.00000000000E+00 -0.10234027516E+04  0.10234027516E+04  0.00000000000E+00 0.  1.
         23    2    1    2    0    0  0.00000000000E+00  0.00000000000E+00 -0.10212625341E+04  0.10255429692E+04  0.93601378661E+02 0.  0.
          2    1    3    3  502    0  0.44667506607E+02  0.11219780309E+02 -0.41946500115E+03  0.42198573057E+03  0.00000000000E+00 0. -1.
         -2    1    3    3    0  502 -0.44667506607E+02 -0.11219780309E+02 -0.60179753292E+03  0.60355723858E+03  0.00000000000E+00 0.  1.
<mgrwt>
<rscale>  0 0.93601379E+02</rscale>
<asrwt>0</asrwt>
<pdfrwt beam="2">  1        2 0.15744641E+00 0.93601379E+02</pdfrwt>
<pdfrwt beam="1">  1       -2 0.32926458E-03 0.93601379E+02</pdfrwt>
<totfact> 0.23349012E+05</totfact>
</mgrwt>
</event>
<event>
 5    1  0.3921687E+001  0.9661867E+02  0.7546771E-02  0.1287572E+00
         -2   -1    0    0    0  501 -0.00000000000E+00  0.00000000000E+00  0.99255918573E+03  0.99255918573E+03  0.00000000000E+00 0.  1.
          2   -1    0    0  501    0  0.00000000000E+00 -0.00000000000E+00 -0.23512871580E+01  0.23512871580E+01  0.00000000000E+00 0. -1.
         23    2    1    2    0    0  0.00000000000E+00  0.00000000000E+00  0.99020789857E+03  0.99491047288E+03  0.96618666249E+02 0.  0.
          2    1    3    3  502    0  0.38385448411E+02 -0.13132859046E+01  0.79683815860E+03  0.79776325960E+03  0.00000000000E+00 0. -1.
         -2    1    3    3    0  502 -0.38385448411E+02  0.13132859046E+01  0.19336973997E+03  0.19714721328E+03  0.00000000000E+00 0.  1.
<mgrwt>
<rscale>  0 0.96618666E+02</rscale>
<asrwt>0</asrwt>
<pdfrwt beam="2">  1        2 0.36173728E-03 0.96618666E+02</pdfrwt>
<pdfrwt beam="1">  1       -2 0.15270108E+00 0.96618666E+02</pdfrwt>
<totfact> 0.16204921E+04</totfact>
</mgrwt>
</event>
<event>
 5    1  0.3921687E+001  0.9186876E+02  0.7546771E-02  0.1298388E+00
         -1   -1    0    0    0  501 -0.00000000000E+00  0.00000000000E+00  0.29404879077E+01  0.29404879077E+01  0.00000000000E+00 0.  1.
          1   -1    0    0  501    0  0.00000000000E+00 -0.00000000000E+00 -0.71755690062E+03  0.71755690062E+03  0.00000000000E+00 0. -1.
         23    2    1    2    0    0  0.00000000000E+00  0.00000000000E+00 -0.71461641271E+03  0.72049738853E+03  0.91868762685E+02 0.  0.
          2    1    3    3  502    0  0.16837393200E+02 -0.24660071379E+02 -0.83560392576E+02  0.88735315054E+02  0.00000000000E+00 0.  1.
         -2    1    3    3    0  502 -0.16837393200E+02  0.24660071379E+02 -0.63105602013E+03  0.63176207347E+03  0.00000000000E+00 0. -1.
<mgrwt>
<rscale>  0 0.91868763E+02</rscale>
<asrwt>0</asrwt>
<pdfrwt beam="2">  1        1 0.11039334E+00 0.91868763E+02</pdfrwt>
<pdfrwt beam="1">  1       -1 0.45238287E-03 0.91868763E+02</pdfrwt>
<totfact> 0.13930593E+05</totfact>
</mgrwt>
</event>
<event>
 5    1  0.3921687E+001  0.8997185E+02  0.7546771E-02  0.1302920E+00
         -3   -1    0    0    0  501 -0.00000000000E+00  0.00000000000E+00  0.32468817041E+01  0.32468817041E+01  0.00000000000E+00 0.  1.
          3   -1    0    0  501    0  0.00000000000E+00 -0.00000000000E+00 -0.62328529121E+03  0.62328529121E+03  0.00000000000E+00 0. -1.
         23    2    1    2    0    0  0.00000000000E+00  0.00000000000E+00 -0.62003840950E+03  0.62653217291E+03  0.89971853565E+02 0.  0.
          2    1    3    3  502    0  0.33305256453E+02  0.12515005485E+02 -0.50172424628E+03  0.50298417945E+03  0.00000000000E+00 0. -1.
         -2    1    3    3    0  502 -0.33305256453E+02 -0.12515005485E+02 -0.11831416322E+03  0.12354799347E+03  0.00000000000E+00 0.  1.
<mgrwt>
<rscale>  0 0.89971854E+02</rscale>
<asrwt>0</asrwt>
<pdfrwt beam="2">  1        3 0.95889994E-01 0.89971854E+02</pdfrwt>
<pdfrwt beam="1">  1       -3 0.49952053E-03 0.89971854E+02</pdfrwt>
<totfact> 0.15764034E+04</totfact>
</mgrwt>
</event>
<event>
 5    1  0.3921687E+001  0.8938258E+02  0.7546771E-02  0.1304354E+00
         -3   -1    0    0    0  501 -0.00000000000E+00  0.00000000000E+00  0.70167387336E+02  0.70167387336E+02  0.00000000000E+00 0.  1.
          3   -1    0    0  501    0  0.00000000000E+00 -0.00000000000E+00 -0.28464950856E+02  0.28464950856E+02  0.00000000000E+00 0. -1.
         23    2    1    2    0    0  0.00000000000E+00  0.00000000000E+00  0.41702436481E+02  0.98632338192E+02  0.89382576203E+02 0.  0.
          2    1    3    3  502    0 -0.43055481360E+02  0.28633519943E+00  0.34067946366E+02  0.54904293389E+02  0.00000000000E+00 0. -1.
         -2    1    3    3    0  502  0.43055481360E+02 -0.28633519943E+00  0.76344901144E+01  0.43728044803E+02  0.00000000000E+00 0.  1.
<mgrwt>
<rscale>  0 0.89382576E+02</rscale>
<asrwt>0</asrwt>
<pdfrwt beam="2">  1        3 0.43792232E-02 0.89382576E+02</pdfrwt>
<pdfrwt beam="1">  1       -3 0.10794983E-01 0.89382576E+02</pdfrwt>
<totfact> 0.36702263E+04</totfact>
</mgrwt>
</event>
<event>
 5    1  0.3921687E+001  0.8930323E+02  0.7546771E-02  0.1304548E+00
         -1   -1    0    0    0  501 -0.00000000000E+00  0.00000000000E+00  0.49964399848E+02  0.49964399848E+02  0.00000000000E+00 0.  1.
          1   -1    0    0  501    0  0.00000000000E+00 -0.00000000000E+00 -0.39903747356E+02  0.39903747356E+02  0.00000000000E+00 0. -1.
         23    2    1    2    0    0  0.00000000000E+00  0.00000000000E+00  0.10060652492E+02  0.89868147205E+02  0.89303231484E+02 0.  0.
          2    1    3    3  502    0 -0.21764464241E+02  0.11071316230E+02 -0.32589315266E+02  0.40722590981E+02  0.00000000000E+00 0. -1.
         -2    1    3    3    0  502  0.21764464241E+02 -0.11071316230E+02  0.42649967758E+02  0.49145556223E+02  0.00000000000E+00 0.  1.
<mgrwt>
<rscale>  0 0.89303231E+02</rscale>
<asrwt>0</asrwt>
<pdfrwt beam="2">  1        1 0.61390380E-02 0.89303231E+02</pdfrwt>
<pdfrwt beam="1">  1       -1 0.76868308E-02 0.89303231E+02</pdfrwt>
<totfact> 0.96091081E+04</totfact>
</mgrwt>
</event>
<event>
 5    1  0.3921687E+001  0.9177111E+02  0.7546771E-02  0.1298618E+00
         -2   -1    0    0    0  501 -0.00000000000E+00  0.00000000000E+00  0.51667457551E+03  0.51667457551E+03  0.00000000000E+00 0. -1.
          2   -1    0    0  501    0  0.00000000000E+00 -0.00000000000E+00 -0.40750686890E+01  0.40750686890E+01  0.00000000000E+00 0.  1.
         23    2    1    2    0    0  0.00000000000E+00  0.00000000000E+00  0.51259950682E+03  0.52074964420E+03  0.91771114956E+02 0.  0.
          2    1    3    3  502    0  0.25218827223E+02 -0.41869614653E+01  0.47252229686E+03  0.47321331440E+03  0.00000000000E+00 0. -1.
         -2    1    3    3    0  502 -0.25218827223E+02  0.41869614653E+01  0.40077209963E+02  0.47536329804E+02  0.00000000000E+00 0.  1.
<mgrwt>
<rscale>  0 0.91771115E+02</rscale>
<asrwt>0</asrwt>
<pdfrwt beam="2">  1        2 0.62693405E-03 0.91771115E+02</pdfrwt>
<pdfrwt beam="1">  1       -2 0.79488344E-01 0.91771115E+02</pdfrwt>
<totfact> 0.34790043E+04</totfact>
</mgrwt>
</event>
<event>
 5    1  0.3921687E+001  0.9127941E+02  0.7546771E-02  0.1299783E+00
          2   -1    0    0  501    0  0.00000000000E+00  0.00000000000E+00  0.78663674299E+02  0.78663674299E+02  0.00000000000E+00 0. -1.
         -2   -1    0    0    0  501 -0.00000000000E+00 -0.00000000000E+00 -0.26479603424E+02  0.26479603424E+02  0.00000000000E+00 0.  1.
         23    2    1    2    0    0  0.00000000000E+00  0.00000000000E+00  0.52184070875E+02  0.10514327772E+03  0.91279414969E+02 0.  0.
          2    1    3    3  502    0 -0.15542383217E+02 -0.23310078693E+02 -0.15408683608E+02  0.31974254882E+02  0.00000000000E+00 0.  1.
         -2    1    3    3    0  502  0.15542383217E+02  0.23310078693E+02  0.67592754483E+02  0.73169022840E+02  0.00000000000E+00 0. -1.
<mgrwt>
<rscale>  0 0.91279415E+02</rscale>
<asrwt>0</asrwt>
<pdfrwt beam="1">  1        2 0.12102104E-01 0.91279415E+02</pdfrwt>
<pdfrwt beam="2">  1       -2 0.40737852E-02 0.91279415E+02</pdfrwt>
<totfact> 0.11394753E+05</totfact>
</mgrwt>
</event>
<event>
 5    1  0.3921687E+001  0.9175089E+02  0.7546771E-02  0.1298666E+00
          3   -1    0    0  501    0  0.00000000000E+00  0.00000000000E+00  0.10612897303E+04  0.10612897303E+04  0.00000000000E+00 0.  1.
         -3   -1    0    0    0  501 -0.00000000000E+00 -0.00000000000E+00 -0.19830176595E+01  0.19830176595E+01  0.00000000000E+00 0. -1.
         23    2    1    2    0    0  0.00000000000E+00  0.00000000000E+00  0.10593067126E+04  0.10632727479E+04  0.91750886143E+02 0.  0.
          2    1    3    3  502    0 -0.26129264782E+02  0.11697797345E+02  0.11423805672E+03  0.11777058438E+03  0.00000000000E+00 0. -1.
         -2    1    3    3    0  502  0.26129264782E+02 -0.11697797345E+02  0.94506865589E+03  0.94550216355E+03  0.00000000000E+00 0.  1.
<mgrwt>
<rscale>  0 0.91750886E+02</rscale>
<asrwt>0</asrwt>
<pdfrwt beam="1">  1        3 0.16327489E+00 0.91750886E+02</pdfrwt>
<pdfrwt beam="2">  1       -3 0.30508049E-03 0.91750886E+02</pdfrwt>
<totfact> 0.92368137E+03</totfact>
</mgrwt>
</event>
<event>
 5    1  0.3921687E+001  0.9232287E+02  0.7546771E-02  0.1297322E+00
          2   -1    0    0  501    0  0.00000000000E+00  0.00000000000E+00  0.25300565555E+02  0.25300565555E+02  0.00000000000E+00 0.  1.
         -2   -1    0    0    0  501 -0.00000000000E+00 -0.00000000000E+00 -0.84222541314E+02  0.84222541314E+02  0.00000000000E+00 0. -1.
         23    2    1    2    0    0  0.00000000000E+00  0.00000000000E+00 -0.58921975759E+02  0.10952310687E+03  0.92322866674E+02 0.  0.
          2    1    3    3  502    0  0.20910574280E+02 -0.19458852453E+02 -0.72479547159E+02  0.77904966542E+02  0.00000000000E+00 0. -1.
         -2    1    3    3    0  502 -0.20910574280E+02  0.19458852453E+02  0.13557571400E+02  0.31618140327E+02  0.00000000000E+00 0.  1.
<mgrwt>
<rscale>  0 0.92322867E+02</rscale>
<asrwt>0</asrwt>
<pdfrwt beam="1">  1        2 0.38923947E-02 0.92322867E+02</pdfrwt>
<pdfrwt beam="2">  1       -2 0.12957314E-01 0.92322867E+02</pdfrwt>
<totfact> 0.81324969E+04</totfact>
</mgrwt>
</event>
<event>
 5    1  0.3921687E+001  0.9196472E+02  0.7546771E-02  0.1298162E+00
         -2   -1    0    0    0  501 -0.00000000000E+00  0.00000000000E+00  0.20476653039E+01  0.20476653039E+01  0.00000000000E+00 0.  1.
          2   -1    0    0  501    0  0.00000000000E+00 -0.00000000000E+00 -0.10325796378E+04  0.10325796378E+04  0.00000000000E+00 0. -1.
         23    2    1    2    0    0  0.00000000000E+00  0.00000000000E+00 -0.10305319725E+04  0.10346273031E+04  0.91964721450E+02 0.  0.
          2    1    3    3  502    0  0.15524618249E+01 -0.43194035494E+02 -0.33872549924E+03  0.34147195884E+03  0.00000000000E+00 0.  1.
         -2    1    3    3    0  502 -0.15524618249E+01  0.43194035494E+02 -0.69180647325E+03  0.69315534425E+03  0.00000000000E+00 0. -1.
<mgrwt>
<rscale>  0 0.91964721E+02</rscale>
<asrwt>0</asrwt>
<pdfrwt beam="2">  1        2 0.15885819E+00 0.91964721E+02</pdfrwt>
<pdfrwt beam="1">  1       -2 0.31502585E-03 0.91964721E+02</pdfrwt>
<totfact> 0.24466102E+05</totfact>
</mgrwt>
</event>
<event>
 5    1  0.3921687E+001  0.9117111E+02  0.7546771E-02  0.1300040E+00
          4   -1    0    0  501    0  0.00000000000E+00  0.00000000000E+00  0.34985723688E+03  0.34985723688E+03  0.00000000000E+00 0. -1.
         -4   -1    0    0    0  501 -0.00000000000E+00 -0.00000000000E+00 -0.59396877749E+01  0.59396877749E+01  0.00000000000E+00 0.  1.
         23    2    1    2    0    0  0.00000000000E+00  0.00000000000E+00  0.34391754911E+03  0.35579692466E+03  0.91171108426E+02 0.  0.
          2    1    3    3  502    0 -0.22342495853E+02  0.37938684818E+02  0.21805341875E+03  0.22245409494E+03  0.00000000000E+00 0. -1.
         -2    1    3    3    0  502  0.22342495853E+02 -0.37938684818E+02  0.12586413036E+03  0.13334282972E+03  0.00000000000E+00 0.  1.
<mgrwt>
<rscale>  0 0.91171108E+02</rscale>
<asrwt>0</asrwt>
<pdfrwt beam="1">  1        4 0.53824174E-01 0.91171108E+02</pdfrwt>
<pdfrwt beam="2">  1       -4 0.91379839E-03 0.91171108E+02</pdfrwt>
<totfact> 0.16246334E+04</totfact>
</mgrwt>
</event>
<event>
 5    1  0.3921687E+001  0.9109071E+02  0.7546771E-02  0.1300232E+00
          1   -1    0    0  501    0  0.00000000000E+00  0.00000000000E+00  0.16537866453E+04  0.16537866453E+04  0.00000000000E+00 0. -1.
         -1   -1    0    0    0  501 -0.00000000000E+00 -0.00000000000E+00 -0.12543210283E+01  0.12543210283E+01  0.00000000000E+00 0.  1.
         23    2    1    2    0    0  0.00000000000E+00  0.00000000000E+00  0.16525323243E+04  0.16550409664E+04  0.91090710077E+02 0.  0.
          2    1    3    3  502    0  0.43911236618E+02  0.11948415928E+02  0.79267523198E+03  0.79398046874E+03  0.00000000000E+00 0. -1.
         -2    1    3    3    0  502 -0.43911236618E+02 -0.11948415928E+02  0.85985709234E+03  0.86106049763E+03  0.00000000000E+00 0.  1.
<mgrwt>
<rscale>  0 0.91090710E+02</rscale>
<asrwt>0</asrwt>
<pdfrwt beam="1">  1        1 0.25442697E+00 0.91090710E+02</pdfrwt>
<pdfrwt beam="2">  1       -1 0.19297379E-03 0.91090710E+02</pdfrwt>
<totfact> 0.10132619E+05</totfact>
</mgrwt>
</event>
<event>
 5    1  0.3921687E+001  0.9120583E+02  0.7546771E-02  0.1299958E+00
         -2   -1    0    0    0  501 -0.00000000000E+00  0.00000000000E+00  0.56753731144E+01  0.56753731144E+01  0.00000000000E+00 0.  1.
          2   -1    0    0  501    0  0.00000000000E+00 -0.00000000000E+00 -0.36642982407E+03  0.36642982407E+03  0.00000000000E+00 0. -1.
         23    2    1    2    0    0  0.00000000000E+00  0.00000000000E+00 -0.36075445096E+03  0.37210519719E+03  0.91205832529E+02 0.  0.
          2    1    3    3  502    0  0.69293158076E+01  0.43292705272E+02 -0.12919966651E+03  0.13643616666E+03  0.00000000000E+00 0. -1.
         -2    1    3    3    0  502 -0.69293158076E+01 -0.43292705272E+02 -0.23155478445E+03  0.23566903053E+03  0.00000000000E+00 0.  1.
<mgrwt>
<rscale>  0 0.91205833E+02</rscale>
<asrwt>0</asrwt>
<pdfrwt beam="2">  1        2 0.56373817E-01 0.91205833E+02</pdfrwt>
<pdfrwt beam="1">  1       -2 0.87313436E-03 0.91205833E+02</pdfrwt>
<totfact> 0.19324048E+05</totfact>
</mgrwt>
</event>
<event>
 5    1  0.3921687E+001  0.9022480E+02  0.7546771E-02  0.1302308E+00
         -1   -1    0    0    0  501 -0.00000000000E+00  0.00000000000E+00  0.92588046984E+03  0.92588046984E+03  0.00000000000E+00 0.  1.
          1   -1    0    0  501    0  0.00000000000E+00 -0.00000000000E+00 -0.21980470628E+01  0.21980470628E+01  0.00000000000E+00 0. -1.
         23    2    1    2    0    0  0.00000000000E+00  0.00000000000E+00  0.92368242278E+03  0.92807851690E+03  0.90224804733E+02 0.  0.
          2    1    3    3  502    0  0.28235762491E+02 -0.15698805012E+02  0.13795893176E+03  0.14169113456E+03  0.00000000000E+00 0. -1.
         -2    1    3    3    0  502 -0.28235762491E+02  0.15698805012E+02  0.78572349102E+03  0.78638738234E+03  0.00000000000E+00 0.  1.
<mgrwt>
<rscale>  0 0.90224805E+02</rscale>
<asrwt>0</asrwt>
<pdfrwt beam="2">  1        1 0.33816183E-03 0.90224805E+02</pdfrwt>
<pdfrwt beam="1">  1       -1 0.14244284E+00 0.90224805E+02</pdfrwt>
<totfact> 0.28834264E+04</totfact>
</mgrwt>
</event>
<event>
 5    1  0.3921687E+001  0.9045128E+02  0.7546771E-02  0.1301763E+00
         -4   -1    0    0    0  501 -0.00000000000E+00  0.00000000000E+00  0.22208075227E+03  0.22208075227E+03  0.00000000000E+00 0.  1.
          4   -1    0    0  501    0  0.00000000000E+00 -0.00000000000E+00 -0.92099771700E+01  0.92099771700E+01  0.00000000000E+00 0. -1.
         23    2    1    2    0    0  0.00000000000E+00  0.00000000000E+00  0.21287077510E+03  0.23129072944E+03  0.90451283203E+02 0.  0.
          2    1    3    3  502    0  0.16237403098E+02 -0.30931887403E+02  0.32992389926E+02  0.48051354931E+02  0.00000000000E+00 0. -1.
         -2    1    3    3    0  502 -0.16237403098E+02  0.30931887403E+02  0.17987838517E+03  0.18323937451E+03  0.00000000000E+00 0.  1.
<mgrwt>
<rscale>  0 0.90451283E+02</rscale>
<asrwt>0</asrwt>
<pdfrwt beam="2">  1        4 0.14169197E-02 0.90451283E+02</pdfrwt>
<pdfrwt beam="1">  1       -4 0.34166266E-01 0.90451283E+02</pdfrwt>
<totfact> 0.20580094E+04</totfact>
</mgrwt>
</event>
<event>
 5    1  0.3921687E+001  0.8614523E+02  0.7546771E-02  0.1312465E+00
          1   -1    0    0  501    0  0.00000000000E+00  0.00000000000E+00  0.14576988607E+04  0.14576988607E+04  0.00000000000E+00 0. -1.
         -1   -1    0    0    0  501 -0.00000000000E+00 -0.00000000000E+00 -0.12727252938E+01  0.12727252938E+01  0.00000000000E+00 0.  1.
         23    2    1    2    0    0  0.00000000000E+00  0.00000000000E+00  0.14564261354E+04  0.14589715860E+04  0.86145231109E+02 0.  0.
          2    1    3    3  502    0 -0.15371313291E+02  0.28778746067E+02  0.12044653142E+04  0.12049071278E+04  0.00000000000E+00 0. -1.
         -2    1    3    3    0  502  0.15371313291E+02 -0.28778746067E+02  0.25196082120E+03  0.25406445820E+03  0.00000000000E+00 0.  1.
<mgrwt>
<rscale>  0 0.86145231E+02</rscale>
<asrwt>0</asrwt>
<pdfrwt beam="1">  1        1 0.22426003E+00 0.86145231E+02</pdfrwt>
<pdfrwt beam="2">  1       -1 0.19580506E-03 0.86145231E+02</pdfrwt>
<totfact> 0.13133022E+05</totfact>
</mgrwt>
</event>
<event>
 5    1  0.3921687E+001  0.9282346E+02  0.7546771E-02  0.1296155E+00
         -2   -1    0    0    0  501 -0.00000000000E+00  0.00000000000E+00  0.23399683477E+02  0.23399683477E+02  0.00000000000E+00 0.  1.
          2   -1    0    0  501    0  0.00000000000E+00 -0.00000000000E+00 -0.92054607144E+02  0.92054607144E+02  0.00000000000E+00 0. -1.
         23    2    1    2    0    0  0.00000000000E+00  0.00000000000E+00 -0.68654923668E+02  0.11545429062E+03  0.92823459745E+02 0.  0.
          2    1    3    3  502    0  0.32318212123E+02  0.14360800497E+02 -0.71710979822E+02  0.79957263915E+02  0.00000000000E+00 0. -1.
         -2    1    3    3    0  502 -0.32318212123E+02 -0.14360800497E+02  0.30560561539E+01  0.35497026706E+02  0.00000000000E+00 0.  1.
<mgrwt>
<rscale>  0 0.92823460E+02</rscale>
<asrwt>0</asrwt>
<pdfrwt beam="2">  1        2 0.14162247E-01 0.92823460E+02</pdfrwt>
<pdfrwt beam="1">  1       -2 0.35999513E-02 0.92823460E+02</pdfrwt>
<totfact> 0.11387212E+05</totfact>
</mgrwt>
</event>
<event>
 5    1  0.3921687E+001  0.9169863E+02  0.7546771E-02  0.1298790E+00
         -2   -1    0    0    0  501 -0.00000000000E+00  0.00000000000E+00  0.75601666564E+01  0.75601666564E+01  0.00000000000E+00 0.  1.
          2   -1    0    0  501    0  0.00000000000E+00 -0.00000000000E+00 -0.27805731514E+03  0.27805731514E+03  0.00000000000E+00 0. -1.
         23    2    1    2    0    0  0.00000000000E+00  0.00000000000E+00 -0.27049714849E+03  0.28561748180E+03  0.91698629052E+02 0.  0.
          2    1    3    3  502    0 -0.36118500198E+02 -0.12734325188E+02 -0.56731732490E+02  0.68448510326E+02  0.00000000000E+00 0.  1.
         -2    1    3    3    0  502  0.36118500198E+02  0.12734325188E+02 -0.21376541600E+03  0.21716897147E+03  0.00000000000E+00 0. -1.
<mgrwt>
<rscale>  0 0.91698629E+02</rscale>
<asrwt>0</asrwt>
<pdfrwt beam="2">  1        2 0.42778053E-01 0.91698629E+02</pdfrwt>
<pdfrwt beam="1">  1       -2 0.11631024E-02 0.91698629E+02</pdfrwt>
<totfact> 0.17199718E+05</totfact>
</mgrwt>
</event>
<event>
 5    1  0.3921687E+001  0.9216727E+02  0.7546771E-02  0.1297687E+00
          3   -1    0    0  501    0  0.00000000000E+00  0.00000000000E+00  0.31899534874E+02  0.31899534874E+02  0.00000000000E+00 0. -1.
         -3   -1    0    0    0  501 -0.00000000000E+00 -0.00000000000E+00 -0.66574688515E+02  0.66574688515E+02  0.00000000000E+00 0.  1.
         23    2    1    2    0    0  0.00000000000E+00  0.00000000000E+00 -0.34675153641E+02  0.98474223390E+02  0.92167273976E+02 0.  0.
          2    1    3    3  502    0  0.47509748515E+01  0.27391001973E+02 -0.56606722272E+02  0.63064726729E+02  0.00000000000E+00 0.  1.
         -2    1    3    3    0  502 -0.47509748515E+01 -0.27391001973E+02  0.21931568631E+02  0.35409496660E+02  0.00000000000E+00 0. -1.
<mgrwt>
<rscale>  0 0.92167274E+02</rscale>
<asrwt>0</asrwt>
<pdfrwt beam="1">  1        3 0.49076208E-02 0.92167274E+02</pdfrwt>
<pdfrwt beam="2">  1       -3 0.10242260E-01 0.92167274E+02</pdfrwt>
<totfact> 0.33775197E+04</totfact>
</mgrwt>
</event>
<event>
 5    1  0.3921687E+001  0.9276041E+02  0.7546771E-02  0.1296301E+00
         -2   -1    0    0    0  501 -0.00000000000E+00  0.00000000000E+00  0.91731444667E+00  0.91731444667E+00  0.00000000000E+00 0.  1.
          2   -1    0    0  501    0  0.00000000000E+00 -0.00000000000E+00 -0.23450227118E+04  0.23450227118E+04  0.00000000000E+00 0. -1.
         23    2    1    2    0    0  0.00000000000E+00  0.00000000000E+00 -0.23441053973E+04  0.23459400262E+04  0.92760405589E+02 0.  0.
          2    1    3    3  502    0  0.28654970149E+02 -0.35657173623E+02 -0.97848367126E+03  0.97955236525E+03  0.00000000000E+00 0.  1.
         -2    1    3    3    0  502 -0.28654970149E+02  0.35657173623E+02 -0.13656217261E+04  0.13663876610E+04  0.00000000000E+00 0. -1.
<mgrwt>
<rscale>  0 0.92760406E+02</rscale>
<asrwt>0</asrwt>
<pdfrwt beam="2">  1        2 0.36077296E+00 0.92760406E+02</pdfrwt>
<pdfrwt beam="1">  1       -2 0.14112521E-03 0.92760406E+02</pdfrwt>
<totfact> 0.15643218E+05</totfact>
</mgrwt>
</event>
<event>
 5    1  0.3921687E+001  0.9084328E+02  0.7546771E-02  0.1300822E+00
         -3   -1    0    0    0  501 -0.00000000000E+00  0.00000000000E+00  0.14841941907E+02  0.14841941907E+02  0.00000000000E+00 0.  1.
          3   -1    0    0  501    0  0.00000000000E+00 -0.00000000000E+00 -0.13900643167E+03  0.13900643167E+03  0.00000000000E+00 0. -1.
         23    2    1    2    0    0  0.00000000000E+00  0.00000000000E+00 -0.12416448977E+03  0.15384837358E+03  0.90843280071E+02 0.  0.
          2    1    3    3  502    0  0.32664990033E+02  0.30677690496E+02 -0.49522126086E+02  0.66787448223E+02  0.00000000000E+00 0. -1.
         -2    1    3    3    0  502 -0.32664990033E+02 -0.30677690496E+02 -0.74642363680E+02  0.87060925356E+02  0.00000000000E+00 0.  1.
<mgrwt>
<rscale>  0 0.90843280E+02</rscale>
<asrwt>0</asrwt>
<pdfrwt beam="2">  1        3 0.21385604E-01 0.90843280E+02</pdfrwt>
<pdfrwt beam="1">  1       -3 0.22833757E-02 0.90843280E+02</pdfrwt>
<totfact> 0.31382937E+04</totfact>
</mgrwt>
</event>
<event>
 5    1  0.3921687E+001  0.9157686E+02  0.7546771E-02  0.1299077E+00
          1   -1    0    0  501    0  0.00000000000E+00  0.00000000000E+00  0.10538794943E+02  0.10538794943E+02  0.00000000000E+00 0. -1.
         -1   -1    0    0    0  501 -0.00000000000E+00 -0.00000000000E+00 -0.19893928034E+03  0.19893928034E+03  0.00000000000E+00 0.  1.
         23    2    1    2    0    0  0.00000000000E+00  0.00000000000E+00 -0.18840048539E+03  0.20947807528E+03  0.91576859119E+02 0.  0.
          2    1    3    3  502    0  0.15530221181E+02  0.42488501707E+02 -0.78006128001E+02  0.90174367494E+02  0.00000000000E+00 0. -1.
         -2    1    3    3    0  502 -0.15530221181E+02 -0.42488501707E+02 -0.11039435739E+03  0.11930370779E+03  0.00000000000E+00 0.  1.
<mgrwt>
<rscale>  0 0.91576859E+02</rscale>
<asrwt>0</asrwt>
<pdfrwt beam="1">  1        1 0.16213532E-02 0.91576859E+02</pdfrwt>
<pdfrwt beam="2">  1       -1 0.30606041E-01 0.91576859E+02</pdfrwt>
<totfact> 0.68740803E+04</totfact>
</mgrwt>
</event>
<event>
 5    1  0.3921687E+001  0.9094839E+02  0.7546771E-02  0.1300571E+00
          4   -1    0    0  501    0  0.00000000000E+00  0.00000000000E+00  0.10727342781E+02  0.10727342781E+02  0.00000000000E+00 0. -1.
         -4   -1    0    0    0  501 -0.00000000000E+00 -0.00000000000E+00 -0.19276929239E+03  0.19276929239E+03  0.00000000000E+00 0.  1.
         23    2    1    2    0    0  0.00000000000E+00  0.00000000000E+00 -0.18204194960E+03  0.20349663517E+03  0.90948387059E+02 0.  0.
          2    1    3    3  502    0 -0.39313017575E+02  0.17485513279E+02 -0.58087517879E+02  0.72287040739E+02  0.00000000000E+00 0. -1.
         -2    1    3    3    0  502  0.39313017575E+02 -0.17485513279E+02 -0.12395443173E+03  0.13120959443E+03  0.00000000000E+00 0.  1.
<mgrwt>
<rscale>  0 0.90948387E+02</rscale>
<asrwt>0</asrwt>
<pdfrwt beam="1">  1        4 0.16503605E-02 0.90948387E+02</pdfrwt>
<pdfrwt beam="2">  1       -4 0.29656813E-01 0.90948387E+02</pdfrwt>
<totfact> 0.21384149E+04</totfact>
</mgrwt>
</event>
<event>
 5    1  0.3921687E+001  0.9023471E+02  0.7546771E-02  0.1302284E+00
         -2   -1    0    0    0  501 -0.00000000000E+00  0.00000000000E+00  0.30185224086E+03  0.30185224086E+03  0.00000000000E+00 0. -1.
          2   -1    0    0  501    0  0.00000000000E+00 -0.00000000000E+00 -0.67436167428E+01  0.67436167428E+01  0.00000000000E+00 0.  1.
         23    2    1    2    0    0  0.00000000000E+00  0.00000000000E+00  0.29510862412E+03  0.30859585760E+03  0.90234712285E+02 0.  0.
          2    1    3    3  502    0 -0.33067431548E+02 -0.23653271089E+02  0.80656231057E+02  0.90323639600E+02  0.00000000000E+00 0.  1.
         -2    1    3    3    0  502  0.33067431548E+02  0.23653271089E+02  0.21445239306E+03  0.21827221800E+03  0.00000000000E+00 0. -1.
<mgrwt>
<rscale>  0 0.90234712E+02</rscale>
<asrwt>0</asrwt>
<pdfrwt beam="2">  1        2 0.10374797E-02 0.90234712E+02</pdfrwt>
<pdfrwt beam="1">  1       -2 0.46438796E-01 0.90234712E+02</pdfrwt>
<totfact> 0.52201553E+04</totfact>
</mgrwt>
</event>
<event>
 5    1  0.3921687E+001  0.9348490E+02  0.7546771E-02  0.1294625E+00
         -4   -1    0    0    0  501 -0.00000000000E+00  0.00000000000E+00  0.48578512492E+02  0.48578512492E+02  0.00000000000E+00 0.  1.
          4   -1    0    0  501    0  0.00000000000E+00 -0.00000000000E+00 -0.44975784960E+02  0.44975784960E+02  0.00000000000E+00 0. -1.
         23    2    1    2    0    0  0.00000000000E+00  0.00000000000E+00  0.36027275319E+01  0.93554297451E+02  0.93484902128E+02 0.  0.
          2    1    3    3  502    0 -0.13039166391E+02 -0.25252090762E+02 -0.35336408525E+02  0.45346992353E+02  0.00000000000E+00 0. -1.
         -2    1    3    3    0  502  0.13039166391E+02  0.25252090762E+02  0.38939136057E+02  0.48207305098E+02  0.00000000000E+00 0.  1.
<mgrwt>
<rscale>  0 0.93484902E+02</rscale>
<asrwt>0</asrwt>
<pdfrwt beam="2">  1        4 0.69193515E-02 0.93484902E+02</pdfrwt>
<pdfrwt beam="1">  1       -4 0.74736173E-02 0.93484902E+02</pdfrwt>
<totfact> 0.25095685E+04</totfact>
</mgrwt>
</event>
<event>
 5    1  0.3921687E+001  0.9007111E+02  0.7546771E-02  0.1302680E+00
          1   -1    0    0  501    0  0.00000000000E+00  0.00000000000E+00  0.98140656922E+03  0.98140656922E+03  0.00000000000E+00 0. -1.
         -1   -1    0    0    0  501 -0.00000000000E+00 -0.00000000000E+00 -0.20666270289E+01  0.20666270289E+01  0.00000000000E+00 0.  1.
         23    2    1    2    0    0  0.00000000000E+00  0.00000000000E+00  0.97933994219E+03  0.98347319625E+03  0.90071112845E+02 0.  0.
          2    1    3    3  502    0  0.82362315730E+01 -0.35992644553E+02  0.77121875371E+03  0.77210211244E+03  0.00000000000E+00 0. -1.
         -2    1    3    3    0  502 -0.82362315730E+01  0.35992644553E+02  0.20812118848E+03  0.21137108380E+03  0.00000000000E+00 0.  1.
<mgrwt>
<rscale>  0 0.90071113E+02</rscale>
<asrwt>0</asrwt>
<pdfrwt beam="1">  1        1 0.15098525E+00 0.90071113E+02</pdfrwt>
<pdfrwt beam="2">  1       -1 0.31794340E-03 0.90071113E+02</pdfrwt>
<totfact> 0.14115032E+05</totfact>
</mgrwt>
</event>
<event>
 5    1  0.3921687E+001  0.8207972E+02  0.7546771E-02  0.1323251E+00
         -2   -1    0    0    0  501 -0.00000000000E+00  0.00000000000E+00  0.40185295493E+01  0.40185295493E+01  0.00000000000E+00 0.  1.
          2   -1    0    0  501    0  0.00000000000E+00 -0.00000000000E+00 -0.41912595722E+03  0.41912595722E+03  0.00000000000E+00 0. -1.
         23    2    1    2    0    0  0.00000000000E+00  0.00000000000E+00 -0.41510742767E+03  0.42314448677E+03  0.82079718419E+02 0.  0.
          2    1    3    3  502    0 -0.35955707503E+01 -0.37154481120E+02 -0.11962826927E+03  0.12531682411E+03  0.00000000000E+00 0. -1.
         -2    1    3    3    0  502  0.35955707503E+01  0.37154481120E+02 -0.29547915839E+03  0.29782766265E+03  0.00000000000E+00 0.  1.
<mgrwt>
<rscale>  0 0.82079718E+02</rscale>
<asrwt>0</asrwt>
<pdfrwt beam="2">  1        2 0.64480912E-01 0.82079718E+02</pdfrwt>
<pdfrwt beam="1">  1       -2 0.61823536E-03 0.82079718E+02</pdfrwt>
<totfact> 0.26780148E+05</totfact>
</mgrwt>
</event>
<event>
 5    1  0.3921687E+001  0.8777648E+02  0.7546771E-02  0.1308327E+00
          1   -1    0    0  501    0  0.00000000000E+00  0.00000000000E+00  0.12353274415E+03  0.12353274415E+03  0.00000000000E+00 0. -1.
         -1   -1    0    0    0  501 -0.00000000000E+00 -0.00000000000E+00 -0.15592445639E+02  0.15592445639E+02  0.00000000000E+00 0.  1.
         23    2    1    2    0    0  0.00000000000E+00  0.00000000000E+00  0.10794029851E+03  0.13912518979E+03  0.87776479717E+02 0.  0.
          2    1    3    3  502    0 -0.21675848355E+02  0.21236027589E+01  0.11436290144E+03  0.11641832037E+03  0.00000000000E+00 0. -1.
         -2    1    3    3    0  502  0.21675848355E+02 -0.21236027589E+01 -0.64226029316E+01  0.22706869423E+02  0.00000000000E+00 0.  1.
<mgrwt>
<rscale>  0 0.87776480E+02</rscale>
<asrwt>0</asrwt>
<pdfrwt beam="1">  1        1 0.19005037E-01 0.87776480E+02</pdfrwt>
<pdfrwt beam="2">  1       -1 0.23988379E-02 0.87776480E+02</pdfrwt>
<totfact> 0.11999678E+05</totfact>
</mgrwt>
</event>
<event>
 5    1  0.3921687E+001  0.9109944E+02  0.7546771E-02  0.1300211E+00
         -2   -1    0    0    0  501 -0.00000000000E+00  0.00000000000E+00  0.66829044353E+01  0.66829044353E+01  0.00000000000E+00 0. -1.
          2   -1    0    0  501    0  0.00000000000E+00 -0.00000000000E+00 -0.31046039529E+03  0.31046039529E+03  0.00000000000E+00 0.  1.
         23    2    1    2    0    0  0.00000000000E+00  0.00000000000E+00 -0.30377749086E+03  0.31714329973E+03  0.91099443526E+02 0.  0.
          2    1    3    3  502    0  0.31261290639E+02  0.20937573724E+02 -0.62512043752E+02  0.72961674185E+02  0.00000000000E+00 0. -1.
         -2    1    3    3    0  502 -0.31261290639E+02 -0.20937573724E+02 -0.24126544711E+03  0.24418162554E+03  0.00000000000E+00 0.  1.
<mgrwt>
<rscale>  0 0.91099444E+02</rscale>
<asrwt>0</asrwt>
<pdfrwt beam="2">  1        2 0.47763139E-01 0.91099444E+02</pdfrwt>
<pdfrwt beam="1">  1       -2 0.10281391E-02 0.91099444E+02</pdfrwt>
<totfact> 0.18237804E+05</totfact>
</mgrwt>
</event>
<event>
 5    1  0.3921687E+001  0.9234260E+02  0.7546771E-02  0.1297276E+00
          2   -1    0    0  501    0  0.00000000000E+00  0.00000000000E+00  0.93384106378E+03  0.93384106378E+03  0.00000000000E+00 0.  1.
         -2   -1    0    0    0  501 -0.00000000000E+00 -0.00000000000E+00 -0.22828179357E+01  0.22828179357E+01  0.00000000000E+00 0. -1.
         23    2    1    2    0    0  0.00000000000E+00  0.00000000000E+00  0.93155824584E+03  0.93612388172E+03  0.92342604025E+02 0.  0.
          2    1    3    3  502    0  0.36071825021E+02 -0.17794698657E+02  0.23595458068E+03  0.23935829212E+03  0.00000000000E+00 0. -1.
         -2    1    3    3    0  502 -0.36071825021E+02  0.17794698657E+02  0.69560366516E+03  0.69676558960E+03  0.00000000000E+00 0.  1.
<mgrwt>
<rscale>  0 0.92342604E+02</rscale>
<asrwt>0</asrwt>
<pdfrwt beam="1">  1        2 0.14366755E+00 0.92342604E+02</pdfrwt>
<pdfrwt beam="2">  1       -2 0.35120350E-03 0.92342604E+02</pdfrwt>
<totfact> 0.24067465E+05</totfact>
</mgrwt>
</event>
<event>
 5    1  0.3921687E+001  0.9595585E+02  0.7546771E-02  0.1289038E+00
         -3   -1    0    0    0  501 -0.00000000000E+00  0.00000000000E+00  0.60955633032E+01  0.60955633032E+01  0.00000000000E+00 0.  1.
          3   -1    0    0  501    0  0.00000000000E+00 -0.00000000000E+00 -0.37763222746E+03  0.37763222746E+03  0.00000000000E+00 0. -1.
         23    2    1    2    0    0  0.00000000000E+00  0.00000000000E+00 -0.37153666416E+03  0.38372779076E+03  0.95955847093E+02 0.  0.
          2    1    3    3  502    0 -0.29067854649E+02  0.11758032339E+02 -0.33098722055E+03  0.33246914393E+03  0.00000000000E+00 0. -1.
         -2    1    3    3    0  502  0.29067854649E+02 -0.11758032339E+02 -0.40549443610E+02  0.51258646836E+02  0.00000000000E+00 0.  1.
<mgrwt>
<rscale>  0 0.95955847E+02</rscale>
<asrwt>0</asrwt>
<pdfrwt beam="2">  1        3 0.58097279E-01 0.95955847E+02</pdfrwt>
<pdfrwt beam="1">  1       -3 0.93777875E-03 0.95955847E+02</pdfrwt>
<totfact> 0.18407504E+04</totfact>
</mgrwt>
</event>
<event>
 5    1  0.3921687E+001  0.9188650E+02  0.7546771E-02  0.1298347E+00
          2   -1    0    0  501    0  0.00000000000E+00  0.00000000000E+00  0.36355512919E+03  0.36355512919E+03  0.00000000000E+00 0. -1.
         -2   -1    0    0    0  501 -0.00000000000E+00 -0.00000000000E+00 -0.58059480967E+01  0.58059480967E+01  0.00000000000E+00 0.  1.
         23    2    1    2    0    0  0.00000000000E+00  0.00000000000E+00  0.35774918109E+03  0.36936107729E+03  0.91886499778E+02 0.  0.
          2    1    3    3  502    0  0.25145009144E+02  0.25201858534E+02  0.29561206942E+03  0.29774804910E+03  0.00000000000E+00 0. -1.
         -2    1    3    3    0  502 -0.25145009144E+02 -0.25201858534E+02  0.62137111673E+02  0.71613028183E+02  0.00000000000E+00 0.  1.
<mgrwt>
<rscale>  0 0.91886500E+02</rscale>
<asrwt>0</asrwt>
<pdfrwt beam="1">  1        2 0.55931541E-01 0.91886500E+02</pdfrwt>
<pdfrwt beam="2">  1       -2 0.89322307E-03 0.91886500E+02</pdfrwt>
<totfact> 0.18891273E+05</totfact>
</mgrwt>
</event>
<event>
 5    1  0.3921687E+001  0.9089610E+02  0.7546771E-02  0.1300696E+00
         -4   -1    0    0    0  501 -0.00000000000E+00  0.00000000000E+00  0.18944544482E+02  0.18944544482E+02  0.00000000000E+00 0.  1.
          4   -1    0    0  501    0  0.00000000000E+00 -0.00000000000E+00 -0.10903007257E+03  0.10903007257E+03  0.00000000000E+00 0. -1.
         23    2    1    2    0    0  0.00000000000E+00  0.00000000000E+00 -0.90085528087E+02  0.12797461705E+03  0.90896095839E+02 0.  0.
          2    1    3    3  502    0 -0.13995708817E+02 -0.28739810738E+02 -0.90526893937E+02  0.96005078576E+02  0.00000000000E+00 0. -1.
         -2    1    3    3    0  502  0.13995708817E+02  0.28739810738E+02  0.44136584954E+00  0.31969538476E+02  0.00000000000E+00 0.  1.
<mgrwt>
<rscale>  0 0.90896096E+02</rscale>
<asrwt>0</asrwt>
<pdfrwt beam="2">  1        4 0.16773857E-01 0.90896096E+02</pdfrwt>
<pdfrwt beam="1">  1       -4 0.29145454E-02 0.90896096E+02</pdfrwt>
<totfact> 0.25035843E+04</totfact>
</mgrwt>
</event>
<event>
 5    1  0.3921687E+001  0.9225752E+02  0.7546771E-02  0.1297475E+00
          2   -1    0    0  501    0  0.00000000000E+00  0.00000000000E+00  0.26701444540E+03  0.26701444540E+03  0.00000000000E+00 0. -1.
         -2   -1    0    0    0  501 -0.00000000000E+00 -0.00000000000E+00 -0.79690909148E+01  0.79690909148E+01  0.00000000000E+00 0.  1.
         23    2    1    2    0    0  0.00000000000E+00  0.00000000000E+00  0.25904535449E+03  0.27498353632E+03  0.92257517655E+02 0.  0.
          2    1    3    3  502    0  0.37605310572E+02  0.26293402465E+02  0.11542846607E+03  0.12421446444E+03  0.00000000000E+00 0.  1.
         -2    1    3    3    0  502 -0.37605310572E+02 -0.26293402465E+02  0.14361688842E+03  0.15076907188E+03  0.00000000000E+00 0. -1.
<mgrwt>
<rscale>  0 0.92257518E+02</rscale>
<asrwt>0</asrwt>
<pdfrwt beam="1">  1        2 0.41079139E-01 0.92257518E+02</pdfrwt>
<pdfrwt beam="2">  1       -2 0.12260142E-02 0.92257518E+02</pdfrwt>
<totfact> 0.16667816E+05</totfact>
</mgrwt>
</event>
<event>
 5    1  0.3921687E+001  0.9191974E+02  0.7546771E-02  0.1298268E+00
          2   -1    0    0  501    0  0.00000000000E+00  0.00000000000E+00  0.16571181362E+03  0.16571181362E+03  0.00000000000E+00 0. -1.
         -2   -1    0    0    0  501 -0.00000000000E+00 -0.00000000000E+00 -0.12746885399E+02  0.12746885399E+02  0.00000000000E+00 0.  1.
         23    2    1    2    0    0  0.00000000000E+00  0.00000000000E+00  0.15296492822E+03  0.17845869902E+03  0.91919736674E+02 0.  0.
          2    1    3    3  502    0 -0.14061558707E+02  0.32605416175E+02  0.13313421622E+03  0.13778809863E+03  0.00000000000E+00 0. -1.
         -2    1    3    3    0  502  0.14061558707E+02 -0.32605416175E+02  0.19830712003E+02  0.40670600386E+02  0.00000000000E+00 0.  1.
<mgrwt>
<rscale>  0 0.91919737E+02</rscale>
<asrwt>0</asrwt>
<pdfrwt beam="1">  1        2 0.25494124E-01 0.91919737E+02</pdfrwt>
<pdfrwt beam="2">  1       -2 0.19610594E-02 0.91919737E+02</pdfrwt>
<totfact> 0.14153729E+05</totfact>
</mgrwt>
</event>
<event>
 5    1  0.3921687E+001  0.9021830E+02  0.7546771E-02  0.1302324E+00
          1   -1    0    0  501    0  0.00000000000E+00  0.00000000000E+00  0.54353752252E+01  0.54353752252E+01  0.00000000000E+00 0. -1.
         -1   -1    0    0    0  501 -0.00000000000E+00 -0.00000000000E+00 -0.37436893496E+03  0.37436893496E+03  0.00000000000E+00 0.  1.
         23    2    1    2    0    0  0.00000000000E+00  0.00000000000E+00 -0.36893355973E+03  0.37980431018E+03  0.90218304887E+02 0.  0.
          2    1    3    3  502    0 -0.20328326236E+02 -0.19092576655E+02 -0.35206358245E+02  0.44913861911E+02  0.00000000000E+00 0. -1.
         -2    1    3    3    0  502  0.20328326236E+02  0.19092576655E+02 -0.33372720149E+03  0.33489044827E+03  0.00000000000E+00 0.  1.
<mgrwt>
<rscale>  0 0.90218305E+02</rscale>
<asrwt>0</asrwt>
<pdfrwt beam="1">  1        1 0.83621146E-03 0.90218305E+02</pdfrwt>
<pdfrwt beam="2">  1       -1 0.57595229E-01 0.90218305E+02</pdfrwt>
<totfact> 0.56593977E+04</totfact>
</mgrwt>
</event>
<event>
 5    1  0.3921687E+001  0.8820703E+02  0.7546771E-02  0.1307253E+00
         -1   -1    0    0    0  501 -0.00000000000E+00  0.00000000000E+00  0.12342294281E+03  0.12342294281E+03  0.00000000000E+00 0.  1.
          1   -1    0    0  501    0  0.00000000000E+00 -0.00000000000E+00 -0.15759792694E+02  0.15759792694E+02  0.00000000000E+00 0. -1.
         23    2    1    2    0    0  0.00000000000E+00  0.00000000000E+00  0.10766315012E+03  0.13918273551E+03  0.88207029027E+02 0.  0.
          2    1    3    3  502    0  0.20542316108E+02 -0.10977055016E+02 -0.52639909975E+01  0.23878695298E+02  0.00000000000E+00 0. -1.
         -2    1    3    3    0  502 -0.20542316108E+02  0.10977055016E+02  0.11292714112E+03  0.11530404021E+03  0.00000000000E+00 0.  1.
<mgrwt>
<rscale>  0 0.88207029E+02</rscale>
<asrwt>0</asrwt>
<pdfrwt beam="2">  1        1 0.24245836E-02 0.88207029E+02</pdfrwt>
<pdfrwt beam="1">  1       -1 0.18988144E-01 0.88207029E+02</pdfrwt>
<totfact> 0.85047487E+04</totfact>
</mgrwt>
</event>
<event>
 5    1  0.3921687E+001  0.9236896E+02  0.7546771E-02  0.1297214E+00
          3   -1    0    0  501    0  0.00000000000E+00  0.00000000000E+00  0.49049486517E+02  0.49049486517E+02  0.00000000000E+00 0. -1.
         -3   -1    0    0    0  501 -0.00000000000E+00 -0.00000000000E+00 -0.43486821758E+02  0.43486821758E+02  0.00000000000E+00 0.  1.
         23    2    1    2    0    0  0.00000000000E+00  0.00000000000E+00  0.55626647590E+01  0.92536308274E+02  0.92368961831E+02 0.  0.
          2    1    3    3  502    0 -0.30618779599E+02 -0.62802234695E+01  0.36843747034E+02  0.48315758987E+02  0.00000000000E+00 0. -1.
         -2    1    3    3    0  502  0.30618779599E+02  0.62802234695E+01 -0.31281082275E+02  0.44220549287E+02  0.00000000000E+00 0.  1.
<mgrwt>
<rscale>  0 0.92368962E+02</rscale>
<asrwt>0</asrwt>
<pdfrwt beam="1">  1        3 0.75460748E-02 0.92368962E+02</pdfrwt>
<pdfrwt beam="2">  1       -3 0.66902803E-02 0.92368962E+02</pdfrwt>
<totfact> 0.34006200E+04</totfact>
</mgrwt>
</event>
<event>
 5    1  0.3921687E+001  0.8976818E+02  0.7546771E-02  0.1303414E+00
         -2   -1    0    0    0  501 -0.00000000000E+00  0.00000000000E+00  0.47831535203E+02  0.47831535203E+02  0.00000000000E+00 0.  1.
          2   -1    0    0  501    0  0.00000000000E+00 -0.00000000000E+00 -0.42118272162E+02  0.42118272162E+02  0.00000000000E+00 0. -1.
         23    2    1    2    0    0  0.00000000000E+00  0.00000000000E+00  0.57132630409E+01  0.89949807365E+02  0.89768181837E+02 0.  0.
          2    1    3    3  502    0  0.19034957774E+02  0.91773616676E+01 -0.36821820429E+02  0.42454682242E+02  0.00000000000E+00 0. -1.
         -2    1    3    3    0  502 -0.19034957774E+02 -0.91773616676E+01  0.42535083470E+02  0.47495125122E+02  0.00000000000E+00 0.  1.
<mgrwt>
<rscale>  0 0.89768182E+02</rscale>
<asrwt>0</asrwt>
<pdfrwt beam="2">  1        2 0.64797342E-02 0.89768182E+02</pdfrwt>
<pdfrwt beam="1">  1       -2 0.73586977E-02 0.89768182E+02</pdfrwt>
<totfact> 0.10110255E+05</totfact>
</mgrwt>
</event>
<event>
 5    1  0.3921687E+001  0.9273956E+02  0.7546771E-02  0.1296350E+00
          2   -1    0    0  501    0  0.00000000000E+00  0.00000000000E+00  0.21533990060E+04  0.21533990060E+04  0.00000000000E+00 0. -1.
         -2   -1    0    0    0  501 -0.00000000000E+00 -0.00000000000E+00 -0.99849432804E+00  0.99849432804E+00  0.00000000000E+00 0.  1.
         23    2    1    2    0    0  0.00000000000E+00  0.00000000000E+00  0.21524005117E+04  0.21543975004E+04  0.92739564233E+02 0.  0.
          2    1    3    3  502    0 -0.11866869194E+01 -0.33959928737E+02  0.18091517700E+04  0.18094708652E+04  0.00000000000E+00 0. -1.
         -2    1    3    3    0  502  0.11866869194E+01  0.33959928737E+02  0.34324874166E+03  0.34492663515E+03  0.00000000000E+00 0.  1.
<mgrwt>
<rscale>  0 0.92739564E+02</rscale>
<asrwt>0</asrwt>
<pdfrwt beam="1">  1        2 0.33128844E+00 0.92739564E+02</pdfrwt>
<pdfrwt beam="2">  1       -2 0.15361624E-03 0.92739564E+02</pdfrwt>
<totfact> 0.17435763E+05</totfact>
</mgrwt>
</event>
<event>
 5    1  0.3921687E+001  0.8980739E+02  0.7546771E-02  0.1303319E+00
          1   -1    0    0  501    0  0.00000000000E+00  0.00000000000E+00  0.38198296315E+02  0.38198296315E+02  0.00000000000E+00 0. -1.
         -1   -1    0    0    0  501 -0.00000000000E+00 -0.00000000000E+00 -0.52786172086E+02  0.52786172086E+02  0.00000000000E+00 0.  1.
         23    2    1    2    0    0  0.00000000000E+00  0.00000000000E+00 -0.14587875771E+02  0.90984468401E+02  0.89807390402E+02 0.  0.
          2    1    3    3  502    0 -0.41103579732E+01  0.24807020825E+02  0.30396606583E+02  0.39449170037E+02  0.00000000000E+00 0. -1.
         -2    1    3    3    0  502  0.41103579732E+01 -0.24807020825E+02 -0.44984482354E+02  0.51535298364E+02  0.00000000000E+00 0.  1.
<mgrwt>
<rscale>  0 0.89807390E+02</rscale>
<asrwt>0</asrwt>
<pdfrwt beam="1">  1        1 0.58766610E-02 0.89807390E+02</pdfrwt>
<pdfrwt beam="2">  1       -1 0.81209495E-02 0.89807390E+02</pdfrwt>
<totfact> 0.93962003E+04</totfact>
</mgrwt>
</event>
<event>
 5    1  0.3921687E+001  0.9197950E+02  0.7546771E-02  0.1298128E+00
         -1   -1    0    0    0  501 -0.00000000000E+00  0.00000000000E+00  0.10461043061E+02  0.10461043061E+02  0.00000000000E+00 0.  1.
          1   -1    0    0  501    0  0.00000000000E+00 -0.00000000000E+00 -0.20218414963E+03  0.20218414963E+03  0.00000000000E+00 0. -1.
         23    2    1    2    0    0  0.00000000000E+00  0.00000000000E+00 -0.19172310657E+03  0.21264519269E+03  0.91979499793E+02 0.  0.
          2    1    3    3  502    0  0.12054620940E+02 -0.40828005706E+02 -0.13609199178E+03  0.14259477607E+03  0.00000000000E+00 0. -1.
         -2    1    3    3    0  502 -0.12054620940E+02  0.40828005706E+02 -0.55631114785E+02  0.70050416616E+02  0.00000000000E+00 0.  1.
<mgrwt>
<rscale>  0 0.91979500E+02</rscale>
<asrwt>0</asrwt>
<pdfrwt beam="2">  1        1 0.31105257E-01 0.91979500E+02</pdfrwt>
<pdfrwt beam="1">  1       -1 0.16093911E-02 0.91979500E+02</pdfrwt>
<totfact> 0.11589635E+05</totfact>
</mgrwt>
</event>
<event>
 5    1  0.3921687E+001  0.9170522E+02  0.7546771E-02  0.1298774E+00
          1   -1    0    0  501    0  0.00000000000E+00  0.00000000000E+00  0.18804467317E+03  0.18804467317E+03  0.00000000000E+00 0. -1.
         -1   -1    0    0    0  501 -0.00000000000E+00 -0.00000000000E+00 -0.11180651644E+02  0.11180651644E+02  0.00000000000E+00 0.  1.
         23    2    1    2    0    0  0.00000000000E+00  0.00000000000E+00  0.17686402153E+03  0.19922532481E+03  0.91705223060E+02 0.  0.
          2    1    3    3  502    0 -0.15916959336E+02  0.30280627514E+02  0.22102913515E+02  0.40728427210E+02  0.00000000000E+00 0.  1.
         -2    1    3    3    0  502  0.15916959336E+02 -0.30280627514E+02  0.15476110801E+03  0.15849689760E+03  0.00000000000E+00 0. -1.
<mgrwt>
<rscale>  0 0.91705223E+02</rscale>
<asrwt>0</asrwt>
<pdfrwt beam="1">  1        1 0.28929947E-01 0.91705223E+02</pdfrwt>
<pdfrwt beam="2">  1       -1 0.17201004E-02 0.91705223E+02</pdfrwt>
<totfact> 0.11520058E+05</totfact>
</mgrwt>
</event>
<event>
 5    1  0.3921687E+001  0.9310852E+02  0.7546771E-02  0.1295494E+00
         -2   -1    0    0    0  501 -0.00000000000E+00  0.00000000000E+00  0.39090723079E+02  0.39090723079E+02  0.00000000000E+00 0.  1.
          2   -1    0    0  501    0  0.00000000000E+00 -0.00000000000E+00 -0.55442795244E+02  0.55442795244E+02  0.00000000000E+00 0. -1.
         23    2    1    2    0    0  0.00000000000E+00  0.00000000000E+00 -0.16352072165E+02  0.94533518323E+02  0.93108516380E+02 0.  0.
          2    1    3    3  502    0  0.19940444899E+02  0.28328572380E+02 -0.39751354130E+02  0.52728545505E+02  0.00000000000E+00 0. -1.
         -2    1    3    3    0  502 -0.19940444899E+02 -0.28328572380E+02  0.23399281965E+02  0.41804972818E+02  0.00000000000E+00 0.  1.
<mgrwt>
<rscale>  0 0.93108516E+02</rscale>
<asrwt>0</asrwt>
<pdfrwt beam="2">  1        2 0.85296608E-02 0.93108516E+02</pdfrwt>
<pdfrwt beam="1">  1       -2 0.60139574E-02 0.93108516E+02</pdfrwt>
<totfact> 0.97853702E+04</totfact>
</mgrwt>
</event>
<event>
 5    1  0.3921687E+001  0.7751327E+02  0.7546771E-02  0.1336260E+00
          2   -1    0    0  501    0  0.00000000000E+00  0.00000000000E+00  0.21337207280E+04  0.21337207280E+04  0.00000000000E+00 0.  1.
         -2   -1    0    0    0  501 -0.00000000000E+00 -0.00000000000E+00 -0.70397069735E+00  0.70397069735E+00  0.00000000000E+00 0. -1.
         23    2    1    2    0    0  0.00000000000E+00  0.00000000000E+00  0.21330167573E+04  0.21344246987E+04  0.77513272899E+02 0.  0.
          2    1    3    3  502    0 -0.34936104031E+02 -0.69334460413E+01  0.14872572278E+04  0.14876836578E+04  0.00000000000E+00 0. -1.
         -2    1    3    3    0  502  0.34936104031E+02  0.69334460413E+01  0.64575952955E+03  0.64674104095E+03  0.00000000000E+00 0.  1.
<mgrwt>
<rscale>  0 0.77513273E+02</rscale>
<asrwt>0</asrwt>
<pdfrwt beam="1">  1        2 0.32825955E+00 0.77513273E+02</pdfrwt>
<pdfrwt beam="2">  1       -2 0.10830489E-03 0.77513273E+02</pdfrwt>
<totfact> 0.28222682E+05</totfact>
</mgrwt>
</event>
<event>
 5    1  0.3921687E+001  0.9016849E+02  0.7546771E-02  0.1302444E+00
         -1   -1    0    0    0  501 -0.00000000000E+00  0.00000000000E+00  0.23222930111E+02  0.23222930111E+02  0.00000000000E+00 0.  1.
          1   -1    0    0  501    0  0.00000000000E+00 -0.00000000000E+00 -0.87525098145E+02  0.87525098145E+02  0.00000000000E+00 0. -1.
         23    2    1    2    0    0  0.00000000000E+00  0.00000000000E+00 -0.64302168034E+02  0.11074802826E+03  0.90168491996E+02 0.  0.
          2    1    3    3  502    0 -0.42343209940E+02 -0.15480355646E+02 -0.32126572054E+02  0.55359782071E+02  0.00000000000E+00 0. -1.
         -2    1    3    3    0  502  0.42343209940E+02  0.15480355646E+02 -0.32175595979E+02  0.55388246186E+02  0.00000000000E+00 0.  1.
<mgrwt>
<rscale>  0 0.90168492E+02</rscale>
<asrwt>0</asrwt>
<pdfrwt beam="2">  1        1 0.13465400E-01 0.90168492E+02</pdfrwt>
<pdfrwt beam="1">  1       -1 0.35727585E-02 0.90168492E+02</pdfrwt>
<totfact> 0.10535247E+05</totfact>
</mgrwt>
</event>
<event>
 5    1  0.3921687E+001  0.9133696E+02  0.7546771E-02  0.1299646E+00
          2   -1    0    0  501    0  0.00000000000E+00  0.00000000000E+00  0.52115627791E+03  0.52115627791E+03  0.00000000000E+00 0. -1.
         -2   -1    0    0    0  501 -0.00000000000E+00 -0.00000000000E+00 -0.40018899502E+01  0.40018899502E+01  0.00000000000E+00 0.  1.
         23    2    1    2    0    0  0.00000000000E+00  0.00000000000E+00  0.51715438796E+03  0.52515816786E+03  0.91336960122E+02 0.  0.
          2    1    3    3  502    0  0.27140227338E+02 -0.14570327954E+02  0.45242952326E+03  0.45347696735E+03  0.00000000000E+00 0. -1.
         -2    1    3    3    0  502 -0.27140227338E+02  0.14570327954E+02  0.64724864699E+02  0.71681200513E+02  0.00000000000E+00 0.  1.
<mgrwt>
<rscale>  0 0.91336960E+02</rscale>
<asrwt>0</asrwt>
<pdfrwt beam="1">  1        2 0.80177835E-01 0.91336960E+02</pdfrwt>
<pdfrwt beam="2">  1       -2 0.61567579E-03 0.91336960E+02</pdfrwt>
<totfact> 0.21737012E+05</totfact>
</mgrwt>
</event>
<event>
 5    1  0.3921687E+001  0.9111511E+02  0.7546771E-02  0.1300174E+00
          1   -1    0    0  501    0  0.00000000000E+00  0.00000000000E+00  0.29031312747E+01  0.29031312747E+01  0.00000000000E+00 0. -1.
         -1   -1    0    0    0  501 -0.00000000000E+00 -0.00000000000E+00 -0.71491461563E+03  0.71491461563E+03  0.00000000000E+00 0.  1.
         23    2    1    2    0    0  0.00000000000E+00  0.00000000000E+00 -0.71201148435E+03  0.71781774690E+03  0.91115113552E+02 0.  0.
          2    1    3    3  502    0  0.37554985669E+02  0.23554137493E+02 -0.27326026227E+03  0.27683270269E+03  0.00000000000E+00 0.  1.
         -2    1    3    3    0  502 -0.37554985669E+02 -0.23554137493E+02 -0.43875122208E+03  0.44098504422E+03  0.00000000000E+00 0. -1.
<mgrwt>
<rscale>  0 0.91115114E+02</rscale>
<asrwt>0</asrwt>
<pdfrwt beam="1">  1        1 0.44663471E-03 0.91115114E+02</pdfrwt>
<pdfrwt beam="2">  1       -1 0.10998708E+00 0.91115114E+02</pdfrwt>
<totfact> 0.36250175E+04</totfact>
</mgrwt>
</event>
<event>
 5    1  0.3921687E+001  0.9217883E+02  0.7546771E-02  0.1297660E+00
         -1   -1    0    0    0  501 -0.00000000000E+00  0.00000000000E+00  0.72578416006E+00  0.72578416006E+00  0.00000000000E+00 0.  1.
          1   -1    0    0  501    0  0.00000000000E+00 -0.00000000000E+00 -0.29268125603E+04  0.29268125603E+04  0.00000000000E+00 0. -1.
         23    2    1    2    0    0  0.00000000000E+00  0.00000000000E+00 -0.29260867761E+04  0.29275383444E+04  0.92178830448E+02 0.  0.
          2    1    3    3  502    0 -0.35152795376E+02 -0.17150125917E+02 -0.22373385477E+04  0.22376804112E+04  0.00000000000E+00 0. -1.
         -2    1    3    3    0  502  0.35152795376E+02  0.17150125917E+02 -0.68874822847E+03  0.68985793325E+03  0.00000000000E+00 0.  1.
<mgrwt>
<rscale>  0 0.92178830E+02</rscale>
<asrwt>0</asrwt>
<pdfrwt beam="2">  1        1 0.45028808E+00 0.92178830E+02</pdfrwt>
<pdfrwt beam="1">  1       -1 0.11165681E-03 0.92178830E+02</pdfrwt>
<totfact> 0.33074943E+04</totfact>
</mgrwt>
</event>
<event>
 5    1  0.3921687E+001  0.9044711E+02  0.7546771E-02  0.1301773E+00
          1   -1    0    0  501    0  0.00000000000E+00  0.00000000000E+00  0.56241889153E+03  0.56241889153E+03  0.00000000000E+00 0. -1.
         -1   -1    0    0    0  501 -0.00000000000E+00 -0.00000000000E+00 -0.36363816617E+01  0.36363816617E+01  0.00000000000E+00 0.  1.
         23    2    1    2    0    0  0.00000000000E+00  0.00000000000E+00  0.55878250987E+03  0.56605527319E+03  0.90447105943E+02 0.  0.
          2    1    3    3  502    0  0.16942174184E+02  0.23840783774E+02  0.49526107620E+03  0.49612392991E+03  0.00000000000E+00 0. -1.
         -2    1    3    3    0  502 -0.16942174184E+02 -0.23840783774E+02  0.63521433672E+02  0.69931343279E+02  0.00000000000E+00 0.  1.
<mgrwt>
<rscale>  0 0.90447106E+02</rscale>
<asrwt>0</asrwt>
<pdfrwt beam="1">  1        1 0.86525914E-01 0.90447106E+02</pdfrwt>
<pdfrwt beam="2">  1       -1 0.55944378E-03 0.90447106E+02</pdfrwt>
<totfact> 0.14396190E+05</totfact>
</mgrwt>
</event>
<event>
 5    1  0.3921687E+001  0.1010156E+03  0.7546771E-02  0.1278175E+00
          2   -1    0    0  501    0  0.00000000000E+00  0.00000000000E+00  0.94289652871E+02  0.94289652871E+02  0.00000000000E+00 0. -1.
         -2   -1    0    0    0  501 -0.00000000000E+00 -0.00000000000E+00 -0.27055335827E+02  0.27055335827E+02  0.00000000000E+00 0.  1.
         23    2    1    2    0    0  0.00000000000E+00  0.00000000000E+00  0.67234317044E+02  0.12134498870E+03  0.10101560718E+03 0.  0.
          2    1    3    3  502    0  0.45768071592E+02  0.73186006622E+01  0.57724898331E+02  0.74030008647E+02  0.00000000000E+00 0.  1.
         -2    1    3    3    0  502 -0.45768071592E+02 -0.73186006622E+01  0.95094187130E+01  0.47314980051E+02  0.00000000000E+00 0. -1.
<mgrwt>
<rscale>  0 0.10101561E+03</rscale>
<asrwt>0</asrwt>
<pdfrwt beam="1">  1        2 0.14506100E-01 0.10101561E+03</pdfrwt>
<pdfrwt beam="2">  1       -2 0.41623594E-02 0.10101561E+03</pdfrwt>
<totfact> 0.90613498E+04</totfact>
</mgrwt>
</event>
<event>
 5    1  0.3921687E+001  0.9182832E+02  0.7546771E-02  0.1298484E+00
         -2   -1    0    0    0  501 -0.00000000000E+00  0.00000000000E+00  0.63395955332E+01  0.63395955332E+01  0.00000000000E+00 0.  1.
          2   -1    0    0  501    0  0.00000000000E+00 -0.00000000000E+00 -0.33253068316E+03  0.33253068316E+03  0.00000000000E+00 0. -1.
         23    2    1    2    0    0  0.00000000000E+00  0.00000000000E+00 -0.32619108763E+03  0.33887027870E+03  0.91828318805E+02 0.  0.
          2    1    3    3  502    0  0.18977509342E+02  0.20488412805E+02 -0.28606531351E+02  0.39978175997E+02  0.00000000000E+00 0.  1.
         -2    1    3    3    0  502 -0.18977509342E+02 -0.20488412805E+02 -0.29758455628E+03  0.29889210270E+03  0.00000000000E+00 0. -1.
<mgrwt>
<rscale>  0 0.91828319E+02</rscale>
<asrwt>0</asrwt>
<pdfrwt beam="2">  1        2 0.51158556E-01 0.91828319E+02</pdfrwt>
<pdfrwt beam="1">  1       -2 0.97532258E-03 0.91828319E+02</pdfrwt>
<totfact> 0.18314274E+05</totfact>
</mgrwt>
</event>
<event>
 5    1  0.3921687E+001  0.9119016E+02  0.7546771E-02  0.1299995E+00
         -1   -1    0    0    0  501 -0.00000000000E+00  0.00000000000E+00  0.15808565781E+02  0.15808565781E+02  0.00000000000E+00 0.  1.
          1   -1    0    0  501    0  0.00000000000E+00 -0.00000000000E+00 -0.13150536131E+03  0.13150536131E+03  0.00000000000E+00 0. -1.
         23    2    1    2    0    0  0.00000000000E+00  0.00000000000E+00 -0.11569679553E+03  0.14731392709E+03  0.91190156372E+02 0.  0.
          2    1    3    3  502    0  0.29403024522E+02 -0.25481756161E+02 -0.96249226356E+02  0.10381604559E+03  0.00000000000E+00 0. -1.
         -2    1    3    3    0  502 -0.29403024522E+02  0.25481756161E+02 -0.19447569169E+02  0.43497881496E+02  0.00000000000E+00 0.  1.
<mgrwt>
<rscale>  0 0.91190156E+02</rscale>
<asrwt>0</asrwt>
<pdfrwt beam="2">  1        1 0.20231594E-01 0.91190156E+02</pdfrwt>
<pdfrwt beam="1">  1       -1 0.24320870E-02 0.91190156E+02</pdfrwt>
<totfact> 0.10944814E+05</totfact>
</mgrwt>
</event>
<event>
 5    1  0.3921687E+001  0.9221742E+02  0.7546771E-02  0.1297569E+00
          3   -1    0    0  501    0  0.00000000000E+00  0.00000000000E+00  0.88863022990E+02  0.88863022990E+02  0.00000000000E+00 0. -1.
         -3   -1    0    0    0  501 -0.00000000000E+00 -0.00000000000E+00 -0.23924609968E+02  0.23924609968E+02  0.00000000000E+00 0.  1.
         23    2    1    2    0    0  0.00000000000E+00  0.00000000000E+00  0.64938413022E+02  0.11278763296E+03  0.92217420601E+02 0.  0.
          2    1    3    3  502    0 -0.38150849720E+02 -0.58758052358E+01  0.63313677331E+02  0.74152775799E+02  0.00000000000E+00 0. -1.
         -2    1    3    3    0  502  0.38150849720E+02  0.58758052358E+01  0.16247356907E+01  0.38634857158E+02  0.00000000000E+00 0.  1.
<mgrwt>
<rscale>  0 0.92217421E+02</rscale>
<asrwt>0</asrwt>
<pdfrwt beam="1">  1        3 0.13671234E-01 0.92217421E+02</pdfrwt>
<pdfrwt beam="2">  1       -3 0.36807093E-02 0.92217421E+02</pdfrwt>
<totfact> 0.32719881E+04</totfact>
</mgrwt>
</event>
<event>
 5    1  0.3921687E+001  0.9054190E+02  0.7546771E-02  0.1301545E+00
         -2   -1    0    0    0  501 -0.00000000000E+00  0.00000000000E+00  0.28602232043E+02  0.28602232043E+02  0.00000000000E+00 0.  1.
          2   -1    0    0  501    0  0.00000000000E+00 -0.00000000000E+00 -0.71653806459E+02  0.71653806459E+02  0.00000000000E+00 0. -1.
         23    2    1    2    0    0  0.00000000000E+00  0.00000000000E+00 -0.43051574417E+02  0.10025603850E+03  0.90541897464E+02 0.  0.
          2    1    3    3  502    0 -0.37762272145E+02 -0.24867838751E+02 -0.24016620588E+02  0.51197623638E+02  0.00000000000E+00 0. -1.
         -2    1    3    3    0  502  0.37762272145E+02  0.24867838751E+02 -0.19034953828E+02  0.49058414864E+02  0.00000000000E+00 0.  1.
<mgrwt>
<rscale>  0 0.90541897E+02</rscale>
<asrwt>0</asrwt>
<pdfrwt beam="2">  1        2 0.11023662E-01 0.90541897E+02</pdfrwt>
<pdfrwt beam="1">  1       -2 0.44003434E-02 0.90541897E+02</pdfrwt>
<totfact> 0.11353248E+05</totfact>
</mgrwt>
</event>
<event>
 5    1  0.3921687E+001  0.9259052E+02  0.7546771E-02  0.1296697E+00
          2   -1    0    0  501    0  0.00000000000E+00  0.00000000000E+00  0.18650047649E+01  0.18650047649E+01  0.00000000000E+00 0. -1.
         -2   -1    0    0    0  501 -0.00000000000E+00 -0.00000000000E+00 -0.11491933100E+04  0.11491933100E+04  0.00000000000E+00 0.  1.
         23    2    1    2    0    0  0.00000000000E+00  0.00000000000E+00 -0.11473283052E+04  0.11510583148E+04  0.92590517849E+02 0.  0.
          2    1    3    3  502    0 -0.95801892766E+01  0.22359640782E+02 -0.83987786475E+02  0.87439589657E+02  0.00000000000E+00 0. -1.
         -2    1    3    3    0  502  0.95801892766E+01 -0.22359640782E+02 -0.10633405188E+04  0.10636187251E+04  0.00000000000E+00 0.  1.
<mgrwt>
<rscale>  0 0.92590518E+02</rscale>
<asrwt>0</asrwt>
<pdfrwt beam="1">  1        2 0.28692303E-03 0.92590518E+02</pdfrwt>
<pdfrwt beam="2">  1       -2 0.17679945E+00 0.92590518E+02</pdfrwt>
<totfact> 0.15117141E+04</totfact>
</mgrwt>
</event>
<event>
 5    1  0.3921687E+001  0.9339037E+02  0.7546771E-02  0.1294843E+00
          1   -1    0    0  501    0  0.00000000000E+00  0.00000000000E+00  0.73031895533E+02  0.73031895533E+02  0.00000000000E+00 0. -1.
         -1   -1    0    0    0  501 -0.00000000000E+00 -0.00000000000E+00 -0.29855997449E+02  0.29855997449E+02  0.00000000000E+00 0.  1.
         23    2    1    2    0    0  0.00000000000E+00  0.00000000000E+00  0.43175898084E+02  0.10288789298E+03  0.93390365386E+02 0.  0.
          2    1    3    3  502    0  0.31360724560E+01 -0.33600172191E+02 -0.13968606402E+02  0.36522985729E+02  0.00000000000E+00 0.  1.
         -2    1    3    3    0  502 -0.31360724560E+01  0.33600172191E+02  0.57144504487E+02  0.66364907254E+02  0.00000000000E+00 0. -1.
<mgrwt>
<rscale>  0 0.93390365E+02</rscale>
<asrwt>0</asrwt>
<pdfrwt beam="1">  1        1 0.11235676E-01 0.93390365E+02</pdfrwt>
<pdfrwt beam="2">  1       -1 0.45932304E-02 0.93390365E+02</pdfrwt>
<totfact> 0.92952480E+04</totfact>
</mgrwt>
</event>
<event>
 5    1  0.3921687E+001  0.8999784E+02  0.7546771E-02  0.1302857E+00
          1   -1    0    0  501    0  0.00000000000E+00  0.00000000000E+00  0.45424580526E+03  0.45424580526E+03  0.00000000000E+00 0. -1.
         -1   -1    0    0    0  501 -0.00000000000E+00 -0.00000000000E+00 -0.44577247157E+01  0.44577247157E+01  0.00000000000E+00 0.  1.
         23    2    1    2    0    0  0.00000000000E+00  0.00000000000E+00  0.44978808055E+03  0.45870352998E+03  0.89997838933E+02 0.  0.
          2    1    3    3  502    0 -0.34799248723E+02  0.21208704501E+02  0.12763861074E+03  0.13398661056E+03  0.00000000000E+00 0.  1.
         -2    1    3    3    0  502  0.34799248723E+02 -0.21208704501E+02  0.32214946981E+03  0.32471691942E+03  0.00000000000E+00 0. -1.
<mgrwt>
<rscale>  0 0.89997839E+02</rscale>
<asrwt>0</asrwt>
<pdfrwt beam="1">  1        1 0.69883933E-01 0.89997839E+02</pdfrwt>
<pdfrwt beam="2">  1       -1 0.68580416E-03 0.89997839E+02</pdfrwt>
<totfact> 0.14236620E+05</totfact>
</mgrwt>
</event>
<event>
 5    1  0.3921687E+001  0.8952730E+02  0.7546771E-02  0.1304000E+00
          2   -1    0    0  501    0  0.00000000000E+00  0.00000000000E+00  0.24436171984E+03  0.24436171984E+03  0.00000000000E+00 0. -1.
         -2   -1    0    0    0  501 -0.00000000000E+00 -0.00000000000E+00 -0.82000748749E+01  0.82000748749E+01  0.00000000000E+00 0.  1.
         23    2    1    2    0    0  0.00000000000E+00  0.00000000000E+00  0.23616164497E+03  0.25256179472E+03  0.89527300848E+02 0.  0.
          2    1    3    3  502    0  0.14607684447E+02 -0.30636761350E+02  0.20041461651E+03  0.20326833030E+03  0.00000000000E+00 0. -1.
         -2    1    3    3    0  502 -0.14607684447E+02  0.30636761350E+02  0.35747028454E+02  0.49293464417E+02  0.00000000000E+00 0.  1.
<mgrwt>
<rscale>  0 0.89527301E+02</rscale>
<asrwt>0</asrwt>
<pdfrwt beam="1">  1        2 0.37594105E-01 0.89527301E+02</pdfrwt>
<pdfrwt beam="2">  1       -2 0.12615502E-02 0.89527301E+02</pdfrwt>
<totfact> 0.17478123E+05</totfact>
</mgrwt>
</event>
<event>
 5    1  0.3921687E+001  0.9139543E+02  0.7546771E-02  0.1299507E+00
         -2   -1    0    0    0  501 -0.00000000000E+00  0.00000000000E+00  0.12428810764E+01  0.12428810764E+01  0.00000000000E+00 0.  1.
          2   -1    0    0  501    0  0.00000000000E+00 -0.00000000000E+00 -0.16801938398E+04  0.16801938398E+04  0.00000000000E+00 0. -1.
         23    2    1    2    0    0  0.00000000000E+00  0.00000000000E+00 -0.16789509587E+04  0.16814367209E+04  0.91395429388E+02 0.  0.
          2    1    3    3  502    0 -0.64391123199E+01  0.22836398333E+02 -0.12095983323E+03  0.12326493626E+03  0.00000000000E+00 0.  1.
         -2    1    3    3    0  502  0.64391123199E+01 -0.22836398333E+02 -0.15579911255E+04  0.15581717846E+04  0.00000000000E+00 0. -1.
<mgrwt>
<rscale>  0 0.91395429E+02</rscale>
<asrwt>0</asrwt>
<pdfrwt beam="2">  1        2 0.25849072E+00 0.91395429E+02</pdfrwt>
<pdfrwt beam="1">  1       -2 0.19121295E-03 0.91395429E+02</pdfrwt>
<totfact> 0.22237796E+05</totfact>
</mgrwt>
</event>
<event>
 5    1  0.3921687E+001  0.8631119E+02  0.7546771E-02  0.1312039E+00
          2   -1    0    0  501    0  0.00000000000E+00  0.00000000000E+00  0.87762827271E+03  0.87762827271E+03  0.00000000000E+00 0. -1.
         -2   -1    0    0    0  501 -0.00000000000E+00 -0.00000000000E+00 -0.21220892584E+01  0.21220892584E+01  0.00000000000E+00 0.  1.
         23    2    1    2    0    0  0.00000000000E+00  0.00000000000E+00  0.87550618345E+03  0.87975036197E+03  0.86311193488E+02 0.  0.
          2    1    3    3  502    0 -0.32502553490E+02 -0.28273726981E+02  0.41159535201E+03  0.41384363402E+03  0.00000000000E+00 0. -1.
         -2    1    3    3    0  502  0.32502553490E+02  0.28273726981E+02  0.46391083144E+03  0.46590672795E+03  0.00000000000E+00 0.  1.
<mgrwt>
<rscale>  0 0.86311193E+02</rscale>
<asrwt>0</asrwt>
<pdfrwt beam="1">  1        2 0.13501944E+00 0.86311193E+02</pdfrwt>
<pdfrwt beam="2">  1       -2 0.32647597E-03 0.86311193E+02</pdfrwt>
<totfact> 0.28549652E+05</totfact>
</mgrwt>
</event>
<event>
 5    1  0.3921687E+001  0.9585896E+02  0.7546771E-02  0.1289253E+00
          2   -1    0    0  501    0  0.00000000000E+00  0.00000000000E+00  0.13911978066E+04  0.13911978066E+04  0.00000000000E+00 0. -1.
         -2   -1    0    0    0  501 -0.00000000000E+00 -0.00000000000E+00 -0.16512642876E+01  0.16512642876E+01  0.00000000000E+00 0.  1.
         23    2    1    2    0    0  0.00000000000E+00  0.00000000000E+00  0.13895465423E+04  0.13928490708E+04  0.95858964213E+02 0.  0.
          2    1    3    3  502    0  0.44088106252E+02  0.18731694926E+02  0.67135419384E+03  0.67306098617E+03  0.00000000000E+00 0. -1.
         -2    1    3    3    0  502 -0.44088106252E+02 -0.18731694926E+02  0.71819234842E+03  0.71978808468E+03  0.00000000000E+00 0.  1.
<mgrwt>
<rscale>  0 0.95858964E+02</rscale>
<asrwt>0</asrwt>
<pdfrwt beam="1">  1        2 0.21402949E+00 0.95858964E+02</pdfrwt>
<pdfrwt beam="2">  1       -2 0.25404177E-03 0.95858964E+02</pdfrwt>
<totfact> 0.21187922E+05</totfact>
</mgrwt>
</event>
<event>
 5    1  0.3921687E+001  0.9271703E+02  0.7546771E-02  0.1296402E+00
          3   -1    0    0  501    0  0.00000000000E+00  0.00000000000E+00  0.35187757355E+02  0.35187757355E+02  0.00000000000E+00 0. -1.
         -3   -1    0    0    0  501 -0.00000000000E+00 -0.00000000000E+00 -0.61075551427E+02  0.61075551427E+02  0.00000000000E+00 0.  1.
         23    2    1    2    0    0  0.00000000000E+00  0.00000000000E+00 -0.25887794072E+02  0.96263308782E+02  0.92717025059E+02 0.  0.
          2    1    3    3  502    0 -0.24587050487E+02  0.19283534204E+02  0.22611132539E+02  0.38569950191E+02  0.00000000000E+00 0. -1.
         -2    1    3    3    0  502  0.24587050487E+02 -0.19283534204E+02 -0.48498926611E+02  0.57693358591E+02  0.00000000000E+00 0.  1.
<mgrwt>
<rscale>  0 0.92717025E+02</rscale>
<asrwt>0</asrwt>
<pdfrwt beam="1">  1        3 0.54135012E-02 0.92717025E+02</pdfrwt>
<pdfrwt beam="2">  1       -3 0.93962386E-02 0.92717025E+02</pdfrwt>
<totfact> 0.33389443E+04</totfact>
</mgrwt>
</event>
<event>
 5    1  0.3921687E+001  0.9244437E+02  0.7546771E-02  0.1297038E+00
          1   -1    0    0  501    0  0.00000000000E+00  0.00000000000E+00  0.13356208290E+03  0.13356208290E+03  0.00000000000E+00 0. -1.
         -1   -1    0    0    0  501 -0.00000000000E+00 -0.00000000000E+00 -0.15996233330E+02  0.15996233330E+02  0.00000000000E+00 0.  1.
         23    2    1    2    0    0  0.00000000000E+00  0.00000000000E+00  0.11756584957E+03  0.14955831623E+03  0.92444366884E+02 0.  0.
          2    1    3    3  502    0  0.20583530223E+02  0.35180223697E+02  0.94048439585E+02  0.10250092119E+03  0.00000000000E+00 0. -1.
         -2    1    3    3    0  502 -0.20583530223E+02 -0.35180223697E+02  0.23517409984E+02  0.47057395043E+02  0.00000000000E+00 0.  1.
<mgrwt>
<rscale>  0 0.92444367E+02</rscale>
<asrwt>0</asrwt>
<pdfrwt beam="1">  1        1 0.20548012E-01 0.92444367E+02</pdfrwt>
<pdfrwt beam="2">  1       -1 0.24609591E-02 0.92444367E+02</pdfrwt>
<totfact> 0.10576406E+05</totfact>
</mgrwt>
</event>
<event>
 5    1  0.3921687E+001  0.8298850E+02  0.7546771E-02  0.1320778E+00
         -1   -1    0    0    0  501 -0.00000000000E+00  0.00000000000E+00  0.55605637139E+01  0.55605637139E+01  0.00000000000E+00 0.  1.
          1   -1    0    0  501    0  0.00000000000E+00 -0.00000000000E+00 -0.30963996643E+03  0.30963996643E+03  0.00000000000E+00 0. -1.
         23    2    1    2    0    0  0.00000000000E+00  0.00000000000E+00 -0.30407940272E+03  0.31520053014E+03  0.82988499485E+02 0.  0.
          2    1    3    3  502    0 -0.15493975395E+02  0.22887763901E+02 -0.26958898575E+03  0.27100209270E+03  0.00000000000E+00 0. -1.
         -2    1    3    3    0  502  0.15493975395E+02 -0.22887763901E+02 -0.34490416961E+02  0.44198437439E+02  0.00000000000E+00 0.  1.
<mgrwt>
<rscale>  0 0.82988499E+02</rscale>
<asrwt>0</asrwt>
<pdfrwt beam="2">  1        1 0.47636929E-01 0.82988499E+02</pdfrwt>
<pdfrwt beam="1">  1       -1 0.85547114E-03 0.82988499E+02</pdfrwt>
<totfact> 0.16538630E+05</totfact>
</mgrwt>
</event>
<event>
 5    1  0.3921687E+001  0.9168642E+02  0.7546771E-02  0.1298818E+00
          2   -1    0    0  501    0  0.00000000000E+00  0.00000000000E+00  0.38117108860E+03  0.38117108860E+03  0.00000000000E+00 0.  1.
         -2   -1    0    0    0  501 -0.00000000000E+00 -0.00000000000E+00 -0.55135345423E+01  0.55135345423E+01  0.00000000000E+00 0. -1.
         23    2    1    2    0    0  0.00000000000E+00  0.00000000000E+00  0.37565755405E+03  0.38668462314E+03  0.91686421318E+02 0.  0.
          2    1    3    3  502    0 -0.21302284759E+02 -0.40529531243E+02  0.17823950602E+03  0.18402649740E+03  0.00000000000E+00 0. -1.
         -2    1    3    3    0  502  0.21302284759E+02  0.40529531243E+02  0.19741804803E+03  0.20265812574E+03  0.00000000000E+00 0.  1.
<mgrwt>
<rscale>  0 0.91686421E+02</rscale>
<asrwt>0</asrwt>
<pdfrwt beam="1">  1        2 0.58641685E-01 0.91686421E+02</pdfrwt>
<pdfrwt beam="2">  1       -2 0.84823638E-03 0.91686421E+02</pdfrwt>
<totfact> 0.19330511E+05</totfact>
</mgrwt>
</event>
<event>
 5    1  0.3921687E+001  0.9102164E+02  0.7546771E-02  0.1300396E+00
         -1   -1    0    0    0  501 -0.00000000000E+00  0.00000000000E+00  0.12715128078E+02  0.12715128078E+02  0.00000000000E+00 0.  1.
          1   -1    0    0  501    0  0.00000000000E+00 -0.00000000000E+00 -0.16289529815E+03  0.16289529815E+03  0.00000000000E+00 0. -1.
         23    2    1    2    0    0  0.00000000000E+00  0.00000000000E+00 -0.15018017007E+03  0.17561042623E+03  0.91021636532E+02 0.  0.
          2    1    3    3  502    0  0.14086007257E+02 -0.41946702230E+02 -0.54554480847E+02  0.70243382670E+02  0.00000000000E+00 0.  1.
         -2    1    3    3    0  502 -0.14086007257E+02  0.41946702230E+02 -0.95625689223E+02  0.10536704356E+03  0.00000000000E+00 0. -1.
<mgrwt>
<rscale>  0 0.91021637E+02</rscale>
<asrwt>0</asrwt>
<pdfrwt beam="2">  1        1 0.25060814E-01 0.91021637E+02</pdfrwt>
<pdfrwt beam="1">  1       -1 0.19561736E-02 0.91021637E+02</pdfrwt>
<totfact> 0.11438409E+05</totfact>
</mgrwt>
</event>
<event>
 5    1  0.3921687E+001  0.8752929E+02  0.7546771E-02  0.1308948E+00
         -3   -1    0    0    0  501 -0.00000000000E+00  0.00000000000E+00  0.21077163832E+03  0.21077163832E+03  0.00000000000E+00 0.  1.
          3   -1    0    0  501    0  0.00000000000E+00 -0.00000000000E+00 -0.90872946636E+01  0.90872946636E+01  0.00000000000E+00 0. -1.
         23    2    1    2    0    0  0.00000000000E+00  0.00000000000E+00  0.20168434365E+03  0.21985893298E+03  0.87529286164E+02 0.  0.
          2    1    3    3  502    0  0.71783571337E+01  0.23139769673E+02  0.92940070017E+01  0.25949110154E+02  0.00000000000E+00 0. -1.
         -2    1    3    3    0  502 -0.71783571337E+01 -0.23139769673E+02  0.19239033665E+03  0.19390982283E+03  0.00000000000E+00 0.  1.
<mgrwt>
<rscale>  0 0.87529286E+02</rscale>
<asrwt>0</asrwt>
<pdfrwt beam="2">  1        3 0.13980455E-02 0.87529286E+02</pdfrwt>
<pdfrwt beam="1">  1       -3 0.32426402E-01 0.87529286E+02</pdfrwt>
<totfact> 0.30686959E+04</totfact>
</mgrwt>
</event>
<event>
 5    1  0.3921687E+001  0.9150064E+02  0.7546771E-02  0.1299258E+00
         -1   -1    0    0    0  501 -0.00000000000E+00  0.00000000000E+00  0.70137222608E+02  0.70137222608E+02  0.00000000000E+00 0.  1.
          1   -1    0    0  501    0  0.00000000000E+00 -0.00000000000E+00 -0.29842809651E+02  0.29842809651E+02  0.00000000000E+00 0. -1.
         23    2    1    2    0    0  0.00000000000E+00  0.00000000000E+00  0.40294412957E+02  0.99980032258E+02  0.91500640079E+02 0.  0.
          2    1    3    3  502    0  0.13258388188E+02 -0.27428379025E+02 -0.17147776762E+02  0.34959220260E+02  0.00000000000E+00 0. -1.
         -2    1    3    3    0  502 -0.13258388188E+02  0.27428379025E+02  0.57442189719E+02  0.65020811999E+02  0.00000000000E+00 0.  1.
<mgrwt>
<rscale>  0 0.91500640E+02</rscale>
<asrwt>0</asrwt>
<pdfrwt beam="2">  1        1 0.45912015E-02 0.91500640E+02</pdfrwt>
<pdfrwt beam="1">  1       -1 0.10790342E-01 0.91500640E+02</pdfrwt>
<totfact> 0.85732619E+04</totfact>
</mgrwt>
</event>
<event>
 5    1  0.3921687E+001  0.8963217E+02  0.7546771E-02  0.1303745E+00
         -2   -1    0    0    0  501 -0.00000000000E+00  0.00000000000E+00  0.21597892213E+01  0.21597892213E+01  0.00000000000E+00 0. -1.
          2   -1    0    0  501    0  0.00000000000E+00 -0.00000000000E+00 -0.92994336389E+03  0.92994336389E+03  0.00000000000E+00 0.  1.
         23    2    1    2    0    0  0.00000000000E+00  0.00000000000E+00 -0.92778357467E+03  0.93210315311E+03  0.89632173995E+02 0.  0.
          2    1    3    3  502    0  0.32269191341E+02 -0.15085451306E+02 -0.18107742265E+03  0.18454783809E+03  0.00000000000E+00 0. -1.
         -2    1    3    3    0  502 -0.32269191341E+02  0.15085451306E+02 -0.74670615202E+03  0.74755531502E+03  0.00000000000E+00 0.  1.
<mgrwt>
<rscale>  0 0.89632174E+02</rscale>
<asrwt>0</asrwt>
<pdfrwt beam="2">  1        2 0.14306776E+00 0.89632174E+02</pdfrwt>
<pdfrwt beam="1">  1       -2 0.33227631E-03 0.89632174E+02</pdfrwt>
<totfact> 0.26021393E+05</totfact>
</mgrwt>
</event>
<event>
 5    1  0.3921687E+001  0.9344440E+02  0.7546771E-02  0.1294719E+00
         -3   -1    0    0    0  501 -0.00000000000E+00  0.00000000000E+00  0.68385675290E+02  0.68385675290E+02  0.00000000000E+00 0.  1.
          3   -1    0    0  501    0  0.00000000000E+00 -0.00000000000E+00 -0.31921364677E+02  0.31921364677E+02  0.00000000000E+00 0. -1.
         23    2    1    2    0    0  0.00000000000E+00  0.00000000000E+00  0.36464310614E+02  0.10030703997E+03  0.93444402285E+02 0.  0.
          2    1    3    3  502    0  0.95537237032E+01  0.45082534216E+02  0.26495248429E+02  0.53157376885E+02  0.00000000000E+00 0.  1.
         -2    1    3    3    0  502 -0.95537237032E+01 -0.45082534216E+02  0.99690621849E+01  0.47149663082E+02  0.00000000000E+00 0. -1.
<mgrwt>
<rscale>  0 0.93444402E+02</rscale>
<asrwt>0</asrwt>
<pdfrwt beam="2">  1        3 0.49109792E-02 0.93444402E+02</pdfrwt>
<pdfrwt beam="1">  1       -3 0.10520873E-01 0.93444402E+02</pdfrwt>
<totfact> 0.32401867E+04</totfact>
</mgrwt>
</event>
<event>
 5    1  0.3921687E+001  0.9626101E+02  0.7546771E-02  0.1288361E+00
         -2   -1    0    0    0  501 -0.00000000000E+00  0.00000000000E+00  0.25884324109E+02  0.25884324109E+02  0.00000000000E+00 0.  1.
          2   -1    0    0  501    0  0.00000000000E+00 -0.00000000000E+00 -0.89496081737E+02  0.89496081737E+02  0.00000000000E+00 0. -1.
         23    2    1    2    0    0  0.00000000000E+00  0.00000000000E+00 -0.63611757628E+02  0.11538040585E+03  0.96261011550E+02 0.  0.
          2    1    3    3  502    0 -0.28549685717E+02  0.38739873612E+02 -0.30815130692E+02  0.57143981674E+02  0.00000000000E+00 0. -1.
         -2    1    3    3    0  502  0.28549685717E+02 -0.38739873612E+02 -0.32796626936E+02  0.58236424172E+02  0.00000000000E+00 0.  1.
<mgrwt>
<rscale>  0 0.96261012E+02</rscale>
<asrwt>0</asrwt>
<pdfrwt beam="2">  1        2 0.13768628E-01 0.96261012E+02</pdfrwt>
<pdfrwt beam="1">  1       -2 0.39822037E-02 0.96261012E+02</pdfrwt>
<totfact> 0.10204966E+05</totfact>
</mgrwt>
</event>
<event>
 5    1  0.3921687E+001  0.9179619E+02  0.7546771E-02  0.1298559E+00
         -2   -1    0    0    0  501 -0.00000000000E+00  0.00000000000E+00  0.54356983905E+02  0.54356983905E+02  0.00000000000E+00 0.  1.
          2   -1    0    0  501    0  0.00000000000E+00 -0.00000000000E+00 -0.38755557959E+02  0.38755557959E+02  0.00000000000E+00 0. -1.
         23    2    1    2    0    0  0.00000000000E+00  0.00000000000E+00  0.15601425946E+02  0.93112541865E+02  0.91796192519E+02 0.  0.
          2    1    3    3  502    0  0.24746490525E+02 -0.32547202642E+02  0.28954650785E+02  0.50100708531E+02  0.00000000000E+00 0. -1.
         -2    1    3    3    0  502 -0.24746490525E+02  0.32547202642E+02 -0.13353224839E+02  0.43011833334E+02  0.00000000000E+00 0.  1.
<mgrwt>
<rscale>  0 0.91796193E+02</rscale>
<asrwt>0</asrwt>
<pdfrwt beam="2">  1        2 0.59623936E-02 0.91796193E+02</pdfrwt>
<pdfrwt beam="1">  1       -2 0.83626129E-02 0.91796193E+02</pdfrwt>
<totfact> 0.92766239E+04</totfact>
</mgrwt>
</event>
<event>
 5    1  0.3921687E+001  0.8992223E+02  0.7546771E-02  0.1303040E+00
          2   -1    0    0  501    0  0.00000000000E+00  0.00000000000E+00  0.42415864138E+03  0.42415864138E+03  0.00000000000E+00 0. -1.
         -2   -1    0    0    0  501 -0.00000000000E+00 -0.00000000000E+00 -0.47659101821E+01  0.47659101821E+01  0.00000000000E+00 0.  1.
         23    2    1    2    0    0  0.00000000000E+00  0.00000000000E+00  0.41939273120E+03  0.42892455156E+03  0.89922232796E+02 0.  0.
          2    1    3    3  502    0  0.16479815952E+02 -0.35051339335E+02  0.31860606114E+03  0.32095171431E+03  0.00000000000E+00 0. -1.
         -2    1    3    3    0  502 -0.16479815952E+02  0.35051339335E+02  0.10078667006E+03  0.10797283725E+03  0.00000000000E+00 0.  1.
<mgrwt>
<rscale>  0 0.89922233E+02</rscale>
<asrwt>0</asrwt>
<pdfrwt beam="1">  1        2 0.65255146E-01 0.89922233E+02</pdfrwt>
<pdfrwt beam="2">  1       -2 0.73321729E-03 0.89922233E+02</pdfrwt>
<totfact> 0.21143691E+05</totfact>
</mgrwt>
</event>
<event>
 5    1  0.3921687E+001  0.8925663E+02  0.7546771E-02  0.1304662E+00
         -2   -1    0    0    0  501 -0.00000000000E+00  0.00000000000E+00  0.45671137391E+01  0.45671137391E+01  0.00000000000E+00 0.  1.
          2   -1    0    0  501    0  0.00000000000E+00 -0.00000000000E+00 -0.43609299102E+03  0.43609299102E+03  0.00000000000E+00 0. -1.
         23    2    1    2    0    0  0.00000000000E+00  0.00000000000E+00 -0.43152587729E+03  0.44066010476E+03  0.89256625319E+02 0.  0.
          2    1    3    3  502    0 -0.35201999861E+02  0.21785978232E+02 -0.29806094169E+03  0.30092214044E+03  0.00000000000E+00 0. -1.
         -2    1    3    3    0  502  0.35201999861E+02 -0.21785978232E+02 -0.13346493559E+03  0.13973796433E+03  0.00000000000E+00 0.  1.
<mgrwt>
<rscale>  0 0.89256625E+02</rscale>
<asrwt>0</asrwt>
<pdfrwt beam="2">  1        2 0.67091232E-01 0.89256625E+02</pdfrwt>
<pdfrwt beam="1">  1       -2 0.70263286E-03 0.89256625E+02</pdfrwt>
<totfact> 0.21772915E+05</totfact>
</mgrwt>
</event>
<event>
 5    1  0.3921687E+001  0.8924851E+02  0.7546771E-02  0.1304682E+00
          2   -1    0    0  501    0  0.00000000000E+00  0.00000000000E+00  0.20410114800E+03  0.20410114800E+03  0.00000000000E+00 0. -1.
         -2   -1    0    0    0  501 -0.00000000000E+00 -0.00000000000E+00 -0.97565556151E+01  0.97565556151E+01  0.00000000000E+00 0.  1.
         23    2    1    2    0    0  0.00000000000E+00  0.00000000000E+00  0.19434459239E+03  0.21385770362E+03  0.89248511508E+02 0.  0.
          2    1    3    3  502    0  0.24729631897E+02  0.85091073497E+01  0.18381306115E+03  0.18566421586E+03  0.00000000000E+00 0. -1.
         -2    1    3    3    0  502 -0.24729631897E+02 -0.85091073497E+01  0.10531531236E+02  0.28193487756E+02  0.00000000000E+00 0.  1.
<mgrwt>
<rscale>  0 0.89248512E+02</rscale>
<asrwt>0</asrwt>
<pdfrwt beam="1">  1        2 0.31400173E-01 0.89248512E+02</pdfrwt>
<pdfrwt beam="2">  1       -2 0.15010087E-02 0.89248512E+02</pdfrwt>
<totfact> 0.16502883E+05</totfact>
</mgrwt>
</event>
<event>
 5    1  0.3921687E+001  0.9384680E+02  0.7546771E-02  0.1293795E+00
          2   -1    0    0  501    0  0.00000000000E+00  0.00000000000E+00  0.22542114687E+03  0.22542114687E+03  0.00000000000E+00 0. -1.
         -2   -1    0    0    0  501 -0.00000000000E+00 -0.00000000000E+00 -0.97675199051E+01  0.97675199051E+01  0.00000000000E+00 0.  1.
         23    2    1    2    0    0  0.00000000000E+00  0.00000000000E+00  0.21565362697E+03  0.23518866678E+03  0.93846801525E+02 0.  0.
          2    1    3    3  502    0 -0.44487759989E+02 -0.14914332535E+02  0.10896821461E+03  0.11864092843E+03  0.00000000000E+00 0. -1.
         -2    1    3    3    0  502  0.44487759989E+02  0.14914332535E+02  0.10668541236E+03  0.11654773835E+03  0.00000000000E+00 0.  1.
<mgrwt>
<rscale>  0 0.93846802E+02</rscale>
<asrwt>0</asrwt>
<pdfrwt beam="1">  1        2 0.34680173E-01 0.93846802E+02</pdfrwt>
<pdfrwt beam="2">  1       -2 0.15026955E-02 0.93846802E+02</pdfrwt>
<totfact> 0.14950151E+05</totfact>
</mgrwt>
</event>
<event>
 5    1  0.3921687E+001  0.9505355E+02  0.7546771E-02  0.1291056E+00
          2   -1    0    0  501    0  0.00000000000E+00  0.00000000000E+00  0.16330949970E+03  0.16330949970E+03  0.00000000000E+00 0.  1.
         -2   -1    0    0    0  501 -0.00000000000E+00 -0.00000000000E+00 -0.13831372813E+02  0.13831372813E+02  0.00000000000E+00 0. -1.
         23    2    1    2    0    0  0.00000000000E+00  0.00000000000E+00  0.14947812689E+03  0.17714087251E+03  0.95053554890E+02 0.  0.
          2    1    3    3  502    0  0.36656347138E+02  0.15138721013E+02  0.12354683974E+03  0.12975627257E+03  0.00000000000E+00 0.  1.
         -2    1    3    3    0  502 -0.36656347138E+02 -0.15138721013E+02  0.25931287144E+02  0.47384599949E+02  0.00000000000E+00 0. -1.
<mgrwt>
<rscale>  0 0.95053555E+02</rscale>
<asrwt>0</asrwt>
<pdfrwt beam="1">  1        2 0.25124537E-01 0.95053555E+02</pdfrwt>
<pdfrwt beam="2">  1       -2 0.21279036E-02 0.95053555E+02</pdfrwt>
<totfact> 0.12855663E+05</totfact>
</mgrwt>
</event>
<event>
 5    1  0.3921687E+001  0.8774193E+02  0.7546771E-02  0.1308414E+00
         -2   -1    0    0    0  501 -0.00000000000E+00  0.00000000000E+00  0.91807267426E+02  0.91807267426E+02  0.00000000000E+00 0.  1.
          2   -1    0    0  501    0  0.00000000000E+00 -0.00000000000E+00 -0.20964151940E+02  0.20964151940E+02  0.00000000000E+00 0. -1.
         23    2    1    2    0    0  0.00000000000E+00  0.00000000000E+00  0.70843115487E+02  0.11277141937E+03  0.87741928483E+02 0.  0.
          2    1    3    3  502    0 -0.28436673763E+02  0.23986148972E+02  0.55359064389E+01  0.37611514425E+02  0.00000000000E+00 0. -1.
         -2    1    3    3    0  502  0.28436673763E+02 -0.23986148972E+02  0.65307209048E+02  0.75159904942E+02  0.00000000000E+00 0.  1.
<mgrwt>
<rscale>  0 0.87741928E+02</rscale>
<asrwt>0</asrwt>
<pdfrwt beam="2">  1        2 0.32252542E-02 0.87741928E+02</pdfrwt>
<pdfrwt beam="1">  1       -2 0.14124195E-01 0.87741928E+02</pdfrwt>
<totfact> 0.89997151E+04</totfact>
</mgrwt>
</event>
<event>
 5    1  0.3921687E+001  0.9573286E+02  0.7546771E-02  0.1289534E+00
         -1   -1    0    0    0  501 -0.00000000000E+00  0.00000000000E+00  0.15739706320E+02  0.15739706320E+02  0.00000000000E+00 0.  1.
          1   -1    0    0  501    0  0.00000000000E+00 -0.00000000000E+00 -0.14556783682E+03  0.14556783682E+03  0.00000000000E+00 0. -1.
         23    2    1    2    0    0  0.00000000000E+00  0.00000000000E+00 -0.12982813050E+03  0.16130754314E+03  0.95732857498E+02 0.  0.
          2    1    3    3  502    0  0.22010819151E+02 -0.21862865675E+02 -0.12633446936E+03  0.13008789030E+03  0.00000000000E+00 0. -1.
         -2    1    3    3    0  502 -0.22010819151E+02  0.21862865675E+02 -0.34936611428E+01  0.31219652839E+02  0.00000000000E+00 0.  1.
<mgrwt>
<rscale>  0 0.95732857E+02</rscale>
<asrwt>0</asrwt>
<pdfrwt beam="2">  1        1 0.22395052E-01 0.95732857E+02</pdfrwt>
<pdfrwt beam="1">  1       -1 0.24214932E-02 0.95732857E+02</pdfrwt>
<totfact> 0.97716882E+04</totfact>
</mgrwt>
</event>
<event>
 5    1  0.3921687E+001  0.9077121E+02  0.7546771E-02  0.1300995E+00
          1   -1    0    0  501    0  0.00000000000E+00  0.00000000000E+00  0.12976819947E+04  0.12976819947E+04  0.00000000000E+00 0. -1.
         -1   -1    0    0    0  501 -0.00000000000E+00 -0.00000000000E+00 -0.15873327132E+01  0.15873327132E+01  0.00000000000E+00 0.  1.
         23    2    1    2    0    0  0.00000000000E+00  0.00000000000E+00  0.12960946620E+04  0.12992693275E+04  0.90771208686E+02 0.  0.
          2    1    3    3  502    0  0.23711008240E+02 -0.69793450919E+01  0.11928945727E+04  0.11931506128E+04  0.00000000000E+00 0. -1.
         -2    1    3    3    0  502 -0.23711008240E+02  0.69793450919E+01  0.10320008934E+03  0.10611871470E+03  0.00000000000E+00 0.  1.
<mgrwt>
<rscale>  0 0.90771209E+02</rscale>
<asrwt>0</asrwt>
<pdfrwt beam="1">  1        1 0.19964254E+00 0.90771209E+02</pdfrwt>
<pdfrwt beam="2">  1       -1 0.24420607E-03 0.90771209E+02</pdfrwt>
<totfact> 0.12364468E+05</totfact>
</mgrwt>
</event>
<event>
 5    1  0.3921687E+001  0.9021231E+02  0.7546771E-02  0.1302338E+00
         -4   -1    0    0    0  501 -0.00000000000E+00  0.00000000000E+00  0.11088757294E+03  0.11088757294E+03  0.00000000000E+00 0.  1.
          4   -1    0    0  501    0  0.00000000000E+00 -0.00000000000E+00 -0.18347999251E+02  0.18347999251E+02  0.00000000000E+00 0. -1.
         23    2    1    2    0    0  0.00000000000E+00  0.00000000000E+00  0.92539573686E+02  0.12923557219E+03  0.90212307480E+02 0.  0.
          2    1    3    3  502    0 -0.19268507344E+02  0.29122106085E+02  0.53676110712E+01  0.35329643173E+02  0.00000000000E+00 0. -1.
         -2    1    3    3    0  502  0.19268507344E+02 -0.29122106085E+02  0.87171962615E+02  0.93905929016E+02  0.00000000000E+00 0.  1.
<mgrwt>
<rscale>  0 0.90212307E+02</rscale>
<asrwt>0</asrwt>
<pdfrwt beam="2">  1        4 0.28227692E-02 0.90212307E+02</pdfrwt>
<pdfrwt beam="1">  1       -4 0.17059626E-01 0.90212307E+02</pdfrwt>
<totfact> 0.25478482E+04</totfact>
</mgrwt>
</event>
<event>
 5    1  0.3921687E+001  0.9047361E+02  0.7546771E-02  0.1301709E+00
          2   -1    0    0  501    0  0.00000000000E+00  0.00000000000E+00  0.71782220866E+03  0.71782220866E+03  0.00000000000E+00 0. -1.
         -2   -1    0    0    0  501 -0.00000000000E+00 -0.00000000000E+00 -0.28508010628E+01  0.28508010628E+01  0.00000000000E+00 0.  1.
         23    2    1    2    0    0  0.00000000000E+00  0.00000000000E+00  0.71497140760E+03  0.72067300973E+03  0.90473605331E+02 0.  0.
          2    1    3    3  502    0 -0.41286327174E+02  0.10722464844E+01  0.50450540084E+03  0.50619305606E+03  0.00000000000E+00 0. -1.
         -2    1    3    3    0  502  0.41286327174E+02 -0.10722464844E+01  0.21046600676E+03  0.21447995367E+03  0.00000000000E+00 0.  1.
<mgrwt>
<rscale>  0 0.90473605E+02</rscale>
<asrwt>0</asrwt>
<pdfrwt beam="1">  1        2 0.11043404E+00 0.90473605E+02</pdfrwt>
<pdfrwt beam="2">  1       -2 0.43858535E-03 0.90473605E+02</pdfrwt>
<totfact> 0.24342428E+05</totfact>
</mgrwt>
</event>
<event>
 5    1  0.3921687E+001  0.9059785E+02  0.7546771E-02  0.1301410E+00
         -1   -1    0    0    0  501 -0.00000000000E+00  0.00000000000E+00  0.12937851389E+02  0.12937851389E+02  0.00000000000E+00 0.  1.
          1   -1    0    0  501    0  0.00000000000E+00 -0.00000000000E+00 -0.15860380311E+03  0.15860380311E+03  0.00000000000E+00 0. -1.
         23    2    1    2    0    0  0.00000000000E+00  0.00000000000E+00 -0.14566595172E+03  0.17154165450E+03  0.90597846210E+02 0.  0.
          2    1    3    3  502    0  0.44621142320E+02 -0.29039613286E+01 -0.86553969228E+02  0.97422117214E+02  0.00000000000E+00 0. -1.
         -2    1    3    3    0  502 -0.44621142320E+02  0.29039613286E+01 -0.59111982495E+02  0.74119537288E+02  0.00000000000E+00 0.  1.
<mgrwt>
<rscale>  0 0.90597846E+02</rscale>
<asrwt>0</asrwt>
<pdfrwt beam="2">  1        1 0.24400586E-01 0.90597846E+02</pdfrwt>
<pdfrwt beam="1">  1       -1 0.19904386E-02 0.90597846E+02</pdfrwt>
<totfact> 0.11525497E+05</totfact>
</mgrwt>
</event>
<event>
 5    1  0.3921687E+001  0.8817714E+02  0.7546771E-02  0.1307327E+00
          1   -1    0    0  501    0  0.00000000000E+00  0.00000000000E+00  0.10183662842E+04  0.10183662842E+04  0.00000000000E+00 0. -1.
         -1   -1    0    0    0  501 -0.00000000000E+00 -0.00000000000E+00 -0.19087456226E+01  0.19087456226E+01  0.00000000000E+00 0.  1.
         23    2    1    2    0    0  0.00000000000E+00  0.00000000000E+00  0.10164575386E+04  0.10202750298E+04  0.88177144139E+02 0.  0.
          2    1    3    3  502    0  0.20640894872E+02 -0.36770797732E+02  0.65715644300E+03  0.65850795643E+03  0.00000000000E+00 0. -1.
         -2    1    3    3    0  502 -0.20640894872E+02  0.36770797732E+02  0.35930109558E+03  0.36176707340E+03  0.00000000000E+00 0.  1.
<mgrwt>
<rscale>  0 0.88177144E+02</rscale>
<asrwt>0</asrwt>
<pdfrwt beam="1">  1        1 0.15667130E+00 0.88177144E+02</pdfrwt>
<pdfrwt beam="2">  1       -1 0.29365399E-03 0.88177144E+02</pdfrwt>
<totfact> 0.14783090E+05</totfact>
</mgrwt>
</event>
<event>
 5    1  0.3921687E+001  0.9091568E+02  0.7546771E-02  0.1300649E+00
          2   -1    0    0  501    0  0.00000000000E+00  0.00000000000E+00  0.29306211144E+03  0.29306211144E+03  0.00000000000E+00 0. -1.
         -2   -1    0    0    0  501 -0.00000000000E+00 -0.00000000000E+00 -0.70511170289E+01  0.70511170289E+01  0.00000000000E+00 0.  1.
         23    2    1    2    0    0  0.00000000000E+00  0.00000000000E+00  0.28601099441E+03  0.30011322847E+03  0.90915680595E+02 0.  0.
          2    1    3    3  502    0  0.38894119163E+02 -0.17725606375E+02  0.19408750134E+03  0.19873828972E+03  0.00000000000E+00 0. -1.
         -2    1    3    3    0  502 -0.38894119163E+02  0.17725606375E+02  0.91923493075E+02  0.10137493875E+03  0.00000000000E+00 0.  1.
<mgrwt>
<rscale>  0 0.90915681E+02</rscale>
<asrwt>0</asrwt>
<pdfrwt beam="1">  1        2 0.45086469E-01 0.90915681E+02</pdfrwt>
<pdfrwt beam="2">  1       -2 0.10847875E-02 0.90915681E+02</pdfrwt>
<totfact> 0.17946952E+05</totfact>
</mgrwt>
</event>
<event>
 5    1  0.3921687E+001  0.8916221E+02  0.7546771E-02  0.1304893E+00
         -3   -1    0    0    0  501 -0.00000000000E+00  0.00000000000E+00  0.54289202690E+01  0.54289202690E+01  0.00000000000E+00 0. -1.
          3   -1    0    0  501    0  0.00000000000E+00 -0.00000000000E+00 -0.36609027068E+03  0.36609027068E+03  0.00000000000E+00 0.  1.
         23    2    1    2    0    0  0.00000000000E+00  0.00000000000E+00 -0.36066135041E+03  0.37151919095E+03  0.89162209276E+02 0.  0.
          2    1    3    3  502    0 -0.99107191853E+01 -0.26654406361E+02 -0.37270219902E+02  0.46880155981E+02  0.00000000000E+00 0. -1.
         -2    1    3    3    0  502  0.99107191853E+01  0.26654406361E+02 -0.32339113051E+03  0.32463903496E+03  0.00000000000E+00 0.  1.
<mgrwt>
<rscale>  0 0.89162209E+02</rscale>
<asrwt>0</asrwt>
<pdfrwt beam="2">  1        3 0.56321582E-01 0.89162209E+02</pdfrwt>
<pdfrwt beam="1">  1       -3 0.83521848E-03 0.89162209E+02</pdfrwt>
<totfact> 0.22826025E+04</totfact>
</mgrwt>
</event>
<event>
 5    1  0.3921687E+001  0.9139848E+02  0.7546771E-02  0.1299500E+00
         -1   -1    0    0    0  501 -0.00000000000E+00  0.00000000000E+00  0.95589225831E+01  0.95589225831E+01  0.00000000000E+00 0.  1.
          1   -1    0    0  501    0  0.00000000000E+00 -0.00000000000E+00 -0.21847865409E+03  0.21847865409E+03  0.00000000000E+00 0. -1.
         23    2    1    2    0    0  0.00000000000E+00  0.00000000000E+00 -0.20891973151E+03  0.22803757668E+03  0.91398480086E+02 0.  0.
          2    1    3    3  502    0 -0.20752467847E+02 -0.37949602315E+02 -0.14126261190E+03  0.14773612543E+03  0.00000000000E+00 0. -1.
         -2    1    3    3    0  502  0.20752467847E+02  0.37949602315E+02 -0.67657119611E+02  0.80301451242E+02  0.00000000000E+00 0.  1.
<mgrwt>
<rscale>  0 0.91398480E+02</rscale>
<asrwt>0</asrwt>
<pdfrwt beam="2">  1        1 0.33612100E-01 0.91398480E+02</pdfrwt>
<pdfrwt beam="1">  1       -1 0.14706035E-02 0.91398480E+02</pdfrwt>
<totfact> 0.11967875E+05</totfact>
</mgrwt>
</event>
<event>
 5    1  0.3921687E+001  0.8542655E+02  0.7546771E-02  0.1314321E+00
         -3   -1    0    0    0  501 -0.00000000000E+00  0.00000000000E+00  0.21159373679E+02  0.21159373679E+02  0.00000000000E+00 0.  1.
          3   -1    0    0  501    0  0.00000000000E+00 -0.00000000000E+00 -0.86222965409E+02  0.86222965409E+02  0.00000000000E+00 0. -1.
         23    2    1    2    0    0  0.00000000000E+00  0.00000000000E+00 -0.65063591730E+02  0.10738233909E+03  0.85426551956E+02 0.  0.
          2    1    3    3  502    0 -0.21842035229E+02  0.34902177429E+02 -0.46819095392E+02  0.62347928479E+02  0.00000000000E+00 0. -1.
         -2    1    3    3    0  502  0.21842035229E+02 -0.34902177429E+02 -0.18244496337E+02  0.45034410609E+02  0.00000000000E+00 0.  1.
<mgrwt>
<rscale>  0 0.85426552E+02</rscale>
<asrwt>0</asrwt>
<pdfrwt beam="2">  1        3 0.13265072E-01 0.85426552E+02</pdfrwt>
<pdfrwt beam="1">  1       -3 0.32552882E-02 0.85426552E+02</pdfrwt>
<totfact> 0.40709123E+04</totfact>
</mgrwt>
</event>
<event>
 5    1  0.3921687E+001  0.9189147E+02  0.7546771E-02  0.1298335E+00
          2   -1    0    0  501    0  0.00000000000E+00  0.00000000000E+00  0.21629315374E+02  0.21629315374E+02  0.00000000000E+00 0. -1.
         -2   -1    0    0    0  501 -0.00000000000E+00 -0.00000000000E+00 -0.97599506348E+02  0.97599506348E+02  0.00000000000E+00 0.  1.
         23    2    1    2    0    0  0.00000000000E+00  0.00000000000E+00 -0.75970190975E+02  0.11922882172E+03  0.91891468660E+02 0.  0.
          2    1    3    3  502    0 -0.27411404804E+02  0.34852476900E+02 -0.53605258814E+02  0.69567262645E+02  0.00000000000E+00 0. -1.
         -2    1    3    3    0  502  0.27411404804E+02 -0.34852476900E+02 -0.22364932161E+02  0.49661559077E+02  0.00000000000E+00 0.  1.
<mgrwt>
<rscale>  0 0.91891469E+02</rscale>
<asrwt>0</asrwt>
<pdfrwt beam="1">  1        2 0.33275870E-02 0.91891469E+02</pdfrwt>
<pdfrwt beam="2">  1       -2 0.15015309E-01 0.91891469E+02</pdfrwt>
<totfact> 0.78838102E+04</totfact>
</mgrwt>
</event>
<event>
 5    1  0.3921687E+001  0.7983673E+02  0.7546771E-02  0.1329515E+00
          2   -1    0    0  501    0  0.00000000000E+00  0.00000000000E+00  0.35069271937E+01  0.35069271937E+01  0.00000000000E+00 0. -1.
         -2   -1    0    0    0  501 -0.00000000000E+00 -0.00000000000E+00 -0.45437949270E+03  0.45437949270E+03  0.00000000000E+00 0.  1.
         23    2    1    2    0    0  0.00000000000E+00  0.00000000000E+00 -0.45087256550E+03  0.45788641989E+03  0.79836728369E+02 0.  0.
          2    1    3    3  502    0  0.13955820875E+02  0.24366714656E+02 -0.62714392807E+02  0.68713876215E+02  0.00000000000E+00 0. -1.
         -2    1    3    3    0  502 -0.13955820875E+02 -0.24366714656E+02 -0.38815817270E+03  0.38917254367E+03  0.00000000000E+00 0.  1.
<mgrwt>
<rscale>  0 0.79836728E+02</rscale>
<asrwt>0</asrwt>
<pdfrwt beam="1">  1        2 0.53952754E-03 0.79836728E+02</pdfrwt>
<pdfrwt beam="2">  1       -2 0.69904501E-01 0.79836728E+02</pdfrwt>
<totfact> 0.54948182E+04</totfact>
</mgrwt>
</event>
<event>
 5    1  0.3921687E+001  0.8021624E+02  0.7546771E-02  0.1328439E+00
          2   -1    0    0  501    0  0.00000000000E+00  0.00000000000E+00  0.25090556848E+02  0.25090556848E+02  0.00000000000E+00 0. -1.
         -2   -1    0    0    0  501 -0.00000000000E+00 -0.00000000000E+00 -0.64114208115E+02  0.64114208115E+02  0.00000000000E+00 0.  1.
         23    2    1    2    0    0  0.00000000000E+00  0.00000000000E+00 -0.39023651267E+02  0.89204764963E+02  0.80216237346E+02 0.  0.
          2    1    3    3  502    0  0.40349609080E+01 -0.29959760493E+02  0.98007169748E+01  0.31779273302E+02  0.00000000000E+00 0. -1.
         -2    1    3    3    0  502 -0.40349609080E+01  0.29959760493E+02 -0.48824368242E+02  0.57425491662E+02  0.00000000000E+00 0.  1.
<mgrwt>
<rscale>  0 0.80216237E+02</rscale>
<asrwt>0</asrwt>
<pdfrwt beam="1">  1        2 0.38600857E-02 0.80216237E+02</pdfrwt>
<pdfrwt beam="2">  1       -2 0.98637242E-02 0.80216237E+02</pdfrwt>
<totfact> 0.12322721E+05</totfact>
</mgrwt>
</event>
<event>
 5    1  0.3921687E+001  0.9110477E+02  0.7546771E-02  0.1300198E+00
          1   -1    0    0  501    0  0.00000000000E+00  0.00000000000E+00  0.96163500864E+02  0.96163500864E+02  0.00000000000E+00 0. -1.
         -1   -1    0    0    0  501 -0.00000000000E+00 -0.00000000000E+00 -0.21578039339E+02  0.21578039339E+02  0.00000000000E+00 0.  1.
         23    2    1    2    0    0  0.00000000000E+00  0.00000000000E+00  0.74585461525E+02  0.11774154020E+03  0.91104770557E+02 0.  0.
          2    1    3    3  502    0 -0.10320856995E+02  0.25107792912E+02  0.84567849445E+02  0.88818030342E+02  0.00000000000E+00 0. -1.
         -2    1    3    3    0  502  0.10320856995E+02 -0.25107792912E+02 -0.99823879203E+01  0.28923509860E+02  0.00000000000E+00 0.  1.
<mgrwt>
<rscale>  0 0.91104771E+02</rscale>
<asrwt>0</asrwt>
<pdfrwt beam="1">  1        1 0.14794385E-01 0.91104771E+02</pdfrwt>
<pdfrwt beam="2">  1       -1 0.33196984E-02 0.91104771E+02</pdfrwt>
<totfact> 0.10400215E+05</totfact>
</mgrwt>
</event>
<event>
 5    1  0.3921687E+001  0.9094367E+02  0.7546771E-02  0.1300582E+00
         -2   -1    0    0    0  501 -0.00000000000E+00  0.00000000000E+00  0.42355543404E+02  0.42355543404E+02  0.00000000000E+00 0.  1.
          2   -1    0    0  501    0  0.00000000000E+00 -0.00000000000E+00 -0.48817404760E+02  0.48817404760E+02  0.00000000000E+00 0. -1.
         23    2    1    2    0    0  0.00000000000E+00  0.00000000000E+00 -0.64618613565E+01  0.91172948164E+02  0.90943668414E+02 0.  0.
          2    1    3    3  502    0 -0.31554627444E+02 -0.64282595684E+01 -0.35415928867E+02  0.47867578294E+02  0.00000000000E+00 0. -1.
         -2    1    3    3    0  502  0.31554627444E+02  0.64282595684E+01  0.28954067510E+02  0.43305369870E+02  0.00000000000E+00 0.  1.
<mgrwt>
<rscale>  0 0.90943668E+02</rscale>
<asrwt>0</asrwt>
<pdfrwt beam="2">  1        2 0.75103700E-02 0.90943668E+02</pdfrwt>
<pdfrwt beam="1">  1       -2 0.65162374E-02 0.90943668E+02</pdfrwt>
<totfact> 0.10118467E+05</totfact>
</mgrwt>
</event>
<event>
 5    1  0.3921687E+001  0.9213875E+02  0.7546771E-02  0.1297754E+00
          2   -1    0    0  501    0  0.00000000000E+00  0.00000000000E+00  0.21983812852E+03  0.21983812852E+03  0.00000000000E+00 0. -1.
         -2   -1    0    0    0  501 -0.00000000000E+00 -0.00000000000E+00 -0.96543179573E+01  0.96543179573E+01  0.00000000000E+00 0.  1.
         23    2    1    2    0    0  0.00000000000E+00  0.00000000000E+00  0.21018381056E+03  0.22949244647E+03  0.92138747372E+02 0.  0.
          2    1    3    3  502    0 -0.36078376924E+02 -0.14451102154E+02  0.16670422790E+03  0.17117471552E+03  0.00000000000E+00 0. -1.
         -2    1    3    3    0  502  0.36078376924E+02  0.14451102154E+02  0.43479582661E+02  0.58317730951E+02  0.00000000000E+00 0.  1.
<mgrwt>
<rscale>  0 0.92138747E+02</rscale>
<asrwt>0</asrwt>
<pdfrwt beam="1">  1        2 0.33821247E-01 0.92138747E+02</pdfrwt>
<pdfrwt beam="2">  1       -2 0.14852799E-02 0.92138747E+02</pdfrwt>
<totfact> 0.15564092E+05</totfact>
</mgrwt>
</event>
<event>
 5    1  0.3921687E+001  0.8993057E+02  0.7546771E-02  0.1303020E+00
         -2   -1    0    0    0  501 -0.00000000000E+00  0.00000000000E+00  0.73690059231E+01  0.73690059231E+01  0.00000000000E+00 0.  1.
          2   -1    0    0  501    0  0.00000000000E+00 -0.00000000000E+00 -0.27437580364E+03  0.27437580364E+03  0.00000000000E+00 0. -1.
         23    2    1    2    0    0  0.00000000000E+00  0.00000000000E+00 -0.26700679772E+03  0.28174480957E+03  0.89930571492E+02 0.  0.
          2    1    3    3  502    0 -0.21309901394E+02  0.32803191978E+02 -0.20297472246E+03  0.20670969803E+03  0.00000000000E+00 0. -1.
         -2    1    3    3    0  502  0.21309901394E+02 -0.32803191978E+02 -0.64032075262E+02  0.75035111539E+02  0.00000000000E+00 0.  1.
<mgrwt>
<rscale>  0 0.89930571E+02</rscale>
<asrwt>0</asrwt>
<pdfrwt beam="2">  1        2 0.42211664E-01 0.89930571E+02</pdfrwt>
<pdfrwt beam="1">  1       -2 0.11336932E-02 0.89930571E+02</pdfrwt>
<totfact> 0.18027903E+05</totfact>
</mgrwt>
</event>
<event>
 5    1  0.3921687E+001  0.8749930E+02  0.7546771E-02  0.1309023E+00
          1   -1    0    0  501    0  0.00000000000E+00  0.00000000000E+00  0.34015240057E+04  0.34015240057E+04  0.00000000000E+00 0. -1.
         -1   -1    0    0    0  501 -0.00000000000E+00 -0.00000000000E+00 -0.56269828068E+00  0.56269828068E+00  0.00000000000E+00 0.  1.
         23    2    1    2    0    0  0.00000000000E+00  0.00000000000E+00  0.34009613075E+04  0.34020867040E+04  0.87499296219E+02 0.  0.
          2    1    3    3  502    0  0.25837433992E+02 -0.29704561704E+02  0.24423882238E+04  0.24427055021E+04  0.00000000000E+00 0. -1.
         -2    1    3    3    0  502 -0.25837433992E+02  0.29704561704E+02  0.95857308365E+03  0.95938120196E+03  0.00000000000E+00 0.  1.
<mgrwt>
<rscale>  0 0.87499296E+02</rscale>
<asrwt>0</asrwt>
<pdfrwt beam="1">  1        1 0.52329492E+00 0.87499296E+02</pdfrwt>
<pdfrwt beam="2">  1       -1 0.86571690E-04 0.87499296E+02</pdfrwt>
<totfact> 0.21872127E+04</totfact>
</mgrwt>
</event>
<event>
 5    1  0.3921687E+001  0.9117274E+02  0.7546771E-02  0.1300036E+00
         -2   -1    0    0    0  501 -0.00000000000E+00  0.00000000000E+00  0.11049115719E+01  0.11049115719E+01  0.00000000000E+00 0.  1.
          2   -1    0    0  501    0  0.00000000000E+00 -0.00000000000E+00 -0.18807995109E+04  0.18807995109E+04  0.00000000000E+00 0. -1.
         23    2    1    2    0    0  0.00000000000E+00  0.00000000000E+00 -0.18796945993E+04  0.18819044225E+04  0.91172740311E+02 0.  0.
          2    1    3    3  502    0  0.32466326413E+02 -0.14374004235E+02 -0.15299957076E+04  0.15304076384E+04  0.00000000000E+00 0. -1.
         -2    1    3    3    0  502 -0.32466326413E+02  0.14374004235E+02 -0.34969889173E+03  0.35149678409E+03  0.00000000000E+00 0.  1.
<mgrwt>
<rscale>  0 0.91172740E+02</rscale>
<asrwt>0</asrwt>
<pdfrwt beam="2">  1        2 0.28935566E+00 0.91172740E+02</pdfrwt>
<pdfrwt beam="1">  1       -2 0.16998529E-03 0.91172740E+02</pdfrwt>
<totfact> 0.20749713E+05</totfact>
</mgrwt>
</event>
<event>
 5    1  0.3921687E+001  0.7895813E+02  0.7546771E-02  0.1332034E+00
         -1   -1    0    0    0  501 -0.00000000000E+00  0.00000000000E+00  0.10925183833E+03  0.10925183833E+03  0.00000000000E+00 0.  1.
          1   -1    0    0  501    0  0.00000000000E+00 -0.00000000000E+00 -0.14266091926E+02  0.14266091926E+02  0.00000000000E+00 0. -1.
         23    2    1    2    0    0  0.00000000000E+00  0.00000000000E+00  0.94985746406E+02  0.12351793026E+03  0.78958134950E+02 0.  0.
          2    1    3    3  502    0  0.18590422582E+02 -0.16912671042E+02  0.95120872268E+02  0.98385073027E+02  0.00000000000E+00 0.  1.
         -2    1    3    3    0  502 -0.18590422582E+02  0.16912671042E+02 -0.13512586150E+00  0.25132857230E+02  0.00000000000E+00 0. -1.
<mgrwt>
<rscale>  0 0.78958135E+02</rscale>
<asrwt>0</asrwt>
<pdfrwt beam="2">  1        1 0.21947834E-02 0.78958135E+02</pdfrwt>
<pdfrwt beam="1">  1       -1 0.16807975E-01 0.78958135E+02</pdfrwt>
<totfact> 0.11583152E+05</totfact>
</mgrwt>
</event>
<event>
 5    1  0.3921687E+001  0.9059464E+02  0.7546771E-02  0.1301418E+00
          2   -1    0    0  501    0  0.00000000000E+00  0.00000000000E+00  0.44179953732E+03  0.44179953732E+03  0.00000000000E+00 0. -1.
         -2   -1    0    0    0  501 -0.00000000000E+00 -0.00000000000E+00 -0.46442940810E+01  0.46442940810E+01  0.00000000000E+00 0.  1.
         23    2    1    2    0    0  0.00000000000E+00  0.00000000000E+00  0.43715524324E+03  0.44644383140E+03  0.90594635076E+02 0.  0.
          2    1    3    3  502    0 -0.23404435299E+02  0.31588973352E+02  0.32945229249E+03  0.33178975851E+03  0.00000000000E+00 0. -1.
         -2    1    3    3    0  502  0.23404435299E+02 -0.31588973352E+02  0.10770295075E+03  0.11465407289E+03  0.00000000000E+00 0.  1.
<mgrwt>
<rscale>  0 0.90594635E+02</rscale>
<asrwt>0</asrwt>
<pdfrwt beam="1">  1        2 0.67969127E-01 0.90594635E+02</pdfrwt>
<pdfrwt beam="2">  1       -2 0.71450713E-03 0.90594635E+02</pdfrwt>
<totfact> 0.21026624E+05</totfact>
</mgrwt>
</event>
<event>
 5    1  0.3921687E+001  0.7143145E+02  0.7546771E-02  0.1355292E+00
         -1   -1    0    0    0  501 -0.00000000000E+00  0.00000000000E+00  0.18917611735E+04  0.18917611735E+04  0.00000000000E+00 0.  1.
          1   -1    0    0  501    0  0.00000000000E+00 -0.00000000000E+00 -0.67429926198E+00  0.67429926198E+00  0.00000000000E+00 0. -1.
         23    2    1    2    0    0  0.00000000000E+00  0.00000000000E+00  0.18910868742E+04  0.18924354728E+04  0.71431454224E+02 0.  0.
          2    1    3    3  502    0 -0.17461873294E+02 -0.28420709010E+02  0.60734518797E+03  0.60826049606E+03  0.00000000000E+00 0. -1.
         -2    1    3    3    0  502  0.17461873294E+02  0.28420709010E+02  0.12837416863E+04  0.12841749767E+04  0.00000000000E+00 0.  1.
<mgrwt>
<rscale>  0 0.71431454E+02</rscale>
<asrwt>0</asrwt>
<pdfrwt beam="2">  1        1 0.10373986E-03 0.71431454E+02</pdfrwt>
<pdfrwt beam="1">  1       -1 0.29103593E+00 0.71431454E+02</pdfrwt>
<totfact> 0.15433200E+04</totfact>
</mgrwt>
</event>
<event>
 5    1  0.3921687E+001  0.9199179E+02  0.7546771E-02  0.1298099E+00
          2   -1    0    0  501    0  0.00000000000E+00  0.00000000000E+00  0.36588376283E+03  0.36588376283E+03  0.00000000000E+00 0.  1.
         -2   -1    0    0    0  501 -0.00000000000E+00 -0.00000000000E+00 -0.57822253946E+01  0.57822253946E+01  0.00000000000E+00 0. -1.
         23    2    1    2    0    0  0.00000000000E+00  0.00000000000E+00  0.36010153743E+03  0.37166598822E+03  0.91991790610E+02 0.  0.
          2    1    3    3  502    0 -0.17027001572E+02  0.34037175394E+02  0.75693332840E+02  0.84722657700E+02  0.00000000000E+00 0. -1.
         -2    1    3    3    0  502  0.17027001572E+02 -0.34037175394E+02  0.28440820459E+03  0.28694333052E+03  0.00000000000E+00 0.  1.
<mgrwt>
<rscale>  0 0.91991791E+02</rscale>
<asrwt>0</asrwt>
<pdfrwt beam="1">  1        2 0.56289792E-01 0.91991791E+02</pdfrwt>
<pdfrwt beam="2">  1       -2 0.88957342E-03 0.91991791E+02</pdfrwt>
<totfact> 0.18877536E+05</totfact>
</mgrwt>
</event>
<event>
 5    1  0.3921687E+001  0.9115530E+02  0.7546771E-02  0.1300078E+00
         -1   -1    0    0    0  501 -0.00000000000E+00  0.00000000000E+00  0.56119948075E+01  0.56119948075E+01  0.00000000000E+00 0.  1.
          1   -1    0    0  501    0  0.00000000000E+00 -0.00000000000E+00 -0.37015753715E+03  0.37015753715E+03  0.00000000000E+00 0. -1.
         23    2    1    2    0    0  0.00000000000E+00  0.00000000000E+00 -0.36454554235E+03  0.37576953196E+03  0.91155299933E+02 0.  0.
          2    1    3    3  502    0 -0.23897476830E+01  0.35922247545E+02 -0.29749113553E+03  0.29966163332E+03  0.00000000000E+00 0. -1.
         -2    1    3    3    0  502  0.23897476830E+01 -0.35922247545E+02 -0.67054406816E+02  0.76107898645E+02  0.00000000000E+00 0.  1.
<mgrwt>
<rscale>  0 0.91155300E+02</rscale>
<asrwt>0</asrwt>
<pdfrwt beam="2">  1        1 0.56947313E-01 0.91155300E+02</pdfrwt>
<pdfrwt beam="1">  1       -1 0.86338382E-03 0.91155300E+02</pdfrwt>
<totfact> 0.13321868E+05</totfact>
</mgrwt>
</event>
<event>
 5    1  0.3921687E+001  0.8931336E+02  0.7546771E-02  0.1304523E+00
          1   -1    0    0  501    0  0.00000000000E+00  0.00000000000E+00  0.11588282575E+04  0.11588282575E+04  0.00000000000E+00 0. -1.
         -1   -1    0    0    0  501 -0.00000000000E+00 -0.00000000000E+00 -0.17208927237E+01  0.17208927237E+01  0.00000000000E+00 0.  1.
         23    2    1    2    0    0  0.00000000000E+00  0.00000000000E+00  0.11571073647E+04  0.11605491502E+04  0.89313361067E+02 0.  0.
          2    1    3    3  502    0 -0.98471520109E+00 -0.29058412637E+02  0.10189871385E+04  0.10194018587E+04  0.00000000000E+00 0. -1.
         -2    1    3    3    0  502  0.98471520109E+00  0.29058412637E+02  0.13812022621E+03  0.14114729149E+03  0.00000000000E+00 0.  1.
<mgrwt>
<rscale>  0 0.89313361E+02</rscale>
<asrwt>0</asrwt>
<pdfrwt beam="1">  1        1 0.17828065E+00 0.89313361E+02</pdfrwt>
<pdfrwt beam="2">  1       -1 0.26475365E-03 0.89313361E+02</pdfrwt>
<totfact> 0.13656112E+05</totfact>
</mgrwt>
</event>
<event>
 5    1  0.3921687E+001  0.9059309E+02  0.7546771E-02  0.1301422E+00
          4   -1    0    0  501    0  0.00000000000E+00  0.00000000000E+00  0.11018953238E+04  0.11018953238E+04  0.00000000000E+00 0.  1.
         -4   -1    0    0    0  501 -0.00000000000E+00 -0.00000000000E+00 -0.18620436143E+01  0.18620436143E+01  0.00000000000E+00 0. -1.
         23    2    1    2    0    0  0.00000000000E+00  0.00000000000E+00  0.11000332802E+04  0.11037573675E+04  0.90593093587E+02 0.  0.
          2    1    3    3  502    0 -0.31494108541E+02 -0.27219015225E+02  0.76763215506E+03  0.76875996198E+03  0.00000000000E+00 0. -1.
         -2    1    3    3    0  502  0.31494108541E+02  0.27219015225E+02  0.33240112517E+03  0.33499740547E+03  0.00000000000E+00 0.  1.
<mgrwt>
<rscale>  0 0.90593094E+02</rscale>
<asrwt>0</asrwt>
<pdfrwt beam="1">  1        4 0.16952184E+00 0.90593094E+02</pdfrwt>
<pdfrwt beam="2">  1       -4 0.28646913E-03 0.90593094E+02</pdfrwt>
<totfact> 0.64742746E+03</totfact>
</mgrwt>
</event>
<event>
 5    1  0.3921687E+001  0.9422931E+02  0.7546771E-02  0.1292921E+00
         -1   -1    0    0    0  501 -0.00000000000E+00  0.00000000000E+00  0.76342923722E+01  0.76342923722E+01  0.00000000000E+00 0.  1.
          1   -1    0    0  501    0  0.00000000000E+00 -0.00000000000E+00 -0.29076573095E+03  0.29076573095E+03  0.00000000000E+00 0. -1.
         23    2    1    2    0    0  0.00000000000E+00  0.00000000000E+00 -0.28313143858E+03  0.29840002332E+03  0.94229307583E+02 0.  0.
          2    1    3    3  502    0  0.93910473942E+01 -0.43009066268E+02 -0.88404121439E+02  0.98758595777E+02  0.00000000000E+00 0. -1.
         -2    1    3    3    0  502 -0.93910473942E+01  0.43009066268E+02 -0.19472731714E+03  0.19964142755E+03  0.00000000000E+00 0.  1.
<mgrwt>
<rscale>  0 0.94229308E+02</rscale>
<asrwt>0</asrwt>
<pdfrwt beam="2">  1        1 0.44733192E-01 0.94229308E+02</pdfrwt>
<pdfrwt beam="1">  1       -1 0.11745064E-02 0.94229308E+02</pdfrwt>
<totfact> 0.11663087E+05</totfact>
</mgrwt>
</event>
<event>
 5    1  0.3921687E+001  0.8881820E+02  0.7546771E-02  0.1305739E+00
          3   -1    0    0  501    0  0.00000000000E+00  0.00000000000E+00  0.42664168962E+02  0.42664168962E+02  0.00000000000E+00 0. -1.
         -3   -1    0    0    0  501 -0.00000000000E+00 -0.00000000000E+00 -0.46225396221E+02  0.46225396221E+02  0.00000000000E+00 0.  1.
         23    2    1    2    0    0  0.00000000000E+00  0.00000000000E+00 -0.35612272584E+01  0.88889565183E+02  0.88818198917E+02 0.  0.
          2    1    3    3  502    0  0.36217902796E+02  0.18804163887E+02 -0.19311396274E+02  0.45147127134E+02  0.00000000000E+00 0.  1.
         -2    1    3    3    0  502 -0.36217902796E+02 -0.18804163887E+02  0.15750169016E+02  0.43742438049E+02  0.00000000000E+00 0. -1.
<mgrwt>
<rscale>  0 0.88818199E+02</rscale>
<asrwt>0</asrwt>
<pdfrwt beam="1">  1        3 0.65637184E-02 0.88818199E+02</pdfrwt>
<pdfrwt beam="2">  1       -3 0.71115993E-02 0.88818199E+02</pdfrwt>
<totfact> 0.38137271E+04</totfact>
</mgrwt>
</event>
<event>
 5    1  0.3921687E+001  0.9104475E+02  0.7546771E-02  0.1300341E+00
         -2   -1    0    0    0  501 -0.00000000000E+00  0.00000000000E+00  0.56839261657E+02  0.56839261657E+02  0.00000000000E+00 0.  1.
          2   -1    0    0  501    0  0.00000000000E+00 -0.00000000000E+00 -0.36458722084E+02  0.36458722084E+02  0.00000000000E+00 0. -1.
         23    2    1    2    0    0  0.00000000000E+00  0.00000000000E+00  0.20380539573E+02  0.93297983740E+02  0.91044754801E+02 0.  0.
          2    1    3    3  502    0 -0.34955196663E+02 -0.11827091637E+02 -0.17125402338E+02  0.40682001863E+02  0.00000000000E+00 0. -1.
         -2    1    3    3    0  502  0.34955196663E+02  0.11827091637E+02  0.37505941910E+02  0.52615981878E+02  0.00000000000E+00 0.  1.
<mgrwt>
<rscale>  0 0.91044755E+02</rscale>
<asrwt>0</asrwt>
<pdfrwt beam="2">  1        2 0.56090341E-02 0.91044755E+02</pdfrwt>
<pdfrwt beam="1">  1       -2 0.87445019E-02 0.91044755E+02</pdfrwt>
<totfact> 0.93518362E+04</totfact>
</mgrwt>
</event>
<event>
 5    1  0.3921687E+001  0.9194873E+02  0.7546771E-02  0.1298200E+00
         -4   -1    0    0    0  501 -0.00000000000E+00  0.00000000000E+00  0.12072214497E+02  0.12072214497E+02  0.00000000000E+00 0. -1.
          4   -1    0    0  501    0  0.00000000000E+00 -0.00000000000E+00 -0.17508321130E+03  0.17508321130E+03  0.00000000000E+00 0.  1.
         23    2    1    2    0    0  0.00000000000E+00  0.00000000000E+00 -0.16301099681E+03  0.18715542580E+03  0.91948726618E+02 0.  0.
          2    1    3    3  502    0 -0.38535394809E+02  0.21241621492E+02 -0.10862025128E+03  0.11719446286E+03  0.00000000000E+00 0. -1.
         -2    1    3    3    0  502  0.38535394809E+02 -0.21241621492E+02 -0.54390745522E+02  0.69960962937E+02  0.00000000000E+00 0.  1.
<mgrwt>
<rscale>  0 0.91948727E+02</rscale>
<asrwt>0</asrwt>
<pdfrwt beam="2">  1        4 0.26935880E-01 0.91948727E+02</pdfrwt>
<pdfrwt beam="1">  1       -4 0.18572636E-02 0.91948727E+02</pdfrwt>
<totfact> 0.21443735E+04</totfact>
</mgrwt>
</event>
<event>
 5    1  0.3921687E+001  0.9121344E+02  0.7546771E-02  0.1299940E+00
          1   -1    0    0  501    0  0.00000000000E+00  0.00000000000E+00  0.49643110155E+02  0.49643110155E+02  0.00000000000E+00 0. -1.
         -1   -1    0    0    0  501 -0.00000000000E+00 -0.00000000000E+00 -0.41898517351E+02  0.41898517351E+02  0.00000000000E+00 0.  1.
         23    2    1    2    0    0  0.00000000000E+00  0.00000000000E+00  0.77445928044E+01  0.91541627506E+02  0.91213435681E+02 0.  0.
          2    1    3    3  502    0  0.33068007551E+02  0.84719179887E+01  0.34225226739E+02  0.48338728398E+02  0.00000000000E+00 0. -1.
         -2    1    3    3    0  502 -0.33068007551E+02 -0.84719179887E+01 -0.26480633934E+02  0.43202899108E+02  0.00000000000E+00 0.  1.
<mgrwt>
<rscale>  0 0.91213436E+02</rscale>
<asrwt>0</asrwt>
<pdfrwt beam="1">  1        1 0.76374015E-02 0.91213436E+02</pdfrwt>
<pdfrwt beam="2">  1       -1 0.64459258E-02 0.91213436E+02</pdfrwt>
<totfact> 0.93557997E+04</totfact>
</mgrwt>
</event>
<event>
 5    1  0.3921687E+001  0.9011394E+02  0.7546771E-02  0.1302576E+00
          1   -1    0    0  501    0  0.00000000000E+00  0.00000000000E+00  0.10941447177E+04  0.10941447177E+04  0.00000000000E+00 0. -1.
         -1   -1    0    0    0  501 -0.00000000000E+00 -0.00000000000E+00 -0.18554499465E+01  0.18554499465E+01  0.00000000000E+00 0.  1.
         23    2    1    2    0    0  0.00000000000E+00  0.00000000000E+00  0.10922892678E+04  0.10960001677E+04  0.90113944714E+02 0.  0.
          2    1    3    3  502    0 -0.16713010392E+02 -0.38611620509E+02  0.74223783249E+03  0.74342933890E+03  0.00000000000E+00 0. -1.
         -2    1    3    3    0  502  0.16713010392E+02  0.38611620509E+02  0.35005143530E+03  0.35257082879E+03  0.00000000000E+00 0.  1.
<mgrwt>
<rscale>  0 0.90113945E+02</rscale>
<asrwt>0</asrwt>
<pdfrwt beam="1">  1        1 0.16832944E+00 0.90113945E+02</pdfrwt>
<pdfrwt beam="2">  1       -1 0.28545471E-03 0.90113945E+02</pdfrwt>
<totfact> 0.13641906E+05</totfact>
</mgrwt>
</event>
<event>
 5    1  0.3921687E+001  0.9689637E+02  0.7546771E-02  0.1286961E+00
          2   -1    0    0  501    0  0.00000000000E+00  0.00000000000E+00  0.35575456802E+03  0.35575456802E+03  0.00000000000E+00 0. -1.
         -2   -1    0    0    0  501 -0.00000000000E+00 -0.00000000000E+00 -0.65978817561E+01  0.65978817561E+01  0.00000000000E+00 0.  1.
         23    2    1    2    0    0  0.00000000000E+00  0.00000000000E+00  0.34915668627E+03  0.36235244978E+03  0.96896368848E+02 0.  0.
          2    1    3    3  502    0 -0.41981933028E+02 -0.66303413825E+01  0.26154143908E+03  0.26497239193E+03  0.00000000000E+00 0. -1.
         -2    1    3    3    0  502  0.41981933028E+02  0.66303413825E+01  0.87615247191E+02  0.97380057856E+02  0.00000000000E+00 0.  1.
<mgrwt>
<rscale>  0 0.96896369E+02</rscale>
<asrwt>0</asrwt>
<pdfrwt beam="1">  1        2 0.54731457E-01 0.96896369E+02</pdfrwt>
<pdfrwt beam="2">  1       -2 0.10150590E-02 0.96896369E+02</pdfrwt>
<totfact> 0.16264642E+05</totfact>
</mgrwt>
</event>
<event>
 5    1  0.3921687E+001  0.8663471E+02  0.7546771E-02  0.1311212E+00
         -1   -1    0    0    0  501 -0.00000000000E+00  0.00000000000E+00  0.65041591195E+00  0.65041591195E+00  0.00000000000E+00 0. -1.
          1   -1    0    0  501    0  0.00000000000E+00 -0.00000000000E+00 -0.28849131808E+04  0.28849131808E+04  0.00000000000E+00 0.  1.
         23    2    1    2    0    0  0.00000000000E+00  0.00000000000E+00 -0.28842627649E+04  0.28855635967E+04  0.86634714460E+02 0.  0.
          2    1    3    3  502    0  0.17825391381E+01  0.42054917324E+02 -0.11014845309E+04  0.11022885128E+04  0.00000000000E+00 0. -1.
         -2    1    3    3    0  502 -0.17825391381E+01 -0.42054917324E+02 -0.17827782339E+04  0.17832750839E+04  0.00000000000E+00 0.  1.
<mgrwt>
<rscale>  0 0.86634714E+02</rscale>
<asrwt>0</asrwt>
<pdfrwt beam="2">  1        1 0.44384203E+00 0.86634714E+02</pdfrwt>
<pdfrwt beam="1">  1       -1 0.10006190E-03 0.86634714E+02</pdfrwt>
<totfact> 0.40838313E+04</totfact>
</mgrwt>
</event>
<event>
 5    1  0.3921687E+001  0.9450914E+02  0.7546771E-02  0.1292285E+00
          2   -1    0    0  501    0  0.00000000000E+00  0.00000000000E+00  0.23367464581E+04  0.23367464581E+04  0.00000000000E+00 0. -1.
         -2   -1    0    0    0  501 -0.00000000000E+00 -0.00000000000E+00 -0.95559986917E+00  0.95559986917E+00  0.00000000000E+00 0.  1.
         23    2    1    2    0    0  0.00000000000E+00  0.00000000000E+00  0.23357908582E+04  0.23377020580E+04  0.94509144735E+02 0.  0.
          2    1    3    3  502    0 -0.68913585165E+01  0.46726960245E+02  0.11320936492E+04  0.11330785190E+04  0.00000000000E+00 0.  1.
         -2    1    3    3    0  502  0.68913585165E+01 -0.46726960245E+02  0.12036972090E+04  0.12046235390E+04  0.00000000000E+00 0. -1.
<mgrwt>
<rscale>  0 0.94509145E+02</rscale>
<asrwt>0</asrwt>
<pdfrwt beam="1">  1        2 0.35949488E+00 0.94509145E+02</pdfrwt>
<pdfrwt beam="2">  1       -2 0.14701723E-03 0.94509145E+02</pdfrwt>
<totfact> 0.14960516E+05</totfact>
</mgrwt>
</event>
<event>
 5    1  0.3921687E+001  0.8901215E+02  0.7546771E-02  0.1305262E+00
          2   -1    0    0  501    0  0.00000000000E+00  0.00000000000E+00  0.12589209861E+04  0.12589209861E+04  0.00000000000E+00 0.  1.
         -2   -1    0    0    0  501 -0.00000000000E+00 -0.00000000000E+00 -0.15734035382E+01  0.15734035382E+01  0.00000000000E+00 0. -1.
         23    2    1    2    0    0  0.00000000000E+00  0.00000000000E+00  0.12573475826E+04  0.12604943897E+04  0.89012150495E+02 0.  0.
          2    1    3    3  502    0 -0.31102636117E+01  0.43974180238E+02  0.54208524458E+03  0.54387481525E+03  0.00000000000E+00 0. -1.
         -2    1    3    3    0  502  0.31102636117E+01 -0.43974180238E+02  0.71526233800E+03  0.71661957441E+03  0.00000000000E+00 0.  1.
<mgrwt>
<rscale>  0 0.89012150E+02</rscale>
<asrwt>0</asrwt>
<pdfrwt beam="1">  1        2 0.19367935E+00 0.89012150E+02</pdfrwt>
<pdfrwt beam="2">  1       -2 0.24206309E-03 0.89012150E+02</pdfrwt>
<totfact> 0.26321109E+05</totfact>
</mgrwt>
</event>
<event>
 5    1  0.3921687E+001  0.9168039E+02  0.7546771E-02  0.1298833E+00
          2   -1    0    0  501    0  0.00000000000E+00  0.00000000000E+00  0.13884062197E+04  0.13884062197E+04  0.00000000000E+00 0. -1.
         -2   -1    0    0    0  501 -0.00000000000E+00 -0.00000000000E+00 -0.15134789762E+01  0.15134789762E+01  0.00000000000E+00 0.  1.
         23    2    1    2    0    0  0.00000000000E+00  0.00000000000E+00  0.13868927407E+04  0.13899196986E+04  0.91680393191E+02 0.  0.
          2    1    3    3  502    0 -0.27083462703E+02  0.19412823150E+02  0.11706893465E+04  0.11711634888E+04  0.00000000000E+00 0. -1.
         -2    1    3    3    0  502  0.27083462703E+02 -0.19412823150E+02  0.21620339422E+03  0.21875620980E+03  0.00000000000E+00 0.  1.
<mgrwt>
<rscale>  0 0.91680393E+02</rscale>
<asrwt>0</asrwt>
<pdfrwt beam="1">  1        2 0.21359994E+00 0.91680393E+02</pdfrwt>
<pdfrwt beam="2">  1       -2 0.23284403E-03 0.91680393E+02</pdfrwt>
<totfact> 0.23847377E+05</totfact>
</mgrwt>
</event>
<event>
 5    1  0.3921687E+001  0.9134988E+02  0.7546771E-02  0.1299615E+00
         -2   -1    0    0    0  501 -0.00000000000E+00  0.00000000000E+00  0.43010651366E+02  0.43010651366E+02  0.00000000000E+00 0.  1.
          2   -1    0    0  501    0  0.00000000000E+00 -0.00000000000E+00 -0.48504271320E+02  0.48504271320E+02  0.00000000000E+00 0. -1.
         23    2    1    2    0    0  0.00000000000E+00  0.00000000000E+00 -0.54936199534E+01  0.91514922686E+02  0.91349883492E+02 0.  0.
          2    1    3    3  502    0 -0.18079040983E+02  0.30774376260E+02 -0.31298938904E+02  0.47471439136E+02  0.00000000000E+00 0. -1.
         -2    1    3    3    0  502  0.18079040983E+02 -0.30774376260E+02  0.25805318951E+02  0.44043483550E+02  0.00000000000E+00 0.  1.
<mgrwt>
<rscale>  0 0.91349883E+02</rscale>
<asrwt>0</asrwt>
<pdfrwt beam="2">  1        2 0.74621956E-02 0.91349883E+02</pdfrwt>
<pdfrwt beam="1">  1       -2 0.66170233E-02 0.91349883E+02</pdfrwt>
<totfact> 0.99736203E+04</totfact>
</mgrwt>
</event>
<event>
 5    1  0.3921687E+001  0.9131182E+02  0.7546771E-02  0.1299706E+00
          1   -1    0    0  501    0  0.00000000000E+00  0.00000000000E+00  0.68476716959E+03  0.68476716959E+03  0.00000000000E+00 0. -1.
         -1   -1    0    0    0  501 -0.00000000000E+00 -0.00000000000E+00 -0.30440447827E+01  0.30440447827E+01  0.00000000000E+00 0.  1.
         23    2    1    2    0    0  0.00000000000E+00  0.00000000000E+00  0.68172312481E+03  0.68781121438E+03  0.91311815883E+02 0.  0.
          2    1    3    3  502    0 -0.14272659850E+02  0.22712144499E+02  0.61914959841E+03  0.61973040553E+03  0.00000000000E+00 0. -1.
         -2    1    3    3    0  502  0.14272659850E+02 -0.22712144499E+02  0.62573526400E+02  0.68080808845E+02  0.00000000000E+00 0.  1.
<mgrwt>
<rscale>  0 0.91311816E+02</rscale>
<asrwt>0</asrwt>
<pdfrwt beam="1">  1        1 0.10534867E+00 0.91311816E+02</pdfrwt>
<pdfrwt beam="2">  1       -1 0.46831513E-03 0.91311816E+02</pdfrwt>
<totfact> 0.14163111E+05</totfact>
</mgrwt>
</event>
<event>
 5    1  0.3921687E+001  0.9244598E+02  0.7546771E-02  0.1297034E+00
          2   -1    0    0  501    0  0.00000000000E+00  0.00000000000E+00  0.32326079936E+02  0.32326079936E+02  0.00000000000E+00 0. -1.
         -2   -1    0    0    0  501 -0.00000000000E+00 -0.00000000000E+00 -0.66094144199E+02  0.66094144199E+02  0.00000000000E+00 0.  1.
         23    2    1    2    0    0  0.00000000000E+00  0.00000000000E+00 -0.33768064263E+02  0.98420224135E+02  0.92445975330E+02 0.  0.
          2    1    3    3  502    0 -0.37164907895E+02  0.75613304814E+01  0.11246242701E+02  0.39558590374E+02  0.00000000000E+00 0. -1.
         -2    1    3    3    0  502  0.37164907895E+02 -0.75613304814E+01 -0.45014306964E+02  0.58861633761E+02  0.00000000000E+00 0.  1.
<mgrwt>
<rscale>  0 0.92445975E+02</rscale>
<asrwt>0</asrwt>
<pdfrwt beam="1">  1        2 0.49732431E-02 0.92445975E+02</pdfrwt>
<pdfrwt beam="2">  1       -2 0.10168330E-01 0.92445975E+02</pdfrwt>
<totfact> 0.86623631E+04</totfact>
</mgrwt>
</event>
<event>
 5    1  0.3921687E+001  0.9113086E+02  0.7546771E-02  0.1300136E+00
         -2   -1    0    0    0  501 -0.00000000000E+00  0.00000000000E+00  0.56083002612E+01  0.56083002612E+01  0.00000000000E+00 0.  1.
          2   -1    0    0  501    0  0.00000000000E+00 -0.00000000000E+00 -0.37020282418E+03  0.37020282418E+03  0.00000000000E+00 0. -1.
         23    2    1    2    0    0  0.00000000000E+00  0.00000000000E+00 -0.36459452392E+03  0.37581112444E+03  0.91130864047E+02 0.  0.
          2    1    3    3  502    0 -0.32713861505E+02 -0.25462765290E+02 -0.26028727492E+03  0.26356785585E+03  0.00000000000E+00 0. -1.
         -2    1    3    3    0  502  0.32713861505E+02  0.25462765290E+02 -0.10430724900E+03  0.11224326859E+03  0.00000000000E+00 0.  1.
<mgrwt>
<rscale>  0 0.91130864E+02</rscale>
<asrwt>0</asrwt>
<pdfrwt beam="2">  1        2 0.56954296E-01 0.91130864E+02</pdfrwt>
<pdfrwt beam="1">  1       -2 0.86281519E-03 0.91130864E+02</pdfrwt>
<totfact> 0.19438423E+05</totfact>
</mgrwt>
</event>
<event>
 5    1  0.3921687E+001  0.9195850E+02  0.7546771E-02  0.1298177E+00
         -2   -1    0    0    0  501 -0.00000000000E+00  0.00000000000E+00  0.30676477423E+01  0.30676477423E+01  0.00000000000E+00 0.  1.
          2   -1    0    0  501    0  0.00000000000E+00 -0.00000000000E+00 -0.68915718481E+03  0.68915718481E+03  0.00000000000E+00 0. -1.
         23    2    1    2    0    0  0.00000000000E+00  0.00000000000E+00 -0.68608953706E+03  0.69222483255E+03  0.91958501120E+02 0.  0.
          2    1    3    3  502    0 -0.10864193734E+02 -0.44631036653E+02 -0.35834510428E+03  0.36127714278E+03  0.00000000000E+00 0. -1.
         -2    1    3    3    0  502  0.10864193734E+02  0.44631036653E+02 -0.32774443279E+03  0.33094768977E+03  0.00000000000E+00 0.  1.
<mgrwt>
<rscale>  0 0.91958501E+02</rscale>
<asrwt>0</asrwt>
<pdfrwt beam="2">  1        2 0.10602419E+00 0.91958501E+02</pdfrwt>
<pdfrwt beam="1">  1       -2 0.47194578E-03 0.91958501E+02</pdfrwt>
<totfact> 0.23100683E+05</totfact>
</mgrwt>
</event>
<event>
 5    1  0.3921687E+001  0.9114397E+02  0.7546771E-02  0.1300105E+00
          1   -1    0    0  501    0  0.00000000000E+00  0.00000000000E+00  0.34016647481E+02  0.34016647481E+02  0.00000000000E+00 0. -1.
         -1   -1    0    0    0  501 -0.00000000000E+00 -0.00000000000E+00 -0.61052624495E+02  0.61052624495E+02  0.00000000000E+00 0.  1.
         23    2    1    2    0    0  0.00000000000E+00  0.00000000000E+00 -0.27035977013E+02  0.95069271976E+02  0.91143965357E+02 0.  0.
          2    1    3    3  502    0  0.38460456812E+02 -0.24943327796E+01  0.11847575688E+02  0.40321129497E+02  0.00000000000E+00 0. -1.
         -2    1    3    3    0  502 -0.38460456812E+02  0.24943327796E+01 -0.38883552702E+02  0.54748142479E+02  0.00000000000E+00 0.  1.
<mgrwt>
<rscale>  0 0.91143965E+02</rscale>
<asrwt>0</asrwt>
<pdfrwt beam="1">  1        1 0.52333304E-02 0.91143965E+02</pdfrwt>
<pdfrwt beam="2">  1       -1 0.93927114E-02 0.91143965E+02</pdfrwt>
<totfact> 0.88521273E+04</totfact>
</mgrwt>
</event>
<event>
 5    1  0.3921687E+001  0.8972077E+02  0.7546771E-02  0.1303529E+00
         -3   -1    0    0    0  501 -0.00000000000E+00  0.00000000000E+00  0.16222312679E+03  0.16222312679E+03  0.00000000000E+00 0.  1.
          3   -1    0    0  501    0  0.00000000000E+00 -0.00000000000E+00 -0.12405470887E+02  0.12405470887E+02  0.00000000000E+00 0. -1.
         23    2    1    2    0    0  0.00000000000E+00  0.00000000000E+00  0.14981765590E+03  0.17462859767E+03  0.89720772990E+02 0.  0.
          2    1    3    3  502    0 -0.17897625751E+02  0.35201481537E+02  0.11633399367E+03  0.12285384566E+03  0.00000000000E+00 0.  1.
         -2    1    3    3    0  502  0.17897625751E+02 -0.35201481537E+02  0.33483662232E+02  0.51774752016E+02  0.00000000000E+00 0. -1.
<mgrwt>
<rscale>  0 0.89720773E+02</rscale>
<asrwt>0</asrwt>
<pdfrwt beam="2">  1        3 0.19085341E-02 0.89720773E+02</pdfrwt>
<pdfrwt beam="1">  1       -3 0.24957403E-01 0.89720773E+02</pdfrwt>
<totfact> 0.31189833E+04</totfact>
</mgrwt>
</event>
<event>
 5    1  0.3921687E+001  0.9222887E+02  0.7546771E-02  0.1297542E+00
         -1   -1    0    0    0  501 -0.00000000000E+00  0.00000000000E+00  0.20288582885E+02  0.20288582885E+02  0.00000000000E+00 0.  1.
          1   -1    0    0  501    0  0.00000000000E+00 -0.00000000000E+00 -0.10481466870E+03  0.10481466870E+03  0.00000000000E+00 0. -1.
         23    2    1    2    0    0  0.00000000000E+00  0.00000000000E+00 -0.84526085814E+02  0.12510325158E+03  0.92228869525E+02 0.  0.
          2    1    3    3  502    0 -0.34598906299E+02 -0.10712821741E+02 -0.80979757638E+02  0.88710596964E+02  0.00000000000E+00 0. -1.
         -2    1    3    3    0  502  0.34598906299E+02  0.10712821741E+02 -0.35463281761E+01  0.36392654619E+02  0.00000000000E+00 0.  1.
<mgrwt>
<rscale>  0 0.92228870E+02</rscale>
<asrwt>0</asrwt>
<pdfrwt beam="2">  1        1 0.16125333E-01 0.92228870E+02</pdfrwt>
<pdfrwt beam="1">  1       -1 0.31213205E-02 0.92228870E+02</pdfrwt>
<totfact> 0.10203377E+05</totfact>
</mgrwt>
</event>
<event>
 5    1  0.3921687E+001  0.9197036E+02  0.7546771E-02  0.1298149E+00
          2   -1    0    0  501    0  0.00000000000E+00  0.00000000000E+00  0.23891126990E+03  0.23891126990E+03  0.00000000000E+00 0. -1.
         -2   -1    0    0    0  501 -0.00000000000E+00 -0.00000000000E+00 -0.88511395925E+01  0.88511395925E+01  0.00000000000E+00 0.  1.
         23    2    1    2    0    0  0.00000000000E+00  0.00000000000E+00  0.23006013031E+03  0.24776240950E+03  0.91970364795E+02 0.  0.
          2    1    3    3  502    0  0.29577997721E+02  0.24284795663E+02  0.18371372926E+03  0.18765751668E+03  0.00000000000E+00 0. -1.
         -2    1    3    3    0  502 -0.29577997721E+02 -0.24284795663E+02  0.46346401055E+02  0.60104892816E+02  0.00000000000E+00 0.  1.
<mgrwt>
<rscale>  0 0.91970365E+02</rscale>
<asrwt>0</asrwt>
<pdfrwt beam="1">  1        2 0.36755575E-01 0.91970365E+02</pdfrwt>
<pdfrwt beam="2">  1       -2 0.13617140E-02 0.91970365E+02</pdfrwt>
<totfact> 0.16127480E+05</totfact>
</mgrwt>
</event>
<event>
 5    1  0.3921687E+001  0.5765433E+02  0.7546771E-02  0.1407948E+00
         -4   -1    0    0    0  501 -0.00000000000E+00  0.00000000000E+00  0.61423842682E+02  0.61423842682E+02  0.00000000000E+00 0.  1.
          4   -1    0    0  501    0  0.00000000000E+00 -0.00000000000E+00 -0.13529036792E+02  0.13529036792E+02  0.00000000000E+00 0. -1.
         23    2    1    2    0    0  0.00000000000E+00  0.00000000000E+00  0.47894805889E+02  0.74952879474E+02  0.57654329502E+02 0.  0.
          2    1    3    3  502    0 -0.26721620628E+02  0.53153877106E+01  0.11703059056E+02  0.29652317730E+02  0.00000000000E+00 0. -1.
         -2    1    3    3    0  502  0.26721620628E+02 -0.53153877106E+01  0.36191746833E+02  0.45300561744E+02  0.00000000000E+00 0.  1.
<mgrwt>
<rscale>  0 0.57654330E+02</rscale>
<asrwt>0</asrwt>
<pdfrwt beam="2">  1        4 0.20813903E-02 0.57654330E+02</pdfrwt>
<pdfrwt beam="1">  1       -4 0.94498218E-02 0.57654330E+02</pdfrwt>
<totfact> 0.93768618E+04</totfact>
</mgrwt>
</event>
<event>
 5    1  0.3921687E+001  0.9309422E+02  0.7546771E-02  0.1295527E+00
          3   -1    0    0  501    0  0.00000000000E+00  0.00000000000E+00  0.23993029767E+02  0.23993029767E+02  0.00000000000E+00 0. -1.
         -3   -1    0    0    0  501 -0.00000000000E+00 -0.00000000000E+00 -0.90302618399E+02  0.90302618399E+02  0.00000000000E+00 0.  1.
         23    2    1    2    0    0  0.00000000000E+00  0.00000000000E+00 -0.66309588632E+02  0.11429564817E+03  0.93094219183E+02 0.  0.
          2    1    3    3  502    0 -0.24204854447E+02  0.27571587939E+02  0.20145063489E+01  0.36744056337E+02  0.00000000000E+00 0. -1.
         -2    1    3    3    0  502  0.24204854447E+02 -0.27571587939E+02 -0.68324094981E+02  0.77551591829E+02  0.00000000000E+00 0.  1.
<mgrwt>
<rscale>  0 0.93094219E+02</rscale>
<asrwt>0</asrwt>
<pdfrwt beam="1">  1        3 0.36912353E-02 0.93094219E+02</pdfrwt>
<pdfrwt beam="2">  1       -3 0.13892711E-01 0.93094219E+02</pdfrwt>
<totfact> 0.31788051E+04</totfact>
</mgrwt>
</event>
<event>
 5    1  0.3921687E+001  0.8729478E+02  0.7546771E-02  0.1309538E+00
         -2   -1    0    0    0  501 -0.00000000000E+00  0.00000000000E+00  0.14821477148E+01  0.14821477148E+01  0.00000000000E+00 0.  1.
          2   -1    0    0  501    0  0.00000000000E+00 -0.00000000000E+00 -0.12853608312E+04  0.12853608312E+04  0.00000000000E+00 0. -1.
         23    2    1    2    0    0  0.00000000000E+00  0.00000000000E+00 -0.12838786834E+04  0.12868429789E+04  0.87294779193E+02 0.  0.
          2    1    3    3  502    0 -0.11409457452E+02  0.16439655856E+02 -0.12137549239E+04  0.12139198711E+04  0.00000000000E+00 0. -1.
         -2    1    3    3    0  502  0.11409457452E+02 -0.16439655856E+02 -0.70123759524E+02  0.72923107818E+02  0.00000000000E+00 0.  1.
<mgrwt>
<rscale>  0 0.87294779E+02</rscale>
<asrwt>0</asrwt>
<pdfrwt beam="2">  1        2 0.19774818E+00 0.87294779E+02</pdfrwt>
<pdfrwt beam="1">  1       -2 0.22802231E-03 0.87294779E+02</pdfrwt>
<totfact> 0.27604456E+05</totfact>
</mgrwt>
</event>
<event>
 5    1  0.3921687E+001  0.9176981E+02  0.7546771E-02  0.1298622E+00
          1   -1    0    0  501    0  0.00000000000E+00  0.00000000000E+00  0.22916405006E+04  0.22916405006E+04  0.00000000000E+00 0. -1.
         -1   -1    0    0    0  501 -0.00000000000E+00 -0.00000000000E+00 -0.91874127955E+00  0.91874127955E+00  0.00000000000E+00 0.  1.
         23    2    1    2    0    0  0.00000000000E+00  0.00000000000E+00  0.22907217594E+04  0.22925592419E+04  0.91769814772E+02 0.  0.
          2    1    3    3  502    0  0.41925179135E+02  0.14103756710E+02  0.14500836095E+04  0.14507581160E+04  0.00000000000E+00 0. -1.
         -2    1    3    3    0  502 -0.41925179135E+02 -0.14103756710E+02  0.84063814984E+03  0.84180112590E+03  0.00000000000E+00 0.  1.
<mgrwt>
<rscale>  0 0.91769815E+02</rscale>
<asrwt>0</asrwt>
<pdfrwt beam="1">  1        1 0.35255550E+00 0.91769815E+02</pdfrwt>
<pdfrwt beam="2">  1       -1 0.14134665E-03 0.91769815E+02</pdfrwt>
<totfact> 0.61955170E+04</totfact>
</mgrwt>
</event>
<event>
 5    1  0.3921687E+001  0.8436910E+02  0.7546771E-02  0.1317091E+00
         -1   -1    0    0    0  501 -0.00000000000E+00  0.00000000000E+00  0.30678537400E+03  0.30678537400E+03  0.00000000000E+00 0.  1.
          1   -1    0    0  501    0  0.00000000000E+00 -0.00000000000E+00 -0.58005901749E+01  0.58005901749E+01  0.00000000000E+00 0. -1.
         23    2    1    2    0    0  0.00000000000E+00  0.00000000000E+00  0.30098478383E+03  0.31258596418E+03  0.84369099231E+02 0.  0.
          2    1    3    3  502    0  0.32940311342E+02  0.24174997194E+02  0.11162686502E+03  0.11886989356E+03  0.00000000000E+00 0. -1.
         -2    1    3    3    0  502 -0.32940311342E+02 -0.24174997194E+02  0.18935791881E+03  0.19371607062E+03  0.00000000000E+00 0.  1.
<mgrwt>
<rscale>  0 0.84369099E+02</rscale>
<asrwt>0</asrwt>
<pdfrwt beam="2">  1        1 0.89239872E-03 0.84369099E+02</pdfrwt>
<pdfrwt beam="1">  1       -1 0.47197737E-01 0.84369099E+02</pdfrwt>
<totfact> 0.73515953E+04</totfact>
</mgrwt>
</event>
<event>
 5    1  0.3921687E+001  0.9097603E+02  0.7546771E-02  0.1300505E+00
         -1   -1    0    0    0  501 -0.00000000000E+00  0.00000000000E+00  0.26315638504E+01  0.26315638504E+01  0.00000000000E+00 0.  1.
          1   -1    0    0  501    0  0.00000000000E+00 -0.00000000000E+00 -0.78628515427E+03  0.78628515427E+03  0.00000000000E+00 0. -1.
         23    2    1    2    0    0  0.00000000000E+00  0.00000000000E+00 -0.78365359042E+03  0.78891671813E+03  0.90976031746E+02 0.  0.
          2    1    3    3  502    0 -0.22532922896E+02  0.33934152010E+02 -0.56739395705E+03  0.56885425356E+03  0.00000000000E+00 0. -1.
         -2    1    3    3    0  502  0.22532922896E+02 -0.33934152010E+02 -0.21625963337E+03  0.22006246457E+03  0.00000000000E+00 0.  1.
<mgrwt>
<rscale>  0 0.90976032E+02</rscale>
<asrwt>0</asrwt>
<pdfrwt beam="2">  1        1 0.12096726E+00 0.90976032E+02</pdfrwt>
<pdfrwt beam="1">  1       -1 0.40485492E-03 0.90976032E+02</pdfrwt>
<totfact> 0.14232560E+05</totfact>
</mgrwt>
</event>
<event>
 5    1  0.3921687E+001  0.9029140E+02  0.7546771E-02  0.1302148E+00
         -2   -1    0    0    0  501 -0.00000000000E+00  0.00000000000E+00  0.14500668533E+01  0.14500668533E+01  0.00000000000E+00 0.  1.
          2   -1    0    0  501    0  0.00000000000E+00 -0.00000000000E+00 -0.14055449332E+04  0.14055449332E+04  0.00000000000E+00 0. -1.
         23    2    1    2    0    0  0.00000000000E+00  0.00000000000E+00 -0.14040948663E+04  0.14069950001E+04  0.90291397562E+02 0.  0.
          2    1    3    3  502    0  0.41544425629E+02  0.55923907105E+01 -0.44086888937E+03  0.44285730405E+03  0.00000000000E+00 0. -1.
         -2    1    3    3    0  502 -0.41544425629E+02 -0.55923907105E+01 -0.96322597698E+03  0.96413769601E+03  0.00000000000E+00 0.  1.
<mgrwt>
<rscale>  0 0.90291398E+02</rscale>
<asrwt>0</asrwt>
<pdfrwt beam="2">  1        2 0.21623870E+00 0.90291398E+02</pdfrwt>
<pdfrwt beam="1">  1       -2 0.22308616E-03 0.90291398E+02</pdfrwt>
<totfact> 0.24740280E+05</totfact>
</mgrwt>
</event>
<event>
 5    1  0.3921687E+001  0.9059635E+02  0.7546771E-02  0.1301414E+00
          2   -1    0    0  501    0  0.00000000000E+00  0.00000000000E+00  0.43661000964E+03  0.43661000964E+03  0.00000000000E+00 0. -1.
         -2   -1    0    0    0  501 -0.00000000000E+00 -0.00000000000E+00 -0.46996734314E+01  0.46996734314E+01  0.00000000000E+00 0.  1.
         23    2    1    2    0    0  0.00000000000E+00  0.00000000000E+00  0.43191033621E+03  0.44130968307E+03  0.90596345669E+02 0.  0.
          2    1    3    3  502    0  0.91512128020E+01 -0.39477150779E+02  0.31455676638E+03  0.31715634852E+03  0.00000000000E+00 0. -1.
         -2    1    3    3    0  502 -0.91512128020E+01  0.39477150779E+02  0.11735356983E+03  0.12415333455E+03  0.00000000000E+00 0.  1.
<mgrwt>
<rscale>  0 0.90596346E+02</rscale>
<asrwt>0</asrwt>
<pdfrwt beam="1">  1        2 0.67170739E-01 0.90596346E+02</pdfrwt>
<pdfrwt beam="2">  1       -2 0.72302703E-03 0.90596346E+02</pdfrwt>
<totfact> 0.20939790E+05</totfact>
</mgrwt>
</event>
<event>
 5    1  0.3921687E+001  0.9023330E+02  0.7546771E-02  0.1302288E+00
          1   -1    0    0  501    0  0.00000000000E+00  0.00000000000E+00  0.14231228648E+04  0.14231228648E+04  0.00000000000E+00 0. -1.
         -1   -1    0    0    0  501 -0.00000000000E+00 -0.00000000000E+00 -0.14303136784E+01  0.14303136784E+01  0.00000000000E+00 0.  1.
         23    2    1    2    0    0  0.00000000000E+00  0.00000000000E+00  0.14216925511E+04  0.14245531785E+04  0.90233299830E+02 0.  0.
          2    1    3    3  502    0 -0.12133579149E+02 -0.29469517328E+02  0.12150162469E+04  0.12154341432E+04  0.00000000000E+00 0. -1.
         -2    1    3    3    0  502  0.12133579149E+02  0.29469517328E+02  0.20667630425E+03  0.20911903532E+03  0.00000000000E+00 0.  1.
<mgrwt>
<rscale>  0 0.90233300E+02</rscale>
<asrwt>0</asrwt>
<pdfrwt beam="1">  1        1 0.21894085E+00 0.90233300E+02</pdfrwt>
<pdfrwt beam="2">  1       -1 0.22004940E-03 0.90233300E+02</pdfrwt>
<totfact> 0.11829761E+05</totfact>
</mgrwt>
</event>
<event>
 5    1  0.3921687E+001  0.8943478E+02  0.7546771E-02  0.1304226E+00
          1   -1    0    0  501    0  0.00000000000E+00  0.00000000000E+00  0.14441000913E+03  0.14441000913E+03  0.00000000000E+00 0. -1.
         -1   -1    0    0    0  501 -0.00000000000E+00 -0.00000000000E+00 -0.13846995497E+02  0.13846995497E+02  0.00000000000E+00 0.  1.
         23    2    1    2    0    0  0.00000000000E+00  0.00000000000E+00  0.13056301364E+03  0.15825700463E+03  0.89434775029E+02 0.  0.
          2    1    3    3  502    0 -0.10862373852E+02  0.32075555225E+02  0.11695683696E+03  0.12176097125E+03  0.00000000000E+00 0. -1.
         -2    1    3    3    0  502  0.10862373852E+02 -0.32075555225E+02  0.13606176679E+02  0.36496033380E+02  0.00000000000E+00 0.  1.
<mgrwt>
<rscale>  0 0.89434775E+02</rscale>
<asrwt>0</asrwt>
<pdfrwt beam="1">  1        1 0.22216923E-01 0.89434775E+02</pdfrwt>
<pdfrwt beam="2">  1       -1 0.21303071E-02 0.89434775E+02</pdfrwt>
<totfact> 0.11729841E+05</totfact>
</mgrwt>
</event>
<event>
 5    1  0.3921687E+001  0.9131605E+02  0.7546771E-02  0.1299696E+00
         -2   -1    0    0    0  501 -0.00000000000E+00  0.00000000000E+00  0.51097429998E+02  0.51097429998E+02  0.00000000000E+00 0.  1.
          2   -1    0    0  501    0  0.00000000000E+00 -0.00000000000E+00 -0.40797657076E+02  0.40797657076E+02  0.00000000000E+00 0. -1.
         23    2    1    2    0    0  0.00000000000E+00  0.00000000000E+00  0.10299772922E+02  0.91895087073E+02  0.91316053934E+02 0.  0.
          2    1    3    3  502    0  0.16936326850E+02 -0.16113873727E+02 -0.34318177209E+02  0.41523889276E+02  0.00000000000E+00 0. -1.
         -2    1    3    3    0  502 -0.16936326850E+02  0.16113873727E+02  0.44617950131E+02  0.50371197797E+02  0.00000000000E+00 0.  1.
<mgrwt>
<rscale>  0 0.91316054E+02</rscale>
<asrwt>0</asrwt>
<pdfrwt beam="2">  1        2 0.62765627E-02 0.91316054E+02</pdfrwt>
<pdfrwt beam="1">  1       -2 0.78611430E-02 0.91316054E+02</pdfrwt>
<totfact> 0.95454481E+04</totfact>
</mgrwt>
</event>
<event>
 5    1  0.3921687E+001  0.9148527E+02  0.7546771E-02  0.1299294E+00
          1   -1    0    0  501    0  0.00000000000E+00  0.00000000000E+00  0.80566742555E+03  0.80566742555E+03  0.00000000000E+00 0. -1.
         -1   -1    0    0    0  501 -0.00000000000E+00 -0.00000000000E+00 -0.25970870550E+01  0.25970870550E+01  0.00000000000E+00 0.  1.
         23    2    1    2    0    0  0.00000000000E+00  0.00000000000E+00  0.80307033850E+03  0.80826451261E+03  0.91485265296E+02 0.  0.
          2    1    3    3  502    0 -0.97766685568E+00  0.42509719849E+02  0.55051717184E+03  0.55215685145E+03  0.00000000000E+00 0. -1.
         -2    1    3    3    0  502  0.97766685568E+00 -0.42509719849E+02  0.25255316666E+03  0.25610766116E+03  0.00000000000E+00 0.  1.
<mgrwt>
<rscale>  0 0.91485265E+02</rscale>
<asrwt>0</asrwt>
<pdfrwt beam="1">  1        1 0.12394864E+00 0.91485265E+02</pdfrwt>
<pdfrwt beam="2">  1       -1 0.39955250E-03 0.91485265E+02</pdfrwt>
<totfact> 0.13995396E+05</totfact>
</mgrwt>
</event>
<event>
 5    1  0.3921687E+001  0.8848437E+02  0.7546771E-02  0.1306564E+00
         -1   -1    0    0    0  501 -0.00000000000E+00  0.00000000000E+00  0.19942399796E+03  0.19942399796E+03  0.00000000000E+00 0.  1.
          1   -1    0    0  501    0  0.00000000000E+00 -0.00000000000E+00 -0.98151226618E+01  0.98151226618E+01  0.00000000000E+00 0. -1.
         23    2    1    2    0    0  0.00000000000E+00  0.00000000000E+00  0.18960887530E+03  0.20923912062E+03  0.88484371539E+02 0.  0.
          2    1    3    3  502    0  0.35334288787E+02  0.21852910823E+02  0.58840032026E+02  0.72029237427E+02  0.00000000000E+00 0. -1.
         -2    1    3    3    0  502 -0.35334288787E+02 -0.21852910823E+02  0.13076884327E+03  0.13720988319E+03  0.00000000000E+00 0.  1.
<mgrwt>
<rscale>  0 0.88484372E+02</rscale>
<asrwt>0</asrwt>
<pdfrwt beam="2">  1        1 0.15100190E-02 0.88484372E+02</pdfrwt>
<pdfrwt beam="1">  1       -1 0.30680612E-01 0.88484372E+02</pdfrwt>
<totfact> 0.75116218E+04</totfact>
</mgrwt>
</event>
<event>
 5    1  0.3921687E+001  0.9350379E+02  0.7546771E-02  0.1294582E+00
         -1   -1    0    0    0  501 -0.00000000000E+00  0.00000000000E+00  0.16573267921E+02  0.16573267921E+02  0.00000000000E+00 0.  1.
          1   -1    0    0  501    0  0.00000000000E+00 -0.00000000000E+00 -0.13188344445E+03  0.13188344445E+03  0.00000000000E+00 0. -1.
         23    2    1    2    0    0  0.00000000000E+00  0.00000000000E+00 -0.11531017653E+03  0.14845671237E+03  0.93503789425E+02 0.  0.
          2    1    3    3  502    0  0.10855771333E+02 -0.42703854528E+02 -0.82469734608E+02  0.93502535201E+02  0.00000000000E+00 0. -1.
         -2    1    3    3    0  502 -0.10855771333E+02  0.42703854528E+02 -0.32840441917E+02  0.54954177167E+02  0.00000000000E+00 0.  1.
<mgrwt>
<rscale>  0 0.93503789E+02</rscale>
<asrwt>0</asrwt>
<pdfrwt beam="2">  1        1 0.20289761E-01 0.93503789E+02</pdfrwt>
<pdfrwt beam="1">  1       -1 0.25497335E-02 0.93503789E+02</pdfrwt>
<totfact> 0.10231013E+05</totfact>
</mgrwt>
</event>
<event>
 5    1  0.3921687E+001  0.9152219E+02  0.7546771E-02  0.1299207E+00
          1   -1    0    0  501    0  0.00000000000E+00  0.00000000000E+00  0.61068045122E+02  0.61068045122E+02  0.00000000000E+00 0. -1.
         -1   -1    0    0    0  501 -0.00000000000E+00 -0.00000000000E+00 -0.34290891048E+02  0.34290891048E+02  0.00000000000E+00 0.  1.
         23    2    1    2    0    0  0.00000000000E+00  0.00000000000E+00  0.26777154075E+02  0.95358936170E+02  0.91522187076E+02 0.  0.
          2    1    3    3  502    0 -0.30714868241E+02 -0.12670123564E+02 -0.19397077849E+02  0.38473130770E+02  0.00000000000E+00 0.  1.
         -2    1    3    3    0  502  0.30714868241E+02  0.12670123564E+02  0.46174231923E+02  0.56885805399E+02  0.00000000000E+00 0. -1.
<mgrwt>
<rscale>  0 0.91522187E+02</rscale>
<asrwt>0</asrwt>
<pdfrwt beam="1">  1        1 0.93950838E-02 0.91522187E+02</pdfrwt>
<pdfrwt beam="2">  1       -1 0.52755217E-02 0.91522187E+02</pdfrwt>
<totfact> 0.95620581E+04</totfact>
</mgrwt>
</event>
<event>
 5    1  0.3921687E+001  0.8761095E+02  0.7546771E-02  0.1308742E+00
         -1   -1    0    0    0  501 -0.00000000000E+00  0.00000000000E+00  0.17384072682E+01  0.17384072682E+01  0.00000000000E+00 0.  1.
          1   -1    0    0  501    0  0.00000000000E+00 -0.00000000000E+00 -0.11038376798E+04  0.11038376798E+04  0.00000000000E+00 0. -1.
         23    2    1    2    0    0  0.00000000000E+00  0.00000000000E+00 -0.11020992725E+04  0.11055760871E+04  0.87610945559E+02 0.  0.
          2    1    3    3  502    0  0.37198119831E+02  0.20303987740E+02 -0.69098429048E+03  0.69228263140E+03  0.00000000000E+00 0. -1.
         -2    1    3    3    0  502 -0.37198119831E+02 -0.20303987740E+02 -0.41111498203E+03  0.41329345566E+03  0.00000000000E+00 0.  1.
<mgrwt>
<rscale>  0 0.87610946E+02</rscale>
<asrwt>0</asrwt>
<pdfrwt beam="2">  1        1 0.16982143E+00 0.87610946E+02</pdfrwt>
<pdfrwt beam="1">  1       -1 0.26744688E-03 0.87610946E+02</pdfrwt>
<totfact> 0.14647067E+05</totfact>
</mgrwt>
</event>
<event>
 5    1  0.3921687E+001  0.1027077E+03  0.7546771E-02  0.1274703E+00
          2   -1    0    0  501    0  0.00000000000E+00  0.00000000000E+00  0.25860351868E+02  0.25860351868E+02  0.00000000000E+00 0. -1.
         -2   -1    0    0    0  501 -0.00000000000E+00 -0.00000000000E+00 -0.10197923316E+03  0.10197923316E+03  0.00000000000E+00 0.  1.
         23    2    1    2    0    0  0.00000000000E+00  0.00000000000E+00 -0.76118881288E+02  0.12783958502E+03  0.10270771836E+03 0.  0.
          2    1    3    3  502    0  0.19722566517E+02  0.47237822281E+02 -0.32953563318E+02  0.60879625650E+02  0.00000000000E+00 0. -1.
         -2    1    3    3    0  502 -0.19722566517E+02 -0.47237822281E+02 -0.43165317970E+02  0.66959959374E+02  0.00000000000E+00 0.  1.
<mgrwt>
<rscale>  0 0.10270772E+03</rscale>
<asrwt>0</asrwt>
<pdfrwt beam="1">  1        2 0.39785156E-02 0.10270772E+03</pdfrwt>
<pdfrwt beam="2">  1       -2 0.15689113E-01 0.10270772E+03</pdfrwt>
<totfact> 0.58993758E+04</totfact>
</mgrwt>
</event>
<event>
 5    1  0.3921687E+001  0.8990336E+02  0.7546771E-02  0.1303086E+00
          1   -1    0    0  501    0  0.00000000000E+00  0.00000000000E+00  0.17542057141E+01  0.17542057141E+01  0.00000000000E+00 0. -1.
         -1   -1    0    0    0  501 -0.00000000000E+00 -0.00000000000E+00 -0.11518909016E+04  0.11518909016E+04  0.00000000000E+00 0.  1.
         23    2    1    2    0    0  0.00000000000E+00  0.00000000000E+00 -0.11501366958E+04  0.11536451073E+04  0.89903361485E+02 0.  0.
          2    1    3    3  502    0 -0.33599872002E+02 -0.27216974405E+02 -0.73271920042E+03  0.73399396575E+03  0.00000000000E+00 0. -1.
         -2    1    3    3    0  502  0.33599872002E+02  0.27216974405E+02 -0.41741749543E+03  0.41965114152E+03  0.00000000000E+00 0.  1.
<mgrwt>
<rscale>  0 0.89903361E+02</rscale>
<asrwt>0</asrwt>
<pdfrwt beam="1">  1        1 0.26987872E-03 0.89903361E+02</pdfrwt>
<pdfrwt beam="2">  1       -1 0.17721338E+00 0.89903361E+02</pdfrwt>
<totfact> 0.22121744E+04</totfact>
</mgrwt>
</event>
<event>
 4    1  0.3921687E+001  0.5079168E+02  0.7546771E-02  0.1441118E+00
         -3   -1    0    0    0  501 -0.00000000000E+00  0.00000000000E+00  0.64529114388E+01  0.64529114388E+01  0.00000000000E+00 0.  1.
          3   -1    0    0  501    0  0.00000000000E+00 -0.00000000000E+00 -0.99946944510E+02  0.99946944510E+02  0.00000000000E+00 0. -1.
          2    1    1    2  502    0  0.13441975170E+02 -0.21021903674E+02 -0.56648632133E+02  0.61900522236E+02  0.00000000000E+00 0. -1.
         -2    1    1    2    0  502 -0.13441975170E+02  0.21021903674E+02 -0.36845400938E+02  0.44499333712E+02  0.00000000000E+00 0.  1.
<mgrwt>
<rscale>  0 0.50791684E+02</rscale>
<asrwt>0</asrwt>
<pdfrwt beam="2">  1        3 0.15376454E-01 0.50791684E+02</pdfrwt>
<pdfrwt beam="1">  1       -3 0.99275554E-03 0.50791684E+02</pdfrwt>
<totfact> 0.15816541E+05</totfact>
</mgrwt>
</event>
<event>
 5    1  0.3921687E+001  0.8634965E+02  0.7546771E-02  0.1311940E+00
          3   -1    0    0  501    0  0.00000000000E+00  0.00000000000E+00  0.10788327109E+03  0.10788327109E+03  0.00000000000E+00 0. -1.
         -3   -1    0    0    0  501 -0.00000000000E+00 -0.00000000000E+00 -0.17278539082E+02  0.17278539082E+02  0.00000000000E+00 0.  1.
         23    2    1    2    0    0  0.00000000000E+00  0.00000000000E+00  0.90604732007E+02  0.12516181017E+03  0.86349645414E+02 0.  0.
          2    1    3    3  502    0 -0.60150033712E+01 -0.35213999394E+02  0.80446105615E+02  0.88021485602E+02  0.00000000000E+00 0. -1.
         -2    1    3    3    0  502  0.60150033712E+01  0.35213999394E+02  0.10158626392E+02  0.37140324568E+02  0.00000000000E+00 0.  1.
<mgrwt>
<rscale>  0 0.86349645E+02</rscale>
<asrwt>0</asrwt>
<pdfrwt beam="1">  1        3 0.16597426E-01 0.86349645E+02</pdfrwt>
<pdfrwt beam="2">  1       -3 0.26582369E-02 0.86349645E+02</pdfrwt>
<totfact> 0.38104602E+04</totfact>
</mgrwt>
</event>
<event>
 5    1  0.3921687E+001  0.9090756E+02  0.7546771E-02  0.1300669E+00
          1   -1    0    0  501    0  0.00000000000E+00  0.00000000000E+00  0.10193246450E+03  0.10193246450E+03  0.00000000000E+00 0. -1.
         -1   -1    0    0    0  501 -0.00000000000E+00 -0.00000000000E+00 -0.20268775848E+02  0.20268775848E+02  0.00000000000E+00 0.  1.
         23    2    1    2    0    0  0.00000000000E+00  0.00000000000E+00  0.81663688651E+02  0.12220124035E+03  0.90907563483E+02 0.  0.
          2    1    3    3  502    0  0.37902777459E+02  0.51410345388E+01  0.78228242755E+01  0.39041610557E+02  0.00000000000E+00 0.  1.
         -2    1    3    3    0  502 -0.37902777459E+02 -0.51410345388E+01  0.73840864376E+02  0.83159629791E+02  0.00000000000E+00 0. -1.
<mgrwt>
<rscale>  0 0.90907563E+02</rscale>
<asrwt>0</asrwt>
<pdfrwt beam="1">  1        1 0.15681917E-01 0.90907563E+02</pdfrwt>
<pdfrwt beam="2">  1       -1 0.31182733E-02 0.90907563E+02</pdfrwt>
<totfact> 0.10563316E+05</totfact>
</mgrwt>
</event>
<event>
 5    1  0.3921687E+001  0.9086655E+02  0.7546771E-02  0.1300767E+00
          4   -1    0    0  501    0  0.00000000000E+00  0.00000000000E+00  0.31404078762E+02  0.31404078762E+02  0.00000000000E+00 0. -1.
         -4   -1    0    0    0  501 -0.00000000000E+00 -0.00000000000E+00 -0.65729758911E+02  0.65729758911E+02  0.00000000000E+00 0.  1.
         23    2    1    2    0    0  0.00000000000E+00  0.00000000000E+00 -0.34325680149E+02  0.97133837673E+02  0.90866551070E+02 0.  0.
          2    1    3    3  502    0  0.35746005778E+02 -0.73391226045E+01  0.11769464480E+02  0.38342664798E+02  0.00000000000E+00 0. -1.
         -2    1    3    3    0  502 -0.35746005778E+02  0.73391226045E+01 -0.46095144628E+02  0.58791172875E+02  0.00000000000E+00 0.  1.
<mgrwt>
<rscale>  0 0.90866551E+02</rscale>
<asrwt>0</asrwt>
<pdfrwt beam="1">  1        4 0.48313968E-02 0.90866551E+02</pdfrwt>
<pdfrwt beam="2">  1       -4 0.10112270E-01 0.90866551E+02</pdfrwt>
<totfact> 0.26884166E+04</totfact>
</mgrwt>
</event>
<event>
 5    1  0.3921687E+001  0.9190730E+02  0.7546771E-02  0.1298298E+00
         -2   -1    0    0    0  501 -0.00000000000E+00  0.00000000000E+00  0.41391534348E+02  0.41391534348E+02  0.00000000000E+00 0.  1.
          2   -1    0    0  501    0  0.00000000000E+00 -0.00000000000E+00 -0.51018591695E+02  0.51018591695E+02  0.00000000000E+00 0. -1.
         23    2    1    2    0    0  0.00000000000E+00  0.00000000000E+00 -0.96270573472E+01  0.92410126044E+02  0.91907296567E+02 0.  0.
          2    1    3    3  502    0  0.25463652355E+01  0.43960172380E+02  0.84020891781E+01  0.44828292787E+02  0.00000000000E+00 0. -1.
         -2    1    3    3    0  502 -0.25463652355E+01 -0.43960172380E+02 -0.18029146525E+02  0.47581833257E+02  0.00000000000E+00 0.  1.
<mgrwt>
<rscale>  0 0.91907297E+02</rscale>
<asrwt>0</asrwt>
<pdfrwt beam="2">  1        2 0.78490141E-02 0.91907297E+02</pdfrwt>
<pdfrwt beam="1">  1       -2 0.63679284E-02 0.91907297E+02</pdfrwt>
<totfact> 0.99324538E+04</totfact>
</mgrwt>
</event>
<event>
 5    1  0.3921687E+001  0.9131394E+02  0.7546771E-02  0.1299701E+00
          2   -1    0    0  501    0  0.00000000000E+00  0.00000000000E+00  0.52980600271E+01  0.52980600271E+01  0.00000000000E+00 0. -1.
         -2   -1    0    0    0  501 -0.00000000000E+00 -0.00000000000E+00 -0.39345701649E+03  0.39345701649E+03  0.00000000000E+00 0.  1.
         23    2    1    2    0    0  0.00000000000E+00  0.00000000000E+00 -0.38815895646E+03  0.39875507652E+03  0.91313939603E+02 0.  0.
          2    1    3    3  502    0  0.18307846726E+02  0.39867921216E+02 -0.24930435929E+03  0.25313492836E+03  0.00000000000E+00 0. -1.
         -2    1    3    3    0  502 -0.18307846726E+02 -0.39867921216E+02 -0.13885459717E+03  0.14562014816E+03  0.00000000000E+00 0.  1.
<mgrwt>
<rscale>  0 0.91313940E+02</rscale>
<asrwt>0</asrwt>
<pdfrwt beam="1">  1        2 0.81508627E-03 0.91313940E+02</pdfrwt>
<pdfrwt beam="2">  1       -2 0.60531840E-01 0.91313940E+02</pdfrwt>
<totfact> 0.43001438E+04</totfact>
</mgrwt>
</event>
