<event>
 4    1  0.2721071E+004  0.2215353E+02  0.7546771E-02  0.1705610E+00
         21   -1    0    0  503  502  0.00000000000E+00  0.00000000000E+00  0.94467126578E+00  0.94467126578E+00  0.00000000000E+00 0. -1.
         21   -1    0    0  501  503 -0.00000000000E+00 -0.00000000000E+00 -0.85572953348E+03  0.85572953348E+03  0.00000000000E+00 0.  1.
          2    1    1    2  501    0  0.32164093293E+01  0.21918791990E+02 -0.69587760976E+03  0.69623015339E+03  0.00000000000E+00 0.  1.
         -2    1    1    2    0  502 -0.32164093293E+01 -0.21918791990E+02 -0.15890725246E+03  0.16044405136E+03  0.00000000000E+00 0. -1.
<mgrwt>
<rscale>  2 0.22153526E+02</rscale>
<asrwt>0</asrwt>
<pdfrwt beam="1">  1       21 0.14533443E-03 0.22153526E+02</pdfrwt>
<pdfrwt beam="2">  1       21 0.13165035E+00 0.22153526E+02</pdfrwt>
<totfact> 0.24947084E+07</totfact>
</mgrwt>
</event>
<event>
 4    1  0.2721071E+004  0.2573114E+02  0.7546771E-02  0.1650717E+00
         21   -1    0    0  503  502  0.00000000000E+00  0.00000000000E+00  0.19464984897E+01  0.19464984897E+01  0.00000000000E+00 0. -1.
         21   -1    0    0  501  503 -0.00000000000E+00 -0.00000000000E+00 -0.12671384334E+04  0.12671384334E+04  0.00000000000E+00 0.  1.
          2    1    1    2  501    0 -0.21203656469E+02 -0.14577264116E+02 -0.11753299251E+04  0.11756115535E+04  0.00000000000E+00 0.  1.
         -2    1    1    2    0  502  0.21203656469E+02  0.14577264116E+02 -0.89862009749E+02  0.93473378418E+02  0.00000000000E+00 0. -1.
<mgrwt>
<rscale>  2 0.25731142E+02</rscale>
<asrwt>0</asrwt>
<pdfrwt beam="1">  1       21 0.29946212E-03 0.25731142E+02</pdfrwt>
<pdfrwt beam="2">  1       21 0.19494384E+00 0.25731142E+02</pdfrwt>
<totfact> 0.34534240E+06</totfact>
</mgrwt>
</event>
<event>
 4    1  0.2721071E+004  0.2539286E+02  0.7546771E-02  0.1655422E+00
         21   -1    0    0  501  502  0.00000000000E+00  0.00000000000E+00  0.65722087650E+01  0.65722087650E+01  0.00000000000E+00 0. -1.
         21   -1    0    0  502  503 -0.00000000000E+00 -0.00000000000E+00 -0.12892470602E+03  0.12892470602E+03  0.00000000000E+00 0.  1.
          2    1    1    2  501    0  0.20967792528E+02  0.14323022731E+02 -0.28054550076E+02  0.37839861042E+02  0.00000000000E+00 0. -1.
         -2    1    1    2    0  503 -0.20967792528E+02 -0.14323022731E+02 -0.94297947175E+02  0.97657053739E+02  0.00000000000E+00 0.  1.
<mgrwt>
<rscale>  2 0.25392859E+02</rscale>
<asrwt>0</asrwt>
<pdfrwt beam="1">  1       21 0.10111091E-02 0.25392859E+02</pdfrwt>
<pdfrwt beam="2">  1       21 0.19834569E-01 0.25392859E+02</pdfrwt>
<totfact> 0.63012797E+07</totfact>
</mgrwt>
</event>
<event>
 4    1  0.2721071E+004  0.2149439E+02  0.7546771E-02  0.1717146E+00
         21   -1    0    0  501  502  0.00000000000E+00  0.00000000000E+00  0.28244433366E+03  0.28244433366E+03  0.00000000000E+00 0.  1.
         21   -1    0    0  502  503 -0.00000000000E+00 -0.00000000000E+00 -0.33511684095E+01  0.33511684095E+01  0.00000000000E+00 0. -1.
          2    1    1    2  501    0  0.70759920498E+01 -0.20296284105E+02  0.24178452005E+03  0.24273805418E+03  0.00000000000E+00 0.  1.
         -2    1    1    2    0  503 -0.70759920498E+01  0.20296284105E+02  0.37308645202E+02  0.43057447890E+02  0.00000000000E+00 0. -1.
<mgrwt>
<rscale>  2 0.21494390E+02</rscale>
<asrwt>0</asrwt>
<pdfrwt beam="1">  1       21 0.43452956E-01 0.21494390E+02</pdfrwt>
<pdfrwt beam="2">  1       21 0.51556459E-03 0.21494390E+02</pdfrwt>
<totfact> 0.39644248E+07</totfact>
</mgrwt>
</event>
<event>
 4    1  0.2721071E+004  0.2294979E+02  0.7546771E-02  0.1692325E+00
         21   -1    0    0  503  502  0.00000000000E+00  0.00000000000E+00  0.36973100613E+02  0.36973100613E+02  0.00000000000E+00 0.  1.
         21   -1    0    0  501  503 -0.00000000000E+00 -0.00000000000E+00 -0.21543061975E+02  0.21543061975E+02  0.00000000000E+00 0. -1.
          2    1    1    2  501    0  0.10519455560E+02 -0.20396905026E+02 -0.93139028007E+01  0.24767750510E+02  0.00000000000E+00 0. -1.
         -2    1    1    2    0  502 -0.10519455560E+02  0.20396905026E+02  0.24743941439E+02  0.33748412079E+02  0.00000000000E+00 0.  1.
<mgrwt>
<rscale>  2 0.22949786E+02</rscale>
<asrwt>0</asrwt>
<pdfrwt beam="1">  1       21 0.56881693E-02 0.22949786E+02</pdfrwt>
<pdfrwt beam="2">  1       21 0.33143172E-02 0.22949786E+02</pdfrwt>
<totfact> 0.79806593E+07</totfact>
</mgrwt>
</event>
<event>
 4    1  0.2721071E+004  0.2345908E+02  0.7546771E-02  0.1684175E+00
         21   -1    0    0  501  502  0.00000000000E+00  0.00000000000E+00  0.67236478684E+02  0.67236478684E+02  0.00000000000E+00 0.  1.
         21   -1    0    0  502  503 -0.00000000000E+00 -0.00000000000E+00 -0.13418804081E+02  0.13418804081E+02  0.00000000000E+00 0. -1.
          2    1    1    2  501    0 -0.20528831201E+01 -0.23369089301E+02  0.52094641826E+02  0.57133005967E+02  0.00000000000E+00 0.  1.
         -2    1    1    2    0  503  0.20528831201E+01  0.23369089301E+02  0.17230327768E+01  0.23522276799E+02  0.00000000000E+00 0. -1.
<mgrwt>
<rscale>  2 0.23459085E+02</rscale>
<asrwt>0</asrwt>
<pdfrwt beam="1">  1       21 0.10344073E-01 0.23459085E+02</pdfrwt>
<pdfrwt beam="2">  1       21 0.20644314E-02 0.23459085E+02</pdfrwt>
<totfact> 0.63122368E+07</totfact>
</mgrwt>
</event>
<event>
 4    1  0.2721071E+004  0.2889645E+02  0.7546771E-02  0.1610617E+00
         21   -1    0    0  501  502  0.00000000000E+00  0.00000000000E+00  0.50574172247E+01  0.50574172247E+01  0.00000000000E+00 0.  1.
         21   -1    0    0  502  503 -0.00000000000E+00 -0.00000000000E+00 -0.18979350591E+03  0.18979350591E+03  0.00000000000E+00 0. -1.
          2    1    1    2  501    0 -0.36892813382E+01  0.28659977522E+02 -0.57229902714E+02  0.64111363056E+02  0.00000000000E+00 0.  1.
         -2    1    1    2    0  503  0.36892813382E+01 -0.28659977522E+02 -0.12750618597E+03  0.13073956007E+03  0.00000000000E+00 0. -1.
<mgrwt>
<rscale>  2 0.28896455E+02</rscale>
<asrwt>0</asrwt>
<pdfrwt beam="1">  1       21 0.77806421E-03 0.28896455E+02</pdfrwt>
<pdfrwt beam="2">  1       21 0.29199000E-01 0.28896455E+02</pdfrwt>
<totfact> 0.48205157E+07</totfact>
</mgrwt>
</event>
<event>
 4    1  0.2721071E+004  0.2193921E+02  0.7546771E-02  0.1709305E+00
         21   -1    0    0  501  502  0.00000000000E+00  0.00000000000E+00  0.30965390616E+01  0.30965390616E+01  0.00000000000E+00 0.  1.
         21   -1    0    0  502  503 -0.00000000000E+00 -0.00000000000E+00 -0.16218056764E+03  0.16218056764E+03  0.00000000000E+00 0. -1.
          2    1    1    2  501    0  0.17394238737E+02  0.13370463168E+02 -0.62695794784E+02  0.66423576463E+02  0.00000000000E+00 0.  1.
         -2    1    1    2    0  503 -0.17394238737E+02 -0.13370463168E+02 -0.96388233799E+02  0.98853530243E+02  0.00000000000E+00 0. -1.
<mgrwt>
<rscale>  2 0.21939208E+02</rscale>
<asrwt>0</asrwt>
<pdfrwt beam="1">  1       21 0.47639047E-03 0.21939208E+02</pdfrwt>
<pdfrwt beam="2">  1       21 0.24950865E-01 0.21939208E+02</pdfrwt>
<totfact> 0.12396725E+08</totfact>
</mgrwt>
</event>
<event>
 4    1  0.2721071E+004  0.2644474E+02  0.7546771E-02  0.1641078E+00
         21   -1    0    0  501  502  0.00000000000E+00  0.00000000000E+00  0.28684373838E+02  0.28684373838E+02  0.00000000000E+00 0.  1.
         21   -1    0    0  502  503 -0.00000000000E+00 -0.00000000000E+00 -0.34717277821E+02  0.34717277821E+02  0.00000000000E+00 0. -1.
          2    1    1    2  501    0 -0.17848327795E+02  0.19513103895E+02  0.14281774301E+02  0.30054834983E+02  0.00000000000E+00 0.  1.
         -2    1    1    2    0  503  0.17848327795E+02 -0.19513103895E+02 -0.20314678283E+02  0.33346816676E+02  0.00000000000E+00 0. -1.
<mgrwt>
<rscale>  2 0.26444735E+02</rscale>
<asrwt>0</asrwt>
<pdfrwt beam="1">  1       21 0.44129806E-02 0.26444735E+02</pdfrwt>
<pdfrwt beam="2">  1       21 0.53411197E-02 0.26444735E+02</pdfrwt>
<totfact> 0.58320151E+07</totfact>
</mgrwt>
</event>
<event>
 4    1  0.2721071E+004  0.2162122E+02  0.7546771E-02  0.1714886E+00
         21   -1    0    0  501  502  0.00000000000E+00  0.00000000000E+00  0.12789867828E+02  0.12789867828E+02  0.00000000000E+00 0.  1.
         21   -1    0    0  502  503 -0.00000000000E+00 -0.00000000000E+00 -0.10427718437E+03  0.10427718437E+03  0.00000000000E+00 0. -1.
          2    1    1    2  501    0  0.17067107056E+02 -0.13273703294E+02  0.14289213284E+01  0.21668390769E+02  0.00000000000E+00 0.  1.
         -2    1    1    2    0  503 -0.17067107056E+02  0.13273703294E+02 -0.92916237872E+02  0.95398661430E+02  0.00000000000E+00 0. -1.
<mgrwt>
<rscale>  2 0.21621224E+02</rscale>
<asrwt>0</asrwt>
<pdfrwt beam="1">  1       21 0.19676719E-02 0.21621224E+02</pdfrwt>
<pdfrwt beam="2">  1       21 0.16042644E-01 0.21621224E+02</pdfrwt>
<totfact> 0.31810793E+07</totfact>
</mgrwt>
</event>
<event>
 4    1  0.2721071E+004  0.2671555E+02  0.7546771E-02  0.1637517E+00
         21   -1    0    0  501  502  0.00000000000E+00  0.00000000000E+00  0.38629408825E+03  0.38629408825E+03  0.00000000000E+00 0.  1.
         21   -1    0    0  502  503 -0.00000000000E+00 -0.00000000000E+00 -0.26957150305E+01  0.26957150305E+01  0.00000000000E+00 0. -1.
          2    1    1    2  501    0  0.30024664983E+01 -0.26546298151E+02  0.30089198880E+03  0.30207566878E+03  0.00000000000E+00 0.  1.
         -2    1    1    2    0  503 -0.30024664983E+01  0.26546298151E+02  0.82706384420E+02  0.86914134492E+02  0.00000000000E+00 0. -1.
<mgrwt>
<rscale>  2 0.26715553E+02</rscale>
<asrwt>0</asrwt>
<pdfrwt beam="1">  1       21 0.59429816E-01 0.26715553E+02</pdfrwt>
<pdfrwt beam="2">  1       21 0.41472570E-03 0.26715553E+02</pdfrwt>
<totfact> 0.31080688E+07</totfact>
</mgrwt>
</event>
<event>
 4    1  0.2721071E+004  0.2022885E+02  0.7546771E-02  0.1740815E+00
         21   -1    0    0  501  502  0.00000000000E+00  0.00000000000E+00  0.94236643665E+03  0.94236643665E+03  0.00000000000E+00 0. -1.
         21   -1    0    0  502  503 -0.00000000000E+00 -0.00000000000E+00 -0.59246976772E+00  0.59246976772E+00  0.00000000000E+00 0.  1.
          2    1    1    2  501    0  0.20211740396E+02  0.83173886305E+00  0.71454679716E+03  0.71483307952E+03  0.00000000000E+00 0. -1.
         -2    1    1    2    0  503 -0.20211740396E+02 -0.83173886305E+00  0.22722716972E+03  0.22812582690E+03  0.00000000000E+00 0.  1.
<mgrwt>
<rscale>  2 0.20228847E+02</rscale>
<asrwt>0</asrwt>
<pdfrwt beam="1">  1       21 0.14497825E+00 0.20228847E+02</pdfrwt>
<pdfrwt beam="2">  1       21 0.91149949E-04 0.20228847E+02</pdfrwt>
<totfact> 0.38061790E+07</totfact>
</mgrwt>
</event>
<event>
 4    1  0.2721071E+004  0.2851501E+02  0.7546771E-02  0.1615108E+00
         21   -1    0    0  501  502  0.00000000000E+00  0.00000000000E+00  0.10036939469E+02  0.10036939469E+02  0.00000000000E+00 0. -1.
         21   -1    0    0  502  503 -0.00000000000E+00 -0.00000000000E+00 -0.92551139093E+02  0.92551139093E+02  0.00000000000E+00 0.  1.
          2    1    1    2  501    0 -0.31942382171E+01 -0.28335532519E+02 -0.23144707958E+02  0.36725782053E+02  0.00000000000E+00 0. -1.
         -2    1    1    2    0  503  0.31942382171E+01  0.28335532519E+02 -0.59369491665E+02  0.65862296510E+02  0.00000000000E+00 0.  1.
<mgrwt>
<rscale>  2 0.28515006E+02</rscale>
<asrwt>0</asrwt>
<pdfrwt beam="1">  1       21 0.15441446E-02 0.28515006E+02</pdfrwt>
<pdfrwt beam="2">  1       21 0.14238637E-01 0.28515006E+02</pdfrwt>
<totfact> 0.60383255E+07</totfact>
</mgrwt>
</event>
<event>
 4    1  0.2721071E+004  0.3434428E+02  0.7546771E-02  0.1554502E+00
         21   -1    0    0  501  502  0.00000000000E+00  0.00000000000E+00  0.52606728862E+02  0.52606728862E+02  0.00000000000E+00 0.  1.
         21   -1    0    0  502  503 -0.00000000000E+00 -0.00000000000E+00 -0.37863983695E+02  0.37863983695E+02  0.00000000000E+00 0. -1.
          2    1    1    2  501    0  0.11831398409E+02  0.32242013156E+02  0.36259633595E+02  0.49942871654E+02  0.00000000000E+00 0.  1.
         -2    1    1    2    0  503 -0.11831398409E+02 -0.32242013156E+02 -0.21516888428E+02  0.40527840903E+02  0.00000000000E+00 0. -1.
<mgrwt>
<rscale>  2 0.34344278E+02</rscale>
<asrwt>0</asrwt>
<pdfrwt beam="1">  1       21 0.80933429E-02 0.34344278E+02</pdfrwt>
<pdfrwt beam="2">  1       21 0.58252283E-02 0.34344278E+02</pdfrwt>
<totfact> 0.20001984E+07</totfact>
</mgrwt>
</event>
<event>
 4    1  0.2721071E+004  0.3984513E+02  0.7546771E-02  0.1509354E+00
         21   -1    0    0  503  502  0.00000000000E+00  0.00000000000E+00  0.19177459854E+02  0.19177459854E+02  0.00000000000E+00 0. -1.
         21   -1    0    0  501  503 -0.00000000000E+00 -0.00000000000E+00 -0.11331809141E+03  0.11331809141E+03  0.00000000000E+00 0.  1.
          2    1    1    2  501    0 -0.78059666014E+01 -0.39073023729E+02 -0.81457496810E+02  0.90680527592E+02  0.00000000000E+00 0.  1.
         -2    1    1    2    0  502  0.78059666014E+01  0.39073023729E+02 -0.12683134750E+02  0.41815023676E+02  0.00000000000E+00 0. -1.
<mgrwt>
<rscale>  2 0.39845129E+02</rscale>
<asrwt>0</asrwt>
<pdfrwt beam="1">  1       21 0.29503785E-02 0.39845129E+02</pdfrwt>
<pdfrwt beam="2">  1       21 0.17433552E-01 0.39845129E+02</pdfrwt>
<totfact> 0.16502921E+07</totfact>
</mgrwt>
</event>
<event>
 4    1  0.2721071E+004  0.2043094E+02  0.7546771E-02  0.1736892E+00
         21   -1    0    0  503  502  0.00000000000E+00  0.00000000000E+00  0.17085058014E+03  0.17085058014E+03  0.00000000000E+00 0. -1.
         21   -1    0    0  501  503 -0.00000000000E+00 -0.00000000000E+00 -0.24479105345E+01  0.24479105345E+01  0.00000000000E+00 0.  1.
          2    1    1    2  501    0 -0.20330731906E+02  0.20210386776E+01  0.87999726700E+02  0.90340329624E+02  0.00000000000E+00 0.  1.
         -2    1    1    2    0  502  0.20330731906E+02 -0.20210386776E+01  0.80402942910E+02  0.82958161056E+02  0.00000000000E+00 0. -1.
<mgrwt>
<rscale>  2 0.20430939E+02</rscale>
<asrwt>0</asrwt>
<pdfrwt beam="1">  1       21 0.26284695E-01 0.20430939E+02</pdfrwt>
<pdfrwt beam="2">  1       21 0.37660175E-03 0.20430939E+02</pdfrwt>
<totfact> 0.15616095E+08</totfact>
</mgrwt>
</event>
<event>
 4    1  0.2721071E+004  0.2001043E+02  0.7546771E-02  0.1745121E+00
         21   -1    0    0  501  502  0.00000000000E+00  0.00000000000E+00  0.47216478493E+02  0.47216478493E+02  0.00000000000E+00 0. -1.
         21   -1    0    0  502  503 -0.00000000000E+00 -0.00000000000E+00 -0.17277400128E+02  0.17277400128E+02  0.00000000000E+00 0.  1.
          2    1    1    2  501    0 -0.75262949013E+01 -0.18541095652E+02  0.37979463089E+02  0.42928509868E+02  0.00000000000E+00 0. -1.
         -2    1    1    2    0  503  0.75262949013E+01  0.18541095652E+02 -0.80403847247E+01  0.21565368753E+02  0.00000000000E+00 0.  1.
<mgrwt>
<rscale>  2 0.20010431E+02</rscale>
<asrwt>0</asrwt>
<pdfrwt beam="1">  1       21 0.72640736E-02 0.20010431E+02</pdfrwt>
<pdfrwt beam="2">  1       21 0.26580616E-02 0.20010431E+02</pdfrwt>
<totfact> 0.72985199E+07</totfact>
</mgrwt>
</event>
<event>
 4    1  0.2721071E+004  0.2233454E+02  0.7546771E-02  0.1702530E+00
         21   -1    0    0  503  502  0.00000000000E+00  0.00000000000E+00  0.20547286126E+02  0.20547286126E+02  0.00000000000E+00 0.  1.
         21   -1    0    0  501  503 -0.00000000000E+00 -0.00000000000E+00 -0.48790749911E+02  0.48790749911E+02  0.00000000000E+00 0. -1.
          2    1    1    2  501    0 -0.89487827468E+00 -0.22316604522E+02 -0.38695708288E+02  0.44678736378E+02  0.00000000000E+00 0. -1.
         -2    1    1    2    0  502  0.89487827468E+00  0.22316604522E+02  0.10452244503E+02  0.24659299659E+02  0.00000000000E+00 0.  1.
<mgrwt>
<rscale>  2 0.22334539E+02</rscale>
<asrwt>0</asrwt>
<pdfrwt beam="1">  1       21 0.31611210E-02 0.22334539E+02</pdfrwt>
<pdfrwt beam="2">  1       21 0.75062691E-02 0.22334539E+02</pdfrwt>
<totfact> 0.54533844E+07</totfact>
</mgrwt>
</event>
<event>
 4    1  0.2721071E+004  0.2534542E+02  0.7546771E-02  0.1656090E+00
         21   -1    0    0  503  502  0.00000000000E+00  0.00000000000E+00  0.14226099037E+01  0.14226099037E+01  0.00000000000E+00 0. -1.
         21   -1    0    0  501  503 -0.00000000000E+00 -0.00000000000E+00 -0.62876560097E+03  0.62876560097E+03  0.00000000000E+00 0.  1.
          2    1    1    2  501    0 -0.24967441604E+02 -0.43608411831E+01 -0.48094908436E+03  0.48161645718E+03  0.00000000000E+00 0.  1.
         -2    1    1    2    0  502  0.24967441604E+02  0.43608411831E+01 -0.14639390670E+03  0.14857175370E+03  0.00000000000E+00 0. -1.
<mgrwt>
<rscale>  2 0.25345415E+02</rscale>
<asrwt>0</asrwt>
<pdfrwt beam="1">  1       21 0.21886326E-03 0.25345415E+02</pdfrwt>
<pdfrwt beam="2">  1       21 0.96733082E-01 0.25345415E+02</pdfrwt>
<totfact> 0.28303633E+07</totfact>
</mgrwt>
</event>
<event>
 4    1  0.2721071E+004  0.2482267E+02  0.7546771E-02  0.1663562E+00
         21   -1    0    0  501  502  0.00000000000E+00  0.00000000000E+00  0.38606777396E+02  0.38606777396E+02  0.00000000000E+00 0.  1.
         21   -1    0    0  502  503 -0.00000000000E+00 -0.00000000000E+00 -0.16174947756E+02  0.16174947756E+02  0.00000000000E+00 0. -1.
          2    1    1    2  501    0 -0.11351326910E+01  0.24796702065E+02  0.14373317629E+02  0.28683744860E+02  0.00000000000E+00 0. -1.
         -2    1    1    2    0  503  0.11351326910E+01 -0.24796702065E+02  0.80585120107E+01  0.26097980293E+02  0.00000000000E+00 0.  1.
<mgrwt>
<rscale>  2 0.24822670E+02</rscale>
<asrwt>0</asrwt>
<pdfrwt beam="1">  1       21 0.59395042E-02 0.24822670E+02</pdfrwt>
<pdfrwt beam="2">  1       21 0.24884535E-02 0.24822670E+02</pdfrwt>
<totfact> 0.11891747E+08</totfact>
</mgrwt>
</event>
<event>
 4    1  0.2721071E+004  0.2244503E+02  0.7546771E-02  0.1700667E+00
         21   -1    0    0  503  502  0.00000000000E+00  0.00000000000E+00  0.42843882297E+01  0.42843882297E+01  0.00000000000E+00 0.  1.
         21   -1    0    0  501  503 -0.00000000000E+00 -0.00000000000E+00 -0.13568758516E+03  0.13568758516E+03  0.00000000000E+00 0. -1.
          2    1    1    2  501    0 -0.19872168336E+02 -0.10434374887E+02 -0.91264658166E+02  0.93984132085E+02  0.00000000000E+00 0.  1.
         -2    1    1    2    0  502  0.19872168336E+02  0.10434374887E+02 -0.40138538760E+02  0.45987841300E+02  0.00000000000E+00 0. -1.
<mgrwt>
<rscale>  2 0.22445027E+02</rscale>
<asrwt>0</asrwt>
<pdfrwt beam="1">  1       21 0.65913663E-03 0.22445027E+02</pdfrwt>
<pdfrwt beam="2">  1       21 0.20875014E-01 0.22445027E+02</pdfrwt>
<totfact> 0.10578565E+08</totfact>
</mgrwt>
</event>
<event>
 4    1  0.2721071E+004  0.2461282E+02  0.7546771E-02  0.1666626E+00
         21   -1    0    0  503  502  0.00000000000E+00  0.00000000000E+00  0.14341956465E+03  0.14341956465E+03  0.00000000000E+00 0.  1.
         21   -1    0    0  501  503 -0.00000000000E+00 -0.00000000000E+00 -0.33700465417E+02  0.33700465417E+02  0.00000000000E+00 0. -1.
          2    1    1    2  501    0  0.19093936779E+02 -0.15531022607E+02 -0.27964814563E+02  0.37253482233E+02  0.00000000000E+00 0. -1.
         -2    1    1    2    0  502 -0.19093936779E+02  0.15531022607E+02  0.13768391380E+03  0.13986654784E+03  0.00000000000E+00 0.  1.
<mgrwt>
<rscale>  2 0.24612824E+02</rscale>
<asrwt>0</asrwt>
<pdfrwt beam="1">  1       21 0.22064548E-01 0.24612824E+02</pdfrwt>
<pdfrwt beam="2">  1       21 0.51846871E-02 0.24612824E+02</pdfrwt>
<totfact> 0.41307623E+06</totfact>
</mgrwt>
</event>
<event>
 4    1  0.2721071E+004  0.3786152E+02  0.7546771E-02  0.1524565E+00
         21   -1    0    0  503  502  0.00000000000E+00  0.00000000000E+00  0.48486892281E+01  0.48486892281E+01  0.00000000000E+00 0.  1.
         21   -1    0    0  501  503 -0.00000000000E+00 -0.00000000000E+00 -0.34206410051E+03  0.34206410051E+03  0.00000000000E+00 0. -1.
          2    1    1    2  501    0 -0.37241377952E+02 -0.68245460633E+01 -0.23250480328E+03  0.23556735387E+03  0.00000000000E+00 0. -1.
         -2    1    1    2    0  502  0.37241377952E+02  0.68245460633E+01 -0.10471060801E+03  0.11134543587E+03  0.00000000000E+00 0.  1.
<mgrwt>
<rscale>  2 0.37861520E+02</rscale>
<asrwt>0</asrwt>
<pdfrwt beam="1">  1       21 0.74595226E-03 0.37861520E+02</pdfrwt>
<pdfrwt beam="2">  1       21 0.52625242E-01 0.37861520E+02</pdfrwt>
<totfact> 0.17502373E+07</totfact>
</mgrwt>
</event>
<event>
 4    1  0.2721071E+004  0.2847763E+02  0.7546771E-02  0.1615553E+00
         21   -1    0    0  503  502  0.00000000000E+00  0.00000000000E+00  0.84409792139E+03  0.84409792139E+03  0.00000000000E+00 0.  1.
         21   -1    0    0  501  503 -0.00000000000E+00 -0.00000000000E+00 -0.15105306862E+01  0.15105306862E+01  0.00000000000E+00 0. -1.
          2    1    1    2  501    0  0.28476012381E+02  0.30363040688E+00  0.16622018744E+03  0.16864200599E+03  0.00000000000E+00 0. -1.
         -2    1    1    2    0  502 -0.28476012381E+02 -0.30363040688E+00  0.67636720326E+03  0.67696644608E+03  0.00000000000E+00 0.  1.
<mgrwt>
<rscale>  2 0.28477631E+02</rscale>
<asrwt>0</asrwt>
<pdfrwt beam="1">  1       21 0.12986084E+00 0.28477631E+02</pdfrwt>
<pdfrwt beam="2">  1       21 0.23239001E-03 0.28477631E+02</pdfrwt>
<totfact> 0.13616447E+07</totfact>
</mgrwt>
</event>
<event>
 4    1  0.2721071E+004  0.2128878E+02  0.7546771E-02  0.1720851E+00
         21   -1    0    0  503  502  0.00000000000E+00  0.00000000000E+00  0.32396460979E+03  0.32396460979E+03  0.00000000000E+00 0. -1.
         21   -1    0    0  501  503 -0.00000000000E+00 -0.00000000000E+00 -0.44344155185E+01  0.44344155185E+01  0.00000000000E+00 0.  1.
          2    1    1    2  501    0 -0.21122855036E+02 -0.26527413580E+01  0.23913128423E+02  0.32016398182E+02  0.00000000000E+00 0.  1.
         -2    1    1    2    0  502  0.21122855036E+02  0.26527413580E+01  0.29561706585E+03  0.29638262713E+03  0.00000000000E+00 0. -1.
<mgrwt>
<rscale>  2 0.21288777E+02</rscale>
<asrwt>0</asrwt>
<pdfrwt beam="1">  1       21 0.49840691E-01 0.21288777E+02</pdfrwt>
<pdfrwt beam="2">  1       21 0.68221803E-03 0.21288777E+02</pdfrwt>
<totfact> 0.20104687E+07</totfact>
</mgrwt>
</event>
<event>
 4    1  0.2721071E+004  0.2565526E+02  0.7546771E-02  0.1651765E+00
         21   -1    0    0  501  502  0.00000000000E+00  0.00000000000E+00  0.39379539124E+01  0.39379539124E+01  0.00000000000E+00 0. -1.
         21   -1    0    0  502  503 -0.00000000000E+00 -0.00000000000E+00 -0.22955160535E+03  0.22955160535E+03  0.00000000000E+00 0.  1.
          2    1    1    2  501    0  0.24856440864E+02  0.63521406678E+01 -0.51933424174E+02  0.57924717435E+02  0.00000000000E+00 0. -1.
         -2    1    1    2    0  503 -0.24856440864E+02 -0.63521406678E+01 -0.17368022726E+03  0.17556484183E+03  0.00000000000E+00 0.  1.
<mgrwt>
<rscale>  2 0.25655260E+02</rscale>
<asrwt>0</asrwt>
<pdfrwt beam="1">  1       21 0.60583894E-03 0.25655260E+02</pdfrwt>
<pdfrwt beam="2">  1       21 0.35315639E-01 0.25655260E+02</pdfrwt>
<totfact> 0.48046590E+07</totfact>
</mgrwt>
</event>
<event>
 4    1  0.2721071E+004  0.2334567E+02  0.7546771E-02  0.1685967E+00
         21   -1    0    0  503  502  0.00000000000E+00  0.00000000000E+00  0.62048445795E+00  0.62048445795E+00  0.00000000000E+00 0.  1.
         21   -1    0    0  501  503 -0.00000000000E+00 -0.00000000000E+00 -0.11413900809E+04  0.11413900809E+04  0.00000000000E+00 0. -1.
          2    1    1    2  501    0 -0.21195148029E+02  0.97870409378E+01 -0.84448551127E+03  0.84480814343E+03  0.00000000000E+00 0. -1.
         -2    1    1    2    0  502  0.21195148029E+02 -0.97870409378E+01 -0.29628408519E+03  0.29720242195E+03  0.00000000000E+00 0.  1.
<mgrwt>
<rscale>  2 0.23345673E+02</rscale>
<asrwt>0</asrwt>
<pdfrwt beam="1">  1       21 0.95459916E-04 0.23345673E+02</pdfrwt>
<pdfrwt beam="2">  1       21 0.17559706E+00 0.23345673E+02</pdfrwt>
<totfact> 0.23113545E+07</totfact>
</mgrwt>
</event>
<event>
 4    1  0.2721071E+004  0.2011460E+02  0.7546771E-02  0.1743059E+00
         21   -1    0    0  501  502  0.00000000000E+00  0.00000000000E+00  0.14672969303E+02  0.14672969303E+02  0.00000000000E+00 0. -1.
         21   -1    0    0  502  503 -0.00000000000E+00 -0.00000000000E+00 -0.43497454257E+02  0.43497454257E+02  0.00000000000E+00 0.  1.
          2    1    1    2  501    0  0.20112000293E+02  0.32309927889E+00  0.31854116080E+01  0.20365259538E+02  0.00000000000E+00 0.  1.
         -2    1    1    2    0  503 -0.20112000293E+02 -0.32309927889E+00 -0.32009896562E+02  0.37805164023E+02  0.00000000000E+00 0. -1.
<mgrwt>
<rscale>  2 0.20114595E+02</rscale>
<asrwt>0</asrwt>
<pdfrwt beam="1">  1       21 0.22573799E-02 0.20114595E+02</pdfrwt>
<pdfrwt beam="2">  1       21 0.66919159E-02 0.20114595E+02</pdfrwt>
<totfact> 0.10724551E+08</totfact>
</mgrwt>
</event>
<event>
 4    1  0.2721071E+004  0.2084865E+02  0.7546771E-02  0.1728960E+00
         21   -1    0    0  501  502  0.00000000000E+00  0.00000000000E+00  0.34675236668E+00  0.34675236668E+00  0.00000000000E+00 0.  1.
         21   -1    0    0  502  503 -0.00000000000E+00 -0.00000000000E+00 -0.12771290431E+04  0.12771290431E+04  0.00000000000E+00 0. -1.
          2    1    1    2  501    0 -0.20328175587E+02  0.46294247573E+01 -0.72520812331E+03  0.72550774525E+03  0.00000000000E+00 0. -1.
         -2    1    1    2    0  503  0.20328175587E+02 -0.46294247573E+01 -0.55157416738E+03  0.55196805017E+03  0.00000000000E+00 0.  1.
<mgrwt>
<rscale>  2 0.20848652E+02</rscale>
<asrwt>0</asrwt>
<pdfrwt beam="1">  1       21 0.53346173E-04 0.20848652E+02</pdfrwt>
<pdfrwt beam="2">  1       21 0.19648266E+00 0.20848652E+02</pdfrwt>
<totfact> 0.38957470E+07</totfact>
</mgrwt>
</event>
<event>
 4    1  0.2721071E+004  0.2859882E+02  0.7546771E-02  0.1614114E+00
         21   -1    0    0  501  502  0.00000000000E+00  0.00000000000E+00  0.11526475056E+03  0.11526475056E+03  0.00000000000E+00 0.  1.
         21   -1    0    0  502  503 -0.00000000000E+00 -0.00000000000E+00 -0.10056382138E+02  0.10056382138E+02  0.00000000000E+00 0. -1.
          2    1    1    2  501    0 -0.12167983562E+00 -0.28598563043E+02  0.86603008581E+02  0.91202925991E+02  0.00000000000E+00 0.  1.
         -2    1    1    2    0  503  0.12167983562E+00  0.28598563043E+02  0.18605359843E+02  0.34118206709E+02  0.00000000000E+00 0. -1.
<mgrwt>
<rscale>  2 0.28598822E+02</rscale>
<asrwt>0</asrwt>
<pdfrwt beam="1">  1       21 0.17733038E-01 0.28598822E+02</pdfrwt>
<pdfrwt beam="2">  1       21 0.15471358E-02 0.28598822E+02</pdfrwt>
<totfact> 0.41249475E+07</totfact>
</mgrwt>
</event>
<event>
 4    1  0.2721071E+004  0.3138456E+02  0.7546771E-02  0.1583270E+00
         21   -1    0    0  501  502  0.00000000000E+00  0.00000000000E+00  0.70987000022E+02  0.70987000022E+02  0.00000000000E+00 0. -1.
         21   -1    0    0  502  503 -0.00000000000E+00 -0.00000000000E+00 -0.81693832715E+02  0.81693832715E+02  0.00000000000E+00 0.  1.
          2    1    1    2  501    0 -0.23409666166E+02 -0.20904018559E+02  0.64202323784E+02  0.71462779411E+02  0.00000000000E+00 0. -1.
         -2    1    1    2    0  503  0.23409666166E+02  0.20904018559E+02 -0.74909156477E+02  0.81218053326E+02  0.00000000000E+00 0.  1.
<mgrwt>
<rscale>  2 0.31384558E+02</rscale>
<asrwt>0</asrwt>
<pdfrwt beam="1">  1       21 0.10921077E-01 0.31384558E+02</pdfrwt>
<pdfrwt beam="2">  1       21 0.12568282E-01 0.31384558E+02</pdfrwt>
<totfact> 0.33319821E+06</totfact>
</mgrwt>
</event>
<event>
 4    1  0.2721071E+004  0.2330307E+02  0.7546771E-02  0.1686644E+00
         21   -1    0    0  503  502  0.00000000000E+00  0.00000000000E+00  0.68804354320E+01  0.68804354320E+01  0.00000000000E+00 0. -1.
         21   -1    0    0  501  503 -0.00000000000E+00 -0.00000000000E+00 -0.11144499008E+03  0.11144499008E+03  0.00000000000E+00 0.  1.
          2    1    1    2  501    0 -0.60664554973E+01  0.22499583294E+02 -0.84241638350E+02  0.87405301684E+02  0.00000000000E+00 0.  1.
         -2    1    1    2    0  502  0.60664554973E+01 -0.22499583294E+02 -0.20322916300E+02  0.30920123829E+02  0.00000000000E+00 0. -1.
<mgrwt>
<rscale>  2 0.23303071E+02</rscale>
<asrwt>0</asrwt>
<pdfrwt beam="1">  1       21 0.10585286E-02 0.23303071E+02</pdfrwt>
<pdfrwt beam="2">  1       21 0.17145381E-01 0.23303071E+02</pdfrwt>
<totfact> 0.74102027E+07</totfact>
</mgrwt>
</event>
<event>
 4    1  0.2721071E+004  0.4515249E+02  0.7546771E-02  0.1473392E+00
         21   -1    0    0  503  502  0.00000000000E+00  0.00000000000E+00  0.17043092507E+02  0.17043092507E+02  0.00000000000E+00 0. -1.
         21   -1    0    0  501  503 -0.00000000000E+00 -0.00000000000E+00 -0.19547255814E+03  0.19547255814E+03  0.00000000000E+00 0.  1.
          2    1    1    2  501    0 -0.43989772485E+02  0.10180736598E+02 -0.15540502215E+03  0.16183160504E+03  0.00000000000E+00 0.  1.
         -2    1    1    2    0  502  0.43989772485E+02 -0.10180736598E+02 -0.23024443477E+02  0.50684045600E+02  0.00000000000E+00 0. -1.
<mgrwt>
<rscale>  2 0.45152491E+02</rscale>
<asrwt>0</asrwt>
<pdfrwt beam="1">  1       21 0.26220142E-02 0.45152491E+02</pdfrwt>
<pdfrwt beam="2">  1       21 0.30072701E-01 0.45152491E+02</pdfrwt>
<totfact> 0.75346040E+06</totfact>
</mgrwt>
</event>
<event>
 4    1  0.2721071E+004  0.3322576E+02  0.7546771E-02  0.1564945E+00
         21   -1    0    0  503  502  0.00000000000E+00  0.00000000000E+00  0.96898748575E+03  0.96898748575E+03  0.00000000000E+00 0.  1.
         21   -1    0    0  501  503 -0.00000000000E+00 -0.00000000000E+00 -0.12329983138E+01  0.12329983138E+01  0.00000000000E+00 0. -1.
          2    1    1    2  501    0 -0.31341308136E+02  0.11030566965E+02  0.35013629356E+03  0.35170921948E+03  0.00000000000E+00 0. -1.
         -2    1    1    2    0  502  0.31341308136E+02 -0.11030566965E+02  0.61761819388E+03  0.61851126458E+03  0.00000000000E+00 0.  1.
<mgrwt>
<rscale>  2 0.33225758E+02</rscale>
<asrwt>0</asrwt>
<pdfrwt beam="1">  1       21 0.14907439E+00 0.33225758E+02</pdfrwt>
<pdfrwt beam="2">  1       21 0.18969282E-03 0.33225758E+02</pdfrwt>
<totfact> 0.13467201E+07</totfact>
</mgrwt>
</event>
<event>
 4    1  0.2721071E+004  0.2608533E+02  0.7546771E-02  0.1645885E+00
         21   -1    0    0  503  502  0.00000000000E+00  0.00000000000E+00  0.75369357247E+02  0.75369357247E+02  0.00000000000E+00 0.  1.
         21   -1    0    0  501  503 -0.00000000000E+00 -0.00000000000E+00 -0.19902675415E+02  0.19902675415E+02  0.00000000000E+00 0. -1.
          2    1    1    2  501    0 -0.13432397198E+02  0.22361019101E+02 -0.74782161924E+01  0.27136104863E+02  0.00000000000E+00 0. -1.
         -2    1    1    2    0  502  0.13432397198E+02 -0.22361019101E+02  0.62944898024E+02  0.68135927799E+02  0.00000000000E+00 0.  1.
<mgrwt>
<rscale>  2 0.26085331E+02</rscale>
<asrwt>0</asrwt>
<pdfrwt beam="1">  1       21 0.11595286E-01 0.26085331E+02</pdfrwt>
<pdfrwt beam="2">  1       21 0.30619501E-02 0.26085331E+02</pdfrwt>
<totfact> 0.29030427E+07</totfact>
</mgrwt>
</event>
<event>
 4    1  0.2721071E+004  0.2806669E+02  0.7546771E-02  0.1620498E+00
         21   -1    0    0  501  502  0.00000000000E+00  0.00000000000E+00  0.99682830630E+02  0.99682830630E+02  0.00000000000E+00 0.  1.
         21   -1    0    0  502  503 -0.00000000000E+00 -0.00000000000E+00 -0.79574997013E+01  0.79574997013E+01  0.00000000000E+00 0. -1.
          2    1    1    2  501    0  0.24002934646E+02  0.14546411422E+02  0.50338968457E+02  0.57634631101E+02  0.00000000000E+00 0. -1.
         -2    1    1    2    0  503 -0.24002934646E+02 -0.14546411422E+02  0.41386362472E+02  0.50005699230E+02  0.00000000000E+00 0.  1.
<mgrwt>
<rscale>  2 0.28066688E+02</rscale>
<asrwt>0</asrwt>
<pdfrwt beam="1">  1       21 0.15335819E-01 0.28066688E+02</pdfrwt>
<pdfrwt beam="2">  1       21 0.12242308E-02 0.28066688E+02</pdfrwt>
<totfact> 0.75497379E+07</totfact>
</mgrwt>
</event>
<event>
 4    1  0.2721071E+004  0.2603897E+02  0.7546771E-02  0.1646512E+00
         21   -1    0    0  501  502  0.00000000000E+00  0.00000000000E+00  0.97826596053E+00  0.97826596053E+00  0.00000000000E+00 0. -1.
         21   -1    0    0  502  503 -0.00000000000E+00 -0.00000000000E+00 -0.83555245767E+03  0.83555245767E+03  0.00000000000E+00 0.  1.
          2    1    1    2  501    0 -0.22634431664E+02  0.12872867284E+02 -0.24457913087E+03  0.24596133734E+03  0.00000000000E+00 0. -1.
         -2    1    1    2    0  503  0.22634431664E+02 -0.12872867284E+02 -0.58999506084E+03  0.59056938629E+03  0.00000000000E+00 0.  1.
<mgrwt>
<rscale>  2 0.26038975E+02</rscale>
<asrwt>0</asrwt>
<pdfrwt beam="1">  1       21 0.15050250E-03 0.26038975E+02</pdfrwt>
<pdfrwt beam="2">  1       21 0.12854649E+00 0.26038975E+02</pdfrwt>
<totfact> 0.25806959E+07</totfact>
</mgrwt>
</event>
<event>
 4    1  0.2721071E+004  0.2014168E+02  0.7546771E-02  0.1742525E+00
         21   -1    0    0  503  502  0.00000000000E+00  0.00000000000E+00  0.23505149348E+02  0.23505149348E+02  0.00000000000E+00 0. -1.
         21   -1    0    0  501  503 -0.00000000000E+00 -0.00000000000E+00 -0.17568589962E+02  0.17568589962E+02  0.00000000000E+00 0.  1.
          2    1    1    2  501    0 -0.20034750191E+02  0.20726987453E+01  0.24430443630E+00  0.20143162115E+02  0.00000000000E+00 0.  1.
         -2    1    1    2    0  502  0.20034750191E+02 -0.20726987453E+01  0.56922549499E+01  0.20930577196E+02  0.00000000000E+00 0. -1.
<mgrwt>
<rscale>  2 0.20141681E+02</rscale>
<asrwt>0</asrwt>
<pdfrwt beam="1">  1       21 0.36161768E-02 0.20141681E+02</pdfrwt>
<pdfrwt beam="2">  1       21 0.27028600E-02 0.20141681E+02</pdfrwt>
<totfact> 0.21543399E+08</totfact>
</mgrwt>
</event>
<event>
 4    1  0.2721071E+004  0.2831497E+02  0.7546771E-02  0.1617498E+00
         21   -1    0    0  503  502  0.00000000000E+00  0.00000000000E+00  0.66275281512E+03  0.66275281512E+03  0.00000000000E+00 0.  1.
         21   -1    0    0  501  503 -0.00000000000E+00 -0.00000000000E+00 -0.12209530092E+01  0.12209530092E+01  0.00000000000E+00 0. -1.
          2    1    1    2  501    0 -0.27871568862E+02  0.49912954535E+01  0.29890551827E+03  0.30024364479E+03  0.00000000000E+00 0. -1.
         -2    1    1    2    0  502  0.27871568862E+02 -0.49912954535E+01  0.36262634383E+03  0.36373012334E+03  0.00000000000E+00 0.  1.
<mgrwt>
<rscale>  2 0.28314967E+02</rscale>
<asrwt>0</asrwt>
<pdfrwt beam="1">  1       21 0.10196168E+00 0.28314967E+02</pdfrwt>
<pdfrwt beam="2">  1       21 0.18783945E-03 0.28314967E+02</pdfrwt>
<totfact> 0.32113522E+07</totfact>
</mgrwt>
</event>
<event>
 4    1  0.2721071E+004  0.2505032E+02  0.7546771E-02  0.1660280E+00
         21   -1    0    0  501  502  0.00000000000E+00  0.00000000000E+00  0.13251028420E+02  0.13251028420E+02  0.00000000000E+00 0.  1.
         21   -1    0    0  502  503 -0.00000000000E+00 -0.00000000000E+00 -0.11290113763E+03  0.11290113763E+03  0.00000000000E+00 0. -1.
          2    1    1    2  501    0  0.15964096891E+02  0.19304566171E+02 -0.17649118732E+01  0.25112418810E+02  0.00000000000E+00 0.  1.
         -2    1    1    2    0  503 -0.15964096891E+02 -0.19304566171E+02 -0.97885197341E+02  0.10103974724E+03  0.00000000000E+00 0. -1.
<mgrwt>
<rscale>  2 0.25050323E+02</rscale>
<asrwt>0</asrwt>
<pdfrwt beam="1">  1       21 0.20386198E-02 0.25050323E+02</pdfrwt>
<pdfrwt beam="2">  1       21 0.17369405E-01 0.25050323E+02</pdfrwt>
<totfact> 0.27194458E+07</totfact>
</mgrwt>
</event>
<event>
 4    1  0.2721071E+004  0.2620222E+02  0.7546771E-02  0.1644311E+00
         21   -1    0    0  503  502  0.00000000000E+00  0.00000000000E+00  0.12301762519E+02  0.12301762519E+02  0.00000000000E+00 0.  1.
         21   -1    0    0  501  503 -0.00000000000E+00 -0.00000000000E+00 -0.11386562484E+03  0.11386562484E+03  0.00000000000E+00 0. -1.
          2    1    1    2  501    0  0.25907435396E+02 -0.39193074586E+01 -0.95826716964E+02  0.99344430462E+02  0.00000000000E+00 0. -1.
         -2    1    1    2    0  502 -0.25907435396E+02  0.39193074586E+01 -0.57371453552E+01  0.26822956895E+02  0.00000000000E+00 0.  1.
<mgrwt>
<rscale>  2 0.26202217E+02</rscale>
<asrwt>0</asrwt>
<pdfrwt beam="1">  1       21 0.18925789E-02 0.26202217E+02</pdfrwt>
<pdfrwt beam="2">  1       21 0.17517788E-01 0.26202217E+02</pdfrwt>
<totfact> 0.30334379E+07</totfact>
</mgrwt>
</event>
<event>
 4    1  0.2721071E+004  0.2570112E+02  0.7546771E-02  0.1651131E+00
         21   -1    0    0  503  502  0.00000000000E+00  0.00000000000E+00  0.81941906795E+01  0.81941906795E+01  0.00000000000E+00 0.  1.
         21   -1    0    0  501  503 -0.00000000000E+00 -0.00000000000E+00 -0.12496385043E+03  0.12496385043E+03  0.00000000000E+00 0. -1.
          2    1    1    2  501    0  0.23269780623E+02 -0.10911688211E+02 -0.98049381576E+02  0.10136187083E+03  0.00000000000E+00 0. -1.
         -2    1    1    2    0  502 -0.23269780623E+02  0.10911688211E+02 -0.18720278178E+02  0.31796170287E+02  0.00000000000E+00 0.  1.
<mgrwt>
<rscale>  2 0.25701121E+02</rscale>
<asrwt>0</asrwt>
<pdfrwt beam="1">  1       21 0.12606447E-02 0.25701121E+02</pdfrwt>
<pdfrwt beam="2">  1       21 0.19225208E-01 0.25701121E+02</pdfrwt>
<totfact> 0.47802326E+07</totfact>
</mgrwt>
</event>
<event>
 4    1  0.2721071E+004  0.4559161E+02  0.7546771E-02  0.1470682E+00
         21   -1    0    0  501  502  0.00000000000E+00  0.00000000000E+00  0.19067206869E+03  0.19067206869E+03  0.00000000000E+00 0.  1.
         21   -1    0    0  502  503 -0.00000000000E+00 -0.00000000000E+00 -0.12954352903E+02  0.12954352903E+02  0.00000000000E+00 0. -1.
          2    1    1    2  501    0  0.13547953962E+02 -0.43532142185E+02  0.12938961085E+03  0.13718697407E+03  0.00000000000E+00 0.  1.
         -2    1    1    2    0  503 -0.13547953962E+02  0.43532142185E+02  0.48328104936E+02  0.66439447518E+02  0.00000000000E+00 0. -1.
<mgrwt>
<rscale>  2 0.45591605E+02</rscale>
<asrwt>0</asrwt>
<pdfrwt beam="1">  1       21 0.29334162E-01 0.45591605E+02</pdfrwt>
<pdfrwt beam="2">  1       21 0.19929775E-02 0.45591605E+02</pdfrwt>
<totfact> 0.12179671E+07</totfact>
</mgrwt>
</event>
<event>
 4    1  0.2721071E+004  0.2294748E+02  0.7546771E-02  0.1692363E+00
         21   -1    0    0  501  502  0.00000000000E+00  0.00000000000E+00  0.10443547542E+02  0.10443547542E+02  0.00000000000E+00 0. -1.
         21   -1    0    0  502  503 -0.00000000000E+00 -0.00000000000E+00 -0.17772461098E+03  0.17772461098E+03  0.00000000000E+00 0.  1.
          2    1    1    2  501    0 -0.32537404519E+01 -0.22715628881E+02 -0.40134735922E+01  0.23295806332E+02  0.00000000000E+00 0. -1.
         -2    1    1    2    0  503  0.32537404519E+01  0.22715628881E+02 -0.16326758985E+03  0.16487235219E+03  0.00000000000E+00 0.  1.
<mgrwt>
<rscale>  2 0.22947475E+02</rscale>
<asrwt>0</asrwt>
<pdfrwt beam="1">  1       21 0.16066998E-02 0.22947475E+02</pdfrwt>
<pdfrwt beam="2">  1       21 0.27342246E-01 0.22947475E+02</pdfrwt>
<totfact> 0.17271137E+07</totfact>
</mgrwt>
</event>
<event>
 4    1  0.2721071E+004  0.3906042E+02  0.7546771E-02  0.1515242E+00
         21   -1    0    0  501  502  0.00000000000E+00  0.00000000000E+00  0.13050065744E+04  0.13050065744E+04  0.00000000000E+00 0.  1.
         21   -1    0    0  502  503 -0.00000000000E+00 -0.00000000000E+00 -0.23532370296E+01  0.23532370296E+01  0.00000000000E+00 0. -1.
          2    1    1    2  501    0  0.21618796188E+02  0.32532198467E+02  0.11150176275E+04  0.11157015846E+04  0.00000000000E+00 0.  1.
         -2    1    1    2    0  503 -0.21618796188E+02 -0.32532198467E+02  0.18763570989E+03  0.19165822683E+03  0.00000000000E+00 0. -1.
<mgrwt>
<rscale>  2 0.39060418E+02</rscale>
<asrwt>0</asrwt>
<pdfrwt beam="1">  1       21 0.20076966E+00 0.39060418E+02</pdfrwt>
<pdfrwt beam="2">  1       21 0.36203751E-03 0.39060418E+02</pdfrwt>
<totfact> 0.24680535E+06</totfact>
</mgrwt>
</event>
<event>
 4    1  0.2721071E+004  0.2881337E+02  0.7546771E-02  0.1611588E+00
         21   -1    0    0  501  502  0.00000000000E+00  0.00000000000E+00  0.62163164871E+01  0.62163164871E+01  0.00000000000E+00 0.  1.
         21   -1    0    0  502  503 -0.00000000000E+00 -0.00000000000E+00 -0.21165278568E+03  0.21165278568E+03  0.00000000000E+00 0. -1.
          2    1    1    2  501    0  0.44891706007E+01 -0.28461510936E+02 -0.36545750561E+02  0.46538179396E+02  0.00000000000E+00 0.  1.
         -2    1    1    2    0  503 -0.44891706007E+01  0.28461510936E+02 -0.16889071863E+03  0.17133092277E+03  0.00000000000E+00 0. -1.
<mgrwt>
<rscale>  2 0.28813369E+02</rscale>
<asrwt>0</asrwt>
<pdfrwt beam="1">  1       21 0.95635630E-03 0.28813369E+02</pdfrwt>
<pdfrwt beam="2">  1       21 0.32561970E-01 0.28813369E+02</pdfrwt>
<totfact> 0.28877373E+07</totfact>
</mgrwt>
</event>
<event>
 4    1  0.2721071E+004  0.2286637E+02  0.7546771E-02  0.1693685E+00
         21   -1    0    0  501  502  0.00000000000E+00  0.00000000000E+00  0.57566464874E+01  0.57566464874E+01  0.00000000000E+00 0. -1.
         21   -1    0    0  502  503 -0.00000000000E+00 -0.00000000000E+00 -0.10112257965E+03  0.10112257965E+03  0.00000000000E+00 0.  1.
          2    1    1    2  501    0  0.17372887590E+02 -0.14867869046E+02 -0.30633087003E+02  0.38226388431E+02  0.00000000000E+00 0. -1.
         -2    1    1    2    0  503 -0.17372887590E+02  0.14867869046E+02 -0.64732846161E+02  0.68652837708E+02  0.00000000000E+00 0.  1.
<mgrwt>
<rscale>  2 0.22866367E+02</rscale>
<asrwt>0</asrwt>
<pdfrwt beam="1">  1       21 0.88563796E-03 0.22866367E+02</pdfrwt>
<pdfrwt beam="2">  1       21 0.15557319E-01 0.22866367E+02</pdfrwt>
<totfact> 0.11380557E+08</totfact>
</mgrwt>
</event>
<event>
 4    1  0.2721071E+004  0.2333116E+02  0.7546771E-02  0.1686198E+00
         21   -1    0    0  501  502  0.00000000000E+00  0.00000000000E+00  0.25082076823E+01  0.25082076823E+01  0.00000000000E+00 0.  1.
         21   -1    0    0  502  503 -0.00000000000E+00 -0.00000000000E+00 -0.21709497480E+03  0.21709497480E+03  0.00000000000E+00 0. -1.
          2    1    1    2  501    0 -0.16386777624E+02  0.16607727874E+02 -0.10531833721E+03  0.10787166105E+03  0.00000000000E+00 0. -1.
         -2    1    1    2    0  503  0.16386777624E+02 -0.16607727874E+02 -0.10926842991E+03  0.11173152143E+03  0.00000000000E+00 0.  1.
<mgrwt>
<rscale>  2 0.23331162E+02</rscale>
<asrwt>0</asrwt>
<pdfrwt beam="1">  1       21 0.38587804E-03 0.23331162E+02</pdfrwt>
<pdfrwt beam="2">  1       21 0.33399232E-01 0.23331162E+02</pdfrwt>
<totfact> 0.10134514E+08</totfact>
</mgrwt>
</event>
<event>
 4    1  0.2721071E+004  0.2270120E+02  0.7546771E-02  0.1696400E+00
         21   -1    0    0  503  502  0.00000000000E+00  0.00000000000E+00  0.68722319163E+02  0.68722319163E+02  0.00000000000E+00 0. -1.
         21   -1    0    0  501  503 -0.00000000000E+00 -0.00000000000E+00 -0.18728346146E+02  0.18728346146E+02  0.00000000000E+00 0.  1.
          2    1    1    2  501    0  0.20436550634E+01 -0.22609028757E+02 -0.88610491798E+01  0.24369302410E+02  0.00000000000E+00 0.  1.
         -2    1    1    2    0  502 -0.20436550634E+01  0.22609028757E+02  0.58855022197E+02  0.63081362899E+02  0.00000000000E+00 0. -1.
<mgrwt>
<rscale>  2 0.22701205E+02</rscale>
<asrwt>0</asrwt>
<pdfrwt beam="1">  1       21 0.10572664E-01 0.22701205E+02</pdfrwt>
<pdfrwt beam="2">  1       21 0.28812841E-02 0.22701205E+02</pdfrwt>
<totfact> 0.36059345E+07</totfact>
</mgrwt>
</event>
<event>
 4    1  0.2721071E+004  0.2010435E+02  0.7546771E-02  0.1743261E+00
         21   -1    0    0  503  502  0.00000000000E+00  0.00000000000E+00  0.26193008666E+03  0.26193008666E+03  0.00000000000E+00 0. -1.
         21   -1    0    0  501  503 -0.00000000000E+00 -0.00000000000E+00 -0.16561194080E+01  0.16561194080E+01  0.00000000000E+00 0.  1.
          2    1    1    2  501    0  0.82779998776E+01 -0.18321014290E+02  0.95708373771E+02  0.97797124991E+02  0.00000000000E+00 0.  1.
         -2    1    1    2    0  502 -0.82779998776E+01  0.18321014290E+02  0.16456559348E+03  0.16578908108E+03  0.00000000000E+00 0. -1.
<mgrwt>
<rscale>  2 0.20104349E+02</rscale>
<asrwt>0</asrwt>
<pdfrwt beam="1">  1       21 0.40296904E-01 0.20104349E+02</pdfrwt>
<pdfrwt beam="2">  1       21 0.25478781E-03 0.20104349E+02</pdfrwt>
<totfact> 0.12556670E+08</totfact>
</mgrwt>
</event>
<event>
 4    1  0.2721071E+004  0.2131017E+02  0.7546771E-02  0.1720463E+00
         21   -1    0    0  501  502  0.00000000000E+00  0.00000000000E+00  0.28633064839E+00  0.28633064839E+00  0.00000000000E+00 0. -1.
         21   -1    0    0  502  503 -0.00000000000E+00 -0.00000000000E+00 -0.16037900154E+04  0.16037900154E+04  0.00000000000E+00 0.  1.
          2    1    1    2  501    0  0.20036757902E+02 -0.72561594519E+01 -0.71730627119E+03  0.71762274922E+03  0.00000000000E+00 0. -1.
         -2    1    1    2    0  503 -0.20036757902E+02  0.72561594519E+01 -0.88619741357E+03  0.88645359684E+03  0.00000000000E+00 0.  1.
<mgrwt>
<rscale>  2 0.21310174E+02</rscale>
<asrwt>0</asrwt>
<pdfrwt beam="1">  1       21 0.44051717E-04 0.21310174E+02</pdfrwt>
<pdfrwt beam="2">  1       21 0.24673217E+00 0.21310174E+02</pdfrwt>
<totfact> 0.27920464E+07</totfact>
</mgrwt>
</event>
<event>
 4    1  0.2721071E+004  0.2252955E+02  0.7546771E-02  0.1699251E+00
         21   -1    0    0  503  502  0.00000000000E+00  0.00000000000E+00  0.21922826772E+01  0.21922826772E+01  0.00000000000E+00 0.  1.
         21   -1    0    0  501  503 -0.00000000000E+00 -0.00000000000E+00 -0.25620484894E+03  0.25620484894E+03  0.00000000000E+00 0. -1.
          2    1    1    2  501    0  0.41630501731E+01 -0.22141585836E+02 -0.16710078676E+03  0.16861273305E+03  0.00000000000E+00 0. -1.
         -2    1    1    2    0  502 -0.41630501731E+01  0.22141585836E+02 -0.86911779497E+02  0.89784398564E+02  0.00000000000E+00 0.  1.
<mgrwt>
<rscale>  2 0.22529554E+02</rscale>
<asrwt>0</asrwt>
<pdfrwt beam="1">  1       21 0.33727420E-03 0.22529554E+02</pdfrwt>
<pdfrwt beam="2">  1       21 0.39416137E-01 0.22529554E+02</pdfrwt>
<totfact> 0.89848537E+07</totfact>
</mgrwt>
</event>
<event>
 4    1  0.2721071E+004  0.2798446E+02  0.7546771E-02  0.1621500E+00
         21   -1    0    0  501  502  0.00000000000E+00  0.00000000000E+00  0.15767110063E+03  0.15767110063E+03  0.00000000000E+00 0. -1.
         21   -1    0    0  502  503 -0.00000000000E+00 -0.00000000000E+00 -0.75706231722E+01  0.75706231722E+01  0.00000000000E+00 0.  1.
          2    1    1    2  501    0  0.21793693795E+02 -0.17554619199E+02  0.12350371393E+03  0.12663450201E+03  0.00000000000E+00 0. -1.
         -2    1    1    2    0  503 -0.21793693795E+02  0.17554619199E+02  0.26596763526E+02  0.38607221792E+02  0.00000000000E+00 0.  1.
<mgrwt>
<rscale>  2 0.27984455E+02</rscale>
<asrwt>0</asrwt>
<pdfrwt beam="1">  1       21 0.24257090E-01 0.27984455E+02</pdfrwt>
<pdfrwt beam="2">  1       21 0.11647114E-02 0.27984455E+02</pdfrwt>
<totfact> 0.36410229E+07</totfact>
</mgrwt>
</event>
<event>
 4    1  0.2721071E+004  0.2226671E+02  0.7546771E-02  0.1703680E+00
         21   -1    0    0  503  502  0.00000000000E+00  0.00000000000E+00  0.18403147691E+01  0.18403147691E+01  0.00000000000E+00 0.  1.
         21   -1    0    0  501  503 -0.00000000000E+00 -0.00000000000E+00 -0.28094940395E+03  0.28094940395E+03  0.00000000000E+00 0. -1.
          2    1    1    2  501    0 -0.76792930444E+01 -0.20900591099E+02 -0.16820550410E+03  0.16967291433E+03  0.00000000000E+00 0. -1.
         -2    1    1    2    0  502  0.76792930444E+01  0.20900591099E+02 -0.11090358508E+03  0.11311680438E+03  0.00000000000E+00 0.  1.
<mgrwt>
<rscale>  2 0.22266707E+02</rscale>
<asrwt>0</asrwt>
<pdfrwt beam="1">  1       21 0.28312546E-03 0.22266707E+02</pdfrwt>
<pdfrwt beam="2">  1       21 0.43222969E-01 0.22266707E+02</pdfrwt>
<totfact> 0.97097139E+07</totfact>
</mgrwt>
</event>
<event>
 4    1  0.2721071E+004  0.2075522E+02  0.7546771E-02  0.1730714E+00
         21   -1    0    0  501  502  0.00000000000E+00  0.00000000000E+00  0.24679996953E+03  0.24679996953E+03  0.00000000000E+00 0.  1.
         21   -1    0    0  502  503 -0.00000000000E+00 -0.00000000000E+00 -0.33083637694E+01  0.33083637694E+01  0.00000000000E+00 0. -1.
          2    1    1    2  501    0 -0.89713707123E+01 -0.18716132201E+02  0.20769817569E+03  0.20873263109E+03  0.00000000000E+00 0.  1.
         -2    1    1    2    0  503  0.89713707123E+01  0.18716132201E+02  0.35793430069E+02  0.41375702207E+02  0.00000000000E+00 0. -1.
<mgrwt>
<rscale>  2 0.20755219E+02</rscale>
<asrwt>0</asrwt>
<pdfrwt beam="1">  1       21 0.37969212E-01 0.20755219E+02</pdfrwt>
<pdfrwt beam="2">  1       21 0.50897923E-03 0.20755219E+02</pdfrwt>
<totfact> 0.51630820E+07</totfact>
</mgrwt>
</event>
<event>
 4    1  0.2721071E+004  0.2104167E+02  0.7546771E-02  0.1725373E+00
         21   -1    0    0  501  502  0.00000000000E+00  0.00000000000E+00  0.43308786688E+03  0.43308786688E+03  0.00000000000E+00 0. -1.
         21   -1    0    0  502  503 -0.00000000000E+00 -0.00000000000E+00 -0.14866433652E+01  0.14866433652E+01  0.00000000000E+00 0.  1.
          2    1    1    2  501    0 -0.19943646493E+02 -0.67084164134E+01  0.33723559745E+03  0.33789140278E+03  0.00000000000E+00 0. -1.
         -2    1    1    2    0  503  0.19943646493E+02  0.67084164134E+01  0.94365626062E+02  0.96683107461E+02  0.00000000000E+00 0.  1.
<mgrwt>
<rscale>  2 0.21041670E+02</rscale>
<asrwt>0</asrwt>
<pdfrwt beam="1">  1       21 0.66628802E-01 0.21041670E+02</pdfrwt>
<pdfrwt beam="2">  1       21 0.22871471E-03 0.21041670E+02</pdfrwt>
<totfact> 0.55817321E+07</totfact>
</mgrwt>
</event>
<event>
 4    1  0.2721071E+004  0.2430566E+02  0.7546771E-02  0.1671180E+00
         21   -1    0    0  501  502  0.00000000000E+00  0.00000000000E+00  0.11862545564E+02  0.11862545564E+02  0.00000000000E+00 0.  1.
         21   -1    0    0  502  503 -0.00000000000E+00 -0.00000000000E+00 -0.17554801509E+03  0.17554801509E+03  0.00000000000E+00 0. -1.
          2    1    1    2  501    0 -0.79902484875E+01 -0.22954760107E+02 -0.25350684716E+01  0.24437505081E+02  0.00000000000E+00 0.  1.
         -2    1    1    2    0  503  0.79902484875E+01  0.22954760107E+02 -0.16115040105E+03  0.16297305557E+03  0.00000000000E+00 0. -1.
<mgrwt>
<rscale>  2 0.24305659E+02</rscale>
<asrwt>0</asrwt>
<pdfrwt beam="1">  1       21 0.18250072E-02 0.24305659E+02</pdfrwt>
<pdfrwt beam="2">  1       21 0.27007385E-01 0.24305659E+02</pdfrwt>
<totfact> 0.14707897E+07</totfact>
</mgrwt>
</event>
<event>
 4    1  0.2721071E+004  0.2243140E+02  0.7546771E-02  0.1700896E+00
         21   -1    0    0  501  502  0.00000000000E+00  0.00000000000E+00  0.40157498104E+01  0.40157498104E+01  0.00000000000E+00 0. -1.
         21   -1    0    0  502  503 -0.00000000000E+00 -0.00000000000E+00 -0.12744360454E+03  0.12744360454E+03  0.00000000000E+00 0.  1.
          2    1    1    2  501    0  0.12035072123E+02 -0.18929465408E+02 -0.70241429097E+02  0.73736191814E+02  0.00000000000E+00 0. -1.
         -2    1    1    2    0  503 -0.12035072123E+02  0.18929465408E+02 -0.53186425634E+02  0.57723162538E+02  0.00000000000E+00 0.  1.
<mgrwt>
<rscale>  2 0.22431398E+02</rscale>
<asrwt>0</asrwt>
<pdfrwt beam="1">  1       21 0.61780757E-03 0.22431398E+02</pdfrwt>
<pdfrwt beam="2">  1       21 0.19606711E-01 0.22431398E+02</pdfrwt>
<totfact> 0.12988146E+08</totfact>
</mgrwt>
</event>
<event>
 4    1  0.2721071E+004  0.3099239E+02  0.7546771E-02  0.1587371E+00
         21   -1    0    0  501  502  0.00000000000E+00  0.00000000000E+00  0.61543831500E+02  0.61543831500E+02  0.00000000000E+00 0. -1.
         21   -1    0    0  502  503 -0.00000000000E+00 -0.00000000000E+00 -0.27474536211E+02  0.27474536211E+02  0.00000000000E+00 0.  1.
          2    1    1    2  501    0  0.26655160289E+02  0.15812353564E+02  0.46286994199E+02  0.55704702918E+02  0.00000000000E+00 0. -1.
         -2    1    1    2    0  503 -0.26655160289E+02 -0.15812353564E+02 -0.12217698910E+02  0.33313664793E+02  0.00000000000E+00 0.  1.
<mgrwt>
<rscale>  2 0.30992388E+02</rscale>
<asrwt>0</asrwt>
<pdfrwt beam="1">  1       21 0.94682818E-02 0.30992388E+02</pdfrwt>
<pdfrwt beam="2">  1       21 0.42268517E-02 0.30992388E+02</pdfrwt>
<totfact> 0.25359164E+07</totfact>
</mgrwt>
</event>
<event>
 4    1  0.2721071E+004  0.2215399E+02  0.7546771E-02  0.1705602E+00
         21   -1    0    0  503  502  0.00000000000E+00  0.00000000000E+00  0.15811463096E+03  0.15811463096E+03  0.00000000000E+00 0.  1.
         21   -1    0    0  501  503 -0.00000000000E+00 -0.00000000000E+00 -0.33934567257E+01  0.33934567257E+01  0.00000000000E+00 0. -1.
          2    1    1    2  501    0 -0.96645559594E+01  0.19934785680E+02  0.53778603190E+02  0.58163025051E+02  0.00000000000E+00 0. -1.
         -2    1    1    2    0  502  0.96645559594E+01 -0.19934785680E+02  0.10094257104E+03  0.10334506263E+03  0.00000000000E+00 0.  1.
<mgrwt>
<rscale>  2 0.22153991E+02</rscale>
<asrwt>0</asrwt>
<pdfrwt beam="1">  1       21 0.24325322E-01 0.22153991E+02</pdfrwt>
<pdfrwt beam="2">  1       21 0.52207039E-03 0.22153991E+02</pdfrwt>
<totfact> 0.11364000E+08</totfact>
</mgrwt>
</event>
<event>
 4    1  0.2721071E+004  0.2058537E+02  0.7546771E-02  0.1733932E+00
         21   -1    0    0  503  502  0.00000000000E+00  0.00000000000E+00  0.18663319859E+01  0.18663319859E+01  0.00000000000E+00 0.  1.
         21   -1    0    0  501  503 -0.00000000000E+00 -0.00000000000E+00 -0.37581946511E+03  0.37581946511E+03  0.00000000000E+00 0. -1.
          2    1    1    2  501    0 -0.12564953446E+02  0.16305809273E+02 -0.30578919679E+03  0.30648130505E+03  0.00000000000E+00 0. -1.
         -2    1    1    2    0  502  0.12564953446E+02 -0.16305809273E+02 -0.68163936339E+02  0.71204492052E+02  0.00000000000E+00 0.  1.
<mgrwt>
<rscale>  2 0.20585370E+02</rscale>
<asrwt>0</asrwt>
<pdfrwt beam="1">  1       21 0.28712811E-03 0.20585370E+02</pdfrwt>
<pdfrwt beam="2">  1       21 0.57818356E-01 0.20585370E+02</pdfrwt>
<totfact> 0.53062377E+07</totfact>
</mgrwt>
</event>
<event>
 4    1  0.2721071E+004  0.2961860E+02  0.7546771E-02  0.1602343E+00
         21   -1    0    0  503  502  0.00000000000E+00  0.00000000000E+00  0.16049078335E+03  0.16049078335E+03  0.00000000000E+00 0.  1.
         21   -1    0    0  501  503 -0.00000000000E+00 -0.00000000000E+00 -0.13079180069E+02  0.13079180069E+02  0.00000000000E+00 0. -1.
          2    1    1    2  501    0 -0.26599319976E+02 -0.13028349522E+02  0.74942181301E+01  0.30552005169E+02  0.00000000000E+00 0. -1.
         -2    1    1    2    0  502  0.26599319976E+02  0.13028349522E+02  0.13991738515E+03  0.14301795825E+03  0.00000000000E+00 0.  1.
<mgrwt>
<rscale>  2 0.29618604E+02</rscale>
<asrwt>0</asrwt>
<pdfrwt beam="1">  1       21 0.24690888E-01 0.29618604E+02</pdfrwt>
<pdfrwt beam="2">  1       21 0.20121817E-02 0.29618604E+02</pdfrwt>
<totfact> 0.15423227E+07</totfact>
</mgrwt>
</event>
<event>
 4    1  0.2721071E+004  0.2715780E+02  0.7546771E-02  0.1631813E+00
         21   -1    0    0  503  502  0.00000000000E+00  0.00000000000E+00  0.11267067736E+02  0.11267067736E+02  0.00000000000E+00 0.  1.
         21   -1    0    0  501  503 -0.00000000000E+00 -0.00000000000E+00 -0.84467242114E+02  0.84467242114E+02  0.00000000000E+00 0. -1.
          2    1    1    2  501    0 -0.23262755066E+02  0.14013931683E+02 -0.59306532857E+02  0.65228911488E+02  0.00000000000E+00 0.  1.
         -2    1    1    2    0  502  0.23262755066E+02 -0.14013931683E+02 -0.13893641521E+02  0.30505398361E+02  0.00000000000E+00 0. -1.
<mgrwt>
<rscale>  2 0.27157799E+02</rscale>
<asrwt>0</asrwt>
<pdfrwt beam="1">  1       21 0.17333951E-02 0.27157799E+02</pdfrwt>
<pdfrwt beam="2">  1       21 0.12994960E-01 0.27157799E+02</pdfrwt>
<totfact> 0.58405222E+07</totfact>
</mgrwt>
</event>
<event>
 4    1  0.2721071E+004  0.3168185E+02  0.7546771E-02  0.1580209E+00
         21   -1    0    0  503  502  0.00000000000E+00  0.00000000000E+00  0.27665748876E+02  0.27665748876E+02  0.00000000000E+00 0.  1.
         21   -1    0    0  501  503 -0.00000000000E+00 -0.00000000000E+00 -0.38800157139E+02  0.38800157139E+02  0.00000000000E+00 0. -1.
          2    1    1    2  501    0  0.19388364338E+02  0.25056555235E+02 -0.14035269303E+02  0.34651528341E+02  0.00000000000E+00 0. -1.
         -2    1    1    2    0  502 -0.19388364338E+02 -0.25056555235E+02  0.29008610406E+01  0.31814377674E+02  0.00000000000E+00 0.  1.
<mgrwt>
<rscale>  2 0.31681850E+02</rscale>
<asrwt>0</asrwt>
<pdfrwt beam="1">  1       21 0.42562691E-02 0.31681850E+02</pdfrwt>
<pdfrwt beam="2">  1       21 0.59692549E-02 0.31681850E+02</pdfrwt>
<totfact> 0.53832686E+07</totfact>
</mgrwt>
</event>
<event>
 4    1  0.2721071E+004  0.2240976E+02  0.7546771E-02  0.1701260E+00
         21   -1    0    0  503  502  0.00000000000E+00  0.00000000000E+00  0.22667344287E+01  0.22667344287E+01  0.00000000000E+00 0. -1.
         21   -1    0    0  501  503 -0.00000000000E+00 -0.00000000000E+00 -0.22155420802E+03  0.22155420802E+03  0.00000000000E+00 0.  1.
          2    1    1    2  501    0 -0.16330824333E+02 -0.15346054860E+02 -0.10921624964E+03  0.11149164277E+03  0.00000000000E+00 0.  1.
         -2    1    1    2    0  502  0.16330824333E+02  0.15346054860E+02 -0.11007122396E+03  0.11232929968E+03  0.00000000000E+00 0. -1.
<mgrwt>
<rscale>  2 0.22409757E+02</rscale>
<asrwt>0</asrwt>
<pdfrwt beam="1">  1       21 0.34872830E-03 0.22409757E+02</pdfrwt>
<pdfrwt beam="2">  1       21 0.34085270E-01 0.22409757E+02</pdfrwt>
<totfact> 0.11198238E+08</totfact>
</mgrwt>
</event>
<event>
 4    1  0.2721071E+004  0.2434829E+02  0.7546771E-02  0.1670543E+00
         21   -1    0    0  503  502  0.00000000000E+00  0.00000000000E+00  0.34768268761E+03  0.34768268761E+03  0.00000000000E+00 0. -1.
         21   -1    0    0  501  503 -0.00000000000E+00 -0.00000000000E+00 -0.31431136029E+02  0.31431136029E+02  0.00000000000E+00 0.  1.
          2    1    1    2  501    0  0.20597186676E+02  0.12984427408E+02 -0.26217782302E+02  0.35780044200E+02  0.00000000000E+00 0.  1.
         -2    1    1    2    0  502 -0.20597186676E+02 -0.12984427408E+02  0.34246933388E+03  0.34333377944E+03  0.00000000000E+00 0. -1.
<mgrwt>
<rscale>  2 0.24348295E+02</rscale>
<asrwt>0</asrwt>
<pdfrwt beam="1">  1       21 0.53489642E-01 0.24348295E+02</pdfrwt>
<pdfrwt beam="2">  1       21 0.48355596E-02 0.24348295E+02</pdfrwt>
<totfact> 0.88991170E+05</totfact>
</mgrwt>
</event>
<event>
 4    1  0.2721071E+004  0.3465140E+02  0.7546771E-02  0.1551718E+00
         21   -1    0    0  503  502  0.00000000000E+00  0.00000000000E+00  0.22155252209E+03  0.22155252209E+03  0.00000000000E+00 0. -1.
         21   -1    0    0  501  503 -0.00000000000E+00 -0.00000000000E+00 -0.68986761142E+01  0.68986761142E+01  0.00000000000E+00 0.  1.
          2    1    1    2  501    0  0.23908049998E+02 -0.25082362704E+02  0.54436141162E+02  0.64529165794E+02  0.00000000000E+00 0.  1.
         -2    1    1    2    0  502 -0.23908049998E+02  0.25082362704E+02  0.16021770481E+03  0.16392203241E+03  0.00000000000E+00 0. -1.
<mgrwt>
<rscale>  2 0.34651404E+02</rscale>
<asrwt>0</asrwt>
<pdfrwt beam="1">  1       21 0.34084998E-01 0.34651404E+02</pdfrwt>
<pdfrwt beam="2">  1       21 0.10613350E-02 0.34651404E+02</pdfrwt>
<totfact> 0.23411261E+07</totfact>
</mgrwt>
</event>
<event>
 4    1  0.2721071E+004  0.2221818E+02  0.7546771E-02  0.1704506E+00
         21   -1    0    0  501  502  0.00000000000E+00  0.00000000000E+00  0.96378070632E+02  0.96378070632E+02  0.00000000000E+00 0.  1.
         21   -1    0    0  502  503 -0.00000000000E+00 -0.00000000000E+00 -0.10096909412E+02  0.10096909412E+02  0.00000000000E+00 0. -1.
          2    1    1    2  501    0 -0.18911143883E+02 -0.11662603072E+02  0.80509995212E+02  0.83519500731E+02  0.00000000000E+00 0.  1.
         -2    1    1    2    0  503  0.18911143883E+02  0.11662603072E+02  0.57711660081E+01  0.22955479313E+02  0.00000000000E+00 0. -1.
<mgrwt>
<rscale>  2 0.22218183E+02</rscale>
<asrwt>0</asrwt>
<pdfrwt beam="1">  1       21 0.14827395E-01 0.22218183E+02</pdfrwt>
<pdfrwt beam="2">  1       21 0.15533707E-02 0.22218183E+02</pdfrwt>
<totfact> 0.52523073E+07</totfact>
</mgrwt>
</event>
<event>
 4    1  0.2721071E+004  0.3203606E+02  0.7546771E-02  0.1576615E+00
         21   -1    0    0  503  502  0.00000000000E+00  0.00000000000E+00  0.10230329690E+03  0.10230329690E+03  0.00000000000E+00 0.  1.
         21   -1    0    0  501  503 -0.00000000000E+00 -0.00000000000E+00 -0.15354032337E+02  0.15354032337E+02  0.00000000000E+00 0. -1.
          2    1    1    2  501    0  0.15294065750E+02 -0.28149610118E+02  0.88396002978E+01  0.33233229310E+02  0.00000000000E+00 0. -1.
         -2    1    1    2    0  502 -0.15294065750E+02  0.28149610118E+02  0.78109664269E+02  0.84424099931E+02  0.00000000000E+00 0.  1.
<mgrwt>
<rscale>  2 0.32036058E+02</rscale>
<asrwt>0</asrwt>
<pdfrwt beam="1">  1       21 0.15738968E-01 0.32036058E+02</pdfrwt>
<pdfrwt beam="2">  1       21 0.23621589E-02 0.32036058E+02</pdfrwt>
<totfact> 0.26975927E+07</totfact>
</mgrwt>
</event>
<event>
 4    1  0.2721071E+004  0.2535187E+02  0.7546771E-02  0.1655999E+00
         21   -1    0    0  503  502  0.00000000000E+00  0.00000000000E+00  0.11082638812E+02  0.11082638812E+02  0.00000000000E+00 0. -1.
         21   -1    0    0  501  503 -0.00000000000E+00 -0.00000000000E+00 -0.92608912960E+02  0.92608912960E+02  0.00000000000E+00 0.  1.
          2    1    1    2  501    0 -0.23504719348E+02 -0.94997603078E+01 -0.72460552988E+02  0.76767499743E+02  0.00000000000E+00 0.  1.
         -2    1    1    2    0  502  0.23504719348E+02  0.94997603078E+01 -0.90657211601E+01  0.26924052029E+02  0.00000000000E+00 0. -1.
<mgrwt>
<rscale>  2 0.25351869E+02</rscale>
<asrwt>0</asrwt>
<pdfrwt beam="1">  1       21 0.17050214E-02 0.25351869E+02</pdfrwt>
<pdfrwt beam="2">  1       21 0.14247525E-01 0.25351869E+02</pdfrwt>
<totfact> 0.50403695E+07</totfact>
</mgrwt>
</event>
<event>
 4    1  0.2721071E+004  0.2106019E+02  0.7546771E-02  0.1725031E+00
         21   -1    0    0  503  502  0.00000000000E+00  0.00000000000E+00  0.17023408429E+03  0.17023408429E+03  0.00000000000E+00 0. -1.
         21   -1    0    0  501  503 -0.00000000000E+00 -0.00000000000E+00 -0.70086945647E+01  0.70086945647E+01  0.00000000000E+00 0.  1.
          2    1    1    2  501    0 -0.11100266829E+02  0.17897369683E+02  0.11368937724E+02  0.23932916876E+02  0.00000000000E+00 0.  1.
         -2    1    1    2    0  502  0.11100266829E+02 -0.17897369683E+02  0.15185645200E+03  0.15330986198E+03  0.00000000000E+00 0. -1.
<mgrwt>
<rscale>  2 0.21060194E+02</rscale>
<asrwt>0</asrwt>
<pdfrwt beam="1">  1       21 0.26189856E-01 0.21060194E+02</pdfrwt>
<pdfrwt beam="2">  1       21 0.10782608E-02 0.21060194E+02</pdfrwt>
<totfact> 0.33442362E+07</totfact>
</mgrwt>
</event>
<event>
 4    1  0.2721071E+004  0.2298935E+02  0.7546771E-02  0.1691683E+00
         21   -1    0    0  501  502  0.00000000000E+00  0.00000000000E+00  0.28821590299E+01  0.28821590299E+01  0.00000000000E+00 0.  1.
         21   -1    0    0  502  503 -0.00000000000E+00 -0.00000000000E+00 -0.20006509437E+03  0.20006509437E+03  0.00000000000E+00 0. -1.
          2    1    1    2  501    0 -0.22899156519E+02  0.20344646759E+01 -0.69281068918E+02  0.72995732246E+02  0.00000000000E+00 0.  1.
         -2    1    1    2    0  503  0.22899156519E+02 -0.20344646759E+01 -0.12790186642E+03  0.12995152116E+03  0.00000000000E+00 0. -1.
<mgrwt>
<rscale>  2 0.22989354E+02</rscale>
<asrwt>0</asrwt>
<pdfrwt beam="1">  1       21 0.44340895E-03 0.22989354E+02</pdfrwt>
<pdfrwt beam="2">  1       21 0.30779254E-01 0.22989354E+02</pdfrwt>
<totfact> 0.95612830E+07</totfact>
</mgrwt>
</event>
<event>
 4    1  0.2721071E+004  0.2194423E+02  0.7546771E-02  0.1709218E+00
         21   -1    0    0  501  502  0.00000000000E+00  0.00000000000E+00  0.11765686749E+04  0.11765686749E+04  0.00000000000E+00 0. -1.
         21   -1    0    0  502  503 -0.00000000000E+00 -0.00000000000E+00 -0.46423106721E+00  0.46423106721E+00  0.00000000000E+00 0.  1.
          2    1    1    2  501    0  0.21813536345E+02  0.23914264791E+01  0.79052592249E+03  0.79083043911E+03  0.00000000000E+00 0. -1.
         -2    1    1    2    0  503 -0.21813536345E+02 -0.23914264791E+01  0.38557852130E+03  0.38620246681E+03  0.00000000000E+00 0.  1.
<mgrwt>
<rscale>  2 0.21944231E+02</rscale>
<asrwt>0</asrwt>
<pdfrwt beam="1">  1       21 0.18100818E+00 0.21944231E+02</pdfrwt>
<pdfrwt beam="2">  1       21 0.71421106E-04 0.21944231E+02</pdfrwt>
<totfact> 0.32019580E+07</totfact>
</mgrwt>
</event>
<event>
 4    1  0.2721071E+004  0.2007028E+02  0.7546771E-02  0.1743934E+00
         21   -1    0    0  503  502  0.00000000000E+00  0.00000000000E+00  0.50296338105E+02  0.50296338105E+02  0.00000000000E+00 0.  1.
         21   -1    0    0  501  503 -0.00000000000E+00 -0.00000000000E+00 -0.18492003477E+02  0.18492003477E+02  0.00000000000E+00 0. -1.
          2    1    1    2  501    0 -0.65993465347E+01 -0.18954285124E+02 -0.99941875706E+01  0.22420974208E+02  0.00000000000E+00 0. -1.
         -2    1    1    2    0  502  0.65993465347E+01  0.18954285124E+02  0.41798522198E+02  0.46367367374E+02  0.00000000000E+00 0.  1.
<mgrwt>
<rscale>  2 0.20070284E+02</rscale>
<asrwt>0</asrwt>
<pdfrwt beam="1">  1       21 0.77378981E-02 0.20070284E+02</pdfrwt>
<pdfrwt beam="2">  1       21 0.28449236E-02 0.20070284E+02</pdfrwt>
<totfact> 0.59391181E+07</totfact>
</mgrwt>
</event>
<event>
 4    1  0.2721071E+004  0.2207740E+02  0.7546771E-02  0.1706917E+00
         21   -1    0    0  501  502  0.00000000000E+00  0.00000000000E+00  0.30141970050E+02  0.30141970050E+02  0.00000000000E+00 0.  1.
         21   -1    0    0  502  503 -0.00000000000E+00 -0.00000000000E+00 -0.27462056992E+02  0.27462056992E+02  0.00000000000E+00 0. -1.
          2    1    1    2  501    0 -0.19704826504E+02 -0.99564734979E+01  0.19808502582E+02  0.29661225980E+02  0.00000000000E+00 0.  1.
         -2    1    1    2    0  503  0.19704826504E+02  0.99564734979E+01 -0.17128589525E+02  0.27942801062E+02  0.00000000000E+00 0. -1.
<mgrwt>
<rscale>  2 0.22077399E+02</rscale>
<asrwt>0</asrwt>
<pdfrwt beam="1">  1       21 0.46372262E-02 0.22077399E+02</pdfrwt>
<pdfrwt beam="2">  1       21 0.42249318E-02 0.22077399E+02</pdfrwt>
<totfact> 0.74662702E+07</totfact>
</mgrwt>
</event>
<event>
 4    1  0.2721071E+004  0.3034190E+02  0.7546771E-02  0.1594340E+00
         21   -1    0    0  503  502  0.00000000000E+00  0.00000000000E+00  0.24097638009E+01  0.24097638009E+01  0.00000000000E+00 0. -1.
         21   -1    0    0  501  503 -0.00000000000E+00 -0.00000000000E+00 -0.38711527656E+03  0.38711527656E+03  0.00000000000E+00 0.  1.
          2    1    1    2  501    0  0.29128012073E+02 -0.84964759090E+01 -0.21464869715E+03  0.21678259704E+03  0.00000000000E+00 0.  1.
         -2    1    1    2    0  502 -0.29128012073E+02  0.84964759090E+01 -0.17005681561E+03  0.17274244332E+03  0.00000000000E+00 0. -1.
<mgrwt>
<rscale>  2 0.30341905E+02</rscale>
<asrwt>0</asrwt>
<pdfrwt beam="1">  1       21 0.37073307E-03 0.30341905E+02</pdfrwt>
<pdfrwt beam="2">  1       21 0.59556168E-01 0.30341905E+02</pdfrwt>
<totfact> 0.37428791E+07</totfact>
</mgrwt>
</event>
<event>
 4    1  0.2721071E+004  0.2724412E+02  0.7546771E-02  0.1630715E+00
         21   -1    0    0  503  502  0.00000000000E+00  0.00000000000E+00  0.52889757241E+00  0.52889757241E+00  0.00000000000E+00 0.  1.
         21   -1    0    0  501  503 -0.00000000000E+00 -0.00000000000E+00 -0.14368102328E+04  0.14368102328E+04  0.00000000000E+00 0. -1.
          2    1    1    2  501    0  0.26639376656E+02 -0.57083932532E+01 -0.82776966512E+03  0.82821788235E+03  0.00000000000E+00 0. -1.
         -2    1    1    2    0  502 -0.26639376656E+02  0.57083932532E+01 -0.60851167015E+03  0.60912124807E+03  0.00000000000E+00 0.  1.
<mgrwt>
<rscale>  2 0.27244121E+02</rscale>
<asrwt>0</asrwt>
<pdfrwt beam="1">  1       21 0.81370008E-04 0.27244121E+02</pdfrwt>
<pdfrwt beam="2">  1       21 0.22104460E+00 0.27244121E+02</pdfrwt>
<totfact> 0.16325664E+07</totfact>
</mgrwt>
</event>
<event>
 4    1  0.2721071E+004  0.2683904E+02  0.7546771E-02  0.1635911E+00
         21   -1    0    0  503  502  0.00000000000E+00  0.00000000000E+00  0.26869015396E+02  0.26869015396E+02  0.00000000000E+00 0. -1.
         21   -1    0    0  501  503 -0.00000000000E+00 -0.00000000000E+00 -0.26978256259E+02  0.26978256259E+02  0.00000000000E+00 0.  1.
          2    1    1    2  501    0 -0.39099003603E+01 -0.26552713315E+02  0.20773496185E+01  0.26919310664E+02  0.00000000000E+00 0. -1.
         -2    1    1    2    0  502  0.39099003603E+01  0.26552713315E+02 -0.21865904809E+01  0.26927960991E+02  0.00000000000E+00 0.  1.
<mgrwt>
<rscale>  2 0.26839037E+02</rscale>
<asrwt>0</asrwt>
<pdfrwt beam="1">  1       21 0.41336947E-02 0.26839037E+02</pdfrwt>
<pdfrwt beam="2">  1       21 0.41505010E-02 0.26839037E+02</pdfrwt>
<totfact> 0.97152481E+07</totfact>
</mgrwt>
</event>
<event>
 4    1  0.2721071E+004  0.2095910E+02  0.7546771E-02  0.1726901E+00
         21   -1    0    0  503  502  0.00000000000E+00  0.00000000000E+00  0.16701885120E+02  0.16701885120E+02  0.00000000000E+00 0.  1.
         21   -1    0    0  501  503 -0.00000000000E+00 -0.00000000000E+00 -0.40821222528E+02  0.40821222528E+02  0.00000000000E+00 0. -1.
          2    1    1    2  501    0 -0.35589154210E+01 -0.20654732765E+02 -0.29213028083E+02  0.35953927106E+02  0.00000000000E+00 0. -1.
         -2    1    1    2    0  502  0.35589154210E+01  0.20654732765E+02  0.50936906749E+01  0.21569180542E+02  0.00000000000E+00 0.  1.
<mgrwt>
<rscale>  2 0.20959100E+02</rscale>
<asrwt>0</asrwt>
<pdfrwt beam="1">  1       21 0.25695208E-02 0.20959100E+02</pdfrwt>
<pdfrwt beam="2">  1       21 0.62801881E-02 0.20959100E+02</pdfrwt>
<totfact> 0.98511762E+07</totfact>
</mgrwt>
</event>
<event>
 4    1  0.2721071E+004  0.2390246E+02  0.7546771E-02  0.1677286E+00
         21   -1    0    0  503  502  0.00000000000E+00  0.00000000000E+00  0.38464839069E+02  0.38464839069E+02  0.00000000000E+00 0.  1.
         21   -1    0    0  501  503 -0.00000000000E+00 -0.00000000000E+00 -0.23570178473E+02  0.23570178473E+02  0.00000000000E+00 0. -1.
          2    1    1    2  501    0  0.16234164736E+02 -0.17543651430E+02 -0.11415517422E+02  0.26488522953E+02  0.00000000000E+00 0. -1.
         -2    1    1    2    0  502 -0.16234164736E+02  0.17543651430E+02  0.26310178018E+02  0.35546494589E+02  0.00000000000E+00 0.  1.
<mgrwt>
<rscale>  2 0.23902465E+02</rscale>
<asrwt>0</asrwt>
<pdfrwt beam="1">  1       21 0.59176675E-02 0.23902465E+02</pdfrwt>
<pdfrwt beam="2">  1       21 0.36261813E-02 0.23902465E+02</pdfrwt>
<totfact> 0.65783265E+07</totfact>
</mgrwt>
</event>
<event>
 4    1  0.2721071E+004  0.3500636E+02  0.7546771E-02  0.1548544E+00
         21   -1    0    0  501  502  0.00000000000E+00  0.00000000000E+00  0.18846330406E+02  0.18846330406E+02  0.00000000000E+00 0.  1.
         21   -1    0    0  502  503 -0.00000000000E+00 -0.00000000000E+00 -0.15161571902E+03  0.15161571902E+03  0.00000000000E+00 0. -1.
          2    1    1    2  501    0  0.34998514414E+02 -0.74115343431E+00 -0.19727760511E+01  0.35061904753E+02  0.00000000000E+00 0.  1.
         -2    1    1    2    0  503 -0.34998514414E+02  0.74115343431E+00 -0.13079661256E+03  0.13540014467E+03  0.00000000000E+00 0. -1.
<mgrwt>
<rscale>  2 0.35006361E+02</rscale>
<asrwt>0</asrwt>
<pdfrwt beam="1">  1       21 0.28994354E-02 0.35006361E+02</pdfrwt>
<pdfrwt beam="2">  1       21 0.23325496E-01 0.35006361E+02</pdfrwt>
<totfact> 0.99119193E+06</totfact>
</mgrwt>
</event>
<event>
 4    1  0.2721071E+004  0.2395363E+02  0.7546771E-02  0.1676503E+00
         21   -1    0    0  503  502  0.00000000000E+00  0.00000000000E+00  0.29725376959E+03  0.29725376959E+03  0.00000000000E+00 0. -1.
         21   -1    0    0  501  503 -0.00000000000E+00 -0.00000000000E+00 -0.54377369865E+01  0.54377369865E+01  0.00000000000E+00 0.  1.
          2    1    1    2  501    0  0.22862621672E+02  0.71468045490E+01  0.24356965618E+02  0.34161938749E+02  0.00000000000E+00 0.  1.
         -2    1    1    2    0  502 -0.22862621672E+02 -0.71468045490E+01  0.26745906698E+03  0.26852956782E+03  0.00000000000E+00 0. -1.
<mgrwt>
<rscale>  2 0.23953628E+02</rscale>
<asrwt>0</asrwt>
<pdfrwt beam="1">  1       21 0.45731336E-01 0.23953628E+02</pdfrwt>
<pdfrwt beam="2">  1       21 0.83657515E-03 0.23953628E+02</pdfrwt>
<totfact> 0.17945984E+07</totfact>
</mgrwt>
</event>
<event>
 4    1  0.2721071E+004  0.2058860E+02  0.7546771E-02  0.1733870E+00
         21   -1    0    0  503  502  0.00000000000E+00  0.00000000000E+00  0.30780209961E+02  0.30780209961E+02  0.00000000000E+00 0. -1.
         21   -1    0    0  501  503 -0.00000000000E+00 -0.00000000000E+00 -0.18507795888E+02  0.18507795888E+02  0.00000000000E+00 0.  1.
          2    1    1    2  501    0 -0.19418728577E+01 -0.20496822292E+02 -0.63305049030E+01  0.21539867377E+02  0.00000000000E+00 0.  1.
         -2    1    1    2    0  502  0.19418728577E+01  0.20496822292E+02  0.18602918975E+02  0.27748138472E+02  0.00000000000E+00 0. -1.
<mgrwt>
<rscale>  2 0.20588604E+02</rscale>
<asrwt>0</asrwt>
<pdfrwt beam="1">  1       21 0.47354169E-02 0.20588604E+02</pdfrwt>
<pdfrwt beam="2">  1       21 0.28473532E-02 0.20588604E+02</pdfrwt>
<totfact> 0.13106897E+08</totfact>
</mgrwt>
</event>
<event>
 4    1  0.2721071E+004  0.3345263E+02  0.7546771E-02  0.1562787E+00
         21   -1    0    0  501  502  0.00000000000E+00  0.00000000000E+00  0.93148902350E+02  0.93148902350E+02  0.00000000000E+00 0.  1.
         21   -1    0    0  502  503 -0.00000000000E+00 -0.00000000000E+00 -0.16195438215E+02  0.16195438215E+02  0.00000000000E+00 0. -1.
          2    1    1    2  501    0 -0.33111268863E+02  0.47667984775E+01  0.66257210967E+02  0.74223288114E+02  0.00000000000E+00 0.  1.
         -2    1    1    2    0  503  0.33111268863E+02 -0.47667984775E+01  0.10696253168E+02  0.35121052451E+02  0.00000000000E+00 0. -1.
<mgrwt>
<rscale>  2 0.33452631E+02</rscale>
<asrwt>0</asrwt>
<pdfrwt beam="1">  1       21 0.14330600E-01 0.33452631E+02</pdfrwt>
<pdfrwt beam="2">  1       21 0.24916059E-02 0.33452631E+02</pdfrwt>
<totfact> 0.29417963E+07</totfact>
</mgrwt>
</event>
<event>
 4    1  0.2721071E+004  0.3750957E+02  0.7546771E-02  0.1527381E+00
         21   -1    0    0  501  502  0.00000000000E+00  0.00000000000E+00  0.11247347434E+03  0.11247347434E+03  0.00000000000E+00 0.  1.
         21   -1    0    0  502  503 -0.00000000000E+00 -0.00000000000E+00 -0.19742888325E+02  0.19742888325E+02  0.00000000000E+00 0. -1.
          2    1    1    2  501    0  0.22591092992E+02  0.29943455286E+02  0.86380568226E+02  0.94173088322E+02  0.00000000000E+00 0.  1.
         -2    1    1    2    0  503 -0.22591092992E+02 -0.29943455286E+02  0.63500177918E+01  0.38043274346E+02  0.00000000000E+00 0. -1.
<mgrwt>
<rscale>  2 0.37509572E+02</rscale>
<asrwt>0</asrwt>
<pdfrwt beam="1">  1       21 0.17303611E-01 0.37509572E+02</pdfrwt>
<pdfrwt beam="2">  1       21 0.30373675E-02 0.37509572E+02</pdfrwt>
<totfact> 0.15821407E+07</totfact>
</mgrwt>
</event>
<event>
 4    1  0.2721071E+004  0.4099815E+02  0.7546771E-02  0.1500992E+00
         21   -1    0    0  501  502  0.00000000000E+00  0.00000000000E+00  0.59960129977E+03  0.59960129977E+03  0.00000000000E+00 0.  1.
         21   -1    0    0  502  503 -0.00000000000E+00 -0.00000000000E+00 -0.39517817746E+01  0.39517817746E+01  0.00000000000E+00 0. -1.
          2    1    1    2  501    0  0.38801729761E+02 -0.13239114655E+02  0.46051273148E+03  0.46233410456E+03  0.00000000000E+00 0.  1.
         -2    1    1    2    0  503 -0.38801729761E+02  0.13239114655E+02  0.13513678652E+03  0.14121897698E+03  0.00000000000E+00 0. -1.
<mgrwt>
<rscale>  2 0.40998151E+02</rscale>
<asrwt>0</asrwt>
<pdfrwt beam="1">  1       21 0.92246281E-01 0.40998151E+02</pdfrwt>
<pdfrwt beam="2">  1       21 0.60796690E-03 0.40998151E+02</pdfrwt>
<totfact> 0.74232100E+06</totfact>
</mgrwt>
</event>
<event>
 4    1  0.2721071E+004  0.2568127E+02  0.7546771E-02  0.1651405E+00
         21   -1    0    0  501  502  0.00000000000E+00  0.00000000000E+00  0.52590571737E+00  0.52590571737E+00  0.00000000000E+00 0. -1.
         21   -1    0    0  502  503 -0.00000000000E+00 -0.00000000000E+00 -0.14177464827E+04  0.14177464827E+04  0.00000000000E+00 0.  1.
          2    1    1    2  501    0 -0.82238160465E+01  0.24328919160E+02 -0.46766901205E+03  0.46837360332E+03  0.00000000000E+00 0. -1.
         -2    1    1    2    0  503  0.82238160465E+01 -0.24328919160E+02 -0.94955156493E+03  0.94989878509E+03  0.00000000000E+00 0.  1.
<mgrwt>
<rscale>  2 0.25681267E+02</rscale>
<asrwt>0</asrwt>
<pdfrwt beam="1">  1       21 0.80908062E-04 0.25681267E+02</pdfrwt>
<pdfrwt beam="2">  1       21 0.21811622E+00 0.25681267E+02</pdfrwt>
<totfact> 0.16956109E+07</totfact>
</mgrwt>
</event>
<event>
 4    1  0.2721071E+004  0.2488283E+02  0.7546771E-02  0.1662691E+00
         21   -1    0    0  503  502  0.00000000000E+00  0.00000000000E+00  0.34672720958E+03  0.34672720958E+03  0.00000000000E+00 0.  1.
         21   -1    0    0  501  503 -0.00000000000E+00 -0.00000000000E+00 -0.21707267477E+01  0.21707267477E+01  0.00000000000E+00 0. -1.
          2    1    1    2  501    0 -0.23858456195E+02  0.70660513492E+01  0.98809197693E+02  0.10189412428E+03  0.00000000000E+00 0. -1.
         -2    1    1    2    0  502  0.23858456195E+02 -0.70660513492E+01  0.24574728514E+03  0.24700381205E+03  0.00000000000E+00 0.  1.
<mgrwt>
<rscale>  2 0.24882826E+02</rscale>
<asrwt>0</asrwt>
<pdfrwt beam="1">  1       21 0.53342604E-01 0.24882826E+02</pdfrwt>
<pdfrwt beam="2">  1       21 0.33395824E-03 0.24882826E+02</pdfrwt>
<totfact> 0.52198657E+07</totfact>
</mgrwt>
</event>
<event>
 4    1  0.2721071E+004  0.2279123E+02  0.7546771E-02  0.1694917E+00
         21   -1    0    0  503  502  0.00000000000E+00  0.00000000000E+00  0.15272765185E+02  0.15272765185E+02  0.00000000000E+00 0.  1.
         21   -1    0    0  501  503 -0.00000000000E+00 -0.00000000000E+00 -0.45405967173E+02  0.45405967173E+02  0.00000000000E+00 0. -1.
          2    1    1    2  501    0 -0.18922290362E+02 -0.12703823800E+02 -0.30265384527E+02  0.37887118025E+02  0.00000000000E+00 0. -1.
         -2    1    1    2    0  502  0.18922290362E+02  0.12703823800E+02  0.13218253829E+00  0.22791614333E+02  0.00000000000E+00 0.  1.
<mgrwt>
<rscale>  2 0.22791231E+02</rscale>
<asrwt>0</asrwt>
<pdfrwt beam="1">  1       21 0.23496562E-02 0.22791231E+02</pdfrwt>
<pdfrwt beam="2">  1       21 0.69855334E-02 0.22791231E+02</pdfrwt>
<totfact> 0.97604278E+07</totfact>
</mgrwt>
</event>
<event>
 4    1  0.2721071E+004  0.2132727E+02  0.7546771E-02  0.1720153E+00
         21   -1    0    0  501  502  0.00000000000E+00  0.00000000000E+00  0.24576311269E+02  0.24576311269E+02  0.00000000000E+00 0. -1.
         21   -1    0    0  502  503 -0.00000000000E+00 -0.00000000000E+00 -0.27421492804E+03  0.27421492804E+03  0.00000000000E+00 0.  1.
          2    1    1    2  501    0 -0.34537095850E+01 -0.21045766742E+02  0.19446618539E+02  0.28862144416E+02  0.00000000000E+00 0. -1.
         -2    1    1    2    0  503  0.34537095850E+01  0.21045766742E+02 -0.26908523531E+03  0.26992909489E+03  0.00000000000E+00 0.  1.
<mgrwt>
<rscale>  2 0.21327269E+02</rscale>
<asrwt>0</asrwt>
<pdfrwt beam="1">  1       21 0.37809708E-02 0.21327269E+02</pdfrwt>
<pdfrwt beam="2">  1       21 0.42186914E-01 0.21327269E+02</pdfrwt>
<totfact> 0.20458687E+06</totfact>
</mgrwt>
</event>
<event>
 4    1  0.2721071E+004  0.2780199E+02  0.7546771E-02  0.1623738E+00
         21   -1    0    0  503  502  0.00000000000E+00  0.00000000000E+00  0.73436455648E+00  0.73436455648E+00  0.00000000000E+00 0. -1.
         21   -1    0    0  501  503 -0.00000000000E+00 -0.00000000000E+00 -0.12311835718E+04  0.12311835718E+04  0.00000000000E+00 0.  1.
          2    1    1    2  501    0 -0.42505047339E+01 -0.27475144761E+02 -0.84985283492E+03  0.85030746873E+03  0.00000000000E+00 0.  1.
         -2    1    1    2    0  502  0.42505047339E+01  0.27475144761E+02 -0.38059637233E+03  0.38161046762E+03  0.00000000000E+00 0. -1.
<mgrwt>
<rscale>  2 0.27801985E+02</rscale>
<asrwt>0</asrwt>
<pdfrwt beam="1">  1       21 0.11298049E-03 0.27801985E+02</pdfrwt>
<pdfrwt beam="2">  1       21 0.18941062E+00 0.27801985E+02</pdfrwt>
<totfact> 0.15377226E+07</totfact>
</mgrwt>
</event>
<event>
 4    1  0.2721071E+004  0.3039074E+02  0.7546771E-02  0.1593809E+00
         21   -1    0    0  503  502  0.00000000000E+00  0.00000000000E+00  0.19667760201E+04  0.19667760201E+04  0.00000000000E+00 0. -1.
         21   -1    0    0  501  503 -0.00000000000E+00 -0.00000000000E+00 -0.67457989674E+00  0.67457989674E+00  0.00000000000E+00 0.  1.
          2    1    1    2  501    0 -0.29491471010E+02 -0.73382704781E+01  0.44078358188E+03  0.44183001610E+03  0.00000000000E+00 0.  1.
         -2    1    1    2    0  502  0.29491471010E+02  0.73382704781E+01  0.15253178584E+04  0.15256205839E+04  0.00000000000E+00 0. -1.
<mgrwt>
<rscale>  2 0.30390740E+02</rscale>
<asrwt>0</asrwt>
<pdfrwt beam="1">  1       21 0.30257634E+00 0.30390740E+02</pdfrwt>
<pdfrwt beam="2">  1       21 0.10378310E-03 0.30390740E+02</pdfrwt>
<totfact> 0.44712006E+06</totfact>
</mgrwt>
</event>
<event>
 4    1  0.2721071E+004  0.2110279E+02  0.7546771E-02  0.1724247E+00
         21   -1    0    0  501  502  0.00000000000E+00  0.00000000000E+00  0.10008550917E+03  0.10008550917E+03  0.00000000000E+00 0.  1.
         21   -1    0    0  502  503 -0.00000000000E+00 -0.00000000000E+00 -0.49724996755E+01  0.49724996755E+01  0.00000000000E+00 0. -1.
          2    1    1    2  501    0 -0.16429032200E+02 -0.13244424230E+02  0.64592726587E+02  0.67952543736E+02  0.00000000000E+00 0.  1.
         -2    1    1    2    0  503  0.16429032200E+02  0.13244424230E+02  0.30520282904E+02  0.37105465107E+02  0.00000000000E+00 0. -1.
<mgrwt>
<rscale>  2 0.21102793E+02</rscale>
<asrwt>0</asrwt>
<pdfrwt beam="1">  1       21 0.15397769E-01 0.21102793E+02</pdfrwt>
<pdfrwt beam="2">  1       21 0.76500002E-03 0.21102793E+02</pdfrwt>
<totfact> 0.14075959E+08</totfact>
</mgrwt>
</event>
<event>
 4    1  0.2721071E+004  0.2076906E+02  0.7546771E-02  0.1730453E+00
         21   -1    0    0  501  502  0.00000000000E+00  0.00000000000E+00  0.41242486075E+02  0.41242486075E+02  0.00000000000E+00 0. -1.
         21   -1    0    0  502  503 -0.00000000000E+00 -0.00000000000E+00 -0.10486429727E+02  0.10486429727E+02  0.00000000000E+00 0.  1.
          2    1    1    2  501    0  0.34049474031E+01  0.20488051095E+02  0.14054474621E+02  0.25077523031E+02  0.00000000000E+00 0. -1.
         -2    1    1    2    0  503 -0.34049474031E+01 -0.20488051095E+02  0.16701581727E+02  0.26651392771E+02  0.00000000000E+00 0.  1.
<mgrwt>
<rscale>  2 0.20769061E+02</rscale>
<asrwt>0</asrwt>
<pdfrwt beam="1">  1       21 0.63449978E-02 0.20769061E+02</pdfrwt>
<pdfrwt beam="2">  1       21 0.16132969E-02 0.20769061E+02</pdfrwt>
<totfact> 0.19694824E+08</totfact>
</mgrwt>
</event>
<event>
 4    1  0.2721071E+004  0.2116661E+02  0.7546771E-02  0.1723077E+00
         21   -1    0    0  501  502  0.00000000000E+00  0.00000000000E+00  0.43659726634E+02  0.43659726634E+02  0.00000000000E+00 0.  1.
         21   -1    0    0  502  503 -0.00000000000E+00 -0.00000000000E+00 -0.25868772387E+02  0.25868772387E+02  0.00000000000E+00 0. -1.
          2    1    1    2  501    0 -0.17094208201E+02 -0.12482520054E+02  0.35898038113E+02  0.41673665561E+02  0.00000000000E+00 0.  1.
         -2    1    1    2    0  503  0.17094208201E+02  0.12482520054E+02 -0.18107083867E+02  0.27854833460E+02  0.00000000000E+00 0. -1.
<mgrwt>
<rscale>  2 0.21166607E+02</rscale>
<asrwt>0</asrwt>
<pdfrwt beam="1">  1       21 0.67168810E-02 0.21166607E+02</pdfrwt>
<pdfrwt beam="2">  1       21 0.39798111E-02 0.21166607E+02</pdfrwt>
<totfact> 0.44884269E+07</totfact>
</mgrwt>
</event>
<event>
 4    1  0.2721071E+004  0.2371006E+02  0.7546771E-02  0.1680252E+00
         21   -1    0    0  503  502  0.00000000000E+00  0.00000000000E+00  0.10469353734E+01  0.10469353734E+01  0.00000000000E+00 0. -1.
         21   -1    0    0  501  503 -0.00000000000E+00 -0.00000000000E+00 -0.93859664914E+03  0.93859664914E+03  0.00000000000E+00 0.  1.
          2    1    1    2  501    0  0.23582564267E+02 -0.24555112383E+01 -0.77610702842E+03  0.77646911492E+03  0.00000000000E+00 0.  1.
         -2    1    1    2    0  502 -0.23582564267E+02  0.24555112383E+01 -0.16144268535E+03  0.16317446959E+03  0.00000000000E+00 0. -1.
<mgrwt>
<rscale>  2 0.23710058E+02</rscale>
<asrwt>0</asrwt>
<pdfrwt beam="1">  1       21 0.16106665E-03 0.23710058E+02</pdfrwt>
<pdfrwt beam="2">  1       21 0.14439979E+00 0.23710058E+02</pdfrwt>
<totfact> 0.17566469E+07</totfact>
</mgrwt>
</event>
<event>
 4    1  0.2721071E+004  0.3092050E+02  0.7546771E-02  0.1588131E+00
         21   -1    0    0  503  502  0.00000000000E+00  0.00000000000E+00  0.58616234159E+01  0.58616234159E+01  0.00000000000E+00 0.  1.
         21   -1    0    0  501  503 -0.00000000000E+00 -0.00000000000E+00 -0.19775404438E+03  0.19775404438E+03  0.00000000000E+00 0. -1.
          2    1    1    2  501    0  0.30850350411E+02 -0.20815821898E+01 -0.13855958681E+03  0.14196772944E+03  0.00000000000E+00 0.  1.
         -2    1    1    2    0  502 -0.30850350411E+02  0.20815821898E+01 -0.53332834158E+02  0.61647938361E+02  0.00000000000E+00 0. -1.
<mgrwt>
<rscale>  2 0.30920497E+02</rscale>
<asrwt>0</asrwt>
<pdfrwt beam="1">  1       21 0.90178825E-03 0.30920497E+02</pdfrwt>
<pdfrwt beam="2">  1       21 0.30423698E-01 0.30920497E+02</pdfrwt>
<totfact> 0.36278383E+07</totfact>
</mgrwt>
</event>
<event>
 4    1  0.2721071E+004  0.2247065E+02  0.7546771E-02  0.1700237E+00
         21   -1    0    0  501  502  0.00000000000E+00  0.00000000000E+00  0.45236629927E+01  0.45236629927E+01  0.00000000000E+00 0. -1.
         21   -1    0    0  502  503 -0.00000000000E+00 -0.00000000000E+00 -0.11183253258E+03  0.11183253258E+03  0.00000000000E+00 0.  1.
          2    1    1    2  501    0  0.20382427021E+02 -0.94597550211E+01 -0.56191937262E+02  0.60518295660E+02  0.00000000000E+00 0. -1.
         -2    1    1    2    0  503 -0.20382427021E+02  0.94597550211E+01 -0.51116932330E+02  0.55837899917E+02  0.00000000000E+00 0.  1.
<mgrwt>
<rscale>  2 0.22470654E+02</rscale>
<asrwt>0</asrwt>
<pdfrwt beam="1">  1       21 0.69594811E-03 0.22470654E+02</pdfrwt>
<pdfrwt beam="2">  1       21 0.17205006E-01 0.22470654E+02</pdfrwt>
<totfact> 0.13651422E+08</totfact>
</mgrwt>
</event>
<event>
 4    1  0.2721071E+004  0.4685142E+02  0.7546771E-02  0.1463104E+00
         21   -1    0    0  501  502  0.00000000000E+00  0.00000000000E+00  0.41907199156E+03  0.41907199156E+03  0.00000000000E+00 0. -1.
         21   -1    0    0  502  503 -0.00000000000E+00 -0.00000000000E+00 -0.60893812523E+01  0.60893812523E+01  0.00000000000E+00 0.  1.
          2    1    1    2  501    0 -0.44783350515E+02  0.13766162427E+02  0.28598371514E+03  0.28979603350E+03  0.00000000000E+00 0.  1.
         -2    1    1    2    0  503  0.44783350515E+02 -0.13766162427E+02  0.12699889517E+03  0.13536533931E+03  0.00000000000E+00 0. -1.
<mgrwt>
<rscale>  2 0.46851422E+02</rscale>
<asrwt>0</asrwt>
<pdfrwt beam="1">  1       21 0.64472592E-01 0.46851422E+02</pdfrwt>
<pdfrwt beam="2">  1       21 0.93682821E-03 0.46851422E+02</pdfrwt>
<totfact> 0.83970035E+06</totfact>
</mgrwt>
</event>
<event>
 4    1  0.2721071E+004  0.2371874E+02  0.7546771E-02  0.1680118E+00
         21   -1    0    0  503  502  0.00000000000E+00  0.00000000000E+00  0.73271190653E+03  0.73271190653E+03  0.00000000000E+00 0.  1.
         21   -1    0    0  501  503 -0.00000000000E+00 -0.00000000000E+00 -0.19279291629E+01  0.19279291629E+01  0.00000000000E+00 0. -1.
          2    1    1    2  501    0  0.77731146216E+01 -0.22408871517E+02  0.80453286510E+02  0.83876755682E+02  0.00000000000E+00 0. -1.
         -2    1    1    2    0  502 -0.77731146216E+01  0.22408871517E+02  0.65033069085E+03  0.65076308001E+03  0.00000000000E+00 0.  1.
<mgrwt>
<rscale>  2 0.23718744E+02</rscale>
<asrwt>0</asrwt>
<pdfrwt beam="1">  1       21 0.11272469E+00 0.23718744E+02</pdfrwt>
<pdfrwt beam="2">  1       21 0.29660507E-03 0.23718744E+02</pdfrwt>
<totfact> 0.12813237E+07</totfact>
</mgrwt>
</event>
<event>
 4    1  0.2721071E+004  0.2215270E+02  0.7546771E-02  0.1705625E+00
         21   -1    0    0  501  502  0.00000000000E+00  0.00000000000E+00  0.36125693340E+00  0.36125693340E+00  0.00000000000E+00 0. -1.
         21   -1    0    0  502  503 -0.00000000000E+00 -0.00000000000E+00 -0.13585005328E+04  0.13585005328E+04  0.00000000000E+00 0.  1.
          2    1    1    2  501    0 -0.11858044491E+02 -0.18711726749E+02 -0.68399583977E+03  0.68435447742E+03  0.00000000000E+00 0. -1.
         -2    1    1    2    0  503  0.11858044491E+02  0.18711726749E+02 -0.67414343613E+03  0.67450731235E+03  0.00000000000E+00 0.  1.
<mgrwt>
<rscale>  2 0.22152696E+02</rscale>
<asrwt>0</asrwt>
<pdfrwt beam="1">  1       21 0.55578760E-04 0.22152696E+02</pdfrwt>
<pdfrwt beam="2">  1       21 0.20899718E+00 0.22152696E+02</pdfrwt>
<totfact> 0.31691316E+07</totfact>
</mgrwt>
</event>
<event>
 4    1  0.2721071E+004  0.3424290E+02  0.7546771E-02  0.1555428E+00
         21   -1    0    0  503  502  0.00000000000E+00  0.00000000000E+00  0.70207075898E+03  0.70207075898E+03  0.00000000000E+00 0. -1.
         21   -1    0    0  501  503 -0.00000000000E+00 -0.00000000000E+00 -0.19782489766E+01  0.19782489766E+01  0.00000000000E+00 0.  1.
          2    1    1    2  501    0 -0.34242290981E+02  0.20344466940E+00  0.21112615206E+03  0.21388508121E+03  0.00000000000E+00 0.  1.
         -2    1    1    2    0  502  0.34242290981E+02 -0.20344466940E+00  0.48896635795E+03  0.49016392675E+03  0.00000000000E+00 0. -1.
<mgrwt>
<rscale>  2 0.34242895E+02</rscale>
<asrwt>0</asrwt>
<pdfrwt beam="1">  1       21 0.10801069E+00 0.34242895E+02</pdfrwt>
<pdfrwt beam="2">  1       21 0.30434656E-03 0.34242895E+02</pdfrwt>
<totfact> 0.14342289E+07</totfact>
</mgrwt>
</event>
<event>
 4    1  0.2721071E+004  0.2944492E+02  0.7546771E-02  0.1604307E+00
         21   -1    0    0  501  502  0.00000000000E+00  0.00000000000E+00  0.67414039082E+03  0.67414039082E+03  0.00000000000E+00 0.  1.
         21   -1    0    0  502  503 -0.00000000000E+00 -0.00000000000E+00 -0.17933773767E+01  0.17933773767E+01  0.00000000000E+00 0. -1.
          2    1    1    2  501    0 -0.65059363929E+01 -0.28717177572E+02  0.51592248219E+03  0.51676204497E+03  0.00000000000E+00 0.  1.
         -2    1    1    2    0  503  0.65059363929E+01  0.28717177572E+02  0.15642453126E+03  0.15917172323E+03  0.00000000000E+00 0. -1.
<mgrwt>
<rscale>  2 0.29444923E+02</rscale>
<asrwt>0</asrwt>
<pdfrwt beam="1">  1       21 0.10371370E+00 0.29444923E+02</pdfrwt>
<pdfrwt beam="2">  1       21 0.27590475E-03 0.29444923E+02</pdfrwt>
<totfact> 0.17762775E+07</totfact>
</mgrwt>
</event>
<event>
 4    1  0.2721071E+004  0.2255172E+02  0.7546771E-02  0.1698881E+00
         21   -1    0    0  503  502  0.00000000000E+00  0.00000000000E+00  0.18625812106E+02  0.18625812106E+02  0.00000000000E+00 0.  1.
         21   -1    0    0  501  503 -0.00000000000E+00 -0.00000000000E+00 -0.33241810276E+02  0.33241810276E+02  0.00000000000E+00 0. -1.
          2    1    1    2  501    0 -0.14121070069E+02 -0.17583383181E+02 -0.18267639542E+02  0.29022174943E+02  0.00000000000E+00 0. -1.
         -2    1    1    2    0  502  0.14121070069E+02  0.17583383181E+02  0.36516413728E+01  0.22845447439E+02  0.00000000000E+00 0.  1.
<mgrwt>
<rscale>  2 0.22551718E+02</rscale>
<asrwt>0</asrwt>
<pdfrwt beam="1">  1       21 0.28655096E-02 0.22551718E+02</pdfrwt>
<pdfrwt beam="2">  1       21 0.51141246E-02 0.22551718E+02</pdfrwt>
<totfact> 0.11806148E+08</totfact>
</mgrwt>
</event>
<event>
 4    1  0.2721071E+004  0.2063566E+02  0.7546771E-02  0.1732975E+00
         21   -1    0    0  503  502  0.00000000000E+00  0.00000000000E+00  0.21711001930E+03  0.21711001930E+03  0.00000000000E+00 0.  1.
         21   -1    0    0  501  503 -0.00000000000E+00 -0.00000000000E+00 -0.46925891247E+01  0.46925891247E+01  0.00000000000E+00 0. -1.
          2    1    1    2  501    0  0.49020181025E+01 -0.20044961364E+02  0.21601053101E+02  0.29873663194E+02  0.00000000000E+00 0. -1.
         -2    1    1    2    0  502 -0.49020181025E+01  0.20044961364E+02  0.19081637707E+03  0.19192894523E+03  0.00000000000E+00 0.  1.
<mgrwt>
<rscale>  2 0.20635655E+02</rscale>
<asrwt>0</asrwt>
<pdfrwt beam="1">  1       21 0.33401534E-01 0.20635655E+02</pdfrwt>
<pdfrwt beam="2">  1       21 0.72193696E-03 0.20635655E+02</pdfrwt>
<totfact> 0.38993967E+07</totfact>
</mgrwt>
</event>
<event>
 4    1  0.2721071E+004  0.2250260E+02  0.7546771E-02  0.1699702E+00
         21   -1    0    0  503  502  0.00000000000E+00  0.00000000000E+00  0.10361003522E+01  0.10361003522E+01  0.00000000000E+00 0. -1.
         21   -1    0    0  501  503 -0.00000000000E+00 -0.00000000000E+00 -0.61479439014E+03  0.61479439014E+03  0.00000000000E+00 0.  1.
          2    1    1    2  501    0  0.21561172364E+02 -0.64407224161E+01 -0.44631448960E+03  0.44688140562E+03  0.00000000000E+00 0.  1.
         -2    1    1    2    0  502 -0.21561172364E+02  0.64407224161E+01 -0.16744380018E+03  0.16894908487E+03  0.00000000000E+00 0. -1.
<mgrwt>
<rscale>  2 0.22502601E+02</rscale>
<asrwt>0</asrwt>
<pdfrwt beam="1">  1       21 0.15939967E-03 0.22502601E+02</pdfrwt>
<pdfrwt beam="2">  1       21 0.94583981E-01 0.22502601E+02</pdfrwt>
<totfact> 0.45838343E+07</totfact>
</mgrwt>
</event>
<event>
 4    1  0.2721071E+004  0.4767154E+02  0.7546771E-02  0.1458321E+00
         21   -1    0    0  501  502  0.00000000000E+00  0.00000000000E+00  0.34175525391E+03  0.34175525391E+03  0.00000000000E+00 0.  1.
         21   -1    0    0  502  503 -0.00000000000E+00 -0.00000000000E+00 -0.80153682691E+01  0.80153682691E+01  0.00000000000E+00 0. -1.
          2    1    1    2  501    0  0.12684757201E+02 -0.45952942285E+02  0.23905734022E+03  0.24376420550E+03  0.00000000000E+00 0.  1.
         -2    1    1    2    0  503 -0.12684757201E+02  0.45952942285E+02  0.94682545425E+02  0.10600641668E+03  0.00000000000E+00 0. -1.
<mgrwt>
<rscale>  2 0.47671543E+02</rscale>
<asrwt>0</asrwt>
<pdfrwt beam="1">  1       21 0.52577720E-01 0.47671543E+02</pdfrwt>
<pdfrwt beam="2">  1       21 0.12331338E-02 0.47671543E+02</pdfrwt>
<totfact> 0.83645201E+06</totfact>
</mgrwt>
</event>
<event>
 4    1  0.2721071E+004  0.2093619E+02  0.7546771E-02  0.1727327E+00
         21   -1    0    0  503  502  0.00000000000E+00  0.00000000000E+00  0.14569186370E+04  0.14569186370E+04  0.00000000000E+00 0. -1.
         21   -1    0    0  501  503 -0.00000000000E+00 -0.00000000000E+00 -0.44985915323E+00  0.44985915323E+00  0.00000000000E+00 0.  1.
          2    1    1    2  501    0 -0.20935547700E+02  0.16380895483E+00  0.30886420260E+03  0.30957296335E+03  0.00000000000E+00 0.  1.
         -2    1    1    2    0  502  0.20935547700E+02 -0.16380895483E+00  0.11476045752E+04  0.11477955328E+04  0.00000000000E+00 0. -1.
<mgrwt>
<rscale>  2 0.20936189E+02</rscale>
<asrwt>0</asrwt>
<pdfrwt beam="1">  1       21 0.22413755E+00 0.20936189E+02</pdfrwt>
<pdfrwt beam="2">  1       21 0.69210267E-04 0.20936189E+02</pdfrwt>
<totfact> 0.19186638E+07</totfact>
</mgrwt>
</event>
<event>
 4    1  0.2721071E+004  0.2012338E+02  0.7546771E-02  0.1742886E+00
         21   -1    0    0  503  502  0.00000000000E+00  0.00000000000E+00  0.52900677850E+03  0.52900677850E+03  0.00000000000E+00 0. -1.
         21   -1    0    0  501  503 -0.00000000000E+00 -0.00000000000E+00 -0.11590368456E+01  0.11590368456E+01  0.00000000000E+00 0.  1.
          2    1    1    2  501    0 -0.91782347809E+00  0.20102436113E+02  0.10945878031E+03  0.11129319352E+03  0.00000000000E+00 0.  1.
         -2    1    1    2    0  502  0.91782347809E+00 -0.20102436113E+02  0.41838896135E+03  0.41887262183E+03  0.00000000000E+00 0. -1.
<mgrwt>
<rscale>  2 0.20123378E+02</rscale>
<asrwt>0</asrwt>
<pdfrwt beam="1">  1       21 0.81385466E-01 0.20123378E+02</pdfrwt>
<pdfrwt beam="2">  1       21 0.17831378E-03 0.20123378E+02</pdfrwt>
<totfact> 0.52337721E+07</totfact>
</mgrwt>
</event>
<event>
 4    1  0.2721071E+004  0.2086299E+02  0.7546771E-02  0.1728692E+00
         21   -1    0    0  501  502  0.00000000000E+00  0.00000000000E+00  0.11000092169E+03  0.11000092169E+03  0.00000000000E+00 0. -1.
         21   -1    0    0  502  503 -0.00000000000E+00 -0.00000000000E+00 -0.91509746658E+01  0.91509746658E+01  0.00000000000E+00 0.  1.
          2    1    1    2  501    0 -0.90502377298E+01 -0.18797802275E+02  0.95308895691E+02  0.97565617772E+02  0.00000000000E+00 0. -1.
         -2    1    1    2    0  503  0.90502377298E+01  0.18797802275E+02  0.55410513369E+01  0.21586278588E+02  0.00000000000E+00 0.  1.
<mgrwt>
<rscale>  2 0.20862986E+02</rscale>
<asrwt>0</asrwt>
<pdfrwt beam="1">  1       21 0.16923218E-01 0.20862986E+02</pdfrwt>
<pdfrwt beam="2">  1       21 0.14078423E-02 0.20862986E+02</pdfrwt>
<totfact> 0.47877079E+07</totfact>
</mgrwt>
</event>
<event>
 4    1  0.2721071E+004  0.4708836E+02  0.7546771E-02  0.1461710E+00
         21   -1    0    0  503  502  0.00000000000E+00  0.00000000000E+00  0.21831600718E+02  0.21831600718E+02  0.00000000000E+00 0. -1.
         21   -1    0    0  501  503 -0.00000000000E+00 -0.00000000000E+00 -0.26334938474E+03  0.26334938474E+03  0.00000000000E+00 0.  1.
          2    1    1    2  501    0  0.59485963140E+01 -0.46711105767E+02 -0.23252073013E+03  0.23724081255E+03  0.00000000000E+00 0.  1.
         -2    1    1    2    0  502 -0.59485963140E+01  0.46711105767E+02 -0.89970538990E+01  0.47940172913E+02  0.00000000000E+00 0. -1.
<mgrwt>
<rscale>  2 0.47088355E+02</rscale>
<asrwt>0</asrwt>
<pdfrwt beam="1">  1       21 0.33587078E-02 0.47088355E+02</pdfrwt>
<pdfrwt beam="2">  1       21 0.40515290E-01 0.47088355E+02</pdfrwt>
<totfact> 0.28904979E+06</totfact>
</mgrwt>
</event>
<event>
 4    1  0.2721071E+004  0.2332143E+02  0.7546771E-02  0.1686352E+00
         21   -1    0    0  501  502  0.00000000000E+00  0.00000000000E+00  0.31019782568E+03  0.31019782568E+03  0.00000000000E+00 0.  1.
         21   -1    0    0  502  503 -0.00000000000E+00 -0.00000000000E+00 -0.17538964024E+01  0.17538964024E+01  0.00000000000E+00 0. -1.
          2    1    1    2  501    0  0.23026803007E+01  0.23207471557E+02  0.15694466161E+03  0.15866794219E+03  0.00000000000E+00 0. -1.
         -2    1    1    2    0  503 -0.23026803007E+01 -0.23207471557E+02  0.15149926767E+03  0.15328377989E+03  0.00000000000E+00 0.  1.
<mgrwt>
<rscale>  2 0.23321429E+02</rscale>
<asrwt>0</asrwt>
<pdfrwt beam="1">  1       21 0.47722699E-01 0.23321429E+02</pdfrwt>
<pdfrwt beam="2">  1       21 0.26983046E-03 0.23321429E+02</pdfrwt>
<totfact> 0.87167650E+07</totfact>
</mgrwt>
</event>
<event>
 4    1  0.2721071E+004  0.2244010E+02  0.7546771E-02  0.1700750E+00
         21   -1    0    0  501  502  0.00000000000E+00  0.00000000000E+00  0.10809907528E+03  0.10809907528E+03  0.00000000000E+00 0. -1.
         21   -1    0    0  502  503 -0.00000000000E+00 -0.00000000000E+00 -0.74045977484E+01  0.74045977484E+01  0.00000000000E+00 0.  1.
          2    1    1    2  501    0  0.12126333404E+02 -0.18881474731E+02  0.85518567946E+02  0.88413706592E+02  0.00000000000E+00 0. -1.
         -2    1    1    2    0  503 -0.12126333404E+02  0.18881474731E+02  0.15175909589E+02  0.27089966439E+02  0.00000000000E+00 0.  1.
<mgrwt>
<rscale>  2 0.22440099E+02</rscale>
<asrwt>0</asrwt>
<pdfrwt beam="1">  1       21 0.16630626E-01 0.22440099E+02</pdfrwt>
<pdfrwt beam="2">  1       21 0.11391690E-02 0.22440099E+02</pdfrwt>
<totfact> 0.69213003E+07</totfact>
</mgrwt>
</event>
<event>
 4    1  0.2721071E+004  0.2026148E+02  0.7546771E-02  0.1740178E+00
         21   -1    0    0  501  502  0.00000000000E+00  0.00000000000E+00  0.53488693360E+01  0.53488693360E+01  0.00000000000E+00 0. -1.
         21   -1    0    0  502  503 -0.00000000000E+00 -0.00000000000E+00 -0.11270291412E+03  0.11270291412E+03  0.00000000000E+00 0.  1.
          2    1    1    2  501    0 -0.11789100538E+02 -0.16478610610E+02 -0.20338985293E+02  0.28708915373E+02  0.00000000000E+00 0. -1.
         -2    1    1    2    0  503  0.11789100538E+02  0.16478610610E+02 -0.87015059490E+02  0.89342868082E+02  0.00000000000E+00 0.  1.
<mgrwt>
<rscale>  2 0.20261478E+02</rscale>
<asrwt>0</asrwt>
<pdfrwt beam="1">  1       21 0.82290304E-03 0.20261478E+02</pdfrwt>
<pdfrwt beam="2">  1       21 0.17338909E-01 0.20261478E+02</pdfrwt>
<totfact> 0.10190585E+08</totfact>
</mgrwt>
</event>
<event>
 4    1  0.2721071E+004  0.3674149E+02  0.7546771E-02  0.1533658E+00
         21   -1    0    0  501  502  0.00000000000E+00  0.00000000000E+00  0.23513499823E+01  0.23513499823E+01  0.00000000000E+00 0. -1.
         21   -1    0    0  502  503 -0.00000000000E+00 -0.00000000000E+00 -0.11394016486E+04  0.11394016486E+04  0.00000000000E+00 0.  1.
          2    1    1    2  501    0  0.36390597903E+02 -0.50657172323E+01 -0.16642017544E+03  0.17042773219E+03  0.00000000000E+00 0. -1.
         -2    1    1    2    0  503 -0.36390597903E+02  0.50657172323E+01 -0.97063012315E+03  0.97132526636E+03  0.00000000000E+00 0.  1.
<mgrwt>
<rscale>  2 0.36741490E+02</rscale>
<asrwt>0</asrwt>
<pdfrwt beam="1">  1       21 0.36174647E-03 0.36741490E+02</pdfrwt>
<pdfrwt beam="2">  1       21 0.17529241E+00 0.36741490E+02</pdfrwt>
<totfact> 0.35151586E+06</totfact>
</mgrwt>
</event>
<event>
 4    1  0.2721071E+004  0.3457772E+02  0.7546771E-02  0.1552383E+00
         21   -1    0    0  503  502  0.00000000000E+00  0.00000000000E+00  0.88153065576E+00  0.88153065576E+00  0.00000000000E+00 0.  1.
         21   -1    0    0  501  503 -0.00000000000E+00 -0.00000000000E+00 -0.14967269821E+04  0.14967269821E+04  0.00000000000E+00 0. -1.
          2    1    1    2  501    0 -0.94351249534E+01  0.33265557849E+02 -0.97728618644E+03  0.97789769870E+03  0.00000000000E+00 0.  1.
         -2    1    1    2    0  502  0.94351249534E+01 -0.33265557849E+02 -0.51855926505E+03  0.51971081410E+03  0.00000000000E+00 0. -1.
<mgrwt>
<rscale>  2 0.34577723E+02</rscale>
<asrwt>0</asrwt>
<pdfrwt beam="1">  1       21 0.13561976E-03 0.34577723E+02</pdfrwt>
<pdfrwt beam="2">  1       21 0.23026626E+00 0.34577723E+02</pdfrwt>
<totfact> 0.71159711E+06</totfact>
</mgrwt>
</event>
<event>
 4    1  0.2721071E+004  0.2931852E+02  0.7546771E-02  0.1605746E+00
         21   -1    0    0  501  502  0.00000000000E+00  0.00000000000E+00  0.17958058694E+02  0.17958058694E+02  0.00000000000E+00 0. -1.
         21   -1    0    0  502  503 -0.00000000000E+00 -0.00000000000E+00 -0.12909756372E+03  0.12909756372E+03  0.00000000000E+00 0.  1.
          2    1    1    2  501    0 -0.27803868107E+02  0.93016553424E+01  0.27553755239E+01  0.29447715838E+02  0.00000000000E+00 0.  1.
         -2    1    1    2    0  503  0.27803868107E+02 -0.93016553424E+01 -0.11389488055E+03  0.11760790657E+03  0.00000000000E+00 0. -1.
<mgrwt>
<rscale>  2 0.29318524E+02</rscale>
<asrwt>0</asrwt>
<pdfrwt beam="1">  1       21 0.27627782E-02 0.29318524E+02</pdfrwt>
<pdfrwt beam="2">  1       21 0.19861164E-01 0.29318524E+02</pdfrwt>
<totfact> 0.13844454E+07</totfact>
</mgrwt>
</event>
<event>
 4    1  0.2721071E+004  0.2707366E+02  0.7546771E-02  0.1632887E+00
         21   -1    0    0  501  502  0.00000000000E+00  0.00000000000E+00  0.12125397593E+01  0.12125397593E+01  0.00000000000E+00 0.  1.
         21   -1    0    0  502  503 -0.00000000000E+00 -0.00000000000E+00 -0.88872366447E+03  0.88872366447E+03  0.00000000000E+00 0. -1.
          2    1    1    2  501    0  0.27072145053E+02  0.28663391924E+00 -0.19211897348E+03  0.19401722389E+03  0.00000000000E+00 0.  1.
         -2    1    1    2    0  503 -0.27072145053E+02 -0.28663391924E+00 -0.69539215123E+03  0.69591898033E+03  0.00000000000E+00 0. -1.
<mgrwt>
<rscale>  2 0.27073662E+02</rscale>
<asrwt>0</asrwt>
<pdfrwt beam="1">  1       21 0.18654565E-03 0.27073662E+02</pdfrwt>
<pdfrwt beam="2">  1       21 0.13672593E+00 0.27073662E+02</pdfrwt>
<totfact> 0.16498321E+07</totfact>
</mgrwt>
</event>
<event>
 4    1  0.2721071E+004  0.2757515E+02  0.7546771E-02  0.1626550E+00
         21   -1    0    0  503  502  0.00000000000E+00  0.00000000000E+00  0.77153762213E+03  0.77153762213E+03  0.00000000000E+00 0. -1.
         21   -1    0    0  501  503 -0.00000000000E+00 -0.00000000000E+00 -0.30975437734E+01  0.30975437734E+01  0.00000000000E+00 0.  1.
          2    1    1    2  501    0  0.27107267183E+02  0.50581761643E+01  0.64400657004E+02  0.70055932674E+02  0.00000000000E+00 0.  1.
         -2    1    1    2    0  502 -0.27107267183E+02 -0.50581761643E+01  0.70403942136E+03  0.70457923323E+03  0.00000000000E+00 0. -1.
<mgrwt>
<rscale>  2 0.27575153E+02</rscale>
<asrwt>0</asrwt>
<pdfrwt beam="1">  1       21 0.11869794E+00 0.27575153E+02</pdfrwt>
<pdfrwt beam="2">  1       21 0.47654581E-03 0.27575153E+02</pdfrwt>
<totfact> 0.58041786E+06</totfact>
</mgrwt>
</event>
<event>
 4    1  0.2721071E+004  0.2403840E+02  0.7546771E-02  0.1675211E+00
         21   -1    0    0  501  502  0.00000000000E+00  0.00000000000E+00  0.17184351769E+02  0.17184351769E+02  0.00000000000E+00 0.  1.
         21   -1    0    0  502  503 -0.00000000000E+00 -0.00000000000E+00 -0.45655732136E+02  0.45655732136E+02  0.00000000000E+00 0. -1.
          2    1    1    2  501    0  0.14207776286E+02 -0.19390295017E+02  0.18924197436E+01  0.24112770482E+02  0.00000000000E+00 0.  1.
         -2    1    1    2    0  503 -0.14207776286E+02  0.19390295017E+02 -0.30363800110E+02  0.38727313423E+02  0.00000000000E+00 0. -1.
<mgrwt>
<rscale>  2 0.24038395E+02</rscale>
<asrwt>0</asrwt>
<pdfrwt beam="1">  1       21 0.26437465E-02 0.24038395E+02</pdfrwt>
<pdfrwt beam="2">  1       21 0.70239587E-02 0.24038395E+02</pdfrwt>
<totfact> 0.81826061E+07</totfact>
</mgrwt>
</event>
<event>
 4    1  0.2721071E+004  0.2237188E+02  0.7546771E-02  0.1701899E+00
         21   -1    0    0  501  502  0.00000000000E+00  0.00000000000E+00  0.22270601521E+03  0.22270601521E+03  0.00000000000E+00 0. -1.
         21   -1    0    0  502  503 -0.00000000000E+00 -0.00000000000E+00 -0.32489511698E+01  0.32489511698E+01  0.00000000000E+00 0.  1.
          2    1    1    2  501    0 -0.18210656544E+02 -0.12995116372E+02  0.17245705891E+03  0.17390209380E+03  0.00000000000E+00 0. -1.
         -2    1    1    2    0  503  0.18210656544E+02  0.12995116372E+02  0.47000005135E+02  0.52052872581E+02  0.00000000000E+00 0.  1.
<mgrwt>
<rscale>  2 0.22371881E+02</rscale>
<asrwt>0</asrwt>
<pdfrwt beam="1">  1       21 0.34262452E-01 0.22371881E+02</pdfrwt>
<pdfrwt beam="2">  1       21 0.49983882E-03 0.22371881E+02</pdfrwt>
<totfact> 0.65377177E+07</totfact>
</mgrwt>
</event>
<event>
 4    1  0.2721071E+004  0.2128595E+02  0.7546771E-02  0.1720902E+00
         21   -1    0    0  503  502  0.00000000000E+00  0.00000000000E+00  0.10858059317E+04  0.10858059317E+04  0.00000000000E+00 0. -1.
         21   -1    0    0  501  503 -0.00000000000E+00 -0.00000000000E+00 -0.54024287538E+00  0.54024287538E+00  0.00000000000E+00 0.  1.
          2    1    1    2  501    0 -0.21278065638E+02  0.57931819386E+00  0.28350146302E+03  0.28429943936E+03  0.00000000000E+00 0.  1.
         -2    1    1    2    0  502  0.21278065638E+02 -0.57931819386E+00  0.80176422582E+03  0.80204673523E+03  0.00000000000E+00 0. -1.
<mgrwt>
<rscale>  2 0.21285950E+02</rscale>
<asrwt>0</asrwt>
<pdfrwt beam="1">  1       21 0.16704532E+00 0.21285950E+02</pdfrwt>
<pdfrwt beam="2">  1       21 0.83115158E-04 0.21285950E+02</pdfrwt>
<totfact> 0.31288840E+07</totfact>
</mgrwt>
</event>
<event>
 4    1  0.2721071E+004  0.2149050E+02  0.7546771E-02  0.1717215E+00
         21   -1    0    0  503  502  0.00000000000E+00  0.00000000000E+00  0.10361326537E+03  0.10361326537E+03  0.00000000000E+00 0. -1.
         21   -1    0    0  501  503 -0.00000000000E+00 -0.00000000000E+00 -0.55050459299E+01  0.55050459299E+01  0.00000000000E+00 0.  1.
          2    1    1    2  501    0  0.17868439105E+01  0.21416085357E+02  0.25252686554E+02  0.33159307915E+02  0.00000000000E+00 0.  1.
         -2    1    1    2    0  502 -0.17868439105E+01 -0.21416085357E+02  0.72855532884E+02  0.75959003383E+02  0.00000000000E+00 0. -1.
<mgrwt>
<rscale>  2 0.21490498E+02</rscale>
<asrwt>0</asrwt>
<pdfrwt beam="1">  1       21 0.15940501E-01 0.21490498E+02</pdfrwt>
<pdfrwt beam="2">  1       21 0.84693022E-03 0.21490498E+02</pdfrwt>
<totfact> 0.11465479E+08</totfact>
</mgrwt>
</event>
<event>
 4    1  0.2721071E+004  0.2997756E+02  0.7546771E-02  0.1598337E+00
         21   -1    0    0  501  502  0.00000000000E+00  0.00000000000E+00  0.18052843518E+01  0.18052843518E+01  0.00000000000E+00 0.  1.
         21   -1    0    0  502  503 -0.00000000000E+00 -0.00000000000E+00 -0.71261223185E+03  0.71261223185E+03  0.00000000000E+00 0. -1.
          2    1    1    2  501    0 -0.29471493717E+02  0.54849956904E+01 -0.15927792760E+03  0.16207440371E+03  0.00000000000E+00 0.  1.
         -2    1    1    2    0  503  0.29471493717E+02 -0.54849956904E+01 -0.55152901990E+03  0.55234311248E+03  0.00000000000E+00 0. -1.
<mgrwt>
<rscale>  2 0.29977560E+02</rscale>
<asrwt>0</asrwt>
<pdfrwt beam="1">  1       21 0.27773561E-03 0.29977560E+02</pdfrwt>
<pdfrwt beam="2">  1       21 0.10963283E+00 0.29977560E+02</pdfrwt>
<totfact> 0.15573722E+07</totfact>
</mgrwt>
</event>
<event>
 4    1  0.2721071E+004  0.2447233E+02  0.7546771E-02  0.1668699E+00
         21   -1    0    0  501  502  0.00000000000E+00  0.00000000000E+00  0.51519342002E+02  0.51519342002E+02  0.00000000000E+00 0. -1.
         21   -1    0    0  502  503 -0.00000000000E+00 -0.00000000000E+00 -0.11636158718E+02  0.11636158718E+02  0.00000000000E+00 0.  1.
          2    1    1    2  501    0  0.21505736996E+02 -0.11678964821E+02  0.20934161733E+02  0.32204565989E+02  0.00000000000E+00 0.  1.
         -2    1    1    2    0  503 -0.21505736996E+02  0.11678964821E+02  0.18949021550E+02  0.30950934731E+02  0.00000000000E+00 0. -1.
<mgrwt>
<rscale>  2 0.24472330E+02</rscale>
<asrwt>0</asrwt>
<pdfrwt beam="1">  1       21 0.79260525E-02 0.24472330E+02</pdfrwt>
<pdfrwt beam="2">  1       21 0.17901783E-02 0.24472330E+02</pdfrwt>
<totfact> 0.12322768E+08</totfact>
</mgrwt>
</event>
<event>
 4    1  0.2721071E+004  0.2445581E+02  0.7546771E-02  0.1668944E+00
         21   -1    0    0  501  502  0.00000000000E+00  0.00000000000E+00  0.19782560923E+03  0.19782560923E+03  0.00000000000E+00 0. -1.
         21   -1    0    0  502  503 -0.00000000000E+00 -0.00000000000E+00 -0.34945553760E+01  0.34945553760E+01  0.00000000000E+00 0.  1.
          2    1    1    2  501    0 -0.10828832062E+02  0.21927672909E+02  0.13413036665E+03  0.13634163597E+03  0.00000000000E+00 0. -1.
         -2    1    1    2    0  503  0.10828832062E+02 -0.21927672909E+02  0.60200687203E+02  0.64978528629E+02  0.00000000000E+00 0.  1.
<mgrwt>
<rscale>  2 0.24455806E+02</rscale>
<asrwt>0</asrwt>
<pdfrwt beam="1">  1       21 0.30434700E-01 0.24455806E+02</pdfrwt>
<pdfrwt beam="2">  1       21 0.53762406E-03 0.24455806E+02</pdfrwt>
<totfact> 0.74641133E+07</totfact>
</mgrwt>
</event>
<event>
 4    1  0.2721071E+004  0.2202541E+02  0.7546771E-02  0.1707813E+00
         21   -1    0    0  501  502  0.00000000000E+00  0.00000000000E+00  0.24627471595E+01  0.24627471595E+01  0.00000000000E+00 0. -1.
         21   -1    0    0  502  503 -0.00000000000E+00 -0.00000000000E+00 -0.74869978707E+03  0.74869978707E+03  0.00000000000E+00 0.  1.
          2    1    1    2  501    0 -0.13584393359E+02  0.17337333783E+02 -0.50708717702E+02  0.55285558119E+02  0.00000000000E+00 0. -1.
         -2    1    1    2    0  503  0.13584393359E+02 -0.17337333783E+02 -0.69552832221E+03  0.69587697611E+03  0.00000000000E+00 0.  1.
<mgrwt>
<rscale>  2 0.22025415E+02</rscale>
<asrwt>0</asrwt>
<pdfrwt beam="1">  1       21 0.37888443E-03 0.22025415E+02</pdfrwt>
<pdfrwt beam="2">  1       21 0.11518451E+00 0.22025415E+02</pdfrwt>
<totfact> 0.84365794E+06</totfact>
</mgrwt>
</event>
<event>
 4    1  0.2721071E+004  0.2317665E+02  0.7546771E-02  0.1688663E+00
         21   -1    0    0  501  502  0.00000000000E+00  0.00000000000E+00  0.36488547041E+03  0.36488547041E+03  0.00000000000E+00 0. -1.
         21   -1    0    0  502  503 -0.00000000000E+00 -0.00000000000E+00 -0.81240121310E+01  0.81240121310E+01  0.00000000000E+00 0.  1.
          2    1    1    2  501    0  0.21383561111E+02  0.89387084597E+01  0.34714364311E+03  0.34791646432E+03  0.00000000000E+00 0. -1.
         -2    1    1    2    0  503 -0.21383561111E+02 -0.89387084597E+01  0.96178151693E+01  0.25093018219E+02  0.00000000000E+00 0.  1.
<mgrwt>
<rscale>  2 0.23176652E+02</rscale>
<asrwt>0</asrwt>
<pdfrwt beam="1">  1       21 0.56136213E-01 0.23176652E+02</pdfrwt>
<pdfrwt beam="2">  1       21 0.12498483E-02 0.23176652E+02</pdfrwt>
<totfact> 0.65389835E+06</totfact>
</mgrwt>
</event>
<event>
 4    1  0.2721071E+004  0.2929296E+02  0.7546771E-02  0.1606038E+00
         21   -1    0    0  501  502  0.00000000000E+00  0.00000000000E+00  0.13333913025E+03  0.13333913025E+03  0.00000000000E+00 0. -1.
         21   -1    0    0  502  503 -0.00000000000E+00 -0.00000000000E+00 -0.82944457363E+01  0.82944457363E+01  0.00000000000E+00 0.  1.
          2    1    1    2  501    0 -0.25762996182E+02 -0.13940781273E+02  0.96049691114E+02  0.10041723218E+03  0.00000000000E+00 0. -1.
         -2    1    1    2    0  503  0.25762996182E+02  0.13940781273E+02  0.28994993397E+02  0.41216343808E+02  0.00000000000E+00 0.  1.
<mgrwt>
<rscale>  2 0.29292957E+02</rscale>
<asrwt>0</asrwt>
<pdfrwt beam="1">  1       21 0.20513711E-01 0.29292957E+02</pdfrwt>
<pdfrwt beam="2">  1       21 0.12760687E-02 0.29292957E+02</pdfrwt>
<totfact> 0.43119873E+07</totfact>
</mgrwt>
</event>
<event>
 4    1  0.2721071E+004  0.2083422E+02  0.7546771E-02  0.1729230E+00
         21   -1    0    0  501  502  0.00000000000E+00  0.00000000000E+00  0.25816254145E+03  0.25816254145E+03  0.00000000000E+00 0.  1.
         21   -1    0    0  502  503 -0.00000000000E+00 -0.00000000000E+00 -0.22932743266E+01  0.22932743266E+01  0.00000000000E+00 0. -1.
          2    1    1    2  501    0 -0.20568418254E+02  0.33173357612E+01  0.19520454467E+03  0.19631321608E+03  0.00000000000E+00 0.  1.
         -2    1    1    2    0  503  0.20568418254E+02 -0.33173357612E+01  0.60664722446E+02  0.64142599694E+02  0.00000000000E+00 0. -1.
<mgrwt>
<rscale>  2 0.20834216E+02</rscale>
<asrwt>0</asrwt>
<pdfrwt beam="1">  1       21 0.39717291E-01 0.20834216E+02</pdfrwt>
<pdfrwt beam="2">  1       21 0.35281164E-03 0.20834216E+02</pdfrwt>
<totfact> 0.81246010E+07</totfact>
</mgrwt>
</event>
<event>
 4    1  0.2721071E+004  0.5531269E+02  0.7546771E-02  0.1418626E+00
         21   -1    0    0  501  502  0.00000000000E+00  0.00000000000E+00  0.45820360930E+03  0.45820360930E+03  0.00000000000E+00 0.  1.
         21   -1    0    0  502  503 -0.00000000000E+00 -0.00000000000E+00 -0.74307146848E+01  0.74307146848E+01  0.00000000000E+00 0. -1.
          2    1    1    2  501    0  0.22343513297E+02 -0.50599024701E+02  0.29952774482E+03  0.30459212696E+03  0.00000000000E+00 0.  1.
         -2    1    1    2    0  503 -0.22343513297E+02  0.50599024701E+02  0.15124514980E+03  0.16104219703E+03  0.00000000000E+00 0. -1.
<mgrwt>
<rscale>  2 0.55312692E+02</rscale>
<asrwt>0</asrwt>
<pdfrwt beam="1">  1       21 0.70492841E-01 0.55312692E+02</pdfrwt>
<pdfrwt beam="2">  1       21 0.11431872E-02 0.55312692E+02</pdfrwt>
<totfact> 0.51996080E+06</totfact>
</mgrwt>
</event>
<event>
 4    1  0.2721071E+004  0.2084069E+02  0.7546771E-02  0.1729109E+00
         21   -1    0    0  501  502  0.00000000000E+00  0.00000000000E+00  0.33155449119E+02  0.33155449119E+02  0.00000000000E+00 0. -1.
         21   -1    0    0  502  503 -0.00000000000E+00 -0.00000000000E+00 -0.63895277683E+02  0.63895277683E+02  0.00000000000E+00 0.  1.
          2    1    1    2  501    0 -0.12199182940E+02  0.16897172463E+02  0.27896044037E+02  0.34821312074E+02  0.00000000000E+00 0. -1.
         -2    1    1    2    0  503  0.12199182940E+02 -0.16897172463E+02 -0.58635872601E+02  0.62229414727E+02  0.00000000000E+00 0.  1.
<mgrwt>
<rscale>  2 0.20840693E+02</rscale>
<asrwt>0</asrwt>
<pdfrwt beam="1">  1       21 0.51008383E-02 0.20840693E+02</pdfrwt>
<pdfrwt beam="2">  1       21 0.98300427E-02 0.20840693E+02</pdfrwt>
<totfact> 0.16263282E+07</totfact>
</mgrwt>
</event>
<event>
 4    1  0.2721071E+004  0.2377708E+02  0.7546771E-02  0.1679215E+00
         21   -1    0    0  503  502  0.00000000000E+00  0.00000000000E+00  0.62783731468E+02  0.62783731468E+02  0.00000000000E+00 0.  1.
         21   -1    0    0  501  503 -0.00000000000E+00 -0.00000000000E+00 -0.18318563731E+02  0.18318563731E+02  0.00000000000E+00 0. -1.
          2    1    1    2  501    0 -0.19945839914E+01 -0.23693271409E+02 -0.66823417152E+01  0.24698242167E+02  0.00000000000E+00 0. -1.
         -2    1    1    2    0  502  0.19945839914E+01  0.23693271409E+02  0.51147509452E+02  0.56404053032E+02  0.00000000000E+00 0.  1.
<mgrwt>
<rscale>  2 0.23777079E+02</rscale>
<asrwt>0</asrwt>
<pdfrwt beam="1">  1       21 0.96590355E-02 0.23777079E+02</pdfrwt>
<pdfrwt beam="2">  1       21 0.28182406E-02 0.23777079E+02</pdfrwt>
<totfact> 0.43851134E+07</totfact>
</mgrwt>
</event>
<event>
 4    1  0.2721071E+004  0.2161780E+02  0.7546771E-02  0.1714947E+00
         21   -1    0    0  501  502  0.00000000000E+00  0.00000000000E+00  0.28021193341E+02  0.28021193341E+02  0.00000000000E+00 0. -1.
         21   -1    0    0  502  503 -0.00000000000E+00 -0.00000000000E+00 -0.23148164801E+02  0.23148164801E+02  0.00000000000E+00 0.  1.
          2    1    1    2  501    0 -0.19934384467E+02 -0.83635985181E+01  0.15963123430E+02  0.26872863150E+02  0.00000000000E+00 0. -1.
         -2    1    1    2    0  503  0.19934384467E+02  0.83635985181E+01 -0.11090094890E+02  0.24296494992E+02  0.00000000000E+00 0.  1.
<mgrwt>
<rscale>  2 0.21617804E+02</rscale>
<asrwt>0</asrwt>
<pdfrwt beam="1">  1       21 0.43109528E-02 0.21617804E+02</pdfrwt>
<pdfrwt beam="2">  1       21 0.35612561E-02 0.21617804E+02</pdfrwt>
<totfact> 0.10892123E+08</totfact>
</mgrwt>
</event>
<event>
 4    1  0.2721071E+004  0.2361064E+02  0.7546771E-02  0.1681799E+00
         21   -1    0    0  503  502  0.00000000000E+00  0.00000000000E+00  0.90004451552E+02  0.90004451552E+02  0.00000000000E+00 0. -1.
         21   -1    0    0  501  503 -0.00000000000E+00 -0.00000000000E+00 -0.11539767907E+02  0.11539767907E+02  0.00000000000E+00 0.  1.
          2    1    1    2  501    0 -0.12122571763E+02 -0.20260942845E+02  0.46747862562E+01  0.24068987882E+02  0.00000000000E+00 0.  1.
         -2    1    1    2    0  502  0.12122571763E+02  0.20260942845E+02  0.73789897389E+02  0.77475231576E+02  0.00000000000E+00 0. -1.
<mgrwt>
<rscale>  2 0.23610645E+02</rscale>
<asrwt>0</asrwt>
<pdfrwt beam="1">  1       21 0.13846838E-01 0.23610645E+02</pdfrwt>
<pdfrwt beam="2">  1       21 0.17753490E-02 0.23610645E+02</pdfrwt>
<totfact> 0.48875141E+07</totfact>
</mgrwt>
</event>
<event>
 4    1  0.2721071E+004  0.3181684E+02  0.7546771E-02  0.1578833E+00
         21   -1    0    0  503  502  0.00000000000E+00  0.00000000000E+00  0.94912613598E+02  0.94912613598E+02  0.00000000000E+00 0. -1.
         21   -1    0    0  501  503 -0.00000000000E+00 -0.00000000000E+00 -0.71825131082E+02  0.71825131082E+02  0.00000000000E+00 0.  1.
          2    1    1    2  501    0 -0.18748625665E+02  0.25706031875E+02 -0.65386549355E+02  0.72716654734E+02  0.00000000000E+00 0.  1.
         -2    1    1    2    0  502  0.18748625665E+02 -0.25706031875E+02  0.88474031871E+02  0.94021089946E+02  0.00000000000E+00 0. -1.
<mgrwt>
<rscale>  2 0.31816836E+02</rscale>
<asrwt>0</asrwt>
<pdfrwt beam="1">  1       21 0.14601941E-01 0.31816836E+02</pdfrwt>
<pdfrwt beam="2">  1       21 0.11050020E-01 0.31816836E+02</pdfrwt>
<totfact> 0.25310825E+06</totfact>
</mgrwt>
</event>
<event>
 4    1  0.2721071E+004  0.2235196E+02  0.7546771E-02  0.1702235E+00
         21   -1    0    0  503  502  0.00000000000E+00  0.00000000000E+00  0.29888158646E+01  0.29888158646E+01  0.00000000000E+00 0. -1.
         21   -1    0    0  501  503 -0.00000000000E+00 -0.00000000000E+00 -0.61390223073E+03  0.61390223073E+03  0.00000000000E+00 0.  1.
          2    1    1    2  501    0 -0.19591954056E+02 -0.10759432626E+02 -0.56857887361E+03  0.56901805382E+03  0.00000000000E+00 0.  1.
         -2    1    1    2    0  502  0.19591954056E+02  0.10759432626E+02 -0.42334541254E+02  0.47872992776E+02  0.00000000000E+00 0. -1.
<mgrwt>
<rscale>  2 0.22351959E+02</rscale>
<asrwt>0</asrwt>
<pdfrwt beam="1">  1       21 0.45981797E-03 0.22351959E+02</pdfrwt>
<pdfrwt beam="2">  1       21 0.94446468E-01 0.22351959E+02</pdfrwt>
<totfact> 0.98549331E+06</totfact>
</mgrwt>
</event>
<event>
 4    1  0.2721071E+004  0.2272318E+02  0.7546771E-02  0.1696037E+00
         21   -1    0    0  503  502  0.00000000000E+00  0.00000000000E+00  0.11443330381E+02  0.11443330381E+02  0.00000000000E+00 0. -1.
         21   -1    0    0  501  503 -0.00000000000E+00 -0.00000000000E+00 -0.46937775464E+02  0.46937775464E+02  0.00000000000E+00 0.  1.
          2    1    1    2  501    0  0.22632864721E+02 -0.20239644029E+01 -0.12005489029E+02  0.25699703582E+02  0.00000000000E+00 0. -1.
         -2    1    1    2    0  502 -0.22632864721E+02  0.20239644029E+01 -0.23488956054E+02  0.32681402263E+02  0.00000000000E+00 0.  1.
<mgrwt>
<rscale>  2 0.22723182E+02</rscale>
<asrwt>0</asrwt>
<pdfrwt beam="1">  1       21 0.17605124E-02 0.22723182E+02</pdfrwt>
<pdfrwt beam="2">  1       21 0.72211962E-02 0.22723182E+02</pdfrwt>
<totfact> 0.14392631E+08</totfact>
</mgrwt>
</event>
<event>
 4    1  0.2721071E+004  0.2095984E+02  0.7546771E-02  0.1726888E+00
         21   -1    0    0  503  502  0.00000000000E+00  0.00000000000E+00  0.35527611230E+00  0.35527611230E+00  0.00000000000E+00 0.  1.
         21   -1    0    0  501  503 -0.00000000000E+00 -0.00000000000E+00 -0.17803869283E+04  0.17803869283E+04  0.00000000000E+00 0. -1.
          2    1    1    2  501    0  0.14436373516E+02 -0.15195598191E+02 -0.13821120064E+04  0.13822709261E+04  0.00000000000E+00 0.  1.
         -2    1    1    2    0  502 -0.14436373516E+02  0.15195598191E+02 -0.39791964585E+03  0.39847127831E+03  0.00000000000E+00 0. -1.
<mgrwt>
<rscale>  2 0.20959845E+02</rscale>
<asrwt>0</asrwt>
<pdfrwt beam="1">  1       21 0.54658325E-04 0.20959845E+02</pdfrwt>
<pdfrwt beam="2">  1       21 0.27390337E+00 0.20959845E+02</pdfrwt>
<totfact> 0.15182491E+07</totfact>
</mgrwt>
</event>
<event>
 4    1  0.2721071E+004  0.2083014E+02  0.7546771E-02  0.1729306E+00
         21   -1    0    0  501  502  0.00000000000E+00  0.00000000000E+00  0.61349478608E+01  0.61349478608E+01  0.00000000000E+00 0. -1.
         21   -1    0    0  502  503 -0.00000000000E+00 -0.00000000000E+00 -0.26357799755E+03  0.26357799755E+03  0.00000000000E+00 0.  1.
          2    1    1    2  501    0 -0.20297077577E+02  0.46822400225E+01 -0.13368147016E+02  0.24750799672E+02  0.00000000000E+00 0. -1.
         -2    1    1    2    0  503  0.20297077577E+02 -0.46822400225E+01 -0.24407490267E+03  0.24496214574E+03  0.00000000000E+00 0.  1.
<mgrwt>
<rscale>  2 0.20830140E+02</rscale>
<asrwt>0</asrwt>
<pdfrwt beam="1">  1       21 0.94383803E-03 0.20830140E+02</pdfrwt>
<pdfrwt beam="2">  1       21 0.40550466E-01 0.20830140E+02</pdfrwt>
<totfact> 0.18296598E+07</totfact>
</mgrwt>
</event>
<event>
 4    1  0.2721071E+004  0.2529838E+02  0.7546771E-02  0.1656753E+00
         21   -1    0    0  503  502  0.00000000000E+00  0.00000000000E+00  0.35277687241E+02  0.35277687241E+02  0.00000000000E+00 0. -1.
         21   -1    0    0  501  503 -0.00000000000E+00 -0.00000000000E+00 -0.19704861699E+02  0.19704861699E+02  0.00000000000E+00 0.  1.
          2    1    1    2  501    0  0.21665442599E+02  0.13062026801E+02  0.44150479468E-01  0.25298416876E+02  0.00000000000E+00 0.  1.
         -2    1    1    2    0  502 -0.21665442599E+02 -0.13062026801E+02  0.15528675063E+02  0.29684132064E+02  0.00000000000E+00 0. -1.
<mgrwt>
<rscale>  2 0.25298378E+02</rscale>
<asrwt>0</asrwt>
<pdfrwt beam="1">  1       21 0.54273365E-02 0.25298378E+02</pdfrwt>
<pdfrwt beam="2">  1       21 0.30315172E-02 0.25298378E+02</pdfrwt>
<totfact> 0.10160825E+08</totfact>
</mgrwt>
</event>
<event>
 4    1  0.2721071E+004  0.3143248E+02  0.7546771E-02  0.1582774E+00
         21   -1    0    0  501  502  0.00000000000E+00  0.00000000000E+00  0.71217119374E+02  0.71217119374E+02  0.00000000000E+00 0. -1.
         21   -1    0    0  502  503 -0.00000000000E+00 -0.00000000000E+00 -0.23307330828E+02  0.23307330828E+02  0.00000000000E+00 0.  1.
          2    1    1    2  501    0 -0.29366229657E+02 -0.11208275670E+02  0.54024073463E+02  0.62502811147E+02  0.00000000000E+00 0. -1.
         -2    1    1    2    0  503  0.29366229657E+02  0.11208275670E+02 -0.61142849162E+01  0.32021639055E+02  0.00000000000E+00 0.  1.
<mgrwt>
<rscale>  2 0.31432481E+02</rscale>
<asrwt>0</asrwt>
<pdfrwt beam="1">  1       21 0.10956480E-01 0.31432481E+02</pdfrwt>
<pdfrwt beam="2">  1       21 0.35857432E-02 0.31432481E+02</pdfrwt>
<totfact> 0.25866654E+07</totfact>
</mgrwt>
</event>
<event>
 4    1  0.2721071E+004  0.2011518E+02  0.7546771E-02  0.1743047E+00
         21   -1    0    0  503  502  0.00000000000E+00  0.00000000000E+00  0.16359117385E+02  0.16359117385E+02  0.00000000000E+00 0.  1.
         21   -1    0    0  501  503 -0.00000000000E+00 -0.00000000000E+00 -0.43472516260E+02  0.43472516260E+02  0.00000000000E+00 0. -1.
          2    1    1    2  501    0 -0.17683566394E+02 -0.95870767962E+01 -0.33197772815E+02  0.38816397074E+02  0.00000000000E+00 0. -1.
         -2    1    1    2    0  502  0.17683566394E+02  0.95870767962E+01  0.60843739397E+01  0.21015236571E+02  0.00000000000E+00 0.  1.
<mgrwt>
<rscale>  2 0.20115182E+02</rscale>
<asrwt>0</asrwt>
<pdfrwt beam="1">  1       21 0.25167873E-02 0.20115182E+02</pdfrwt>
<pdfrwt beam="2">  1       21 0.66880794E-02 0.20115182E+02</pdfrwt>
<totfact> 0.90829396E+07</totfact>
</mgrwt>
</event>
<event>
 4    1  0.2721071E+004  0.2768389E+02  0.7546771E-02  0.1625198E+00
         21   -1    0    0  501  502  0.00000000000E+00  0.00000000000E+00  0.69015728773E+01  0.69015728773E+01  0.00000000000E+00 0.  1.
         21   -1    0    0  502  503 -0.00000000000E+00 -0.00000000000E+00 -0.11106021847E+03  0.11106021847E+03  0.00000000000E+00 0. -1.
          2    1    1    2  501    0  0.51350482028E+01 -0.27203475614E+02 -0.52726854697E+02  0.59552657470E+02  0.00000000000E+00 0. -1.
         -2    1    1    2    0  503 -0.51350482028E+01  0.27203475614E+02 -0.51431790891E+02  0.58409133873E+02  0.00000000000E+00 0.  1.
<mgrwt>
<rscale>  2 0.27683891E+02</rscale>
<asrwt>0</asrwt>
<pdfrwt beam="1">  1       21 0.10617805E-02 0.27683891E+02</pdfrwt>
<pdfrwt beam="2">  1       21 0.17086186E-01 0.27683891E+02</pdfrwt>
<totfact> 0.77493652E+07</totfact>
</mgrwt>
</event>
<event>
 4    1  0.2721071E+004  0.2412940E+02  0.7546771E-02  0.1673831E+00
         21   -1    0    0  503  502  0.00000000000E+00  0.00000000000E+00  0.12480160397E+03  0.12480160397E+03  0.00000000000E+00 0. -1.
         21   -1    0    0  501  503 -0.00000000000E+00 -0.00000000000E+00 -0.48010461711E+01  0.48010461711E+01  0.00000000000E+00 0.  1.
          2    1    1    2  501    0  0.49961240360E+01  0.23606500877E+02  0.49101137178E+02  0.54709686630E+02  0.00000000000E+00 0.  1.
         -2    1    1    2    0  502 -0.49961240360E+01 -0.23606500877E+02  0.70899420622E+02  0.74892963512E+02  0.00000000000E+00 0. -1.
<mgrwt>
<rscale>  2 0.24129404E+02</rscale>
<asrwt>0</asrwt>
<pdfrwt beam="1">  1       21 0.19200244E-01 0.24129404E+02</pdfrwt>
<pdfrwt beam="2">  1       21 0.73862258E-03 0.24129404E+02</pdfrwt>
<totfact> 0.10543463E+08</totfact>
</mgrwt>
</event>
<event>
 4    1  0.2721071E+004  0.2378913E+02  0.7546771E-02  0.1679029E+00
         21   -1    0    0  503  502  0.00000000000E+00  0.00000000000E+00  0.10078119069E+03  0.10078119069E+03  0.00000000000E+00 0. -1.
         21   -1    0    0  501  503 -0.00000000000E+00 -0.00000000000E+00 -0.68817905512E+01  0.68817905512E+01  0.00000000000E+00 0.  1.
          2    1    1    2  501    0  0.12036074561E+02  0.20519635955E+02  0.23856901470E+02  0.33690863721E+02  0.00000000000E+00 0.  1.
         -2    1    1    2    0  502 -0.12036074561E+02 -0.20519635955E+02  0.70042498671E+02  0.73972117522E+02  0.00000000000E+00 0. -1.
<mgrwt>
<rscale>  2 0.23789127E+02</rscale>
<asrwt>0</asrwt>
<pdfrwt beam="1">  1       21 0.15504797E-01 0.23789127E+02</pdfrwt>
<pdfrwt beam="2">  1       21 0.10587371E-02 0.23789127E+02</pdfrwt>
<totfact> 0.88525896E+07</totfact>
</mgrwt>
</event>
<event>
 4    1  0.2721071E+004  0.2473432E+02  0.7546771E-02  0.1664848E+00
         21   -1    0    0  501  502  0.00000000000E+00  0.00000000000E+00  0.28437672846E+02  0.28437672846E+02  0.00000000000E+00 0. -1.
         21   -1    0    0  502  503 -0.00000000000E+00 -0.00000000000E+00 -0.28219278000E+02  0.28219278000E+02  0.00000000000E+00 0.  1.
          2    1    1    2  501    0  0.16099289314E+02 -0.18777631251E+02  0.13918863515E+02  0.28381707372E+02  0.00000000000E+00 0. -1.
         -2    1    1    2    0  503 -0.16099289314E+02  0.18777631251E+02 -0.13700468669E+02  0.28275243474E+02  0.00000000000E+00 0.  1.
<mgrwt>
<rscale>  2 0.24734319E+02</rscale>
<asrwt>0</asrwt>
<pdfrwt beam="1">  1       21 0.43750266E-02 0.24734319E+02</pdfrwt>
<pdfrwt beam="2">  1       21 0.43414274E-02 0.24734319E+02</pdfrwt>
<totfact> 0.80931790E+07</totfact>
</mgrwt>
</event>
<event>
 4    1  0.2721071E+004  0.3038556E+02  0.7546771E-02  0.1593865E+00
         21   -1    0    0  501  502  0.00000000000E+00  0.00000000000E+00  0.13109528420E+03  0.13109528420E+03  0.00000000000E+00 0. -1.
         21   -1    0    0  502  503 -0.00000000000E+00 -0.00000000000E+00 -0.18295323308E+02  0.18295323308E+02  0.00000000000E+00 0.  1.
          2    1    1    2  501    0  0.26775938611E+02  0.14364248185E+02  0.11497973261E+03  0.11892695836E+03  0.00000000000E+00 0. -1.
         -2    1    1    2    0  503 -0.26775938611E+02 -0.14364248185E+02 -0.21797717180E+01  0.30463649144E+02  0.00000000000E+00 0.  1.
<mgrwt>
<rscale>  2 0.30385564E+02</rscale>
<asrwt>0</asrwt>
<pdfrwt beam="1">  1       21 0.20168505E-01 0.30385564E+02</pdfrwt>
<pdfrwt beam="2">  1       21 0.28146652E-02 0.30385564E+02</pdfrwt>
<totfact> 0.13165676E+07</totfact>
</mgrwt>
</event>
<event>
 4    1  0.2721071E+004  0.2096151E+02  0.7546771E-02  0.1726857E+00
         21   -1    0    0  501  502  0.00000000000E+00  0.00000000000E+00  0.34454315326E+02  0.34454315326E+02  0.00000000000E+00 0. -1.
         21   -1    0    0  502  503 -0.00000000000E+00 -0.00000000000E+00 -0.18898314609E+02  0.18898314609E+02  0.00000000000E+00 0.  1.
          2    1    1    2  501    0 -0.15314990714E+01  0.20905488430E+02  0.22990395128E+02  0.31111785613E+02  0.00000000000E+00 0. -1.
         -2    1    1    2    0  503  0.15314990714E+01 -0.20905488430E+02 -0.74343944111E+01  0.22240844322E+02  0.00000000000E+00 0.  1.
<mgrwt>
<rscale>  2 0.20961511E+02</rscale>
<asrwt>0</asrwt>
<pdfrwt beam="1">  1       21 0.53006639E-02 0.20961511E+02</pdfrwt>
<pdfrwt beam="2">  1       21 0.29074330E-02 0.20961511E+02</pdfrwt>
<totfact> 0.10669802E+08</totfact>
</mgrwt>
</event>
<event>
 4    1  0.2721071E+004  0.2251647E+02  0.7546771E-02  0.1699470E+00
         21   -1    0    0  501  502  0.00000000000E+00  0.00000000000E+00  0.78608197362E+01  0.78608197362E+01  0.00000000000E+00 0. -1.
         21   -1    0    0  502  503 -0.00000000000E+00 -0.00000000000E+00 -0.82623759233E+02  0.82623759233E+02  0.00000000000E+00 0.  1.
          2    1    1    2  501    0 -0.10386001365E+02  0.19978045540E+02 -0.16189842020E+02  0.27732693930E+02  0.00000000000E+00 0.  1.
         -2    1    1    2    0  503  0.10386001365E+02 -0.19978045540E+02 -0.58573097476E+02  0.62751885039E+02  0.00000000000E+00 0. -1.
<mgrwt>
<rscale>  2 0.22516468E+02</rscale>
<asrwt>0</asrwt>
<pdfrwt beam="1">  1       21 0.12093568E-02 0.22516468E+02</pdfrwt>
<pdfrwt beam="2">  1       21 0.12711348E-01 0.22516468E+02</pdfrwt>
<totfact> 0.99889909E+07</totfact>
</mgrwt>
</event>
<event>
 4    1  0.2721071E+004  0.2403345E+02  0.7546771E-02  0.1675286E+00
         21   -1    0    0  501  502  0.00000000000E+00  0.00000000000E+00  0.82505085514E+01  0.82505085514E+01  0.00000000000E+00 0. -1.
         21   -1    0    0  502  503 -0.00000000000E+00 -0.00000000000E+00 -0.72999214548E+02  0.72999214548E+02  0.00000000000E+00 0.  1.
          2    1    1    2  501    0  0.24009977978E+02  0.10619626272E+01 -0.24151722320E+02  0.34072166033E+02  0.00000000000E+00 0. -1.
         -2    1    1    2    0  503 -0.24009977978E+02 -0.10619626272E+01 -0.40596983676E+02  0.47177557066E+02  0.00000000000E+00 0.  1.
<mgrwt>
<rscale>  2 0.24033452E+02</rscale>
<asrwt>0</asrwt>
<pdfrwt beam="1">  1       21 0.12693089E-02 0.24033452E+02</pdfrwt>
<pdfrwt beam="2">  1       21 0.11230649E-01 0.24033452E+02</pdfrwt>
<totfact> 0.11638764E+08</totfact>
</mgrwt>
</event>
<event>
 4    1  0.2721071E+004  0.2323967E+02  0.7546771E-02  0.1687654E+00
         21   -1    0    0  503  502  0.00000000000E+00  0.00000000000E+00  0.11124779997E+03  0.11124779997E+03  0.00000000000E+00 0. -1.
         21   -1    0    0  501  503 -0.00000000000E+00 -0.00000000000E+00 -0.79725682458E+01  0.79725682458E+01  0.00000000000E+00 0.  1.
          2    1    1    2  501    0 -0.21615158573E+02 -0.85362303237E+01  0.14360229646E+02  0.27318464520E+02  0.00000000000E+00 0.  1.
         -2    1    1    2    0  502  0.21615158573E+02  0.85362303237E+01  0.88915002074E+02  0.91901903691E+02  0.00000000000E+00 0. -1.
<mgrwt>
<rscale>  2 0.23239671E+02</rscale>
<asrwt>0</asrwt>
<pdfrwt beam="1">  1       21 0.17115045E-01 0.23239671E+02</pdfrwt>
<pdfrwt beam="2">  1       21 0.12265490E-02 0.23239671E+02</pdfrwt>
<totfact> 0.59476553E+07</totfact>
</mgrwt>
</event>
<event>
 4    1  0.2721071E+004  0.2729387E+02  0.7546771E-02  0.1630084E+00
         21   -1    0    0  503  502  0.00000000000E+00  0.00000000000E+00  0.12855152228E+02  0.12855152228E+02  0.00000000000E+00 0. -1.
         21   -1    0    0  501  503 -0.00000000000E+00 -0.00000000000E+00 -0.24583229115E+03  0.24583229115E+03  0.00000000000E+00 0.  1.
          2    1    1    2  501    0 -0.28252443460E+01  0.27147249586E+02 -0.22956416763E+03  0.23118101615E+03  0.00000000000E+00 0.  1.
         -2    1    1    2    0  502  0.28252443460E+01 -0.27147249586E+02 -0.34129712820E+01  0.27506427225E+02  0.00000000000E+00 0. -1.
<mgrwt>
<rscale>  2 0.27293867E+02</rscale>
<asrwt>0</asrwt>
<pdfrwt beam="1">  1       21 0.19777160E-02 0.27293867E+02</pdfrwt>
<pdfrwt beam="2">  1       21 0.37820348E-01 0.27293867E+02</pdfrwt>
<totfact> 0.71305641E+06</totfact>
</mgrwt>
</event>
<event>
 4    1  0.2721071E+004  0.3198215E+02  0.7546771E-02  0.1577158E+00
         21   -1    0    0  501  502  0.00000000000E+00  0.00000000000E+00  0.49745185159E+02  0.49745185159E+02  0.00000000000E+00 0.  1.
         21   -1    0    0  502  503 -0.00000000000E+00 -0.00000000000E+00 -0.22029149921E+02  0.22029149921E+02  0.00000000000E+00 0. -1.
          2    1    1    2  501    0 -0.28172167840E+02  0.15138919791E+02  0.23119599882E+02  0.39463576016E+02  0.00000000000E+00 0.  1.
         -2    1    1    2    0  503  0.28172167840E+02 -0.15138919791E+02  0.45964353563E+01  0.32310759064E+02  0.00000000000E+00 0. -1.
<mgrwt>
<rscale>  2 0.31982150E+02</rscale>
<asrwt>0</asrwt>
<pdfrwt beam="1">  1       21 0.76531054E-02 0.31982150E+02</pdfrwt>
<pdfrwt beam="2">  1       21 0.33891000E-02 0.31982150E+02</pdfrwt>
<totfact> 0.51610095E+07</totfact>
</mgrwt>
</event>
<event>
 4    1  0.2721071E+004  0.2158017E+02  0.7546771E-02  0.1715615E+00
         21   -1    0    0  501  502  0.00000000000E+00  0.00000000000E+00  0.30502298550E+02  0.30502298550E+02  0.00000000000E+00 0. -1.
         21   -1    0    0  502  503 -0.00000000000E+00 -0.00000000000E+00 -0.20000044978E+02  0.20000044978E+02  0.00000000000E+00 0.  1.
          2    1    1    2  501    0  0.64181095529E+01  0.20603680824E+02  0.17533957210E+02  0.27805457183E+02  0.00000000000E+00 0. -1.
         -2    1    1    2    0  503 -0.64181095529E+01 -0.20603680824E+02 -0.70317036378E+01  0.22696886345E+02  0.00000000000E+00 0.  1.
<mgrwt>
<rscale>  2 0.21580171E+02</rscale>
<asrwt>0</asrwt>
<pdfrwt beam="1">  1       21 0.46926613E-02 0.21580171E+02</pdfrwt>
<pdfrwt beam="2">  1       21 0.30769300E-02 0.21580171E+02</pdfrwt>
<totfact> 0.11958400E+08</totfact>
</mgrwt>
</event>
<event>
 4    1  0.2721071E+004  0.3379188E+02  0.7546771E-02  0.1559598E+00
         21   -1    0    0  501  502  0.00000000000E+00  0.00000000000E+00  0.10521612660E+03  0.10521612660E+03  0.00000000000E+00 0.  1.
         21   -1    0    0  502  503 -0.00000000000E+00 -0.00000000000E+00 -0.13848761693E+02  0.13848761693E+02  0.00000000000E+00 0. -1.
          2    1    1    2  501    0  0.14887763133E+02 -0.30335548168E+02  0.73373201297E+02  0.80780676169E+02  0.00000000000E+00 0.  1.
         -2    1    1    2    0  503 -0.14887763133E+02  0.30335548168E+02  0.17994163606E+02  0.38284212120E+02  0.00000000000E+00 0. -1.
<mgrwt>
<rscale>  2 0.33791877E+02</rscale>
<asrwt>0</asrwt>
<pdfrwt beam="1">  1       21 0.16187096E-01 0.33791877E+02</pdfrwt>
<pdfrwt beam="2">  1       21 0.21305788E-02 0.33791877E+02</pdfrwt>
<totfact> 0.30488209E+07</totfact>
</mgrwt>
</event>
<event>
 4    1  0.2721071E+004  0.2943925E+02  0.7546771E-02  0.1604371E+00
         21   -1    0    0  501  502  0.00000000000E+00  0.00000000000E+00  0.72660824187E+02  0.72660824187E+02  0.00000000000E+00 0. -1.
         21   -1    0    0  502  503 -0.00000000000E+00 -0.00000000000E+00 -0.19696137082E+02  0.19696137082E+02  0.00000000000E+00 0.  1.
          2    1    1    2  501    0  0.28363135113E+02  0.78868103142E+01  0.55483729042E+02  0.62810137707E+02  0.00000000000E+00 0. -1.
         -2    1    1    2    0  503 -0.28363135113E+02 -0.78868103142E+01 -0.25190419367E+01  0.29546823563E+02  0.00000000000E+00 0.  1.
<mgrwt>
<rscale>  2 0.29439246E+02</rscale>
<asrwt>0</asrwt>
<pdfrwt beam="1">  1       21 0.11178588E-01 0.29439246E+02</pdfrwt>
<pdfrwt beam="2">  1       21 0.30301750E-02 0.29439246E+02</pdfrwt>
<totfact> 0.32209903E+07</totfact>
</mgrwt>
</event>
<event>
 4    1  0.2721071E+004  0.2688242E+02  0.7546771E-02  0.1635349E+00
         21   -1    0    0  503  502  0.00000000000E+00  0.00000000000E+00  0.21584647512E+02  0.21584647512E+02  0.00000000000E+00 0.  1.
         21   -1    0    0  501  503 -0.00000000000E+00 -0.00000000000E+00 -0.43518614442E+02  0.43518614442E+02  0.00000000000E+00 0. -1.
          2    1    1    2  501    0 -0.23772270077E+02  0.12551644643E+02 -0.26600672833E+02  0.37818783733E+02  0.00000000000E+00 0.  1.
         -2    1    1    2    0  502  0.23772270077E+02 -0.12551644643E+02  0.46667059026E+01  0.27284478222E+02  0.00000000000E+00 0. -1.
<mgrwt>
<rscale>  2 0.26882422E+02</rscale>
<asrwt>0</asrwt>
<pdfrwt beam="1">  1       21 0.33207150E-02 0.26882422E+02</pdfrwt>
<pdfrwt beam="2">  1       21 0.66951714E-02 0.26882422E+02</pdfrwt>
<totfact> 0.63736870E+07</totfact>
</mgrwt>
</event>
<event>
 4    1  0.2721071E+004  0.2164740E+02  0.7546771E-02  0.1714422E+00
         21   -1    0    0  503  502  0.00000000000E+00  0.00000000000E+00  0.48473013486E+03  0.48473013486E+03  0.00000000000E+00 0.  1.
         21   -1    0    0  501  503 -0.00000000000E+00 -0.00000000000E+00 -0.10349421043E+01  0.10349421043E+01  0.00000000000E+00 0. -1.
          2    1    1    2  501    0 -0.20172334492E+02 -0.78540870980E+01  0.17949914918E+03  0.18079976305E+03  0.00000000000E+00 0. -1.
         -2    1    1    2    0  502  0.20172334492E+02  0.78540870980E+01  0.30419604357E+03  0.30496531391E+03  0.00000000000E+00 0.  1.
<mgrwt>
<rscale>  2 0.21647396E+02</rscale>
<asrwt>0</asrwt>
<pdfrwt beam="1">  1       21 0.74573686E-01 0.21647396E+02</pdfrwt>
<pdfrwt beam="2">  1       21 0.15922225E-03 0.21647396E+02</pdfrwt>
<totfact> 0.75163491E+07</totfact>
</mgrwt>
</event>
<event>
 4    1  0.2721071E+004  0.2361271E+02  0.7546771E-02  0.1681766E+00
         21   -1    0    0  503  502  0.00000000000E+00  0.00000000000E+00  0.11442323977E+03  0.11442323977E+03  0.00000000000E+00 0. -1.
         21   -1    0    0  501  503 -0.00000000000E+00 -0.00000000000E+00 -0.68365338322E+01  0.68365338322E+01  0.00000000000E+00 0.  1.
          2    1    1    2  501    0 -0.78773029112E+01  0.22260018140E+02  0.21298745375E+02  0.31799321743E+02  0.00000000000E+00 0.  1.
         -2    1    1    2    0  502  0.78773029112E+01 -0.22260018140E+02  0.86287960559E+02  0.89460451856E+02  0.00000000000E+00 0. -1.
<mgrwt>
<rscale>  2 0.23612715E+02</rscale>
<asrwt>0</asrwt>
<pdfrwt beam="1">  1       21 0.17603574E-01 0.23612715E+02</pdfrwt>
<pdfrwt beam="2">  1       21 0.10517745E-02 0.23612715E+02</pdfrwt>
<totfact> 0.71744749E+07</totfact>
</mgrwt>
</event>
<event>
 4    1  0.2721071E+004  0.2273804E+02  0.7546771E-02  0.1695792E+00
         21   -1    0    0  503  502  0.00000000000E+00  0.00000000000E+00  0.62230900913E+01  0.62230900913E+01  0.00000000000E+00 0. -1.
         21   -1    0    0  501  503 -0.00000000000E+00 -0.00000000000E+00 -0.97242064954E+02  0.97242064954E+02  0.00000000000E+00 0.  1.
          2    1    1    2  501    0  0.21583360026E+02  0.71538025191E+01 -0.65251456936E+02  0.69099717458E+02  0.00000000000E+00 0. -1.
         -2    1    1    2    0  502 -0.21583360026E+02 -0.71538025191E+01 -0.25767517927E+02  0.34365437588E+02  0.00000000000E+00 0.  1.
<mgrwt>
<rscale>  2 0.22738037E+02</rscale>
<asrwt>0</asrwt>
<pdfrwt beam="1">  1       21 0.95739848E-03 0.22738037E+02</pdfrwt>
<pdfrwt beam="2">  1       21 0.14960318E-01 0.22738037E+02</pdfrwt>
<totfact> 0.10807966E+08</totfact>
</mgrwt>
</event>
<event>
 4    1  0.2721071E+004  0.4400118E+02  0.7546771E-02  0.1480675E+00
         21   -1    0    0  501  502  0.00000000000E+00  0.00000000000E+00  0.22470974854E+02  0.22470974854E+02  0.00000000000E+00 0. -1.
         21   -1    0    0  502  503 -0.00000000000E+00 -0.00000000000E+00 -0.19367789730E+03  0.19367789730E+03  0.00000000000E+00 0.  1.
          2    1    1    2  501    0  0.20488445337E+02  0.38940046539E+02 -0.50799079124E+01  0.44293442869E+02  0.00000000000E+00 0. -1.
         -2    1    1    2    0  503 -0.20488445337E+02 -0.38940046539E+02 -0.16612701453E+03  0.17185542928E+03  0.00000000000E+00 0.  1.
<mgrwt>
<rscale>  2 0.44001177E+02</rscale>
<asrwt>0</asrwt>
<pdfrwt beam="1">  1       21 0.34570731E-02 0.44001177E+02</pdfrwt>
<pdfrwt beam="2">  1       21 0.29796599E-01 0.44001177E+02</pdfrwt>
<totfact> 0.49205383E+06</totfact>
</mgrwt>
</event>
<event>
 4    1  0.2721071E+004  0.2077103E+02  0.7546771E-02  0.1730416E+00
         21   -1    0    0  501  502  0.00000000000E+00  0.00000000000E+00  0.47018520197E+01  0.47018520197E+01  0.00000000000E+00 0.  1.
         21   -1    0    0  502  503 -0.00000000000E+00 -0.00000000000E+00 -0.15693698803E+03  0.15693698803E+03  0.00000000000E+00 0. -1.
          2    1    1    2  501    0 -0.18452189535E+02  0.95369059952E+01 -0.24033545835E+02  0.31765503301E+02  0.00000000000E+00 0.  1.
         -2    1    1    2    0  503  0.18452189535E+02 -0.95369059952E+01 -0.12820159017E+03  0.12987333674E+03  0.00000000000E+00 0. -1.
<mgrwt>
<rscale>  2 0.20771035E+02</rscale>
<asrwt>0</asrwt>
<pdfrwt beam="1">  1       21 0.72336191E-03 0.20771035E+02</pdfrwt>
<pdfrwt beam="2">  1       21 0.24144150E-01 0.20771035E+02</pdfrwt>
<totfact> 0.69846598E+07</totfact>
</mgrwt>
</event>
<event>
 4    1  0.2721071E+004  0.3443599E+02  0.7546771E-02  0.1553667E+00
         21   -1    0    0  503  502  0.00000000000E+00  0.00000000000E+00  0.14567523733E+02  0.14567523733E+02  0.00000000000E+00 0. -1.
         21   -1    0    0  501  503 -0.00000000000E+00 -0.00000000000E+00 -0.84285805034E+02  0.84285805034E+02  0.00000000000E+00 0.  1.
          2    1    1    2  501    0  0.19195189878E+02 -0.28589889439E+02 -0.44000429808E+02  0.55873740844E+02  0.00000000000E+00 0.  1.
         -2    1    1    2    0  502 -0.19195189878E+02  0.28589889439E+02 -0.25717851493E+02  0.42979587923E+02  0.00000000000E+00 0. -1.
<mgrwt>
<rscale>  2 0.34435985E+02</rscale>
<asrwt>0</asrwt>
<pdfrwt beam="1">  1       21 0.22411575E-02 0.34435985E+02</pdfrwt>
<pdfrwt beam="2">  1       21 0.12967047E-01 0.34435985E+02</pdfrwt>
<totfact> 0.41459582E+07</totfact>
</mgrwt>
</event>
<event>
 4    1  0.2721071E+004  0.2905215E+02  0.7546771E-02  0.1608808E+00
         21   -1    0    0  503  502  0.00000000000E+00  0.00000000000E+00  0.22088737591E+03  0.22088737591E+03  0.00000000000E+00 0.  1.
         21   -1    0    0  501  503 -0.00000000000E+00 -0.00000000000E+00 -0.54862120817E+01  0.54862120817E+01  0.00000000000E+00 0. -1.
          2    1    1    2  501    0 -0.29008744529E+02 -0.15875623229E+01  0.45343722708E+02  0.53852398297E+02  0.00000000000E+00 0. -1.
         -2    1    1    2    0  502  0.29008744529E+02  0.15875623229E+01  0.17005744112E+03  0.17252118969E+03  0.00000000000E+00 0.  1.
<mgrwt>
<rscale>  2 0.29052153E+02</rscale>
<asrwt>0</asrwt>
<pdfrwt beam="1">  1       21 0.33982666E-01 0.29052153E+02</pdfrwt>
<pdfrwt beam="2">  1       21 0.84403280E-03 0.29052153E+02</pdfrwt>
<totfact> 0.32261882E+07</totfact>
</mgrwt>
</event>
<event>
 4    1  0.2721071E+004  0.2669449E+02  0.7546771E-02  0.1637792E+00
         21   -1    0    0  501  502  0.00000000000E+00  0.00000000000E+00  0.75828535181E+01  0.75828535181E+01  0.00000000000E+00 0.  1.
         21   -1    0    0  502  503 -0.00000000000E+00 -0.00000000000E+00 -0.21551184064E+03  0.21551184064E+03  0.00000000000E+00 0. -1.
          2    1    1    2  501    0  0.69806555037E+00  0.26685359619E+02 -0.20196455616E+02  0.33473758871E+02  0.00000000000E+00 0.  1.
         -2    1    1    2    0  503 -0.69806555037E+00 -0.26685359619E+02 -0.18773253151E+03  0.18962093529E+03  0.00000000000E+00 0. -1.
<mgrwt>
<rscale>  2 0.26694488E+02</rscale>
<asrwt>0</asrwt>
<pdfrwt beam="1">  1       21 0.11665929E-02 0.26694488E+02</pdfrwt>
<pdfrwt beam="2">  1       21 0.33155667E-01 0.26694488E+02</pdfrwt>
<totfact> 0.20363387E+07</totfact>
</mgrwt>
</event>
<event>
 4    1  0.2721071E+004  0.2630083E+02  0.7546771E-02  0.1642991E+00
         21   -1    0    0  503  502  0.00000000000E+00  0.00000000000E+00  0.11820200920E+03  0.11820200920E+03  0.00000000000E+00 0.  1.
         21   -1    0    0  501  503 -0.00000000000E+00 -0.00000000000E+00 -0.10348920740E+02  0.10348920740E+02  0.00000000000E+00 0. -1.
          2    1    1    2  501    0 -0.14237291968E+02 -0.22114097822E+02  0.11557475256E+02  0.28728192413E+02  0.00000000000E+00 0. -1.
         -2    1    1    2    0  502  0.14237291968E+02  0.22114097822E+02  0.96295613204E+02  0.99822737527E+02  0.00000000000E+00 0.  1.
<mgrwt>
<rscale>  2 0.26300833E+02</rscale>
<asrwt>0</asrwt>
<pdfrwt beam="1">  1       21 0.18184924E-01 0.26300833E+02</pdfrwt>
<pdfrwt beam="2">  1       21 0.15921417E-02 0.26300833E+02</pdfrwt>
<totfact> 0.37093372E+07</totfact>
</mgrwt>
</event>
<event>
 4    1  0.2721071E+004  0.2700429E+02  0.7546771E-02  0.1633777E+00
         21   -1    0    0  501  502  0.00000000000E+00  0.00000000000E+00  0.11681363629E+03  0.11681363629E+03  0.00000000000E+00 0. -1.
         21   -1    0    0  502  503 -0.00000000000E+00 -0.00000000000E+00 -0.21658938959E+02  0.21658938959E+02  0.00000000000E+00 0.  1.
          2    1    1    2  501    0 -0.26975583536E+02 -0.12448236563E+01  0.10598967425E+03  0.10937569538E+03  0.00000000000E+00 0. -1.
         -2    1    1    2    0  503  0.26975583536E+02  0.12448236563E+01 -0.10834976919E+02  0.29096879865E+02  0.00000000000E+00 0.  1.
<mgrwt>
<rscale>  2 0.27004290E+02</rscale>
<asrwt>0</asrwt>
<pdfrwt beam="1">  1       21 0.17971328E-01 0.27004290E+02</pdfrwt>
<pdfrwt beam="2">  1       21 0.33321445E-02 0.27004290E+02</pdfrwt>
<totfact> 0.12109106E+07</totfact>
</mgrwt>
</event>
<event>
 4    1  0.2721071E+004  0.2016921E+02  0.7546771E-02  0.1741984E+00
         21   -1    0    0  503  502  0.00000000000E+00  0.00000000000E+00  0.34239040177E+01  0.34239040177E+01  0.00000000000E+00 0. -1.
         21   -1    0    0  501  503 -0.00000000000E+00 -0.00000000000E+00 -0.19661321139E+03  0.19661321139E+03  0.00000000000E+00 0.  1.
          2    1    1    2  501    0  0.20166980724E+02  0.29965580482E+00 -0.15951203844E+03  0.16078211129E+03  0.00000000000E+00 0.  1.
         -2    1    1    2    0  502 -0.20166980724E+02 -0.29965580482E+00 -0.33677268929E+02  0.39255004109E+02  0.00000000000E+00 0. -1.
<mgrwt>
<rscale>  2 0.20169207E+02</rscale>
<asrwt>0</asrwt>
<pdfrwt beam="1">  1       21 0.52675445E-03 0.20169207E+02</pdfrwt>
<pdfrwt beam="2">  1       21 0.30248187E-01 0.20169207E+02</pdfrwt>
<totfact> 0.73958873E+07</totfact>
</mgrwt>
</event>
<event>
 4    1  0.2721071E+004  0.2646590E+02  0.7546771E-02  0.1640797E+00
         21   -1    0    0  501  502  0.00000000000E+00  0.00000000000E+00  0.78485024271E+02  0.78485024271E+02  0.00000000000E+00 0.  1.
         21   -1    0    0  502  503 -0.00000000000E+00 -0.00000000000E+00 -0.89802799635E+01  0.89802799635E+01  0.00000000000E+00 0. -1.
          2    1    1    2  501    0 -0.73664870219E+01 -0.25420049206E+02  0.38197298722E+02  0.46470180357E+02  0.00000000000E+00 0. -1.
         -2    1    1    2    0  503  0.73664870219E+01  0.25420049206E+02  0.31307445586E+02  0.40995123878E+02  0.00000000000E+00 0.  1.
<mgrwt>
<rscale>  2 0.26465903E+02</rscale>
<asrwt>0</asrwt>
<pdfrwt beam="1">  1       21 0.12074619E-01 0.26465903E+02</pdfrwt>
<pdfrwt beam="2">  1       21 0.13815816E-02 0.26465903E+02</pdfrwt>
<totfact> 0.92967386E+07</totfact>
</mgrwt>
</event>
<event>
 4    1  0.2721071E+004  0.3718574E+02  0.7546771E-02  0.1530005E+00
         21   -1    0    0  503  502  0.00000000000E+00  0.00000000000E+00  0.14973254921E+03  0.14973254921E+03  0.00000000000E+00 0. -1.
         21   -1    0    0  501  503 -0.00000000000E+00 -0.00000000000E+00 -0.14703626742E+02  0.14703626742E+02  0.00000000000E+00 0.  1.
          2    1    1    2  501    0 -0.78269048864E+01 -0.36352696682E+02  0.17373278995E+02  0.41043998577E+02  0.00000000000E+00 0.  1.
         -2    1    1    2    0  502  0.78269048864E+01  0.36352696682E+02  0.11765564347E+03  0.12339217737E+03  0.00000000000E+00 0. -1.
<mgrwt>
<rscale>  2 0.37185736E+02</rscale>
<asrwt>0</asrwt>
<pdfrwt beam="1">  1       21 0.23035776E-01 0.37185736E+02</pdfrwt>
<pdfrwt beam="2">  1       21 0.22620965E-02 0.37185736E+02</pdfrwt>
<totfact> 0.15112170E+07</totfact>
</mgrwt>
</event>
<event>
 4    1  0.2721071E+004  0.2608077E+02  0.7546771E-02  0.1645947E+00
         21   -1    0    0  503  502  0.00000000000E+00  0.00000000000E+00  0.38896909541E+03  0.38896909541E+03  0.00000000000E+00 0. -1.
         21   -1    0    0  501  503 -0.00000000000E+00 -0.00000000000E+00 -0.26305190383E+01  0.26305190383E+01  0.00000000000E+00 0.  1.
          2    1    1    2  501    0  0.13023283831E+02  0.22596470154E+02  0.79806358750E+02  0.83959879003E+02  0.00000000000E+00 0.  1.
         -2    1    1    2    0  502 -0.13023283831E+02 -0.22596470154E+02  0.30653221762E+03  0.30763973544E+03  0.00000000000E+00 0. -1.
<mgrwt>
<rscale>  2 0.26080767E+02</rscale>
<asrwt>0</asrwt>
<pdfrwt beam="1">  1       21 0.59841354E-01 0.26080767E+02</pdfrwt>
<pdfrwt beam="2">  1       21 0.40469554E-03 0.26080767E+02</pdfrwt>
<totfact> 0.31628800E+07</totfact>
</mgrwt>
</event>
<event>
 4    1  0.2721071E+004  0.2654318E+02  0.7546771E-02  0.1639777E+00
         21   -1    0    0  501  502  0.00000000000E+00  0.00000000000E+00  0.16672132938E+01  0.16672132938E+01  0.00000000000E+00 0. -1.
         21   -1    0    0  502  503 -0.00000000000E+00 -0.00000000000E+00 -0.80450191533E+03  0.80450191533E+03  0.00000000000E+00 0.  1.
          2    1    1    2  501    0 -0.26480586050E+02 -0.18218282539E+01 -0.12369126367E+03  0.12650719032E+03  0.00000000000E+00 0. -1.
         -2    1    1    2    0  503  0.26480586050E+02  0.18218282539E+01 -0.67914343837E+03  0.67966193830E+03  0.00000000000E+00 0.  1.
<mgrwt>
<rscale>  2 0.26543182E+02</rscale>
<asrwt>0</asrwt>
<pdfrwt beam="1">  1       21 0.25649434E-03 0.26543182E+02</pdfrwt>
<pdfrwt beam="2">  1       21 0.12376953E+00 0.26543182E+02</pdfrwt>
<totfact> 0.13041758E+07</totfact>
</mgrwt>
</event>
<event>
 4    1  0.2721071E+004  0.2364601E+02  0.7546771E-02  0.1681248E+00
         21   -1    0    0  501  502  0.00000000000E+00  0.00000000000E+00  0.10027786770E+03  0.10027786770E+03  0.00000000000E+00 0.  1.
         21   -1    0    0  502  503 -0.00000000000E+00 -0.00000000000E+00 -0.57676354881E+01  0.57676354881E+01  0.00000000000E+00 0. -1.
          2    1    1    2  501    0  0.72944371209E+01  0.22492775453E+02  0.56924033962E+02  0.61639917286E+02  0.00000000000E+00 0. -1.
         -2    1    1    2    0  503 -0.72944371209E+01 -0.22492775453E+02  0.37586198254E+02  0.44405585907E+02  0.00000000000E+00 0.  1.
<mgrwt>
<rscale>  2 0.23646009E+02</rscale>
<asrwt>0</asrwt>
<pdfrwt beam="1">  1       21 0.15427363E-01 0.23646009E+02</pdfrwt>
<pdfrwt beam="2">  1       21 0.88732861E-03 0.23646009E+02</pdfrwt>
<totfact> 0.11622079E+08</totfact>
</mgrwt>
</event>
<event>
 4    1  0.2721071E+004  0.3750561E+02  0.7546771E-02  0.1527413E+00
         21   -1    0    0  501  502  0.00000000000E+00  0.00000000000E+00  0.78746754343E+02  0.78746754343E+02  0.00000000000E+00 0. -1.
         21   -1    0    0  502  503 -0.00000000000E+00 -0.00000000000E+00 -0.18573376975E+02  0.18573376975E+02  0.00000000000E+00 0.  1.
          2    1    1    2  501    0  0.11899617897E+02  0.35567825175E+02  0.20571826467E+02  0.42776993092E+02  0.00000000000E+00 0.  1.
         -2    1    1    2    0  503 -0.11899617897E+02 -0.35567825175E+02  0.39601550901E+02  0.54543138226E+02  0.00000000000E+00 0. -1.
<mgrwt>
<rscale>  2 0.37505614E+02</rscale>
<asrwt>0</asrwt>
<pdfrwt beam="1">  1       21 0.12114885E-01 0.37505614E+02</pdfrwt>
<pdfrwt beam="2">  1       21 0.28574427E-02 0.37505614E+02</pdfrwt>
<totfact> 0.32303155E+07</totfact>
</mgrwt>
</event>
<event>
 4    1  0.2721071E+004  0.3372913E+02  0.7546771E-02  0.1560185E+00
         21   -1    0    0  503  502  0.00000000000E+00  0.00000000000E+00  0.20080409760E+01  0.20080409760E+01  0.00000000000E+00 0.  1.
         21   -1    0    0  501  503 -0.00000000000E+00 -0.00000000000E+00 -0.56796071149E+03  0.56796071149E+03  0.00000000000E+00 0. -1.
          2    1    1    2  501    0  0.30496717828E+02  0.14408491861E+02 -0.29718232058E+03  0.29909026414E+03  0.00000000000E+00 0.  1.
         -2    1    1    2    0  502 -0.30496717828E+02 -0.14408491861E+02 -0.26877034993E+03  0.27087848832E+03  0.00000000000E+00 0. -1.
<mgrwt>
<rscale>  2 0.33729133E+02</rscale>
<asrwt>0</asrwt>
<pdfrwt beam="1">  1       21 0.30892916E-03 0.33729133E+02</pdfrwt>
<pdfrwt beam="2">  1       21 0.87378633E-01 0.33729133E+02</pdfrwt>
<totfact> 0.22382963E+07</totfact>
</mgrwt>
</event>
<event>
 4    1  0.2721071E+004  0.2923929E+02  0.7546771E-02  0.1606653E+00
         21   -1    0    0  503  502  0.00000000000E+00  0.00000000000E+00  0.21953403408E+02  0.21953403408E+02  0.00000000000E+00 0. -1.
         21   -1    0    0  501  503 -0.00000000000E+00 -0.00000000000E+00 -0.46937076128E+02  0.46937076128E+02  0.00000000000E+00 0.  1.
          2    1    1    2  501    0 -0.20075965159E+02  0.21257749162E+02 -0.26706915707E+02  0.39600449784E+02  0.00000000000E+00 0.  1.
         -2    1    1    2    0  502  0.20075965159E+02 -0.21257749162E+02  0.17232429871E+01  0.29290029752E+02  0.00000000000E+00 0. -1.
<mgrwt>
<rscale>  2 0.29239293E+02</rscale>
<asrwt>0</asrwt>
<pdfrwt beam="1">  1       21 0.33774467E-02 0.29239293E+02</pdfrwt>
<pdfrwt beam="2">  1       21 0.72210886E-02 0.29239293E+02</pdfrwt>
<totfact> 0.55978544E+07</totfact>
</mgrwt>
</event>
<event>
 4    1  0.2721071E+004  0.2046605E+02  0.7546771E-02  0.1736216E+00
         21   -1    0    0  503  502  0.00000000000E+00  0.00000000000E+00  0.65222407325E+03  0.65222407325E+03  0.00000000000E+00 0.  1.
         21   -1    0    0  501  503 -0.00000000000E+00 -0.00000000000E+00 -0.84681747700E+00  0.84681747700E+00  0.00000000000E+00 0. -1.
          2    1    1    2  501    0  0.20112760131E+02  0.37862869105E+01  0.16517736799E+03  0.16644044576E+03  0.00000000000E+00 0.  1.
         -2    1    1    2    0  502 -0.20112760131E+02 -0.37862869105E+01  0.48619988778E+03  0.48663044497E+03  0.00000000000E+00 0. -1.
<mgrwt>
<rscale>  2 0.20466047E+02</rscale>
<asrwt>0</asrwt>
<pdfrwt beam="1">  1       21 0.10034176E+00 0.20466047E+02</pdfrwt>
<pdfrwt beam="2">  1       21 0.13028013E-03 0.20466047E+02</pdfrwt>
<totfact> 0.52671544E+07</totfact>
</mgrwt>
</event>
<event>
 4    1  0.2721071E+004  0.2178592E+02  0.7546771E-02  0.1711981E+00
         21   -1    0    0  503  502  0.00000000000E+00  0.00000000000E+00  0.33716451720E+01  0.33716451720E+01  0.00000000000E+00 0. -1.
         21   -1    0    0  501  503 -0.00000000000E+00 -0.00000000000E+00 -0.16955113433E+03  0.16955113433E+03  0.00000000000E+00 0.  1.
          2    1    1    2  501    0  0.21770450581E+01 -0.21676871330E+02 -0.11871240053E+03  0.12069490592E+03  0.00000000000E+00 0. -1.
         -2    1    1    2    0  502 -0.21770450581E+01  0.21676871330E+02 -0.47467088625E+02  0.52227873577E+02  0.00000000000E+00 0.  1.
<mgrwt>
<rscale>  2 0.21785919E+02</rscale>
<asrwt>0</asrwt>
<pdfrwt beam="1">  1       21 0.51871455E-03 0.21785919E+02</pdfrwt>
<pdfrwt beam="2">  1       21 0.26084795E-01 0.21785919E+02</pdfrwt>
<totfact> 0.10083893E+08</totfact>
</mgrwt>
</event>
<event>
 4    1  0.2721071E+004  0.2940720E+02  0.7546771E-02  0.1604735E+00
         21   -1    0    0  501  502  0.00000000000E+00  0.00000000000E+00  0.29039457234E+02  0.29039457234E+02  0.00000000000E+00 0.  1.
         21   -1    0    0  502  503 -0.00000000000E+00 -0.00000000000E+00 -0.10076125089E+03  0.10076125089E+03  0.00000000000E+00 0. -1.
          2    1    1    2  501    0 -0.23369130300E+02  0.17851251713E+02  0.18611105155E+02  0.34801676307E+02  0.00000000000E+00 0.  1.
         -2    1    1    2    0  503  0.23369130300E+02 -0.17851251713E+02 -0.90332898812E+02  0.94999031819E+02  0.00000000000E+00 0. -1.
<mgrwt>
<rscale>  2 0.29407200E+02</rscale>
<asrwt>0</asrwt>
<pdfrwt beam="1">  1       21 0.44676088E-02 0.29407200E+02</pdfrwt>
<pdfrwt beam="2">  1       21 0.15501731E-01 0.29407200E+02</pdfrwt>
<totfact> 0.99735112E+06</totfact>
</mgrwt>
</event>
<event>
 4    1  0.2721071E+004  0.9404412E+02  0.7546771E-02  0.1293344E+00
         21   -1    0    0  503  502  0.00000000000E+00  0.00000000000E+00  0.59595281786E+03  0.59595281786E+03  0.00000000000E+00 0. -1.
         21   -1    0    0  501  503 -0.00000000000E+00 -0.00000000000E+00 -0.16477061734E+02  0.16477061734E+02  0.00000000000E+00 0.  1.
          2    1    1    2  501    0  0.25289759622E+02  0.90579938474E+02  0.19323517875E+03  0.21490493597E+03  0.00000000000E+00 0.  1.
         -2    1    1    2    0  502 -0.25289759622E+02 -0.90579938474E+02  0.38624057738E+03  0.39752494363E+03  0.00000000000E+00 0. -1.
<mgrwt>
<rscale>  2 0.94044124E+02</rscale>
<asrwt>0</asrwt>
<pdfrwt beam="1">  1       21 0.91685032E-01 0.94044124E+02</pdfrwt>
<pdfrwt beam="2">  1       21 0.25349330E-02 0.94044124E+02</pdfrwt>
<totfact> 0.84627986E+05</totfact>
</mgrwt>
</event>
<event>
 4    1  0.2721071E+004  0.2096228E+02  0.7546771E-02  0.1726842E+00
         21   -1    0    0  501  502  0.00000000000E+00  0.00000000000E+00  0.52340603524E+01  0.52340603524E+01  0.00000000000E+00 0.  1.
         21   -1    0    0  502  503 -0.00000000000E+00 -0.00000000000E+00 -0.12445334186E+03  0.12445334186E+03  0.00000000000E+00 0. -1.
          2    1    1    2  501    0  0.17212922881E+02 -0.11963804146E+02 -0.22619026052E+02  0.30838898542E+02  0.00000000000E+00 0.  1.
         -2    1    1    2    0  503 -0.17212922881E+02  0.11963804146E+02 -0.96600255453E+02  0.98848503668E+02  0.00000000000E+00 0. -1.
<mgrwt>
<rscale>  2 0.20962283E+02</rscale>
<asrwt>0</asrwt>
<pdfrwt beam="1">  1       21 0.80524000E-03 0.20962283E+02</pdfrwt>
<pdfrwt beam="2">  1       21 0.19146669E-01 0.20962283E+02</pdfrwt>
<totfact> 0.89586726E+07</totfact>
</mgrwt>
</event>
<event>
 4    1  0.2721071E+004  0.2306955E+02  0.7546771E-02  0.1690385E+00
         21   -1    0    0  503  502  0.00000000000E+00  0.00000000000E+00  0.38981610102E+02  0.38981610102E+02  0.00000000000E+00 0.  1.
         21   -1    0    0  501  503 -0.00000000000E+00 -0.00000000000E+00 -0.13652969693E+02  0.13652969693E+02  0.00000000000E+00 0. -1.
          2    1    1    2  501    0 -0.90349146102E+01 -0.21226736262E+02  0.12782470843E+02  0.26374145961E+02  0.00000000000E+00 0. -1.
         -2    1    1    2    0  502  0.90349146102E+01  0.21226736262E+02  0.12546169566E+02  0.26260433834E+02  0.00000000000E+00 0.  1.
<mgrwt>
<rscale>  2 0.23069547E+02</rscale>
<asrwt>0</asrwt>
<pdfrwt beam="1">  1       21 0.59971707E-02 0.23069547E+02</pdfrwt>
<pdfrwt beam="2">  1       21 0.21004569E-02 0.23069547E+02</pdfrwt>
<totfact> 0.14888110E+08</totfact>
</mgrwt>
</event>
<event>
 4    1  0.2721071E+004  0.2520393E+02  0.7546771E-02  0.1658090E+00
         21   -1    0    0  503  502  0.00000000000E+00  0.00000000000E+00  0.27452214925E+02  0.27452214925E+02  0.00000000000E+00 0.  1.
         21   -1    0    0  501  503 -0.00000000000E+00 -0.00000000000E+00 -0.38841802354E+02  0.38841802354E+02  0.00000000000E+00 0. -1.
          2    1    1    2  501    0 -0.24452643039E+02 -0.61079010905E+01 -0.26770030049E+02  0.36767821749E+02  0.00000000000E+00 0.  1.
         -2    1    1    2    0  502  0.24452643039E+02  0.61079010905E+01  0.15380442619E+02  0.29526195530E+02  0.00000000000E+00 0. -1.
<mgrwt>
<rscale>  2 0.25203932E+02</rscale>
<asrwt>0</asrwt>
<pdfrwt beam="1">  1       21 0.42234177E-02 0.25203932E+02</pdfrwt>
<pdfrwt beam="2">  1       21 0.59756619E-02 0.25203932E+02</pdfrwt>
<totfact> 0.51597899E+07</totfact>
</mgrwt>
</event>
<event>
 4    1  0.2721071E+004  0.2234967E+02  0.7546771E-02  0.1702274E+00
         21   -1    0    0  503  502  0.00000000000E+00  0.00000000000E+00  0.10942504125E+02  0.10942504125E+02  0.00000000000E+00 0.  1.
         21   -1    0    0  501  503 -0.00000000000E+00 -0.00000000000E+00 -0.12265090536E+03  0.12265090536E+03  0.00000000000E+00 0. -1.
          2    1    1    2  501    0  0.16217533841E+02  0.15378530912E+02 -0.10878057388E+03  0.11105278416E+03  0.00000000000E+00 0. -1.
         -2    1    1    2    0  502 -0.16217533841E+02 -0.15378530912E+02 -0.29278273568E+01  0.22540625322E+02  0.00000000000E+00 0.  1.
<mgrwt>
<rscale>  2 0.22349667E+02</rscale>
<asrwt>0</asrwt>
<pdfrwt beam="1">  1       21 0.16834621E-02 0.22349667E+02</pdfrwt>
<pdfrwt beam="2">  1       21 0.18869371E-01 0.22349667E+02</pdfrwt>
<totfact> 0.30777796E+07</totfact>
</mgrwt>
</event>
<event>
 4    1  0.2721071E+004  0.4155823E+02  0.7546771E-02  0.1497048E+00
         21   -1    0    0  501  502  0.00000000000E+00  0.00000000000E+00  0.74740500702E+02  0.74740500702E+02  0.00000000000E+00 0.  1.
         21   -1    0    0  502  503 -0.00000000000E+00 -0.00000000000E+00 -0.27066878523E+02  0.27066878523E+02  0.00000000000E+00 0. -1.
          2    1    1    2  501    0  0.39127164464E+02  0.14005415550E+02  0.43305137155E+02  0.60020176338E+02  0.00000000000E+00 0.  1.
         -2    1    1    2    0  503 -0.39127164464E+02 -0.14005415550E+02  0.43684850240E+01  0.41787202887E+02  0.00000000000E+00 0. -1.
<mgrwt>
<rscale>  2 0.41558232E+02</rscale>
<asrwt>0</asrwt>
<pdfrwt beam="1">  1       21 0.11498538E-01 0.41558232E+02</pdfrwt>
<pdfrwt beam="2">  1       21 0.41641352E-02 0.41558232E+02</pdfrwt>
<totfact> 0.19696673E+07</totfact>
</mgrwt>
</event>
<event>
 4    1  0.2721071E+004  0.2271204E+02  0.7546771E-02  0.1696221E+00
         21   -1    0    0  501  502  0.00000000000E+00  0.00000000000E+00  0.13123901777E+03  0.13123901777E+03  0.00000000000E+00 0.  1.
         21   -1    0    0  502  503 -0.00000000000E+00 -0.00000000000E+00 -0.10181504872E+02  0.10181504872E+02  0.00000000000E+00 0. -1.
          2    1    1    2  501    0  0.20147400818E+02  0.10484230333E+02  0.11593400086E+03  0.11813775603E+03  0.00000000000E+00 0.  1.
         -2    1    1    2    0  503 -0.20147400818E+02 -0.10484230333E+02  0.51235120398E+01  0.23282766610E+02  0.00000000000E+00 0. -1.
<mgrwt>
<rscale>  2 0.22712042E+02</rscale>
<asrwt>0</asrwt>
<pdfrwt beam="1">  1       21 0.20190617E-01 0.22712042E+02</pdfrwt>
<pdfrwt beam="2">  1       21 0.15663855E-02 0.22712042E+02</pdfrwt>
<totfact> 0.30649528E+07</totfact>
</mgrwt>
</event>
<event>
 4    1  0.2721071E+004  0.2402224E+02  0.7546771E-02  0.1675456E+00
         21   -1    0    0  503  502  0.00000000000E+00  0.00000000000E+00  0.32794055505E+02  0.32794055505E+02  0.00000000000E+00 0. -1.
         21   -1    0    0  501  503 -0.00000000000E+00 -0.00000000000E+00 -0.17680054968E+02  0.17680054968E+02  0.00000000000E+00 0.  1.
          2    1    1    2  501    0  0.18501632931E+02  0.15321800689E+02  0.58244102704E+01  0.24718247359E+02  0.00000000000E+00 0. -1.
         -2    1    1    2    0  502 -0.18501632931E+02 -0.15321800689E+02  0.92895902662E+01  0.25755863115E+02  0.00000000000E+00 0.  1.
<mgrwt>
<rscale>  2 0.24022240E+02</rscale>
<asrwt>0</asrwt>
<pdfrwt beam="1">  1       21 0.50452393E-02 0.24022240E+02</pdfrwt>
<pdfrwt beam="2">  1       21 0.27200085E-02 0.24022240E+02</pdfrwt>
<totfact> 0.13328881E+08</totfact>
</mgrwt>
</event>
<event>
 4    1  0.2721071E+004  0.2116235E+02  0.7546771E-02  0.1723155E+00
         21   -1    0    0  501  502  0.00000000000E+00  0.00000000000E+00  0.39380957170E+02  0.39380957170E+02  0.00000000000E+00 0.  1.
         21   -1    0    0  502  503 -0.00000000000E+00 -0.00000000000E+00 -0.12446314838E+02  0.12446314838E+02  0.00000000000E+00 0. -1.
          2    1    1    2  501    0 -0.19077485144E+02 -0.91594108424E+01  0.21080185281E+02  0.29870042817E+02  0.00000000000E+00 0.  1.
         -2    1    1    2    0  503  0.19077485144E+02  0.91594108424E+01  0.58544570506E+01  0.21957229191E+02  0.00000000000E+00 0. -1.
<mgrwt>
<rscale>  2 0.21162354E+02</rscale>
<asrwt>0</asrwt>
<pdfrwt beam="1">  1       21 0.60586087E-02 0.21162354E+02</pdfrwt>
<pdfrwt beam="2">  1       21 0.19148177E-02 0.21162354E+02</pdfrwt>
<totfact> 0.16435769E+08</totfact>
</mgrwt>
</event>
<event>
 4    1  0.2721071E+004  0.2413037E+02  0.7546771E-02  0.1673816E+00
         21   -1    0    0  503  502  0.00000000000E+00  0.00000000000E+00  0.12376668613E+03  0.12376668613E+03  0.00000000000E+00 0. -1.
         21   -1    0    0  501  503 -0.00000000000E+00 -0.00000000000E+00 -0.52515864031E+01  0.52515864031E+01  0.00000000000E+00 0.  1.
          2    1    1    2  501    0 -0.94290477640E+01 -0.22211884480E+02  0.38438648285E+02  0.45385068424E+02  0.00000000000E+00 0.  1.
         -2    1    1    2    0  502  0.94290477640E+01  0.22211884480E+02  0.80076451438E+02  0.83633204105E+02  0.00000000000E+00 0. -1.
<mgrwt>
<rscale>  2 0.24130370E+02</rscale>
<asrwt>0</asrwt>
<pdfrwt beam="1">  1       21 0.19041026E-01 0.24130370E+02</pdfrwt>
<pdfrwt beam="2">  1       21 0.80793646E-03 0.24130370E+02</pdfrwt>
<totfact> 0.93560841E+07</totfact>
</mgrwt>
</event>
<event>
 4    1  0.2721071E+004  0.2018167E+02  0.7546771E-02  0.1741739E+00
         21   -1    0    0  503  502  0.00000000000E+00  0.00000000000E+00  0.28538156765E+02  0.28538156765E+02  0.00000000000E+00 0. -1.
         21   -1    0    0  501  503 -0.00000000000E+00 -0.00000000000E+00 -0.28124085225E+02  0.28124085225E+02  0.00000000000E+00 0.  1.
          2    1    1    2  501    0 -0.12336156409E+02  0.15972450687E+02 -0.19675889791E+02  0.28185822233E+02  0.00000000000E+00 0.  1.
         -2    1    1    2    0  502  0.12336156409E+02 -0.15972450687E+02  0.20089961331E+02  0.28476419757E+02  0.00000000000E+00 0. -1.
<mgrwt>
<rscale>  2 0.20181673E+02</rscale>
<asrwt>0</asrwt>
<pdfrwt beam="1">  1       21 0.43904857E-02 0.20181673E+02</pdfrwt>
<pdfrwt beam="2">  1       21 0.43267823E-02 0.20181673E+02</pdfrwt>
<totfact> 0.76432004E+07</totfact>
</mgrwt>
</event>
<event>
 4    1  0.2721071E+004  0.4385610E+02  0.7546771E-02  0.1481612E+00
         21   -1    0    0  503  502  0.00000000000E+00  0.00000000000E+00  0.93132322990E+01  0.93132322990E+01  0.00000000000E+00 0. -1.
         21   -1    0    0  501  503 -0.00000000000E+00 -0.00000000000E+00 -0.29133171642E+03  0.29133171642E+03  0.00000000000E+00 0.  1.
          2    1    1    2  501    0  0.43796992258E+02  0.22761377819E+01 -0.22211675648E+03  0.22640497088E+03  0.00000000000E+00 0.  1.
         -2    1    1    2    0  502 -0.43796992258E+02 -0.22761377819E+01 -0.59901727649E+02  0.74239977838E+02  0.00000000000E+00 0. -1.
<mgrwt>
<rscale>  2 0.43856098E+02</rscale>
<asrwt>0</asrwt>
<pdfrwt beam="1">  1       21 0.14328049E-02 0.43856098E+02</pdfrwt>
<pdfrwt beam="2">  1       21 0.44820266E-01 0.43856098E+02</pdfrwt>
<totfact> 0.90236333E+06</totfact>
</mgrwt>
</event>
<event>
 4    1  0.2721071E+004  0.2956117E+02  0.7546771E-02  0.1602991E+00
         21   -1    0    0  503  502  0.00000000000E+00  0.00000000000E+00  0.91900412633E+01  0.91900412633E+01  0.00000000000E+00 0.  1.
         21   -1    0    0  501  503 -0.00000000000E+00 -0.00000000000E+00 -0.13517324127E+03  0.13517324127E+03  0.00000000000E+00 0. -1.
          2    1    1    2  501    0 -0.66505331762E+01  0.28803357911E+02 -0.10229891861E+03  0.10648442031E+03  0.00000000000E+00 0. -1.
         -2    1    1    2    0  502  0.66505331762E+01 -0.28803357911E+02 -0.23684281394E+02  0.37878862227E+02  0.00000000000E+00 0.  1.
<mgrwt>
<rscale>  2 0.29561174E+02</rscale>
<asrwt>0</asrwt>
<pdfrwt beam="1">  1       21 0.14138525E-02 0.29561174E+02</pdfrwt>
<pdfrwt beam="2">  1       21 0.20795883E-01 0.29561174E+02</pdfrwt>
<totfact> 0.36056906E+07</totfact>
</mgrwt>
</event>
<event>
 4    1  0.2721071E+004  0.2027833E+02  0.7546771E-02  0.1739849E+00
         21   -1    0    0  503  502  0.00000000000E+00  0.00000000000E+00  0.10801168506E+03  0.10801168506E+03  0.00000000000E+00 0. -1.
         21   -1    0    0  501  503 -0.00000000000E+00 -0.00000000000E+00 -0.50037255924E+01  0.50037255924E+01  0.00000000000E+00 0.  1.
          2    1    1    2  501    0  0.14027436113E+02 -0.14643821876E+02  0.23870128056E+02  0.31320815706E+02  0.00000000000E+00 0.  1.
         -2    1    1    2    0  502 -0.14027436113E+02  0.14643821876E+02  0.79137831411E+02  0.81694594946E+02  0.00000000000E+00 0. -1.
<mgrwt>
<rscale>  2 0.20278325E+02</rscale>
<asrwt>0</asrwt>
<pdfrwt beam="1">  1       21 0.16617181E-01 0.20278325E+02</pdfrwt>
<pdfrwt beam="2">  1       21 0.76980402E-03 0.20278325E+02</pdfrwt>
<totfact> 0.12103858E+08</totfact>
</mgrwt>
</event>
<event>
 4    1  0.2721071E+004  0.2183426E+02  0.7546771E-02  0.1711134E+00
         21   -1    0    0  501  502  0.00000000000E+00  0.00000000000E+00  0.11346131418E+03  0.11346131418E+03  0.00000000000E+00 0.  1.
         21   -1    0    0  502  503 -0.00000000000E+00 -0.00000000000E+00 -0.11098358918E+02  0.11098358918E+02  0.00000000000E+00 0. -1.
          2    1    1    2  501    0 -0.13212442769E+02  0.17382932355E+02  0.10027635562E+03  0.10262593472E+03  0.00000000000E+00 0.  1.
         -2    1    1    2    0  503  0.13212442769E+02 -0.17382932355E+02  0.20865996448E+01  0.21933738378E+02  0.00000000000E+00 0. -1.
<mgrwt>
<rscale>  2 0.21834262E+02</rscale>
<asrwt>0</asrwt>
<pdfrwt beam="1">  1       21 0.17455586E-01 0.21834262E+02</pdfrwt>
<pdfrwt beam="2">  1       21 0.17074399E-02 0.21834262E+02</pdfrwt>
<totfact> 0.34264368E+07</totfact>
</mgrwt>
</event>
<event>
 4    1  0.2721071E+004  0.2756028E+02  0.7546771E-02  0.1626736E+00
         21   -1    0    0  501  502  0.00000000000E+00  0.00000000000E+00  0.31357096546E+02  0.31357096546E+02  0.00000000000E+00 0.  1.
         21   -1    0    0  502  503 -0.00000000000E+00 -0.00000000000E+00 -0.49970698672E+02  0.49970698672E+02  0.00000000000E+00 0. -1.
          2    1    1    2  501    0 -0.16074164484E+02 -0.22387274414E+02  0.19882179177E+02  0.33983376353E+02  0.00000000000E+00 0.  1.
         -2    1    1    2    0  503  0.16074164484E+02  0.22387274414E+02 -0.38495781303E+02  0.47344418865E+02  0.00000000000E+00 0. -1.
<mgrwt>
<rscale>  2 0.27560276E+02</rscale>
<asrwt>0</asrwt>
<pdfrwt beam="1">  1       21 0.48241687E-02 0.27560276E+02</pdfrwt>
<pdfrwt beam="2">  1       21 0.76877998E-02 0.27560276E+02</pdfrwt>
<totfact> 0.28286730E+07</totfact>
</mgrwt>
</event>
<event>
 4    1  0.2721071E+004  0.2553959E+02  0.7546771E-02  0.1653370E+00
         21   -1    0    0  503  502  0.00000000000E+00  0.00000000000E+00  0.29634719980E+02  0.29634719980E+02  0.00000000000E+00 0. -1.
         21   -1    0    0  501  503 -0.00000000000E+00 -0.00000000000E+00 -0.37062572873E+02  0.37062572873E+02  0.00000000000E+00 0.  1.
          2    1    1    2  501    0 -0.12238824545E+02  0.22416102553E+02 -0.24966463765E+02  0.35715469937E+02  0.00000000000E+00 0.  1.
         -2    1    1    2    0  502  0.12238824545E+02 -0.22416102553E+02  0.17538610871E+02  0.30981822916E+02  0.00000000000E+00 0. -1.
<mgrwt>
<rscale>  2 0.25539587E+02</rscale>
<asrwt>0</asrwt>
<pdfrwt beam="1">  1       21 0.45591877E-02 0.25539587E+02</pdfrwt>
<pdfrwt beam="2">  1       21 0.57019343E-02 0.25539587E+02</pdfrwt>
<totfact> 0.49433383E+07</totfact>
</mgrwt>
</event>
<event>
 4    1  0.2721071E+004  0.2109664E+02  0.7546771E-02  0.1724360E+00
         21   -1    0    0  503  502  0.00000000000E+00  0.00000000000E+00  0.63839631518E+03  0.63839631518E+03  0.00000000000E+00 0.  1.
         21   -1    0    0  501  503 -0.00000000000E+00 -0.00000000000E+00 -0.79285015256E+00  0.79285015256E+00  0.00000000000E+00 0. -1.
          2    1    1    2  501    0 -0.55509958746E+01  0.20353244802E+02  0.20777587638E+03  0.20884415945E+03  0.00000000000E+00 0.  1.
         -2    1    1    2    0  502  0.55509958746E+01 -0.20353244802E+02  0.42982758864E+03  0.43034500588E+03  0.00000000000E+00 0. -1.
<mgrwt>
<rscale>  2 0.21096638E+02</rscale>
<asrwt>0</asrwt>
<pdfrwt beam="1">  1       21 0.98214407E-01 0.21096638E+02</pdfrwt>
<pdfrwt beam="2">  1       21 0.12197746E-03 0.21096638E+02</pdfrwt>
<totfact> 0.61045857E+07</totfact>
</mgrwt>
</event>
<event>
 4    1  0.2721071E+004  0.2222949E+02  0.7546771E-02  0.1704313E+00
         21   -1    0    0  501  502  0.00000000000E+00  0.00000000000E+00  0.15150282477E+03  0.15150282477E+03  0.00000000000E+00 0. -1.
         21   -1    0    0  502  503 -0.00000000000E+00 -0.00000000000E+00 -0.32864002735E+01  0.32864002735E+01  0.00000000000E+00 0.  1.
          2    1    1    2  501    0 -0.12476635140E+02  0.18397934687E+02  0.80823565591E+02  0.83824812437E+02  0.00000000000E+00 0.  1.
         -2    1    1    2    0  503  0.12476635140E+02 -0.18397934687E+02  0.67392858906E+02  0.70964412607E+02  0.00000000000E+00 0. -1.
<mgrwt>
<rscale>  2 0.22229494E+02</rscale>
<asrwt>0</asrwt>
<pdfrwt beam="1">  1       21 0.23308121E-01 0.22229494E+02</pdfrwt>
<pdfrwt beam="2">  1       21 0.50560016E-03 0.22229494E+02</pdfrwt>
<totfact> 0.12862698E+08</totfact>
</mgrwt>
</event>
<event>
 4    1  0.2721071E+004  0.2358309E+02  0.7546771E-02  0.1682229E+00
         21   -1    0    0  501  502  0.00000000000E+00  0.00000000000E+00  0.85197220312E+02  0.85197220312E+02  0.00000000000E+00 0. -1.
         21   -1    0    0  502  503 -0.00000000000E+00 -0.00000000000E+00 -0.67152493434E+01  0.67152493434E+01  0.00000000000E+00 0.  1.
          2    1    1    2  501    0  0.21097232540E+02  0.10538925196E+02  0.46916287977E+02  0.52510001359E+02  0.00000000000E+00 0.  1.
         -2    1    1    2    0  503 -0.21097232540E+02 -0.10538925196E+02  0.31565682991E+02  0.39402468296E+02  0.00000000000E+00 0. -1.
<mgrwt>
<rscale>  2 0.23583091E+02</rscale>
<asrwt>0</asrwt>
<pdfrwt beam="1">  1       21 0.13107264E-01 0.23583091E+02</pdfrwt>
<pdfrwt beam="2">  1       21 0.10331153E-02 0.23583091E+02</pdfrwt>
<totfact> 0.12187546E+08</totfact>
</mgrwt>
</event>
<event>
 4    1  0.2721071E+004  0.2246878E+02  0.7546771E-02  0.1700269E+00
         21   -1    0    0  501  502  0.00000000000E+00  0.00000000000E+00  0.43290713883E+02  0.43290713883E+02  0.00000000000E+00 0.  1.
         21   -1    0    0  502  503 -0.00000000000E+00 -0.00000000000E+00 -0.16775299621E+02  0.16775299621E+02  0.00000000000E+00 0. -1.
          2    1    1    2  501    0 -0.25152566782E+01 -0.22327551695E+02  0.29839226454E+02  0.37352717655E+02  0.00000000000E+00 0.  1.
         -2    1    1    2    0  503  0.25152566782E+01  0.22327551695E+02 -0.33238121911E+01  0.22713295849E+02  0.00000000000E+00 0. -1.
<mgrwt>
<rscale>  2 0.22468780E+02</rscale>
<asrwt>0</asrwt>
<pdfrwt beam="1">  1       21 0.66601098E-02 0.22468780E+02</pdfrwt>
<pdfrwt beam="2">  1       21 0.25808153E-02 0.22468780E+02</pdfrwt>
<totfact> 0.90830604E+07</totfact>
</mgrwt>
</event>
<event>
 4    1  0.2721071E+004  0.2765411E+02  0.7546771E-02  0.1625568E+00
         21   -1    0    0  501  502  0.00000000000E+00  0.00000000000E+00  0.19891216072E+03  0.19891216072E+03  0.00000000000E+00 0.  1.
         21   -1    0    0  502  503 -0.00000000000E+00 -0.00000000000E+00 -0.38772887742E+01  0.38772887742E+01  0.00000000000E+00 0. -1.
          2    1    1    2  501    0  0.18499270647E+02 -0.20555457074E+02  0.10681876276E+03  0.11034037297E+03  0.00000000000E+00 0.  1.
         -2    1    1    2    0  503 -0.18499270647E+02  0.20555457074E+02  0.88216109188E+02  0.92449076524E+02  0.00000000000E+00 0. -1.
<mgrwt>
<rscale>  2 0.27654111E+02</rscale>
<asrwt>0</asrwt>
<pdfrwt beam="1">  1       21 0.30601863E-01 0.27654111E+02</pdfrwt>
<pdfrwt beam="2">  1       21 0.59650612E-03 0.27654111E+02</pdfrwt>
<totfact> 0.65187789E+07</totfact>
</mgrwt>
</event>
<event>
 4    1  0.2721071E+004  0.2393866E+02  0.7546771E-02  0.1676731E+00
         21   -1    0    0  503  502  0.00000000000E+00  0.00000000000E+00  0.19026042945E+02  0.19026042945E+02  0.00000000000E+00 0.  1.
         21   -1    0    0  501  503 -0.00000000000E+00 -0.00000000000E+00 -0.65159565741E+02  0.65159565741E+02  0.00000000000E+00 0. -1.
          2    1    1    2  501    0 -0.19045481830E+02  0.14502732315E+02 -0.53934135683E+02  0.59008055506E+02  0.00000000000E+00 0. -1.
         -2    1    1    2    0  502  0.19045481830E+02 -0.14502732315E+02  0.78006128869E+01  0.25177553180E+02  0.00000000000E+00 0.  1.
<mgrwt>
<rscale>  2 0.23938664E+02</rscale>
<asrwt>0</asrwt>
<pdfrwt beam="1">  1       21 0.29270835E-02 0.23938664E+02</pdfrwt>
<pdfrwt beam="2">  1       21 0.10024549E-01 0.23938664E+02</pdfrwt>
<totfact> 0.38940518E+07</totfact>
</mgrwt>
</event>
<event>
 4    1  0.2721071E+004  0.2275323E+02  0.7546771E-02  0.1695542E+00
         21   -1    0    0  501  502  0.00000000000E+00  0.00000000000E+00  0.50353432349E+01  0.50353432349E+01  0.00000000000E+00 0. -1.
         21   -1    0    0  502  503 -0.00000000000E+00 -0.00000000000E+00 -0.13067649992E+03  0.13067649992E+03  0.00000000000E+00 0.  1.
          2    1    1    2  501    0 -0.10683839229E+02  0.20088930411E+02 -0.31488433805E+02  0.38848822494E+02  0.00000000000E+00 0. -1.
         -2    1    1    2    0  503  0.10683839229E+02 -0.20088930411E+02 -0.94152722884E+02  0.96863020664E+02  0.00000000000E+00 0.  1.
<mgrwt>
<rscale>  2 0.22753232E+02</rscale>
<asrwt>0</asrwt>
<pdfrwt beam="1">  1       21 0.77466821E-03 0.22753232E+02</pdfrwt>
<pdfrwt beam="2">  1       21 0.20104076E-01 0.22753232E+02</pdfrwt>
<totfact> 0.89184761E+07</totfact>
</mgrwt>
</event>
<event>
 4    1  0.2721071E+004  0.2266347E+02  0.7546771E-02  0.1697024E+00
         21   -1    0    0  501  502  0.00000000000E+00  0.00000000000E+00  0.10222750499E+03  0.10222750499E+03  0.00000000000E+00 0. -1.
         21   -1    0    0  502  503 -0.00000000000E+00 -0.00000000000E+00 -0.70454364737E+01  0.70454364737E+01  0.00000000000E+00 0.  1.
          2    1    1    2  501    0  0.20686464683E+02  0.92575841651E+01  0.76853769047E+02  0.80125741821E+02  0.00000000000E+00 0.  1.
         -2    1    1    2    0  503 -0.20686464683E+02 -0.92575841651E+01  0.18328299472E+02  0.29147199646E+02  0.00000000000E+00 0. -1.
<mgrwt>
<rscale>  2 0.22663466E+02</rscale>
<asrwt>0</asrwt>
<pdfrwt beam="1">  1       21 0.15727307E-01 0.22663466E+02</pdfrwt>
<pdfrwt beam="2">  1       21 0.10839134E-02 0.22663466E+02</pdfrwt>
<totfact> 0.82293833E+07</totfact>
</mgrwt>
</event>
<event>
 4    1  0.2721071E+004  0.2274411E+02  0.7546771E-02  0.1695692E+00
         21   -1    0    0  501  502  0.00000000000E+00  0.00000000000E+00  0.11248051212E+03  0.11248051212E+03  0.00000000000E+00 0. -1.
         21   -1    0    0  502  503 -0.00000000000E+00 -0.00000000000E+00 -0.76889539187E+01  0.76889539187E+01  0.00000000000E+00 0.  1.
          2    1    1    2  501    0 -0.19192789135E+02 -0.12203737825E+02  0.90485579514E+02  0.93300238326E+02  0.00000000000E+00 0. -1.
         -2    1    1    2    0  503  0.19192789135E+02  0.12203737825E+02  0.14305978688E+02  0.26869227713E+02  0.00000000000E+00 0.  1.
<mgrwt>
<rscale>  2 0.22744106E+02</rscale>
<asrwt>0</asrwt>
<pdfrwt beam="1">  1       21 0.17304693E-01 0.22744106E+02</pdfrwt>
<pdfrwt beam="2">  1       21 0.11829161E-02 0.22744106E+02</pdfrwt>
<totfact> 0.61293941E+07</totfact>
</mgrwt>
</event>
<event>
 4    1  0.2721071E+004  0.2141852E+02  0.7546771E-02  0.1718507E+00
         21   -1    0    0  501  502  0.00000000000E+00  0.00000000000E+00  0.17179068616E+02  0.17179068616E+02  0.00000000000E+00 0.  1.
         21   -1    0    0  502  503 -0.00000000000E+00 -0.00000000000E+00 -0.36469425805E+02  0.36469425805E+02  0.00000000000E+00 0. -1.
          2    1    1    2  501    0  0.29291676328E+01 -0.21217275488E+02  0.42353130491E+01  0.21833247097E+02  0.00000000000E+00 0.  1.
         -2    1    1    2    0  503 -0.29291676328E+01  0.21217275488E+02 -0.23525670238E+02  0.31815247324E+02  0.00000000000E+00 0. -1.
<mgrwt>
<rscale>  2 0.21418515E+02</rscale>
<asrwt>0</asrwt>
<pdfrwt beam="1">  1       21 0.26429337E-02 0.21418515E+02</pdfrwt>
<pdfrwt beam="2">  1       21 0.56106808E-02 0.21418515E+02</pdfrwt>
<totfact> 0.11368618E+08</totfact>
</mgrwt>
</event>
<event>
 4    1  0.2721071E+004  0.2866795E+02  0.7546771E-02  0.1613297E+00
         21   -1    0    0  501  502  0.00000000000E+00  0.00000000000E+00  0.10031528801E+02  0.10031528801E+02  0.00000000000E+00 0. -1.
         21   -1    0    0  502  503 -0.00000000000E+00 -0.00000000000E+00 -0.37770630440E+03  0.37770630440E+03  0.00000000000E+00 0.  1.
          2    1    1    2  501    0  0.14759360416E+02 -0.24576671217E+02 -0.12277768789E+02  0.31186456907E+02  0.00000000000E+00 0. -1.
         -2    1    1    2    0  503 -0.14759360416E+02  0.24576671217E+02 -0.35539700681E+03  0.35655137630E+03  0.00000000000E+00 0.  1.
<mgrwt>
<rscale>  2 0.28667952E+02</rscale>
<asrwt>0</asrwt>
<pdfrwt beam="1">  1       21 0.15433122E-02 0.28667952E+02</pdfrwt>
<pdfrwt beam="2">  1       21 0.58108658E-01 0.28667952E+02</pdfrwt>
<totfact> 0.45648131E+06</totfact>
</mgrwt>
</event>
<event>
 4    1  0.2721071E+004  0.2398728E+02  0.7546771E-02  0.1675989E+00
         21   -1    0    0  503  502  0.00000000000E+00  0.00000000000E+00  0.17034679355E+01  0.17034679355E+01  0.00000000000E+00 0. -1.
         21   -1    0    0  501  503 -0.00000000000E+00 -0.00000000000E+00 -0.37186642048E+03  0.37186642048E+03  0.00000000000E+00 0.  1.
          2    1    1    2  501    0 -0.21672531647E+02 -0.10280619184E+02 -0.24163603983E+03  0.24282373341E+03  0.00000000000E+00 0.  1.
         -2    1    1    2    0  502  0.21672531647E+02  0.10280619184E+02 -0.12852691271E+03  0.13074615501E+03  0.00000000000E+00 0. -1.
<mgrwt>
<rscale>  2 0.23987283E+02</rscale>
<asrwt>0</asrwt>
<pdfrwt beam="1">  1       21 0.26207180E-03 0.23987283E+02</pdfrwt>
<pdfrwt beam="2">  1       21 0.57210261E-01 0.23987283E+02</pdfrwt>
<totfact> 0.64198668E+07</totfact>
</mgrwt>
</event>
<event>
 4    1  0.2721071E+004  0.2813251E+02  0.7546771E-02  0.1619699E+00
         21   -1    0    0  501  502  0.00000000000E+00  0.00000000000E+00  0.23616762391E+02  0.23616762391E+02  0.00000000000E+00 0. -1.
         21   -1    0    0  502  503 -0.00000000000E+00 -0.00000000000E+00 -0.60673672848E+02  0.60673672848E+02  0.00000000000E+00 0.  1.
          2    1    1    2  501    0  0.18052264271E+02  0.21576699272E+02  0.96702195020E+01  0.29748131740E+02  0.00000000000E+00 0. -1.
         -2    1    1    2    0  503 -0.18052264271E+02 -0.21576699272E+02 -0.46727129959E+02  0.54542303499E+02  0.00000000000E+00 0.  1.
<mgrwt>
<rscale>  2 0.28132511E+02</rscale>
<asrwt>0</asrwt>
<pdfrwt beam="1">  1       21 0.36333481E-02 0.28132511E+02</pdfrwt>
<pdfrwt beam="2">  1       21 0.93344111E-02 0.28132511E+02</pdfrwt>
<totfact> 0.32381245E+07</totfact>
</mgrwt>
</event>
<event>
 4    1  0.2721071E+004  0.2954602E+02  0.7546771E-02  0.1603162E+00
         21   -1    0    0  501  502  0.00000000000E+00  0.00000000000E+00  0.21130930956E+03  0.21130930956E+03  0.00000000000E+00 0. -1.
         21   -1    0    0  502  503 -0.00000000000E+00 -0.00000000000E+00 -0.51952541515E+01  0.51952541515E+01  0.00000000000E+00 0.  1.
          2    1    1    2  501    0  0.29005432250E+02 -0.56260158332E+01  0.15204727157E+03  0.15489138112E+03  0.00000000000E+00 0. -1.
         -2    1    1    2    0  503 -0.29005432250E+02  0.56260158332E+01  0.54066783845E+02  0.61613182595E+02  0.00000000000E+00 0.  1.
<mgrwt>
<rscale>  2 0.29546018E+02</rscale>
<asrwt>0</asrwt>
<pdfrwt beam="1">  1       21 0.32509118E-01 0.29546018E+02</pdfrwt>
<pdfrwt beam="2">  1       21 0.79927003E-03 0.29546018E+02</pdfrwt>
<totfact> 0.38161016E+07</totfact>
</mgrwt>
</event>
<event>
 4    1  0.2721071E+004  0.2000557E+02  0.7546771E-02  0.1745217E+00
         21   -1    0    0  501  502  0.00000000000E+00  0.00000000000E+00  0.66552153509E+01  0.66552153509E+01  0.00000000000E+00 0.  1.
         21   -1    0    0  502  503 -0.00000000000E+00 -0.00000000000E+00 -0.60184271721E+02  0.60184271721E+02  0.00000000000E+00 0. -1.
          2    1    1    2  501    0 -0.16456701331E+02  0.11375411750E+02 -0.25825421457E+02  0.32667650736E+02  0.00000000000E+00 0.  1.
         -2    1    1    2    0  503  0.16456701331E+02 -0.11375411750E+02 -0.27703634914E+02  0.34171836336E+02  0.00000000000E+00 0. -1.
<mgrwt>
<rscale>  2 0.20005575E+02</rscale>
<asrwt>0</asrwt>
<pdfrwt beam="1">  1       21 0.10238793E-02 0.20005575E+02</pdfrwt>
<pdfrwt beam="2">  1       21 0.92591185E-02 0.20005575E+02</pdfrwt>
<totfact> 0.20922205E+08</totfact>
</mgrwt>
</event>
<event>
 4    1  0.2721071E+004  0.2123013E+02  0.7546771E-02  0.1721917E+00
         21   -1    0    0  503  502  0.00000000000E+00  0.00000000000E+00  0.11809418173E+01  0.11809418173E+01  0.00000000000E+00 0.  1.
         21   -1    0    0  501  503 -0.00000000000E+00 -0.00000000000E+00 -0.46221969539E+03  0.46221969539E+03  0.00000000000E+00 0. -1.
          2    1    1    2  501    0  0.21114958004E+02 -0.22083491933E+01 -0.13378935027E+03  0.13546331054E+03  0.00000000000E+00 0.  1.
         -2    1    1    2    0  502 -0.21114958004E+02  0.22083491933E+01 -0.32724940330E+03  0.32793732666E+03  0.00000000000E+00 0. -1.
<mgrwt>
<rscale>  2 0.21230126E+02</rscale>
<asrwt>0</asrwt>
<pdfrwt beam="1">  1       21 0.18168333E-03 0.21230126E+02</pdfrwt>
<pdfrwt beam="2">  1       21 0.71110732E-01 0.21230126E+02</pdfrwt>
<totfact> 0.68255146E+07</totfact>
</mgrwt>
</event>
<event>
 4    1  0.2721071E+004  0.2525484E+02  0.7546771E-02  0.1657368E+00
         21   -1    0    0  503  502  0.00000000000E+00  0.00000000000E+00  0.11937327978E+03  0.11937327978E+03  0.00000000000E+00 0. -1.
         21   -1    0    0  501  503 -0.00000000000E+00 -0.00000000000E+00 -0.54287459713E+01  0.54287459713E+01  0.00000000000E+00 0.  1.
          2    1    1    2  501    0 -0.15732484422E+02  0.19755912193E+02  0.49128223830E+02  0.55239383680E+02  0.00000000000E+00 0. -1.
         -2    1    1    2    0  502  0.15732484422E+02 -0.19755912193E+02  0.64816309983E+02  0.69562642076E+02  0.00000000000E+00 0.  1.
<mgrwt>
<rscale>  2 0.25254844E+02</rscale>
<asrwt>0</asrwt>
<pdfrwt beam="1">  1       21 0.18365118E-01 0.25254844E+02</pdfrwt>
<pdfrwt beam="2">  1       21 0.83519178E-03 0.25254844E+02</pdfrwt>
<totfact> 0.95931786E+07</totfact>
</mgrwt>
</event>
<event>
 4    1  0.2721071E+004  0.2024826E+02  0.7546771E-02  0.1740436E+00
         21   -1    0    0  503  502  0.00000000000E+00  0.00000000000E+00  0.13061528099E+03  0.13061528099E+03  0.00000000000E+00 0.  1.
         21   -1    0    0  501  503 -0.00000000000E+00 -0.00000000000E+00 -0.59717475577E+01  0.59717475577E+01  0.00000000000E+00 0. -1.
          2    1    1    2  501    0 -0.68855447989E+01  0.19041567649E+02  0.15284924264E+02  0.25369685363E+02  0.00000000000E+00 0. -1.
         -2    1    1    2    0  502  0.68855447989E+01 -0.19041567649E+02  0.10935860917E+03  0.11121734318E+03  0.00000000000E+00 0.  1.
<mgrwt>
<rscale>  2 0.20248260E+02</rscale>
<asrwt>0</asrwt>
<pdfrwt beam="1">  1       21 0.20094656E-01 0.20248260E+02</pdfrwt>
<pdfrwt beam="2">  1       21 0.91873049E-03 0.20248260E+02</pdfrwt>
<totfact> 0.67052121E+07</totfact>
</mgrwt>
</event>
<event>
 4    1  0.2721071E+004  0.2548344E+02  0.7546771E-02  0.1654154E+00
         21   -1    0    0  503  502  0.00000000000E+00  0.00000000000E+00  0.29275492604E+01  0.29275492604E+01  0.00000000000E+00 0.  1.
         21   -1    0    0  501  503 -0.00000000000E+00 -0.00000000000E+00 -0.23317511330E+03  0.23317511330E+03  0.00000000000E+00 0. -1.
          2    1    1    2  501    0 -0.16814753445E+02  0.19148629175E+02 -0.14116820502E+03  0.14344987990E+03  0.00000000000E+00 0. -1.
         -2    1    1    2    0  502  0.16814753445E+02 -0.19148629175E+02 -0.89079359015E+02  0.92652782663E+02  0.00000000000E+00 0.  1.
<mgrwt>
<rscale>  2 0.25483444E+02</rscale>
<asrwt>0</asrwt>
<pdfrwt beam="1">  1       21 0.45039222E-03 0.25483444E+02</pdfrwt>
<pdfrwt beam="2">  1       21 0.35873092E-01 0.25483444E+02</pdfrwt>
<totfact> 0.72295816E+07</totfact>
</mgrwt>
</event>
<event>
 4    1  0.2721071E+004  0.3777267E+02  0.7546771E-02  0.1525273E+00
         21   -1    0    0  503  502  0.00000000000E+00  0.00000000000E+00  0.55059835582E+02  0.55059835582E+02  0.00000000000E+00 0. -1.
         21   -1    0    0  501  503 -0.00000000000E+00 -0.00000000000E+00 -0.26413314043E+02  0.26413314043E+02  0.00000000000E+00 0.  1.
          2    1    1    2  501    0  0.36230735826E+02 -0.10682161046E+02  0.87176702029E+01  0.38765610493E+02  0.00000000000E+00 0.  1.
         -2    1    1    2    0  502 -0.36230735826E+02  0.10682161046E+02  0.19928851336E+02  0.42707539132E+02  0.00000000000E+00 0. -1.
<mgrwt>
<rscale>  2 0.37772672E+02</rscale>
<asrwt>0</asrwt>
<pdfrwt beam="1">  1       21 0.84707439E-02 0.37772672E+02</pdfrwt>
<pdfrwt beam="2">  1       21 0.40635868E-02 0.37772672E+02</pdfrwt>
<totfact> 0.33757858E+07</totfact>
</mgrwt>
</event>
<event>
 4    1  0.2721071E+004  0.2692013E+02  0.7546771E-02  0.1634861E+00
         21   -1    0    0  503  502  0.00000000000E+00  0.00000000000E+00  0.15849532948E+01  0.15849532948E+01  0.00000000000E+00 0. -1.
         21   -1    0    0  501  503 -0.00000000000E+00 -0.00000000000E+00 -0.72312825989E+03  0.72312825989E+03  0.00000000000E+00 0.  1.
          2    1    1    2  501    0  0.18787449434E+02 -0.19280170822E+02 -0.58049877328E+03  0.58112263682E+03  0.00000000000E+00 0.  1.
         -2    1    1    2    0  502 -0.18787449434E+02  0.19280170822E+02 -0.14104453332E+03  0.14359057637E+03  0.00000000000E+00 0. -1.
<mgrwt>
<rscale>  2 0.26920127E+02</rscale>
<asrwt>0</asrwt>
<pdfrwt beam="1">  1       21 0.24383916E-03 0.26920127E+02</pdfrwt>
<pdfrwt beam="2">  1       21 0.11125042E+00 0.26920127E+02</pdfrwt>
<totfact> 0.17926459E+07</totfact>
</mgrwt>
</event>
<event>
 4    1  0.2721071E+004  0.2060012E+02  0.7546771E-02  0.1733651E+00
         21   -1    0    0  503  502  0.00000000000E+00  0.00000000000E+00  0.12128202761E+03  0.12128202761E+03  0.00000000000E+00 0. -1.
         21   -1    0    0  501  503 -0.00000000000E+00 -0.00000000000E+00 -0.55291176820E+01  0.55291176820E+01  0.00000000000E+00 0.  1.
          2    1    1    2  501    0 -0.11112860978E+02 -0.17345579969E+02  0.19456133581E+02  0.28335595238E+02  0.00000000000E+00 0.  1.
         -2    1    1    2    0  502  0.11112860978E+02  0.17345579969E+02  0.96296776343E+02  0.98475550050E+02  0.00000000000E+00 0. -1.
<mgrwt>
<rscale>  2 0.20600117E+02</rscale>
<asrwt>0</asrwt>
<pdfrwt beam="1">  1       21 0.18658772E-01 0.20600117E+02</pdfrwt>
<pdfrwt beam="2">  1       21 0.85063358E-03 0.20600117E+02</pdfrwt>
<totfact> 0.85910442E+07</totfact>
</mgrwt>
</event>
<event>
 4    1  0.2721071E+004  0.4094904E+02  0.7546771E-02  0.1501341E+00
         21   -1    0    0  503  502  0.00000000000E+00  0.00000000000E+00  0.98621224792E+03  0.98621224792E+03  0.00000000000E+00 0.  1.
         21   -1    0    0  501  503 -0.00000000000E+00 -0.00000000000E+00 -0.12343864976E+02  0.12343864976E+02  0.00000000000E+00 0. -1.
          2    1    1    2  501    0  0.11377821874E+01 -0.40933228041E+02  0.23315285468E+02  0.47121398989E+02  0.00000000000E+00 0. -1.
         -2    1    1    2    0  502 -0.11377821874E+01  0.40933228041E+02  0.95055309748E+03  0.95143471391E+03  0.00000000000E+00 0.  1.
<mgrwt>
<rscale>  2 0.40949038E+02</rscale>
<asrwt>0</asrwt>
<pdfrwt beam="1">  1       21 0.15172490E+00 0.40949038E+02</pdfrwt>
<pdfrwt beam="2">  1       21 0.18990569E-02 0.40949038E+02</pdfrwt>
<totfact> 0.40652325E+05</totfact>
</mgrwt>
</event>
<event>
 4    1  0.2721071E+004  0.2630423E+02  0.7546771E-02  0.1642946E+00
         21   -1    0    0  501  502  0.00000000000E+00  0.00000000000E+00  0.23156098915E+03  0.23156098915E+03  0.00000000000E+00 0. -1.
         21   -1    0    0  502  503 -0.00000000000E+00 -0.00000000000E+00 -0.36706348818E+01  0.36706348818E+01  0.00000000000E+00 0.  1.
          2    1    1    2  501    0  0.21968222472E+02  0.14467532144E+02  0.16466506654E+03  0.16675280035E+03  0.00000000000E+00 0. -1.
         -2    1    1    2    0  503 -0.21968222472E+02 -0.14467532144E+02  0.63225287730E+02  0.68478823687E+02  0.00000000000E+00 0.  1.
<mgrwt>
<rscale>  2 0.26304226E+02</rscale>
<asrwt>0</asrwt>
<pdfrwt beam="1">  1       21 0.35624756E-01 0.26304226E+02</pdfrwt>
<pdfrwt beam="2">  1       21 0.56471324E-03 0.26304226E+02</pdfrwt>
<totfact> 0.52772923E+07</totfact>
</mgrwt>
</event>
<event>
 4    1  0.2721071E+004  0.2816469E+02  0.7546771E-02  0.1619309E+00
         21   -1    0    0  501  502  0.00000000000E+00  0.00000000000E+00  0.25067773290E+03  0.25067773290E+03  0.00000000000E+00 0. -1.
         21   -1    0    0  502  503 -0.00000000000E+00 -0.00000000000E+00 -0.31821605476E+01  0.31821605476E+01  0.00000000000E+00 0.  1.
          2    1    1    2  501    0  0.17367155369E+02 -0.22172772397E+02  0.13322481962E+03  0.13616938894E+03  0.00000000000E+00 0.  1.
         -2    1    1    2    0  503 -0.17367155369E+02  0.22172772397E+02  0.11427075273E+03  0.11769050450E+03  0.00000000000E+00 0. -1.
<mgrwt>
<rscale>  2 0.28164693E+02</rscale>
<asrwt>0</asrwt>
<pdfrwt beam="1">  1       21 0.38565789E-01 0.28164693E+02</pdfrwt>
<pdfrwt beam="2">  1       21 0.48956336E-03 0.28164693E+02</pdfrwt>
<totfact> 0.57065915E+07</totfact>
</mgrwt>
</event>
<event>
 4    1  0.2721071E+004  0.3636471E+02  0.7546771E-02  0.1536805E+00
         21   -1    0    0  503  502  0.00000000000E+00  0.00000000000E+00  0.48512425021E+02  0.48512425021E+02  0.00000000000E+00 0.  1.
         21   -1    0    0  501  503 -0.00000000000E+00 -0.00000000000E+00 -0.31321537656E+02  0.31321537656E+02  0.00000000000E+00 0. -1.
          2    1    1    2  501    0 -0.20899642480E+02  0.29758985292E+02 -0.57807393368E+01  0.36821314598E+02  0.00000000000E+00 0. -1.
         -2    1    1    2    0  502  0.20899642480E+02 -0.29758985292E+02  0.22971626701E+02  0.43012648079E+02  0.00000000000E+00 0.  1.
<mgrwt>
<rscale>  2 0.36364712E+02</rscale>
<asrwt>0</asrwt>
<pdfrwt beam="1">  1       21 0.74634500E-02 0.36364712E+02</pdfrwt>
<pdfrwt beam="2">  1       21 0.48186981E-02 0.36364712E+02</pdfrwt>
<totfact> 0.31439907E+07</totfact>
</mgrwt>
</event>
<event>
 4    1  0.2721071E+004  0.2248361E+02  0.7546771E-02  0.1700020E+00
         21   -1    0    0  501  502  0.00000000000E+00  0.00000000000E+00  0.14518872174E+04  0.14518872174E+04  0.00000000000E+00 0. -1.
         21   -1    0    0  502  503 -0.00000000000E+00 -0.00000000000E+00 -0.99798185282E+00  0.99798185282E+00  0.00000000000E+00 0.  1.
          2    1    1    2  501    0 -0.54510550352E+01 -0.21812808413E+02  0.13116255884E+04  0.13118182788E+04  0.00000000000E+00 0. -1.
         -2    1    1    2    0  503  0.54510550352E+01  0.21812808413E+02  0.13926364719E+03  0.14106692043E+03  0.00000000000E+00 0.  1.
<mgrwt>
<rscale>  2 0.22483608E+02</rscale>
<asrwt>0</asrwt>
<pdfrwt beam="1">  1       21 0.22336557E+00 0.22483608E+02</pdfrwt>
<pdfrwt beam="2">  1       21 0.15353683E-03 0.22483608E+02</pdfrwt>
<totfact> 0.62859650E+06</totfact>
</mgrwt>
</event>
<event>
 4    1  0.2721071E+004  0.2172031E+02  0.7546771E-02  0.1713134E+00
         21   -1    0    0  503  502  0.00000000000E+00  0.00000000000E+00  0.13619613365E+01  0.13619613365E+01  0.00000000000E+00 0.  1.
         21   -1    0    0  501  503 -0.00000000000E+00 -0.00000000000E+00 -0.11754512614E+04  0.11754512614E+04  0.00000000000E+00 0. -1.
          2    1    1    2  501    0  0.73987062468E+01  0.20421334672E+02 -0.10812053028E+04  0.10814234501E+04  0.00000000000E+00 0. -1.
         -2    1    1    2    0  502 -0.73987062468E+01 -0.20421334672E+02 -0.92883997330E+02  0.95389772638E+02  0.00000000000E+00 0.  1.
<mgrwt>
<rscale>  2 0.21720308E+02</rscale>
<asrwt>0</asrwt>
<pdfrwt beam="1">  1       21 0.20953285E-03 0.21720308E+02</pdfrwt>
<pdfrwt beam="2">  1       21 0.18083836E+00 0.21720308E+02</pdfrwt>
<totfact> 0.68971655E+06</totfact>
</mgrwt>
</event>
<event>
 4    1  0.2721071E+004  0.2084126E+02  0.7546771E-02  0.1729098E+00
         21   -1    0    0  501  502  0.00000000000E+00  0.00000000000E+00  0.15033524939E+04  0.15033524939E+04  0.00000000000E+00 0.  1.
         21   -1    0    0  502  503 -0.00000000000E+00 -0.00000000000E+00 -0.30215125151E+00  0.30215125151E+00  0.00000000000E+00 0. -1.
          2    1    1    2  501    0 -0.15512789703E+02  0.13918023239E+02  0.90881606795E+03  0.90905500569E+03  0.00000000000E+00 0.  1.
         -2    1    1    2    0  503  0.15512789703E+02 -0.13918023239E+02  0.59423427475E+03  0.59459963950E+03  0.00000000000E+00 0. -1.
<mgrwt>
<rscale>  2 0.20841258E+02</rscale>
<asrwt>0</asrwt>
<pdfrwt beam="1">  1       21 0.23127901E+00 0.20841258E+02</pdfrwt>
<pdfrwt beam="2">  1       21 0.46486011E-04 0.20841258E+02</pdfrwt>
<totfact> 0.30849549E+07</totfact>
</mgrwt>
</event>
<event>
 4    1  0.2721071E+004  0.3402556E+02  0.7546771E-02  0.1557428E+00
         21   -1    0    0  501  502  0.00000000000E+00  0.00000000000E+00  0.19766458991E+03  0.19766458991E+03  0.00000000000E+00 0. -1.
         21   -1    0    0  502  503 -0.00000000000E+00 -0.00000000000E+00 -0.10850368806E+02  0.10850368806E+02  0.00000000000E+00 0.  1.
          2    1    1    2  501    0  0.13264844953E+02  0.31333411830E+02  0.16413292956E+03  0.16762266366E+03  0.00000000000E+00 0. -1.
         -2    1    1    2    0  503 -0.13264844953E+02 -0.31333411830E+02  0.22681291548E+02  0.40892295055E+02  0.00000000000E+00 0.  1.
<mgrwt>
<rscale>  2 0.34025561E+02</rscale>
<asrwt>0</asrwt>
<pdfrwt beam="1">  1       21 0.30409934E-01 0.34025561E+02</pdfrwt>
<pdfrwt beam="2">  1       21 0.16692877E-02 0.34025561E+02</pdfrwt>
<totfact> 0.14404713E+07</totfact>
</mgrwt>
</event>
<event>
 4    1  0.2721071E+004  0.2666831E+02  0.7546771E-02  0.1638134E+00
         21   -1    0    0  501  502  0.00000000000E+00  0.00000000000E+00  0.11516968829E+03  0.11516968829E+03  0.00000000000E+00 0. -1.
         21   -1    0    0  502  503 -0.00000000000E+00 -0.00000000000E+00 -0.16896393147E+02  0.16896393147E+02  0.00000000000E+00 0.  1.
          2    1    1    2  501    0 -0.26034222995E+02 -0.57808482939E+01  0.10173659444E+03  0.10517382575E+03  0.00000000000E+00 0. -1.
         -2    1    1    2    0  503  0.26034222995E+02  0.57808482939E+01 -0.34632992996E+01  0.26892255688E+02  0.00000000000E+00 0.  1.
<mgrwt>
<rscale>  2 0.26668314E+02</rscale>
<asrwt>0</asrwt>
<pdfrwt beam="1">  1       21 0.17718413E-01 0.26668314E+02</pdfrwt>
<pdfrwt beam="2">  1       21 0.25994452E-02 0.26668314E+02</pdfrwt>
<totfact> 0.18263441E+07</totfact>
</mgrwt>
</event>
<event>
 4    1  0.2721071E+004  0.2287285E+02  0.7546771E-02  0.1693579E+00
         21   -1    0    0  503  502  0.00000000000E+00  0.00000000000E+00  0.16262201958E+02  0.16262201958E+02  0.00000000000E+00 0.  1.
         21   -1    0    0  501  503 -0.00000000000E+00 -0.00000000000E+00 -0.33373794752E+02  0.33373794752E+02  0.00000000000E+00 0. -1.
          2    1    1    2  501    0 -0.22867134865E+02 -0.51139120538E+00 -0.13267774315E+02  0.26442413149E+02  0.00000000000E+00 0. -1.
         -2    1    1    2    0  502  0.22867134865E+02  0.51139120538E+00 -0.38438184799E+01  0.23193583561E+02  0.00000000000E+00 0.  1.
<mgrwt>
<rscale>  2 0.22872852E+02</rscale>
<asrwt>0</asrwt>
<pdfrwt beam="1">  1       21 0.25018773E-02 0.22872852E+02</pdfrwt>
<pdfrwt beam="2">  1       21 0.51344298E-02 0.22872852E+02</pdfrwt>
<totfact> 0.14539082E+08</totfact>
</mgrwt>
</event>
<event>
 4    1  0.2721071E+004  0.2544222E+02  0.7546771E-02  0.1654730E+00
         21   -1    0    0  501  502  0.00000000000E+00  0.00000000000E+00  0.15521992413E+02  0.15521992413E+02  0.00000000000E+00 0.  1.
         21   -1    0    0  502  503 -0.00000000000E+00 -0.00000000000E+00 -0.11990626915E+03  0.11990626915E+03  0.00000000000E+00 0. -1.
          2    1    1    2  501    0 -0.19617505417E+02 -0.16200619855E+02  0.24933478274E+01  0.25564103463E+02  0.00000000000E+00 0. -1.
         -2    1    1    2    0  503  0.19617505417E+02  0.16200619855E+02 -0.10687762456E+03  0.10986415810E+03  0.00000000000E+00 0.  1.
<mgrwt>
<rscale>  2 0.25442221E+02</rscale>
<asrwt>0</asrwt>
<pdfrwt beam="1">  1       21 0.23879987E-02 0.25442221E+02</pdfrwt>
<pdfrwt beam="2">  1       21 0.18447119E-01 0.25442221E+02</pdfrwt>
<totfact> 0.19248087E+07</totfact>
</mgrwt>
</event>
<event>
 4    1  0.2721071E+004  0.3041339E+02  0.7546771E-02  0.1593564E+00
         21   -1    0    0  501  502  0.00000000000E+00  0.00000000000E+00  0.15358952541E+02  0.15358952541E+02  0.00000000000E+00 0.  1.
         21   -1    0    0  502  503 -0.00000000000E+00 -0.00000000000E+00 -0.73633103371E+02  0.73633103371E+02  0.00000000000E+00 0. -1.
          2    1    1    2  501    0 -0.30322785547E+02 -0.23458229063E+01 -0.10148687609E+02  0.32061972313E+02  0.00000000000E+00 0.  1.
         -2    1    1    2    0  503  0.30322785547E+02  0.23458229063E+01 -0.48125463221E+02  0.56930083599E+02  0.00000000000E+00 0. -1.
<mgrwt>
<rscale>  2 0.30413389E+02</rscale>
<asrwt>0</asrwt>
<pdfrwt beam="1">  1       21 0.23629158E-02 0.30413389E+02</pdfrwt>
<pdfrwt beam="2">  1       21 0.11328169E-01 0.30413389E+02</pdfrwt>
<totfact> 0.46802562E+07</totfact>
</mgrwt>
</event>
<event>
 4    1  0.2721071E+004  0.2112408E+02  0.7546771E-02  0.1723856E+00
         21   -1    0    0  503  502  0.00000000000E+00  0.00000000000E+00  0.11426138641E+03  0.11426138641E+03  0.00000000000E+00 0. -1.
         21   -1    0    0  501  503 -0.00000000000E+00 -0.00000000000E+00 -0.10715477141E+02  0.10715477141E+02  0.00000000000E+00 0.  1.
          2    1    1    2  501    0 -0.20994499859E+02 -0.23361413511E+01  0.19565214025E+01  0.21214489311E+02  0.00000000000E+00 0.  1.
         -2    1    1    2    0  502  0.20994499859E+02  0.23361413511E+01  0.10158938786E+03  0.10376237424E+03  0.00000000000E+00 0. -1.
<mgrwt>
<rscale>  2 0.21124076E+02</rscale>
<asrwt>0</asrwt>
<pdfrwt beam="1">  1       21 0.17578674E-01 0.21124076E+02</pdfrwt>
<pdfrwt beam="2">  1       21 0.16485350E-02 0.21124076E+02</pdfrwt>
<totfact> 0.35423428E+07</totfact>
</mgrwt>
</event>
<event>
 4    1  0.2721071E+004  0.5051290E+02  0.7546771E-02  0.1442595E+00
         21   -1    0    0  501  502  0.00000000000E+00  0.00000000000E+00  0.29478994934E+02  0.29478994934E+02  0.00000000000E+00 0.  1.
         21   -1    0    0  502  503 -0.00000000000E+00 -0.00000000000E+00 -0.25198756694E+03  0.25198756694E+03  0.00000000000E+00 0. -1.
          2    1    1    2  501    0  0.31896719508E+02  0.39168256645E+02  0.27753717612E+01  0.50589087088E+02  0.00000000000E+00 0.  1.
         -2    1    1    2    0  503 -0.31896719508E+02 -0.39168256645E+02 -0.22528394377E+03  0.23087747479E+03  0.00000000000E+00 0. -1.
<mgrwt>
<rscale>  2 0.50512900E+02</rscale>
<asrwt>0</asrwt>
<pdfrwt beam="1">  1       21 0.45352302E-02 0.50512900E+02</pdfrwt>
<pdfrwt beam="2">  1       21 0.38767316E-01 0.50512900E+02</pdfrwt>
<totfact> 0.19476396E+06</totfact>
</mgrwt>
</event>
<event>
 4    1  0.2721071E+004  0.2182684E+02  0.7546771E-02  0.1711264E+00
         21   -1    0    0  501  502  0.00000000000E+00  0.00000000000E+00  0.17068426020E+03  0.17068426020E+03  0.00000000000E+00 0. -1.
         21   -1    0    0  502  503 -0.00000000000E+00 -0.00000000000E+00 -0.70764085029E+01  0.70764085029E+01  0.00000000000E+00 0.  1.
          2    1    1    2  501    0  0.14028514978E+02 -0.16721599151E+02  0.15096887166E+03  0.15253855683E+03  0.00000000000E+00 0. -1.
         -2    1    1    2    0  503 -0.14028514978E+02  0.16721599151E+02  0.12638980034E+02  0.25222111866E+02  0.00000000000E+00 0.  1.
<mgrwt>
<rscale>  2 0.21826844E+02</rscale>
<asrwt>0</asrwt>
<pdfrwt beam="1">  1       21 0.26259114E-01 0.21826844E+02</pdfrwt>
<pdfrwt beam="2">  1       21 0.10886784E-02 0.21826844E+02</pdfrwt>
<totfact> 0.33088053E+07</totfact>
</mgrwt>
</event>
<event>
 4    1  0.2721071E+004  0.2044870E+02  0.7546771E-02  0.1736550E+00
         21   -1    0    0  501  502  0.00000000000E+00  0.00000000000E+00  0.44291710371E+01  0.44291710371E+01  0.00000000000E+00 0. -1.
         21   -1    0    0  502  503 -0.00000000000E+00 -0.00000000000E+00 -0.12957257835E+03  0.12957257835E+03  0.00000000000E+00 0.  1.
          2    1    1    2  501    0 -0.20448182378E+02  0.14564980518E+00 -0.27667610885E+02  0.34404157721E+02  0.00000000000E+00 0. -1.
         -2    1    1    2    0  503  0.20448182378E+02 -0.14564980518E+00 -0.97475796426E+02  0.99597591664E+02  0.00000000000E+00 0.  1.
<mgrwt>
<rscale>  2 0.20448701E+02</rscale>
<asrwt>0</asrwt>
<pdfrwt beam="1">  1       21 0.68141090E-03 0.20448701E+02</pdfrwt>
<pdfrwt beam="2">  1       21 0.19934244E-01 0.20448701E+02</pdfrwt>
<totfact> 0.10628615E+08</totfact>
</mgrwt>
</event>
<event>
 4    1  0.2721071E+004  0.2066305E+02  0.7546771E-02  0.1732455E+00
         21   -1    0    0  503  502  0.00000000000E+00  0.00000000000E+00  0.13836615507E+02  0.13836615507E+02  0.00000000000E+00 0.  1.
         21   -1    0    0  501  503 -0.00000000000E+00 -0.00000000000E+00 -0.36263048770E+02  0.36263048770E+02  0.00000000000E+00 0. -1.
          2    1    1    2  501    0 -0.19119349600E+02 -0.78365925921E+01 -0.20884794872E+02  0.29379182586E+02  0.00000000000E+00 0. -1.
         -2    1    1    2    0  502  0.19119349600E+02  0.78365925921E+01 -0.15416383905E+01  0.20720481691E+02  0.00000000000E+00 0.  1.
<mgrwt>
<rscale>  2 0.20663052E+02</rscale>
<asrwt>0</asrwt>
<pdfrwt beam="1">  1       21 0.21287101E-02 0.20663052E+02</pdfrwt>
<pdfrwt beam="2">  1       21 0.55789305E-02 0.20663052E+02</pdfrwt>
<totfact> 0.15828551E+08</totfact>
</mgrwt>
</event>
<event>
 4    1  0.2721071E+004  0.2105445E+02  0.7546771E-02  0.1725137E+00
         21   -1    0    0  501  502  0.00000000000E+00  0.00000000000E+00  0.14612450290E+02  0.14612450290E+02  0.00000000000E+00 0.  1.
         21   -1    0    0  502  503 -0.00000000000E+00 -0.00000000000E+00 -0.51087233428E+02  0.51087233428E+02  0.00000000000E+00 0. -1.
          2    1    1    2  501    0  0.19327871006E+02 -0.83500409884E+01  0.26986417591E+01  0.21226691911E+02  0.00000000000E+00 0.  1.
         -2    1    1    2    0  503 -0.19327871006E+02  0.83500409884E+01 -0.39173424897E+02  0.44472991807E+02  0.00000000000E+00 0. -1.
<mgrwt>
<rscale>  2 0.21054448E+02</rscale>
<asrwt>0</asrwt>
<pdfrwt beam="1">  1       21 0.22480693E-02 0.21054448E+02</pdfrwt>
<pdfrwt beam="2">  1       21 0.78595743E-02 0.21054448E+02</pdfrwt>
<totfact> 0.84362119E+07</totfact>
</mgrwt>
</event>
<event>
 4    1  0.2721071E+004  0.2127078E+02  0.7546771E-02  0.1721177E+00
         21   -1    0    0  503  502  0.00000000000E+00  0.00000000000E+00  0.22673967382E+02  0.22673967382E+02  0.00000000000E+00 0.  1.
         21   -1    0    0  501  503 -0.00000000000E+00 -0.00000000000E+00 -0.24200050349E+02  0.24200050349E+02  0.00000000000E+00 0. -1.
          2    1    1    2  501    0 -0.19343200470E+02 -0.88479833347E+01 -0.10579715287E+02  0.23756611481E+02  0.00000000000E+00 0. -1.
         -2    1    1    2    0  502  0.19343200470E+02  0.88479833347E+01  0.90536323199E+01  0.23117406249E+02  0.00000000000E+00 0.  1.
<mgrwt>
<rscale>  2 0.21270783E+02</rscale>
<asrwt>0</asrwt>
<pdfrwt beam="1">  1       21 0.34883027E-02 0.21270783E+02</pdfrwt>
<pdfrwt beam="2">  1       21 0.37230847E-02 0.21270783E+02</pdfrwt>
<totfact> 0.14096268E+08</totfact>
</mgrwt>
</event>
<event>
 4    1  0.2721071E+004  0.2530190E+02  0.7546771E-02  0.1656703E+00
         21   -1    0    0  501  502  0.00000000000E+00  0.00000000000E+00  0.20668863596E+03  0.20668863596E+03  0.00000000000E+00 0. -1.
         21   -1    0    0  502  503 -0.00000000000E+00 -0.00000000000E+00 -0.32070118135E+01  0.32070118135E+01  0.00000000000E+00 0.  1.
          2    1    1    2  501    0  0.25134279605E+02 -0.29075821538E+01  0.12114790398E+03  0.12376187088E+03  0.00000000000E+00 0. -1.
         -2    1    1    2    0  503 -0.25134279605E+02  0.29075821538E+01  0.82333720164E+02  0.86133776890E+02  0.00000000000E+00 0.  1.
<mgrwt>
<rscale>  2 0.25301898E+02</rscale>
<asrwt>0</asrwt>
<pdfrwt beam="1">  1       21 0.31798241E-01 0.25301898E+02</pdfrwt>
<pdfrwt beam="2">  1       21 0.49338660E-03 0.25301898E+02</pdfrwt>
<totfact> 0.78859037E+07</totfact>
</mgrwt>
</event>
<event>
 4    1  0.2721071E+004  0.3444629E+02  0.7546771E-02  0.1553573E+00
         21   -1    0    0  503  502  0.00000000000E+00  0.00000000000E+00  0.25977033559E+02  0.25977033559E+02  0.00000000000E+00 0. -1.
         21   -1    0    0  501  503 -0.00000000000E+00 -0.00000000000E+00 -0.15950567213E+03  0.15950567213E+03  0.00000000000E+00 0.  1.
          2    1    1    2  501    0  0.31924834209E+02 -0.12936441987E+02 -0.14510938790E+03  0.14914181515E+03  0.00000000000E+00 0.  1.
         -2    1    1    2    0  502 -0.31924834209E+02  0.12936441987E+02  0.11580749322E+02  0.36340890542E+02  0.00000000000E+00 0. -1.
<mgrwt>
<rscale>  2 0.34446285E+02</rscale>
<asrwt>0</asrwt>
<pdfrwt beam="1">  1       21 0.39964667E-02 0.34446285E+02</pdfrwt>
<pdfrwt beam="2">  1       21 0.24539334E-01 0.34446285E+02</pdfrwt>
<totfact> 0.54199309E+06</totfact>
</mgrwt>
</event>
<event>
 4    1  0.2721071E+004  0.2163388E+02  0.7546771E-02  0.1714662E+00
         21   -1    0    0  503  502  0.00000000000E+00  0.00000000000E+00  0.14834540682E+01  0.14834540682E+01  0.00000000000E+00 0.  1.
         21   -1    0    0  501  503 -0.00000000000E+00 -0.00000000000E+00 -0.31938872909E+03  0.31938872909E+03  0.00000000000E+00 0. -1.
          2    1    1    2  501    0  0.52090607316E+01  0.20997391633E+02 -0.17666326123E+03  0.17798295603E+03  0.00000000000E+00 0. -1.
         -2    1    1    2    0  502 -0.52090607316E+01 -0.20997391633E+02 -0.14124201378E+03  0.14288922712E+03  0.00000000000E+00 0.  1.
<mgrwt>
<rscale>  2 0.21633880E+02</rscale>
<asrwt>0</asrwt>
<pdfrwt beam="1">  1       21 0.22822353E-03 0.21633880E+02</pdfrwt>
<pdfrwt beam="2">  1       21 0.49136765E-01 0.21633880E+02</pdfrwt>
<totfact> 0.10298984E+08</totfact>
</mgrwt>
</event>
<event>
 4    1  0.2721071E+004  0.2237217E+02  0.7546771E-02  0.1701894E+00
         21   -1    0    0  501  502  0.00000000000E+00  0.00000000000E+00  0.87131695233E+02  0.87131695233E+02  0.00000000000E+00 0. -1.
         21   -1    0    0  502  503 -0.00000000000E+00 -0.00000000000E+00 -0.14194301920E+02  0.14194301920E+02  0.00000000000E+00 0.  1.
          2    1    1    2  501    0 -0.14462173285E+02  0.17069253404E+02  0.75558304226E+02  0.78800832517E+02  0.00000000000E+00 0. -1.
         -2    1    1    2    0  503  0.14462173285E+02 -0.17069253404E+02 -0.26209109122E+01  0.22525164636E+02  0.00000000000E+00 0.  1.
<mgrwt>
<rscale>  2 0.22372167E+02</rscale>
<asrwt>0</asrwt>
<pdfrwt beam="1">  1       21 0.13404876E-01 0.22372167E+02</pdfrwt>
<pdfrwt beam="2">  1       21 0.21837388E-02 0.22372167E+02</pdfrwt>
<totfact> 0.37080265E+07</totfact>
</mgrwt>
</event>
<event>
 4    1  0.2721071E+004  0.2230014E+02  0.7546771E-02  0.1703112E+00
         21   -1    0    0  501  502  0.00000000000E+00  0.00000000000E+00  0.98806956392E+01  0.98806956392E+01  0.00000000000E+00 0. -1.
         21   -1    0    0  502  503 -0.00000000000E+00 -0.00000000000E+00 -0.55332442142E+02  0.55332442142E+02  0.00000000000E+00 0.  1.
          2    1    1    2  501    0  0.15424105165E+02 -0.16105685294E+02 -0.12921877565E+02  0.25773456088E+02  0.00000000000E+00 0. -1.
         -2    1    1    2    0  503 -0.15424105165E+02  0.16105685294E+02 -0.32529868938E+02  0.39439681693E+02  0.00000000000E+00 0.  1.
<mgrwt>
<rscale>  2 0.22300137E+02</rscale>
<asrwt>0</asrwt>
<pdfrwt beam="1">  1       21 0.15201070E-02 0.22300137E+02</pdfrwt>
<pdfrwt beam="2">  1       21 0.85126833E-02 0.22300137E+02</pdfrwt>
<totfact> 0.13691340E+08</totfact>
</mgrwt>
</event>
<event>
 4    1  0.2721071E+004  0.2542488E+02  0.7546771E-02  0.1654973E+00
         21   -1    0    0  503  502  0.00000000000E+00  0.00000000000E+00  0.19921017818E+03  0.19921017818E+03  0.00000000000E+00 0.  1.
         21   -1    0    0  501  503 -0.00000000000E+00 -0.00000000000E+00 -0.42224583631E+01  0.42224583631E+01  0.00000000000E+00 0. -1.
          2    1    1    2  501    0 -0.24757062090E+02  0.57889753078E+01  0.48553043912E+02  0.54807138509E+02  0.00000000000E+00 0. -1.
         -2    1    1    2    0  502  0.24757062090E+02 -0.57889753078E+01  0.14643467590E+03  0.14862549803E+03  0.00000000000E+00 0.  1.
<mgrwt>
<rscale>  2 0.25424877E+02</rscale>
<asrwt>0</asrwt>
<pdfrwt beam="1">  1       21 0.30647712E-01 0.25424877E+02</pdfrwt>
<pdfrwt beam="2">  1       21 0.64960913E-03 0.25424877E+02</pdfrwt>
<totfact> 0.56155406E+07</totfact>
</mgrwt>
</event>
<event>
 4    1  0.2721071E+004  0.2412593E+02  0.7546771E-02  0.1673883E+00
         21   -1    0    0  501  502  0.00000000000E+00  0.00000000000E+00  0.13060023961E+01  0.13060023961E+01  0.00000000000E+00 0. -1.
         21   -1    0    0  502  503 -0.00000000000E+00 -0.00000000000E+00 -0.11753129777E+04  0.11753129777E+04  0.00000000000E+00 0.  1.
          2    1    1    2  501    0  0.20409400452E+02 -0.12865340468E+02 -0.12347014185E+03  0.12580515307E+03  0.00000000000E+00 0. -1.
         -2    1    1    2    0  503 -0.20409400452E+02  0.12865340468E+02 -0.10505368335E+04  0.10508138270E+04  0.00000000000E+00 0.  1.
<mgrwt>
<rscale>  2 0.24125932E+02</rscale>
<asrwt>0</asrwt>
<pdfrwt beam="1">  1       21 0.20092308E-03 0.24125932E+02</pdfrwt>
<pdfrwt beam="2">  1       21 0.18081771E+00 0.24125932E+02</pdfrwt>
<totfact> 0.74221420E+06</totfact>
</mgrwt>
</event>
<event>
 4    1  0.2721071E+004  0.2949292E+02  0.7546771E-02  0.1603762E+00
         21   -1    0    0  503  502  0.00000000000E+00  0.00000000000E+00  0.75414514138E+00  0.75414514138E+00  0.00000000000E+00 0.  1.
         21   -1    0    0  501  503 -0.00000000000E+00 -0.00000000000E+00 -0.24403605988E+04  0.24403605988E+04  0.00000000000E+00 0. -1.
          2    1    1    2  501    0  0.29420296395E+02 -0.20684958929E+01 -0.21061700331E+04  0.21063765193E+04  0.00000000000E+00 0. -1.
         -2    1    1    2    0  502 -0.29420296395E+02  0.20684958929E+01 -0.33343642054E+03  0.33473822467E+03  0.00000000000E+00 0.  1.
<mgrwt>
<rscale>  2 0.29492923E+02</rscale>
<asrwt>0</asrwt>
<pdfrwt beam="1">  1       21 0.11602109E-03 0.29492923E+02</pdfrwt>
<pdfrwt beam="2">  1       21 0.37544409E+00 0.29492923E+02</pdfrwt>
<totfact> 0.16186214E+06</totfact>
</mgrwt>
</event>
<event>
 4    1  0.2721071E+004  0.5329631E+02  0.7546771E-02  0.1428332E+00
         21   -1    0    0  503  502  0.00000000000E+00  0.00000000000E+00  0.17017951852E+03  0.17017951852E+03  0.00000000000E+00 0.  1.
         21   -1    0    0  501  503 -0.00000000000E+00 -0.00000000000E+00 -0.38744552270E+02  0.38744552270E+02  0.00000000000E+00 0. -1.
          2    1    1    2  501    0  0.44272231915E+02 -0.29672651116E+02 -0.13094213716E+02  0.54881282563E+02  0.00000000000E+00 0. -1.
         -2    1    1    2    0  502 -0.44272231915E+02  0.29672651116E+02  0.14452917997E+03  0.15404278823E+03  0.00000000000E+00 0.  1.
<mgrwt>
<rscale>  2 0.53296311E+02</rscale>
<asrwt>0</asrwt>
<pdfrwt beam="1">  1       21 0.26181464E-01 0.53296311E+02</pdfrwt>
<pdfrwt beam="2">  1       21 0.59607004E-02 0.53296311E+02</pdfrwt>
<totfact> 0.26211972E+06</totfact>
</mgrwt>
</event>
<event>
 4    1  0.2721071E+004  0.2186029E+02  0.7546771E-02  0.1710679E+00
         21   -1    0    0  503  502  0.00000000000E+00  0.00000000000E+00  0.20564374409E+01  0.20564374409E+01  0.00000000000E+00 0. -1.
         21   -1    0    0  501  503 -0.00000000000E+00 -0.00000000000E+00 -0.40889978945E+03  0.40889978945E+03  0.00000000000E+00 0.  1.
          2    1    1    2  501    0  0.19181339967E+02  0.10485629845E+02 -0.33842841259E+03  0.33913369441E+03  0.00000000000E+00 0.  1.
         -2    1    1    2    0  502 -0.19181339967E+02 -0.10485629845E+02 -0.68414939415E+02  0.71822532477E+02  0.00000000000E+00 0. -1.
<mgrwt>
<rscale>  2 0.21860289E+02</rscale>
<asrwt>0</asrwt>
<pdfrwt beam="1">  1       21 0.31637527E-03 0.21860289E+02</pdfrwt>
<pdfrwt beam="2">  1       21 0.62907604E-01 0.21860289E+02</pdfrwt>
<totfact> 0.39509061E+07</totfact>
</mgrwt>
</event>
<event>
 4    1  0.2721071E+004  0.2399270E+02  0.7546771E-02  0.1675906E+00
         21   -1    0    0  503  502  0.00000000000E+00  0.00000000000E+00  0.17947444599E+04  0.17947444599E+04  0.00000000000E+00 0.  1.
         21   -1    0    0  501  503 -0.00000000000E+00 -0.00000000000E+00 -0.10621144407E+01  0.10621144407E+01  0.00000000000E+00 0. -1.
          2    1    1    2  501    0  0.12484821683E+02  0.20488510241E+02  0.14666694403E+03  0.14861642674E+03  0.00000000000E+00 0. -1.
         -2    1    1    2    0  502 -0.12484821683E+02 -0.20488510241E+02  0.16470154014E+04  0.16471901476E+04  0.00000000000E+00 0.  1.
<mgrwt>
<rscale>  2 0.23992704E+02</rscale>
<asrwt>0</asrwt>
<pdfrwt beam="1">  1       21 0.27611211E+00 0.23992704E+02</pdfrwt>
<pdfrwt beam="2">  1       21 0.16340366E-03 0.23992704E+02</pdfrwt>
<totfact> 0.31418925E+06</totfact>
</mgrwt>
</event>
<event>
 4    1  0.2721071E+004  0.3551413E+02  0.7546771E-02  0.1544082E+00
         21   -1    0    0  501  502  0.00000000000E+00  0.00000000000E+00  0.80390807697E+02  0.80390807697E+02  0.00000000000E+00 0.  1.
         21   -1    0    0  502  503 -0.00000000000E+00 -0.00000000000E+00 -0.28255126869E+02  0.28255126869E+02  0.00000000000E+00 0. -1.
          2    1    1    2  501    0 -0.19894694779E+02  0.29418608970E+02  0.62295070758E+02  0.71707247017E+02  0.00000000000E+00 0.  1.
         -2    1    1    2    0  503  0.19894694779E+02 -0.29418608970E+02 -0.10159389930E+02  0.36938687549E+02  0.00000000000E+00 0. -1.
<mgrwt>
<rscale>  2 0.35514130E+02</rscale>
<asrwt>0</asrwt>
<pdfrwt beam="1">  1       21 0.12367816E-01 0.35514130E+02</pdfrwt>
<pdfrwt beam="2">  1       21 0.43469426E-02 0.35514130E+02</pdfrwt>
<totfact> 0.15832089E+07</totfact>
</mgrwt>
</event>
<event>
 4    1  0.2721071E+004  0.2451879E+02  0.7546771E-02  0.1668011E+00
         21   -1    0    0  501  502  0.00000000000E+00  0.00000000000E+00  0.66225709320E+02  0.66225709320E+02  0.00000000000E+00 0. -1.
         21   -1    0    0  502  503 -0.00000000000E+00 -0.00000000000E+00 -0.81617167560E+02  0.81617167560E+02  0.00000000000E+00 0.  1.
          2    1    1    2  501    0  0.18462805187E+02  0.16133693326E+02  0.61993730599E+02  0.66666287352E+02  0.00000000000E+00 0. -1.
         -2    1    1    2    0  503 -0.18462805187E+02 -0.16133693326E+02 -0.77385188839E+02  0.81176589528E+02  0.00000000000E+00 0.  1.
<mgrwt>
<rscale>  2 0.24518794E+02</rscale>
<asrwt>0</asrwt>
<pdfrwt beam="1">  1       21 0.10188571E-01 0.24518794E+02</pdfrwt>
<pdfrwt beam="2">  1       21 0.12556487E-01 0.24518794E+02</pdfrwt>
<totfact> 0.36306494E+06</totfact>
</mgrwt>
</event>
<event>
 4    1  0.2721071E+004  0.2242841E+02  0.7546771E-02  0.1700946E+00
         21   -1    0    0  503  502  0.00000000000E+00  0.00000000000E+00  0.79538209872E+03  0.79538209872E+03  0.00000000000E+00 0. -1.
         21   -1    0    0  501  503 -0.00000000000E+00 -0.00000000000E+00 -0.11132810786E+01  0.11132810786E+01  0.00000000000E+00 0.  1.
          2    1    1    2  501    0  0.14709131403E+02  0.16931482691E+02  0.13540628945E+03  0.13725121812E+03  0.00000000000E+00 0.  1.
         -2    1    1    2    0  502 -0.14709131403E+02 -0.16931482691E+02  0.65886252820E+03  0.65924416168E+03  0.00000000000E+00 0. -1.
<mgrwt>
<rscale>  2 0.22428412E+02</rscale>
<asrwt>0</asrwt>
<pdfrwt beam="1">  1       21 0.12236602E+00 0.22428412E+02</pdfrwt>
<pdfrwt beam="2">  1       21 0.17127465E-03 0.22428412E+02</pdfrwt>
<totfact> 0.23351430E+07</totfact>
</mgrwt>
</event>
<event>
 4    1  0.2721071E+004  0.2093815E+02  0.7546771E-02  0.1727291E+00
         21   -1    0    0  501  502  0.00000000000E+00  0.00000000000E+00  0.34890112849E+03  0.34890112849E+03  0.00000000000E+00 0. -1.
         21   -1    0    0  502  503 -0.00000000000E+00 -0.00000000000E+00 -0.20160757886E+01  0.20160757886E+01  0.00000000000E+00 0.  1.
          2    1    1    2  501    0 -0.20803252544E+02 -0.23729052138E+01  0.28113793415E+03  0.28191655505E+03  0.00000000000E+00 0. -1.
         -2    1    1    2    0  503  0.20803252544E+02  0.23729052138E+01  0.65747118553E+02  0.69000649226E+02  0.00000000000E+00 0.  1.
<mgrwt>
<rscale>  2 0.20938147E+02</rscale>
<asrwt>0</asrwt>
<pdfrwt beam="1">  1       21 0.53677049E-01 0.20938147E+02</pdfrwt>
<pdfrwt beam="2">  1       21 0.31016578E-03 0.20938147E+02</pdfrwt>
<totfact> 0.55133333E+07</totfact>
</mgrwt>
</event>
<event>
 4    1  0.2721071E+004  0.2095528E+02  0.7546771E-02  0.1726972E+00
         21   -1    0    0  503  502  0.00000000000E+00  0.00000000000E+00  0.40359782818E+02  0.40359782818E+02  0.00000000000E+00 0. -1.
         21   -1    0    0  501  503 -0.00000000000E+00 -0.00000000000E+00 -0.12910439826E+02  0.12910439826E+02  0.00000000000E+00 0.  1.
          2    1    1    2  501    0  0.20752918478E+02 -0.29051639771E+01  0.31624621930E+01  0.21192564031E+02  0.00000000000E+00 0.  1.
         -2    1    1    2    0  502 -0.20752918478E+02  0.29051639771E+01  0.24286880799E+02  0.32077658612E+02  0.00000000000E+00 0. -1.
<mgrwt>
<rscale>  2 0.20955276E+02</rscale>
<asrwt>0</asrwt>
<pdfrwt beam="1">  1       21 0.62091973E-02 0.20955276E+02</pdfrwt>
<pdfrwt beam="2">  1       21 0.19862215E-02 0.20955276E+02</pdfrwt>
<totfact> 0.14896582E+08</totfact>
</mgrwt>
</event>
<event>
 4    1  0.2721071E+004  0.2355849E+02  0.7546771E-02  0.1682614E+00
         21   -1    0    0  503  502  0.00000000000E+00  0.00000000000E+00  0.38983089840E+02  0.38983089840E+02  0.00000000000E+00 0.  1.
         21   -1    0    0  501  503 -0.00000000000E+00 -0.00000000000E+00 -0.49353314042E+02  0.49353314042E+02  0.00000000000E+00 0. -1.
          2    1    1    2  501    0  0.22688064316E+02 -0.63446132932E+01 -0.42441950748E+02  0.48541956733E+02  0.00000000000E+00 0. -1.
         -2    1    1    2    0  502 -0.22688064316E+02  0.63446132932E+01  0.32071726546E+02  0.39794447149E+02  0.00000000000E+00 0.  1.
<mgrwt>
<rscale>  2 0.23558488E+02</rscale>
<asrwt>0</asrwt>
<pdfrwt beam="1">  1       21 0.59973985E-02 0.23558488E+02</pdfrwt>
<pdfrwt beam="2">  1       21 0.75928175E-02 0.23558488E+02</pdfrwt>
<totfact> 0.19688040E+07</totfact>
</mgrwt>
</event>
<event>
 4    1  0.2721071E+004  0.2185830E+02  0.7546771E-02  0.1710714E+00
         21   -1    0    0  503  502  0.00000000000E+00  0.00000000000E+00  0.53316168053E+00  0.53316168053E+00  0.00000000000E+00 0. -1.
         21   -1    0    0  501  503 -0.00000000000E+00 -0.00000000000E+00 -0.15609499064E+04  0.15609499064E+04  0.00000000000E+00 0.  1.
          2    1    1    2  501    0  0.28650105391E+01 -0.21669721475E+02 -0.12897304521E+04  0.12899156655E+04  0.00000000000E+00 0.  1.
         -2    1    1    2    0  502 -0.28650105391E+01  0.21669721475E+02 -0.27068629263E+03  0.27156740255E+03  0.00000000000E+00 0. -1.
<mgrwt>
<rscale>  2 0.21858296E+02</rscale>
<asrwt>0</asrwt>
<pdfrwt beam="1">  1       21 0.82023121E-04 0.21858296E+02</pdfrwt>
<pdfrwt beam="2">  1       21 0.24015127E+00 0.21858296E+02</pdfrwt>
<totfact> 0.12574104E+07</totfact>
</mgrwt>
</event>
<event>
 4    1  0.2721071E+004  0.3239493E+02  0.7546771E-02  0.1573031E+00
         21   -1    0    0  501  502  0.00000000000E+00  0.00000000000E+00  0.75506045707E+02  0.75506045707E+02  0.00000000000E+00 0.  1.
         21   -1    0    0  502  503 -0.00000000000E+00 -0.00000000000E+00 -0.24384343142E+02  0.24384343142E+02  0.00000000000E+00 0. -1.
          2    1    1    2  501    0  0.19920907870E+02  0.25545823426E+02  0.58312779200E+02  0.66706910309E+02  0.00000000000E+00 0.  1.
         -2    1    1    2    0  503 -0.19920907870E+02 -0.25545823426E+02 -0.71910766349E+01  0.33183478541E+02  0.00000000000E+00 0. -1.
<mgrwt>
<rscale>  2 0.32394933E+02</rscale>
<asrwt>0</asrwt>
<pdfrwt beam="1">  1       21 0.11616315E-01 0.32394933E+02</pdfrwt>
<pdfrwt beam="2">  1       21 0.37514375E-02 0.32394933E+02</pdfrwt>
<totfact> 0.21933590E+07</totfact>
</mgrwt>
</event>
<event>
 4    1  0.2721071E+004  0.2751954E+02  0.7546771E-02  0.1627245E+00
         21   -1    0    0  501  502  0.00000000000E+00  0.00000000000E+00  0.11330480376E+03  0.11330480376E+03  0.00000000000E+00 0.  1.
         21   -1    0    0  502  503 -0.00000000000E+00 -0.00000000000E+00 -0.16122714157E+02  0.16122714157E+02  0.00000000000E+00 0. -1.
          2    1    1    2  501    0  0.21330900387E+02  0.17387280236E+02  0.98105827463E+02  0.10189248357E+03  0.00000000000E+00 0.  1.
         -2    1    1    2    0  503 -0.21330900387E+02 -0.17387280236E+02 -0.92373785558E+00  0.27535034355E+02  0.00000000000E+00 0. -1.
<mgrwt>
<rscale>  2 0.27519535E+02</rscale>
<asrwt>0</asrwt>
<pdfrwt beam="1">  1       21 0.17431508E-01 0.27519535E+02</pdfrwt>
<pdfrwt beam="2">  1       21 0.24804176E-02 0.27519535E+02</pdfrwt>
<totfact> 0.20335817E+07</totfact>
</mgrwt>
</event>
<event>
 4    1  0.2721071E+004  0.2131417E+02  0.7546771E-02  0.1720390E+00
         21   -1    0    0  501  502  0.00000000000E+00  0.00000000000E+00  0.18327320487E+02  0.18327320487E+02  0.00000000000E+00 0. -1.
         21   -1    0    0  502  503 -0.00000000000E+00 -0.00000000000E+00 -0.77292230585E+02  0.77292230585E+02  0.00000000000E+00 0.  1.
          2    1    1    2  501    0 -0.21215484733E+02  0.20486980711E+01  0.99221301712E+01  0.23510479012E+02  0.00000000000E+00 0. -1.
         -2    1    1    2    0  503  0.21215484733E+02 -0.20486980711E+01 -0.68887040270E+02  0.72109072060E+02  0.00000000000E+00 0.  1.
<mgrwt>
<rscale>  2 0.21314173E+02</rscale>
<asrwt>0</asrwt>
<pdfrwt beam="1">  1       21 0.28195878E-02 0.21314173E+02</pdfrwt>
<pdfrwt beam="2">  1       21 0.11891112E-01 0.21314173E+02</pdfrwt>
<totfact> 0.30199816E+07</totfact>
</mgrwt>
</event>
<event>
 4    1  0.2721071E+004  0.3364251E+02  0.7546771E-02  0.1560997E+00
         21   -1    0    0  503  502  0.00000000000E+00  0.00000000000E+00  0.14148157346E+04  0.14148157346E+04  0.00000000000E+00 0. -1.
         21   -1    0    0  501  503 -0.00000000000E+00 -0.00000000000E+00 -0.11605741547E+01  0.11605741547E+01  0.00000000000E+00 0.  1.
          2    1    1    2  501    0 -0.93887597528E+01 -0.32305879002E+02  0.31218740455E+03  0.31399489516E+03  0.00000000000E+00 0.  1.
         -2    1    1    2    0  502  0.93887597528E+01  0.32305879002E+02  0.11014677559E+04  0.11019814136E+04  0.00000000000E+00 0. -1.
<mgrwt>
<rscale>  2 0.33642512E+02</rscale>
<asrwt>0</asrwt>
<pdfrwt beam="1">  1       21 0.21766258E+00 0.33642512E+02</pdfrwt>
<pdfrwt beam="2">  1       21 0.17855100E-03 0.33642512E+02</pdfrwt>
<totfact> 0.55750796E+06</totfact>
</mgrwt>
</event>
<event>
 4    1  0.2721071E+004  0.2373941E+02  0.7546771E-02  0.1679797E+00
         21   -1    0    0  501  502  0.00000000000E+00  0.00000000000E+00  0.31049690903E+03  0.31049690903E+03  0.00000000000E+00 0.  1.
         21   -1    0    0  502  503 -0.00000000000E+00 -0.00000000000E+00 -0.37025306821E+01  0.37025306821E+01  0.00000000000E+00 0. -1.
          2    1    1    2  501    0  0.22862985780E+02  0.63908831745E+01  0.26556552212E+03  0.26662446633E+03  0.00000000000E+00 0.  1.
         -2    1    1    2    0  503 -0.22862985780E+02 -0.63908831745E+01  0.41228856227E+02  0.47574973382E+02  0.00000000000E+00 0. -1.
<mgrwt>
<rscale>  2 0.23739408E+02</rscale>
<asrwt>0</asrwt>
<pdfrwt beam="1">  1       21 0.47768735E-01 0.23739408E+02</pdfrwt>
<pdfrwt beam="2">  1       21 0.56962035E-03 0.23739408E+02</pdfrwt>
<totfact> 0.29186001E+07</totfact>
</mgrwt>
</event>
<event>
 4    1  0.2721071E+004  0.3991957E+02  0.7546771E-02  0.1508804E+00
         21   -1    0    0  503  502  0.00000000000E+00  0.00000000000E+00  0.32095151129E+02  0.32095151129E+02  0.00000000000E+00 0. -1.
         21   -1    0    0  501  503 -0.00000000000E+00 -0.00000000000E+00 -0.60092417644E+02  0.60092417644E+02  0.00000000000E+00 0.  1.
          2    1    1    2  501    0 -0.29075622496E+02 -0.27352888895E+02 -0.33211929972E+02  0.51928842149E+02  0.00000000000E+00 0.  1.
         -2    1    1    2    0  502  0.29075622496E+02  0.27352888895E+02  0.52146634569E+01  0.40258726624E+02  0.00000000000E+00 0. -1.
<mgrwt>
<rscale>  2 0.39919574E+02</rscale>
<asrwt>0</asrwt>
<pdfrwt beam="1">  1       21 0.49377156E-02 0.39919574E+02</pdfrwt>
<pdfrwt beam="2">  1       21 0.92449872E-02 0.39919574E+02</pdfrwt>
<totfact> 0.21493958E+07</totfact>
</mgrwt>
</event>
<event>
 4    1  0.2721071E+004  0.2114726E+02  0.7546771E-02  0.1723431E+00
         21   -1    0    0  501  502  0.00000000000E+00  0.00000000000E+00  0.12117135214E+03  0.12117135214E+03  0.00000000000E+00 0. -1.
         21   -1    0    0  502  503 -0.00000000000E+00 -0.00000000000E+00 -0.13932626253E+02  0.13932626253E+02  0.00000000000E+00 0.  1.
          2    1    1    2  501    0 -0.19282297672E+02  0.86832947550E+01  0.11153722976E+03  0.11352427157E+03  0.00000000000E+00 0. -1.
         -2    1    1    2    0  503  0.19282297672E+02 -0.86832947550E+01 -0.42985038744E+01  0.21579706830E+02  0.00000000000E+00 0.  1.
<mgrwt>
<rscale>  2 0.21147260E+02</rscale>
<asrwt>0</asrwt>
<pdfrwt beam="1">  1       21 0.18641746E-01 0.21147260E+02</pdfrwt>
<pdfrwt beam="2">  1       21 0.21434810E-02 0.21147260E+02</pdfrwt>
<totfact> 0.21450664E+07</totfact>
</mgrwt>
</event>
<event>
 4    1  0.2721071E+004  0.2710134E+02  0.7546771E-02  0.1632533E+00
         21   -1    0    0  501  502  0.00000000000E+00  0.00000000000E+00  0.44446296235E+02  0.44446296235E+02  0.00000000000E+00 0.  1.
         21   -1    0    0  502  503 -0.00000000000E+00 -0.00000000000E+00 -0.16542811618E+02  0.16542811618E+02  0.00000000000E+00 0. -1.
          2    1    1    2  501    0 -0.26983337128E+02 -0.25262390863E+01  0.14947725052E+02  0.30950231836E+02  0.00000000000E+00 0. -1.
         -2    1    1    2    0  503  0.26983337128E+02  0.25262390863E+01  0.12955759564E+02  0.30038876017E+02  0.00000000000E+00 0.  1.
<mgrwt>
<rscale>  2 0.27101335E+02</rscale>
<asrwt>0</asrwt>
<pdfrwt beam="1">  1       21 0.68378917E-02 0.27101335E+02</pdfrwt>
<pdfrwt beam="2">  1       21 0.25450480E-02 0.27101335E+02</pdfrwt>
<totfact> 0.93574481E+07</totfact>
</mgrwt>
</event>
<event>
 4    1  0.2721071E+004  0.3360569E+02  0.7546771E-02  0.1561343E+00
         21   -1    0    0  501  502  0.00000000000E+00  0.00000000000E+00  0.59163391833E+03  0.59163391833E+03  0.00000000000E+00 0. -1.
         21   -1    0    0  502  503 -0.00000000000E+00 -0.00000000000E+00 -0.23577015740E+01  0.23577015740E+01  0.00000000000E+00 0.  1.
          2    1    1    2  501    0  0.22229759390E+02 -0.25202786808E+02  0.42422331736E+03  0.42555230661E+03  0.00000000000E+00 0. -1.
         -2    1    1    2    0  503 -0.22229759390E+02  0.25202786808E+02  0.16505289940E+03  0.16843931330E+03  0.00000000000E+00 0.  1.
<mgrwt>
<rscale>  2 0.33605694E+02</rscale>
<asrwt>0</asrwt>
<pdfrwt beam="1">  1       21 0.91020484E-01 0.33605694E+02</pdfrwt>
<pdfrwt beam="2">  1       21 0.36272379E-03 0.33605694E+02</pdfrwt>
<totfact> 0.16145323E+07</totfact>
</mgrwt>
</event>
<event>
 4    1  0.2721071E+004  0.2475733E+02  0.7546771E-02  0.1664512E+00
         21   -1    0    0  501  502  0.00000000000E+00  0.00000000000E+00  0.31956930476E+03  0.31956930476E+03  0.00000000000E+00 0. -1.
         21   -1    0    0  502  503 -0.00000000000E+00 -0.00000000000E+00 -0.28026609829E+01  0.28026609829E+01  0.00000000000E+00 0.  1.
          2    1    1    2  501    0  0.12334417577E+02 -0.21465967325E+02  0.24894340500E+03  0.25017143023E+03  0.00000000000E+00 0. -1.
         -2    1    1    2    0  503 -0.12334417577E+02  0.21465967325E+02  0.67823238778E+02  0.72200535514E+02  0.00000000000E+00 0.  1.
<mgrwt>
<rscale>  2 0.24757334E+02</rscale>
<asrwt>0</asrwt>
<pdfrwt beam="1">  1       21 0.49164480E-01 0.24757334E+02</pdfrwt>
<pdfrwt beam="2">  1       21 0.43117887E-03 0.24757334E+02</pdfrwt>
<totfact> 0.42025936E+07</totfact>
</mgrwt>
</event>
<event>
 4    1  0.2721071E+004  0.4922118E+02  0.7546771E-02  0.1449588E+00
         21   -1    0    0  501  502  0.00000000000E+00  0.00000000000E+00  0.27159122764E+01  0.27159122764E+01  0.00000000000E+00 0.  1.
         21   -1    0    0  502  503 -0.00000000000E+00 -0.00000000000E+00 -0.89583792961E+03  0.89583792961E+03  0.00000000000E+00 0. -1.
          2    1    1    2  501    0 -0.19352030970E+02  0.45257304163E+02 -0.41733947771E+03  0.42023203630E+03  0.00000000000E+00 0. -1.
         -2    1    1    2    0  503  0.19352030970E+02 -0.45257304163E+02 -0.47578253963E+03  0.47832180558E+03  0.00000000000E+00 0.  1.
<mgrwt>
<rscale>  2 0.49221181E+02</rscale>
<asrwt>0</asrwt>
<pdfrwt beam="1">  1       21 0.41783265E-03 0.49221181E+02</pdfrwt>
<pdfrwt beam="2">  1       21 0.13782122E+00 0.49221181E+02</pdfrwt>
<totfact> 0.52469858E+06</totfact>
</mgrwt>
</event>
<event>
 4    1  0.2721071E+004  0.2569041E+02  0.7546771E-02  0.1651279E+00
         21   -1    0    0  503  502  0.00000000000E+00  0.00000000000E+00  0.74806440405E+02  0.74806440405E+02  0.00000000000E+00 0. -1.
         21   -1    0    0  501  503 -0.00000000000E+00 -0.00000000000E+00 -0.12965139838E+02  0.12965139838E+02  0.00000000000E+00 0.  1.
          2    1    1    2  501    0 -0.57934832103E+01 -0.25028640564E+02  0.61143691075E+01  0.26408006471E+02  0.00000000000E+00 0.  1.
         -2    1    1    2    0  502  0.57934832103E+01  0.25028640564E+02  0.55726931460E+02  0.61363573772E+02  0.00000000000E+00 0. -1.
<mgrwt>
<rscale>  2 0.25690413E+02</rscale>
<asrwt>0</asrwt>
<pdfrwt beam="1">  1       21 0.11508683E-01 0.25690413E+02</pdfrwt>
<pdfrwt beam="2">  1       21 0.19946369E-02 0.25690413E+02</pdfrwt>
<totfact> 0.56995843E+07</totfact>
</mgrwt>
</event>
<event>
 4    1  0.2721071E+004  0.4250933E+02  0.7546771E-02  0.1490518E+00
         21   -1    0    0  501  502  0.00000000000E+00  0.00000000000E+00  0.15157549164E+02  0.15157549164E+02  0.00000000000E+00 0. -1.
         21   -1    0    0  502  503 -0.00000000000E+00 -0.00000000000E+00 -0.13657244888E+03  0.13657244888E+03  0.00000000000E+00 0.  1.
          2    1    1    2  501    0 -0.63344712617E-01  0.42509279398E+02 -0.33663292686E+02  0.54224165480E+02  0.00000000000E+00 0. -1.
         -2    1    1    2    0  503  0.63344712617E-01 -0.42509279398E+02 -0.87751607028E+02  0.97505832561E+02  0.00000000000E+00 0.  1.
<mgrwt>
<rscale>  2 0.42509327E+02</rscale>
<asrwt>0</asrwt>
<pdfrwt beam="1">  1       21 0.23319305E-02 0.42509327E+02</pdfrwt>
<pdfrwt beam="2">  1       21 0.21011147E-01 0.42509327E+02</pdfrwt>
<totfact> 0.17346510E+07</totfact>
</mgrwt>
</event>
<event>
 4    1  0.2721071E+004  0.2765659E+02  0.7546771E-02  0.1625537E+00
         21   -1    0    0  501  502  0.00000000000E+00  0.00000000000E+00  0.31706230241E+02  0.31706230241E+02  0.00000000000E+00 0. -1.
         21   -1    0    0  502  503 -0.00000000000E+00 -0.00000000000E+00 -0.24274829375E+02  0.24274829375E+02  0.00000000000E+00 0.  1.
          2    1    1    2  501    0 -0.27656422250E+02 -0.96493720179E-01  0.59206960263E+01  0.28283239633E+02  0.00000000000E+00 0. -1.
         -2    1    1    2    0  503  0.27656422250E+02  0.96493720179E-01  0.15107048398E+01  0.27697819983E+02  0.00000000000E+00 0.  1.
<mgrwt>
<rscale>  2 0.27656591E+02</rscale>
<asrwt>0</asrwt>
<pdfrwt beam="1">  1       21 0.48778815E-02 0.27656591E+02</pdfrwt>
<pdfrwt beam="2">  1       21 0.37345892E-02 0.27656591E+02</pdfrwt>
<totfact> 0.88896422E+07</totfact>
</mgrwt>
</event>
<event>
 4    1  0.2721071E+004  0.2192937E+02  0.7546771E-02  0.1709476E+00
         21   -1    0    0  501  502  0.00000000000E+00  0.00000000000E+00  0.51873184055E+02  0.51873184055E+02  0.00000000000E+00 0.  1.
         21   -1    0    0  502  503 -0.00000000000E+00 -0.00000000000E+00 -0.28381186739E+02  0.28381186739E+02  0.00000000000E+00 0. -1.
          2    1    1    2  501    0 -0.90288172752E+01 -0.19984440237E+02  0.44673594883E+02  0.49765725884E+02  0.00000000000E+00 0.  1.
         -2    1    1    2    0  503  0.90288172752E+01  0.19984440237E+02 -0.21181597567E+02  0.30488644910E+02  0.00000000000E+00 0. -1.
<mgrwt>
<rscale>  2 0.21929373E+02</rscale>
<asrwt>0</asrwt>
<pdfrwt beam="1">  1       21 0.79804898E-02 0.21929373E+02</pdfrwt>
<pdfrwt beam="2">  1       21 0.43663364E-02 0.21929373E+02</pdfrwt>
<totfact> 0.29604442E+07</totfact>
</mgrwt>
</event>
<event>
 4    1  0.2721071E+004  0.3119432E+02  0.7546771E-02  0.1585250E+00
         21   -1    0    0  501  502  0.00000000000E+00  0.00000000000E+00  0.39145884190E+03  0.39145884190E+03  0.00000000000E+00 0.  1.
         21   -1    0    0  502  503 -0.00000000000E+00 -0.00000000000E+00 -0.25705126758E+01  0.25705126758E+01  0.00000000000E+00 0. -1.
          2    1    1    2  501    0 -0.30627353294E+02 -0.59203699250E+01  0.23021108093E+03  0.23231493136E+03  0.00000000000E+00 0. -1.
         -2    1    1    2    0  503  0.30627353294E+02  0.59203699250E+01  0.15867724829E+03  0.16171442322E+03  0.00000000000E+00 0.  1.
<mgrwt>
<rscale>  2 0.31194319E+02</rscale>
<asrwt>0</asrwt>
<pdfrwt beam="1">  1       21 0.60224390E-01 0.31194319E+02</pdfrwt>
<pdfrwt beam="2">  1       21 0.39546380E-03 0.31194319E+02</pdfrwt>
<totfact> 0.33428742E+07</totfact>
</mgrwt>
</event>
<event>
 4    1  0.2721071E+004  0.3056521E+02  0.7546771E-02  0.1591924E+00
         21   -1    0    0  503  502  0.00000000000E+00  0.00000000000E+00  0.28200822842E+02  0.28200822842E+02  0.00000000000E+00 0.  1.
         21   -1    0    0  501  503 -0.00000000000E+00 -0.00000000000E+00 -0.33152403976E+02  0.33152403976E+02  0.00000000000E+00 0. -1.
          2    1    1    2  501    0  0.19251631680E+02  0.23740406087E+02 -0.33109015443E+01  0.30744011979E+02  0.00000000000E+00 0. -1.
         -2    1    1    2    0  502 -0.19251631680E+02 -0.23740406087E+02 -0.16406795901E+01  0.30609214839E+02  0.00000000000E+00 0.  1.
<mgrwt>
<rscale>  2 0.30565212E+02</rscale>
<asrwt>0</asrwt>
<pdfrwt beam="1">  1       21 0.43385881E-02 0.30565212E+02</pdfrwt>
<pdfrwt beam="2">  1       21 0.51003699E-02 0.30565212E+02</pdfrwt>
<totfact> 0.66808344E+07</totfact>
</mgrwt>
</event>
<event>
 4    1  0.2721071E+004  0.5260442E+02  0.7546771E-02  0.1431780E+00
         21   -1    0    0  503  502  0.00000000000E+00  0.00000000000E+00  0.20941963649E+03  0.20941963649E+03  0.00000000000E+00 0. -1.
         21   -1    0    0  501  503 -0.00000000000E+00 -0.00000000000E+00 -0.20465014630E+02  0.20465014630E+02  0.00000000000E+00 0.  1.
          2    1    1    2  501    0 -0.52526956370E+02  0.28537538806E+01  0.26057806934E+02  0.58704636605E+02  0.00000000000E+00 0.  1.
         -2    1    1    2    0  502  0.52526956370E+02 -0.28537538806E+01  0.16289681493E+03  0.17118001452E+03  0.00000000000E+00 0. -1.
<mgrwt>
<rscale>  2 0.52604421E+02</rscale>
<asrwt>0</asrwt>
<pdfrwt beam="1">  1       21 0.32218404E-01 0.52604421E+02</pdfrwt>
<pdfrwt beam="2">  1       21 0.31484639E-02 0.52604421E+02</pdfrwt>
<totfact> 0.50211995E+06</totfact>
</mgrwt>
</event>
<event>
 4    1  0.2721071E+004  0.2018053E+02  0.7546771E-02  0.1741762E+00
         21   -1    0    0  501  502  0.00000000000E+00  0.00000000000E+00  0.11328603039E+03  0.11328603039E+03  0.00000000000E+00 0.  1.
         21   -1    0    0  502  503 -0.00000000000E+00 -0.00000000000E+00 -0.42007361927E+01  0.42007361927E+01  0.00000000000E+00 0. -1.
          2    1    1    2  501    0  0.20085028267E+02  0.19610268413E+01  0.76850995405E+02  0.79456462806E+02  0.00000000000E+00 0.  1.
         -2    1    1    2    0  503 -0.20085028267E+02 -0.19610268413E+01  0.32234298792E+02  0.38030303777E+02  0.00000000000E+00 0. -1.
<mgrwt>
<rscale>  2 0.20180535E+02</rscale>
<asrwt>0</asrwt>
<pdfrwt beam="1">  1       21 0.17428618E-01 0.20180535E+02</pdfrwt>
<pdfrwt beam="2">  1       21 0.64626719E-03 0.20180535E+02</pdfrwt>
<totfact> 0.14433671E+08</totfact>
</mgrwt>
</event>
<event>
 4    1  0.2721071E+004  0.2367603E+02  0.7546771E-02  0.1680781E+00
         21   -1    0    0  503  502  0.00000000000E+00  0.00000000000E+00  0.58519261908E+03  0.58519261908E+03  0.00000000000E+00 0.  1.
         21   -1    0    0  501  503 -0.00000000000E+00 -0.00000000000E+00 -0.19331284517E+01  0.19331284517E+01  0.00000000000E+00 0. -1.
          2    1    1    2  501    0 -0.18314226299E+02 -0.15004782119E+02  0.83120854016E+02  0.86427025540E+02  0.00000000000E+00 0.  1.
         -2    1    1    2    0  502  0.18314226299E+02  0.15004782119E+02  0.50013863661E+03  0.50069872199E+03  0.00000000000E+00 0. -1.
<mgrwt>
<rscale>  2 0.23676029E+02</rscale>
<asrwt>0</asrwt>
<pdfrwt beam="1">  1       21 0.90029493E-01 0.23676029E+02</pdfrwt>
<pdfrwt beam="2">  1       21 0.29740484E-03 0.23676029E+02</pdfrwt>
<totfact> 0.20892402E+07</totfact>
</mgrwt>
</event>
<event>
 4    1  0.2721071E+004  0.2343383E+02  0.7546771E-02  0.1684573E+00
         21   -1    0    0  503  502  0.00000000000E+00  0.00000000000E+00  0.23192671628E+02  0.23192671628E+02  0.00000000000E+00 0.  1.
         21   -1    0    0  501  503 -0.00000000000E+00 -0.00000000000E+00 -0.29010466631E+02  0.29010466631E+02  0.00000000000E+00 0. -1.
          2    1    1    2  501    0  0.19601974306E+02 -0.12841614211E+02 -0.14100022467E+02  0.27348767537E+02  0.00000000000E+00 0. -1.
         -2    1    1    2    0  502 -0.19601974306E+02  0.12841614211E+02  0.82822274638E+01  0.24854370722E+02  0.00000000000E+00 0.  1.
<mgrwt>
<rscale>  2 0.23433831E+02</rscale>
<asrwt>0</asrwt>
<pdfrwt beam="1">  1       21 0.35681033E-02 0.23433831E+02</pdfrwt>
<pdfrwt beam="2">  1       21 0.44631487E-02 0.23433831E+02</pdfrwt>
<totfact> 0.10525362E+08</totfact>
</mgrwt>
</event>
<event>
 4    1  0.2721071E+004  0.2955399E+02  0.7546771E-02  0.1603072E+00
         21   -1    0    0  503  502  0.00000000000E+00  0.00000000000E+00  0.15928050328E+03  0.15928050328E+03  0.00000000000E+00 0. -1.
         21   -1    0    0  501  503 -0.00000000000E+00 -0.00000000000E+00 -0.15285977929E+02  0.15285977929E+02  0.00000000000E+00 0.  1.
          2    1    1    2  501    0 -0.24984583806E+02 -0.15786347274E+02  0.21018119982E+01  0.29628631455E+02  0.00000000000E+00 0.  1.
         -2    1    1    2    0  502  0.24984583806E+02  0.15786347274E+02  0.14189271335E+03  0.14493784975E+03  0.00000000000E+00 0. -1.
<mgrwt>
<rscale>  2 0.29553988E+02</rscale>
<asrwt>0</asrwt>
<pdfrwt beam="1">  1       21 0.24504692E-01 0.29553988E+02</pdfrwt>
<pdfrwt beam="2">  1       21 0.23516890E-02 0.29553988E+02</pdfrwt>
<totfact> 0.12268139E+07</totfact>
</mgrwt>
</event>
<event>
 4    1  0.2721071E+004  0.2629193E+02  0.7546771E-02  0.1643110E+00
         21   -1    0    0  501  502  0.00000000000E+00  0.00000000000E+00  0.64174137181E+02  0.64174137181E+02  0.00000000000E+00 0. -1.
         21   -1    0    0  502  503 -0.00000000000E+00 -0.00000000000E+00 -0.26106460405E+02  0.26106460405E+02  0.00000000000E+00 0.  1.
          2    1    1    2  501    0  0.23833279635E+02  0.11101372835E+02  0.53630060616E+02  0.59728126529E+02  0.00000000000E+00 0. -1.
         -2    1    1    2    0  503 -0.23833279635E+02 -0.11101372835E+02 -0.15562383839E+02  0.30552471058E+02  0.00000000000E+00 0.  1.
<mgrwt>
<rscale>  2 0.26291932E+02</rscale>
<asrwt>0</asrwt>
<pdfrwt beam="1">  1       21 0.98729441E-02 0.26291932E+02</pdfrwt>
<pdfrwt beam="2">  1       21 0.40163786E-02 0.26291932E+02</pdfrwt>
<totfact> 0.24811363E+07</totfact>
</mgrwt>
</event>
<event>
 4    1  0.2721071E+004  0.3401570E+02  0.7546771E-02  0.1557519E+00
         21   -1    0    0  501  502  0.00000000000E+00  0.00000000000E+00  0.10936316282E+03  0.10936316282E+03  0.00000000000E+00 0.  1.
         21   -1    0    0  502  503 -0.00000000000E+00 -0.00000000000E+00 -0.13657529913E+02  0.13657529913E+02  0.00000000000E+00 0. -1.
          2    1    1    2  501    0 -0.32317808829E+02  0.10612583376E+02  0.77051261905E+02  0.84225676932E+02  0.00000000000E+00 0.  1.
         -2    1    1    2    0  503  0.32317808829E+02 -0.10612583376E+02  0.18654371000E+02  0.38795015798E+02  0.00000000000E+00 0. -1.
<mgrwt>
<rscale>  2 0.34015698E+02</rscale>
<asrwt>0</asrwt>
<pdfrwt beam="1">  1       21 0.16825101E-01 0.34015698E+02</pdfrwt>
<pdfrwt beam="2">  1       21 0.21011585E-02 0.34015698E+02</pdfrwt>
<totfact> 0.29163109E+07</totfact>
</mgrwt>
</event>
<event>
 4    1  0.2721071E+004  0.2443321E+02  0.7546771E-02  0.1669279E+00
         21   -1    0    0  501  502  0.00000000000E+00  0.00000000000E+00  0.97699985203E+00  0.97699985203E+00  0.00000000000E+00 0. -1.
         21   -1    0    0  502  503 -0.00000000000E+00 -0.00000000000E+00 -0.61345019896E+03  0.61345019896E+03  0.00000000000E+00 0.  1.
          2    1    1    2  501    0  0.24176353786E+02  0.35334778844E+01 -0.28696195417E+03  0.28800025119E+03  0.00000000000E+00 0. -1.
         -2    1    1    2    0  503 -0.24176353786E+02 -0.35334778844E+01 -0.32551124494E+03  0.32642694762E+03  0.00000000000E+00 0.  1.
<mgrwt>
<rscale>  2 0.24433206E+02</rscale>
<asrwt>0</asrwt>
<pdfrwt beam="1">  1       21 0.15030718E-03 0.24433206E+02</pdfrwt>
<pdfrwt beam="2">  1       21 0.94377264E-01 0.24433206E+02</pdfrwt>
<totfact> 0.51013739E+07</totfact>
</mgrwt>
</event>
<event>
 4    1  0.2721071E+004  0.2311205E+02  0.7546771E-02  0.1689700E+00
         21   -1    0    0  503  502  0.00000000000E+00  0.00000000000E+00  0.29949205028E+02  0.29949205028E+02  0.00000000000E+00 0.  1.
         21   -1    0    0  501  503 -0.00000000000E+00 -0.00000000000E+00 -0.22391400954E+02  0.22391400954E+02  0.00000000000E+00 0. -1.
          2    1    1    2  501    0 -0.46062229925E+01  0.22648394194E+02 -0.80254598898E+01  0.24465793596E+02  0.00000000000E+00 0. -1.
         -2    1    1    2    0  502  0.46062229925E+01 -0.22648394194E+02  0.15583263964E+02  0.27874812387E+02  0.00000000000E+00 0.  1.
<mgrwt>
<rscale>  2 0.23112054E+02</rscale>
<asrwt>0</asrwt>
<pdfrwt beam="1">  1       21 0.46075700E-02 0.23112054E+02</pdfrwt>
<pdfrwt beam="2">  1       21 0.34448309E-02 0.23112054E+02</pdfrwt>
<totfact> 0.10531837E+08</totfact>
</mgrwt>
</event>
<event>
 4    1  0.2721071E+004  0.2070863E+02  0.7546771E-02  0.1731592E+00
         21   -1    0    0  501  502  0.00000000000E+00  0.00000000000E+00  0.16669032121E+02  0.16669032121E+02  0.00000000000E+00 0.  1.
         21   -1    0    0  502  503 -0.00000000000E+00 -0.00000000000E+00 -0.25775821936E+02  0.25775821936E+02  0.00000000000E+00 0. -1.
          2    1    1    2  501    0 -0.12342462019E+02  0.16628619226E+02 -0.54752281473E+01  0.21420211701E+02  0.00000000000E+00 0. -1.
         -2    1    1    2    0  503  0.12342462019E+02 -0.16628619226E+02 -0.36315616679E+01  0.21024642356E+02  0.00000000000E+00 0.  1.
<mgrwt>
<rscale>  2 0.20708630E+02</rscale>
<asrwt>0</asrwt>
<pdfrwt beam="1">  1       21 0.25644665E-02 0.20708630E+02</pdfrwt>
<pdfrwt beam="2">  1       21 0.39655110E-02 0.20708630E+02</pdfrwt>
<totfact> 0.20408913E+08</totfact>
</mgrwt>
</event>
<event>
 4    1  0.2721071E+004  0.3389458E+02  0.7546771E-02  0.1558642E+00
         21   -1    0    0  501  502  0.00000000000E+00  0.00000000000E+00  0.38884420655E+02  0.38884420655E+02  0.00000000000E+00 0.  1.
         21   -1    0    0  502  503 -0.00000000000E+00 -0.00000000000E+00 -0.30860682049E+02  0.30860682049E+02  0.00000000000E+00 0. -1.
          2    1    1    2  501    0  0.42931602666E+01 -0.33621594817E+02  0.11212079386E+02  0.35700890567E+02  0.00000000000E+00 0.  1.
         -2    1    1    2    0  503 -0.42931602666E+01  0.33621594817E+02 -0.31883407798E+01  0.34044212138E+02  0.00000000000E+00 0. -1.
<mgrwt>
<rscale>  2 0.33894585E+02</rscale>
<asrwt>0</asrwt>
<pdfrwt beam="1">  1       21 0.59822186E-02 0.33894585E+02</pdfrwt>
<pdfrwt beam="2">  1       21 0.47477972E-02 0.33894585E+02</pdfrwt>
<totfact> 0.45664175E+07</totfact>
</mgrwt>
</event>
<event>
 4    1  0.2721071E+004  0.2638597E+02  0.7546771E-02  0.1641857E+00
         21   -1    0    0  501  502  0.00000000000E+00  0.00000000000E+00  0.68588485309E+01  0.68588485309E+01  0.00000000000E+00 0. -1.
         21   -1    0    0  502  503 -0.00000000000E+00 -0.00000000000E+00 -0.14437389331E+03  0.14437389331E+03  0.00000000000E+00 0.  1.
          2    1    1    2  501    0  0.23810325617E+02 -0.11370486623E+02 -0.27554065155E+02  0.38150309024E+02  0.00000000000E+00 0. -1.
         -2    1    1    2    0  503 -0.23810325617E+02  0.11370486623E+02 -0.10996097963E+03  0.11308243282E+03  0.00000000000E+00 0.  1.
<mgrwt>
<rscale>  2 0.26385973E+02</rscale>
<asrwt>0</asrwt>
<pdfrwt beam="1">  1       21 0.10552076E-02 0.26385973E+02</pdfrwt>
<pdfrwt beam="2">  1       21 0.22211366E-01 0.26385973E+02</pdfrwt>
<totfact> 0.48836961E+07</totfact>
</mgrwt>
</event>
<event>
 4    1  0.2721071E+004  0.3336166E+02  0.7546771E-02  0.1563650E+00
         21   -1    0    0  501  502  0.00000000000E+00  0.00000000000E+00  0.26110276587E+02  0.26110276587E+02  0.00000000000E+00 0.  1.
         21   -1    0    0  502  503 -0.00000000000E+00 -0.00000000000E+00 -0.43628274707E+02  0.43628274707E+02  0.00000000000E+00 0. -1.
          2    1    1    2  501    0 -0.27970843382E+02  0.18183305364E+02 -0.14041661492E+02  0.36196255758E+02  0.00000000000E+00 0. -1.
         -2    1    1    2    0  503  0.27970843382E+02 -0.18183305364E+02 -0.34763366288E+01  0.33542295536E+02  0.00000000000E+00 0.  1.
<mgrwt>
<rscale>  2 0.33361665E+02</rscale>
<asrwt>0</asrwt>
<pdfrwt beam="1">  1       21 0.40169656E-02 0.33361665E+02</pdfrwt>
<pdfrwt beam="2">  1       21 0.67120422E-02 0.33361665E+02</pdfrwt>
<totfact> 0.49305368E+07</totfact>
</mgrwt>
</event>
<event>
 4    1  0.2721071E+004  0.4372167E+02  0.7546771E-02  0.1482483E+00
         21   -1    0    0  503  502  0.00000000000E+00  0.00000000000E+00  0.35054338426E+02  0.35054338426E+02  0.00000000000E+00 0. -1.
         21   -1    0    0  501  503 -0.00000000000E+00 -0.00000000000E+00 -0.57134274460E+02  0.57134274460E+02  0.00000000000E+00 0.  1.
          2    1    1    2  501    0 -0.39635621901E+02 -0.18455400958E+02 -0.20877195241E+02  0.48450403808E+02  0.00000000000E+00 0. -1.
         -2    1    1    2    0  502  0.39635621901E+02  0.18455400958E+02 -0.12027407930E+01  0.43738209079E+02  0.00000000000E+00 0.  1.
<mgrwt>
<rscale>  2 0.43721669E+02</rscale>
<asrwt>0</asrwt>
<pdfrwt beam="1">  1       21 0.53929752E-02 0.43721669E+02</pdfrwt>
<pdfrwt beam="2">  1       21 0.87898883E-02 0.43721669E+02</pdfrwt>
<totfact> 0.20563348E+07</totfact>
</mgrwt>
</event>
<event>
 4    1  0.2721071E+004  0.3118195E+02  0.7546771E-02  0.1585380E+00
         21   -1    0    0  503  502  0.00000000000E+00  0.00000000000E+00  0.63946928461E+03  0.63946928461E+03  0.00000000000E+00 0. -1.
         21   -1    0    0  501  503 -0.00000000000E+00 -0.00000000000E+00 -0.15211005105E+01  0.15211005105E+01  0.00000000000E+00 0.  1.
          2    1    1    2  501    0 -0.22657001609E+02  0.21423691703E+02  0.31261639136E+03  0.31416766611E+03  0.00000000000E+00 0. -1.
         -2    1    1    2    0  502  0.22657001609E+02 -0.21423691703E+02  0.32533179275E+03  0.32682271901E+03  0.00000000000E+00 0.  1.
<mgrwt>
<rscale>  2 0.31181955E+02</rscale>
<asrwt>0</asrwt>
<pdfrwt beam="1">  1       21 0.98379675E-01 0.31181955E+02</pdfrwt>
<pdfrwt beam="2">  1       21 0.23401597E-03 0.31181955E+02</pdfrwt>
<totfact> 0.25651805E+07</totfact>
</mgrwt>
</event>
<event>
 4    1  0.2721071E+004  0.2146325E+02  0.7546771E-02  0.1717704E+00
         21   -1    0    0  503  502  0.00000000000E+00  0.00000000000E+00  0.71618617726E+01  0.71618617726E+01  0.00000000000E+00 0.  1.
         21   -1    0    0  501  503 -0.00000000000E+00 -0.00000000000E+00 -0.10128942695E+03  0.10128942695E+03  0.00000000000E+00 0. -1.
          2    1    1    2  501    0  0.16702672361E+02 -0.13479306108E+02 -0.79822554629E+02  0.82657795667E+02  0.00000000000E+00 0. -1.
         -2    1    1    2    0  502 -0.16702672361E+02  0.13479306108E+02 -0.14305010549E+02  0.25793493055E+02  0.00000000000E+00 0.  1.
<mgrwt>
<rscale>  2 0.21463247E+02</rscale>
<asrwt>0</asrwt>
<pdfrwt beam="1">  1       21 0.11018249E-02 0.21463247E+02</pdfrwt>
<pdfrwt beam="2">  1       21 0.15582989E-01 0.21463247E+02</pdfrwt>
<totfact> 0.80350598E+07</totfact>
</mgrwt>
</event>
<event>
 4    1  0.2721071E+004  0.2285453E+02  0.7546771E-02  0.1693879E+00
         21   -1    0    0  503  502  0.00000000000E+00  0.00000000000E+00  0.25737634212E+01  0.25737634212E+01  0.00000000000E+00 0.  1.
         21   -1    0    0  501  503 -0.00000000000E+00 -0.00000000000E+00 -0.22476340631E+03  0.22476340631E+03  0.00000000000E+00 0. -1.
          2    1    1    2  501    0 -0.45392085671E+01  0.22399219169E+02 -0.14651091862E+03  0.14828276605E+03  0.00000000000E+00 0. -1.
         -2    1    1    2    0  502  0.45392085671E+01 -0.22399219169E+02 -0.75678724271E+02  0.79054403679E+02  0.00000000000E+00 0.  1.
<mgrwt>
<rscale>  2 0.22854528E+02</rscale>
<asrwt>0</asrwt>
<pdfrwt beam="1">  1       21 0.39596357E-03 0.22854528E+02</pdfrwt>
<pdfrwt beam="2">  1       21 0.34578989E-01 0.22854528E+02</pdfrwt>
<totfact> 0.91026007E+07</totfact>
</mgrwt>
</event>
<event>
 4    1  0.2721071E+004  0.3093581E+02  0.7546771E-02  0.1587969E+00
         21   -1    0    0  501  502  0.00000000000E+00  0.00000000000E+00  0.23849164370E+03  0.23849164370E+03  0.00000000000E+00 0.  1.
         21   -1    0    0  502  503 -0.00000000000E+00 -0.00000000000E+00 -0.12788803349E+02  0.12788803349E+02  0.00000000000E+00 0. -1.
          2    1    1    2  501    0 -0.26291132911E+02  0.16303399256E+02  0.21693005650E+03  0.21912479072E+03  0.00000000000E+00 0.  1.
         -2    1    1    2    0  503  0.26291132911E+02 -0.16303399256E+02  0.87727838486E+01  0.32155656322E+02  0.00000000000E+00 0. -1.
<mgrwt>
<rscale>  2 0.30935813E+02</rscale>
<asrwt>0</asrwt>
<pdfrwt beam="1">  1       21 0.36691019E-01 0.30935813E+02</pdfrwt>
<pdfrwt beam="2">  1       21 0.19675084E-02 0.30935813E+02</pdfrwt>
<totfact> 0.77529311E+06</totfact>
</mgrwt>
</event>
<event>
 4    1  0.2721071E+004  0.3625395E+02  0.7546771E-02  0.1537739E+00
         21   -1    0    0  503  502  0.00000000000E+00  0.00000000000E+00  0.20744640600E+04  0.20744640600E+04  0.00000000000E+00 0.  1.
         21   -1    0    0  501  503 -0.00000000000E+00 -0.00000000000E+00 -0.73239790273E+00  0.73239790273E+00  0.00000000000E+00 0. -1.
          2    1    1    2  501    0  0.11691803920E+02 -0.34316916455E+02  0.65574490198E+03  0.65674631747E+03  0.00000000000E+00 0. -1.
         -2    1    1    2    0  502 -0.11691803920E+02  0.34316916455E+02  0.14179867601E+04  0.14184501405E+04  0.00000000000E+00 0.  1.
<mgrwt>
<rscale>  2 0.36253952E+02</rscale>
<asrwt>0</asrwt>
<pdfrwt beam="1">  1       21 0.31914361E+00 0.36253952E+02</pdfrwt>
<pdfrwt beam="2">  1       21 0.11267826E-03 0.36253952E+02</pdfrwt>
<totfact> 0.32573453E+06</totfact>
</mgrwt>
</event>
<event>
 4    1  0.2721071E+004  0.2097587E+02  0.7546771E-02  0.1726590E+00
         21   -1    0    0  501  502  0.00000000000E+00  0.00000000000E+00  0.31493962256E+01  0.31493962256E+01  0.00000000000E+00 0. -1.
         21   -1    0    0  502  503 -0.00000000000E+00 -0.00000000000E+00 -0.65073519636E+03  0.65073519636E+03  0.00000000000E+00 0.  1.
          2    1    1    2  501    0  0.17067820756E+02 -0.12193310460E+02 -0.34063800530E+02  0.40004122686E+02  0.00000000000E+00 0. -1.
         -2    1    1    2    0  503 -0.17067820756E+02  0.12193310460E+02 -0.61352199960E+03  0.61388046990E+03  0.00000000000E+00 0.  1.
<mgrwt>
<rscale>  2 0.20975875E+02</rscale>
<asrwt>0</asrwt>
<pdfrwt beam="1">  1       21 0.48452302E-03 0.20975875E+02</pdfrwt>
<pdfrwt beam="2">  1       21 0.10011300E+00 0.20975875E+02</pdfrwt>
<totfact> 0.79578186E+06</totfact>
</mgrwt>
</event>
<event>
 4    1  0.2721071E+004  0.3354697E+02  0.7546771E-02  0.1561896E+00
         21   -1    0    0  503  502  0.00000000000E+00  0.00000000000E+00  0.14802976598E+01  0.14802976598E+01  0.00000000000E+00 0. -1.
         21   -1    0    0  501  503 -0.00000000000E+00 -0.00000000000E+00 -0.87810472864E+03  0.87810472864E+03  0.00000000000E+00 0.  1.
          2    1    1    2  501    0  0.15772765053E+01  0.33509873913E+02 -0.59943028625E+03  0.60036827658E+03  0.00000000000E+00 0.  1.
         -2    1    1    2    0  502 -0.15772765053E+01 -0.33509873913E+02 -0.27719414473E+03  0.27921674971E+03  0.00000000000E+00 0. -1.
<mgrwt>
<rscale>  2 0.33546974E+02</rscale>
<asrwt>0</asrwt>
<pdfrwt beam="1">  1       21 0.22773803E-03 0.33546974E+02</pdfrwt>
<pdfrwt beam="2">  1       21 0.13509308E+00 0.33546974E+02</pdfrwt>
<totfact> 0.13064517E+07</totfact>
</mgrwt>
</event>
<event>
 4    1  0.2721071E+004  0.2501421E+02  0.7546771E-02  0.1660798E+00
         21   -1    0    0  503  502  0.00000000000E+00  0.00000000000E+00  0.42418022839E+02  0.42418022839E+02  0.00000000000E+00 0.  1.
         21   -1    0    0  501  503 -0.00000000000E+00 -0.00000000000E+00 -0.14957643515E+02  0.14957643515E+02  0.00000000000E+00 0. -1.
          2    1    1    2  501    0 -0.13427892248E+02 -0.21104564099E+02  0.10358783220E+02  0.27074255407E+02  0.00000000000E+00 0.  1.
         -2    1    1    2    0  502  0.13427892248E+02  0.21104564099E+02  0.17101596105E+02  0.30301410947E+02  0.00000000000E+00 0. -1.
<mgrwt>
<rscale>  2 0.25014214E+02</rscale>
<asrwt>0</asrwt>
<pdfrwt beam="1">  1       21 0.65258496E-02 0.25014214E+02</pdfrwt>
<pdfrwt beam="2">  1       21 0.23011759E-02 0.25014214E+02</pdfrwt>
<totfact> 0.11554732E+08</totfact>
</mgrwt>
</event>
<event>
 4    1  0.2721071E+004  0.2101912E+02  0.7546771E-02  0.1725790E+00
         21   -1    0    0  503  502  0.00000000000E+00  0.00000000000E+00  0.19351487349E+02  0.19351487349E+02  0.00000000000E+00 0. -1.
         21   -1    0    0  501  503 -0.00000000000E+00 -0.00000000000E+00 -0.29713281095E+02  0.29713281095E+02  0.00000000000E+00 0.  1.
          2    1    1    2  501    0  0.16535737335E+02 -0.12975846556E+02 -0.16988124748E+02  0.27025905823E+02  0.00000000000E+00 0.  1.
         -2    1    1    2    0  502 -0.16535737335E+02  0.12975846556E+02  0.66263310023E+01  0.22038862621E+02  0.00000000000E+00 0. -1.
<mgrwt>
<rscale>  2 0.21019115E+02</rscale>
<asrwt>0</asrwt>
<pdfrwt beam="1">  1       21 0.29771519E-02 0.21019115E+02</pdfrwt>
<pdfrwt beam="2">  1       21 0.45712740E-02 0.21019115E+02</pdfrwt>
<totfact> 0.13015391E+08</totfact>
</mgrwt>
</event>
<event>
 4    1  0.2721071E+004  0.2285557E+02  0.7546771E-02  0.1693862E+00
         21   -1    0    0  501  502  0.00000000000E+00  0.00000000000E+00  0.31197480692E+02  0.31197480692E+02  0.00000000000E+00 0.  1.
         21   -1    0    0  502  503 -0.00000000000E+00 -0.00000000000E+00 -0.20179002765E+02  0.20179002765E+02  0.00000000000E+00 0. -1.
          2    1    1    2  501    0 -0.53656752321E+01 -0.22216807776E+02  0.16107511970E+02  0.27961204558E+02  0.00000000000E+00 0.  1.
         -2    1    1    2    0  503  0.53656752321E+01  0.22216807776E+02 -0.50890340423E+01  0.23415278899E+02  0.00000000000E+00 0. -1.
<mgrwt>
<rscale>  2 0.22855569E+02</rscale>
<asrwt>0</asrwt>
<pdfrwt beam="1">  1       21 0.47996124E-02 0.22855569E+02</pdfrwt>
<pdfrwt beam="2">  1       21 0.31044620E-02 0.22855569E+02</pdfrwt>
<totfact> 0.11575399E+08</totfact>
</mgrwt>
</event>
<event>
 4    1  0.2721071E+004  0.2456552E+02  0.7546771E-02  0.1667322E+00
         21   -1    0    0  501  502  0.00000000000E+00  0.00000000000E+00  0.10641509534E+03  0.10641509534E+03  0.00000000000E+00 0.  1.
         21   -1    0    0  502  503 -0.00000000000E+00 -0.00000000000E+00 -0.56746794435E+01  0.56746794435E+01  0.00000000000E+00 0. -1.
          2    1    1    2  501    0 -0.83481762855E+01 -0.23103518893E+02  0.51825060600E+02  0.57352432719E+02  0.00000000000E+00 0. -1.
         -2    1    1    2    0  503  0.83481762855E+01  0.23103518893E+02  0.48915355295E+02  0.54737342064E+02  0.00000000000E+00 0.  1.
<mgrwt>
<rscale>  2 0.24565517E+02</rscale>
<asrwt>0</asrwt>
<pdfrwt beam="1">  1       21 0.16371552E-01 0.24565517E+02</pdfrwt>
<pdfrwt beam="2">  1       21 0.87302769E-03 0.24565517E+02</pdfrwt>
<totfact> 0.10870754E+08</totfact>
</mgrwt>
</event>
<event>
 4    1  0.2721071E+004  0.2129270E+02  0.7546771E-02  0.1720779E+00
         21   -1    0    0  503  502  0.00000000000E+00  0.00000000000E+00  0.36163879195E+01  0.36163879195E+01  0.00000000000E+00 0.  1.
         21   -1    0    0  501  503 -0.00000000000E+00 -0.00000000000E+00 -0.19901984721E+03  0.19901984721E+03  0.00000000000E+00 0. -1.
          2    1    1    2  501    0 -0.18711642241E+02  0.10161380962E+02 -0.15933721542E+03  0.16075362340E+03  0.00000000000E+00 0. -1.
         -2    1    1    2    0  502  0.18711642241E+02 -0.10161380962E+02 -0.36066243875E+02  0.41882611734E+02  0.00000000000E+00 0.  1.
<mgrwt>
<rscale>  2 0.21292703E+02</rscale>
<asrwt>0</asrwt>
<pdfrwt beam="1">  1       21 0.55636738E-03 0.21292703E+02</pdfrwt>
<pdfrwt beam="2">  1       21 0.30618438E-01 0.21292703E+02</pdfrwt>
<totfact> 0.67717516E+07</totfact>
</mgrwt>
</event>
<event>
 4    1  0.2721071E+004  0.2087600E+02  0.7546771E-02  0.1728449E+00
         21   -1    0    0  501  502  0.00000000000E+00  0.00000000000E+00  0.82358398963E+00  0.82358398963E+00  0.00000000000E+00 0.  1.
         21   -1    0    0  502  503 -0.00000000000E+00 -0.00000000000E+00 -0.98740663649E+03  0.98740663649E+03  0.00000000000E+00 0. -1.
          2    1    1    2  501    0  0.19104719926E+02  0.84152802613E+01 -0.15667920446E+03  0.15806384905E+03  0.00000000000E+00 0.  1.
         -2    1    1    2    0  503 -0.19104719926E+02 -0.84152802613E+01 -0.82990384804E+03  0.83016637143E+03  0.00000000000E+00 0. -1.
<mgrwt>
<rscale>  2 0.20875997E+02</rscale>
<asrwt>0</asrwt>
<pdfrwt beam="1">  1       21 0.12670519E-03 0.20875997E+02</pdfrwt>
<pdfrwt beam="2">  1       21 0.15190876E+00 0.20875997E+02</pdfrwt>
<totfact> 0.21499259E+07</totfact>
</mgrwt>
</event>
<event>
 4    1  0.2721071E+004  0.2610556E+02  0.7546771E-02  0.1645612E+00
         21   -1    0    0  501  502  0.00000000000E+00  0.00000000000E+00  0.16094373776E+03  0.16094373776E+03  0.00000000000E+00 0.  1.
         21   -1    0    0  502  503 -0.00000000000E+00 -0.00000000000E+00 -0.12222114713E+02  0.12222114713E+02  0.00000000000E+00 0. -1.
          2    1    1    2  501    0 -0.23284511595E+02 -0.11803889131E+02  0.14435634612E+03  0.14669783552E+03  0.00000000000E+00 0.  1.
         -2    1    1    2    0  503  0.23284511595E+02  0.11803889131E+02  0.43652769181E+01  0.26468016953E+02  0.00000000000E+00 0. -1.
<mgrwt>
<rscale>  2 0.26105560E+02</rscale>
<asrwt>0</asrwt>
<pdfrwt beam="1">  1       21 0.24760574E-01 0.26105560E+02</pdfrwt>
<pdfrwt beam="2">  1       21 0.18803255E-02 0.26105560E+02</pdfrwt>
<totfact> 0.16643874E+07</totfact>
</mgrwt>
</event>
<event>
 4    1  0.2721071E+004  0.2271957E+02  0.7546771E-02  0.1696096E+00
         21   -1    0    0  503  502  0.00000000000E+00  0.00000000000E+00  0.16898515817E+03  0.16898515817E+03  0.00000000000E+00 0. -1.
         21   -1    0    0  501  503 -0.00000000000E+00 -0.00000000000E+00 -0.40264241479E+01  0.40264241479E+01  0.00000000000E+00 0.  1.
          2    1    1    2  501    0 -0.21951294493E+02 -0.58582961949E+01  0.39979911757E+02  0.45984478993E+02  0.00000000000E+00 0.  1.
         -2    1    1    2    0  502  0.21951294493E+02  0.58582961949E+01  0.12497882226E+03  0.12702710332E+03  0.00000000000E+00 0. -1.
<mgrwt>
<rscale>  2 0.22719572E+02</rscale>
<asrwt>0</asrwt>
<pdfrwt beam="1">  1       21 0.25997711E-01 0.22719572E+02</pdfrwt>
<pdfrwt beam="2">  1       21 0.61945000E-03 0.22719572E+02</pdfrwt>
<totfact> 0.78931508E+07</totfact>
</mgrwt>
</event>
<event>
 4    1  0.2721071E+004  0.2463669E+02  0.7546771E-02  0.1666276E+00
         21   -1    0    0  501  502  0.00000000000E+00  0.00000000000E+00  0.37020092008E+03  0.37020092008E+03  0.00000000000E+00 0. -1.
         21   -1    0    0  502  503 -0.00000000000E+00 -0.00000000000E+00 -0.23912106937E+01  0.23912106937E+01  0.00000000000E+00 0.  1.
          2    1    1    2  501    0 -0.19975305694E+02 -0.14420600456E+02  0.28835350752E+03  0.28940406330E+03  0.00000000000E+00 0. -1.
         -2    1    1    2    0  503  0.19975305694E+02  0.14420600456E+02  0.79456201868E+02  0.83188067476E+02  0.00000000000E+00 0.  1.
<mgrwt>
<rscale>  2 0.24636691E+02</rscale>
<asrwt>0</asrwt>
<pdfrwt beam="1">  1       21 0.56953942E-01 0.24636691E+02</pdfrwt>
<pdfrwt beam="2">  1       21 0.36787886E-03 0.24636691E+02</pdfrwt>
<totfact> 0.39705655E+07</totfact>
</mgrwt>
</event>
<event>
 4    1  0.2721071E+004  0.2175640E+02  0.7546771E-02  0.1712499E+00
         21   -1    0    0  503  502  0.00000000000E+00  0.00000000000E+00  0.71340927469E+02  0.71340927469E+02  0.00000000000E+00 0. -1.
         21   -1    0    0  501  503 -0.00000000000E+00 -0.00000000000E+00 -0.36122350742E+02  0.36122350742E+02  0.00000000000E+00 0.  1.
          2    1    1    2  501    0 -0.20019294530E+02 -0.85187288090E+01 -0.30937510719E+02  0.37821560828E+02  0.00000000000E+00 0.  1.
         -2    1    1    2    0  502  0.20019294530E+02  0.85187288090E+01  0.66156087446E+02  0.69641717384E+02  0.00000000000E+00 0. -1.
<mgrwt>
<rscale>  2 0.21756399E+02</rscale>
<asrwt>0</asrwt>
<pdfrwt beam="1">  1       21 0.10975527E-01 0.21756399E+02</pdfrwt>
<pdfrwt beam="2">  1       21 0.55572848E-02 0.21756399E+02</pdfrwt>
<totfact> 0.11934130E+07</totfact>
</mgrwt>
</event>
<event>
 4    1  0.2721071E+004  0.2315388E+02  0.7546771E-02  0.1689028E+00
         21   -1    0    0  503  502  0.00000000000E+00  0.00000000000E+00  0.60261346362E+01  0.60261346362E+01  0.00000000000E+00 0. -1.
         21   -1    0    0  501  503 -0.00000000000E+00 -0.00000000000E+00 -0.89102981838E+02  0.89102981838E+02  0.00000000000E+00 0.  1.
          2    1    1    2  501    0  0.23806812978E+01 -0.23031168010E+02 -0.43424443165E+02  0.49211630816E+02  0.00000000000E+00 0. -1.
         -2    1    1    2    0  502 -0.23806812978E+01  0.23031168010E+02 -0.39652404036E+02  0.45917485658E+02  0.00000000000E+00 0.  1.
<mgrwt>
<rscale>  2 0.23153884E+02</rscale>
<asrwt>0</asrwt>
<pdfrwt beam="1">  1       21 0.92709761E-03 0.23153884E+02</pdfrwt>
<pdfrwt beam="2">  1       21 0.13708151E-01 0.23153884E+02</pdfrwt>
<totfact> 0.13223501E+08</totfact>
</mgrwt>
</event>
<event>
 4    1  0.2721071E+004  0.3489614E+02  0.7546771E-02  0.1549525E+00
         21   -1    0    0  501  502  0.00000000000E+00  0.00000000000E+00  0.31583067464E+03  0.31583067464E+03  0.00000000000E+00 0.  1.
         21   -1    0    0  502  503 -0.00000000000E+00 -0.00000000000E+00 -0.51666147929E+01  0.51666147929E+01  0.00000000000E+00 0. -1.
          2    1    1    2  501    0  0.30505263148E+02 -0.16946073212E+02  0.23617824263E+03  0.23874233551E+03  0.00000000000E+00 0.  1.
         -2    1    1    2    0  503 -0.30505263148E+02  0.16946073212E+02  0.74485817224E+02  0.82254953921E+02  0.00000000000E+00 0. -1.
<mgrwt>
<rscale>  2 0.34896138E+02</rscale>
<asrwt>0</asrwt>
<pdfrwt beam="1">  1       21 0.48589319E-01 0.34896138E+02</pdfrwt>
<pdfrwt beam="2">  1       21 0.79486406E-03 0.34896138E+02</pdfrwt>
<totfact> 0.18398457E+07</totfact>
</mgrwt>
</event>
<event>
 4    1  0.2721071E+004  0.2065396E+02  0.7546771E-02  0.1732627E+00
         21   -1    0    0  503  502  0.00000000000E+00  0.00000000000E+00  0.28193831511E+03  0.28193831511E+03  0.00000000000E+00 0. -1.
         21   -1    0    0  501  503 -0.00000000000E+00 -0.00000000000E+00 -0.15132108556E+01  0.15132108556E+01  0.00000000000E+00 0.  1.
          2    1    1    2  501    0 -0.14780300004E+02  0.14426672574E+02  0.13874140603E+03  0.14027032436E+03  0.00000000000E+00 0. -1.
         -2    1    1    2    0  502  0.14780300004E+02 -0.14426672574E+02  0.14168369823E+03  0.14318120161E+03  0.00000000000E+00 0.  1.
<mgrwt>
<rscale>  2 0.20653962E+02</rscale>
<asrwt>0</asrwt>
<pdfrwt beam="1">  1       21 0.43375084E-01 0.20653962E+02</pdfrwt>
<pdfrwt beam="2">  1       21 0.23280189E-03 0.20653962E+02</pdfrwt>
<totfact> 0.12546880E+08</totfact>
</mgrwt>
</event>
<event>
 4    1  0.2721071E+004  0.3753378E+02  0.7546771E-02  0.1527186E+00
         21   -1    0    0  503  502  0.00000000000E+00  0.00000000000E+00  0.25258094979E+03  0.25258094979E+03  0.00000000000E+00 0. -1.
         21   -1    0    0  501  503 -0.00000000000E+00 -0.00000000000E+00 -0.10253935714E+02  0.10253935714E+02  0.00000000000E+00 0.  1.
          2    1    1    2  501    0  0.34825949714E+02  0.13997779503E+02  0.32414692291E+02  0.49593314880E+02  0.00000000000E+00 0.  1.
         -2    1    1    2    0  502 -0.34825949714E+02 -0.13997779503E+02  0.20991232178E+03  0.21324157062E+03  0.00000000000E+00 0. -1.
<mgrwt>
<rscale>  2 0.37533780E+02</rscale>
<asrwt>0</asrwt>
<pdfrwt beam="1">  1       21 0.38858603E-01 0.37533780E+02</pdfrwt>
<pdfrwt beam="2">  1       21 0.15775288E-02 0.37533780E+02</pdfrwt>
<totfact> 0.10053350E+07</totfact>
</mgrwt>
</event>
<event>
 4    1  0.2721071E+004  0.3382303E+02  0.7546771E-02  0.1559308E+00
         21   -1    0    0  501  502  0.00000000000E+00  0.00000000000E+00  0.56413341850E+00  0.56413341850E+00  0.00000000000E+00 0.  1.
         21   -1    0    0  502  503 -0.00000000000E+00 -0.00000000000E+00 -0.21381437298E+04  0.21381437298E+04  0.00000000000E+00 0. -1.
          2    1    1    2  501    0 -0.21003716608E+02  0.26511150054E+02 -0.82595479291E+03  0.82664703297E+03  0.00000000000E+00 0. -1.
         -2    1    1    2    0  503  0.21003716608E+02 -0.26511150054E+02 -0.13116248035E+04  0.13120608303E+04  0.00000000000E+00 0.  1.
<mgrwt>
<rscale>  2 0.33823027E+02</rscale>
<asrwt>0</asrwt>
<pdfrwt beam="1">  1       21 0.86788224E-04 0.33823027E+02</pdfrwt>
<pdfrwt beam="2">  1       21 0.32895100E+00 0.33823027E+02</pdfrwt>
<totfact> 0.42445358E+06</totfact>
</mgrwt>
</event>
<event>
 4    1  0.2721071E+004  0.2216401E+02  0.7546771E-02  0.1705431E+00
         21   -1    0    0  503  502  0.00000000000E+00  0.00000000000E+00  0.65745610818E+03  0.65745610818E+03  0.00000000000E+00 0. -1.
         21   -1    0    0  501  503 -0.00000000000E+00 -0.00000000000E+00 -0.18414314854E+01  0.18414314854E+01  0.00000000000E+00 0.  1.
          2    1    1    2  501    0  0.11586482735E+02  0.18894354475E+02  0.73692109540E+02  0.76953039067E+02  0.00000000000E+00 0.  1.
         -2    1    1    2    0  502 -0.11586482735E+02 -0.18894354475E+02  0.58192256715E+03  0.58234450059E+03  0.00000000000E+00 0. -1.
<mgrwt>
<rscale>  2 0.22164007E+02</rscale>
<asrwt>0</asrwt>
<pdfrwt beam="1">  1       21 0.10114691E+00 0.22164007E+02</pdfrwt>
<pdfrwt beam="2">  1       21 0.28329768E-03 0.22164007E+02</pdfrwt>
<totfact> 0.17210327E+07</totfact>
</mgrwt>
</event>
<event>
 4    1  0.2721071E+004  0.2298631E+02  0.7546771E-02  0.1691732E+00
         21   -1    0    0  503  502  0.00000000000E+00  0.00000000000E+00  0.90955453845E+01  0.90955453845E+01  0.00000000000E+00 0. -1.
         21   -1    0    0  501  503 -0.00000000000E+00 -0.00000000000E+00 -0.19769955479E+03  0.19769955479E+03  0.00000000000E+00 0.  1.
          2    1    1    2  501    0 -0.16104554880E+02 -0.16401641245E+02 -0.18119068762E+03  0.18264291884E+03  0.00000000000E+00 0.  1.
         -2    1    1    2    0  502  0.16104554880E+02  0.16401641245E+02 -0.74133217931E+01  0.24152181339E+02  0.00000000000E+00 0. -1.
<mgrwt>
<rscale>  2 0.22986312E+02</rscale>
<asrwt>0</asrwt>
<pdfrwt beam="1">  1       21 0.13993147E-02 0.22986312E+02</pdfrwt>
<pdfrwt beam="2">  1       21 0.30415317E-01 0.22986312E+02</pdfrwt>
<totfact> 0.17576629E+07</totfact>
</mgrwt>
</event>
<event>
 4    1  0.2721071E+004  0.2201995E+02  0.7546771E-02  0.1707907E+00
         21   -1    0    0  501  502  0.00000000000E+00  0.00000000000E+00  0.26999215989E+01  0.26999215989E+01  0.00000000000E+00 0. -1.
         21   -1    0    0  502  503 -0.00000000000E+00 -0.00000000000E+00 -0.54591400405E+03  0.54591400405E+03  0.00000000000E+00 0.  1.
          2    1    1    2  501    0  0.56513981889E-02  0.22019945081E+02 -0.46904697743E+02  0.51816297472E+02  0.00000000000E+00 0. -1.
         -2    1    1    2    0  503 -0.56513981889E-02 -0.22019945081E+02 -0.49630938471E+03  0.49679762818E+03  0.00000000000E+00 0.  1.
<mgrwt>
<rscale>  2 0.22019946E+02</rscale>
<asrwt>0</asrwt>
<pdfrwt beam="1">  1       21 0.41537241E-03 0.22019946E+02</pdfrwt>
<pdfrwt beam="2">  1       21 0.83986800E-01 0.22019946E+02</pdfrwt>
<totfact> 0.14659059E+07</totfact>
</mgrwt>
</event>
<event>
 4    1  0.2721071E+004  0.2157350E+02  0.7546771E-02  0.1715734E+00
         21   -1    0    0  503  502  0.00000000000E+00  0.00000000000E+00  0.94475332760E+03  0.94475332760E+03  0.00000000000E+00 0.  1.
         21   -1    0    0  501  503 -0.00000000000E+00 -0.00000000000E+00 -0.30504396086E+01  0.30504396086E+01  0.00000000000E+00 0. -1.
          2    1    1    2  501    0  0.60941847484E+01 -0.20694847861E+02  0.36899989714E+02  0.42743713650E+02  0.00000000000E+00 0. -1.
         -2    1    1    2    0  502 -0.60941847484E+01  0.20694847861E+02  0.90480289828E+03  0.90506005356E+03  0.00000000000E+00 0.  1.
<mgrwt>
<rscale>  2 0.21573498E+02</rscale>
<asrwt>0</asrwt>
<pdfrwt beam="1">  1       21 0.14534643E+00 0.21573498E+02</pdfrwt>
<pdfrwt beam="2">  1       21 0.46929915E-03 0.21573498E+02</pdfrwt>
<totfact> 0.36063205E+06</totfact>
</mgrwt>
</event>
<event>
 4    1  0.2721071E+004  0.2469105E+02  0.7546771E-02  0.1665480E+00
         21   -1    0    0  501  502  0.00000000000E+00  0.00000000000E+00  0.13890589409E+03  0.13890589409E+03  0.00000000000E+00 0. -1.
         21   -1    0    0  502  503 -0.00000000000E+00 -0.00000000000E+00 -0.12782791859E+02  0.12782791859E+02  0.00000000000E+00 0.  1.
          2    1    1    2  501    0 -0.76487819273E+01  0.23476457496E+02  0.12452137394E+03  0.12694573837E+03  0.00000000000E+00 0. -1.
         -2    1    1    2    0  503  0.76487819273E+01 -0.23476457496E+02  0.16017282915E+01  0.24742947582E+02  0.00000000000E+00 0.  1.
<mgrwt>
<rscale>  2 0.24691049E+02</rscale>
<asrwt>0</asrwt>
<pdfrwt beam="1">  1       21 0.21370136E-01 0.24691049E+02</pdfrwt>
<pdfrwt beam="2">  1       21 0.19665835E-02 0.24691049E+02</pdfrwt>
<totfact> 0.19959860E+07</totfact>
</mgrwt>
</event>
<event>
 4    1  0.2721071E+004  0.2449546E+02  0.7546771E-02  0.1668356E+00
         21   -1    0    0  503  502  0.00000000000E+00  0.00000000000E+00  0.11233538005E+04  0.11233538005E+04  0.00000000000E+00 0. -1.
         21   -1    0    0  501  503 -0.00000000000E+00 -0.00000000000E+00 -0.93132101963E+00  0.93132101963E+00  0.00000000000E+00 0.  1.
          2    1    1    2  501    0 -0.48523850390E+01  0.24010037306E+02  0.19410536625E+03  0.19564488426E+03  0.00000000000E+00 0.  1.
         -2    1    1    2    0  502  0.48523850390E+01 -0.24010037306E+02  0.92831711322E+03  0.92864023725E+03  0.00000000000E+00 0. -1.
<mgrwt>
<rscale>  2 0.24495459E+02</rscale>
<asrwt>0</asrwt>
<pdfrwt beam="1">  1       21 0.17282258E+00 0.24495459E+02</pdfrwt>
<pdfrwt beam="2">  1       21 0.14328106E-03 0.24495459E+02</pdfrwt>
<totfact> 0.13547850E+07</totfact>
</mgrwt>
</event>
<event>
 4    1  0.2721071E+004  0.2248134E+02  0.7546771E-02  0.1700058E+00
         21   -1    0    0  501  502  0.00000000000E+00  0.00000000000E+00  0.18206047811E+02  0.18206047811E+02  0.00000000000E+00 0. -1.
         21   -1    0    0  502  503 -0.00000000000E+00 -0.00000000000E+00 -0.58927436477E+02  0.58927436477E+02  0.00000000000E+00 0.  1.
          2    1    1    2  501    0  0.22024553052E+02  0.45088632979E+01  0.76872186210E+01  0.23759295350E+02  0.00000000000E+00 0. -1.
         -2    1    1    2    0  503 -0.22024553052E+02 -0.45088632979E+01 -0.48408607287E+02  0.53374188938E+02  0.00000000000E+00 0.  1.
<mgrwt>
<rscale>  2 0.22481343E+02</rscale>
<asrwt>0</asrwt>
<pdfrwt beam="1">  1       21 0.28009304E-02 0.22481343E+02</pdfrwt>
<pdfrwt beam="2">  1       21 0.90657595E-02 0.22481343E+02</pdfrwt>
<totfact> 0.48446342E+07</totfact>
</mgrwt>
</event>
<event>
 4    1  0.2721071E+004  0.2991619E+02  0.7546771E-02  0.1599017E+00
         21   -1    0    0  503  502  0.00000000000E+00  0.00000000000E+00  0.46935124579E+02  0.46935124579E+02  0.00000000000E+00 0.  1.
         21   -1    0    0  501  503 -0.00000000000E+00 -0.00000000000E+00 -0.19496387349E+02  0.19496387349E+02  0.00000000000E+00 0. -1.
          2    1    1    2  501    0 -0.26142800997E+02 -0.14544159959E+02  0.18640588485E+02  0.35248406659E+02  0.00000000000E+00 0.  1.
         -2    1    1    2    0  502  0.26142800997E+02  0.14544159959E+02  0.87981487451E+01  0.31183105269E+02  0.00000000000E+00 0. -1.
<mgrwt>
<rscale>  2 0.29916193E+02</rscale>
<asrwt>0</asrwt>
<pdfrwt beam="1">  1       21 0.72207884E-02 0.29916193E+02</pdfrwt>
<pdfrwt beam="2">  1       21 0.29994442E-02 0.29916193E+02</pdfrwt>
<totfact> 0.67850214E+07</totfact>
</mgrwt>
</event>
<event>
 4    1  0.2721071E+004  0.2341327E+02  0.7546771E-02  0.1684897E+00
         21   -1    0    0  501  502  0.00000000000E+00  0.00000000000E+00  0.10520644910E+01  0.10520644910E+01  0.00000000000E+00 0. -1.
         21   -1    0    0  502  503 -0.00000000000E+00 -0.00000000000E+00 -0.10909117259E+04  0.10909117259E+04  0.00000000000E+00 0.  1.
          2    1    1    2  501    0  0.35798854172E+01  0.23137974519E+02 -0.15032081151E+03  0.15213325678E+03  0.00000000000E+00 0. -1.
         -2    1    1    2    0  503 -0.35798854172E+01 -0.23137974519E+02 -0.93953884986E+03  0.93983053357E+03  0.00000000000E+00 0.  1.
<mgrwt>
<rscale>  2 0.23413275E+02</rscale>
<asrwt>0</asrwt>
<pdfrwt beam="1">  1       21 0.16185599E-03 0.23413275E+02</pdfrwt>
<pdfrwt beam="2">  1       21 0.16783266E+00 0.23413275E+02</pdfrwt>
<totfact> 0.12141770E+07</totfact>
</mgrwt>
</event>
<event>
 4    1  0.2721071E+004  0.2106186E+02  0.7546771E-02  0.1725001E+00
         21   -1    0    0  501  502  0.00000000000E+00  0.00000000000E+00  0.50935314484E+03  0.50935314484E+03  0.00000000000E+00 0.  1.
         21   -1    0    0  502  503 -0.00000000000E+00 -0.00000000000E+00 -0.71997950777E+01  0.71997950777E+01  0.00000000000E+00 0. -1.
          2    1    1    2  501    0  0.20589532075E+02 -0.44354258404E+01  0.49322881175E+03  0.49367829867E+03  0.00000000000E+00 0.  1.
         -2    1    1    2    0  503 -0.20589532075E+02  0.44354258404E+01  0.89245380050E+01  0.22874641244E+02  0.00000000000E+00 0. -1.
<mgrwt>
<rscale>  2 0.21061857E+02</rscale>
<asrwt>0</asrwt>
<pdfrwt beam="1">  1       21 0.78361994E-01 0.21061857E+02</pdfrwt>
<pdfrwt beam="2">  1       21 0.11076612E-02 0.21061857E+02</pdfrwt>
<totfact> 0.39284004E+06</totfact>
</mgrwt>
</event>
<event>
 4    1  0.2721071E+004  0.2023515E+02  0.7546771E-02  0.1740692E+00
         21   -1    0    0  501  502  0.00000000000E+00  0.00000000000E+00  0.12136364541E+02  0.12136364541E+02  0.00000000000E+00 0. -1.
         21   -1    0    0  502  503 -0.00000000000E+00 -0.00000000000E+00 -0.46712305423E+02  0.46712305423E+02  0.00000000000E+00 0.  1.
          2    1    1    2  501    0 -0.18043856504E+02 -0.91586416317E+01 -0.17810187337E+01  0.20313382333E+02  0.00000000000E+00 0. -1.
         -2    1    1    2    0  503  0.18043856504E+02  0.91586416317E+01 -0.32794922148E+02  0.38535287631E+02  0.00000000000E+00 0.  1.
<mgrwt>
<rscale>  2 0.20235154E+02</rscale>
<asrwt>0</asrwt>
<pdfrwt beam="1">  1       21 0.18671330E-02 0.20235154E+02</pdfrwt>
<pdfrwt beam="2">  1       21 0.71865087E-02 0.20235154E+02</pdfrwt>
<totfact> 0.12803154E+08</totfact>
</mgrwt>
</event>
<event>
 4    1  0.2721071E+004  0.2492022E+02  0.7546771E-02  0.1662150E+00
         21   -1    0    0  501  502  0.00000000000E+00  0.00000000000E+00  0.53753640566E+03  0.53753640566E+03  0.00000000000E+00 0.  1.
         21   -1    0    0  502  503 -0.00000000000E+00 -0.00000000000E+00 -0.11695398979E+01  0.11695398979E+01  0.00000000000E+00 0. -1.
          2    1    1    2  501    0 -0.18848044653E+02  0.16302409709E+02  0.29790173505E+03  0.29894223706E+03  0.00000000000E+00 0. -1.
         -2    1    1    2    0  503  0.18848044653E+02 -0.16302409709E+02  0.23846513071E+03  0.23976370850E+03  0.00000000000E+00 0.  1.
<mgrwt>
<rscale>  2 0.24920220E+02</rscale>
<asrwt>0</asrwt>
<pdfrwt beam="1">  1       21 0.82697711E-01 0.24920220E+02</pdfrwt>
<pdfrwt beam="2">  1       21 0.17992964E-03 0.24920220E+02</pdfrwt>
<totfact> 0.52455659E+07</totfact>
</mgrwt>
</event>
<event>
 4    1  0.2721071E+004  0.2215122E+02  0.7546771E-02  0.1705650E+00
         21   -1    0    0  503  502  0.00000000000E+00  0.00000000000E+00  0.30665231140E+03  0.30665231140E+03  0.00000000000E+00 0.  1.
         21   -1    0    0  501  503 -0.00000000000E+00 -0.00000000000E+00 -0.76404274372E+01  0.76404274372E+01  0.00000000000E+00 0. -1.
          2    1    1    2  501    0 -0.15608528664E+02 -0.15717831675E+02  0.97804889839E+01  0.24214342122E+02  0.00000000000E+00 0. -1.
         -2    1    1    2    0  502  0.15608528664E+02  0.15717831675E+02  0.28923139498E+03  0.29007839671E+03  0.00000000000E+00 0.  1.
<mgrwt>
<rscale>  2 0.22151217E+02</rscale>
<asrwt>0</asrwt>
<pdfrwt beam="1">  1       21 0.47177269E-01 0.22151217E+02</pdfrwt>
<pdfrwt beam="2">  1       21 0.11754506E-02 0.22151217E+02</pdfrwt>
<totfact> 0.99915588E+06</totfact>
</mgrwt>
</event>
<event>
 4    1  0.2721071E+004  0.3433068E+02  0.7546771E-02  0.1554626E+00
         21   -1    0    0  503  502  0.00000000000E+00  0.00000000000E+00  0.19252691640E+03  0.19252691640E+03  0.00000000000E+00 0. -1.
         21   -1    0    0  501  503 -0.00000000000E+00 -0.00000000000E+00 -0.30088846722E+02  0.30088846722E+02  0.00000000000E+00 0.  1.
          2    1    1    2  501    0 -0.93601359533E+01  0.33030042193E+02 -0.18122561464E+02  0.38820394980E+02  0.00000000000E+00 0.  1.
         -2    1    1    2    0  502  0.93601359533E+01 -0.33030042193E+02  0.18056063114E+03  0.18379536814E+03  0.00000000000E+00 0. -1.
<mgrwt>
<rscale>  2 0.34330684E+02</rscale>
<asrwt>0</asrwt>
<pdfrwt beam="1">  1       21 0.29619525E-01 0.34330684E+02</pdfrwt>
<pdfrwt beam="2">  1       21 0.46290535E-02 0.34330684E+02</pdfrwt>
<totfact> 0.30346939E+06</totfact>
</mgrwt>
</event>
<event>
 4    1  0.2721071E+004  0.2320551E+02  0.7546771E-02  0.1688200E+00
         21   -1    0    0  501  502  0.00000000000E+00  0.00000000000E+00  0.17632706111E+02  0.17632706111E+02  0.00000000000E+00 0. -1.
         21   -1    0    0  502  503 -0.00000000000E+00 -0.00000000000E+00 -0.32365582918E+02  0.32365582918E+02  0.00000000000E+00 0.  1.
          2    1    1    2  501    0  0.22540595936E+02 -0.55151676928E+01 -0.14285301481E+01  0.23249435224E+02  0.00000000000E+00 0. -1.
         -2    1    1    2    0  503 -0.22540595936E+02  0.55151676928E+01 -0.13304346659E+02  0.26748853805E+02  0.00000000000E+00 0.  1.
<mgrwt>
<rscale>  2 0.23205507E+02</rscale>
<asrwt>0</asrwt>
<pdfrwt beam="1">  1       21 0.27127240E-02 0.23205507E+02</pdfrwt>
<pdfrwt beam="2">  1       21 0.49793204E-02 0.23205507E+02</pdfrwt>
<totfact> 0.13527595E+08</totfact>
</mgrwt>
</event>
<event>
 4    1  0.2721071E+004  0.3495824E+02  0.7546771E-02  0.1548972E+00
         21   -1    0    0  503  502  0.00000000000E+00  0.00000000000E+00  0.17011227966E+02  0.17011227966E+02  0.00000000000E+00 0.  1.
         21   -1    0    0  501  503 -0.00000000000E+00 -0.00000000000E+00 -0.93744994969E+02  0.93744994969E+02  0.00000000000E+00 0. -1.
          2    1    1    2  501    0  0.28740332716E+02  0.19901557827E+02 -0.65136384264E+02  0.73924470127E+02  0.00000000000E+00 0. -1.
         -2    1    1    2    0  502 -0.28740332716E+02 -0.19901557827E+02 -0.11597382739E+02  0.36831752809E+02  0.00000000000E+00 0.  1.
<mgrwt>
<rscale>  2 0.34958243E+02</rscale>
<asrwt>0</asrwt>
<pdfrwt beam="1">  1       21 0.26171120E-02 0.34958243E+02</pdfrwt>
<pdfrwt beam="2">  1       21 0.14422307E-01 0.34958243E+02</pdfrwt>
<totfact> 0.27161302E+07</totfact>
</mgrwt>
</event>
<event>
 4    1  0.2721071E+004  0.2049920E+02  0.7546771E-02  0.1735579E+00
         21   -1    0    0  503  502  0.00000000000E+00  0.00000000000E+00  0.56748065154E+01  0.56748065154E+01  0.00000000000E+00 0.  1.
         21   -1    0    0  501  503 -0.00000000000E+00 -0.00000000000E+00 -0.75378846813E+02  0.75378846813E+02  0.00000000000E+00 0. -1.
          2    1    1    2  501    0  0.18955096940E+02 -0.78052110531E+01 -0.40233782242E+02  0.45155002526E+02  0.00000000000E+00 0.  1.
         -2    1    1    2    0  502 -0.18955096940E+02  0.78052110531E+01 -0.29470258056E+02  0.35898650803E+02  0.00000000000E+00 0. -1.
<mgrwt>
<rscale>  2 0.20499196E+02</rscale>
<asrwt>0</asrwt>
<pdfrwt beam="1">  1       21 0.87304715E-03 0.20499196E+02</pdfrwt>
<pdfrwt beam="2">  1       21 0.11596746E-01 0.20499196E+02</pdfrwt>
<totfact> 0.18456301E+08</totfact>
</mgrwt>
</event>
<event>
 4    1  0.2721071E+004  0.3897807E+02  0.7546771E-02  0.1515869E+00
         21   -1    0    0  501  502  0.00000000000E+00  0.00000000000E+00  0.64361741757E+02  0.64361741757E+02  0.00000000000E+00 0.  1.
         21   -1    0    0  502  503 -0.00000000000E+00 -0.00000000000E+00 -0.10525121507E+03  0.10525121507E+03  0.00000000000E+00 0. -1.
          2    1    1    2  501    0  0.37425067433E+02  0.10892850451E+02  0.54248661812E+02  0.66799754279E+02  0.00000000000E+00 0.  1.
         -2    1    1    2    0  503 -0.37425067433E+02 -0.10892850451E+02 -0.95138135128E+02  0.10281320255E+03  0.00000000000E+00 0. -1.
<mgrwt>
<rscale>  2 0.38978069E+02</rscale>
<asrwt>0</asrwt>
<pdfrwt beam="1">  1       21 0.99018064E-02 0.38978069E+02</pdfrwt>
<pdfrwt beam="2">  1       21 0.16192495E-01 0.38978069E+02</pdfrwt>
<totfact> 0.25968752E+06</totfact>
</mgrwt>
</event>
<event>
 4    1  0.2721071E+004  0.2416676E+02  0.7546771E-02  0.1673267E+00
         21   -1    0    0  501  502  0.00000000000E+00  0.00000000000E+00  0.17063062407E+02  0.17063062407E+02  0.00000000000E+00 0. -1.
         21   -1    0    0  502  503 -0.00000000000E+00 -0.00000000000E+00 -0.14834220482E+03  0.14834220482E+03  0.00000000000E+00 0.  1.
          2    1    1    2  501    0  0.23808819185E+02 -0.41439547876E+01  0.68970098785E+01  0.25131672796E+02  0.00000000000E+00 0. -1.
         -2    1    1    2    0  503 -0.23808819185E+02  0.41439547876E+01 -0.13817615229E+03  0.14027359443E+03  0.00000000000E+00 0.  1.
<mgrwt>
<rscale>  2 0.24166759E+02</rscale>
<asrwt>0</asrwt>
<pdfrwt beam="1">  1       21 0.26250865E-02 0.24166759E+02</pdfrwt>
<pdfrwt beam="2">  1       21 0.22821878E-01 0.24166759E+02</pdfrwt>
<totfact> 0.11328307E+07</totfact>
</mgrwt>
</event>
<event>
 4    1  0.2721071E+004  0.3706422E+02  0.7546771E-02  0.1530998E+00
         21   -1    0    0  501  502  0.00000000000E+00  0.00000000000E+00  0.20558848161E+02  0.20558848161E+02  0.00000000000E+00 0.  1.
         21   -1    0    0  502  503 -0.00000000000E+00 -0.00000000000E+00 -0.12736412657E+03  0.12736412657E+03  0.00000000000E+00 0. -1.
          2    1    1    2  501    0 -0.37044071648E+02 -0.12220711041E+01 -0.24090524091E+01  0.37142431740E+02  0.00000000000E+00 0.  1.
         -2    1    1    2    0  503  0.37044071648E+02  0.12220711041E+01 -0.10439622600E+03  0.11078054299E+03  0.00000000000E+00 0. -1.
<mgrwt>
<rscale>  2 0.37064224E+02</rscale>
<asrwt>0</asrwt>
<pdfrwt beam="1">  1       21 0.31628998E-02 0.37064224E+02</pdfrwt>
<pdfrwt beam="2">  1       21 0.19594481E-01 0.37064224E+02</pdfrwt>
<totfact> 0.11891927E+07</totfact>
</mgrwt>
</event>
<event>
 4    1  0.2721071E+004  0.3117293E+02  0.7546771E-02  0.1585474E+00
         21   -1    0    0  503  502  0.00000000000E+00  0.00000000000E+00  0.46967345343E+02  0.46967345343E+02  0.00000000000E+00 0. -1.
         21   -1    0    0  501  503 -0.00000000000E+00 -0.00000000000E+00 -0.21581026253E+02  0.21581026253E+02  0.00000000000E+00 0.  1.
          2    1    1    2  501    0  0.23891897884E+02 -0.20023202026E+02  0.57286302899E+01  0.31694930334E+02  0.00000000000E+00 0.  1.
         -2    1    1    2    0  502 -0.23891897884E+02  0.20023202026E+02  0.19657688801E+02  0.36853441262E+02  0.00000000000E+00 0. -1.
<mgrwt>
<rscale>  2 0.31172927E+02</rscale>
<asrwt>0</asrwt>
<pdfrwt beam="1">  1       21 0.72257454E-02 0.31172927E+02</pdfrwt>
<pdfrwt beam="2">  1       21 0.33201579E-02 0.31172927E+02</pdfrwt>
<totfact> 0.58276111E+07</totfact>
</mgrwt>
</event>
<event>
 4    1  0.2721071E+004  0.2046383E+02  0.7546771E-02  0.1736259E+00
         21   -1    0    0  501  502  0.00000000000E+00  0.00000000000E+00  0.44234425112E+02  0.44234425112E+02  0.00000000000E+00 0.  1.
         21   -1    0    0  502  503 -0.00000000000E+00 -0.00000000000E+00 -0.15644185141E+02  0.15644185141E+02  0.00000000000E+00 0. -1.
          2    1    1    2  501    0  0.20281053339E+02 -0.27289287684E+01  0.33108198034E+02  0.38921985481E+02  0.00000000000E+00 0.  1.
         -2    1    1    2    0  503 -0.20281053339E+02  0.27289287684E+01 -0.45179580631E+01  0.20956624772E+02  0.00000000000E+00 0. -1.
<mgrwt>
<rscale>  2 0.20463826E+02</rscale>
<asrwt>0</asrwt>
<pdfrwt beam="1">  1       21 0.68052961E-02 0.20463826E+02</pdfrwt>
<pdfrwt beam="2">  1       21 0.24067977E-02 0.20463826E+02</pdfrwt>
<totfact> 0.95098500E+07</totfact>
</mgrwt>
</event>
<event>
 4    1  0.2721071E+004  0.3547095E+02  0.7546771E-02  0.1544458E+00
         21   -1    0    0  501  502  0.00000000000E+00  0.00000000000E+00  0.25030356063E+04  0.25030356063E+04  0.00000000000E+00 0. -1.
         21   -1    0    0  502  503 -0.00000000000E+00 -0.00000000000E+00 -0.84434186949E+00  0.84434186949E+00  0.00000000000E+00 0.  1.
          2    1    1    2  501    0  0.34794220374E+02  0.68956728919E+01  0.20474973972E+04  0.20478046244E+04  0.00000000000E+00 0. -1.
         -2    1    1    2    0  503 -0.34794220374E+02 -0.68956728919E+01  0.45469386725E+03  0.45607532381E+03  0.00000000000E+00 0.  1.
<mgrwt>
<rscale>  2 0.35470947E+02</rscale>
<asrwt>0</asrwt>
<pdfrwt beam="1">  1       21 0.38507646E+00 0.35470947E+02</pdfrwt>
<pdfrwt beam="2">  1       21 0.12990075E-03 0.35470947E+02</pdfrwt>
<totfact> 0.11928908E+06</totfact>
</mgrwt>
</event>
<event>
 4    1  0.2721071E+004  0.2456139E+02  0.7546771E-02  0.1667383E+00
         21   -1    0    0  501  502  0.00000000000E+00  0.00000000000E+00  0.97142958679E+02  0.97142958679E+02  0.00000000000E+00 0.  1.
         21   -1    0    0  502  503 -0.00000000000E+00 -0.00000000000E+00 -0.16747606456E+02  0.16747606456E+02  0.00000000000E+00 0. -1.
          2    1    1    2  501    0 -0.22534117311E+02 -0.97711520886E+01  0.85367822730E+02  0.88830889975E+02  0.00000000000E+00 0.  1.
         -2    1    1    2    0  503  0.22534117311E+02  0.97711520886E+01 -0.49724705076E+01  0.25059675159E+02  0.00000000000E+00 0. -1.
<mgrwt>
<rscale>  2 0.24561390E+02</rscale>
<asrwt>0</asrwt>
<pdfrwt beam="1">  1       21 0.14945070E-01 0.24561390E+02</pdfrwt>
<pdfrwt beam="2">  1       21 0.25765549E-02 0.24561390E+02</pdfrwt>
<totfact> 0.24411260E+07</totfact>
</mgrwt>
</event>
<event>
 4    1  0.2721071E+004  0.2255026E+02  0.7546771E-02  0.1698906E+00
         21   -1    0    0  503  502  0.00000000000E+00  0.00000000000E+00  0.15632661106E+04  0.15632661106E+04  0.00000000000E+00 0.  1.
         21   -1    0    0  501  503 -0.00000000000E+00 -0.00000000000E+00 -0.58445219352E+00  0.58445219352E+00  0.00000000000E+00 0. -1.
          2    1    1    2  501    0 -0.21951239361E+02  0.51630560664E+01  0.26065351373E+03  0.26162715508E+03  0.00000000000E+00 0. -1.
         -2    1    1    2    0  502  0.21951239361E+02 -0.51630560664E+01  0.13020281447E+04  0.13022234077E+04  0.00000000000E+00 0.  1.
<mgrwt>
<rscale>  2 0.22550256E+02</rscale>
<asrwt>0</asrwt>
<pdfrwt beam="1">  1       21 0.24049913E+00 0.22550256E+02</pdfrwt>
<pdfrwt beam="2">  1       21 0.89916973E-04 0.22550256E+02</pdfrwt>
<totfact> 0.11026472E+07</totfact>
</mgrwt>
</event>
<event>
 4    1  0.2721071E+004  0.2263851E+02  0.7546771E-02  0.1697438E+00
         21   -1    0    0  503  502  0.00000000000E+00  0.00000000000E+00  0.21473433192E+03  0.21473433192E+03  0.00000000000E+00 0.  1.
         21   -1    0    0  501  503 -0.00000000000E+00 -0.00000000000E+00 -0.23915742086E+01  0.23915742086E+01  0.00000000000E+00 0. -1.
          2    1    1    2  501    0  0.37444785441E+01  0.22326691696E+02  0.11108216160E+03  0.11336555433E+03  0.00000000000E+00 0.  1.
         -2    1    1    2    0  502 -0.37444785441E+01 -0.22326691696E+02  0.10126059611E+03  0.10376035181E+03  0.00000000000E+00 0. -1.
<mgrwt>
<rscale>  2 0.22638513E+02</rscale>
<asrwt>0</asrwt>
<pdfrwt beam="1">  1       21 0.33036036E-01 0.22638513E+02</pdfrwt>
<pdfrwt beam="2">  1       21 0.36793466E-03 0.22638513E+02</pdfrwt>
<totfact> 0.10997880E+08</totfact>
</mgrwt>
</event>
<event>
 4    1  0.2721071E+004  0.2349798E+02  0.7546771E-02  0.1683563E+00
         21   -1    0    0  501  502  0.00000000000E+00  0.00000000000E+00  0.31210851599E+02  0.31210851599E+02  0.00000000000E+00 0. -1.
         21   -1    0    0  502  503 -0.00000000000E+00 -0.00000000000E+00 -0.18361164664E+02  0.18361164664E+02  0.00000000000E+00 0.  1.
          2    1    1    2  501    0  0.49598385922E+01 -0.22968567469E+02  0.11159697466E+02  0.26013341538E+02  0.00000000000E+00 0.  1.
         -2    1    1    2    0  503 -0.49598385922E+01  0.22968567469E+02  0.16899894700E+01  0.23558674726E+02  0.00000000000E+00 0. -1.
<mgrwt>
<rscale>  2 0.23497981E+02</rscale>
<asrwt>0</asrwt>
<pdfrwt beam="1">  1       21 0.48016695E-02 0.23497981E+02</pdfrwt>
<pdfrwt beam="2">  1       21 0.28247946E-02 0.23497981E+02</pdfrwt>
<totfact> 0.13509805E+08</totfact>
</mgrwt>
</event>
<event>
 4    1  0.2721071E+004  0.2294109E+02  0.7546771E-02  0.1692467E+00
         21   -1    0    0  503  502  0.00000000000E+00  0.00000000000E+00  0.38653600217E+01  0.38653600217E+01  0.00000000000E+00 0. -1.
         21   -1    0    0  501  503 -0.00000000000E+00 -0.00000000000E+00 -0.24597343445E+03  0.24597343445E+03  0.00000000000E+00 0.  1.
          2    1    1    2  501    0  0.18307212597E+01  0.22867921854E+02 -0.20452216882E+03  0.20580478840E+03  0.00000000000E+00 0.  1.
         -2    1    1    2    0  502 -0.18307212597E+01 -0.22867921854E+02 -0.37585905614E+02  0.44034006075E+02  0.00000000000E+00 0. -1.
<mgrwt>
<rscale>  2 0.22941085E+02</rscale>
<asrwt>0</asrwt>
<pdfrwt beam="1">  1       21 0.59467050E-03 0.22941085E+02</pdfrwt>
<pdfrwt beam="2">  1       21 0.37842084E-01 0.22941085E+02</pdfrwt>
<totfact> 0.42314074E+07</totfact>
</mgrwt>
</event>
<event>
 4    1  0.2721071E+004  0.2038593E+02  0.7546771E-02  0.1737760E+00
         21   -1    0    0  503  502  0.00000000000E+00  0.00000000000E+00  0.35498374437E+00  0.35498374437E+00  0.00000000000E+00 0.  1.
         21   -1    0    0  501  503 -0.00000000000E+00 -0.00000000000E+00 -0.14986867424E+04  0.14986867424E+04  0.00000000000E+00 0. -1.
          2    1    1    2  501    0 -0.20030091567E+02 -0.37923202662E+01 -0.10997915997E+04  0.10999805221E+04  0.00000000000E+00 0. -1.
         -2    1    1    2    0  502  0.20030091567E+02  0.37923202662E+01 -0.39854015894E+03  0.39906120401E+03  0.00000000000E+00 0.  1.
<mgrwt>
<rscale>  2 0.20385933E+02</rscale>
<asrwt>0</asrwt>
<pdfrwt beam="1">  1       21 0.54612460E-04 0.20385933E+02</pdfrwt>
<pdfrwt beam="2">  1       21 0.23056898E+00 0.20385933E+02</pdfrwt>
<totfact> 0.24730608E+07</totfact>
</mgrwt>
</event>
<event>
 4    1  0.2721071E+004  0.2923603E+02  0.7546771E-02  0.1606690E+00
         21   -1    0    0  503  502  0.00000000000E+00  0.00000000000E+00  0.57509559360E+02  0.57509559360E+02  0.00000000000E+00 0.  1.
         21   -1    0    0  501  503 -0.00000000000E+00 -0.00000000000E+00 -0.14926818953E+02  0.14926818953E+02  0.00000000000E+00 0. -1.
          2    1    1    2  501    0 -0.71458658419E+01 -0.28349288123E+02  0.18917036125E+02  0.34822403585E+02  0.00000000000E+00 0.  1.
         -2    1    1    2    0  502  0.71458658419E+01  0.28349288123E+02  0.23665704282E+02  0.37613974728E+02  0.00000000000E+00 0. -1.
<mgrwt>
<rscale>  2 0.29236031E+02</rscale>
<asrwt>0</asrwt>
<pdfrwt beam="1">  1       21 0.88476244E-02 0.29236031E+02</pdfrwt>
<pdfrwt beam="2">  1       21 0.22964337E-02 0.29236031E+02</pdfrwt>
<totfact> 0.73309637E+07</totfact>
</mgrwt>
</event>
<event>
 4    1  0.2721071E+004  0.2235789E+02  0.7546771E-02  0.1702135E+00
         21   -1    0    0  503  502  0.00000000000E+00  0.00000000000E+00  0.34710921190E+02  0.34710921190E+02  0.00000000000E+00 0. -1.
         21   -1    0    0  501  503 -0.00000000000E+00 -0.00000000000E+00 -0.30304986570E+02  0.30304986570E+02  0.00000000000E+00 0.  1.
          2    1    1    2  501    0 -0.21761994912E+02 -0.51274481876E+01 -0.21346676332E+02  0.30912064601E+02  0.00000000000E+00 0.  1.
         -2    1    1    2    0  502  0.21761994912E+02  0.51274481876E+01  0.25752610952E+02  0.34103843160E+02  0.00000000000E+00 0. -1.
<mgrwt>
<rscale>  2 0.22357888E+02</rscale>
<asrwt>0</asrwt>
<pdfrwt beam="1">  1       21 0.53401417E-02 0.22357888E+02</pdfrwt>
<pdfrwt beam="2">  1       21 0.46623056E-02 0.22357888E+02</pdfrwt>
<totfact> 0.51230600E+07</totfact>
</mgrwt>
</event>
<event>
 4    1  0.2721071E+004  0.4407308E+02  0.7546771E-02  0.1480213E+00
         21   -1    0    0  501  502  0.00000000000E+00  0.00000000000E+00  0.19498848647E+03  0.19498848647E+03  0.00000000000E+00 0. -1.
         21   -1    0    0  502  503 -0.00000000000E+00 -0.00000000000E+00 -0.12766637618E+02  0.12766637618E+02  0.00000000000E+00 0.  1.
          2    1    1    2  501    0 -0.13352937496E+02 -0.42001607242E+02  0.13980066775E+03  0.14658329596E+03  0.00000000000E+00 0. -1.
         -2    1    1    2    0  503  0.13352937496E+02  0.42001607242E+02  0.42421181102E+02  0.61171828130E+02  0.00000000000E+00 0.  1.
<mgrwt>
<rscale>  2 0.44073075E+02</rscale>
<asrwt>0</asrwt>
<pdfrwt beam="1">  1       21 0.29998227E-01 0.44073075E+02</pdfrwt>
<pdfrwt beam="2">  1       21 0.19640982E-02 0.44073075E+02</pdfrwt>
<totfact> 0.11901557E+07</totfact>
</mgrwt>
</event>
<event>
 4    1  0.2721071E+004  0.4257335E+02  0.7546771E-02  0.1490085E+00
         21   -1    0    0  503  502  0.00000000000E+00  0.00000000000E+00  0.50223715205E+03  0.50223715205E+03  0.00000000000E+00 0.  1.
         21   -1    0    0  501  503 -0.00000000000E+00 -0.00000000000E+00 -0.39195705838E+01  0.39195705838E+01  0.00000000000E+00 0. -1.
          2    1    1    2  501    0 -0.27137201457E+01  0.42486770718E+02  0.17790093922E+03  0.18292412125E+03  0.00000000000E+00 0.  1.
         -2    1    1    2    0  502  0.27137201457E+01 -0.42486770718E+02  0.32041664225E+03  0.32323260138E+03  0.00000000000E+00 0. -1.
<mgrwt>
<rscale>  2 0.42573348E+02</rscale>
<asrwt>0</asrwt>
<pdfrwt beam="1">  1       21 0.77267203E-01 0.42573348E+02</pdfrwt>
<pdfrwt beam="2">  1       21 0.60301126E-03 0.42573348E+02</pdfrwt>
<totfact> 0.11089315E+07</totfact>
</mgrwt>
</event>
<event>
 4    1  0.2721071E+004  0.2052253E+02  0.7546771E-02  0.1735132E+00
         21   -1    0    0  501  502  0.00000000000E+00  0.00000000000E+00  0.63212695986E+01  0.63212695986E+01  0.00000000000E+00 0.  1.
         21   -1    0    0  502  503 -0.00000000000E+00 -0.00000000000E+00 -0.91154640380E+02  0.91154640380E+02  0.00000000000E+00 0. -1.
          2    1    1    2  501    0  0.20170945243E+02  0.37825039920E+01 -0.17135595200E+02  0.26735799807E+02  0.00000000000E+00 0.  1.
         -2    1    1    2    0  503 -0.20170945243E+02 -0.37825039920E+01 -0.67697775581E+02  0.70740110172E+02  0.00000000000E+00 0. -1.
<mgrwt>
<rscale>  2 0.20522533E+02</rscale>
<asrwt>0</asrwt>
<pdfrwt beam="1">  1       21 0.97250302E-03 0.20522533E+02</pdfrwt>
<pdfrwt beam="2">  1       21 0.14023791E-01 0.20522533E+02</pdfrwt>
<totfact> 0.11435402E+08</totfact>
</mgrwt>
</event>
<event>
 4    1  0.2721071E+004  0.2806285E+02  0.7546771E-02  0.1620544E+00
         21   -1    0    0  503  502  0.00000000000E+00  0.00000000000E+00  0.11247089215E+02  0.11247089215E+02  0.00000000000E+00 0.  1.
         21   -1    0    0  501  503 -0.00000000000E+00 -0.00000000000E+00 -0.17302405039E+03  0.17302405039E+03  0.00000000000E+00 0. -1.
          2    1    1    2  501    0 -0.27058615161E+02 -0.74400692344E+01 -0.15197722553E+03  0.15454643433E+03  0.00000000000E+00 0. -1.
         -2    1    1    2    0  502  0.27058615161E+02  0.74400692344E+01 -0.97997356404E+01  0.29724705268E+02  0.00000000000E+00 0.  1.
<mgrwt>
<rscale>  2 0.28062845E+02</rscale>
<asrwt>0</asrwt>
<pdfrwt beam="1">  1       21 0.17303215E-02 0.28062845E+02</pdfrwt>
<pdfrwt beam="2">  1       21 0.26619083E-01 0.28062845E+02</pdfrwt>
<totfact> 0.16830639E+07</totfact>
</mgrwt>
</event>
<event>
 4    1  0.2721071E+004  0.2199648E+02  0.7546771E-02  0.1708313E+00
         21   -1    0    0  501  502  0.00000000000E+00  0.00000000000E+00  0.13710548982E+01  0.13710548982E+01  0.00000000000E+00 0. -1.
         21   -1    0    0  502  503 -0.00000000000E+00 -0.00000000000E+00 -0.39617714844E+03  0.39617714844E+03  0.00000000000E+00 0.  1.
          2    1    1    2  501    0  0.27890718585E+00 -0.21994714802E+02 -0.13170621507E+03  0.13353041734E+03  0.00000000000E+00 0.  1.
         -2    1    1    2    0  503 -0.27890718585E+00  0.21994714802E+02 -0.26309987847E+03  0.26401778599E+03  0.00000000000E+00 0. -1.
<mgrwt>
<rscale>  2 0.21996483E+02</rscale>
<asrwt>0</asrwt>
<pdfrwt beam="1">  1       21 0.21093127E-03 0.21996483E+02</pdfrwt>
<pdfrwt beam="2">  1       21 0.60950404E-01 0.21996483E+02</pdfrwt>
<totfact> 0.75880134E+07</totfact>
</mgrwt>
</event>
<event>
 4    1  0.2721071E+004  0.2287475E+02  0.7546771E-02  0.1693549E+00
         21   -1    0    0  501  502  0.00000000000E+00  0.00000000000E+00  0.25265070939E+02  0.25265070939E+02  0.00000000000E+00 0. -1.
         21   -1    0    0  502  503 -0.00000000000E+00 -0.00000000000E+00 -0.29938629572E+02  0.29938629572E+02  0.00000000000E+00 0.  1.
          2    1    1    2  501    0 -0.20656159476E+02  0.98273640699E+01  0.12987407660E+02  0.26304500881E+02  0.00000000000E+00 0. -1.
         -2    1    1    2    0  503  0.20656159476E+02 -0.98273640699E+01 -0.17660966294E+02  0.28899199630E+02  0.00000000000E+00 0.  1.
<mgrwt>
<rscale>  2 0.22874746E+02</rscale>
<asrwt>0</asrwt>
<pdfrwt beam="1">  1       21 0.38869340E-02 0.22874746E+02</pdfrwt>
<pdfrwt beam="2">  1       21 0.46059430E-02 0.22874746E+02</pdfrwt>
<totfact> 0.86924296E+07</totfact>
</mgrwt>
</event>
<event>
 4    1  0.2721071E+004  0.2245025E+02  0.7546771E-02  0.1700580E+00
         21   -1    0    0  501  502  0.00000000000E+00  0.00000000000E+00  0.21950009896E+01  0.21950009896E+01  0.00000000000E+00 0. -1.
         21   -1    0    0  502  503 -0.00000000000E+00 -0.00000000000E+00 -0.50056885650E+03  0.50056885650E+03  0.00000000000E+00 0.  1.
          2    1    1    2  501    0 -0.36443541584E+01  0.22152478166E+02 -0.64240169749E+02  0.68050077263E+02  0.00000000000E+00 0. -1.
         -2    1    1    2    0  503  0.36443541584E+01 -0.22152478166E+02 -0.43413368576E+03  0.43471378023E+03  0.00000000000E+00 0.  1.
<mgrwt>
<rscale>  2 0.22450247E+02</rscale>
<asrwt>0</asrwt>
<pdfrwt beam="1">  1       21 0.33769214E-03 0.22450247E+02</pdfrwt>
<pdfrwt beam="2">  1       21 0.77010666E-01 0.22450247E+02</pdfrwt>
<totfact> 0.23891437E+07</totfact>
</mgrwt>
</event>
<event>
 4    1  0.2721071E+004  0.4112974E+02  0.7546771E-02  0.1500059E+00
         21   -1    0    0  503  502  0.00000000000E+00  0.00000000000E+00  0.29387223478E+02  0.29387223478E+02  0.00000000000E+00 0.  1.
         21   -1    0    0  501  503 -0.00000000000E+00 -0.00000000000E+00 -0.11819772104E+03  0.11819772104E+03  0.00000000000E+00 0. -1.
          2    1    1    2  501    0 -0.85384060212E+01 -0.40233703500E+02 -0.97257501832E+02  0.10559676575E+03  0.00000000000E+00 0. -1.
         -2    1    1    2    0  502  0.85384060212E+01  0.40233703500E+02  0.84470042734E+01  0.41988178763E+02  0.00000000000E+00 0.  1.
<mgrwt>
<rscale>  2 0.41129737E+02</rscale>
<asrwt>0</asrwt>
<pdfrwt beam="1">  1       21 0.45211114E-02 0.41129737E+02</pdfrwt>
<pdfrwt beam="2">  1       21 0.18184265E-01 0.41129737E+02</pdfrwt>
<totfact> 0.77667808E+06</totfact>
</mgrwt>
</event>
<event>
 4    1  0.2721071E+004  0.2013582E+02  0.7546771E-02  0.1742641E+00
         21   -1    0    0  501  502  0.00000000000E+00  0.00000000000E+00  0.66111876064E+01  0.66111876064E+01  0.00000000000E+00 0.  1.
         21   -1    0    0  502  503 -0.00000000000E+00 -0.00000000000E+00 -0.52550454091E+03  0.52550454091E+03  0.00000000000E+00 0. -1.
          2    1    1    2  501    0 -0.54000896207E+01 -0.19398203152E+02 -0.93951941112E+01  0.22219831814E+02  0.00000000000E+00 0.  1.
         -2    1    1    2    0  503  0.54000896207E+01  0.19398203152E+02 -0.50949815920E+03  0.50989589671E+03  0.00000000000E+00 0. -1.
<mgrwt>
<rscale>  2 0.20135820E+02</rscale>
<asrwt>0</asrwt>
<pdfrwt beam="1">  1       21 0.10171055E-02 0.20135820E+02</pdfrwt>
<pdfrwt beam="2">  1       21 0.80846873E-01 0.20135820E+02</pdfrwt>
<totfact> 0.41548821E+06</totfact>
</mgrwt>
</event>
<event>
 4    1  0.2721071E+004  0.2314271E+02  0.7546771E-02  0.1689207E+00
         21   -1    0    0  501  502  0.00000000000E+00  0.00000000000E+00  0.70045138736E+02  0.70045138736E+02  0.00000000000E+00 0. -1.
         21   -1    0    0  502  503 -0.00000000000E+00 -0.00000000000E+00 -0.92440230824E+01  0.92440230824E+01  0.00000000000E+00 0.  1.
          2    1    1    2  501    0  0.18201134133E+01 -0.23071021078E+02  0.46882433450E+02  0.52283337619E+02  0.00000000000E+00 0. -1.
         -2    1    1    2    0  503 -0.18201134133E+01  0.23071021078E+02  0.13918682204E+02  0.27005824199E+02  0.00000000000E+00 0.  1.
<mgrwt>
<rscale>  2 0.23142706E+02</rscale>
<asrwt>0</asrwt>
<pdfrwt beam="1">  1       21 0.10776175E-01 0.23142706E+02</pdfrwt>
<pdfrwt beam="2">  1       21 0.14221574E-02 0.23142706E+02</pdfrwt>
<totfact> 0.10380953E+08</totfact>
</mgrwt>
</event>
<event>
 4    1  0.2721071E+004  0.4152478E+02  0.7546771E-02  0.1497281E+00
         21   -1    0    0  503  502  0.00000000000E+00  0.00000000000E+00  0.37387471124E+02  0.37387471124E+02  0.00000000000E+00 0. -1.
         21   -1    0    0  501  503 -0.00000000000E+00 -0.00000000000E+00 -0.57616936734E+02  0.57616936734E+02  0.00000000000E+00 0.  1.
          2    1    1    2  501    0 -0.34318398601E+02 -0.23378518051E+02 -0.31334032720E+02  0.52020469003E+02  0.00000000000E+00 0.  1.
         -2    1    1    2    0  502  0.34318398601E+02  0.23378518051E+02  0.11104567109E+02  0.42983938855E+02  0.00000000000E+00 0. -1.
<mgrwt>
<rscale>  2 0.41524783E+02</rscale>
<asrwt>0</asrwt>
<pdfrwt beam="1">  1       21 0.57519186E-02 0.41524783E+02</pdfrwt>
<pdfrwt beam="2">  1       21 0.88641441E-02 0.41524783E+02</pdfrwt>
<totfact> 0.18100480E+07</totfact>
</mgrwt>
</event>
<event>
 4    1  0.2721071E+004  0.2285186E+02  0.7546771E-02  0.1693923E+00
         21   -1    0    0  503  502  0.00000000000E+00  0.00000000000E+00  0.28046243474E+03  0.28046243474E+03  0.00000000000E+00 0.  1.
         21   -1    0    0  501  503 -0.00000000000E+00 -0.00000000000E+00 -0.12812127753E+02  0.12812127753E+02  0.00000000000E+00 0. -1.
          2    1    1    2  501    0 -0.18209748106E+02  0.13806244416E+02 -0.17388338892E+01  0.22917915574E+02  0.00000000000E+00 0. -1.
         -2    1    1    2    0  502  0.18209748106E+02 -0.13806244416E+02  0.26938914088E+03  0.27035664692E+03  0.00000000000E+00 0.  1.
<mgrwt>
<rscale>  2 0.22851856E+02</rscale>
<asrwt>0</asrwt>
<pdfrwt beam="1">  1       21 0.43148062E-01 0.22851856E+02</pdfrwt>
<pdfrwt beam="2">  1       21 0.19710968E-02 0.22851856E+02</pdfrwt>
<totfact> 0.54323700E+06</totfact>
</mgrwt>
</event>
<event>
 4    1  0.2721071E+004  0.2008321E+02  0.7546771E-02  0.1743678E+00
         21   -1    0    0  503  502  0.00000000000E+00  0.00000000000E+00  0.31591875246E+02  0.31591875246E+02  0.00000000000E+00 0.  1.
         21   -1    0    0  501  503 -0.00000000000E+00 -0.00000000000E+00 -0.15674561126E+02  0.15674561126E+02  0.00000000000E+00 0. -1.
          2    1    1    2  501    0  0.15871594794E+02  0.12305595836E+02 -0.22198828902E+01  0.20205521281E+02  0.00000000000E+00 0.  1.
         -2    1    1    2    0  502 -0.15871594794E+02 -0.12305595836E+02  0.18137197010E+02  0.27060915091E+02  0.00000000000E+00 0. -1.
<mgrwt>
<rscale>  2 0.20083207E+02</rscale>
<asrwt>0</asrwt>
<pdfrwt beam="1">  1       21 0.48602885E-02 0.20083207E+02</pdfrwt>
<pdfrwt beam="2">  1       21 0.24114709E-02 0.20083207E+02</pdfrwt>
<totfact> 0.16123594E+08</totfact>
</mgrwt>
</event>
<event>
 4    1  0.2721071E+004  0.2079238E+02  0.7546771E-02  0.1730015E+00
         21   -1    0    0  501  502  0.00000000000E+00  0.00000000000E+00  0.32410838627E+02  0.32410838627E+02  0.00000000000E+00 0. -1.
         21   -1    0    0  502  503 -0.00000000000E+00 -0.00000000000E+00 -0.35853372041E+02  0.35853372041E+02  0.00000000000E+00 0.  1.
          2    1    1    2  501    0 -0.20680109385E+02  0.21578532767E+01  0.25326378256E+02  0.32768104774E+02  0.00000000000E+00 0. -1.
         -2    1    1    2    0  503  0.20680109385E+02 -0.21578532767E+01 -0.28768911670E+02  0.35496105894E+02  0.00000000000E+00 0.  1.
<mgrwt>
<rscale>  2 0.20792385E+02</rscale>
<asrwt>0</asrwt>
<pdfrwt beam="1">  1       21 0.49862829E-02 0.20792385E+02</pdfrwt>
<pdfrwt beam="2">  1       21 0.55159034E-02 0.20792385E+02</pdfrwt>
<totfact> 0.42915397E+07</totfact>
</mgrwt>
</event>
<event>
 4    1  0.2721071E+004  0.2958739E+02  0.7546771E-02  0.1602695E+00
         21   -1    0    0  503  502  0.00000000000E+00  0.00000000000E+00  0.89604333355E+03  0.89604333355E+03  0.00000000000E+00 0.  1.
         21   -1    0    0  501  503 -0.00000000000E+00 -0.00000000000E+00 -0.12097363237E+01  0.12097363237E+01  0.00000000000E+00 0. -1.
          2    1    1    2  501    0  0.28850529121E+02  0.65620803320E+01  0.25063137281E+03  0.25237174755E+03  0.00000000000E+00 0. -1.
         -2    1    1    2    0  502 -0.28850529121E+02 -0.65620803320E+01  0.64420222443E+03  0.64488132232E+03  0.00000000000E+00 0.  1.
<mgrwt>
<rscale>  2 0.29587395E+02</rscale>
<asrwt>0</asrwt>
<pdfrwt beam="1">  1       21 0.13785229E+00 0.29587395E+02</pdfrwt>
<pdfrwt beam="2">  1       21 0.18611400E-03 0.29587395E+02</pdfrwt>
<totfact> 0.16447193E+07</totfact>
</mgrwt>
</event>
<event>
 4    1  0.2721071E+004  0.2633269E+02  0.7546771E-02  0.1642566E+00
         21   -1    0    0  501  502  0.00000000000E+00  0.00000000000E+00  0.22289439869E+03  0.22289439869E+03  0.00000000000E+00 0. -1.
         21   -1    0    0  502  503 -0.00000000000E+00 -0.00000000000E+00 -0.40076480684E+01  0.40076480684E+01  0.00000000000E+00 0.  1.
          2    1    1    2  501    0  0.16374551481E+02  0.20622435635E+02  0.16310817443E+03  0.16522011788E+03  0.00000000000E+00 0. -1.
         -2    1    1    2    0  503 -0.16374551481E+02 -0.20622435635E+02  0.55778576191E+02  0.61681928874E+02  0.00000000000E+00 0.  1.
<mgrwt>
<rscale>  2 0.26332694E+02</rscale>
<asrwt>0</asrwt>
<pdfrwt beam="1">  1       21 0.34291436E-01 0.26332694E+02</pdfrwt>
<pdfrwt beam="2">  1       21 0.61656141E-03 0.26332694E+02</pdfrwt>
<totfact> 0.49729979E+07</totfact>
</mgrwt>
</event>
<event>
 4    1  0.2721071E+004  0.2031527E+02  0.7546771E-02  0.1739130E+00
         21   -1    0    0  501  502  0.00000000000E+00  0.00000000000E+00  0.33798571912E+02  0.33798571912E+02  0.00000000000E+00 0. -1.
         21   -1    0    0  502  503 -0.00000000000E+00 -0.00000000000E+00 -0.61851023283E+02  0.61851023283E+02  0.00000000000E+00 0.  1.
          2    1    1    2  501    0 -0.18358051386E+02  0.87001154172E+01  0.28818388984E+02  0.35259177565E+02  0.00000000000E+00 0. -1.
         -2    1    1    2    0  503  0.18358051386E+02 -0.87001154172E+01 -0.56870840354E+02  0.60390417630E+02  0.00000000000E+00 0.  1.
<mgrwt>
<rscale>  2 0.20315267E+02</rscale>
<asrwt>0</asrwt>
<pdfrwt beam="1">  1       21 0.51997803E-02 0.20315267E+02</pdfrwt>
<pdfrwt beam="2">  1       21 0.95155420E-02 0.20315267E+02</pdfrwt>
<totfact> 0.16547545E+07</totfact>
</mgrwt>
</event>
<event>
 4    1  0.2721071E+004  0.2730901E+02  0.7546771E-02  0.1629893E+00
         21   -1    0    0  503  502  0.00000000000E+00  0.00000000000E+00  0.72520009923E+03  0.72520009923E+03  0.00000000000E+00 0.  1.
         21   -1    0    0  501  503 -0.00000000000E+00 -0.00000000000E+00 -0.12944675599E+01  0.12944675599E+01  0.00000000000E+00 0. -1.
          2    1    1    2  501    0 -0.50068522010E+00 -0.27304424788E+02  0.19726255162E+03  0.19914390920E+03  0.00000000000E+00 0. -1.
         -2    1    1    2    0  502  0.50068522010E+00  0.27304424788E+02  0.52664308005E+03  0.52735065759E+03  0.00000000000E+00 0.  1.
<mgrwt>
<rscale>  2 0.27309015E+02</rscale>
<asrwt>0</asrwt>
<pdfrwt beam="1">  1       21 0.11156892E+00 0.27309015E+02</pdfrwt>
<pdfrwt beam="2">  1       21 0.19914943E-03 0.27309015E+02</pdfrwt>
<totfact> 0.23968473E+07</totfact>
</mgrwt>
</event>
<event>
 4    1  0.2721071E+004  0.2169136E+02  0.7546771E-02  0.1713645E+00
         21   -1    0    0  503  502  0.00000000000E+00  0.00000000000E+00  0.68660857486E+01  0.68660857486E+01  0.00000000000E+00 0.  1.
         21   -1    0    0  501  503 -0.00000000000E+00 -0.00000000000E+00 -0.17977942716E+03  0.17977942716E+03  0.00000000000E+00 0. -1.
          2    1    1    2  501    0 -0.13703610439E+02 -0.16814461436E+02 -0.15986942442E+03  0.16133427384E+03  0.00000000000E+00 0. -1.
         -2    1    1    2    0  502  0.13703610439E+02  0.16814461436E+02 -0.13043916989E+02  0.25311239062E+02  0.00000000000E+00 0.  1.
<mgrwt>
<rscale>  2 0.21691359E+02</rscale>
<asrwt>0</asrwt>
<pdfrwt beam="1">  1       21 0.10563210E-02 0.21691359E+02</pdfrwt>
<pdfrwt beam="2">  1       21 0.27658370E-01 0.21691359E+02</pdfrwt>
<totfact> 0.31498834E+07</totfact>
</mgrwt>
</event>
<event>
 4    1  0.2721071E+004  0.2052247E+02  0.7546771E-02  0.1735133E+00
         21   -1    0    0  503  502  0.00000000000E+00  0.00000000000E+00  0.31357765574E+01  0.31357765574E+01  0.00000000000E+00 0. -1.
         21   -1    0    0  501  503 -0.00000000000E+00 -0.00000000000E+00 -0.13806917121E+03  0.13806917121E+03  0.00000000000E+00 0.  1.
          2    1    1    2  501    0 -0.65450100620E+01 -0.19450822122E+02 -0.79113761945E+02  0.81732239459E+02  0.00000000000E+00 0.  1.
         -2    1    1    2    0  502  0.65450100620E+01  0.19450822122E+02 -0.55819632711E+02  0.59472708312E+02  0.00000000000E+00 0. -1.
<mgrwt>
<rscale>  2 0.20522467E+02</rscale>
<asrwt>0</asrwt>
<pdfrwt beam="1">  1       21 0.48242715E-03 0.20522467E+02</pdfrwt>
<pdfrwt beam="2">  1       21 0.21241411E-01 0.20522467E+02</pdfrwt>
<totfact> 0.15848203E+08</totfact>
</mgrwt>
</event>
<event>
 4    1  0.2721071E+004  0.2246408E+02  0.7546771E-02  0.1700347E+00
         21   -1    0    0  503  502  0.00000000000E+00  0.00000000000E+00  0.13348483932E+02  0.13348483932E+02  0.00000000000E+00 0. -1.
         21   -1    0    0  501  503 -0.00000000000E+00 -0.00000000000E+00 -0.37804710017E+02  0.37804710017E+02  0.00000000000E+00 0.  1.
          2    1    1    2  501    0 -0.11563495053E+02 -0.19259296150E+02 -0.12198903474E+02  0.25562631946E+02  0.00000000000E+00 0. -1.
         -2    1    1    2    0  502  0.11563495053E+02  0.19259296150E+02 -0.12257322611E+02  0.25590562003E+02  0.00000000000E+00 0.  1.
<mgrwt>
<rscale>  2 0.22464080E+02</rscale>
<asrwt>0</asrwt>
<pdfrwt beam="1">  1       21 0.20536129E-02 0.22464080E+02</pdfrwt>
<pdfrwt beam="2">  1       21 0.58161093E-02 0.22464080E+02</pdfrwt>
<totfact> 0.16058873E+08</totfact>
</mgrwt>
</event>
<event>
 4    1  0.2721071E+004  0.3306701E+02  0.7546771E-02  0.1566468E+00
         21   -1    0    0  503  502  0.00000000000E+00  0.00000000000E+00  0.21919111425E+02  0.21919111425E+02  0.00000000000E+00 0. -1.
         21   -1    0    0  501  503 -0.00000000000E+00 -0.00000000000E+00 -0.17624189555E+03  0.17624189555E+03  0.00000000000E+00 0.  1.
          2    1    1    2  501    0  0.32304346723E+02  0.70608787936E+01 -0.16105593876E+03  0.16441545619E+03  0.00000000000E+00 0.  1.
         -2    1    1    2    0  502 -0.32304346723E+02 -0.70608787936E+01  0.67331546284E+01  0.33745550785E+02  0.00000000000E+00 0. -1.
<mgrwt>
<rscale>  2 0.33067005E+02</rscale>
<asrwt>0</asrwt>
<pdfrwt beam="1">  1       21 0.33721710E-02 0.33067005E+02</pdfrwt>
<pdfrwt beam="2">  1       21 0.27114138E-01 0.33067005E+02</pdfrwt>
<totfact> 0.58939806E+06</totfact>
</mgrwt>
</event>
<event>
 4    1  0.2721071E+004  0.3595380E+02  0.7546771E-02  0.1540290E+00
         21   -1    0    0  503  502  0.00000000000E+00  0.00000000000E+00  0.48942665651E+01  0.48942665651E+01  0.00000000000E+00 0.  1.
         21   -1    0    0  501  503 -0.00000000000E+00 -0.00000000000E+00 -0.29039187086E+03  0.29039187086E+03  0.00000000000E+00 0. -1.
          2    1    1    2  501    0 -0.19112208988E+02  0.30453230008E+02 -0.18715696926E+03  0.19057913551E+03  0.00000000000E+00 0. -1.
         -2    1    1    2    0  502  0.19112208988E+02 -0.30453230008E+02 -0.98340635038E+02  0.10470700191E+03  0.00000000000E+00 0.  1.
<mgrwt>
<rscale>  2 0.35953800E+02</rscale>
<asrwt>0</asrwt>
<pdfrwt beam="1">  1       21 0.75296420E-03 0.35953800E+02</pdfrwt>
<pdfrwt beam="2">  1       21 0.44675666E-01 0.35953800E+02</pdfrwt>
<totfact> 0.23651211E+07</totfact>
</mgrwt>
</event>
<event>
 4    1  0.2721071E+004  0.4113914E+02  0.7546771E-02  0.1499992E+00
         21   -1    0    0  503  502  0.00000000000E+00  0.00000000000E+00  0.83708071859E+01  0.83708071859E+01  0.00000000000E+00 0.  1.
         21   -1    0    0  501  503 -0.00000000000E+00 -0.00000000000E+00 -0.33358974595E+03  0.33358974595E+03  0.00000000000E+00 0. -1.
          2    1    1    2  501    0  0.41138880991E+02  0.14502226904E+00 -0.26992183105E+03  0.27303886800E+03  0.00000000000E+00 0. -1.
         -2    1    1    2    0  502 -0.41138880991E+02 -0.14502226904E+00 -0.55297107715E+02  0.68921685138E+02  0.00000000000E+00 0.  1.
<mgrwt>
<rscale>  2 0.41139137E+02</rscale>
<asrwt>0</asrwt>
<pdfrwt beam="1">  1       21 0.12878164E-02 0.41139137E+02</pdfrwt>
<pdfrwt beam="2">  1       21 0.51321502E-01 0.41139137E+02</pdfrwt>
<totfact> 0.80778445E+06</totfact>
</mgrwt>
</event>
<event>
 4    1  0.2721071E+004  0.2134846E+02  0.7546771E-02  0.1719770E+00
         21   -1    0    0  503  502  0.00000000000E+00  0.00000000000E+00  0.57024441404E+01  0.57024441404E+01  0.00000000000E+00 0. -1.
         21   -1    0    0  501  503 -0.00000000000E+00 -0.00000000000E+00 -0.22170880579E+03  0.22170880579E+03  0.00000000000E+00 0.  1.
          2    1    1    2  501    0 -0.68878658165E+01  0.20206779998E+02 -0.19893309885E+03  0.20007532200E+03  0.00000000000E+00 0.  1.
         -2    1    1    2    0  502  0.68878658165E+01 -0.20206779998E+02 -0.17073262797E+02  0.27335927933E+02  0.00000000000E+00 0. -1.
<mgrwt>
<rscale>  2 0.21348458E+02</rscale>
<asrwt>0</asrwt>
<pdfrwt beam="1">  1       21 0.87729919E-03 0.21348458E+02</pdfrwt>
<pdfrwt beam="2">  1       21 0.34109044E-01 0.21348458E+02</pdfrwt>
<totfact> 0.28302171E+07</totfact>
</mgrwt>
</event>
<event>
 4    1  0.2721071E+004  0.2471933E+02  0.7546771E-02  0.1665066E+00
         21   -1    0    0  501  502  0.00000000000E+00  0.00000000000E+00  0.12459953950E+02  0.12459953950E+02  0.00000000000E+00 0. -1.
         21   -1    0    0  502  503 -0.00000000000E+00 -0.00000000000E+00 -0.60253433790E+02  0.60253433790E+02  0.00000000000E+00 0.  1.
          2    1    1    2  501    0  0.95590233158E+01  0.22796275134E+02 -0.82130267414E+01  0.26048011344E+02  0.00000000000E+00 0. -1.
         -2    1    1    2    0  503 -0.95590233158E+01 -0.22796275134E+02 -0.39580453099E+02  0.46665376397E+02  0.00000000000E+00 0.  1.
<mgrwt>
<rscale>  2 0.24719326E+02</rscale>
<asrwt>0</asrwt>
<pdfrwt beam="1">  1       21 0.19169160E-02 0.24719326E+02</pdfrwt>
<pdfrwt beam="2">  1       21 0.92697589E-02 0.24719326E+02</pdfrwt>
<totfact> 0.86012471E+07</totfact>
</mgrwt>
</event>
<event>
 4    1  0.2721071E+004  0.2223641E+02  0.7546771E-02  0.1704195E+00
         21   -1    0    0  501  502  0.00000000000E+00  0.00000000000E+00  0.82246209964E+02  0.82246209964E+02  0.00000000000E+00 0.  1.
         21   -1    0    0  502  503 -0.00000000000E+00 -0.00000000000E+00 -0.72803418868E+01  0.72803418868E+01  0.00000000000E+00 0. -1.
          2    1    1    2  501    0  0.15861154799E+02  0.15584659519E+02  0.56167258608E+02  0.60408764128E+02  0.00000000000E+00 0.  1.
         -2    1    1    2    0  503 -0.15861154799E+02 -0.15584659519E+02  0.18798609469E+02  0.29117787723E+02  0.00000000000E+00 0. -1.
<mgrwt>
<rscale>  2 0.22236408E+02</rscale>
<asrwt>0</asrwt>
<pdfrwt beam="1">  1       21 0.12653262E-01 0.22236408E+02</pdfrwt>
<pdfrwt beam="2">  1       21 0.11200527E-02 0.22236408E+02</pdfrwt>
<totfact> 0.11259288E+08</totfact>
</mgrwt>
</event>
<event>
 4    1  0.2721071E+004  0.2102906E+02  0.7546771E-02  0.1725606E+00
         21   -1    0    0  501  502  0.00000000000E+00  0.00000000000E+00  0.13822430544E+03  0.13822430544E+03  0.00000000000E+00 0. -1.
         21   -1    0    0  502  503 -0.00000000000E+00 -0.00000000000E+00 -0.40586632241E+01  0.40586632241E+01  0.00000000000E+00 0.  1.
          2    1    1    2  501    0 -0.66386230230E+01  0.19953693223E+02  0.99818359516E+02  0.10200944116E+03  0.00000000000E+00 0. -1.
         -2    1    1    2    0  503  0.66386230230E+01 -0.19953693223E+02  0.34347282698E+02  0.40273527504E+02  0.00000000000E+00 0.  1.
<mgrwt>
<rscale>  2 0.21029056E+02</rscale>
<asrwt>0</asrwt>
<pdfrwt beam="1">  1       21 0.21265274E-01 0.21029056E+02</pdfrwt>
<pdfrwt beam="2">  1       21 0.62440983E-03 0.21029056E+02</pdfrwt>
<totfact> 0.10894009E+08</totfact>
</mgrwt>
</event>
<event>
 4    1  0.2721071E+004  0.2053997E+02  0.7546771E-02  0.1734798E+00
         21   -1    0    0  501  502  0.00000000000E+00  0.00000000000E+00  0.59814204613E+00  0.59814204613E+00  0.00000000000E+00 0.  1.
         21   -1    0    0  502  503 -0.00000000000E+00 -0.00000000000E+00 -0.86936077288E+03  0.86936077288E+03  0.00000000000E+00 0. -1.
          2    1    1    2  501    0  0.11576345662E+02  0.16966986271E+02 -0.24544082644E+03  0.24629878133E+03  0.00000000000E+00 0.  1.
         -2    1    1    2    0  503 -0.11576345662E+02 -0.16966986271E+02 -0.62332180439E+03  0.62366013359E+03  0.00000000000E+00 0. -1.
<mgrwt>
<rscale>  2 0.20539971E+02</rscale>
<asrwt>0</asrwt>
<pdfrwt beam="1">  1       21 0.92021188E-04 0.20539971E+02</pdfrwt>
<pdfrwt beam="2">  1       21 0.13374878E+00 0.20539971E+02</pdfrwt>
<totfact> 0.45415985E+07</totfact>
</mgrwt>
</event>
<event>
 4    1  0.2721071E+004  0.5588676E+02  0.7546771E-02  0.1415951E+00
         21   -1    0    0  503  502  0.00000000000E+00  0.00000000000E+00  0.16278185536E+02  0.16278185536E+02  0.00000000000E+00 0.  1.
         21   -1    0    0  501  503 -0.00000000000E+00 -0.00000000000E+00 -0.19401228706E+03  0.19401228706E+03  0.00000000000E+00 0. -1.
          2    1    1    2  501    0 -0.76238555115E+01 -0.55364312372E+02 -0.99910303761E+02  0.11447881487E+03  0.00000000000E+00 0.  1.
         -2    1    1    2    0  502  0.76238555115E+01  0.55364312372E+02 -0.77823797762E+02  0.95811657722E+02  0.00000000000E+00 0. -1.
<mgrwt>
<rscale>  2 0.55886763E+02</rscale>
<asrwt>0</asrwt>
<pdfrwt beam="1">  1       21 0.25043361E-02 0.55886763E+02</pdfrwt>
<pdfrwt beam="2">  1       21 0.29848046E-01 0.55886763E+02</pdfrwt>
<totfact> 0.84098118E+06</totfact>
</mgrwt>
</event>
<event>
 4    1  0.2721071E+004  0.2107613E+02  0.7546771E-02  0.1724738E+00
         21   -1    0    0  501  502  0.00000000000E+00  0.00000000000E+00  0.32853437935E+01  0.32853437935E+01  0.00000000000E+00 0. -1.
         21   -1    0    0  502  503 -0.00000000000E+00 -0.00000000000E+00 -0.17264697218E+03  0.17264697218E+03  0.00000000000E+00 0.  1.
          2    1    1    2  501    0 -0.20255581904E+02 -0.58236215961E+01 -0.43716949888E+02  0.48532204507E+02  0.00000000000E+00 0. -1.
         -2    1    1    2    0  503  0.20255581904E+02  0.58236215961E+01 -0.12564467850E+03  0.12740011147E+03  0.00000000000E+00 0.  1.
<mgrwt>
<rscale>  2 0.21076128E+02</rscale>
<asrwt>0</asrwt>
<pdfrwt beam="1">  1       21 0.50543735E-03 0.21076128E+02</pdfrwt>
<pdfrwt beam="2">  1       21 0.26561081E-01 0.21076128E+02</pdfrwt>
<totfact> 0.10050153E+08</totfact>
</mgrwt>
</event>
<event>
 4    1  0.2721071E+004  0.2351141E+02  0.7546771E-02  0.1683352E+00
         21   -1    0    0  501  502  0.00000000000E+00  0.00000000000E+00  0.24433520906E+02  0.24433520906E+02  0.00000000000E+00 0.  1.
         21   -1    0    0  502  503 -0.00000000000E+00 -0.00000000000E+00 -0.30856505277E+02  0.30856505277E+02  0.00000000000E+00 0. -1.
          2    1    1    2  501    0 -0.42887803585E+01 -0.23116940008E+02  0.11067799330E+02  0.25986202768E+02  0.00000000000E+00 0.  1.
         -2    1    1    2    0  503  0.42887803585E+01  0.23116940008E+02 -0.17490783701E+02  0.29303823416E+02  0.00000000000E+00 0. -1.
<mgrwt>
<rscale>  2 0.23511413E+02</rscale>
<asrwt>0</asrwt>
<pdfrwt beam="1">  1       21 0.37590032E-02 0.23511413E+02</pdfrwt>
<pdfrwt beam="2">  1       21 0.47471547E-02 0.23511413E+02</pdfrwt>
<totfact> 0.88016124E+07</totfact>
</mgrwt>
</event>
<event>
 4    1  0.2721071E+004  0.2941617E+02  0.7546771E-02  0.1604633E+00
         21   -1    0    0  503  502  0.00000000000E+00  0.00000000000E+00  0.10174140594E+02  0.10174140594E+02  0.00000000000E+00 0.  1.
         21   -1    0    0  501  503 -0.00000000000E+00 -0.00000000000E+00 -0.14743874216E+03  0.14743874216E+03  0.00000000000E+00 0. -1.
          2    1    1    2  501    0 -0.27363827888E+02  0.10794992254E+02 -0.11989588035E+03  0.12345174385E+03  0.00000000000E+00 0. -1.
         -2    1    1    2    0  502  0.27363827888E+02 -0.10794992254E+02 -0.17368721209E+02  0.34161138899E+02  0.00000000000E+00 0.  1.
<mgrwt>
<rscale>  2 0.29416168E+02</rscale>
<asrwt>0</asrwt>
<pdfrwt beam="1">  1       21 0.15652525E-02 0.29416168E+02</pdfrwt>
<pdfrwt beam="2">  1       21 0.22682882E-01 0.29416168E+02</pdfrwt>
<totfact> 0.26413043E+07</totfact>
</mgrwt>
</event>
<event>
 4    1  0.2721071E+004  0.2114311E+02  0.7546771E-02  0.1723507E+00
         21   -1    0    0  503  502  0.00000000000E+00  0.00000000000E+00  0.28801395250E+02  0.28801395250E+02  0.00000000000E+00 0.  1.
         21   -1    0    0  501  503 -0.00000000000E+00 -0.00000000000E+00 -0.17147393552E+02  0.17147393552E+02  0.00000000000E+00 0. -1.
          2    1    1    2  501    0  0.20823775141E+02 -0.36608284148E+01 -0.12481465263E+01  0.21179923171E+02  0.00000000000E+00 0. -1.
         -2    1    1    2    0  502 -0.20823775141E+02  0.36608284148E+01  0.12902148225E+02  0.24768865630E+02  0.00000000000E+00 0.  1.
<mgrwt>
<rscale>  2 0.21143114E+02</rscale>
<asrwt>0</asrwt>
<pdfrwt beam="1">  1       21 0.44309839E-02 0.21143114E+02</pdfrwt>
<pdfrwt beam="2">  1       21 0.26380606E-02 0.21143114E+02</pdfrwt>
<totfact> 0.16515963E+08</totfact>
</mgrwt>
</event>
<event>
 4    1  0.2721071E+004  0.2719863E+02  0.7546771E-02  0.1631293E+00
         21   -1    0    0  503  502  0.00000000000E+00  0.00000000000E+00  0.38893173043E+03  0.38893173043E+03  0.00000000000E+00 0. -1.
         21   -1    0    0  501  503 -0.00000000000E+00 -0.00000000000E+00 -0.19984952161E+01  0.19984952161E+01  0.00000000000E+00 0.  1.
          2    1    1    2  501    0 -0.23958420943E+02  0.12874766976E+02  0.15052584570E+03  0.15296338052E+03  0.00000000000E+00 0.  1.
         -2    1    1    2    0  502  0.23958420943E+02 -0.12874766976E+02  0.23640738952E+03  0.23796684512E+03  0.00000000000E+00 0. -1.
<mgrwt>
<rscale>  2 0.27198632E+02</rscale>
<asrwt>0</asrwt>
<pdfrwt beam="1">  1       21 0.59835591E-01 0.27198632E+02</pdfrwt>
<pdfrwt beam="2">  1       21 0.30746111E-03 0.27198632E+02</pdfrwt>
<totfact> 0.47782229E+07</totfact>
</mgrwt>
</event>
<event>
 4    1  0.2721071E+004  0.2296850E+02  0.7546771E-02  0.1692021E+00
         21   -1    0    0  501  502  0.00000000000E+00  0.00000000000E+00  0.12304159546E+03  0.12304159546E+03  0.00000000000E+00 0.  1.
         21   -1    0    0  502  503 -0.00000000000E+00 -0.00000000000E+00 -0.68412576990E+01  0.68412576990E+01  0.00000000000E+00 0. -1.
          2    1    1    2  501    0  0.21732331265E+02 -0.74335606362E+01  0.97776906024E+02  0.10043841594E+03  0.00000000000E+00 0.  1.
         -2    1    1    2    0  503 -0.21732331265E+02  0.74335606362E+01  0.18423431740E+02  0.29444437217E+02  0.00000000000E+00 0. -1.
<mgrwt>
<rscale>  2 0.22968501E+02</rscale>
<asrwt>0</asrwt>
<pdfrwt beam="1">  1       21 0.18929475E-01 0.22968501E+02</pdfrwt>
<pdfrwt beam="2">  1       21 0.10525013E-02 0.22968501E+02</pdfrwt>
<totfact> 0.62744889E+07</totfact>
</mgrwt>
</event>
<event>
 4    1  0.2721071E+004  0.2934134E+02  0.7546771E-02  0.1605485E+00
         21   -1    0    0  501  502  0.00000000000E+00  0.00000000000E+00  0.27721657834E+01  0.27721657834E+01  0.00000000000E+00 0.  1.
         21   -1    0    0  502  503 -0.00000000000E+00 -0.00000000000E+00 -0.44292814870E+03  0.44292814870E+03  0.00000000000E+00 0. -1.
          2    1    1    2  501    0 -0.15283610081E+02  0.25046469710E+02 -0.98250969455E+02  0.10253861410E+03  0.00000000000E+00 0.  1.
         -2    1    1    2    0  503  0.15283610081E+02 -0.25046469710E+02 -0.34190501346E+03  0.34316170038E+03  0.00000000000E+00 0. -1.
<mgrwt>
<rscale>  2 0.29341343E+02</rscale>
<asrwt>0</asrwt>
<pdfrwt beam="1">  1       21 0.42648674E-03 0.29341343E+02</pdfrwt>
<pdfrwt beam="2">  1       21 0.68142840E-01 0.29341343E+02</pdfrwt>
<totfact> 0.22972641E+07</totfact>
</mgrwt>
</event>
<event>
 4    1  0.2721071E+004  0.2028657E+02  0.7546771E-02  0.1739689E+00
         21   -1    0    0  503  502  0.00000000000E+00  0.00000000000E+00  0.15163359722E+02  0.15163359722E+02  0.00000000000E+00 0. -1.
         21   -1    0    0  501  503 -0.00000000000E+00 -0.00000000000E+00 -0.43828054892E+02  0.43828054892E+02  0.00000000000E+00 0.  1.
          2    1    1    2  501    0 -0.45290498223E+00  0.20281510429E+02 -0.32532539206E+02  0.38339416994E+02  0.00000000000E+00 0.  1.
         -2    1    1    2    0  502  0.45290498223E+00 -0.20281510429E+02  0.38678440359E+01  0.20651997620E+02  0.00000000000E+00 0. -1.
<mgrwt>
<rscale>  2 0.20286567E+02</rscale>
<asrwt>0</asrwt>
<pdfrwt beam="1">  1       21 0.23328246E-02 0.20286567E+02</pdfrwt>
<pdfrwt beam="2">  1       21 0.67427775E-02 0.20286567E+02</pdfrwt>
<totfact> 0.10100441E+08</totfact>
</mgrwt>
</event>
<event>
 4    1  0.2721071E+004  0.2481967E+02  0.7546771E-02  0.1663606E+00
         21   -1    0    0  501  502  0.00000000000E+00  0.00000000000E+00  0.18474728677E+01  0.18474728677E+01  0.00000000000E+00 0. -1.
         21   -1    0    0  502  503 -0.00000000000E+00 -0.00000000000E+00 -0.92154590502E+03  0.92154590502E+03  0.00000000000E+00 0.  1.
          2    1    1    2  501    0  0.15793963943E+02 -0.19145927716E+02 -0.91018447129E+02  0.94341791179E+02  0.00000000000E+00 0. -1.
         -2    1    1    2    0  503 -0.15793963943E+02  0.19145927716E+02 -0.82867998503E+03  0.82905158671E+03  0.00000000000E+00 0.  1.
<mgrwt>
<rscale>  2 0.24819666E+02</rscale>
<asrwt>0</asrwt>
<pdfrwt beam="1">  1       21 0.28422617E-03 0.24819666E+02</pdfrwt>
<pdfrwt beam="2">  1       21 0.14177651E+00 0.24819666E+02</pdfrwt>
<totfact> 0.81113456E+06</totfact>
</mgrwt>
</event>
<event>
 4    1  0.2721071E+004  0.2731720E+02  0.7546771E-02  0.1629789E+00
         21   -1    0    0  501  502  0.00000000000E+00  0.00000000000E+00  0.11798295733E+03  0.11798295733E+03  0.00000000000E+00 0. -1.
         21   -1    0    0  502  503 -0.00000000000E+00 -0.00000000000E+00 -0.21507479475E+02  0.21507479475E+02  0.00000000000E+00 0.  1.
          2    1    1    2  501    0 -0.80415593735E+01 -0.26106756981E+02  0.10683705929E+03  0.11027414328E+03  0.00000000000E+00 0. -1.
         -2    1    1    2    0  503  0.80415593735E+01  0.26106756981E+02 -0.10361581442E+02  0.29216293523E+02  0.00000000000E+00 0.  1.
<mgrwt>
<rscale>  2 0.27317200E+02</rscale>
<asrwt>0</asrwt>
<pdfrwt beam="1">  1       21 0.18151224E-01 0.27317200E+02</pdfrwt>
<pdfrwt beam="2">  1       21 0.33088431E-02 0.27317200E+02</pdfrwt>
<totfact> 0.12057964E+07</totfact>
</mgrwt>
</event>
<event>
 4    1  0.2721071E+004  0.2759150E+02  0.7546771E-02  0.1626347E+00
         21   -1    0    0  503  502  0.00000000000E+00  0.00000000000E+00  0.17305096767E+03  0.17305096767E+03  0.00000000000E+00 0.  1.
         21   -1    0    0  501  503 -0.00000000000E+00 -0.00000000000E+00 -0.76927838054E+01  0.76927838054E+01  0.00000000000E+00 0. -1.
          2    1    1    2  501    0  0.86287623546E+00  0.27578008768E+02  0.23546914614E+02  0.36273245110E+02  0.00000000000E+00 0. -1.
         -2    1    1    2    0  502 -0.86287623546E+00 -0.27578008768E+02  0.14181126925E+03  0.14447050637E+03  0.00000000000E+00 0.  1.
<mgrwt>
<rscale>  2 0.27591505E+02</rscale>
<asrwt>0</asrwt>
<pdfrwt beam="1">  1       21 0.26623223E-01 0.27591505E+02</pdfrwt>
<pdfrwt beam="2">  1       21 0.11835053E-02 0.27591505E+02</pdfrwt>
<totfact> 0.29964781E+07</totfact>
</mgrwt>
</event>
<event>
 4    1  0.2721071E+004  0.2687021E+02  0.7546771E-02  0.1635507E+00
         21   -1    0    0  503  502  0.00000000000E+00  0.00000000000E+00  0.57956365665E+02  0.57956365665E+02  0.00000000000E+00 0.  1.
         21   -1    0    0  501  503 -0.00000000000E+00 -0.00000000000E+00 -0.14098575233E+02  0.14098575233E+02  0.00000000000E+00 0. -1.
          2    1    1    2  501    0 -0.13512280512E+01 -0.26836209840E+02  0.96383085571E+01  0.28546540380E+02  0.00000000000E+00 0. -1.
         -2    1    1    2    0  502  0.13512280512E+01  0.26836209840E+02  0.34219481875E+02  0.43508400518E+02  0.00000000000E+00 0.  1.
<mgrwt>
<rscale>  2 0.26870206E+02</rscale>
<asrwt>0</asrwt>
<pdfrwt beam="1">  1       21 0.89163638E-02 0.26870206E+02</pdfrwt>
<pdfrwt beam="2">  1       21 0.21690116E-02 0.26870206E+02</pdfrwt>
<totfact> 0.77437997E+07</totfact>
</mgrwt>
</event>
<event>
 4    1  0.2721071E+004  0.2513215E+02  0.7546771E-02  0.1659111E+00
         21   -1    0    0  501  502  0.00000000000E+00  0.00000000000E+00  0.72718215542E+01  0.72718215542E+01  0.00000000000E+00 0. -1.
         21   -1    0    0  502  503 -0.00000000000E+00 -0.00000000000E+00 -0.24996447542E+03  0.24996447542E+03  0.00000000000E+00 0.  1.
          2    1    1    2  501    0 -0.53015786661E+01  0.24566606414E+02 -0.17450749904E+02  0.30596626600E+02  0.00000000000E+00 0. -1.
         -2    1    1    2    0  503  0.53015786661E+01 -0.24566606414E+02 -0.22524190396E+03  0.22663967037E+03  0.00000000000E+00 0.  1.
<mgrwt>
<rscale>  2 0.25132148E+02</rscale>
<asrwt>0</asrwt>
<pdfrwt beam="1">  1       21 0.11187420E-02 0.25132148E+02</pdfrwt>
<pdfrwt beam="2">  1       21 0.38456065E-01 0.25132148E+02</pdfrwt>
<totfact> 0.16264654E+07</totfact>
</mgrwt>
</event>
<event>
 4    1  0.2721071E+004  0.2024031E+02  0.7546771E-02  0.1740591E+00
         21   -1    0    0  503  502  0.00000000000E+00  0.00000000000E+00  0.84468168044E+02  0.84468168044E+02  0.00000000000E+00 0.  1.
         21   -1    0    0  501  503 -0.00000000000E+00 -0.00000000000E+00 -0.28121466394E+02  0.28121466394E+02  0.00000000000E+00 0. -1.
          2    1    1    2  501    0 -0.12036563849E+02  0.16272404743E+02 -0.23037426967E+02  0.30665828974E+02  0.00000000000E+00 0. -1.
         -2    1    1    2    0  502  0.12036563849E+02 -0.16272404743E+02  0.79384128617E+02  0.81923805464E+02  0.00000000000E+00 0.  1.
<mgrwt>
<rscale>  2 0.20240307E+02</rscale>
<asrwt>0</asrwt>
<pdfrwt beam="1">  1       21 0.12995103E-01 0.20240307E+02</pdfrwt>
<pdfrwt beam="2">  1       21 0.43263795E-02 0.20240307E+02</pdfrwt>
<totfact> 0.13191554E+07</totfact>
</mgrwt>
</event>
<event>
 4    1  0.2721071E+004  0.2440263E+02  0.7546771E-02  0.1669733E+00
         21   -1    0    0  503  502  0.00000000000E+00  0.00000000000E+00  0.21739854401E+03  0.21739854401E+03  0.00000000000E+00 0.  1.
         21   -1    0    0  501  503 -0.00000000000E+00 -0.00000000000E+00 -0.12291433850E+02  0.12291433850E+02  0.00000000000E+00 0. -1.
          2    1    1    2  501    0 -0.23436361085E+02 -0.67989364072E+01  0.13107321240E+01  0.24437810374E+02  0.00000000000E+00 0. -1.
         -2    1    1    2    0  502  0.23436361085E+02  0.67989364072E+01  0.20379637804E+03  0.20525216749E+03  0.00000000000E+00 0.  1.
<mgrwt>
<rscale>  2 0.24402634E+02</rscale>
<asrwt>0</asrwt>
<pdfrwt beam="1">  1       21 0.33445927E-01 0.24402634E+02</pdfrwt>
<pdfrwt beam="2">  1       21 0.18909900E-02 0.24402634E+02</pdfrwt>
<totfact> 0.94369894E+06</totfact>
</mgrwt>
</event>
<event>
 4    1  0.2721071E+004  0.2112240E+02  0.7546771E-02  0.1723887E+00
         21   -1    0    0  501  502  0.00000000000E+00  0.00000000000E+00  0.22704822464E+03  0.22704822464E+03  0.00000000000E+00 0.  1.
         21   -1    0    0  502  503 -0.00000000000E+00 -0.00000000000E+00 -0.24290859934E+02  0.24290859934E+02  0.00000000000E+00 0. -1.
          2    1    1    2  501    0 -0.20268369145E+02  0.59455087811E+01  0.22185797941E+03  0.22286120993E+03  0.00000000000E+00 0.  1.
         -2    1    1    2    0  503  0.20268369145E+02 -0.59455087811E+01 -0.19100614703E+02  0.28477874648E+02  0.00000000000E+00 0. -1.
<mgrwt>
<rscale>  2 0.21122402E+02</rscale>
<asrwt>0</asrwt>
<pdfrwt beam="1">  1       21 0.34930495E-01 0.21122402E+02</pdfrwt>
<pdfrwt beam="2">  1       21 0.37370555E-02 0.21122402E+02</pdfrwt>
<totfact> 0.29604452E+06</totfact>
</mgrwt>
</event>
<event>
 4    1  0.2721071E+004  0.2017394E+02  0.7546771E-02  0.1741891E+00
         21   -1    0    0  501  502  0.00000000000E+00  0.00000000000E+00  0.23221604697E+02  0.23221604697E+02  0.00000000000E+00 0.  1.
         21   -1    0    0  502  503 -0.00000000000E+00 -0.00000000000E+00 -0.17731257156E+02  0.17731257156E+02  0.00000000000E+00 0. -1.
          2    1    1    2  501    0 -0.40015941758E+01 -0.19773086011E+02  0.54342725261E+00  0.20181253666E+02  0.00000000000E+00 0. -1.
         -2    1    1    2    0  503  0.40015941758E+01  0.19773086011E+02  0.49469202887E+01  0.20771608188E+02  0.00000000000E+00 0.  1.
<mgrwt>
<rscale>  2 0.20173936E+02</rscale>
<asrwt>0</asrwt>
<pdfrwt beam="1">  1       21 0.35725546E-02 0.20173936E+02</pdfrwt>
<pdfrwt beam="2">  1       21 0.27278857E-02 0.20173936E+02</pdfrwt>
<totfact> 0.21657275E+08</totfact>
</mgrwt>
</event>
<event>
 4    1  0.2721071E+004  0.2168939E+02  0.7546771E-02  0.1713680E+00
         21   -1    0    0  503  502  0.00000000000E+00  0.00000000000E+00  0.24770991751E+03  0.24770991751E+03  0.00000000000E+00 0. -1.
         21   -1    0    0  501  503 -0.00000000000E+00 -0.00000000000E+00 -0.36494342745E+01  0.36494342745E+01  0.00000000000E+00 0.  1.
          2    1    1    2  501    0  0.18696400328E+02  0.10994274033E+02  0.34991820716E+02  0.41168640538E+02  0.00000000000E+00 0.  1.
         -2    1    1    2    0  502 -0.18696400328E+02 -0.10994274033E+02  0.20906866252E+03  0.21019071125E+03  0.00000000000E+00 0. -1.
<mgrwt>
<rscale>  2 0.21689386E+02</rscale>
<asrwt>0</asrwt>
<pdfrwt beam="1">  1       21 0.38109205E-01 0.21689386E+02</pdfrwt>
<pdfrwt beam="2">  1       21 0.56145162E-03 0.21689386E+02</pdfrwt>
<totfact> 0.44860309E+07</totfact>
</mgrwt>
</event>
<event>
 4    1  0.2721071E+004  0.2265222E+02  0.7546771E-02  0.1697210E+00
         21   -1    0    0  501  502  0.00000000000E+00  0.00000000000E+00  0.31755861383E+03  0.31755861383E+03  0.00000000000E+00 0.  1.
         21   -1    0    0  502  503 -0.00000000000E+00 -0.00000000000E+00 -0.25512635747E+01  0.25512635747E+01  0.00000000000E+00 0. -1.
          2    1    1    2  501    0  0.54540515270E+01  0.21985821436E+02  0.25441983997E+03  0.25542626724E+03  0.00000000000E+00 0.  1.
         -2    1    1    2    0  503 -0.54540515270E+01 -0.21985821436E+02  0.60587510284E+02  0.64683610170E+02  0.00000000000E+00 0. -1.
<mgrwt>
<rscale>  2 0.22652219E+02</rscale>
<asrwt>0</asrwt>
<pdfrwt beam="1">  1       21 0.48855140E-01 0.22652219E+02</pdfrwt>
<pdfrwt beam="2">  1       21 0.39250234E-03 0.22652219E+02</pdfrwt>
<totfact> 0.47859403E+07</totfact>
</mgrwt>
</event>
<event>
 4    1  0.2721071E+004  0.3188817E+02  0.7546771E-02  0.1578109E+00
         21   -1    0    0  503  502  0.00000000000E+00  0.00000000000E+00  0.59202497525E+02  0.59202497525E+02  0.00000000000E+00 0. -1.
         21   -1    0    0  501  503 -0.00000000000E+00 -0.00000000000E+00 -0.53008367518E+02  0.53008367518E+02  0.00000000000E+00 0.  1.
          2    1    1    2  501    0  0.27311813351E+02 -0.16459662456E+02 -0.43031624131E+02  0.53559091777E+02  0.00000000000E+00 0.  1.
         -2    1    1    2    0  502 -0.27311813351E+02  0.16459662456E+02  0.49225754138E+02  0.58651773265E+02  0.00000000000E+00 0. -1.
<mgrwt>
<rscale>  2 0.31888174E+02</rscale>
<asrwt>0</asrwt>
<pdfrwt beam="1">  1       21 0.91080766E-02 0.31888174E+02</pdfrwt>
<pdfrwt beam="2">  1       21 0.81551334E-02 0.31888174E+02</pdfrwt>
<totfact> 0.93469643E+06</totfact>
</mgrwt>
</event>
<event>
 4    1  0.2721071E+004  0.2470272E+02  0.7546771E-02  0.1665309E+00
         21   -1    0    0  501  502  0.00000000000E+00  0.00000000000E+00  0.38071430878E+03  0.38071430878E+03  0.00000000000E+00 0. -1.
         21   -1    0    0  502  503 -0.00000000000E+00 -0.00000000000E+00 -0.16190206047E+01  0.16190206047E+01  0.00000000000E+00 0.  1.
          2    1    1    2  501    0 -0.11176372392E+02  0.22029823263E+02  0.17043709698E+03  0.17221796782E+03  0.00000000000E+00 0. -1.
         -2    1    1    2    0  503  0.11176372392E+02 -0.22029823263E+02  0.20865819120E+03  0.21011536157E+03  0.00000000000E+00 0.  1.
<mgrwt>
<rscale>  2 0.24702721E+02</rscale>
<asrwt>0</asrwt>
<pdfrwt beam="1">  1       21 0.58571361E-01 0.24702721E+02</pdfrwt>
<pdfrwt beam="2">  1       21 0.24908040E-03 0.24702721E+02</pdfrwt>
<totfact> 0.66415636E+07</totfact>
</mgrwt>
</event>
<event>
 4    1  0.2721071E+004  0.2117247E+02  0.7546771E-02  0.1722970E+00
         21   -1    0    0  503  502  0.00000000000E+00  0.00000000000E+00  0.31637752774E+01  0.31637752774E+01  0.00000000000E+00 0. -1.
         21   -1    0    0  501  503 -0.00000000000E+00 -0.00000000000E+00 -0.17291314984E+03  0.17291314984E+03  0.00000000000E+00 0.  1.
          2    1    1    2  501    0 -0.13224356946E+02  0.16534500414E+02 -0.12228584847E+03  0.12410520560E+03  0.00000000000E+00 0.  1.
         -2    1    1    2    0  502  0.13224356946E+02 -0.16534500414E+02 -0.47463526088E+02  0.51971719515E+02  0.00000000000E+00 0. -1.
<mgrwt>
<rscale>  2 0.21172466E+02</rscale>
<asrwt>0</asrwt>
<pdfrwt beam="1">  1       21 0.48673445E-03 0.21172466E+02</pdfrwt>
<pdfrwt beam="2">  1       21 0.26602034E-01 0.21172466E+02</pdfrwt>
<totfact> 0.10607339E+08</totfact>
</mgrwt>
</event>
<event>
 4    1  0.2721071E+004  0.2017185E+02  0.7546771E-02  0.1741932E+00
         21   -1    0    0  501  502  0.00000000000E+00  0.00000000000E+00  0.18982146262E+02  0.18982146262E+02  0.00000000000E+00 0. -1.
         21   -1    0    0  502  503 -0.00000000000E+00 -0.00000000000E+00 -0.11058515449E+03  0.11058515449E+03  0.00000000000E+00 0.  1.
          2    1    1    2  501    0 -0.17156019363E+02 -0.10610112687E+02  0.12365317379E+02  0.23660189465E+02  0.00000000000E+00 0. -1.
         -2    1    1    2    0  503  0.17156019363E+02  0.10610112687E+02 -0.10396832561E+03  0.10590711129E+03  0.00000000000E+00 0.  1.
<mgrwt>
<rscale>  2 0.20171849E+02</rscale>
<asrwt>0</asrwt>
<pdfrwt beam="1">  1       21 0.29203302E-02 0.20171849E+02</pdfrwt>
<pdfrwt beam="2">  1       21 0.17013100E-01 0.20171849E+02</pdfrwt>
<totfact> 0.15426084E+07</totfact>
</mgrwt>
</event>
<event>
 4    1  0.2721071E+004  0.2275290E+02  0.7546771E-02  0.1695547E+00
         21   -1    0    0  503  502  0.00000000000E+00  0.00000000000E+00  0.13535356908E+02  0.13535356908E+02  0.00000000000E+00 0. -1.
         21   -1    0    0  501  503 -0.00000000000E+00 -0.00000000000E+00 -0.47276466318E+02  0.47276466318E+02  0.00000000000E+00 0.  1.
          2    1    1    2  501    0  0.21355382561E+02 -0.78512399231E+01 -0.30158357509E+02  0.37778576737E+02  0.00000000000E+00 0. -1.
         -2    1    1    2    0  502 -0.21355382561E+02  0.78512399231E+01 -0.35827519009E+01  0.23033246489E+02  0.00000000000E+00 0.  1.
<mgrwt>
<rscale>  2 0.22752897E+02</rscale>
<asrwt>0</asrwt>
<pdfrwt beam="1">  1       21 0.20823626E-02 0.22752897E+02</pdfrwt>
<pdfrwt beam="2">  1       21 0.72733025E-02 0.22752897E+02</pdfrwt>
<totfact> 0.11004654E+08</totfact>
</mgrwt>
</event>
<event>
 4    1  0.2721071E+004  0.2853952E+02  0.7546771E-02  0.1614817E+00
         21   -1    0    0  503  502  0.00000000000E+00  0.00000000000E+00  0.18367771761E+02  0.18367771761E+02  0.00000000000E+00 0.  1.
         21   -1    0    0  501  503 -0.00000000000E+00 -0.00000000000E+00 -0.79986428549E+02  0.79986428549E+02  0.00000000000E+00 0. -1.
          2    1    1    2  501    0  0.81279999283E+01  0.27357629874E+02 -0.63636777637E+02  0.69743413762E+02  0.00000000000E+00 0. -1.
         -2    1    1    2    0  502 -0.81279999283E+01 -0.27357629874E+02  0.20181208485E+01  0.28610786548E+02  0.00000000000E+00 0.  1.
<mgrwt>
<rscale>  2 0.28539522E+02</rscale>
<asrwt>0</asrwt>
<pdfrwt beam="1">  1       21 0.28258111E-02 0.28539522E+02</pdfrwt>
<pdfrwt beam="2">  1       21 0.12305604E-01 0.28539522E+02</pdfrwt>
<totfact> 0.30359001E+07</totfact>
</mgrwt>
</event>
<event>
 4    1  0.2721071E+004  0.2446396E+02  0.7546771E-02  0.1668823E+00
         21   -1    0    0  501  502  0.00000000000E+00  0.00000000000E+00  0.81707149951E+01  0.81707149951E+01  0.00000000000E+00 0. -1.
         21   -1    0    0  502  503 -0.00000000000E+00 -0.00000000000E+00 -0.73660620383E+02  0.73660620383E+02  0.00000000000E+00 0.  1.
          2    1    1    2  501    0 -0.23493556502E+02  0.68218932495E+01 -0.29681244895E+02  0.38463771567E+02  0.00000000000E+00 0. -1.
         -2    1    1    2    0  503  0.23493556502E+02 -0.68218932495E+01 -0.35808660493E+02  0.43367563812E+02  0.00000000000E+00 0.  1.
<mgrwt>
<rscale>  2 0.24463962E+02</rscale>
<asrwt>0</asrwt>
<pdfrwt beam="1">  1       21 0.12570331E-02 0.24463962E+02</pdfrwt>
<pdfrwt beam="2">  1       21 0.11332403E-01 0.24463962E+02</pdfrwt>
<totfact> 0.11693606E+08</totfact>
</mgrwt>
</event>
<event>
 4    1  0.2721071E+004  0.2735738E+02  0.7546771E-02  0.1629282E+00
         21   -1    0    0  501  502  0.00000000000E+00  0.00000000000E+00  0.19942178632E+02  0.19942178632E+02  0.00000000000E+00 0.  1.
         21   -1    0    0  502  503 -0.00000000000E+00 -0.00000000000E+00 -0.29567272570E+03  0.29567272570E+03  0.00000000000E+00 0. -1.
          2    1    1    2  501    0 -0.24570341788E+02  0.12030160815E+02  0.95871683108E+01  0.28988622959E+02  0.00000000000E+00 0.  1.
         -2    1    1    2    0  503  0.24570341788E+02 -0.12030160815E+02 -0.28531771538E+03  0.28662628138E+03  0.00000000000E+00 0. -1.
<mgrwt>
<rscale>  2 0.27357384E+02</rscale>
<asrwt>0</asrwt>
<pdfrwt beam="1">  1       21 0.30680276E-02 0.27357384E+02</pdfrwt>
<pdfrwt beam="2">  1       21 0.45488111E-01 0.27357384E+02</pdfrwt>
<totfact> 0.25331676E+06</totfact>
</mgrwt>
</event>
<event>
 4    1  0.2721071E+004  0.3933317E+02  0.7546771E-02  0.1513177E+00
         21   -1    0    0  501  502  0.00000000000E+00  0.00000000000E+00  0.30555182262E+02  0.30555182262E+02  0.00000000000E+00 0. -1.
         21   -1    0    0  502  503 -0.00000000000E+00 -0.00000000000E+00 -0.51421715133E+02  0.51421715133E+02  0.00000000000E+00 0.  1.
          2    1    1    2  501    0 -0.23246742937E+02  0.31728329451E+02 -0.53566811779E+01  0.39696246424E+02  0.00000000000E+00 0. -1.
         -2    1    1    2    0  503  0.23246742937E+02 -0.31728329451E+02 -0.15509851693E+02  0.42280650970E+02  0.00000000000E+00 0.  1.
<mgrwt>
<rscale>  2 0.39333166E+02</rscale>
<asrwt>0</asrwt>
<pdfrwt beam="1">  1       21 0.47007973E-02 0.39333166E+02</pdfrwt>
<pdfrwt beam="2">  1       21 0.79110330E-02 0.39333166E+02</pdfrwt>
<totfact> 0.30129596E+07</totfact>
</mgrwt>
</event>
<event>
 4    1  0.2721071E+004  0.2758985E+02  0.7546771E-02  0.1626367E+00
         21   -1    0    0  501  502  0.00000000000E+00  0.00000000000E+00  0.20348137728E+02  0.20348137728E+02  0.00000000000E+00 0.  1.
         21   -1    0    0  502  503 -0.00000000000E+00 -0.00000000000E+00 -0.54920903655E+02  0.54920903655E+02  0.00000000000E+00 0. -1.
          2    1    1    2  501    0 -0.27542008418E+02  0.16241026282E+01  0.39649606439E+01  0.27873299947E+02  0.00000000000E+00 0.  1.
         -2    1    1    2    0  503  0.27542008418E+02 -0.16241026282E+01 -0.38537726571E+02  0.47395741436E+02  0.00000000000E+00 0. -1.
<mgrwt>
<rscale>  2 0.27589852E+02</rscale>
<asrwt>0</asrwt>
<pdfrwt beam="1">  1       21 0.31304828E-02 0.27589852E+02</pdfrwt>
<pdfrwt beam="2">  1       21 0.84493697E-02 0.27589852E+02</pdfrwt>
<totfact> 0.48075006E+07</totfact>
</mgrwt>
</event>
<event>
 4    1  0.2721071E+004  0.4178795E+02  0.7546771E-02  0.1495452E+00
         21   -1    0    0  503  502  0.00000000000E+00  0.00000000000E+00  0.54645046216E+02  0.54645046216E+02  0.00000000000E+00 0. -1.
         21   -1    0    0  501  503 -0.00000000000E+00 -0.00000000000E+00 -0.39028928210E+02  0.39028928210E+02  0.00000000000E+00 0.  1.
          2    1    1    2  501    0 -0.16282566330E+02  0.38485204079E+02 -0.12130676950E+02  0.43513058070E+02  0.00000000000E+00 0.  1.
         -2    1    1    2    0  502  0.16282566330E+02 -0.38485204079E+02  0.27746794956E+02  0.50160916356E+02  0.00000000000E+00 0. -1.
<mgrwt>
<rscale>  2 0.41787952E+02</rscale>
<asrwt>0</asrwt>
<pdfrwt beam="1">  1       21 0.84069302E-02 0.41787952E+02</pdfrwt>
<pdfrwt beam="2">  1       21 0.60044505E-02 0.41787952E+02</pdfrwt>
<totfact> 0.18453053E+07</totfact>
</mgrwt>
</event>
<event>
 4    1  0.2721071E+004  0.2018874E+02  0.7546771E-02  0.1741601E+00
         21   -1    0    0  501  502  0.00000000000E+00  0.00000000000E+00  0.34419237641E+01  0.34419237641E+01  0.00000000000E+00 0. -1.
         21   -1    0    0  502  503 -0.00000000000E+00 -0.00000000000E+00 -0.22321018355E+03  0.22321018355E+03  0.00000000000E+00 0.  1.
          2    1    1    2  501    0 -0.11567009347E+02 -0.16546580636E+02 -0.32234815572E+02  0.38035093939E+02  0.00000000000E+00 0. -1.
         -2    1    1    2    0  503  0.11567009347E+02  0.16546580636E+02 -0.18753344421E+03  0.18861701337E+03  0.00000000000E+00 0.  1.
<mgrwt>
<rscale>  2 0.20188735E+02</rscale>
<asrwt>0</asrwt>
<pdfrwt beam="1">  1       21 0.52952685E-03 0.20188735E+02</pdfrwt>
<pdfrwt beam="2">  1       21 0.34340021E-01 0.20188735E+02</pdfrwt>
<totfact> 0.58247140E+07</totfact>
</mgrwt>
</event>
<event>
 4    1  0.2721071E+004  0.2130135E+02  0.7546771E-02  0.1720623E+00
         21   -1    0    0  503  502  0.00000000000E+00  0.00000000000E+00  0.37792967057E+02  0.37792967057E+02  0.00000000000E+00 0.  1.
         21   -1    0    0  501  503 -0.00000000000E+00 -0.00000000000E+00 -0.72196122936E+02  0.72196122936E+02  0.00000000000E+00 0. -1.
          2    1    1    2  501    0  0.21198632875E+02 -0.20893989783E+01 -0.67415574472E+02  0.70700829593E+02  0.00000000000E+00 0. -1.
         -2    1    1    2    0  502 -0.21198632875E+02  0.20893989783E+01  0.33012418592E+02  0.39288260399E+02  0.00000000000E+00 0.  1.
<mgrwt>
<rscale>  2 0.21301353E+02</rscale>
<asrwt>0</asrwt>
<pdfrwt beam="1">  1       21 0.58143027E-02 0.21301353E+02</pdfrwt>
<pdfrwt beam="2">  1       21 0.11107096E-01 0.21301353E+02</pdfrwt>
<totfact> 0.10838543E+07</totfact>
</mgrwt>
</event>
<event>
 4    1  0.2721071E+004  0.4267100E+02  0.7546771E-02  0.1489428E+00
         21   -1    0    0  501  502  0.00000000000E+00  0.00000000000E+00  0.13109003121E+02  0.13109003121E+02  0.00000000000E+00 0. -1.
         21   -1    0    0  502  503 -0.00000000000E+00 -0.00000000000E+00 -0.53003073191E+03  0.53003073191E+03  0.00000000000E+00 0.  1.
          2    1    1    2  501    0 -0.40924326656E+02  0.12083600045E+02 -0.25172459878E+02  0.49542574000E+02  0.00000000000E+00 0. -1.
         -2    1    1    2    0  503  0.40924326656E+02 -0.12083600045E+02 -0.49174926892E+03  0.49359716103E+03  0.00000000000E+00 0.  1.
<mgrwt>
<rscale>  2 0.42670996E+02</rscale>
<asrwt>0</asrwt>
<pdfrwt beam="1">  1       21 0.20167697E-02 0.42670996E+02</pdfrwt>
<pdfrwt beam="2">  1       21 0.81543192E-01 0.42670996E+02</pdfrwt>
<totfact> 0.15440906E+06</totfact>
</mgrwt>
</event>
<event>
 4    1  0.2721071E+004  0.2042894E+02  0.7546771E-02  0.1736930E+00
         21   -1    0    0  503  502  0.00000000000E+00  0.00000000000E+00  0.18821380016E+02  0.18821380016E+02  0.00000000000E+00 0.  1.
         21   -1    0    0  501  503 -0.00000000000E+00 -0.00000000000E+00 -0.22049355873E+03  0.22049355873E+03  0.00000000000E+00 0. -1.
          2    1    1    2  501    0  0.16316382494E+02 -0.12292969725E+02 -0.21431753438E+03  0.21528898482E+03  0.00000000000E+00 0. -1.
         -2    1    1    2    0  502 -0.16316382494E+02  0.12292969725E+02  0.12645355663E+02  0.24025953929E+02  0.00000000000E+00 0.  1.
<mgrwt>
<rscale>  2 0.20428936E+02</rscale>
<asrwt>0</asrwt>
<pdfrwt beam="1">  1       21 0.28955968E-02 0.20428936E+02</pdfrwt>
<pdfrwt beam="2">  1       21 0.33922088E-01 0.20428936E+02</pdfrwt>
<totfact> 0.46242794E+06</totfact>
</mgrwt>
</event>
<event>
 4    1  0.2721071E+004  0.3408715E+02  0.7546771E-02  0.1556860E+00
         21   -1    0    0  501  502  0.00000000000E+00  0.00000000000E+00  0.37699457744E+02  0.37699457744E+02  0.00000000000E+00 0. -1.
         21   -1    0    0  502  503 -0.00000000000E+00 -0.00000000000E+00 -0.75472353076E+02  0.75472353076E+02  0.00000000000E+00 0.  1.
          2    1    1    2  501    0  0.12211150960E+02  0.31824860798E+02  0.24637849495E+02  0.42058977643E+02  0.00000000000E+00 0. -1.
         -2    1    1    2    0  503 -0.12211150960E+02 -0.31824860798E+02 -0.62410744827E+02  0.71112833177E+02  0.00000000000E+00 0.  1.
<mgrwt>
<rscale>  2 0.34087153E+02</rscale>
<asrwt>0</asrwt>
<pdfrwt beam="1">  1       21 0.57999166E-02 0.34087153E+02</pdfrwt>
<pdfrwt beam="2">  1       21 0.11611131E-01 0.34087153E+02</pdfrwt>
<totfact> 0.10983872E+07</totfact>
</mgrwt>
</event>
<event>
 4    1  0.2721071E+004  0.2155809E+02  0.7546771E-02  0.1716009E+00
         21   -1    0    0  501  502  0.00000000000E+00  0.00000000000E+00  0.76011580905E+03  0.76011580905E+03  0.00000000000E+00 0. -1.
         21   -1    0    0  502  503 -0.00000000000E+00 -0.00000000000E+00 -0.69698801930E+00  0.69698801930E+00  0.00000000000E+00 0.  1.
          2    1    1    2  501    0 -0.20815096782E+02  0.56109707002E+01  0.51299609418E+03  0.51344887174E+03  0.00000000000E+00 0. -1.
         -2    1    1    2    0  503  0.20815096782E+02 -0.56109707002E+01  0.24642272685E+03  0.24736392533E+03  0.00000000000E+00 0.  1.
<mgrwt>
<rscale>  2 0.21558090E+02</rscale>
<asrwt>0</asrwt>
<pdfrwt beam="1">  1       21 0.11694023E+00 0.21558090E+02</pdfrwt>
<pdfrwt beam="2">  1       21 0.10722953E-03 0.21558090E+02</pdfrwt>
<totfact> 0.50134901E+07</totfact>
</mgrwt>
</event>
<event>
 4    1  0.2721071E+004  0.2706048E+02  0.7546771E-02  0.1633056E+00
         21   -1    0    0  501  502  0.00000000000E+00  0.00000000000E+00  0.30374954133E+03  0.30374954133E+03  0.00000000000E+00 0.  1.
         21   -1    0    0  502  503 -0.00000000000E+00 -0.00000000000E+00 -0.71346056815E+01  0.71346056815E+01  0.00000000000E+00 0. -1.
          2    1    1    2  501    0 -0.72540950138E+01  0.26070050216E+02  0.27479016433E+03  0.27611936518E+03  0.00000000000E+00 0.  1.
         -2    1    1    2    0  503  0.72540950138E+01 -0.26070050216E+02  0.21824771311E+02  0.34764781828E+02  0.00000000000E+00 0. -1.
<mgrwt>
<rscale>  2 0.27060477E+02</rscale>
<asrwt>0</asrwt>
<pdfrwt beam="1">  1       21 0.46730689E-01 0.27060477E+02</pdfrwt>
<pdfrwt beam="2">  1       21 0.10976319E-02 0.27060477E+02</pdfrwt>
<totfact> 0.11689852E+07</totfact>
</mgrwt>
</event>
<event>
 4    1  0.2721071E+004  0.2351273E+02  0.7546771E-02  0.1683331E+00
         21   -1    0    0  501  502  0.00000000000E+00  0.00000000000E+00  0.19586151290E+02  0.19586151290E+02  0.00000000000E+00 0. -1.
         21   -1    0    0  502  503 -0.00000000000E+00 -0.00000000000E+00 -0.61229684067E+02  0.61229684067E+02  0.00000000000E+00 0.  1.
          2    1    1    2  501    0  0.23416450375E+02  0.21256270274E+01  0.88445348758E+01  0.25121190967E+02  0.00000000000E+00 0. -1.
         -2    1    1    2    0  503 -0.23416450375E+02 -0.21256270274E+01 -0.50488067653E+02  0.55694644390E+02  0.00000000000E+00 0.  1.
<mgrwt>
<rscale>  2 0.23512729E+02</rscale>
<asrwt>0</asrwt>
<pdfrwt beam="1">  1       21 0.30132541E-02 0.23512729E+02</pdfrwt>
<pdfrwt beam="2">  1       21 0.94199514E-02 0.23512729E+02</pdfrwt>
<totfact> 0.41066202E+07</totfact>
</mgrwt>
</event>
<event>
 4    1  0.2721071E+004  0.3592609E+02  0.7546771E-02  0.1540527E+00
         21   -1    0    0  501  502  0.00000000000E+00  0.00000000000E+00  0.11138584668E+03  0.11138584668E+03  0.00000000000E+00 0. -1.
         21   -1    0    0  502  503 -0.00000000000E+00 -0.00000000000E+00 -0.22400284040E+02  0.22400284040E+02  0.00000000000E+00 0.  1.
          2    1    1    2  501    0 -0.67802889528E+01 -0.35280468855E+02  0.90968171569E+02  0.97805378377E+02  0.00000000000E+00 0. -1.
         -2    1    1    2    0  503  0.67802889528E+01  0.35280468855E+02 -0.19826089296E+01  0.35980752342E+02  0.00000000000E+00 0.  1.
<mgrwt>
<rscale>  2 0.35926088E+02</rscale>
<asrwt>0</asrwt>
<pdfrwt beam="1">  1       21 0.17136284E-01 0.35926088E+02</pdfrwt>
<pdfrwt beam="2">  1       21 0.34461976E-02 0.35926088E+02</pdfrwt>
<totfact> 0.13083342E+07</totfact>
</mgrwt>
</event>
<event>
 4    1  0.2721071E+004  0.3263617E+02  0.7546771E-02  0.1570653E+00
         21   -1    0    0  503  502  0.00000000000E+00  0.00000000000E+00  0.12581395128E+04  0.12581395128E+04  0.00000000000E+00 0.  1.
         21   -1    0    0  501  503 -0.00000000000E+00 -0.00000000000E+00 -0.12430085009E+01  0.12430085009E+01  0.00000000000E+00 0. -1.
          2    1    1    2  501    0 -0.27423285887E+02  0.17694141936E+02  0.27284025467E+03  0.27478523220E+03  0.00000000000E+00 0. -1.
         -2    1    1    2    0  502  0.27423285887E+02 -0.17694141936E+02  0.98405624966E+03  0.98459728913E+03  0.00000000000E+00 0.  1.
<mgrwt>
<rscale>  2 0.32636165E+02</rscale>
<asrwt>0</asrwt>
<pdfrwt beam="1">  1       21 0.19355891E+00 0.32636165E+02</pdfrwt>
<pdfrwt beam="2">  1       21 0.19123308E-03 0.32636165E+02</pdfrwt>
<totfact> 0.68961982E+06</totfact>
</mgrwt>
</event>
<event>
 4    1  0.2721071E+004  0.2296594E+02  0.7546771E-02  0.1692063E+00
         21   -1    0    0  503  502  0.00000000000E+00  0.00000000000E+00  0.23678546047E+01  0.23678546047E+01  0.00000000000E+00 0.  1.
         21   -1    0    0  501  503 -0.00000000000E+00 -0.00000000000E+00 -0.33097169419E+03  0.33097169419E+03  0.00000000000E+00 0. -1.
          2    1    1    2  501    0  0.20764758628E+02 -0.98111793165E+01 -0.25960851802E+03  0.26062236486E+03  0.00000000000E+00 0. -1.
         -2    1    1    2    0  502 -0.20764758628E+02  0.98111793165E+01 -0.68995321568E+02  0.72717183931E+02  0.00000000000E+00 0.  1.
<mgrwt>
<rscale>  2 0.22965941E+02</rscale>
<asrwt>0</asrwt>
<pdfrwt beam="1">  1       21 0.36428531E-03 0.22965941E+02</pdfrwt>
<pdfrwt beam="2">  1       21 0.50918724E-01 0.22965941E+02</pdfrwt>
<totfact> 0.49423419E+07</totfact>
</mgrwt>
</event>
<event>
 4    1  0.2721071E+004  0.2041666E+02  0.7546771E-02  0.1737167E+00
         21   -1    0    0  501  502  0.00000000000E+00  0.00000000000E+00  0.36059067541E+01  0.36059067541E+01  0.00000000000E+00 0. -1.
         21   -1    0    0  502  503 -0.00000000000E+00 -0.00000000000E+00 -0.12028621356E+03  0.12028621356E+03  0.00000000000E+00 0.  1.
          2    1    1    2  501    0  0.70370569728E+01  0.19165593900E+02 -0.46112278544E+02  0.50429975143E+02  0.00000000000E+00 0.  1.
         -2    1    1    2    0  503 -0.70370569728E+01 -0.19165593900E+02 -0.70568028259E+02  0.73462145168E+02  0.00000000000E+00 0. -1.
<mgrwt>
<rscale>  2 0.20416664E+02</rscale>
<asrwt>0</asrwt>
<pdfrwt beam="1">  1       21 0.55475475E-03 0.20416664E+02</pdfrwt>
<pdfrwt beam="2">  1       21 0.18505576E-01 0.20416664E+02</pdfrwt>
<totfact> 0.16367620E+08</totfact>
</mgrwt>
</event>
<event>
 4    1  0.2721071E+004  0.2109414E+02  0.7546771E-02  0.1724406E+00
         21   -1    0    0  501  502  0.00000000000E+00  0.00000000000E+00  0.85922608849E+01  0.85922608849E+01  0.00000000000E+00 0.  1.
         21   -1    0    0  502  503 -0.00000000000E+00 -0.00000000000E+00 -0.11550990309E+03  0.11550990309E+03  0.00000000000E+00 0. -1.
          2    1    1    2  501    0  0.19573052888E+02  0.78650203853E+01 -0.73706687223E+01  0.22344791394E+02  0.00000000000E+00 0.  1.
         -2    1    1    2    0  503 -0.19573052888E+02 -0.78650203853E+01 -0.99546973487E+02  0.10175737259E+03  0.00000000000E+00 0. -1.
<mgrwt>
<rscale>  2 0.21094145E+02</rscale>
<asrwt>0</asrwt>
<pdfrwt beam="1">  1       21 0.13218863E-02 0.21094145E+02</pdfrwt>
<pdfrwt beam="2">  1       21 0.17770754E-01 0.21094145E+02</pdfrwt>
<totfact> 0.48559237E+07</totfact>
</mgrwt>
</event>
<event>
 4    1  0.2721071E+004  0.3302935E+02  0.7546771E-02  0.1566831E+00
         21   -1    0    0  503  502  0.00000000000E+00  0.00000000000E+00  0.95275737440E+03  0.95275737440E+03  0.00000000000E+00 0.  1.
         21   -1    0    0  501  503 -0.00000000000E+00 -0.00000000000E+00 -0.11564530545E+01  0.11564530545E+01  0.00000000000E+00 0. -1.
          2    1    1    2  501    0 -0.29545397931E+02  0.14765082127E+02  0.52319825429E+03  0.52423978433E+03  0.00000000000E+00 0.  1.
         -2    1    1    2    0  502  0.29545397931E+02 -0.14765082127E+02  0.42840266706E+03  0.42967404312E+03  0.00000000000E+00 0. -1.
<mgrwt>
<rscale>  2 0.33029353E+02</rscale>
<asrwt>0</asrwt>
<pdfrwt beam="1">  1       21 0.14657743E+00 0.33029353E+02</pdfrwt>
<pdfrwt beam="2">  1       21 0.17791662E-03 0.33029353E+02</pdfrwt>
<totfact> 0.15390169E+07</totfact>
</mgrwt>
</event>
<event>
 4    1  0.2721071E+004  0.2302680E+02  0.7546771E-02  0.1691076E+00
         21   -1    0    0  501  502  0.00000000000E+00  0.00000000000E+00  0.30459891754E+01  0.30459891754E+01  0.00000000000E+00 0. -1.
         21   -1    0    0  502  503 -0.00000000000E+00 -0.00000000000E+00 -0.55459800382E+03  0.55459800382E+03  0.00000000000E+00 0.  1.
          2    1    1    2  501    0  0.22988600864E+02 -0.13257456913E+01 -0.44820770502E+02  0.50389828733E+02  0.00000000000E+00 0. -1.
         -2    1    1    2    0  503 -0.22988600864E+02  0.13257456913E+01 -0.50673124415E+03  0.50725416427E+03  0.00000000000E+00 0.  1.
<mgrwt>
<rscale>  2 0.23026797E+02</rscale>
<asrwt>0</asrwt>
<pdfrwt beam="1">  1       21 0.46861453E-03 0.23026797E+02</pdfrwt>
<pdfrwt beam="2">  1       21 0.85322623E-01 0.23026797E+02</pdfrwt>
<totfact> 0.11971989E+07</totfact>
</mgrwt>
</event>
<event>
 4    1  0.2721071E+004  0.2296309E+02  0.7546771E-02  0.1692109E+00
         21   -1    0    0  503  502  0.00000000000E+00  0.00000000000E+00  0.34188270941E+01  0.34188270941E+01  0.00000000000E+00 0. -1.
         21   -1    0    0  501  503 -0.00000000000E+00 -0.00000000000E+00 -0.40205548082E+03  0.40205548082E+03  0.00000000000E+00 0.  1.
          2    1    1    2  501    0  0.22958062541E+02 -0.48043662572E+00 -0.35848743437E+03  0.35922213748E+03  0.00000000000E+00 0.  1.
         -2    1    1    2    0  502 -0.22958062541E+02  0.48043662572E+00 -0.40149219360E+02  0.46252170438E+02  0.00000000000E+00 0. -1.
<mgrwt>
<rscale>  2 0.22963089E+02</rscale>
<asrwt>0</asrwt>
<pdfrwt beam="1">  1       21 0.52597321E-03 0.22963089E+02</pdfrwt>
<pdfrwt beam="2">  1       21 0.61854711E-01 0.22963089E+02</pdfrwt>
<totfact> 0.19600944E+07</totfact>
</mgrwt>
</event>
<event>
 4    1  0.2721071E+004  0.2227982E+02  0.7546771E-02  0.1703457E+00
         21   -1    0    0  501  502  0.00000000000E+00  0.00000000000E+00  0.13817517844E+01  0.13817517844E+01  0.00000000000E+00 0.  1.
         21   -1    0    0  502  503 -0.00000000000E+00 -0.00000000000E+00 -0.43931210809E+03  0.43931210809E+03  0.00000000000E+00 0. -1.
          2    1    1    2  501    0  0.19281341634E+02 -0.11163341568E+02 -0.12489720724E+03  0.12686884057E+03  0.00000000000E+00 0.  1.
         -2    1    1    2    0  503 -0.19281341634E+02  0.11163341568E+02 -0.31303314907E+03  0.31382501931E+03  0.00000000000E+00 0. -1.
<mgrwt>
<rscale>  2 0.22279819E+02</rscale>
<asrwt>0</asrwt>
<pdfrwt beam="1">  1       21 0.21257732E-03 0.22279819E+02</pdfrwt>
<pdfrwt beam="2">  1       21 0.67586438E-01 0.22279819E+02</pdfrwt>
<totfact> 0.61101958E+07</totfact>
</mgrwt>
</event>
<event>
 4    1  0.2721071E+004  0.2469969E+02  0.7546771E-02  0.1665353E+00
         21   -1    0    0  503  502  0.00000000000E+00  0.00000000000E+00  0.12463326414E+02  0.12463326414E+02  0.00000000000E+00 0.  1.
         21   -1    0    0  501  503 -0.00000000000E+00 -0.00000000000E+00 -0.12308929872E+03  0.12308929872E+03  0.00000000000E+00 0. -1.
          2    1    1    2  501    0 -0.24687429753E+02 -0.77809709235E+00 -0.10791389503E+03  0.11070448665E+03  0.00000000000E+00 0. -1.
         -2    1    1    2    0  502  0.24687429753E+02  0.77809709235E+00 -0.27120772693E+01  0.24848138482E+02  0.00000000000E+00 0.  1.
<mgrwt>
<rscale>  2 0.24699689E+02</rscale>
<asrwt>0</asrwt>
<pdfrwt beam="1">  1       21 0.19174347E-02 0.24699689E+02</pdfrwt>
<pdfrwt beam="2">  1       21 0.18936816E-01 0.24699689E+02</pdfrwt>
<totfact> 0.25646201E+07</totfact>
</mgrwt>
</event>
<event>
 4    1  0.2721071E+004  0.2047863E+02  0.7546771E-02  0.1735974E+00
         21   -1    0    0  503  502  0.00000000000E+00  0.00000000000E+00  0.30302810709E+03  0.30302810709E+03  0.00000000000E+00 0.  1.
         21   -1    0    0  501  503 -0.00000000000E+00 -0.00000000000E+00 -0.14140136312E+01  0.14140136312E+01  0.00000000000E+00 0. -1.
          2    1    1    2  501    0 -0.19670156921E+02 -0.56973052342E+01  0.17300442883E+03  0.17421224628E+03  0.00000000000E+00 0. -1.
         -2    1    1    2    0  502  0.19670156921E+02  0.56973052342E+01  0.12860966464E+03  0.13022987444E+03  0.00000000000E+00 0.  1.
<mgrwt>
<rscale>  2 0.20478632E+02</rscale>
<asrwt>0</asrwt>
<pdfrwt beam="1">  1       21 0.46619657E-01 0.20478632E+02</pdfrwt>
<pdfrwt beam="2">  1       21 0.21754080E-03 0.20478632E+02</pdfrwt>
<totfact> 0.12030402E+08</totfact>
</mgrwt>
</event>
<event>
 4    1  0.2721071E+004  0.2100001E+02  0.7546771E-02  0.1726143E+00
         21   -1    0    0  501  502  0.00000000000E+00  0.00000000000E+00  0.40621316892E+00  0.40621316892E+00  0.00000000000E+00 0. -1.
         21   -1    0    0  502  503 -0.00000000000E+00 -0.00000000000E+00 -0.14952294297E+04  0.14952294297E+04  0.00000000000E+00 0.  1.
          2    1    1    2  501    0 -0.68756849612E+01  0.19842518895E+02 -0.35601493459E+03  0.35663375366E+03  0.00000000000E+00 0. -1.
         -2    1    1    2    0  503  0.68756849612E+01 -0.19842518895E+02 -0.11388082820E+04  0.11390018893E+04  0.00000000000E+00 0.  1.
<mgrwt>
<rscale>  2 0.21000014E+02</rscale>
<asrwt>0</asrwt>
<pdfrwt beam="1">  1       21 0.62494249E-04 0.21000014E+02</pdfrwt>
<pdfrwt beam="2">  1       21 0.23003561E+00 0.21000014E+02</pdfrwt>
<totfact> 0.20672662E+07</totfact>
</mgrwt>
</event>
<event>
 4    1  0.2721071E+004  0.2483033E+02  0.7546771E-02  0.1663451E+00
         21   -1    0    0  503  502  0.00000000000E+00  0.00000000000E+00  0.12086650051E+03  0.12086650051E+03  0.00000000000E+00 0. -1.
         21   -1    0    0  501  503 -0.00000000000E+00 -0.00000000000E+00 -0.12653767317E+02  0.12653767317E+02  0.00000000000E+00 0.  1.
          2    1    1    2  501    0  0.12582010673E+02 -0.21406498980E+02  0.25290077216E+01  0.24958787454E+02  0.00000000000E+00 0.  1.
         -2    1    1    2    0  502 -0.12582010673E+02  0.21406498980E+02  0.10568372548E+03  0.10856148038E+03  0.00000000000E+00 0. -1.
<mgrwt>
<rscale>  2 0.24830328E+02</rscale>
<asrwt>0</asrwt>
<pdfrwt beam="1">  1       21 0.18594845E-01 0.24830328E+02</pdfrwt>
<pdfrwt beam="2">  1       21 0.19467335E-02 0.24830328E+02</pdfrwt>
<totfact> 0.25891445E+07</totfact>
</mgrwt>
</event>
<event>
 4    1  0.2721071E+004  0.2169181E+02  0.7546771E-02  0.1713637E+00
         21   -1    0    0  501  502  0.00000000000E+00  0.00000000000E+00  0.29234940190E+03  0.29234940190E+03  0.00000000000E+00 0.  1.
         21   -1    0    0  502  503 -0.00000000000E+00 -0.00000000000E+00 -0.17672453213E+01  0.17672453213E+01  0.00000000000E+00 0. -1.
          2    1    1    2  501    0 -0.15988767754E+02 -0.14659258038E+02  0.18922783672E+03  0.19046708044E+03  0.00000000000E+00 0.  1.
         -2    1    1    2    0  503  0.15988767754E+02  0.14659258038E+02  0.10135431986E+03  0.10364956678E+03  0.00000000000E+00 0. -1.
<mgrwt>
<rscale>  2 0.21691808E+02</rscale>
<asrwt>0</asrwt>
<pdfrwt beam="1">  1       21 0.44976793E-01 0.21691808E+02</pdfrwt>
<pdfrwt beam="2">  1       21 0.27188413E-03 0.21691808E+02</pdfrwt>
<totfact> 0.94806129E+07</totfact>
</mgrwt>
</event>
<event>
 4    1  0.2721071E+004  0.2212412E+02  0.7546771E-02  0.1706114E+00
         21   -1    0    0  503  502  0.00000000000E+00  0.00000000000E+00  0.14542238393E+03  0.14542238393E+03  0.00000000000E+00 0.  1.
         21   -1    0    0  501  503 -0.00000000000E+00 -0.00000000000E+00 -0.75439881331E+01  0.75439881331E+01  0.00000000000E+00 0. -1.
          2    1    1    2  501    0 -0.20626605520E+02 -0.80012452075E+01  0.12020570063E+02  0.25178778461E+02  0.00000000000E+00 0. -1.
         -2    1    1    2    0  502  0.20626605520E+02  0.80012452075E+01  0.12585782574E+03  0.12778759361E+03  0.00000000000E+00 0.  1.
<mgrwt>
<rscale>  2 0.22124122E+02</rscale>
<asrwt>0</asrwt>
<pdfrwt beam="1">  1       21 0.22372673E-01 0.22124122E+02</pdfrwt>
<pdfrwt beam="2">  1       21 0.11606137E-02 0.22124122E+02</pdfrwt>
<totfact> 0.40056335E+07</totfact>
</mgrwt>
</event>
<event>
 4    1  0.2721071E+004  0.2393028E+02  0.7546771E-02  0.1676860E+00
         21   -1    0    0  501  502  0.00000000000E+00  0.00000000000E+00  0.30571819164E+02  0.30571819164E+02  0.00000000000E+00 0. -1.
         21   -1    0    0  502  503 -0.00000000000E+00 -0.00000000000E+00 -0.25586310956E+02  0.25586310956E+02  0.00000000000E+00 0.  1.
          2    1    1    2  501    0 -0.11406688975E+02  0.21036766269E+02  0.17026394663E+02  0.29369307170E+02  0.00000000000E+00 0. -1.
         -2    1    1    2    0  503  0.11406688975E+02 -0.21036766269E+02 -0.12040886455E+02  0.26788822950E+02  0.00000000000E+00 0.  1.
<mgrwt>
<rscale>  2 0.23930276E+02</rscale>
<asrwt>0</asrwt>
<pdfrwt beam="1">  1       21 0.47033568E-02 0.23930276E+02</pdfrwt>
<pdfrwt beam="2">  1       21 0.39363555E-02 0.23930276E+02</pdfrwt>
<totfact> 0.83480414E+07</totfact>
</mgrwt>
</event>
<event>
 4    1  0.2721071E+004  0.2192392E+02  0.7546771E-02  0.1709571E+00
         21   -1    0    0  501  502  0.00000000000E+00  0.00000000000E+00  0.42798455558E+02  0.42798455558E+02  0.00000000000E+00 0. -1.
         21   -1    0    0  502  503 -0.00000000000E+00 -0.00000000000E+00 -0.16097382191E+02  0.16097382191E+02  0.00000000000E+00 0.  1.
          2    1    1    2  501    0  0.15027930649E+02  0.15963070223E+02  0.29542208985E+02  0.36788590925E+02  0.00000000000E+00 0. -1.
         -2    1    1    2    0  503 -0.15027930649E+02 -0.15963070223E+02 -0.28411356172E+01  0.22107246824E+02  0.00000000000E+00 0.  1.
<mgrwt>
<rscale>  2 0.21923921E+02</rscale>
<asrwt>0</asrwt>
<pdfrwt beam="1">  1       21 0.65843777E-02 0.21923921E+02</pdfrwt>
<pdfrwt beam="2">  1       21 0.24765204E-02 0.21923921E+02</pdfrwt>
<totfact> 0.97916201E+07</totfact>
</mgrwt>
</event>
<event>
 4    1  0.2721071E+004  0.2418323E+02  0.7546771E-02  0.1673018E+00
         21   -1    0    0  501  502  0.00000000000E+00  0.00000000000E+00  0.22109701162E+02  0.22109701162E+02  0.00000000000E+00 0.  1.
         21   -1    0    0  502  503 -0.00000000000E+00 -0.00000000000E+00 -0.35105668235E+02  0.35105668235E+02  0.00000000000E+00 0. -1.
          2    1    1    2  501    0  0.14789292011E+02 -0.19133878160E+02  0.77061227892E+01  0.25381347089E+02  0.00000000000E+00 0.  1.
         -2    1    1    2    0  503 -0.14789292011E+02  0.19133878160E+02 -0.20702089862E+02  0.31834022308E+02  0.00000000000E+00 0. -1.
<mgrwt>
<rscale>  2 0.24183227E+02</rscale>
<asrwt>0</asrwt>
<pdfrwt beam="1">  1       21 0.34014925E-02 0.24183227E+02</pdfrwt>
<pdfrwt beam="2">  1       21 0.54008720E-02 0.24183227E+02</pdfrwt>
<totfact> 0.84486320E+07</totfact>
</mgrwt>
</event>
<event>
 4    1  0.2721071E+004  0.2233272E+02  0.7546771E-02  0.1702561E+00
         21   -1    0    0  503  502  0.00000000000E+00  0.00000000000E+00  0.50261903074E+03  0.50261903074E+03  0.00000000000E+00 0.  1.
         21   -1    0    0  501  503 -0.00000000000E+00 -0.00000000000E+00 -0.10274091308E+01  0.10274091308E+01  0.00000000000E+00 0. -1.
          2    1    1    2  501    0  0.11894658701E+02 -0.18901519917E+02  0.20424623967E+03  0.20546356558E+03  0.00000000000E+00 0.  1.
         -2    1    1    2    0  502 -0.11894658701E+02  0.18901519917E+02  0.29734538193E+03  0.29818287429E+03  0.00000000000E+00 0. -1.
<mgrwt>
<rscale>  2 0.22332720E+02</rscale>
<asrwt>0</asrwt>
<pdfrwt beam="1">  1       21 0.77325808E-01 0.22332720E+02</pdfrwt>
<pdfrwt beam="2">  1       21 0.15806334E-03 0.22332720E+02</pdfrwt>
<totfact> 0.70992035E+07</totfact>
</mgrwt>
</event>
<event>
 4    1  0.2721071E+004  0.2914204E+02  0.7546771E-02  0.1607771E+00
         21   -1    0    0  501  502  0.00000000000E+00  0.00000000000E+00  0.61734137371E+03  0.61734137371E+03  0.00000000000E+00 0.  1.
         21   -1    0    0  502  503 -0.00000000000E+00 -0.00000000000E+00 -0.55407534606E+01  0.55407534606E+01  0.00000000000E+00 0. -1.
          2    1    1    2  501    0  0.21701983807E+02 -0.19449489268E+02  0.57592486166E+03  0.57666169026E+03  0.00000000000E+00 0.  1.
         -2    1    1    2    0  503 -0.21701983807E+02  0.19449489268E+02  0.35875758587E+02  0.46220436909E+02  0.00000000000E+00 0. -1.
<mgrwt>
<rscale>  2 0.29142044E+02</rscale>
<asrwt>0</asrwt>
<pdfrwt beam="1">  1       21 0.94975542E-01 0.29142044E+02</pdfrwt>
<pdfrwt beam="2">  1       21 0.85242410E-03 0.29142044E+02</pdfrwt>
<totfact> 0.40314847E+06</totfact>
</mgrwt>
</event>
<event>
 4    1  0.2721071E+004  0.2269346E+02  0.7546771E-02  0.1696528E+00
         21   -1    0    0  503  502  0.00000000000E+00  0.00000000000E+00  0.34115003975E+02  0.34115003975E+02  0.00000000000E+00 0. -1.
         21   -1    0    0  501  503 -0.00000000000E+00 -0.00000000000E+00 -0.15265564824E+02  0.15265564824E+02  0.00000000000E+00 0.  1.
          2    1    1    2  501    0  0.19015448698E+02 -0.12385710988E+02  0.68209702258E+01  0.23696387080E+02  0.00000000000E+00 0.  1.
         -2    1    1    2    0  502 -0.19015448698E+02  0.12385710988E+02  0.12028468925E+02  0.25684181718E+02  0.00000000000E+00 0. -1.
<mgrwt>
<rscale>  2 0.22693460E+02</rscale>
<asrwt>0</asrwt>
<pdfrwt beam="1">  1       21 0.52484621E-02 0.22693460E+02</pdfrwt>
<pdfrwt beam="2">  1       21 0.23485484E-02 0.22693460E+02</pdfrwt>
<totfact> 0.15441925E+08</totfact>
</mgrwt>
</event>
<event>
 4    1  0.2721071E+004  0.2097229E+02  0.7546771E-02  0.1726657E+00
         21   -1    0    0  501  502  0.00000000000E+00  0.00000000000E+00  0.89088674210E+03  0.89088674210E+03  0.00000000000E+00 0. -1.
         21   -1    0    0  502  503 -0.00000000000E+00 -0.00000000000E+00 -0.11431440138E+01  0.11431440138E+01  0.00000000000E+00 0.  1.
          2    1    1    2  501    0 -0.58115488182E+01  0.20151005937E+02  0.78104834437E+03  0.78132986208E+03  0.00000000000E+00 0. -1.
         -2    1    1    2    0  503  0.58115488182E+01 -0.20151005937E+02  0.10869525372E+03  0.11070002404E+03  0.00000000000E+00 0.  1.
<mgrwt>
<rscale>  2 0.20972295E+02</rscale>
<asrwt>0</asrwt>
<pdfrwt beam="1">  1       21 0.13705894E+00 0.20972295E+02</pdfrwt>
<pdfrwt beam="2">  1       21 0.17586902E-03 0.20972295E+02</pdfrwt>
<totfact> 0.17123074E+07</totfact>
</mgrwt>
</event>
<event>
 4    1  0.2721071E+004  0.2985144E+02  0.7546771E-02  0.1599737E+00
         21   -1    0    0  503  502  0.00000000000E+00  0.00000000000E+00  0.13594416171E+02  0.13594416171E+02  0.00000000000E+00 0. -1.
         21   -1    0    0  501  503 -0.00000000000E+00 -0.00000000000E+00 -0.10840951966E+03  0.10840951966E+03  0.00000000000E+00 0.  1.
          2    1    1    2  501    0  0.29580389341E+02  0.40136389630E+01 -0.85763766475E+02  0.90810419949E+02  0.00000000000E+00 0.  1.
         -2    1    1    2    0  502 -0.29580389341E+02 -0.40136389630E+01 -0.90513370127E+01  0.31193515881E+02  0.00000000000E+00 0. -1.
<mgrwt>
<rscale>  2 0.29851444E+02</rscale>
<asrwt>0</asrwt>
<pdfrwt beam="1">  1       21 0.20914486E-02 0.29851444E+02</pdfrwt>
<pdfrwt beam="2">  1       21 0.16678388E-01 0.29851444E+02</pdfrwt>
<totfact> 0.29089884E+07</totfact>
</mgrwt>
</event>
<event>
 4    1  0.2721071E+004  0.2596470E+02  0.7546771E-02  0.1647520E+00
         21   -1    0    0  503  502  0.00000000000E+00  0.00000000000E+00  0.49001887664E+02  0.49001887664E+02  0.00000000000E+00 0.  1.
         21   -1    0    0  501  503 -0.00000000000E+00 -0.00000000000E+00 -0.15595737095E+02  0.15595737095E+02  0.00000000000E+00 0. -1.
          2    1    1    2  501    0 -0.18527425681E+02  0.18190658785E+02  0.27790510150E+02  0.38032591600E+02  0.00000000000E+00 0.  1.
         -2    1    1    2    0  502  0.18527425681E+02 -0.18190658785E+02  0.56156404189E+01  0.26565033158E+02  0.00000000000E+00 0. -1.
<mgrwt>
<rscale>  2 0.25964699E+02</rscale>
<asrwt>0</asrwt>
<pdfrwt beam="1">  1       21 0.75387519E-02 0.25964699E+02</pdfrwt>
<pdfrwt beam="2">  1       21 0.23993442E-02 0.25964699E+02</pdfrwt>
<totfact> 0.86500670E+07</totfact>
</mgrwt>
</event>
<event>
 4    1  0.2721071E+004  0.2680580E+02  0.7546771E-02  0.1636342E+00
         21   -1    0    0  501  502  0.00000000000E+00  0.00000000000E+00  0.26516151859E+03  0.26516151859E+03  0.00000000000E+00 0.  1.
         21   -1    0    0  502  503 -0.00000000000E+00 -0.00000000000E+00 -0.48967324283E+01  0.48967324283E+01  0.00000000000E+00 0. -1.
          2    1    1    2  501    0 -0.81533171779E+01  0.25535743654E+02  0.22036965746E+03  0.22199400153E+03  0.00000000000E+00 0.  1.
         -2    1    1    2    0  503  0.81533171779E+01 -0.25535743654E+02  0.39895128699E+02  0.48064249489E+02  0.00000000000E+00 0. -1.
<mgrwt>
<rscale>  2 0.26805798E+02</rscale>
<asrwt>0</asrwt>
<pdfrwt beam="1">  1       21 0.40794069E-01 0.26805798E+02</pdfrwt>
<pdfrwt beam="2">  1       21 0.75334365E-03 0.26805798E+02</pdfrwt>
<totfact> 0.26701611E+07</totfact>
</mgrwt>
</event>
<event>
 4    1  0.2721071E+004  0.2858634E+02  0.7546771E-02  0.1614262E+00
         21   -1    0    0  501  502  0.00000000000E+00  0.00000000000E+00  0.47353372819E+01  0.47353372819E+01  0.00000000000E+00 0.  1.
         21   -1    0    0  502  503 -0.00000000000E+00 -0.00000000000E+00 -0.17649028106E+03  0.17649028106E+03  0.00000000000E+00 0. -1.
          2    1    1    2  501    0  0.27873918677E+02  0.63421944640E+01 -0.99381672125E+02  0.10341129304E+03  0.00000000000E+00 0.  1.
         -2    1    1    2    0  503 -0.27873918677E+02 -0.63421944640E+01 -0.72373271657E+02  0.77814325309E+02  0.00000000000E+00 0. -1.
<mgrwt>
<rscale>  2 0.28586339E+02</rscale>
<asrwt>0</asrwt>
<pdfrwt beam="1">  1       21 0.72851337E-03 0.28586339E+02</pdfrwt>
<pdfrwt beam="2">  1       21 0.27152353E-01 0.28586339E+02</pdfrwt>
<totfact> 0.60604025E+07</totfact>
</mgrwt>
</event>
<event>
 4    1  0.2721071E+004  0.2008513E+02  0.7546771E-02  0.1743640E+00
         21   -1    0    0  503  502  0.00000000000E+00  0.00000000000E+00  0.32255674087E+00  0.32255674087E+00  0.00000000000E+00 0. -1.
         21   -1    0    0  501  503 -0.00000000000E+00 -0.00000000000E+00 -0.12578895558E+04  0.12578895558E+04  0.00000000000E+00 0.  1.
          2    1    1    2  501    0  0.20077470289E+02 -0.55476137147E+00 -0.67643845014E+03  0.67673657313E+03  0.00000000000E+00 0.  1.
         -2    1    1    2    0  502 -0.20077470289E+02  0.55476137147E+00 -0.58112854891E+03  0.58147553941E+03  0.00000000000E+00 0. -1.
<mgrwt>
<rscale>  2 0.20085133E+02</rscale>
<asrwt>0</asrwt>
<pdfrwt beam="1">  1       21 0.49624572E-04 0.20085133E+02</pdfrwt>
<pdfrwt beam="2">  1       21 0.19351969E+00 0.20085133E+02</pdfrwt>
<totfact> 0.44503092E+07</totfact>
</mgrwt>
</event>
<event>
 4    1  0.2721071E+004  0.3170096E+02  0.7546771E-02  0.1580014E+00
         21   -1    0    0  501  502  0.00000000000E+00  0.00000000000E+00  0.52794918131E+02  0.52794918131E+02  0.00000000000E+00 0.  1.
         21   -1    0    0  502  503 -0.00000000000E+00 -0.00000000000E+00 -0.19827709871E+02  0.19827709871E+02  0.00000000000E+00 0. -1.
          2    1    1    2  501    0 -0.27092902151E+02  0.16459818683E+02  0.23744067145E+02  0.39607217810E+02  0.00000000000E+00 0.  1.
         -2    1    1    2    0  503  0.27092902151E+02 -0.16459818683E+02  0.92231411147E+01  0.33015410191E+02  0.00000000000E+00 0. -1.
<mgrwt>
<rscale>  2 0.31700962E+02</rscale>
<asrwt>0</asrwt>
<pdfrwt beam="1">  1       21 0.81222950E-02 0.31700962E+02</pdfrwt>
<pdfrwt beam="2">  1       21 0.30504169E-02 0.31700962E+02</pdfrwt>
<totfact> 0.55144591E+07</totfact>
</mgrwt>
</event>
<event>
 4    1  0.2721071E+004  0.2480866E+02  0.7546771E-02  0.1663765E+00
         21   -1    0    0  501  502  0.00000000000E+00  0.00000000000E+00  0.15357616562E+02  0.15357616562E+02  0.00000000000E+00 0. -1.
         21   -1    0    0  502  503 -0.00000000000E+00 -0.00000000000E+00 -0.44499337690E+02  0.44499337690E+02  0.00000000000E+00 0.  1.
          2    1    1    2  501    0 -0.59666020359E+01 -0.24080476364E+02 -0.51348200652E+01  0.25334483592E+02  0.00000000000E+00 0. -1.
         -2    1    1    2    0  503  0.59666020359E+01  0.24080476364E+02 -0.24006901063E+02  0.34522470659E+02  0.00000000000E+00 0.  1.
<mgrwt>
<rscale>  2 0.24808661E+02</rscale>
<asrwt>0</asrwt>
<pdfrwt beam="1">  1       21 0.23627103E-02 0.24808661E+02</pdfrwt>
<pdfrwt beam="2">  1       21 0.68460519E-02 0.24808661E+02</pdfrwt>
<totfact> 0.10241156E+08</totfact>
</mgrwt>
</event>
<event>
 4    1  0.2721071E+004  0.4327148E+02  0.7546771E-02  0.1485430E+00
         21   -1    0    0  501  502  0.00000000000E+00  0.00000000000E+00  0.31088000406E+02  0.31088000406E+02  0.00000000000E+00 0. -1.
         21   -1    0    0  502  503 -0.00000000000E+00 -0.00000000000E+00 -0.61091389911E+02  0.61091389911E+02  0.00000000000E+00 0.  1.
          2    1    1    2  501    0 -0.39393985748E+02  0.17903491225E+02 -0.95279072555E+01  0.44308036831E+02  0.00000000000E+00 0. -1.
         -2    1    1    2    0  503  0.39393985748E+02 -0.17903491225E+02 -0.20475482250E+02  0.47871353486E+02  0.00000000000E+00 0.  1.
<mgrwt>
<rscale>  2 0.43271481E+02</rscale>
<asrwt>0</asrwt>
<pdfrwt beam="1">  1       21 0.47827693E-02 0.43271481E+02</pdfrwt>
<pdfrwt beam="2">  1       21 0.93986754E-02 0.43271481E+02</pdfrwt>
<totfact> 0.22307681E+07</totfact>
</mgrwt>
</event>
<event>
 4    1  0.2721071E+004  0.2824574E+02  0.7546771E-02  0.1618330E+00
         21   -1    0    0  501  502  0.00000000000E+00  0.00000000000E+00  0.38702703893E+03  0.38702703893E+03  0.00000000000E+00 0.  1.
         21   -1    0    0  502  503 -0.00000000000E+00 -0.00000000000E+00 -0.11868965516E+02  0.11868965516E+02  0.00000000000E+00 0. -1.
          2    1    1    2  501    0 -0.28115856875E+02  0.27056644956E+01  0.36888145988E+03  0.36996128645E+03  0.00000000000E+00 0.  1.
         -2    1    1    2    0  503  0.28115856875E+02 -0.27056644956E+01  0.62766135352E+01  0.28934717998E+02  0.00000000000E+00 0. -1.
<mgrwt>
<rscale>  2 0.28245744E+02</rscale>
<asrwt>0</asrwt>
<pdfrwt beam="1">  1       21 0.59542612E-01 0.28245744E+02</pdfrwt>
<pdfrwt beam="2">  1       21 0.18259950E-02 0.28245744E+02</pdfrwt>
<totfact> 0.33500447E+06</totfact>
</mgrwt>
</event>
<event>
 4    1  0.2721071E+004  0.2698335E+02  0.7546771E-02  0.1634047E+00
         21   -1    0    0  501  502  0.00000000000E+00  0.00000000000E+00  0.59471529515E+03  0.59471529515E+03  0.00000000000E+00 0.  1.
         21   -1    0    0  502  503 -0.00000000000E+00 -0.00000000000E+00 -0.27931960577E+01  0.27931960577E+01  0.00000000000E+00 0. -1.
          2    1    1    2  501    0  0.28991472192E+00  0.26981790113E+02  0.51986539888E+03  0.52056520629E+03  0.00000000000E+00 0.  1.
         -2    1    1    2    0  503 -0.28991472192E+00 -0.26981790113E+02  0.72056700208E+02  0.76943284913E+02  0.00000000000E+00 0. -1.
<mgrwt>
<rscale>  2 0.26983348E+02</rscale>
<asrwt>0</asrwt>
<pdfrwt beam="1">  1       21 0.91494560E-01 0.26983348E+02</pdfrwt>
<pdfrwt beam="2">  1       21 0.42972294E-03 0.26983348E+02</pdfrwt>
<totfact> 0.12023444E+07</totfact>
</mgrwt>
</event>
<event>
 4    1  0.2721071E+004  0.2248964E+02  0.7546771E-02  0.1699919E+00
         21   -1    0    0  501  502  0.00000000000E+00  0.00000000000E+00  0.21506414884E+02  0.21506414884E+02  0.00000000000E+00 0.  1.
         21   -1    0    0  502  503 -0.00000000000E+00 -0.00000000000E+00 -0.23519487762E+02  0.23519487762E+02  0.00000000000E+00 0. -1.
          2    1    1    2  501    0 -0.51844990721E+01  0.21883892270E+02 -0.11967006667E+01  0.22521453417E+02  0.00000000000E+00 0.  1.
         -2    1    1    2    0  503  0.51844990721E+01 -0.21883892270E+02 -0.81637221171E+00  0.22504449229E+02  0.00000000000E+00 0. -1.
<mgrwt>
<rscale>  2 0.22489637E+02</rscale>
<asrwt>0</asrwt>
<pdfrwt beam="1">  1       21 0.33086792E-02 0.22489637E+02</pdfrwt>
<pdfrwt beam="2">  1       21 0.36183828E-02 0.22489637E+02</pdfrwt>
<totfact> 0.16286732E+08</totfact>
</mgrwt>
</event>
<event>
 4    1  0.2721071E+004  0.2118898E+02  0.7546771E-02  0.1722668E+00
         21   -1    0    0  503  502  0.00000000000E+00  0.00000000000E+00  0.26960077977E+02  0.26960077977E+02  0.00000000000E+00 0. -1.
         21   -1    0    0  501  503 -0.00000000000E+00 -0.00000000000E+00 -0.21819434988E+02  0.21819434988E+02  0.00000000000E+00 0.  1.
          2    1    1    2  501    0 -0.21171611311E+02 -0.85783619268E+00 -0.92974875676E+01  0.23139064015E+02  0.00000000000E+00 0.  1.
         -2    1    1    2    0  502  0.21171611311E+02  0.85783619268E+00  0.14438130557E+02  0.25640448951E+02  0.00000000000E+00 0. -1.
<mgrwt>
<rscale>  2 0.21188983E+02</rscale>
<asrwt>0</asrwt>
<pdfrwt beam="1">  1       21 0.41477043E-02 0.21188983E+02</pdfrwt>
<pdfrwt beam="2">  1       21 0.33568362E-02 0.21188983E+02</pdfrwt>
<totfact> 0.12618627E+08</totfact>
</mgrwt>
</event>
<event>
 4    1  0.2721071E+004  0.2254510E+02  0.7546771E-02  0.1698992E+00
         21   -1    0    0  501  502  0.00000000000E+00  0.00000000000E+00  0.34301245252E+03  0.34301245252E+03  0.00000000000E+00 0. -1.
         21   -1    0    0  502  503 -0.00000000000E+00 -0.00000000000E+00 -0.16270589601E+01  0.16270589601E+01  0.00000000000E+00 0.  1.
          2    1    1    2  501    0 -0.44587149748E+01 -0.22099808873E+02  0.22217754543E+03  0.22331847972E+03  0.00000000000E+00 0. -1.
         -2    1    1    2    0  503  0.44587149748E+01  0.22099808873E+02  0.11920784813E+03  0.12132103176E+03  0.00000000000E+00 0.  1.
<mgrwt>
<rscale>  2 0.22545103E+02</rscale>
<asrwt>0</asrwt>
<pdfrwt beam="1">  1       21 0.52771089E-01 0.22545103E+02</pdfrwt>
<pdfrwt beam="2">  1       21 0.25031704E-03 0.22545103E+02</pdfrwt>
<totfact> 0.79260845E+07</totfact>
</mgrwt>
</event>
<event>
 4    1  0.2721071E+004  0.2353648E+02  0.7546771E-02  0.1682959E+00
         21   -1    0    0  501  502  0.00000000000E+00  0.00000000000E+00  0.14306221259E+01  0.14306221259E+01  0.00000000000E+00 0. -1.
         21   -1    0    0  502  503 -0.00000000000E+00 -0.00000000000E+00 -0.38783660815E+03  0.38783660815E+03  0.00000000000E+00 0.  1.
          2    1    1    2  501    0  0.16888701508E+02 -0.16393223820E+02 -0.18544465859E+03  0.18693230707E+03  0.00000000000E+00 0. -1.
         -2    1    1    2    0  503 -0.16888701508E+02  0.16393223820E+02 -0.20096132744E+03  0.20233492321E+03  0.00000000000E+00 0.  1.
<mgrwt>
<rscale>  2 0.23536483E+02</rscale>
<asrwt>0</asrwt>
<pdfrwt beam="1">  1       21 0.22009560E-03 0.23536483E+02</pdfrwt>
<pdfrwt beam="2">  1       21 0.59667200E-01 0.23536483E+02</pdfrwt>
<totfact> 0.75711047E+07</totfact>
</mgrwt>
</event>
<event>
 4    1  0.2721071E+004  0.2462286E+02  0.7546771E-02  0.1666479E+00
         21   -1    0    0  503  502  0.00000000000E+00  0.00000000000E+00  0.19460182866E+01  0.19460182866E+01  0.00000000000E+00 0. -1.
         21   -1    0    0  501  503 -0.00000000000E+00 -0.00000000000E+00 -0.75307509320E+03  0.75307509320E+03  0.00000000000E+00 0.  1.
          2    1    1    2  501    0 -0.24120029875E+02 -0.49506714235E+01 -0.66462380437E+03  0.66507975937E+03  0.00000000000E+00 0.  1.
         -2    1    1    2    0  502  0.24120029875E+02  0.49506714235E+01 -0.86505270542E+02  0.89941352115E+02  0.00000000000E+00 0. -1.
<mgrwt>
<rscale>  2 0.24622855E+02</rscale>
<asrwt>0</asrwt>
<pdfrwt beam="1">  1       21 0.29938729E-03 0.24622855E+02</pdfrwt>
<pdfrwt beam="2">  1       21 0.11585776E+00 0.24622855E+02</pdfrwt>
<totfact> 0.11958010E+07</totfact>
</mgrwt>
</event>
<event>
 4    1  0.2721071E+004  0.2328232E+02  0.7546771E-02  0.1686974E+00
         21   -1    0    0  503  502  0.00000000000E+00  0.00000000000E+00  0.24949473684E+03  0.24949473684E+03  0.00000000000E+00 0. -1.
         21   -1    0    0  501  503 -0.00000000000E+00 -0.00000000000E+00 -0.24114272020E+01  0.24114272020E+01  0.00000000000E+00 0.  1.
          2    1    1    2  501    0 -0.13751555081E+02 -0.18787266093E+02  0.83908262581E+02  0.87078488525E+02  0.00000000000E+00 0. -1.
         -2    1    1    2    0  502  0.13751555081E+02  0.18787266093E+02  0.16317504705E+03  0.16482767551E+03  0.00000000000E+00 0.  1.
<mgrwt>
<rscale>  2 0.23282325E+02</rscale>
<asrwt>0</asrwt>
<pdfrwt beam="1">  1       21 0.38383785E-01 0.23282325E+02</pdfrwt>
<pdfrwt beam="2">  1       21 0.37098900E-03 0.23282325E+02</pdfrwt>
<totfact> 0.82857806E+07</totfact>
</mgrwt>
</event>
<event>
 4    1  0.2721071E+004  0.2548179E+02  0.7546771E-02  0.1654177E+00
         21   -1    0    0  503  502  0.00000000000E+00  0.00000000000E+00  0.11036734272E+04  0.11036734272E+04  0.00000000000E+00 0. -1.
         21   -1    0    0  501  503 -0.00000000000E+00 -0.00000000000E+00 -0.75805781897E+00  0.75805781897E+00  0.00000000000E+00 0.  1.
          2    1    1    2  501    0  0.94100248278E+01  0.23680650238E+02  0.29015916873E+03  0.29127592582E+03  0.00000000000E+00 0.  1.
         -2    1    1    2    0  502 -0.94100248278E+01 -0.23680650238E+02  0.81275620068E+03  0.81315555923E+03  0.00000000000E+00 0. -1.
<mgrwt>
<rscale>  2 0.25481793E+02</rscale>
<asrwt>0</asrwt>
<pdfrwt beam="1">  1       21 0.16979463E+00 0.25481793E+02</pdfrwt>
<pdfrwt beam="2">  1       21 0.11662516E-03 0.25481793E+02</pdfrwt>
<totfact> 0.19119355E+07</totfact>
</mgrwt>
</event>
<event>
 4    1  0.2721071E+004  0.2602054E+02  0.7546771E-02  0.1646762E+00
         21   -1    0    0  503  502  0.00000000000E+00  0.00000000000E+00  0.31155768299E+03  0.31155768299E+03  0.00000000000E+00 0.  1.
         21   -1    0    0  501  503 -0.00000000000E+00 -0.00000000000E+00 -0.28903957940E+01  0.28903957940E+01  0.00000000000E+00 0. -1.
          2    1    1    2  501    0 -0.22300944345E+02 -0.13406574245E+02  0.76014538719E+02  0.80344747484E+02  0.00000000000E+00 0.  1.
         -2    1    1    2    0  502  0.22300944345E+02  0.13406574245E+02  0.23265274848E+03  0.23410333130E+03  0.00000000000E+00 0. -1.
<mgrwt>
<rscale>  2 0.26020537E+02</rscale>
<asrwt>0</asrwt>
<pdfrwt beam="1">  1       21 0.47931925E-01 0.26020537E+02</pdfrwt>
<pdfrwt beam="2">  1       21 0.44467652E-03 0.26020537E+02</pdfrwt>
<totfact> 0.42640921E+07</totfact>
</mgrwt>
</event>
<event>
 4    1  0.2721071E+004  0.2316705E+02  0.7546771E-02  0.1688816E+00
         21   -1    0    0  501  502  0.00000000000E+00  0.00000000000E+00  0.89859783143E+01  0.89859783143E+01  0.00000000000E+00 0.  1.
         21   -1    0    0  502  503 -0.00000000000E+00 -0.00000000000E+00 -0.16438176324E+03  0.16438176324E+03  0.00000000000E+00 0. -1.
          2    1    1    2  501    0  0.21393491488E+02 -0.88899307107E+01 -0.85324110824E+01  0.24688345124E+02  0.00000000000E+00 0.  1.
         -2    1    1    2    0  503 -0.21393491488E+02  0.88899307107E+01 -0.14686337384E+03  0.14867939643E+03  0.00000000000E+00 0. -1.
<mgrwt>
<rscale>  2 0.23167053E+02</rscale>
<asrwt>0</asrwt>
<pdfrwt beam="1">  1       21 0.13824584E-02 0.23167053E+02</pdfrwt>
<pdfrwt beam="2">  1       21 0.25289499E-01 0.23167053E+02</pdfrwt>
<totfact> 0.25014874E+07</totfact>
</mgrwt>
</event>
<event>
 4    1  0.2721071E+004  0.2082346E+02  0.7546771E-02  0.1729431E+00
         21   -1    0    0  503  502  0.00000000000E+00  0.00000000000E+00  0.11936906189E+04  0.11936906189E+04  0.00000000000E+00 0.  1.
         21   -1    0    0  501  503 -0.00000000000E+00 -0.00000000000E+00 -0.40683976262E+00  0.40683976262E+00  0.00000000000E+00 0. -1.
          2    1    1    2  501    0 -0.19587279877E+02 -0.70678938005E+01  0.40122832895E+03  0.40176832703E+03  0.00000000000E+00 0. -1.
         -2    1    1    2    0  502  0.19587279877E+02  0.70678938005E+01  0.79205545019E+03  0.79232913163E+03  0.00000000000E+00 0.  1.
<mgrwt>
<rscale>  2 0.20823464E+02</rscale>
<asrwt>0</asrwt>
<pdfrwt beam="1">  1       21 0.18364191E+00 0.20823464E+02</pdfrwt>
<pdfrwt beam="2">  1       21 0.62591688E-04 0.20823464E+02</pdfrwt>
<totfact> 0.36861927E+07</totfact>
</mgrwt>
</event>
<event>
 4    1  0.2721071E+004  0.2391150E+02  0.7546771E-02  0.1677147E+00
         21   -1    0    0  501  502  0.00000000000E+00  0.00000000000E+00  0.40448338487E+01  0.40448338487E+01  0.00000000000E+00 0. -1.
         21   -1    0    0  502  503 -0.00000000000E+00 -0.00000000000E+00 -0.14278508148E+03  0.14278508148E+03  0.00000000000E+00 0.  1.
          2    1    1    2  501    0  0.28653148769E+01 -0.23739208621E+02 -0.76715721804E+02  0.80355846254E+02  0.00000000000E+00 0.  1.
         -2    1    1    2    0  503 -0.28653148769E+01  0.23739208621E+02 -0.62024525830E+02  0.66474069078E+02  0.00000000000E+00 0. -1.
<mgrwt>
<rscale>  2 0.23911505E+02</rscale>
<asrwt>0</asrwt>
<pdfrwt beam="1">  1       21 0.62228220E-03 0.23911505E+02</pdfrwt>
<pdfrwt beam="2">  1       21 0.21966933E-01 0.23911505E+02</pdfrwt>
<totfact> 0.10721018E+08</totfact>
</mgrwt>
</event>
<event>
 4    1  0.2721071E+004  0.2261911E+02  0.7546771E-02  0.1697760E+00
         21   -1    0    0  503  502  0.00000000000E+00  0.00000000000E+00  0.10703644276E+01  0.10703644276E+01  0.00000000000E+00 0. -1.
         21   -1    0    0  501  503 -0.00000000000E+00 -0.00000000000E+00 -0.52030359832E+03  0.52030359832E+03  0.00000000000E+00 0.  1.
          2    1    1    2  501    0 -0.22391703099E+02  0.31993708494E+01 -0.33395734992E+03  0.33472247595E+03  0.00000000000E+00 0.  1.
         -2    1    1    2    0  502  0.22391703099E+02 -0.31993708494E+01 -0.18527588397E+03  0.18665148680E+03  0.00000000000E+00 0. -1.
<mgrwt>
<rscale>  2 0.22619115E+02</rscale>
<asrwt>0</asrwt>
<pdfrwt beam="1">  1       21 0.16467124E-03 0.22619115E+02</pdfrwt>
<pdfrwt beam="2">  1       21 0.80046811E-01 0.22619115E+02</pdfrwt>
<totfact> 0.62459370E+07</totfact>
</mgrwt>
</event>
<event>
 4    1  0.2721071E+004  0.2035873E+02  0.7546771E-02  0.1738287E+00
         21   -1    0    0  501  502  0.00000000000E+00  0.00000000000E+00  0.15947517010E+01  0.15947517010E+01  0.00000000000E+00 0.  1.
         21   -1    0    0  502  503 -0.00000000000E+00 -0.00000000000E+00 -0.11320811511E+04  0.11320811511E+04  0.00000000000E+00 0. -1.
          2    1    1    2  501    0 -0.20068599633E+02 -0.34248101884E+01 -0.67708736823E+02  0.70703260591E+02  0.00000000000E+00 0.  1.
         -2    1    1    2    0  503  0.20068599633E+02  0.34248101884E+01 -0.10627776626E+04  0.10629726422E+04  0.00000000000E+00 0. -1.
<mgrwt>
<rscale>  2 0.20358733E+02</rscale>
<asrwt>0</asrwt>
<pdfrwt beam="1">  1       21 0.24534556E-03 0.20358733E+02</pdfrwt>
<pdfrwt beam="2">  1       21 0.17416694E+00 0.20358733E+02</pdfrwt>
<totfact> 0.59756845E+06</totfact>
</mgrwt>
</event>
<event>
 4    1  0.2721071E+004  0.2769416E+02  0.7546771E-02  0.1625071E+00
         21   -1    0    0  501  502  0.00000000000E+00  0.00000000000E+00  0.12822961849E+03  0.12822961849E+03  0.00000000000E+00 0. -1.
         21   -1    0    0  502  503 -0.00000000000E+00 -0.00000000000E+00 -0.75878388763E+01  0.75878388763E+01  0.00000000000E+00 0.  1.
          2    1    1    2  501    0  0.27489829865E+02 -0.33579338530E+01  0.91569178816E+02  0.95665463856E+02  0.00000000000E+00 0.  1.
         -2    1    1    2    0  503 -0.27489829865E+02  0.33579338530E+01  0.29072600799E+02  0.40151993512E+02  0.00000000000E+00 0. -1.
<mgrwt>
<rscale>  2 0.27694159E+02</rscale>
<asrwt>0</asrwt>
<pdfrwt beam="1">  1       21 0.19727632E-01 0.27694159E+02</pdfrwt>
<pdfrwt beam="2">  1       21 0.11673599E-02 0.27694159E+02</pdfrwt>
<totfact> 0.52233760E+07</totfact>
</mgrwt>
</event>
<event>
 4    1  0.2721071E+004  0.2013840E+02  0.7546771E-02  0.1742590E+00
         21   -1    0    0  501  502  0.00000000000E+00  0.00000000000E+00  0.51477359954E+01  0.51477359954E+01  0.00000000000E+00 0.  1.
         21   -1    0    0  502  503 -0.00000000000E+00 -0.00000000000E+00 -0.80405660179E+02  0.80405660179E+02  0.00000000000E+00 0. -1.
          2    1    1    2  501    0 -0.23603217854E+01  0.19999602579E+02 -0.43705387470E+02  0.48121888119E+02  0.00000000000E+00 0.  1.
         -2    1    1    2    0  503  0.23603217854E+01 -0.19999602579E+02 -0.31552536714E+02  0.37431508055E+02  0.00000000000E+00 0. -1.
<mgrwt>
<rscale>  2 0.20138402E+02</rscale>
<asrwt>0</asrwt>
<pdfrwt beam="1">  1       21 0.79195943E-03 0.20138402E+02</pdfrwt>
<pdfrwt beam="2">  1       21 0.12370101E-01 0.20138402E+02</pdfrwt>
<totfact> 0.19053410E+08</totfact>
</mgrwt>
</event>
<event>
 4    1  0.2721071E+004  0.2539157E+02  0.7546771E-02  0.1655441E+00
         21   -1    0    0  501  502  0.00000000000E+00  0.00000000000E+00  0.31171522451E+01  0.31171522451E+01  0.00000000000E+00 0.  1.
         21   -1    0    0  502  503 -0.00000000000E+00 -0.00000000000E+00 -0.25696787332E+03  0.25696787332E+03  0.00000000000E+00 0. -1.
          2    1    1    2  501    0  0.25231684396E+02 -0.28449914811E+01 -0.18436520108E+03  0.18610550568E+03  0.00000000000E+00 0. -1.
         -2    1    1    2    0  503 -0.25231684396E+02  0.28449914811E+01 -0.69485519999E+02  0.73979519892E+02  0.00000000000E+00 0.  1.
<mgrwt>
<rscale>  2 0.25391571E+02</rscale>
<asrwt>0</asrwt>
<pdfrwt beam="1">  1       21 0.47956179E-03 0.25391571E+02</pdfrwt>
<pdfrwt beam="2">  1       21 0.39533526E-01 0.25391571E+02</pdfrwt>
<totfact> 0.54862494E+07</totfact>
</mgrwt>
</event>
<event>
 4    1  0.2721071E+004  0.2174402E+02  0.7546771E-02  0.1712717E+00
         21   -1    0    0  503  502  0.00000000000E+00  0.00000000000E+00  0.14414101538E+03  0.14414101538E+03  0.00000000000E+00 0.  1.
         21   -1    0    0  501  503 -0.00000000000E+00 -0.00000000000E+00 -0.60611464764E+01  0.60611464764E+01  0.00000000000E+00 0. -1.
          2    1    1    2  501    0 -0.11157339891E+02 -0.18663231941E+02  0.18168974407E+02  0.28335738758E+02  0.00000000000E+00 0. -1.
         -2    1    1    2    0  502  0.11157339891E+02  0.18663231941E+02  0.11991089449E+03  0.12186642310E+03  0.00000000000E+00 0.  1.
<mgrwt>
<rscale>  2 0.21744021E+02</rscale>
<asrwt>0</asrwt>
<pdfrwt beam="1">  1       21 0.22175538E-01 0.21744021E+02</pdfrwt>
<pdfrwt beam="2">  1       21 0.93248418E-03 0.21744021E+02</pdfrwt>
<totfact> 0.56261692E+07</totfact>
</mgrwt>
</event>
<event>
 4    1  0.2721071E+004  0.2325705E+02  0.7546771E-02  0.1687377E+00
         21   -1    0    0  503  502  0.00000000000E+00  0.00000000000E+00  0.41648079837E+03  0.41648079837E+03  0.00000000000E+00 0.  1.
         21   -1    0    0  501  503 -0.00000000000E+00 -0.00000000000E+00 -0.18525547771E+01  0.18525547771E+01  0.00000000000E+00 0. -1.
          2    1    1    2  501    0 -0.19808459904E+02 -0.12186678467E+02  0.92947655120E+02  0.95813134841E+02  0.00000000000E+00 0. -1.
         -2    1    1    2    0  502  0.19808459904E+02  0.12186678467E+02  0.32168058847E+03  0.32252021830E+03  0.00000000000E+00 0.  1.
<mgrwt>
<rscale>  2 0.23257047E+02</rscale>
<asrwt>0</asrwt>
<pdfrwt beam="1">  1       21 0.64073894E-01 0.23257047E+02</pdfrwt>
<pdfrwt beam="2">  1       21 0.28500876E-03 0.23257047E+02</pdfrwt>
<totfact> 0.44951940E+07</totfact>
</mgrwt>
</event>
<event>
 4    1  0.2721071E+004  0.2108284E+02  0.7546771E-02  0.1724614E+00
         21   -1    0    0  501  502  0.00000000000E+00  0.00000000000E+00  0.69009637958E+01  0.69009637958E+01  0.00000000000E+00 0.  1.
         21   -1    0    0  502  503 -0.00000000000E+00 -0.00000000000E+00 -0.26739129494E+03  0.26739129494E+03  0.00000000000E+00 0. -1.
          2    1    1    2  501    0 -0.20957412062E+02 -0.22962714125E+01 -0.10753195288E+02  0.23666795128E+02  0.00000000000E+00 0.  1.
         -2    1    1    2    0  503  0.20957412062E+02  0.22962714125E+01 -0.24973713586E+03  0.25062546361E+03  0.00000000000E+00 0. -1.
<mgrwt>
<rscale>  2 0.21082836E+02</rscale>
<asrwt>0</asrwt>
<pdfrwt beam="1">  1       21 0.10616867E-02 0.21082836E+02</pdfrwt>
<pdfrwt beam="2">  1       21 0.41137123E-01 0.21082836E+02</pdfrwt>
<totfact> 0.14970038E+07</totfact>
</mgrwt>
</event>
<event>
 4    1  0.2721071E+004  0.2223689E+02  0.7546771E-02  0.1704187E+00
         21   -1    0    0  503  502  0.00000000000E+00  0.00000000000E+00  0.33686380722E+03  0.33686380722E+03  0.00000000000E+00 0.  1.
         21   -1    0    0  501  503 -0.00000000000E+00 -0.00000000000E+00 -0.16916240175E+01  0.16916240175E+01  0.00000000000E+00 0. -1.
          2    1    1    2  501    0  0.22216596941E+02  0.94984500561E+00  0.10602407901E+03  0.10833090379E+03  0.00000000000E+00 0. -1.
         -2    1    1    2    0  502 -0.22216596941E+02 -0.94984500561E+00  0.22914810419E+03  0.23022452745E+03  0.00000000000E+00 0.  1.
<mgrwt>
<rscale>  2 0.22236892E+02</rscale>
<asrwt>0</asrwt>
<pdfrwt beam="1">  1       21 0.51825148E-01 0.22236892E+02</pdfrwt>
<pdfrwt beam="2">  1       21 0.26025012E-03 0.22236892E+02</pdfrwt>
<totfact> 0.77336845E+07</totfact>
</mgrwt>
</event>
<event>
 4    1  0.2721071E+004  0.2180233E+02  0.7546771E-02  0.1711693E+00
         21   -1    0    0  503  502  0.00000000000E+00  0.00000000000E+00  0.14052593415E+03  0.14052593415E+03  0.00000000000E+00 0.  1.
         21   -1    0    0  501  503 -0.00000000000E+00 -0.00000000000E+00 -0.35232620648E+01  0.35232620648E+01  0.00000000000E+00 0. -1.
          2    1    1    2  501    0 -0.20851128319E+02 -0.63696071255E+01  0.54109566516E+02  0.58336837724E+02  0.00000000000E+00 0.  1.
         -2    1    1    2    0  502  0.20851128319E+02  0.63696071255E+01  0.82893105566E+02  0.85712358488E+02  0.00000000000E+00 0. -1.
<mgrwt>
<rscale>  2 0.21802327E+02</rscale>
<asrwt>0</asrwt>
<pdfrwt beam="1">  1       21 0.21619370E-01 0.21802327E+02</pdfrwt>
<pdfrwt beam="2">  1       21 0.54204043E-03 0.21802327E+02</pdfrwt>
<totfact> 0.13178320E+08</totfact>
</mgrwt>
</event>
<event>
 4    1  0.2721071E+004  0.2608198E+02  0.7546771E-02  0.1645930E+00
         21   -1    0    0  503  502  0.00000000000E+00  0.00000000000E+00  0.17398124784E+02  0.17398124784E+02  0.00000000000E+00 0.  1.
         21   -1    0    0  501  503 -0.00000000000E+00 -0.00000000000E+00 -0.48289634711E+02  0.48289634711E+02  0.00000000000E+00 0. -1.
          2    1    1    2  501    0 -0.24310316227E+02  0.94487201662E+01 -0.29773320220E+02  0.39581818866E+02  0.00000000000E+00 0. -1.
         -2    1    1    2    0  502  0.24310316227E+02 -0.94487201662E+01 -0.11181897076E+01  0.26105940628E+02  0.00000000000E+00 0.  1.
<mgrwt>
<rscale>  2 0.26081982E+02</rscale>
<asrwt>0</asrwt>
<pdfrwt beam="1">  1       21 0.26766347E-02 0.26081982E+02</pdfrwt>
<pdfrwt beam="2">  1       21 0.74291744E-02 0.26081982E+02</pdfrwt>
<totfact> 0.74830479E+07</totfact>
</mgrwt>
</event>
<event>
 4    1  0.2721071E+004  0.2664336E+02  0.7546771E-02  0.1638461E+00
         21   -1    0    0  503  502  0.00000000000E+00  0.00000000000E+00  0.53580535552E+01  0.53580535552E+01  0.00000000000E+00 0.  1.
         21   -1    0    0  501  503 -0.00000000000E+00 -0.00000000000E+00 -0.22236803588E+03  0.22236803588E+03  0.00000000000E+00 0. -1.
          2    1    1    2  501    0  0.22521086905E+02 -0.14236200123E+02 -0.18089561378E+03  0.18284718164E+03  0.00000000000E+00 0. -1.
         -2    1    1    2    0  502 -0.22521086905E+02  0.14236200123E+02 -0.36114368541E+02  0.44878907790E+02  0.00000000000E+00 0.  1.
<mgrwt>
<rscale>  2 0.26643362E+02</rscale>
<asrwt>0</asrwt>
<pdfrwt beam="1">  1       21 0.82431588E-03 0.26643362E+02</pdfrwt>
<pdfrwt beam="2">  1       21 0.34210469E-01 0.26643362E+02</pdfrwt>
<totfact> 0.32435800E+07</totfact>
</mgrwt>
</event>
<event>
 4    1  0.2721071E+004  0.2305519E+02  0.7546771E-02  0.1690617E+00
         21   -1    0    0  503  502  0.00000000000E+00  0.00000000000E+00  0.46687203563E+01  0.46687203563E+01  0.00000000000E+00 0.  1.
         21   -1    0    0  501  503 -0.00000000000E+00 -0.00000000000E+00 -0.34190317423E+03  0.34190317423E+03  0.00000000000E+00 0. -1.
          2    1    1    2  501    0  0.23006130781E+02  0.15032140260E+01 -0.31014061901E+03  0.31099637500E+03  0.00000000000E+00 0. -1.
         -2    1    1    2    0  502 -0.23006130781E+02 -0.15032140260E+01 -0.27093834864E+02  0.35575519582E+02  0.00000000000E+00 0.  1.
<mgrwt>
<rscale>  2 0.23055188E+02</rscale>
<asrwt>0</asrwt>
<pdfrwt beam="1">  1       21 0.71826460E-03 0.23055188E+02</pdfrwt>
<pdfrwt beam="2">  1       21 0.52600494E-01 0.23055188E+02</pdfrwt>
<totfact> 0.17044422E+07</totfact>
</mgrwt>
</event>
<event>
 4    1  0.2721071E+004  0.2721717E+02  0.7546771E-02  0.1631057E+00
         21   -1    0    0  503  502  0.00000000000E+00  0.00000000000E+00  0.21072124842E+01  0.21072124842E+01  0.00000000000E+00 0. -1.
         21   -1    0    0  501  503 -0.00000000000E+00 -0.00000000000E+00 -0.35208804999E+03  0.35208804999E+03  0.00000000000E+00 0.  1.
          2    1    1    2  501    0 -0.15164391240E+02  0.22601228761E+02 -0.18196290682E+03  0.18398715651E+03  0.00000000000E+00 0.  1.
         -2    1    1    2    0  502  0.15164391240E+02 -0.22601228761E+02 -0.16801793069E+03  0.17020810596E+03  0.00000000000E+00 0. -1.
<mgrwt>
<rscale>  2 0.27217169E+02</rscale>
<asrwt>0</asrwt>
<pdfrwt beam="1">  1       21 0.32418666E-03 0.27217169E+02</pdfrwt>
<pdfrwt beam="2">  1       21 0.54167372E-01 0.27217169E+02</pdfrwt>
<totfact> 0.53936481E+07</totfact>
</mgrwt>
</event>
<event>
 4    1  0.2721071E+004  0.4096606E+02  0.7546771E-02  0.1501220E+00
         21   -1    0    0  501  502  0.00000000000E+00  0.00000000000E+00  0.37303610514E+03  0.37303610514E+03  0.00000000000E+00 0.  1.
         21   -1    0    0  502  503 -0.00000000000E+00 -0.00000000000E+00 -0.11212741844E+02  0.11212741844E+02  0.00000000000E+00 0. -1.
          2    1    1    2  501    0  0.37638248672E+02 -0.16173432878E+02  0.32957889632E+03  0.33211514056E+03  0.00000000000E+00 0.  1.
         -2    1    1    2    0  503 -0.37638248672E+02  0.16173432878E+02  0.32244466975E+02  0.52133706416E+02  0.00000000000E+00 0. -1.
<mgrwt>
<rscale>  2 0.40966055E+02</rscale>
<asrwt>0</asrwt>
<pdfrwt beam="1">  1       21 0.57390160E-01 0.40966055E+02</pdfrwt>
<pdfrwt beam="2">  1       21 0.17250375E-02 0.40966055E+02</pdfrwt>
<totfact> 0.40988832E+06</totfact>
</mgrwt>
</event>
<event>
 4    1  0.2721071E+004  0.2284055E+02  0.7546771E-02  0.1694108E+00
         21   -1    0    0  503  502  0.00000000000E+00  0.00000000000E+00  0.18016814216E+02  0.18016814216E+02  0.00000000000E+00 0. -1.
         21   -1    0    0  501  503 -0.00000000000E+00 -0.00000000000E+00 -0.43983774541E+02  0.43983774541E+02  0.00000000000E+00 0.  1.
          2    1    1    2  501    0 -0.56201818084E+01 -0.22138300215E+02 -0.31103980593E+02  0.38589485468E+02  0.00000000000E+00 0.  1.
         -2    1    1    2    0  502  0.56201818084E+01  0.22138300215E+02  0.51370202685E+01  0.23411103289E+02  0.00000000000E+00 0. -1.
<mgrwt>
<rscale>  2 0.22840551E+02</rscale>
<asrwt>0</asrwt>
<pdfrwt beam="1">  1       21 0.27718176E-02 0.22840551E+02</pdfrwt>
<pdfrwt beam="2">  1       21 0.67667345E-02 0.22840551E+02</pdfrwt>
<totfact> 0.79627181E+07</totfact>
</mgrwt>
</event>
<event>
 4    1  0.2721071E+004  0.2591648E+02  0.7546771E-02  0.1648177E+00
         21   -1    0    0  503  502  0.00000000000E+00  0.00000000000E+00  0.29505544349E+01  0.29505544349E+01  0.00000000000E+00 0. -1.
         21   -1    0    0  501  503 -0.00000000000E+00 -0.00000000000E+00 -0.80874105829E+03  0.80874105829E+03  0.00000000000E+00 0.  1.
          2    1    1    2  501    0  0.12878058467E+02  0.22490428038E+02 -0.74691407775E+03  0.74736356835E+03  0.00000000000E+00 0.  1.
         -2    1    1    2    0  502 -0.12878058467E+02 -0.22490428038E+02 -0.58876426100E+02  0.64328044378E+02  0.00000000000E+00 0. -1.
<mgrwt>
<rscale>  2 0.25916476E+02</rscale>
<asrwt>0</asrwt>
<pdfrwt beam="1">  1       21 0.45393110E-03 0.25916476E+02</pdfrwt>
<pdfrwt beam="2">  1       21 0.12442180E+00 0.25916476E+02</pdfrwt>
<totfact> 0.55562350E+06</totfact>
</mgrwt>
</event>
<event>
 4    1  0.2721071E+004  0.3075177E+02  0.7546771E-02  0.1589924E+00
         21   -1    0    0  501  502  0.00000000000E+00  0.00000000000E+00  0.50375233369E+02  0.50375233369E+02  0.00000000000E+00 0. -1.
         21   -1    0    0  502  503 -0.00000000000E+00 -0.00000000000E+00 -0.25202021996E+02  0.25202021996E+02  0.00000000000E+00 0.  1.
          2    1    1    2  501    0  0.24865515131E+01  0.30651074000E+02  0.31673325167E+02  0.44146016841E+02  0.00000000000E+00 0. -1.
         -2    1    1    2    0  503 -0.24865515131E+01 -0.30651074000E+02 -0.65001137941E+01  0.31431238524E+02  0.00000000000E+00 0.  1.
<mgrwt>
<rscale>  2 0.30751769E+02</rscale>
<asrwt>0</asrwt>
<pdfrwt beam="1">  1       21 0.77500359E-02 0.30751769E+02</pdfrwt>
<pdfrwt beam="2">  1       21 0.38772342E-02 0.30751769E+02</pdfrwt>
<totfact> 0.40491888E+07</totfact>
</mgrwt>
</event>
<event>
 4    1  0.2721071E+004  0.2270246E+02  0.7546771E-02  0.1696379E+00
         21   -1    0    0  503  502  0.00000000000E+00  0.00000000000E+00  0.11097636780E+02  0.11097636780E+02  0.00000000000E+00 0.  1.
         21   -1    0    0  501  503 -0.00000000000E+00 -0.00000000000E+00 -0.59503482084E+02  0.59503482084E+02  0.00000000000E+00 0. -1.
          2    1    1    2  501    0 -0.14364637862E+02  0.17580071003E+02 -0.40741522213E+02  0.46639825789E+02  0.00000000000E+00 0. -1.
         -2    1    1    2    0  502  0.14364637862E+02 -0.17580071003E+02 -0.76643230901E+01  0.23961293075E+02  0.00000000000E+00 0.  1.
<mgrwt>
<rscale>  2 0.22702461E+02</rscale>
<asrwt>0</asrwt>
<pdfrwt beam="1">  1       21 0.17073287E-02 0.22702461E+02</pdfrwt>
<pdfrwt beam="2">  1       21 0.91543820E-02 0.22702461E+02</pdfrwt>
<totfact> 0.10237235E+08</totfact>
</mgrwt>
</event>
<event>
 4    1  0.2721071E+004  0.2776703E+02  0.7546771E-02  0.1624169E+00
         21   -1    0    0  501  502  0.00000000000E+00  0.00000000000E+00  0.33086273568E+02  0.33086273568E+02  0.00000000000E+00 0.  1.
         21   -1    0    0  502  503 -0.00000000000E+00 -0.00000000000E+00 -0.29724699936E+02  0.29724699936E+02  0.00000000000E+00 0. -1.
          2    1    1    2  501    0 -0.26126140883E+02 -0.94038653459E+01  0.16278113884E+02  0.32186719506E+02  0.00000000000E+00 0.  1.
         -2    1    1    2    0  503  0.26126140883E+02  0.94038653459E+01 -0.12916540253E+02  0.30624253999E+02  0.00000000000E+00 0. -1.
<mgrwt>
<rscale>  2 0.27767029E+02</rscale>
<asrwt>0</asrwt>
<pdfrwt beam="1">  1       21 0.50901960E-02 0.27767029E+02</pdfrwt>
<pdfrwt beam="2">  1       21 0.45730307E-02 0.27767029E+02</pdfrwt>
<totfact> 0.60234939E+07</totfact>
</mgrwt>
</event>
<event>
 4    1  0.2721071E+004  0.2026643E+02  0.7546771E-02  0.1740081E+00
         21   -1    0    0  501  502  0.00000000000E+00  0.00000000000E+00  0.26818125460E+03  0.26818125460E+03  0.00000000000E+00 0.  1.
         21   -1    0    0  502  503 -0.00000000000E+00 -0.00000000000E+00 -0.15879415230E+01  0.15879415230E+01  0.00000000000E+00 0. -1.
          2    1    1    2  501    0  0.14085982470E+02 -0.14570972131E+02  0.15871937154E+03  0.16000802178E+03  0.00000000000E+00 0.  1.
         -2    1    1    2    0  503 -0.14085982470E+02  0.14570972131E+02  0.10787394153E+03  0.10976117434E+03  0.00000000000E+00 0. -1.
<mgrwt>
<rscale>  2 0.20266429E+02</rscale>
<asrwt>0</asrwt>
<pdfrwt beam="1">  1       21 0.41258619E-01 0.20266429E+02</pdfrwt>
<pdfrwt beam="2">  1       21 0.24429891E-03 0.20266429E+02</pdfrwt>
<totfact> 0.12794600E+08</totfact>
</mgrwt>
</event>
<event>
 4    1  0.2721071E+004  0.2005539E+02  0.7546771E-02  0.1744229E+00
         21   -1    0    0  503  502  0.00000000000E+00  0.00000000000E+00  0.26656193777E+03  0.26656193777E+03  0.00000000000E+00 0.  1.
         21   -1    0    0  501  503 -0.00000000000E+00 -0.00000000000E+00 -0.72135087469E+01  0.72135087469E+01  0.00000000000E+00 0. -1.
          2    1    1    2  501    0  0.16480137782E+02 -0.11429079127E+02  0.79425239757E+01  0.21570871055E+02  0.00000000000E+00 0. -1.
         -2    1    1    2    0  502 -0.16480137782E+02  0.11429079127E+02  0.25140590505E+03  0.25220457546E+03  0.00000000000E+00 0.  1.
<mgrwt>
<rscale>  2 0.20055393E+02</rscale>
<asrwt>0</asrwt>
<pdfrwt beam="1">  1       21 0.41009521E-01 0.20055393E+02</pdfrwt>
<pdfrwt beam="2">  1       21 0.11097708E-02 0.20055393E+02</pdfrwt>
<totfact> 0.13945962E+07</totfact>
</mgrwt>
</event>
<event>
 4    1  0.2721071E+004  0.2910370E+02  0.7546771E-02  0.1608213E+00
         21   -1    0    0  503  502  0.00000000000E+00  0.00000000000E+00  0.23114820239E+02  0.23114820239E+02  0.00000000000E+00 0.  1.
         21   -1    0    0  501  503 -0.00000000000E+00 -0.00000000000E+00 -0.87406540088E+02  0.87406540088E+02  0.00000000000E+00 0. -1.
          2    1    1    2  501    0 -0.28688948756E+02 -0.48958840198E+01 -0.74258728584E+02  0.79758286290E+02  0.00000000000E+00 0. -1.
         -2    1    1    2    0  502  0.28688948756E+02  0.48958840198E+01  0.99670087350E+01  0.30763074036E+02  0.00000000000E+00 0.  1.
<mgrwt>
<rscale>  2 0.29103702E+02</rscale>
<asrwt>0</asrwt>
<pdfrwt beam="1">  1       21 0.35561262E-02 0.29103702E+02</pdfrwt>
<pdfrwt beam="2">  1       21 0.13447160E-01 0.29103702E+02</pdfrwt>
<totfact> 0.18258199E+07</totfact>
</mgrwt>
</event>
<event>
 4    1  0.2721071E+004  0.2751789E+02  0.7546771E-02  0.1627266E+00
         21   -1    0    0  501  502  0.00000000000E+00  0.00000000000E+00  0.77388272784E+01  0.77388272784E+01  0.00000000000E+00 0. -1.
         21   -1    0    0  502  503 -0.00000000000E+00 -0.00000000000E+00 -0.15413656403E+03  0.15413656403E+03  0.00000000000E+00 0.  1.
          2    1    1    2  501    0  0.76638015476E+01 -0.26429155093E+02 -0.24287993540E+02  0.36703415690E+02  0.00000000000E+00 0. -1.
         -2    1    1    2    0  503 -0.76638015476E+01  0.26429155093E+02 -0.12210974321E+03  0.12517197562E+03  0.00000000000E+00 0.  1.
<mgrwt>
<rscale>  2 0.27517887E+02</rscale>
<asrwt>0</asrwt>
<pdfrwt beam="1">  1       21 0.11905889E-02 0.27517887E+02</pdfrwt>
<pdfrwt beam="2">  1       21 0.23713316E-01 0.27517887E+02</pdfrwt>
<totfact> 0.36541257E+07</totfact>
</mgrwt>
</event>
<event>
 4    1  0.2721071E+004  0.2609640E+02  0.7546771E-02  0.1645736E+00
         21   -1    0    0  503  502  0.00000000000E+00  0.00000000000E+00  0.11513440550E+03  0.11513440550E+03  0.00000000000E+00 0. -1.
         21   -1    0    0  501  503 -0.00000000000E+00 -0.00000000000E+00 -0.65354220952E+01  0.65354220952E+01  0.00000000000E+00 0.  1.
          2    1    1    2  501    0  0.98789465817E+01  0.24154263073E+02  0.35555865310E+02  0.44104892791E+02  0.00000000000E+00 0.  1.
         -2    1    1    2    0  502 -0.98789465817E+01 -0.24154263073E+02  0.73043118095E+02  0.77564934804E+02  0.00000000000E+00 0. -1.
<mgrwt>
<rscale>  2 0.26096398E+02</rscale>
<asrwt>0</asrwt>
<pdfrwt beam="1">  1       21 0.17712984E-01 0.26096398E+02</pdfrwt>
<pdfrwt beam="2">  1       21 0.10054496E-02 0.26096398E+02</pdfrwt>
<totfact> 0.77914926E+07</totfact>
</mgrwt>
</event>
<event>
 4    1  0.2721071E+004  0.2665950E+02  0.7546771E-02  0.1638250E+00
         21   -1    0    0  501  502  0.00000000000E+00  0.00000000000E+00  0.13006721826E+03  0.13006721826E+03  0.00000000000E+00 0. -1.
         21   -1    0    0  502  503 -0.00000000000E+00 -0.00000000000E+00 -0.58606436766E+01  0.58606436766E+01  0.00000000000E+00 0.  1.
          2    1    1    2  501    0 -0.80677610492E+01 -0.25409446218E+02  0.79777154377E+02  0.84113750873E+02  0.00000000000E+00 0. -1.
         -2    1    1    2    0  503  0.80677610492E+01  0.25409446218E+02  0.44429420206E+02  0.51814111063E+02  0.00000000000E+00 0.  1.
<mgrwt>
<rscale>  2 0.26659496E+02</rscale>
<asrwt>0</asrwt>
<pdfrwt beam="1">  1       21 0.20010339E-01 0.26659496E+02</pdfrwt>
<pdfrwt beam="2">  1       21 0.90163759E-03 0.26659496E+02</pdfrwt>
<totfact> 0.74606494E+07</totfact>
</mgrwt>
</event>
<event>
 4    1  0.2721071E+004  0.4811693E+02  0.7546771E-02  0.1455771E+00
         21   -1    0    0  501  502  0.00000000000E+00  0.00000000000E+00  0.86809440831E+02  0.86809440831E+02  0.00000000000E+00 0. -1.
         21   -1    0    0  502  503 -0.00000000000E+00 -0.00000000000E+00 -0.12850377917E+03  0.12850377917E+03  0.00000000000E+00 0.  1.
          2    1    1    2  501    0  0.20944751357E+02 -0.43319236350E+02  0.74988662897E+02  0.89098475915E+02  0.00000000000E+00 0. -1.
         -2    1    1    2    0  503 -0.20944751357E+02  0.43319236350E+02 -0.11668300123E+03  0.12621474408E+03  0.00000000000E+00 0.  1.
<mgrwt>
<rscale>  2 0.48116929E+02</rscale>
<asrwt>0</asrwt>
<pdfrwt beam="1">  1       21 0.13355299E-01 0.48116929E+02</pdfrwt>
<pdfrwt beam="2">  1       21 0.19769812E-01 0.48116929E+02</pdfrwt>
<totfact> 0.11095684E+06</totfact>
</mgrwt>
</event>
<event>
 4    1  0.2721071E+004  0.2004523E+02  0.7546771E-02  0.1744430E+00
         21   -1    0    0  503  502  0.00000000000E+00  0.00000000000E+00  0.33480164126E+02  0.33480164126E+02  0.00000000000E+00 0. -1.
         21   -1    0    0  501  503 -0.00000000000E+00 -0.00000000000E+00 -0.10447451556E+03  0.10447451556E+03  0.00000000000E+00 0.  1.
          2    1    1    2  501    0 -0.19816189779E+02  0.30215954488E+01 -0.10039181501E+03  0.10237347282E+03  0.00000000000E+00 0.  1.
         -2    1    1    2    0  502  0.19816189779E+02 -0.30215954488E+01  0.29397463582E+02  0.35581206858E+02  0.00000000000E+00 0. -1.
<mgrwt>
<rscale>  2 0.20045234E+02</rscale>
<asrwt>0</asrwt>
<pdfrwt beam="1">  1       21 0.51507945E-02 0.20045234E+02</pdfrwt>
<pdfrwt beam="2">  1       21 0.16073002E-01 0.20045234E+02</pdfrwt>
<totfact> 0.69810617E+06</totfact>
</mgrwt>
</event>
<event>
 4    1  0.2721071E+004  0.2077400E+02  0.7546771E-02  0.1730360E+00
         21   -1    0    0  501  502  0.00000000000E+00  0.00000000000E+00  0.23082159349E+01  0.23082159349E+01  0.00000000000E+00 0.  1.
         21   -1    0    0  502  503 -0.00000000000E+00 -0.00000000000E+00 -0.20309767978E+03  0.20309767978E+03  0.00000000000E+00 0. -1.
          2    1    1    2  501    0 -0.16820265301E+02 -0.12191716318E+02 -0.71450486722E+02  0.74409215319E+02  0.00000000000E+00 0.  1.
         -2    1    1    2    0  503  0.16820265301E+02  0.12191716318E+02 -0.12933897712E+03  0.13099668040E+03  0.00000000000E+00 0. -1.
<mgrwt>
<rscale>  2 0.20774005E+02</rscale>
<asrwt>0</asrwt>
<pdfrwt beam="1">  1       21 0.35511003E-03 0.20774005E+02</pdfrwt>
<pdfrwt beam="2">  1       21 0.31245807E-01 0.20774005E+02</pdfrwt>
<totfact> 0.12521611E+08</totfact>
</mgrwt>
</event>
<event>
 4    1  0.2721071E+004  0.2153233E+02  0.7546771E-02  0.1716468E+00
         21   -1    0    0  501  502  0.00000000000E+00  0.00000000000E+00  0.97344807377E+00  0.97344807377E+00  0.00000000000E+00 0. -1.
         21   -1    0    0  502  503 -0.00000000000E+00 -0.00000000000E+00 -0.48082421044E+03  0.48082421044E+03  0.00000000000E+00 0.  1.
          2    1    1    2  501    0 -0.17715991241E+02 -0.12238658165E+02 -0.21652545324E+03  0.21759345809E+03  0.00000000000E+00 0.  1.
         -2    1    1    2    0  503  0.17715991241E+02  0.12238658165E+02 -0.26332530913E+03  0.26420420043E+03  0.00000000000E+00 0. -1.
<mgrwt>
<rscale>  2 0.21532327E+02</rscale>
<asrwt>0</asrwt>
<pdfrwt beam="1">  1       21 0.14976093E-03 0.21532327E+02</pdfrwt>
<pdfrwt beam="2">  1       21 0.73973110E-01 0.21532327E+02</pdfrwt>
<totfact> 0.83330816E+07</totfact>
</mgrwt>
</event>
<event>
 4    1  0.2721071E+004  0.3157254E+02  0.7546771E-02  0.1581330E+00
         21   -1    0    0  503  502  0.00000000000E+00  0.00000000000E+00  0.35286625608E+02  0.35286625608E+02  0.00000000000E+00 0. -1.
         21   -1    0    0  501  503 -0.00000000000E+00 -0.00000000000E+00 -0.34864414163E+02  0.34864414163E+02  0.00000000000E+00 0.  1.
          2    1    1    2  501    0  0.55525064751E+01 -0.31080464089E+02  0.15489535260E+02  0.35167474728E+02  0.00000000000E+00 0. -1.
         -2    1    1    2    0  502 -0.55525064751E+01  0.31080464089E+02 -0.15067323815E+02  0.34983565043E+02  0.00000000000E+00 0.  1.
<mgrwt>
<rscale>  2 0.31572545E+02</rscale>
<asrwt>0</asrwt>
<pdfrwt beam="1">  1       21 0.54287116E-02 0.31572545E+02</pdfrwt>
<pdfrwt beam="2">  1       21 0.53637560E-02 0.31572545E+02</pdfrwt>
<totfact> 0.43258970E+07</totfact>
</mgrwt>
</event>
<event>
 4    1  0.2721071E+004  0.2748720E+02  0.7546771E-02  0.1627650E+00
         21   -1    0    0  503  502  0.00000000000E+00  0.00000000000E+00  0.16330406656E+02  0.16330406656E+02  0.00000000000E+00 0. -1.
         21   -1    0    0  501  503 -0.00000000000E+00 -0.00000000000E+00 -0.47495946084E+02  0.47495946084E+02  0.00000000000E+00 0.  1.
          2    1    1    2  501    0  0.24153475604E+02 -0.13120816050E+02 -0.20717833459E+02  0.34420558113E+02  0.00000000000E+00 0.  1.
         -2    1    1    2    0  502 -0.24153475604E+02  0.13120816050E+02 -0.10447705970E+02  0.29405794627E+02  0.00000000000E+00 0. -1.
<mgrwt>
<rscale>  2 0.27487201E+02</rscale>
<asrwt>0</asrwt>
<pdfrwt beam="1">  1       21 0.25123703E-02 0.27487201E+02</pdfrwt>
<pdfrwt beam="2">  1       21 0.73070686E-02 0.27487201E+02</pdfrwt>
<totfact> 0.85991204E+07</totfact>
</mgrwt>
</event>
<event>
 4    1  0.2721071E+004  0.4699573E+02  0.7546771E-02  0.1462254E+00
         21   -1    0    0  503  502  0.00000000000E+00  0.00000000000E+00  0.44910355071E+03  0.44910355071E+03  0.00000000000E+00 0. -1.
         21   -1    0    0  501  503 -0.00000000000E+00 -0.00000000000E+00 -0.49187128857E+01  0.49187128857E+01  0.00000000000E+00 0.  1.
          2    1    1    2  501    0  0.43807294783E+02 -0.17015266645E+02  0.21898823278E+03  0.22397420492E+03  0.00000000000E+00 0.  1.
         -2    1    1    2    0  502 -0.43807294783E+02  0.17015266645E+02  0.22519660505E+03  0.23004805868E+03  0.00000000000E+00 0. -1.
<mgrwt>
<rscale>  2 0.46995727E+02</rscale>
<asrwt>0</asrwt>
<pdfrwt beam="1">  1       21 0.69092821E-01 0.46995727E+02</pdfrwt>
<pdfrwt beam="2">  1       21 0.75672542E-03 0.46995727E+02</pdfrwt>
<totfact> 0.10071596E+07</totfact>
</mgrwt>
</event>
<event>
 4    1  0.2721071E+004  0.2446183E+02  0.7546771E-02  0.1668854E+00
         21   -1    0    0  501  502  0.00000000000E+00  0.00000000000E+00  0.26671812822E+02  0.26671812822E+02  0.00000000000E+00 0. -1.
         21   -1    0    0  502  503 -0.00000000000E+00 -0.00000000000E+00 -0.22728491422E+02  0.22728491422E+02  0.00000000000E+00 0.  1.
          2    1    1    2  501    0 -0.24439367976E+02 -0.10479519639E+01  0.47786812918E+01  0.24924219251E+02  0.00000000000E+00 0. -1.
         -2    1    1    2    0  503  0.24439367976E+02  0.10479519639E+01 -0.83535989125E+00  0.24476084992E+02  0.00000000000E+00 0.  1.
<mgrwt>
<rscale>  2 0.24461826E+02</rscale>
<asrwt>0</asrwt>
<pdfrwt beam="1">  1       21 0.41033558E-02 0.24461826E+02</pdfrwt>
<pdfrwt beam="2">  1       21 0.34966910E-02 0.24461826E+02</pdfrwt>
<totfact> 0.12567281E+08</totfact>
</mgrwt>
</event>
<event>
 4    1  0.2721071E+004  0.2207565E+02  0.7546771E-02  0.1706947E+00
         21   -1    0    0  503  502  0.00000000000E+00  0.00000000000E+00  0.98254939127E+00  0.98254939127E+00  0.00000000000E+00 0. -1.
         21   -1    0    0  501  503 -0.00000000000E+00 -0.00000000000E+00 -0.13745718398E+04  0.13745718398E+04  0.00000000000E+00 0.  1.
          2    1    1    2  501    0  0.95096178149E+01 -0.19922385247E+02 -0.12366586157E+04  0.12368556367E+04  0.00000000000E+00 0.  1.
         -2    1    1    2    0  502 -0.95096178149E+01  0.19922385247E+02 -0.13693067470E+03  0.13869875247E+03  0.00000000000E+00 0. -1.
<mgrwt>
<rscale>  2 0.22075649E+02</rscale>
<asrwt>0</asrwt>
<pdfrwt beam="1">  1       21 0.15116156E-03 0.22075649E+02</pdfrwt>
<pdfrwt beam="2">  1       21 0.21147242E+00 0.22075649E+02</pdfrwt>
<totfact> 0.74178855E+06</totfact>
</mgrwt>
</event>
<event>
 4    1  0.2721071E+004  0.2046412E+02  0.7546771E-02  0.1736253E+00
         21   -1    0    0  503  502  0.00000000000E+00  0.00000000000E+00  0.69650635134E+01  0.69650635134E+01  0.00000000000E+00 0.  1.
         21   -1    0    0  501  503 -0.00000000000E+00 -0.00000000000E+00 -0.10703899742E+03  0.10703899742E+03  0.00000000000E+00 0. -1.
          2    1    1    2  501    0 -0.10487943101E+02  0.17572224895E+02 -0.87773918268E+02  0.90127913358E+02  0.00000000000E+00 0. -1.
         -2    1    1    2    0  502  0.10487943101E+02 -0.17572224895E+02 -0.12300015636E+02  0.23876147572E+02  0.00000000000E+00 0.  1.
<mgrwt>
<rscale>  2 0.20464116E+02</rscale>
<asrwt>0</asrwt>
<pdfrwt beam="1">  1       21 0.10715482E-02 0.20464116E+02</pdfrwt>
<pdfrwt beam="2">  1       21 0.16467538E-01 0.20464116E+02</pdfrwt>
<totfact> 0.75257133E+07</totfact>
</mgrwt>
</event>
<event>
 4    1  0.2721071E+004  0.2043913E+02  0.7546771E-02  0.1736734E+00
         21   -1    0    0  501  502  0.00000000000E+00  0.00000000000E+00  0.39411252256E+01  0.39411252256E+01  0.00000000000E+00 0. -1.
         21   -1    0    0  502  503 -0.00000000000E+00 -0.00000000000E+00 -0.10791635074E+03  0.10791635074E+03  0.00000000000E+00 0.  1.
          2    1    1    2  501    0 -0.20279091379E+02  0.25527205890E+01 -0.59441237825E+02  0.62857129140E+02  0.00000000000E+00 0.  1.
         -2    1    1    2    0  503  0.20279091379E+02 -0.25527205890E+01 -0.44533987694E+02  0.49000346830E+02  0.00000000000E+00 0. -1.
<mgrwt>
<rscale>  2 0.20439127E+02</rscale>
<asrwt>0</asrwt>
<pdfrwt beam="1">  1       21 0.60632684E-03 0.20439127E+02</pdfrwt>
<pdfrwt beam="2">  1       21 0.16602519E-01 0.20439127E+02</pdfrwt>
<totfact> 0.17300755E+08</totfact>
</mgrwt>
</event>
<event>
 4    1  0.2721071E+004  0.2231099E+02  0.7546771E-02  0.1702928E+00
         21   -1    0    0  503  502  0.00000000000E+00  0.00000000000E+00  0.46254242594E+01  0.46254242594E+01  0.00000000000E+00 0.  1.
         21   -1    0    0  501  503 -0.00000000000E+00 -0.00000000000E+00 -0.27629193983E+03  0.27629193983E+03  0.00000000000E+00 0. -1.
          2    1    1    2  501    0 -0.12947288464E+02  0.18169972021E+02 -0.24557911291E+03  0.24659051251E+03  0.00000000000E+00 0. -1.
         -2    1    1    2    0  502  0.12947288464E+02 -0.18169972021E+02 -0.26087402658E+02  0.34326851578E+02  0.00000000000E+00 0.  1.
<mgrwt>
<rscale>  2 0.22310987E+02</rscale>
<asrwt>0</asrwt>
<pdfrwt beam="1">  1       21 0.71160379E-03 0.22310987E+02</pdfrwt>
<pdfrwt beam="2">  1       21 0.42506449E-01 0.22310987E+02</pdfrwt>
<totfact> 0.25879928E+07</totfact>
</mgrwt>
</event>
<event>
 4    1  0.2721071E+004  0.2304861E+02  0.7546771E-02  0.1690723E+00
         21   -1    0    0  501  502  0.00000000000E+00  0.00000000000E+00  0.12751544664E+03  0.12751544664E+03  0.00000000000E+00 0.  1.
         21   -1    0    0  502  503 -0.00000000000E+00 -0.00000000000E+00 -0.96780024857E+01  0.96780024857E+01  0.00000000000E+00 0. -1.
          2    1    1    2  501    0 -0.99767539232E+01  0.20777463817E+02  0.11068683719E+03  0.11306110980E+03  0.00000000000E+00 0.  1.
         -2    1    1    2    0  503  0.99767539232E+01 -0.20777463817E+02  0.71506069653E+01  0.24132339329E+02  0.00000000000E+00 0. -1.
<mgrwt>
<rscale>  2 0.23048614E+02</rscale>
<asrwt>0</asrwt>
<pdfrwt beam="1">  1       21 0.19617760E-01 0.23048614E+02</pdfrwt>
<pdfrwt beam="2">  1       21 0.14889236E-02 0.23048614E+02</pdfrwt>
<totfact> 0.34932627E+07</totfact>
</mgrwt>
</event>
<event>
 4    1  0.2721071E+004  0.2219400E+02  0.7546771E-02  0.1704918E+00
         21   -1    0    0  503  502  0.00000000000E+00  0.00000000000E+00  0.13172224271E+01  0.13172224271E+01  0.00000000000E+00 0. -1.
         21   -1    0    0  501  503 -0.00000000000E+00 -0.00000000000E+00 -0.67757236447E+03  0.67757236447E+03  0.00000000000E+00 0.  1.
          2    1    1    2  501    0 -0.20801701463E+02 -0.77370997026E+01 -0.56535417751E+03  0.56578964247E+03  0.00000000000E+00 0.  1.
         -2    1    1    2    0  502  0.20801701463E+02  0.77370997026E+01 -0.11090096453E+03  0.11309994442E+03  0.00000000000E+00 0. -1.
<mgrwt>
<rscale>  2 0.22193997E+02</rscale>
<asrwt>0</asrwt>
<pdfrwt beam="1">  1       21 0.20264978E-03 0.22193997E+02</pdfrwt>
<pdfrwt beam="2">  1       21 0.10424181E+00 0.22193997E+02</pdfrwt>
<totfact> 0.26169073E+07</totfact>
</mgrwt>
</event>
<event>
 4    1  0.2721071E+004  0.3223415E+02  0.7546771E-02  0.1574630E+00
         21   -1    0    0  501  502  0.00000000000E+00  0.00000000000E+00  0.32699290461E+01  0.32699290461E+01  0.00000000000E+00 0.  1.
         21   -1    0    0  502  503 -0.00000000000E+00 -0.00000000000E+00 -0.40590656619E+03  0.40590656619E+03  0.00000000000E+00 0. -1.
          2    1    1    2  501    0  0.31995041123E+02 -0.39188755471E+01 -0.10597732053E+03  0.11077108246E+03  0.00000000000E+00 0.  1.
         -2    1    1    2    0  503 -0.31995041123E+02  0.39188755471E+01 -0.29665931661E+03  0.29840541277E+03  0.00000000000E+00 0. -1.
<mgrwt>
<rscale>  2 0.32234147E+02</rscale>
<asrwt>0</asrwt>
<pdfrwt beam="1">  1       21 0.50306629E-03 0.32234147E+02</pdfrwt>
<pdfrwt beam="2">  1       21 0.62447129E-01 0.32234147E+02</pdfrwt>
<totfact> 0.21839714E+07</totfact>
</mgrwt>
</event>
<event>
 4    1  0.2721071E+004  0.2340871E+02  0.7546771E-02  0.1684969E+00
         21   -1    0    0  503  502  0.00000000000E+00  0.00000000000E+00  0.30431070112E+02  0.30431070112E+02  0.00000000000E+00 0.  1.
         21   -1    0    0  501  503 -0.00000000000E+00 -0.00000000000E+00 -0.20104667061E+02  0.20104667061E+02  0.00000000000E+00 0. -1.
          2    1    1    2  501    0  0.17461301778E+01  0.23343497008E+02 -0.29989303047E+01  0.23600029791E+02  0.00000000000E+00 0.  1.
         -2    1    1    2    0  502 -0.17461301778E+01 -0.23343497008E+02  0.13325333356E+02  0.26935707382E+02  0.00000000000E+00 0. -1.
<mgrwt>
<rscale>  2 0.23408713E+02</rscale>
<asrwt>0</asrwt>
<pdfrwt beam="1">  1       21 0.46817031E-02 0.23408713E+02</pdfrwt>
<pdfrwt beam="2">  1       21 0.30930257E-02 0.23408713E+02</pdfrwt>
<totfact> 0.12197177E+08</totfact>
</mgrwt>
</event>
<event>
 4    1  0.2721071E+004  0.2255802E+02  0.7546771E-02  0.1698776E+00
         21   -1    0    0  503  502  0.00000000000E+00  0.00000000000E+00  0.81189826444E+03  0.81189826444E+03  0.00000000000E+00 0.  1.
         21   -1    0    0  501  503 -0.00000000000E+00 -0.00000000000E+00 -0.88364213459E+00  0.88364213459E+00  0.00000000000E+00 0. -1.
          2    1    1    2  501    0 -0.17633429652E+02  0.14068628054E+02  0.18639133498E+03  0.18775141515E+03  0.00000000000E+00 0. -1.
         -2    1    1    2    0  502  0.17633429652E+02 -0.14068628054E+02  0.62462328733E+03  0.62503049143E+03  0.00000000000E+00 0.  1.
<mgrwt>
<rscale>  2 0.22558017E+02</rscale>
<asrwt>0</asrwt>
<pdfrwt beam="1">  1       21 0.12490683E+00 0.22558017E+02</pdfrwt>
<pdfrwt beam="2">  1       21 0.13594559E-03 0.22558017E+02</pdfrwt>
<totfact> 0.31072497E+07</totfact>
</mgrwt>
</event>
<event>
 4    1  0.2721071E+004  0.3151013E+02  0.7546771E-02  0.1581972E+00
         21   -1    0    0  501  502  0.00000000000E+00  0.00000000000E+00  0.14286149691E+02  0.14286149691E+02  0.00000000000E+00 0. -1.
         21   -1    0    0  502  503 -0.00000000000E+00 -0.00000000000E+00 -0.69519487742E+02  0.69519487742E+02  0.00000000000E+00 0.  1.
          2    1    1    2  501    0 -0.12781909966E+02  0.28801239107E+02 -0.28316733786E+02  0.42364206694E+02  0.00000000000E+00 0. -1.
         -2    1    1    2    0  503  0.12781909966E+02 -0.28801239107E+02 -0.26916604265E+02  0.41441430739E+02  0.00000000000E+00 0.  1.
<mgrwt>
<rscale>  2 0.31510135E+02</rscale>
<asrwt>0</asrwt>
<pdfrwt beam="1">  1       21 0.21978692E-02 0.31510135E+02</pdfrwt>
<pdfrwt beam="2">  1       21 0.10695306E-01 0.31510135E+02</pdfrwt>
<totfact> 0.58159197E+07</totfact>
</mgrwt>
</event>
<event>
 4    1  0.2721071E+004  0.5270431E+02  0.7546771E-02  0.1431278E+00
         21   -1    0    0  501  502  0.00000000000E+00  0.00000000000E+00  0.14637208732E+03  0.14637208732E+03  0.00000000000E+00 0. -1.
         21   -1    0    0  502  503 -0.00000000000E+00 -0.00000000000E+00 -0.30816677832E+02  0.30816677832E+02  0.00000000000E+00 0.  1.
          2    1    1    2  501    0  0.24814446554E+02 -0.46497181255E+02  0.11269106459E+03  0.12440667450E+03  0.00000000000E+00 0. -1.
         -2    1    1    2    0  503 -0.24814446554E+02  0.46497181255E+02  0.28643449072E+01  0.52782090658E+02  0.00000000000E+00 0.  1.
<mgrwt>
<rscale>  2 0.52704313E+02</rscale>
<asrwt>0</asrwt>
<pdfrwt beam="1">  1       21 0.22518782E-01 0.52704313E+02</pdfrwt>
<pdfrwt beam="2">  1       21 0.47410274E-02 0.52704313E+02</pdfrwt>
<totfact> 0.50313559E+06</totfact>
</mgrwt>
</event>
<event>
 4    1  0.2721071E+004  0.6575228E+02  0.7546771E-02  0.1375164E+00
         21   -1    0    0  503  502  0.00000000000E+00  0.00000000000E+00  0.85967295790E+01  0.85967295790E+01  0.00000000000E+00 0. -1.
         21   -1    0    0  501  503 -0.00000000000E+00 -0.00000000000E+00 -0.12679037993E+04  0.12679037993E+04  0.00000000000E+00 0.  1.
          2    1    1    2  501    0 -0.28590303057E+02 -0.59211126192E+02 -0.11254203076E+04  0.11273394483E+04  0.00000000000E+00 0.  1.
         -2    1    1    2    0  502  0.28590303057E+02  0.59211126192E+02 -0.13388676212E+03  0.14916108060E+03  0.00000000000E+00 0. -1.
<mgrwt>
<rscale>  2 0.65752284E+02</rscale>
<asrwt>0</asrwt>
<pdfrwt beam="1">  1       21 0.13225732E-02 0.65752284E+02</pdfrwt>
<pdfrwt beam="2">  1       21 0.19506221E+00 0.65752284E+02</pdfrwt>
<totfact> 0.36903612E+05</totfact>
</mgrwt>
</event>
<event>
 4    1  0.2721071E+004  0.2003795E+02  0.7546771E-02  0.1744575E+00
         21   -1    0    0  503  502  0.00000000000E+00  0.00000000000E+00  0.37480293277E+02  0.37480293277E+02  0.00000000000E+00 0.  1.
         21   -1    0    0  501  503 -0.00000000000E+00 -0.00000000000E+00 -0.31284742015E+02  0.31284742015E+02  0.00000000000E+00 0. -1.
          2    1    1    2  501    0 -0.68009768267E+01 -0.18848502379E+02 -0.24783260350E+02  0.31870508645E+02  0.00000000000E+00 0. -1.
         -2    1    1    2    0  502  0.68009768267E+01  0.18848502379E+02  0.30978811611E+02  0.36894526647E+02  0.00000000000E+00 0.  1.
<mgrwt>
<rscale>  2 0.20037947E+02</rscale>
<asrwt>0</asrwt>
<pdfrwt beam="1">  1       21 0.57661990E-02 0.20037947E+02</pdfrwt>
<pdfrwt beam="2">  1       21 0.48130372E-02 0.20037947E+02</pdfrwt>
<totfact> 0.41874596E+07</totfact>
</mgrwt>
</event>
<event>
 4    1  0.2721071E+004  0.2451081E+02  0.7546771E-02  0.1668129E+00
         21   -1    0    0  503  502  0.00000000000E+00  0.00000000000E+00  0.69096650053E+01  0.69096650053E+01  0.00000000000E+00 0. -1.
         21   -1    0    0  501  503 -0.00000000000E+00 -0.00000000000E+00 -0.18771439826E+03  0.18771439826E+03  0.00000000000E+00 0.  1.
          2    1    1    2  501    0  0.24290144198E+02 -0.32815329816E+01 -0.16170018398E+03  0.16354732974E+03  0.00000000000E+00 0.  1.
         -2    1    1    2    0  502 -0.24290144198E+02  0.32815329816E+01 -0.19104549268E+02  0.31076733525E+02  0.00000000000E+00 0. -1.
<mgrwt>
<rscale>  2 0.24510805E+02</rscale>
<asrwt>0</asrwt>
<pdfrwt beam="1">  1       21 0.10630256E-02 0.24510805E+02</pdfrwt>
<pdfrwt beam="2">  1       21 0.28879133E-01 0.24510805E+02</pdfrwt>
<totfact> 0.29677087E+07</totfact>
</mgrwt>
</event>
<event>
 4    1  0.2721071E+004  0.2176250E+02  0.7546771E-02  0.1712392E+00
         21   -1    0    0  503  502  0.00000000000E+00  0.00000000000E+00  0.17754392343E+01  0.17754392343E+01  0.00000000000E+00 0.  1.
         21   -1    0    0  501  503 -0.00000000000E+00 -0.00000000000E+00 -0.26896782705E+03  0.26896782705E+03  0.00000000000E+00 0. -1.
          2    1    1    2  501    0 -0.15764487603E+02 -0.15002908598E+02 -0.14587635702E+03  0.14749073826E+03  0.00000000000E+00 0.  1.
         -2    1    1    2    0  502  0.15764487603E+02  0.15002908598E+02 -0.12131603080E+03  0.12325252803E+03  0.00000000000E+00 0. -1.
<mgrwt>
<rscale>  2 0.21762498E+02</rscale>
<asrwt>0</asrwt>
<pdfrwt beam="1">  1       21 0.27314435E-03 0.21762498E+02</pdfrwt>
<pdfrwt beam="2">  1       21 0.41379689E-01 0.21762498E+02</pdfrwt>
<totfact> 0.11041968E+08</totfact>
</mgrwt>
</event>
<event>
 4    1  0.2721071E+004  0.2335380E+02  0.7546771E-02  0.1685838E+00
         21   -1    0    0  503  502  0.00000000000E+00  0.00000000000E+00  0.12562230787E+03  0.12562230787E+03  0.00000000000E+00 0.  1.
         21   -1    0    0  501  503 -0.00000000000E+00 -0.00000000000E+00 -0.49480193949E+01  0.49480193949E+01  0.00000000000E+00 0. -1.
          2    1    1    2  501    0 -0.22772736515E+02  0.51771071410E+01  0.37481650846E+02  0.44161907985E+02  0.00000000000E+00 0. -1.
         -2    1    1    2    0  502  0.22772736515E+02 -0.51771071410E+01  0.83192637632E+02  0.86408419282E+02  0.00000000000E+00 0.  1.
<mgrwt>
<rscale>  2 0.23353800E+02</rscale>
<asrwt>0</asrwt>
<pdfrwt beam="1">  1       21 0.19326507E-01 0.23353800E+02</pdfrwt>
<pdfrwt beam="2">  1       21 0.76123385E-03 0.23353800E+02</pdfrwt>
<totfact> 0.98759793E+07</totfact>
</mgrwt>
</event>
<event>
 4    1  0.2721071E+004  0.2746131E+02  0.7546771E-02  0.1627974E+00
         21   -1    0    0  503  502  0.00000000000E+00  0.00000000000E+00  0.33582859845E+03  0.33582859845E+03  0.00000000000E+00 0.  1.
         21   -1    0    0  501  503 -0.00000000000E+00 -0.00000000000E+00 -0.22463247582E+01  0.22463247582E+01  0.00000000000E+00 0. -1.
          2    1    1    2  501    0  0.21340109141E+02  0.17283618578E+02  0.16990728418E+03  0.17211219871E+03  0.00000000000E+00 0.  1.
         -2    1    1    2    0  502 -0.21340109141E+02 -0.17283618578E+02  0.16367498952E+03  0.16596272450E+03  0.00000000000E+00 0. -1.
<mgrwt>
<rscale>  2 0.27461313E+02</rscale>
<asrwt>0</asrwt>
<pdfrwt beam="1">  1       21 0.51665898E-01 0.27461313E+02</pdfrwt>
<pdfrwt beam="2">  1       21 0.34558869E-03 0.27461313E+02</pdfrwt>
<totfact> 0.54009098E+07</totfact>
</mgrwt>
</event>
<event>
 4    1  0.2721071E+004  0.2826149E+02  0.7546771E-02  0.1618141E+00
         21   -1    0    0  501  502  0.00000000000E+00  0.00000000000E+00  0.10190204979E+03  0.10190204979E+03  0.00000000000E+00 0. -1.
         21   -1    0    0  502  503 -0.00000000000E+00 -0.00000000000E+00 -0.11527669427E+02  0.11527669427E+02  0.00000000000E+00 0.  1.
          2    1    1    2  501    0  0.17990941171E+02  0.21795366127E+02  0.77273347343E+02  0.82279293619E+02  0.00000000000E+00 0. -1.
         -2    1    1    2    0  503 -0.17990941171E+02 -0.21795366127E+02  0.13101033024E+02  0.31150425601E+02  0.00000000000E+00 0.  1.
<mgrwt>
<rscale>  2 0.28261492E+02</rscale>
<asrwt>0</asrwt>
<pdfrwt beam="1">  1       21 0.15677238E-01 0.28261492E+02</pdfrwt>
<pdfrwt beam="2">  1       21 0.17734877E-02 0.28261492E+02</pdfrwt>
<totfact> 0.41292168E+07</totfact>
</mgrwt>
</event>
<event>
 4    1  0.2721071E+004  0.2390105E+02  0.7546771E-02  0.1677307E+00
         21   -1    0    0  501  502  0.00000000000E+00  0.00000000000E+00  0.22313997580E+03  0.22313997580E+03  0.00000000000E+00 0.  1.
         21   -1    0    0  502  503 -0.00000000000E+00 -0.00000000000E+00 -0.12524625075E+02  0.12524625075E+02  0.00000000000E+00 0. -1.
          2    1    1    2  501    0 -0.14640534306E+02 -0.18892192467E+02  0.21040951982E+03  0.21176266482E+03  0.00000000000E+00 0.  1.
         -2    1    1    2    0  503  0.14640534306E+02  0.18892192467E+02  0.20583090830E+00  0.23901936058E+02  0.00000000000E+00 0. -1.
<mgrwt>
<rscale>  2 0.23901050E+02</rscale>
<asrwt>0</asrwt>
<pdfrwt beam="1">  1       21 0.34329224E-01 0.23901050E+02</pdfrwt>
<pdfrwt beam="2">  1       21 0.19268656E-02 0.23901050E+02</pdfrwt>
<totfact> 0.87045077E+06</totfact>
</mgrwt>
</event>
<event>
 4    1  0.2721071E+004  0.2745641E+02  0.7546771E-02  0.1628036E+00
         21   -1    0    0  501  502  0.00000000000E+00  0.00000000000E+00  0.83058525627E+02  0.83058525627E+02  0.00000000000E+00 0.  1.
         21   -1    0    0  502  503 -0.00000000000E+00 -0.00000000000E+00 -0.26882091221E+02  0.26882091221E+02  0.00000000000E+00 0. -1.
          2    1    1    2  501    0  0.16473180901E+02  0.21965627541E+02  0.72826436956E+02  0.77830228074E+02  0.00000000000E+00 0.  1.
         -2    1    1    2    0  503 -0.16473180901E+02 -0.21965627541E+02 -0.16650002550E+02  0.32110388774E+02  0.00000000000E+00 0. -1.
<mgrwt>
<rscale>  2 0.27456411E+02</rscale>
<asrwt>0</asrwt>
<pdfrwt beam="1">  1       21 0.12778235E-01 0.27456411E+02</pdfrwt>
<pdfrwt beam="2">  1       21 0.41357064E-02 0.27456411E+02</pdfrwt>
<totfact> 0.15499307E+07</totfact>
</mgrwt>
</event>
<event>
 4    1  0.2721071E+004  0.2400526E+02  0.7546771E-02  0.1675715E+00
         21   -1    0    0  503  502  0.00000000000E+00  0.00000000000E+00  0.48025998963E+02  0.48025998963E+02  0.00000000000E+00 0. -1.
         21   -1    0    0  501  503 -0.00000000000E+00 -0.00000000000E+00 -0.27544035134E+02  0.27544035134E+02  0.00000000000E+00 0.  1.
          2    1    1    2  501    0  0.20611710512E+02  0.12304877692E+02 -0.18145069948E+02  0.30091463718E+02  0.00000000000E+00 0.  1.
         -2    1    1    2    0  502 -0.20611710512E+02 -0.12304877692E+02  0.38627033777E+02  0.45478570379E+02  0.00000000000E+00 0. -1.
<mgrwt>
<rscale>  2 0.24005262E+02</rscale>
<asrwt>0</asrwt>
<pdfrwt beam="1">  1       21 0.73886152E-02 0.24005262E+02</pdfrwt>
<pdfrwt beam="2">  1       21 0.42375439E-02 0.24005262E+02</pdfrwt>
<totfact> 0.35972392E+07</totfact>
</mgrwt>
</event>
<event>
 4    1  0.2721071E+004  0.2575873E+02  0.7546771E-02  0.1650337E+00
         21   -1    0    0  503  502  0.00000000000E+00  0.00000000000E+00  0.20039194435E+04  0.20039194435E+04  0.00000000000E+00 0. -1.
         21   -1    0    0  501  503 -0.00000000000E+00 -0.00000000000E+00 -0.16400578115E+01  0.16400578115E+01  0.00000000000E+00 0.  1.
          2    1    1    2  501    0  0.13306676971E+02 -0.22055485954E+02  0.10528492211E+03  0.10839016070E+03  0.00000000000E+00 0.  1.
         -2    1    1    2    0  502 -0.13306676971E+02  0.22055485954E+02  0.18969944636E+04  0.18971693406E+04  0.00000000000E+00 0. -1.
<mgrwt>
<rscale>  2 0.25758729E+02</rscale>
<asrwt>0</asrwt>
<pdfrwt beam="1">  1       21 0.30829334E+00 0.25758729E+02</pdfrwt>
<pdfrwt beam="2">  1       21 0.25231819E-03 0.25758729E+02</pdfrwt>
<totfact> 0.11657371E+06</totfact>
</mgrwt>
</event>
<event>
 4    1  0.2721071E+004  0.3250079E+02  0.7546771E-02  0.1571984E+00
         21   -1    0    0  501  502  0.00000000000E+00  0.00000000000E+00  0.55299503139E+02  0.55299503139E+02  0.00000000000E+00 0.  1.
         21   -1    0    0  502  503 -0.00000000000E+00 -0.00000000000E+00 -0.22451874269E+02  0.22451874269E+02  0.00000000000E+00 0. -1.
          2    1    1    2  501    0  0.32164690821E+02  0.46619862790E+01  0.31441424041E+02  0.45220179095E+02  0.00000000000E+00 0. -1.
         -2    1    1    2    0  503 -0.32164690821E+02 -0.46619862790E+01  0.14062048293E+01  0.32531198313E+02  0.00000000000E+00 0.  1.
<mgrwt>
<rscale>  2 0.32500792E+02</rscale>
<asrwt>0</asrwt>
<pdfrwt beam="1">  1       21 0.85076158E-02 0.32500792E+02</pdfrwt>
<pdfrwt beam="2">  1       21 0.34541345E-02 0.32500792E+02</pdfrwt>
<totfact> 0.42178387E+07</totfact>
</mgrwt>
</event>
<event>
 4    1  0.2721071E+004  0.2371800E+02  0.7546771E-02  0.1680129E+00
         21   -1    0    0  503  502  0.00000000000E+00  0.00000000000E+00  0.24939151645E+01  0.24939151645E+01  0.00000000000E+00 0.  1.
         21   -1    0    0  501  503 -0.00000000000E+00 -0.00000000000E+00 -0.60882245498E+03  0.60882245498E+03  0.00000000000E+00 0. -1.
          2    1    1    2  501    0 -0.18654681976E+02 -0.14647403243E+02 -0.54567735987E+03  0.54619257104E+03  0.00000000000E+00 0.  1.
         -2    1    1    2    0  502  0.18654681976E+02  0.14647403243E+02 -0.60651179940E+02  0.65123799102E+02  0.00000000000E+00 0. -1.
<mgrwt>
<rscale>  2 0.23718001E+02</rscale>
<asrwt>0</asrwt>
<pdfrwt beam="1">  1       21 0.38367970E-03 0.23718001E+02</pdfrwt>
<pdfrwt beam="2">  1       21 0.93664884E-01 0.23718001E+02</pdfrwt>
<totfact> 0.13222911E+07</totfact>
</mgrwt>
</event>
<event>
 4    1  0.2721071E+004  0.2236155E+02  0.7546771E-02  0.1702073E+00
         21   -1    0    0  503  502  0.00000000000E+00  0.00000000000E+00  0.25723232728E+03  0.25723232728E+03  0.00000000000E+00 0.  1.
         21   -1    0    0  501  503 -0.00000000000E+00 -0.00000000000E+00 -0.28131325498E+01  0.28131325498E+01  0.00000000000E+00 0. -1.
          2    1    1    2  501    0  0.19126527868E+02  0.11585106937E+02  0.54934703537E+02  0.59311553881E+02  0.00000000000E+00 0. -1.
         -2    1    1    2    0  502 -0.19126527868E+02 -0.11585106937E+02  0.19948449120E+03  0.20073390595E+03  0.00000000000E+00 0.  1.
<mgrwt>
<rscale>  2 0.22361547E+02</rscale>
<asrwt>0</asrwt>
<pdfrwt beam="1">  1       21 0.39574186E-01 0.22361547E+02</pdfrwt>
<pdfrwt beam="2">  1       21 0.43278983E-03 0.22361547E+02</pdfrwt>
<totfact> 0.61780916E+07</totfact>
</mgrwt>
</event>
<event>
 4    1  0.2721071E+004  0.2817173E+02  0.7546771E-02  0.1619224E+00
         21   -1    0    0  503  502  0.00000000000E+00  0.00000000000E+00  0.59050080999E+01  0.59050080999E+01  0.00000000000E+00 0.  1.
         21   -1    0    0  501  503 -0.00000000000E+00 -0.00000000000E+00 -0.20845471596E+03  0.20845471596E+03  0.00000000000E+00 0. -1.
          2    1    1    2  501    0  0.24127033882E+02  0.14544167480E+02 -0.16515663207E+03  0.16754211318E+03  0.00000000000E+00 0. -1.
         -2    1    1    2    0  502 -0.24127033882E+02 -0.14544167480E+02 -0.37393075791E+02  0.46817610883E+02  0.00000000000E+00 0.  1.
<mgrwt>
<rscale>  2 0.28171734E+02</rscale>
<asrwt>0</asrwt>
<pdfrwt beam="1">  1       21 0.90846271E-03 0.28171734E+02</pdfrwt>
<pdfrwt beam="2">  1       21 0.32069959E-01 0.28171734E+02</pdfrwt>
<totfact> 0.31952627E+07</totfact>
</mgrwt>
</event>
<event>
 4    1  0.2721071E+004  0.3491041E+02  0.7546771E-02  0.1549398E+00
         21   -1    0    0  501  502  0.00000000000E+00  0.00000000000E+00  0.42388770645E+03  0.42388770645E+03  0.00000000000E+00 0.  1.
         21   -1    0    0  502  503 -0.00000000000E+00 -0.00000000000E+00 -0.91347336334E+01  0.91347336334E+01  0.00000000000E+00 0. -1.
          2    1    1    2  501    0 -0.34365250645E+02 -0.61454169073E+01  0.38660434883E+03  0.38817735526E+03  0.00000000000E+00 0.  1.
         -2    1    1    2    0  503  0.34365250645E+02  0.61454169073E+01  0.28148623992E+02  0.44845084831E+02  0.00000000000E+00 0. -1.
<mgrwt>
<rscale>  2 0.34910408E+02</rscale>
<asrwt>0</asrwt>
<pdfrwt beam="1">  1       21 0.65213478E-01 0.34910408E+02</pdfrwt>
<pdfrwt beam="2">  1       21 0.14053440E-02 0.34910408E+02</pdfrwt>
<totfact> 0.42649068E+06</totfact>
</mgrwt>
</event>
<event>
 4    1  0.2721071E+004  0.2546560E+02  0.7546771E-02  0.1654403E+00
         21   -1    0    0  503  502  0.00000000000E+00  0.00000000000E+00  0.28074705645E+03  0.28074705645E+03  0.00000000000E+00 0. -1.
         21   -1    0    0  501  503 -0.00000000000E+00 -0.00000000000E+00 -0.30285602317E+01  0.30285602317E+01  0.00000000000E+00 0.  1.
          2    1    1    2  501    0 -0.21043611866E+02 -0.14340958202E+02  0.69741465900E+02  0.74245328125E+02  0.00000000000E+00 0.  1.
         -2    1    1    2    0  502  0.21043611866E+02  0.14340958202E+02  0.20797703032E+03  0.20953028856E+03  0.00000000000E+00 0. -1.
<mgrwt>
<rscale>  2 0.25465598E+02</rscale>
<asrwt>0</asrwt>
<pdfrwt beam="1">  1       21 0.43191834E-01 0.25465598E+02</pdfrwt>
<pdfrwt beam="2">  1       21 0.46593256E-03 0.25465598E+02</pdfrwt>
<totfact> 0.48416995E+07</totfact>
</mgrwt>
</event>
<event>
 4    1  0.2721071E+004  0.2183467E+02  0.7546771E-02  0.1711127E+00
         21   -1    0    0  503  502  0.00000000000E+00  0.00000000000E+00  0.37860980439E+02  0.37860980439E+02  0.00000000000E+00 0. -1.
         21   -1    0    0  501  503 -0.00000000000E+00 -0.00000000000E+00 -0.17558918968E+02  0.17558918968E+02  0.00000000000E+00 0.  1.
          2    1    1    2  501    0 -0.59399025079E+01 -0.21011196352E+02 -0.45864042519E+01  0.22311161286E+02  0.00000000000E+00 0.  1.
         -2    1    1    2    0  502  0.59399025079E+01  0.21011196352E+02  0.24888465722E+02  0.33108738121E+02  0.00000000000E+00 0. -1.
<mgrwt>
<rscale>  2 0.21834670E+02</rscale>
<asrwt>0</asrwt>
<pdfrwt beam="1">  1       21 0.58247662E-02 0.21834670E+02</pdfrwt>
<pdfrwt beam="2">  1       21 0.27013722E-02 0.21834670E+02</pdfrwt>
<totfact> 0.10410968E+08</totfact>
</mgrwt>
</event>
<event>
 4    1  0.2721071E+004  0.2186306E+02  0.7546771E-02  0.1710631E+00
         21   -1    0    0  501  502  0.00000000000E+00  0.00000000000E+00  0.29609860422E+02  0.29609860422E+02  0.00000000000E+00 0. -1.
         21   -1    0    0  502  503 -0.00000000000E+00 -0.00000000000E+00 -0.16520234075E+02  0.16520234075E+02  0.00000000000E+00 0.  1.
          2    1    1    2  501    0  0.19839354991E+02  0.91865800048E+01  0.10030005801E+02  0.24053986676E+02  0.00000000000E+00 0. -1.
         -2    1    1    2    0  503 -0.19839354991E+02 -0.91865800048E+01  0.30596205458E+01  0.22076107821E+02  0.00000000000E+00 0.  1.
<mgrwt>
<rscale>  2 0.21863057E+02</rscale>
<asrwt>0</asrwt>
<pdfrwt beam="1">  1       21 0.45553631E-02 0.21863057E+02</pdfrwt>
<pdfrwt beam="2">  1       21 0.25415745E-02 0.21863057E+02</pdfrwt>
<totfact> 0.16921933E+08</totfact>
</mgrwt>
</event>
<event>
 4    1  0.2721071E+004  0.2111280E+02  0.7546771E-02  0.1724063E+00
         21   -1    0    0  503  502  0.00000000000E+00  0.00000000000E+00  0.80458821531E+02  0.80458821531E+02  0.00000000000E+00 0.  1.
         21   -1    0    0  501  503 -0.00000000000E+00 -0.00000000000E+00 -0.62042197512E+01  0.62042197512E+01  0.00000000000E+00 0. -1.
          2    1    1    2  501    0  0.15589235214E+02  0.14238197679E+02  0.22950407897E+02  0.31184479318E+02  0.00000000000E+00 0. -1.
         -2    1    1    2    0  502 -0.15589235214E+02 -0.14238197679E+02  0.51304193883E+02  0.55478561964E+02  0.00000000000E+00 0.  1.
<mgrwt>
<rscale>  2 0.21112805E+02</rscale>
<asrwt>0</asrwt>
<pdfrwt beam="1">  1       21 0.12378279E-01 0.21112805E+02</pdfrwt>
<pdfrwt beam="2">  1       21 0.95449540E-03 0.21112805E+02</pdfrwt>
<totfact> 0.14623455E+08</totfact>
</mgrwt>
</event>
<event>
 4    1  0.2721071E+004  0.2908004E+02  0.7546771E-02  0.1608486E+00
         21   -1    0    0  501  502  0.00000000000E+00  0.00000000000E+00  0.88605613289E+03  0.88605613289E+03  0.00000000000E+00 0.  1.
         21   -1    0    0  502  503 -0.00000000000E+00 -0.00000000000E+00 -0.11056403059E+01  0.11056403059E+01  0.00000000000E+00 0. -1.
          2    1    1    2  501    0  0.53160774737E+01  0.28590000760E+02  0.60653602601E+03  0.60723273929E+03  0.00000000000E+00 0.  1.
         -2    1    1    2    0  503 -0.53160774737E+01 -0.28590000760E+02  0.27841446658E+03  0.27992903391E+03  0.00000000000E+00 0. -1.
<mgrwt>
<rscale>  2 0.29080042E+02</rscale>
<asrwt>0</asrwt>
<pdfrwt beam="1">  1       21 0.13631576E+00 0.29080042E+02</pdfrwt>
<pdfrwt beam="2">  1       21 0.17009922E-03 0.29080042E+02</pdfrwt>
<totfact> 0.19195893E+07</totfact>
</mgrwt>
</event>
<event>
 4    1  0.2721071E+004  0.3352582E+02  0.7546771E-02  0.1562095E+00
         21   -1    0    0  503  502  0.00000000000E+00  0.00000000000E+00  0.38259486876E+02  0.38259486876E+02  0.00000000000E+00 0.  1.
         21   -1    0    0  501  503 -0.00000000000E+00 -0.00000000000E+00 -0.43514235652E+02  0.43514235652E+02  0.00000000000E+00 0. -1.
          2    1    1    2  501    0 -0.32652365023E+02  0.76028851327E+01 -0.25931754280E+02  0.42384391986E+02  0.00000000000E+00 0. -1.
         -2    1    1    2    0  502  0.32652365023E+02 -0.76028851327E+01  0.20677005504E+02  0.39389330542E+02  0.00000000000E+00 0.  1.
<mgrwt>
<rscale>  2 0.33525823E+02</rscale>
<asrwt>0</asrwt>
<pdfrwt beam="1">  1       21 0.58860749E-02 0.33525823E+02</pdfrwt>
<pdfrwt beam="2">  1       21 0.66944977E-02 0.33525823E+02</pdfrwt>
<totfact> 0.26769294E+07</totfact>
</mgrwt>
</event>
<event>
 4    1  0.2721071E+004  0.2660892E+02  0.7546771E-02  0.1638913E+00
         21   -1    0    0  503  502  0.00000000000E+00  0.00000000000E+00  0.14821603840E+01  0.14821603840E+01  0.00000000000E+00 0.  1.
         21   -1    0    0  501  503 -0.00000000000E+00 -0.00000000000E+00 -0.95425551505E+03  0.95425551505E+03  0.00000000000E+00 0. -1.
          2    1    1    2  501    0  0.12375593498E+02  0.23555875162E+02 -0.81408671303E+03  0.81452146129E+03  0.00000000000E+00 0. -1.
         -2    1    1    2    0  502 -0.12375593498E+02 -0.23555875162E+02 -0.13868664164E+03  0.14121621414E+03  0.00000000000E+00 0.  1.
<mgrwt>
<rscale>  2 0.26608919E+02</rscale>
<asrwt>0</asrwt>
<pdfrwt beam="1">  1       21 0.22802466E-03 0.26608919E+02</pdfrwt>
<pdfrwt beam="2">  1       21 0.14680855E+00 0.26608919E+02</pdfrwt>
<totfact> 0.10391499E+07</totfact>
</mgrwt>
</event>
<event>
 4    1  0.2721071E+004  0.2148953E+02  0.7546771E-02  0.1717233E+00
         21   -1    0    0  503  502  0.00000000000E+00  0.00000000000E+00  0.98331180927E+01  0.98331180927E+01  0.00000000000E+00 0.  1.
         21   -1    0    0  501  503 -0.00000000000E+00 -0.00000000000E+00 -0.46972463024E+02  0.46972463024E+02  0.00000000000E+00 0. -1.
          2    1    1    2  501    0  0.21489452192E+02  0.57455009061E-01 -0.18957054401E+02  0.28656059886E+02  0.00000000000E+00 0. -1.
         -2    1    1    2    0  502 -0.21489452192E+02 -0.57455009061E-01 -0.18182290530E+02  0.28149521231E+02  0.00000000000E+00 0.  1.
<mgrwt>
<rscale>  2 0.21489529E+02</rscale>
<asrwt>0</asrwt>
<pdfrwt beam="1">  1       21 0.15127874E-02 0.21489529E+02</pdfrwt>
<pdfrwt beam="2">  1       21 0.72265326E-02 0.21489529E+02</pdfrwt>
<totfact> 0.17799372E+08</totfact>
</mgrwt>
</event>
<event>
 4    1  0.2721071E+004  0.2158470E+02  0.7546771E-02  0.1715535E+00
         21   -1    0    0  503  502  0.00000000000E+00  0.00000000000E+00  0.51509005738E+02  0.51509005738E+02  0.00000000000E+00 0.  1.
         21   -1    0    0  501  503 -0.00000000000E+00 -0.00000000000E+00 -0.90476603316E+01  0.90476603316E+01  0.00000000000E+00 0. -1.
          2    1    1    2  501    0 -0.16927132537E+02  0.13392955729E+02  0.20711707778E+02  0.29914443303E+02  0.00000000000E+00 0.  1.
         -2    1    1    2    0  502  0.16927132537E+02 -0.13392955729E+02  0.21749637628E+02  0.30642222766E+02  0.00000000000E+00 0. -1.
<mgrwt>
<rscale>  2 0.21584695E+02</rscale>
<asrwt>0</asrwt>
<pdfrwt beam="1">  1       21 0.79244622E-02 0.21584695E+02</pdfrwt>
<pdfrwt beam="2">  1       21 0.13919478E-02 0.21584695E+02</pdfrwt>
<totfact> 0.17411118E+08</totfact>
</mgrwt>
</event>
<event>
 4    1  0.2721071E+004  0.2850766E+02  0.7546771E-02  0.1615196E+00
         21   -1    0    0  501  502  0.00000000000E+00  0.00000000000E+00  0.58239216696E+02  0.58239216696E+02  0.00000000000E+00 0.  1.
         21   -1    0    0  502  503 -0.00000000000E+00 -0.00000000000E+00 -0.21739400785E+02  0.21739400785E+02  0.00000000000E+00 0. -1.
          2    1    1    2  501    0  0.22400136418E+02  0.17632937061E+02  0.42180457552E+02  0.50910485956E+02  0.00000000000E+00 0.  1.
         -2    1    1    2    0  503 -0.22400136418E+02 -0.17632937061E+02 -0.56806416407E+01  0.29068131526E+02  0.00000000000E+00 0. -1.
<mgrwt>
<rscale>  2 0.28507658E+02</rscale>
<asrwt>0</asrwt>
<pdfrwt beam="1">  1       21 0.89598795E-02 0.28507658E+02</pdfrwt>
<pdfrwt beam="2">  1       21 0.33445232E-02 0.28507658E+02</pdfrwt>
<totfact> 0.39615767E+07</totfact>
</mgrwt>
</event>
<event>
 4    1  0.2721071E+004  0.2282976E+02  0.7546771E-02  0.1694285E+00
         21   -1    0    0  501  502  0.00000000000E+00  0.00000000000E+00  0.59566748517E+01  0.59566748517E+01  0.00000000000E+00 0.  1.
         21   -1    0    0  502  503 -0.00000000000E+00 -0.00000000000E+00 -0.16096496213E+03  0.16096496213E+03  0.00000000000E+00 0. -1.
          2    1    1    2  501    0 -0.54409106664E+01  0.22171929656E+02 -0.21119272904E+02  0.31100187484E+02  0.00000000000E+00 0.  1.
         -2    1    1    2    0  503  0.54409106664E+01 -0.22171929656E+02 -0.13388901437E+03  0.13582144950E+03  0.00000000000E+00 0. -1.
<mgrwt>
<rscale>  2 0.22829761E+02</rscale>
<asrwt>0</asrwt>
<pdfrwt beam="1">  1       21 0.91641139E-03 0.22829761E+02</pdfrwt>
<pdfrwt beam="2">  1       21 0.24763844E-01 0.22829761E+02</pdfrwt>
<totfact> 0.48091183E+07</totfact>
</mgrwt>
</event>
<event>
 4    1  0.2721071E+004  0.3031792E+02  0.7546771E-02  0.1594601E+00
         21   -1    0    0  503  502  0.00000000000E+00  0.00000000000E+00  0.11018465309E+02  0.11018465309E+02  0.00000000000E+00 0.  1.
         21   -1    0    0  501  503 -0.00000000000E+00 -0.00000000000E+00 -0.13353411392E+03  0.13353411392E+03  0.00000000000E+00 0. -1.
          2    1    1    2  501    0 -0.28900163228E+02  0.91627990552E+01 -0.10553434563E+03  0.10980288898E+03  0.00000000000E+00 0. -1.
         -2    1    1    2    0  502  0.28900163228E+02 -0.91627990552E+01 -0.16981302976E+02  0.34749690242E+02  0.00000000000E+00 0.  1.
<mgrwt>
<rscale>  2 0.30317921E+02</rscale>
<asrwt>0</asrwt>
<pdfrwt beam="1">  1       21 0.16951485E-02 0.30317921E+02</pdfrwt>
<pdfrwt beam="2">  1       21 0.20543710E-01 0.30317921E+02</pdfrwt>
<totfact> 0.28020594E+07</totfact>
</mgrwt>
</event>
<event>
 4    1  0.2721071E+004  0.2454536E+02  0.7546771E-02  0.1667619E+00
         21   -1    0    0  503  502  0.00000000000E+00  0.00000000000E+00  0.26747950434E+02  0.26747950434E+02  0.00000000000E+00 0. -1.
         21   -1    0    0  501  503 -0.00000000000E+00 -0.00000000000E+00 -0.28023337011E+02  0.28023337011E+02  0.00000000000E+00 0.  1.
          2    1    1    2  501    0  0.19803023561E+02  0.14502235744E+02 -0.12769141911E+02  0.27668132732E+02  0.00000000000E+00 0.  1.
         -2    1    1    2    0  502 -0.19803023561E+02 -0.14502235744E+02  0.11493755334E+02  0.27103154713E+02  0.00000000000E+00 0. -1.
<mgrwt>
<rscale>  2 0.24545358E+02</rscale>
<asrwt>0</asrwt>
<pdfrwt beam="1">  1       21 0.41150693E-02 0.24545358E+02</pdfrwt>
<pdfrwt beam="2">  1       21 0.43112826E-02 0.24545358E+02</pdfrwt>
<totfact> 0.89990088E+07</totfact>
</mgrwt>
</event>
<event>
 4    1  0.2721071E+004  0.3709832E+02  0.7546771E-02  0.1530719E+00
         21   -1    0    0  501  502  0.00000000000E+00  0.00000000000E+00  0.59135832440E+02  0.59135832440E+02  0.00000000000E+00 0.  1.
         21   -1    0    0  502  503 -0.00000000000E+00 -0.00000000000E+00 -0.23556067416E+02  0.23556067416E+02  0.00000000000E+00 0. -1.
          2    1    1    2  501    0 -0.27698875537E+02  0.24679086910E+02  0.22319988563E+02  0.43295114346E+02  0.00000000000E+00 0.  1.
         -2    1    1    2    0  503  0.27698875537E+02 -0.24679086910E+02  0.13259776460E+02  0.39396785510E+02  0.00000000000E+00 0. -1.
<mgrwt>
<rscale>  2 0.37098316E+02</rscale>
<asrwt>0</asrwt>
<pdfrwt beam="1">  1       21 0.90978204E-02 0.37098316E+02</pdfrwt>
<pdfrwt beam="2">  1       21 0.36240104E-02 0.37098316E+02</pdfrwt>
<totfact> 0.35867887E+07</totfact>
</mgrwt>
</event>
<event>
 4    1  0.2721071E+004  0.2172158E+02  0.7546771E-02  0.1713112E+00
         21   -1    0    0  501  502  0.00000000000E+00  0.00000000000E+00  0.91309328298E+01  0.91309328298E+01  0.00000000000E+00 0.  1.
         21   -1    0    0  502  503 -0.00000000000E+00 -0.00000000000E+00 -0.12368874697E+03  0.12368874697E+03  0.00000000000E+00 0. -1.
          2    1    1    2  501    0 -0.36404846557E+01  0.21414342571E+02 -0.66055606389E+01  0.22703758007E+02  0.00000000000E+00 0.  1.
         -2    1    1    2    0  503  0.36404846557E+01 -0.21414342571E+02 -0.10795225350E+03  0.11011592180E+03  0.00000000000E+00 0. -1.
<mgrwt>
<rscale>  2 0.21721584E+02</rscale>
<asrwt>0</asrwt>
<pdfrwt beam="1">  1       21 0.14047590E-02 0.21721584E+02</pdfrwt>
<pdfrwt beam="2">  1       21 0.19029036E-01 0.21721584E+02</pdfrwt>
<totfact> 0.39653887E+07</totfact>
</mgrwt>
</event>
<event>
 4    1  0.2721071E+004  0.2451241E+02  0.7546771E-02  0.1668106E+00
         21   -1    0    0  501  502  0.00000000000E+00  0.00000000000E+00  0.53586658685E+01  0.53586658685E+01  0.00000000000E+00 0. -1.
         21   -1    0    0  502  503 -0.00000000000E+00 -0.00000000000E+00 -0.11954570264E+03  0.11954570264E+03  0.00000000000E+00 0.  1.
          2    1    1    2  501    0 -0.24056304735E+02 -0.47066572392E+01 -0.41537272630E+02  0.48230731255E+02  0.00000000000E+00 0. -1.
         -2    1    1    2    0  503  0.24056304735E+02  0.47066572392E+01 -0.72649764140E+02  0.76673637252E+02  0.00000000000E+00 0.  1.
<mgrwt>
<rscale>  2 0.24512414E+02</rscale>
<asrwt>0</asrwt>
<pdfrwt beam="1">  1       21 0.82441016E-03 0.24512414E+02</pdfrwt>
<pdfrwt beam="2">  1       21 0.18391646E-01 0.24512414E+02</pdfrwt>
<totfact> 0.96829091E+07</totfact>
</mgrwt>
</event>
<event>
 4    1  0.2721071E+004  0.2274477E+02  0.7546771E-02  0.1695681E+00
         21   -1    0    0  503  502  0.00000000000E+00  0.00000000000E+00  0.60939664594E+02  0.60939664594E+02  0.00000000000E+00 0.  1.
         21   -1    0    0  501  503 -0.00000000000E+00 -0.00000000000E+00 -0.96506896644E+01  0.96506896644E+01  0.00000000000E+00 0. -1.
          2    1    1    2  501    0  0.11448119263E+02 -0.19653625784E+02  0.13399513867E+02  0.26398322162E+02  0.00000000000E+00 0. -1.
         -2    1    1    2    0  502 -0.11448119263E+02  0.19653625784E+02  0.37889461063E+02  0.44192032096E+02  0.00000000000E+00 0.  1.
<mgrwt>
<rscale>  2 0.22744767E+02</rscale>
<asrwt>0</asrwt>
<pdfrwt beam="1">  1       21 0.93753328E-02 0.22744767E+02</pdfrwt>
<pdfrwt beam="2">  1       21 0.14847215E-02 0.22744767E+02</pdfrwt>
<totfact> 0.12182425E+08</totfact>
</mgrwt>
</event>
<event>
 4    1  0.2721071E+004  0.2486919E+02  0.7546771E-02  0.1662888E+00
         21   -1    0    0  503  502  0.00000000000E+00  0.00000000000E+00  0.46989168645E+02  0.46989168645E+02  0.00000000000E+00 0. -1.
         21   -1    0    0  501  503 -0.00000000000E+00 -0.00000000000E+00 -0.40712716414E+02  0.40712716414E+02  0.00000000000E+00 0.  1.
          2    1    1    2  501    0 -0.24820377715E+02 -0.15573465626E+01 -0.32934544089E+02  0.41269367243E+02  0.00000000000E+00 0.  1.
         -2    1    1    2    0  502  0.24820377715E+02  0.15573465626E+01  0.39210996321E+02  0.46432517816E+02  0.00000000000E+00 0. -1.
<mgrwt>
<rscale>  2 0.24869187E+02</rscale>
<asrwt>0</asrwt>
<pdfrwt beam="1">  1       21 0.72291029E-02 0.24869187E+02</pdfrwt>
<pdfrwt beam="2">  1       21 0.62634948E-02 0.24869187E+02</pdfrwt>
<totfact> 0.20119526E+07</totfact>
</mgrwt>
</event>
<event>
 4    1  0.2721071E+004  0.2124657E+02  0.7546771E-02  0.1721618E+00
         21   -1    0    0  501  502  0.00000000000E+00  0.00000000000E+00  0.53940464973E+01  0.53940464973E+01  0.00000000000E+00 0.  1.
         21   -1    0    0  502  503 -0.00000000000E+00 -0.00000000000E+00 -0.11204849159E+03  0.11204849159E+03  0.00000000000E+00 0. -1.
          2    1    1    2  501    0 -0.20031530574E+02 -0.70819736190E+01 -0.23784544299E+02  0.31892336304E+02  0.00000000000E+00 0.  1.
         -2    1    1    2    0  503  0.20031530574E+02  0.70819736190E+01 -0.82869900792E+02  0.85550201781E+02  0.00000000000E+00 0. -1.
<mgrwt>
<rscale>  2 0.21246566E+02</rscale>
<asrwt>0</asrwt>
<pdfrwt beam="1">  1       21 0.82985345E-03 0.21246566E+02</pdfrwt>
<pdfrwt beam="2">  1       21 0.17238227E-01 0.21246566E+02</pdfrwt>
<totfact> 0.10303970E+08</totfact>
</mgrwt>
</event>
<event>
 4    1  0.2721071E+004  0.2232281E+02  0.7546771E-02  0.1702728E+00
         21   -1    0    0  503  502  0.00000000000E+00  0.00000000000E+00  0.46101257187E+02  0.46101257187E+02  0.00000000000E+00 0.  1.
         21   -1    0    0  501  503 -0.00000000000E+00 -0.00000000000E+00 -0.11861091127E+02  0.11861091127E+02  0.00000000000E+00 0. -1.
          2    1    1    2  501    0 -0.44377840846E+01 -0.21877247887E+02  0.84886489305E+01  0.23882316959E+02  0.00000000000E+00 0. -1.
         -2    1    1    2    0  502  0.44377840846E+01  0.21877247887E+02  0.25751517129E+02  0.34080031355E+02  0.00000000000E+00 0.  1.
<mgrwt>
<rscale>  2 0.22322811E+02</rscale>
<asrwt>0</asrwt>
<pdfrwt beam="1">  1       21 0.70925010E-02 0.22322811E+02</pdfrwt>
<pdfrwt beam="2">  1       21 0.18247833E-02 0.22322811E+02</pdfrwt>
<totfact> 0.13953319E+08</totfact>
</mgrwt>
</event>
<event>
 4    1  0.2721071E+004  0.2422132E+02  0.7546771E-02  0.1672445E+00
         21   -1    0    0  501  502  0.00000000000E+00  0.00000000000E+00  0.11679716442E+04  0.11679716442E+04  0.00000000000E+00 0. -1.
         21   -1    0    0  502  503 -0.00000000000E+00 -0.00000000000E+00 -0.11969478962E+01  0.11969478962E+01  0.00000000000E+00 0.  1.
          2    1    1    2  501    0  0.23771752779E+02  0.46450341794E+01  0.10287274179E+04  0.10290125232E+04  0.00000000000E+00 0. -1.
         -2    1    1    2    0  503 -0.23771752779E+02 -0.46450341794E+01  0.13804727847E+03  0.14015606896E+03  0.00000000000E+00 0.  1.
<mgrwt>
<rscale>  2 0.24221325E+02</rscale>
<asrwt>0</asrwt>
<pdfrwt beam="1">  1       21 0.17968703E+00 0.24221325E+02</pdfrwt>
<pdfrwt beam="2">  1       21 0.18414676E-03 0.24221325E+02</pdfrwt>
<totfact> 0.85556714E+06</totfact>
</mgrwt>
</event>
<event>
 4    1  0.2721071E+004  0.5578693E+02  0.7546771E-02  0.1416414E+00
         21   -1    0    0  503  502  0.00000000000E+00  0.00000000000E+00  0.13803940092E+02  0.13803940092E+02  0.00000000000E+00 0. -1.
         21   -1    0    0  501  503 -0.00000000000E+00 -0.00000000000E+00 -0.43302941102E+03  0.43302941102E+03  0.00000000000E+00 0.  1.
          2    1    1    2  501    0 -0.55646195730E+02 -0.39601667263E+01 -0.36429576905E+03  0.36854252044E+03  0.00000000000E+00 0.  1.
         -2    1    1    2    0  502  0.55646195730E+02  0.39601667263E+01 -0.54929701876E+02  0.78290830676E+02  0.00000000000E+00 0. -1.
<mgrwt>
<rscale>  2 0.55786934E+02</rscale>
<asrwt>0</asrwt>
<pdfrwt beam="1">  1       21 0.21236829E-02 0.55786934E+02</pdfrwt>
<pdfrwt beam="2">  1       21 0.66619917E-01 0.55786934E+02</pdfrwt>
<totfact> 0.22233500E+06</totfact>
</mgrwt>
</event>
<event>
 4    1  0.2721071E+004  0.3155185E+02  0.7546771E-02  0.1581542E+00
         21   -1    0    0  501  502  0.00000000000E+00  0.00000000000E+00  0.50815921903E+01  0.50815921903E+01  0.00000000000E+00 0.  1.
         21   -1    0    0  502  503 -0.00000000000E+00 -0.00000000000E+00 -0.32164775836E+03  0.32164775836E+03  0.00000000000E+00 0. -1.
          2    1    1    2  501    0  0.86353520290E+01 -0.30347158350E+02 -0.56140701400E+02  0.64399516134E+02  0.00000000000E+00 0.  1.
         -2    1    1    2    0  503 -0.86353520290E+01  0.30347158350E+02 -0.26042546477E+03  0.26232983442E+03  0.00000000000E+00 0. -1.
<mgrwt>
<rscale>  2 0.31551851E+02</rscale>
<asrwt>0</asrwt>
<pdfrwt beam="1">  1       21 0.78178342E-03 0.31551851E+02</pdfrwt>
<pdfrwt beam="2">  1       21 0.49484270E-01 0.31551851E+02</pdfrwt>
<totfact> 0.17906395E+07</totfact>
</mgrwt>
</event>
<event>
 4    1  0.2721071E+004  0.2590554E+02  0.7546771E-02  0.1648326E+00
         21   -1    0    0  503  502  0.00000000000E+00  0.00000000000E+00  0.13078296578E+02  0.13078296578E+02  0.00000000000E+00 0. -1.
         21   -1    0    0  501  503 -0.00000000000E+00 -0.00000000000E+00 -0.64384754235E+02  0.64384754235E+02  0.00000000000E+00 0.  1.
          2    1    1    2  501    0  0.63820887779E+01 -0.25107088469E+02 -0.43104493829E+02  0.50290101778E+02  0.00000000000E+00 0.  1.
         -2    1    1    2    0  502 -0.63820887779E+01  0.25107088469E+02 -0.82019638278E+01  0.27172949034E+02  0.00000000000E+00 0. -1.
<mgrwt>
<rscale>  2 0.25905539E+02</rscale>
<asrwt>0</asrwt>
<pdfrwt beam="1">  1       21 0.20120457E-02 0.25905539E+02</pdfrwt>
<pdfrwt beam="2">  1       21 0.99053467E-02 0.25905539E+02</pdfrwt>
<totfact> 0.72388408E+07</totfact>
</mgrwt>
</event>
<event>
 4    1  0.2721071E+004  0.3210985E+02  0.7546771E-02  0.1575873E+00
         21   -1    0    0  503  502  0.00000000000E+00  0.00000000000E+00  0.11658194633E+03  0.11658194633E+03  0.00000000000E+00 0. -1.
         21   -1    0    0  501  503 -0.00000000000E+00 -0.00000000000E+00 -0.12464738580E+02  0.12464738580E+02  0.00000000000E+00 0.  1.
          2    1    1    2  501    0 -0.19209817225E+02  0.25729850007E+02  0.17282717071E+02  0.36465525755E+02  0.00000000000E+00 0.  1.
         -2    1    1    2    0  502  0.19209817225E+02 -0.25729850007E+02  0.86834490678E+02  0.92581159155E+02  0.00000000000E+00 0. -1.
<mgrwt>
<rscale>  2 0.32109847E+02</rscale>
<asrwt>0</asrwt>
<pdfrwt beam="1">  1       21 0.17935683E-01 0.32109847E+02</pdfrwt>
<pdfrwt beam="2">  1       21 0.19176522E-02 0.32109847E+02</pdfrwt>
<totfact> 0.29732316E+07</totfact>
</mgrwt>
</event>
<event>
 4    1  0.2721071E+004  0.2312095E+02  0.7546771E-02  0.1689557E+00
         21   -1    0    0  501  502  0.00000000000E+00  0.00000000000E+00  0.55769601765E+02  0.55769601765E+02  0.00000000000E+00 0. -1.
         21   -1    0    0  502  503 -0.00000000000E+00 -0.00000000000E+00 -0.26603365310E+02  0.26603365310E+02  0.00000000000E+00 0.  1.
          2    1    1    2  501    0 -0.11360938526E+02  0.20137219206E+02  0.47524301385E+02  0.52850144216E+02  0.00000000000E+00 0. -1.
         -2    1    1    2    0  503  0.11360938526E+02 -0.20137219206E+02 -0.18358064930E+02  0.29522822859E+02  0.00000000000E+00 0.  1.
<mgrwt>
<rscale>  2 0.23120954E+02</rscale>
<asrwt>0</asrwt>
<pdfrwt beam="1">  1       21 0.85799387E-02 0.23120954E+02</pdfrwt>
<pdfrwt beam="2">  1       21 0.40928254E-02 0.23120954E+02</pdfrwt>
<totfact> 0.29501957E+07</totfact>
</mgrwt>
</event>
<event>
 4    1  0.2721071E+004  0.3031905E+02  0.7546771E-02  0.1594589E+00
         21   -1    0    0  501  502  0.00000000000E+00  0.00000000000E+00  0.11772244352E+03  0.11772244352E+03  0.00000000000E+00 0.  1.
         21   -1    0    0  502  503 -0.00000000000E+00 -0.00000000000E+00 -0.99739038077E+01  0.99739038077E+01  0.00000000000E+00 0. -1.
          2    1    1    2  501    0 -0.15410623307E+02  0.26110483514E+02  0.83623635328E+02  0.88950306607E+02  0.00000000000E+00 0.  1.
         -2    1    1    2    0  503  0.15410623307E+02 -0.26110483514E+02  0.24124904386E+02  0.38746040722E+02  0.00000000000E+00 0. -1.
<mgrwt>
<rscale>  2 0.30319048E+02</rscale>
<asrwt>0</asrwt>
<pdfrwt beam="1">  1       21 0.18111144E-01 0.30319048E+02</pdfrwt>
<pdfrwt beam="2">  1       21 0.15344468E-02 0.30319048E+02</pdfrwt>
<totfact> 0.40766417E+07</totfact>
</mgrwt>
</event>
<event>
 4    1  0.2721071E+004  0.3086333E+02  0.7546771E-02  0.1588737E+00
         21   -1    0    0  503  502  0.00000000000E+00  0.00000000000E+00  0.50421424406E+02  0.50421424406E+02  0.00000000000E+00 0.  1.
         21   -1    0    0  501  503 -0.00000000000E+00 -0.00000000000E+00 -0.38866266445E+02  0.38866266445E+02  0.00000000000E+00 0. -1.
          2    1    1    2  501    0  0.26883750323E+02  0.15159456673E+02 -0.26227148796E+02  0.40501956645E+02  0.00000000000E+00 0. -1.
         -2    1    1    2    0  502 -0.26883750323E+02 -0.15159456673E+02  0.37782306758E+02  0.48785734206E+02  0.00000000000E+00 0.  1.
<mgrwt>
<rscale>  2 0.30863330E+02</rscale>
<asrwt>0</asrwt>
<pdfrwt beam="1">  1       21 0.77571422E-02 0.30863330E+02</pdfrwt>
<pdfrwt beam="2">  1       21 0.59794256E-02 0.30863330E+02</pdfrwt>
<totfact> 0.20168655E+07</totfact>
</mgrwt>
</event>
<event>
 4    1  0.2721071E+004  0.3365699E+02  0.7546771E-02  0.1560861E+00
         21   -1    0    0  501  502  0.00000000000E+00  0.00000000000E+00  0.62848257400E+01  0.62848257400E+01  0.00000000000E+00 0.  1.
         21   -1    0    0  502  503 -0.00000000000E+00 -0.00000000000E+00 -0.19796948623E+03  0.19796948623E+03  0.00000000000E+00 0. -1.
          2    1    1    2  501    0  0.32138768006E+02 -0.99946348482E+01 -0.65281952146E+02  0.73447439783E+02  0.00000000000E+00 0.  1.
         -2    1    1    2    0  503 -0.32138768006E+02  0.99946348482E+01 -0.12640270834E+03  0.13080687219E+03  0.00000000000E+00 0. -1.
<mgrwt>
<rscale>  2 0.33656992E+02</rscale>
<asrwt>0</asrwt>
<pdfrwt beam="1">  1       21 0.96689623E-03 0.33656992E+02</pdfrwt>
<pdfrwt beam="2">  1       21 0.30456845E-01 0.33656992E+02</pdfrwt>
<totfact> 0.33103399E+07</totfact>
</mgrwt>
</event>
<event>
 4    1  0.2721071E+004  0.2308754E+02  0.7546771E-02  0.1690095E+00
         21   -1    0    0  503  502  0.00000000000E+00  0.00000000000E+00  0.10147797252E+02  0.10147797252E+02  0.00000000000E+00 0. -1.
         21   -1    0    0  501  503 -0.00000000000E+00 -0.00000000000E+00 -0.54606402991E+02  0.54606402991E+02  0.00000000000E+00 0.  1.
          2    1    1    2  501    0  0.10079332125E+02  0.20771176070E+02 -0.15911418801E+02  0.28039399774E+02  0.00000000000E+00 0. -1.
         -2    1    1    2    0  502 -0.10079332125E+02 -0.20771176070E+02 -0.28547186937E+02  0.36714800469E+02  0.00000000000E+00 0.  1.
<mgrwt>
<rscale>  2 0.23087544E+02</rscale>
<asrwt>0</asrwt>
<pdfrwt beam="1">  1       21 0.15611996E-02 0.23087544E+02</pdfrwt>
<pdfrwt beam="2">  1       21 0.84009851E-02 0.23087544E+02</pdfrwt>
<totfact> 0.13574187E+08</totfact>
</mgrwt>
</event>
<event>
 4    1  0.2721071E+004  0.2249784E+02  0.7546771E-02  0.1699782E+00
         21   -1    0    0  503  502  0.00000000000E+00  0.00000000000E+00  0.86565031934E+02  0.86565031934E+02  0.00000000000E+00 0. -1.
         21   -1    0    0  501  503 -0.00000000000E+00 -0.00000000000E+00 -0.49827926621E+02  0.49827926621E+02  0.00000000000E+00 0.  1.
          2    1    1    2  501    0 -0.52853152524E+01 -0.21868198513E+02 -0.45701833121E+02  0.50939279678E+02  0.00000000000E+00 0.  1.
         -2    1    1    2    0  502  0.52853152524E+01  0.21868198513E+02  0.82438938433E+02  0.85453678877E+02  0.00000000000E+00 0. -1.
<mgrwt>
<rscale>  2 0.22497837E+02</rscale>
<asrwt>0</asrwt>
<pdfrwt beam="1">  1       21 0.13317697E-01 0.22497837E+02</pdfrwt>
<pdfrwt beam="2">  1       21 0.76658349E-02 0.22497837E+02</pdfrwt>
<totfact> 0.51753930E+06</totfact>
</mgrwt>
</event>
<event>
 4    1  0.2721071E+004  0.2777512E+02  0.7546771E-02  0.1624069E+00
         21   -1    0    0  503  502  0.00000000000E+00  0.00000000000E+00  0.26493521596E+03  0.26493521596E+03  0.00000000000E+00 0.  1.
         21   -1    0    0  501  503 -0.00000000000E+00 -0.00000000000E+00 -0.31642332100E+01  0.31642332100E+01  0.00000000000E+00 0. -1.
          2    1    1    2  501    0 -0.19469301675E+02  0.19809185229E+02  0.93028796712E+02  0.97086634223E+02  0.00000000000E+00 0.  1.
         -2    1    1    2    0  502  0.19469301675E+02 -0.19809185229E+02  0.16874218604E+03  0.17101281495E+03  0.00000000000E+00 0. -1.
<mgrwt>
<rscale>  2 0.27775124E+02</rscale>
<asrwt>0</asrwt>
<pdfrwt beam="1">  1       21 0.40759247E-01 0.27775124E+02</pdfrwt>
<pdfrwt beam="2">  1       21 0.48680532E-03 0.27775124E+02</pdfrwt>
<totfact> 0.51654108E+07</totfact>
</mgrwt>
</event>
<event>
 4    1  0.2721071E+004  0.3359710E+02  0.7546771E-02  0.1561424E+00
         21   -1    0    0  501  502  0.00000000000E+00  0.00000000000E+00  0.10744309220E+02  0.10744309220E+02  0.00000000000E+00 0.  1.
         21   -1    0    0  502  503 -0.00000000000E+00 -0.00000000000E+00 -0.10615764716E+03  0.10615764716E+03  0.00000000000E+00 0. -1.
          2    1    1    2  501    0  0.32019290528E+02 -0.10174980964E+02 -0.41755058324E+02  0.53593377381E+02  0.00000000000E+00 0.  1.
         -2    1    1    2    0  503 -0.32019290528E+02  0.10174980964E+02 -0.53658279616E+02  0.63308578999E+02  0.00000000000E+00 0. -1.
<mgrwt>
<rscale>  2 0.33597101E+02</rscale>
<asrwt>0</asrwt>
<pdfrwt beam="1">  1       21 0.16529706E-02 0.33597101E+02</pdfrwt>
<pdfrwt beam="2">  1       21 0.16331946E-01 0.33597101E+02</pdfrwt>
<totfact> 0.44457391E+07</totfact>
</mgrwt>
</event>
<event>
 4    1  0.2721071E+004  0.2909402E+02  0.7546771E-02  0.1608324E+00
         21   -1    0    0  501  502  0.00000000000E+00  0.00000000000E+00  0.24798448697E+02  0.24798448697E+02  0.00000000000E+00 0.  1.
         21   -1    0    0  502  503 -0.00000000000E+00 -0.00000000000E+00 -0.48466650293E+02  0.48466650293E+02  0.00000000000E+00 0. -1.
          2    1    1    2  501    0 -0.25670833714E+02  0.13691982740E+02  0.80870248963E+01  0.30197053939E+02  0.00000000000E+00 0.  1.
         -2    1    1    2    0  503  0.25670833714E+02 -0.13691982740E+02 -0.31755226493E+02  0.43068045051E+02  0.00000000000E+00 0. -1.
<mgrwt>
<rscale>  2 0.29094022E+02</rscale>
<asrwt>0</asrwt>
<pdfrwt beam="1">  1       21 0.38151460E-02 0.29094022E+02</pdfrwt>
<pdfrwt beam="2">  1       21 0.74564077E-02 0.29094022E+02</pdfrwt>
<totfact> 0.43745892E+07</totfact>
</mgrwt>
</event>
<event>
 4    1  0.2721071E+004  0.2361453E+02  0.7546771E-02  0.1681738E+00
         21   -1    0    0  503  502  0.00000000000E+00  0.00000000000E+00  0.11043593196E+03  0.11043593196E+03  0.00000000000E+00 0.  1.
         21   -1    0    0  501  503 -0.00000000000E+00 -0.00000000000E+00 -0.57109013762E+01  0.57109013762E+01  0.00000000000E+00 0. -1.
          2    1    1    2  501    0  0.14794379086E+02 -0.18405772523E+02  0.32599283572E+02  0.40253688081E+02  0.00000000000E+00 0. -1.
         -2    1    1    2    0  502 -0.14794379086E+02  0.18405772523E+02  0.72125747010E+02  0.75893145253E+02  0.00000000000E+00 0.  1.
<mgrwt>
<rscale>  2 0.23614532E+02</rscale>
<asrwt>0</asrwt>
<pdfrwt beam="1">  1       21 0.16990142E-01 0.23614532E+02</pdfrwt>
<pdfrwt beam="2">  1       21 0.87860029E-03 0.23614532E+02</pdfrwt>
<totfact> 0.99927826E+07</totfact>
</mgrwt>
</event>
<event>
 4    1  0.2721071E+004  0.2502140E+02  0.7546771E-02  0.1660695E+00
         21   -1    0    0  501  502  0.00000000000E+00  0.00000000000E+00  0.49119694414E+00  0.49119694414E+00  0.00000000000E+00 0.  1.
         21   -1    0    0  502  503 -0.00000000000E+00 -0.00000000000E+00 -0.15962199220E+04  0.15962199220E+04  0.00000000000E+00 0. -1.
          2    1    1    2  501    0 -0.20776666754E+02  0.13942766423E+02 -0.43949255005E+03  0.44020423915E+03  0.00000000000E+00 0.  1.
         -2    1    1    2    0  503  0.20776666754E+02 -0.13942766423E+02 -0.11562361750E+04  0.11565068798E+04  0.00000000000E+00 0. -1.
<mgrwt>
<rscale>  2 0.25021403E+02</rscale>
<asrwt>0</asrwt>
<pdfrwt beam="1">  1       21 0.75568968E-04 0.25021403E+02</pdfrwt>
<pdfrwt beam="2">  1       21 0.24557162E+00 0.25021403E+02</pdfrwt>
<totfact> 0.13428048E+07</totfact>
</mgrwt>
</event>
<event>
 4    1  0.2721071E+004  0.2790688E+02  0.7546771E-02  0.1622449E+00
         21   -1    0    0  501  502  0.00000000000E+00  0.00000000000E+00  0.18553441946E+02  0.18553441946E+02  0.00000000000E+00 0.  1.
         21   -1    0    0  502  503 -0.00000000000E+00 -0.00000000000E+00 -0.82905122980E+02  0.82905122980E+02  0.00000000000E+00 0. -1.
          2    1    1    2  501    0  0.24297400686E+02 -0.13726995636E+02  0.34681023632E+01  0.28121554425E+02  0.00000000000E+00 0.  1.
         -2    1    1    2    0  503 -0.24297400686E+02  0.13726995636E+02 -0.67819783397E+02  0.73337010502E+02  0.00000000000E+00 0. -1.
<mgrwt>
<rscale>  2 0.27906882E+02</rscale>
<asrwt>0</asrwt>
<pdfrwt beam="1">  1       21 0.28543756E-02 0.27906882E+02</pdfrwt>
<pdfrwt beam="2">  1       21 0.12754635E-01 0.27906882E+02</pdfrwt>
<totfact> 0.27991261E+07</totfact>
</mgrwt>
</event>
<event>
 4    1  0.2721071E+004  0.2147358E+02  0.7546771E-02  0.1717518E+00
         21   -1    0    0  501  502  0.00000000000E+00  0.00000000000E+00  0.37541550384E+03  0.37541550384E+03  0.00000000000E+00 0.  1.
         21   -1    0    0  502  503 -0.00000000000E+00 -0.00000000000E+00 -0.12298781923E+01  0.12298781923E+01  0.00000000000E+00 0. -1.
          2    1    1    2  501    0  0.59410505670E+00  0.21465356042E+02  0.18029911998E+03  0.18157336571E+03  0.00000000000E+00 0.  1.
         -2    1    1    2    0  503 -0.59410505670E+00 -0.21465356042E+02  0.19388650567E+03  0.19507201632E+03  0.00000000000E+00 0. -1.
<mgrwt>
<rscale>  2 0.21473576E+02</rscale>
<asrwt>0</asrwt>
<pdfrwt beam="1">  1       21 0.57756140E-01 0.21473576E+02</pdfrwt>
<pdfrwt beam="2">  1       21 0.18921233E-03 0.21473576E+02</pdfrwt>
<totfact> 0.98173569E+07</totfact>
</mgrwt>
</event>
<event>
 4    1  0.2721071E+004  0.3005230E+02  0.7546771E-02  0.1597511E+00
         21   -1    0    0  501  502  0.00000000000E+00  0.00000000000E+00  0.48757299439E+03  0.48757299439E+03  0.00000000000E+00 0. -1.
         21   -1    0    0  502  503 -0.00000000000E+00 -0.00000000000E+00 -0.20100909909E+01  0.20100909909E+01  0.00000000000E+00 0.  1.
          2    1    1    2  501    0 -0.11194465497E+02  0.27889509554E+02  0.31136236733E+03  0.31280931027E+03  0.00000000000E+00 0. -1.
         -2    1    1    2    0  503  0.11194465497E+02 -0.27889509554E+02  0.17420053606E+03  0.17677377511E+03  0.00000000000E+00 0.  1.
<mgrwt>
<rscale>  2 0.30052301E+02</rscale>
<asrwt>0</asrwt>
<pdfrwt beam="1">  1       21 0.75011136E-01 0.30052301E+02</pdfrwt>
<pdfrwt beam="2">  1       21 0.30924516E-03 0.30052301E+02</pdfrwt>
<totfact> 0.30358007E+07</totfact>
</mgrwt>
</event>
<event>
 4    1  0.2721071E+004  0.2276175E+02  0.7546771E-02  0.1695401E+00
         21   -1    0    0  501  502  0.00000000000E+00  0.00000000000E+00  0.15302444435E+03  0.15302444435E+03  0.00000000000E+00 0.  1.
         21   -1    0    0  502  503 -0.00000000000E+00 -0.00000000000E+00 -0.37592688956E+02  0.37592688956E+02  0.00000000000E+00 0. -1.
          2    1    1    2  501    0 -0.56669754090E+01 -0.22045016870E+02  0.14863130031E+03  0.15036409415E+03  0.00000000000E+00 0.  1.
         -2    1    1    2    0  503  0.56669754090E+01  0.22045016870E+02 -0.33199544910E+02  0.40253039157E+02  0.00000000000E+00 0. -1.
<mgrwt>
<rscale>  2 0.22761753E+02</rscale>
<asrwt>0</asrwt>
<pdfrwt beam="1">  1       21 0.23542222E-01 0.22761753E+02</pdfrwt>
<pdfrwt beam="2">  1       21 0.57834907E-02 0.22761753E+02</pdfrwt>
<totfact> 0.30564432E+06</totfact>
</mgrwt>
</event>
<event>
 4    1  0.2721071E+004  0.2513077E+02  0.7546771E-02  0.1659131E+00
         21   -1    0    0  503  502  0.00000000000E+00  0.00000000000E+00  0.17859410117E+02  0.17859410117E+02  0.00000000000E+00 0. -1.
         21   -1    0    0  501  503 -0.00000000000E+00 -0.00000000000E+00 -0.58765121424E+02  0.58765121424E+02  0.00000000000E+00 0.  1.
          2    1    1    2  501    0 -0.15704221943E+02  0.19619706611E+02 -0.44630232994E+02  0.51219265628E+02  0.00000000000E+00 0.  1.
         -2    1    1    2    0  502  0.15704221943E+02 -0.19619706611E+02  0.37245216874E+01  0.25405265914E+02  0.00000000000E+00 0. -1.
<mgrwt>
<rscale>  2 0.25130767E+02</rscale>
<asrwt>0</asrwt>
<pdfrwt beam="1">  1       21 0.27476015E-02 0.25130767E+02</pdfrwt>
<pdfrwt beam="2">  1       21 0.90407882E-02 0.25130767E+02</pdfrwt>
<totfact> 0.51580490E+07</totfact>
</mgrwt>
</event>
<event>
 4    1  0.2721071E+004  0.3522009E+02  0.7546771E-02  0.1546655E+00
         21   -1    0    0  503  502  0.00000000000E+00  0.00000000000E+00  0.23975217605E+02  0.23975217605E+02  0.00000000000E+00 0.  1.
         21   -1    0    0  501  503 -0.00000000000E+00 -0.00000000000E+00 -0.10126030736E+03  0.10126030736E+03  0.00000000000E+00 0. -1.
          2    1    1    2  501    0  0.18820675408E+02  0.29769726015E+02 -0.82432435507E+02  0.89641289780E+02  0.00000000000E+00 0. -1.
         -2    1    1    2    0  502 -0.18820675408E+02 -0.29769726015E+02  0.51473457565E+01  0.35594235181E+02  0.00000000000E+00 0.  1.
<mgrwt>
<rscale>  2 0.35220085E+02</rscale>
<asrwt>0</asrwt>
<pdfrwt beam="1">  1       21 0.36884950E-02 0.35220085E+02</pdfrwt>
<pdfrwt beam="2">  1       21 0.15578509E-01 0.35220085E+02</pdfrwt>
<totfact> 0.13821791E+07</totfact>
</mgrwt>
</event>
<event>
 4    1  0.2721071E+004  0.3109342E+02  0.7546771E-02  0.1586308E+00
         21   -1    0    0  503  502  0.00000000000E+00  0.00000000000E+00  0.49128051143E+02  0.49128051143E+02  0.00000000000E+00 0.  1.
         21   -1    0    0  501  503 -0.00000000000E+00 -0.00000000000E+00 -0.49137787802E+02  0.49137787802E+02  0.00000000000E+00 0. -1.
          2    1    1    2  501    0  0.27723415259E+02 -0.14078821884E+02 -0.38047512653E+02  0.49136688923E+02  0.00000000000E+00 0. -1.
         -2    1    1    2    0  502 -0.27723415259E+02  0.14078821884E+02  0.38037775994E+02  0.49129150021E+02  0.00000000000E+00 0.  1.
<mgrwt>
<rscale>  2 0.31093423E+02</rscale>
<asrwt>0</asrwt>
<pdfrwt beam="1">  1       21 0.75581617E-02 0.31093423E+02</pdfrwt>
<pdfrwt beam="2">  1       21 0.75596597E-02 0.31093423E+02</pdfrwt>
<totfact> 0.14365880E+07</totfact>
</mgrwt>
</event>
<event>
 4    1  0.2721071E+004  0.2626957E+02  0.7546771E-02  0.1643409E+00
         21   -1    0    0  501  502  0.00000000000E+00  0.00000000000E+00  0.22429046198E+02  0.22429046198E+02  0.00000000000E+00 0.  1.
         21   -1    0    0  502  503 -0.00000000000E+00 -0.00000000000E+00 -0.32262980756E+02  0.32262980756E+02  0.00000000000E+00 0. -1.
          2    1    1    2  501    0 -0.17433055830E+02  0.19651440223E+02  0.97012348123E+00  0.26287481393E+02  0.00000000000E+00 0.  1.
         -2    1    1    2    0  503  0.17433055830E+02 -0.19651440223E+02 -0.10804058039E+02  0.28404545561E+02  0.00000000000E+00 0. -1.
<mgrwt>
<rscale>  2 0.26269574E+02</rscale>
<asrwt>0</asrwt>
<pdfrwt beam="1">  1       21 0.34506225E-02 0.26269574E+02</pdfrwt>
<pdfrwt beam="2">  1       21 0.49635354E-02 0.26269574E+02</pdfrwt>
<totfact> 0.96644280E+07</totfact>
</mgrwt>
</event>
<event>
 4    1  0.2721071E+004  0.5481456E+02  0.7546771E-02  0.1420978E+00
         21   -1    0    0  503  502  0.00000000000E+00  0.00000000000E+00  0.14943320304E+03  0.14943320304E+03  0.00000000000E+00 0. -1.
         21   -1    0    0  501  503 -0.00000000000E+00 -0.00000000000E+00 -0.21735437758E+02  0.21735437758E+02  0.00000000000E+00 0.  1.
          2    1    1    2  501    0 -0.21095048255E+02  0.50592838741E+02  0.40422200745E+02  0.68107200103E+02  0.00000000000E+00 0.  1.
         -2    1    1    2    0  502  0.21095048255E+02 -0.50592838741E+02  0.87275564532E+02  0.10306144069E+03  0.00000000000E+00 0. -1.
<mgrwt>
<rscale>  2 0.54814564E+02</rscale>
<asrwt>0</asrwt>
<pdfrwt beam="1">  1       21 0.22989723E-01 0.54814564E+02</pdfrwt>
<pdfrwt beam="2">  1       21 0.33439136E-02 0.54814564E+02</pdfrwt>
<totfact> 0.85682964E+06</totfact>
</mgrwt>
</event>
<event>
 4    1  0.2721071E+004  0.2137989E+02  0.7546771E-02  0.1719203E+00
         21   -1    0    0  503  502  0.00000000000E+00  0.00000000000E+00  0.65388493671E+02  0.65388493671E+02  0.00000000000E+00 0. -1.
         21   -1    0    0  501  503 -0.00000000000E+00 -0.00000000000E+00 -0.10652285525E+02  0.10652285525E+02  0.00000000000E+00 0.  1.
          2    1    1    2  501    0  0.26553210238E+01 -0.21214355047E+02  0.50765465615E+01  0.21974323990E+02  0.00000000000E+00 0.  1.
         -2    1    1    2    0  502 -0.26553210238E+01  0.21214355047E+02  0.49659661585E+02  0.54066455206E+02  0.00000000000E+00 0. -1.
<mgrwt>
<rscale>  2 0.21379888E+02</rscale>
<asrwt>0</asrwt>
<pdfrwt beam="1">  1       21 0.10059768E-01 0.21379888E+02</pdfrwt>
<pdfrwt beam="2">  1       21 0.16388132E-02 0.21379888E+02</pdfrwt>
<totfact> 0.91694408E+07</totfact>
</mgrwt>
</event>
<event>
 4    1  0.2721071E+004  0.2158268E+02  0.7546771E-02  0.1715571E+00
         21   -1    0    0  501  502  0.00000000000E+00  0.00000000000E+00  0.15369068491E+04  0.15369068491E+04  0.00000000000E+00 0. -1.
         21   -1    0    0  502  503 -0.00000000000E+00 -0.00000000000E+00 -0.30930828978E+00  0.30930828978E+00  0.00000000000E+00 0.  1.
          2    1    1    2  501    0 -0.20348447743E+01  0.21486544175E+02  0.87732909194E+03  0.87759452354E+03  0.00000000000E+00 0. -1.
         -2    1    1    2    0  503  0.20348447743E+01 -0.21486544175E+02  0.65926844884E+03  0.65962163383E+03  0.00000000000E+00 0.  1.
<mgrwt>
<rscale>  2 0.21582682E+02</rscale>
<asrwt>0</asrwt>
<pdfrwt beam="1">  1       21 0.23644109E+00 0.21582682E+02</pdfrwt>
<pdfrwt beam="2">  1       21 0.47587122E-04 0.21582682E+02</pdfrwt>
<totfact> 0.28246611E+07</totfact>
</mgrwt>
</event>
<event>
 4    1  0.2721071E+004  0.2077065E+02  0.7546771E-02  0.1730423E+00
         21   -1    0    0  501  502  0.00000000000E+00  0.00000000000E+00  0.51134022384E+03  0.51134022384E+03  0.00000000000E+00 0. -1.
         21   -1    0    0  502  503 -0.00000000000E+00 -0.00000000000E+00 -0.14125020585E+01  0.14125020585E+01  0.00000000000E+00 0.  1.
          2    1    1    2  501    0 -0.19230214629E+02 -0.78497690364E+01  0.41765440576E+03  0.41817056649E+03  0.00000000000E+00 0. -1.
         -2    1    1    2    0  503  0.19230214629E+02  0.78497690364E+01  0.92273316019E+02  0.94582159405E+02  0.00000000000E+00 0.  1.
<mgrwt>
<rscale>  2 0.20770653E+02</rscale>
<asrwt>0</asrwt>
<pdfrwt beam="1">  1       21 0.78667579E-01 0.20770653E+02</pdfrwt>
<pdfrwt beam="2">  1       21 0.21730842E-03 0.20770653E+02</pdfrwt>
<totfact> 0.42597093E+07</totfact>
</mgrwt>
</event>
<event>
 4    1  0.2721071E+004  0.2143185E+02  0.7546771E-02  0.1718267E+00
         21   -1    0    0  503  502  0.00000000000E+00  0.00000000000E+00  0.19829975274E+02  0.19829975274E+02  0.00000000000E+00 0. -1.
         21   -1    0    0  501  503 -0.00000000000E+00 -0.00000000000E+00 -0.44347482942E+02  0.44347482942E+02  0.00000000000E+00 0.  1.
          2    1    1    2  501    0 -0.15069459767E+01  0.21378803635E+02 -0.34436924229E+02  0.40561384116E+02  0.00000000000E+00 0.  1.
         -2    1    1    2    0  502  0.15069459767E+01 -0.21378803635E+02  0.99194165601E+01  0.23616074101E+02  0.00000000000E+00 0. -1.
<mgrwt>
<rscale>  2 0.21431849E+02</rscale>
<asrwt>0</asrwt>
<pdfrwt beam="1">  1       21 0.30507655E-02 0.21431849E+02</pdfrwt>
<pdfrwt beam="2">  1       21 0.68226896E-02 0.21431849E+02</pdfrwt>
<totfact> 0.66518419E+07</totfact>
</mgrwt>
</event>
<event>
 4    1  0.2721071E+004  0.3482151E+02  0.7546771E-02  0.1550191E+00
         21   -1    0    0  501  502  0.00000000000E+00  0.00000000000E+00  0.12414255149E+02  0.12414255149E+02  0.00000000000E+00 0.  1.
         21   -1    0    0  502  503 -0.00000000000E+00 -0.00000000000E+00 -0.10524426559E+03  0.10524426559E+03  0.00000000000E+00 0. -1.
          2    1    1    2  501    0  0.34624690282E+02  0.36971245099E+01 -0.30636074561E+02  0.46380027720E+02  0.00000000000E+00 0. -1.
         -2    1    1    2    0  503 -0.34624690282E+02 -0.36971245099E+01 -0.62193935881E+02  0.71278493020E+02  0.00000000000E+00 0.  1.
<mgrwt>
<rscale>  2 0.34821515E+02</rscale>
<asrwt>0</asrwt>
<pdfrwt beam="1">  1       21 0.19098854E-02 0.34821515E+02</pdfrwt>
<pdfrwt beam="2">  1       21 0.16191426E-01 0.34821515E+02</pdfrwt>
<totfact> 0.36338493E+07</totfact>
</mgrwt>
</event>
<event>
 4    1  0.2721071E+004  0.2101291E+02  0.7546771E-02  0.1725904E+00
         21   -1    0    0  503  502  0.00000000000E+00  0.00000000000E+00  0.42527366630E+02  0.42527366630E+02  0.00000000000E+00 0.  1.
         21   -1    0    0  501  503 -0.00000000000E+00 -0.00000000000E+00 -0.27072846558E+02  0.27072846558E+02  0.00000000000E+00 0. -1.
          2    1    1    2  501    0  0.17778146402E+02  0.11201775966E+02 -0.19596830285E+02  0.28732873708E+02  0.00000000000E+00 0. -1.
         -2    1    1    2    0  502 -0.17778146402E+02 -0.11201775966E+02  0.35051350357E+02  0.40867339480E+02  0.00000000000E+00 0.  1.
<mgrwt>
<rscale>  2 0.21012907E+02</rscale>
<asrwt>0</asrwt>
<pdfrwt beam="1">  1       21 0.65426717E-02 0.21012907E+02</pdfrwt>
<pdfrwt beam="2">  1       21 0.41650533E-02 0.21012907E+02</pdfrwt>
<totfact> 0.43509607E+07</totfact>
</mgrwt>
</event>
<event>
 4    1  0.2721071E+004  0.2777668E+02  0.7546771E-02  0.1624050E+00
         21   -1    0    0  503  502  0.00000000000E+00  0.00000000000E+00  0.23488692856E+02  0.23488692856E+02  0.00000000000E+00 0. -1.
         21   -1    0    0  501  503 -0.00000000000E+00 -0.00000000000E+00 -0.37076940906E+02  0.37076940906E+02  0.00000000000E+00 0.  1.
          2    1    1    2  501    0  0.91806499204E+01 -0.26215636195E+02  0.34338077992E+01  0.27988121589E+02  0.00000000000E+00 0. -1.
         -2    1    1    2    0  502 -0.91806499204E+01  0.26215636195E+02 -0.17022055850E+02  0.32577512173E+02  0.00000000000E+00 0.  1.
<mgrwt>
<rscale>  2 0.27776679E+02</rscale>
<asrwt>0</asrwt>
<pdfrwt beam="1">  1       21 0.36136450E-02 0.27776679E+02</pdfrwt>
<pdfrwt beam="2">  1       21 0.57041448E-02 0.27776679E+02</pdfrwt>
<totfact> 0.72897939E+07</totfact>
</mgrwt>
</event>
<event>
 4    1  0.2721071E+004  0.2215788E+02  0.7546771E-02  0.1705536E+00
         21   -1    0    0  501  502  0.00000000000E+00  0.00000000000E+00  0.18490505914E+01  0.18490505914E+01  0.00000000000E+00 0. -1.
         21   -1    0    0  502  503 -0.00000000000E+00 -0.00000000000E+00 -0.50260182998E+03  0.50260182998E+03  0.00000000000E+00 0.  1.
          2    1    1    2  501    0 -0.94080241172E+01  0.20061422074E+02 -0.77147542413E+02  0.80266523993E+02  0.00000000000E+00 0. -1.
         -2    1    1    2    0  503  0.94080241172E+01 -0.20061422074E+02 -0.42360523697E+03  0.42418435658E+03  0.00000000000E+00 0.  1.
<mgrwt>
<rscale>  2 0.22157878E+02</rscale>
<asrwt>0</asrwt>
<pdfrwt beam="1">  1       21 0.28446929E-03 0.22157878E+02</pdfrwt>
<pdfrwt beam="2">  1       21 0.77323366E-01 0.22157878E+02</pdfrwt>
<totfact> 0.30331569E+07</totfact>
</mgrwt>
</event>
<event>
 4    1  0.2721071E+004  0.2047585E+02  0.7546771E-02  0.1736027E+00
         21   -1    0    0  503  502  0.00000000000E+00  0.00000000000E+00  0.13775661526E+01  0.13775661526E+01  0.00000000000E+00 0. -1.
         21   -1    0    0  501  503 -0.00000000000E+00 -0.00000000000E+00 -0.31963383679E+03  0.31963383679E+03  0.00000000000E+00 0.  1.
          2    1    1    2  501    0 -0.63298459428E+01 -0.19472890931E+02 -0.19422749025E+03  0.19530381051E+03  0.00000000000E+00 0.  1.
         -2    1    1    2    0  502  0.63298459428E+01  0.19472890931E+02 -0.12402878039E+03  0.12570759244E+03  0.00000000000E+00 0. -1.
<mgrwt>
<rscale>  2 0.20475850E+02</rscale>
<asrwt>0</asrwt>
<pdfrwt beam="1">  1       21 0.21193295E-03 0.20475850E+02</pdfrwt>
<pdfrwt beam="2">  1       21 0.49174506E-01 0.20475850E+02</pdfrwt>
<totfact> 0.11273879E+08</totfact>
</mgrwt>
</event>
<event>
 4    1  0.2721071E+004  0.3055297E+02  0.7546771E-02  0.1592056E+00
         21   -1    0    0  503  502  0.00000000000E+00  0.00000000000E+00  0.46299778555E+01  0.46299778555E+01  0.00000000000E+00 0. -1.
         21   -1    0    0  501  503 -0.00000000000E+00 -0.00000000000E+00 -0.29214875536E+03  0.29214875536E+03  0.00000000000E+00 0.  1.
          2    1    1    2  501    0  0.30166147541E+02 -0.48463661232E+01 -0.22636327242E+03  0.22841588129E+03  0.00000000000E+00 0.  1.
         -2    1    1    2    0  502 -0.30166147541E+02  0.48463661232E+01 -0.61155505086E+02  0.68362851933E+02  0.00000000000E+00 0. -1.
<mgrwt>
<rscale>  2 0.30552966E+02</rscale>
<asrwt>0</asrwt>
<pdfrwt beam="1">  1       21 0.71230427E-03 0.30552966E+02</pdfrwt>
<pdfrwt beam="2">  1       21 0.44945963E-01 0.30552966E+02</pdfrwt>
<totfact> 0.24717206E+07</totfact>
</mgrwt>
</event>
<event>
 4    1  0.2721071E+004  0.2102738E+02  0.7546771E-02  0.1725637E+00
         21   -1    0    0  501  502  0.00000000000E+00  0.00000000000E+00  0.16836086969E+03  0.16836086969E+03  0.00000000000E+00 0.  1.
         21   -1    0    0  502  503 -0.00000000000E+00 -0.00000000000E+00 -0.48239334814E+01  0.48239334814E+01  0.00000000000E+00 0. -1.
          2    1    1    2  501    0 -0.48882907426E+01 -0.20451288805E+02  0.14021596116E+03  0.14178387201E+03  0.00000000000E+00 0.  1.
         -2    1    1    2    0  503  0.48882907426E+01  0.20451288805E+02  0.23320975051E+02  0.31400931157E+02  0.00000000000E+00 0. -1.
<mgrwt>
<rscale>  2 0.21027377E+02</rscale>
<asrwt>0</asrwt>
<pdfrwt beam="1">  1       21 0.25901668E-01 0.21027377E+02</pdfrwt>
<pdfrwt beam="2">  1       21 0.74214374E-03 0.21027377E+02</pdfrwt>
<totfact> 0.59545692E+07</totfact>
</mgrwt>
</event>
<event>
 4    1  0.2721071E+004  0.2027845E+02  0.7546771E-02  0.1739847E+00
         21   -1    0    0  501  502  0.00000000000E+00  0.00000000000E+00  0.15434023353E+02  0.15434023353E+02  0.00000000000E+00 0.  1.
         21   -1    0    0  502  503 -0.00000000000E+00 -0.00000000000E+00 -0.19682247807E+03  0.19682247807E+03  0.00000000000E+00 0. -1.
          2    1    1    2  501    0 -0.20274972832E+02  0.37564976290E+00  0.79897573071E+01  0.21795684388E+02  0.00000000000E+00 0.  1.
         -2    1    1    2    0  503  0.20274972832E+02 -0.37564976290E+00 -0.18937821203E+03  0.19046081704E+03  0.00000000000E+00 0. -1.
<mgrwt>
<rscale>  2 0.20278453E+02</rscale>
<asrwt>0</asrwt>
<pdfrwt beam="1">  1       21 0.23744651E-02 0.20278453E+02</pdfrwt>
<pdfrwt beam="2">  1       21 0.30280382E-01 0.20278453E+02</pdfrwt>
<totfact> 0.77138650E+06</totfact>
</mgrwt>
</event>
<event>
 4    1  0.2721071E+004  0.2193514E+02  0.7546771E-02  0.1709376E+00
         21   -1    0    0  501  502  0.00000000000E+00  0.00000000000E+00  0.64403241454E+02  0.64403241454E+02  0.00000000000E+00 0. -1.
         21   -1    0    0  502  503 -0.00000000000E+00 -0.00000000000E+00 -0.77822149787E+01  0.77822149787E+01  0.00000000000E+00 0.  1.
          2    1    1    2  501    0  0.85372156341E+01  0.20205605080E+02  0.21091724902E+02  0.30430435205E+02  0.00000000000E+00 0.  1.
         -2    1    1    2    0  503 -0.85372156341E+01 -0.20205605080E+02  0.35529301573E+02  0.41755021228E+02  0.00000000000E+00 0. -1.
<mgrwt>
<rscale>  2 0.21935144E+02</rscale>
<asrwt>0</asrwt>
<pdfrwt beam="1">  1       21 0.99081907E-02 0.21935144E+02</pdfrwt>
<pdfrwt beam="2">  1       21 0.11972639E-02 0.21935144E+02</pdfrwt>
<totfact> 0.15235576E+08</totfact>
</mgrwt>
</event>
<event>
 4    1  0.2721071E+004  0.2305553E+02  0.7546771E-02  0.1690612E+00
         21   -1    0    0  501  502  0.00000000000E+00  0.00000000000E+00  0.23244527554E+03  0.23244527554E+03  0.00000000000E+00 0. -1.
         21   -1    0    0  502  503 -0.00000000000E+00 -0.00000000000E+00 -0.24344449709E+01  0.24344449709E+01  0.00000000000E+00 0.  1.
          2    1    1    2  501    0  0.15577014942E+02 -0.16997472323E+02  0.14392650991E+03  0.14576144111E+03  0.00000000000E+00 0. -1.
         -2    1    1    2    0  503 -0.15577014942E+02  0.16997472323E+02  0.86084320658E+02  0.89118279399E+02  0.00000000000E+00 0.  1.
<mgrwt>
<rscale>  2 0.23055530E+02</rscale>
<asrwt>0</asrwt>
<pdfrwt beam="1">  1       21 0.35760794E-01 0.23055530E+02</pdfrwt>
<pdfrwt beam="2">  1       21 0.37453018E-03 0.23055530E+02</pdfrwt>
<totfact> 0.93012603E+07</totfact>
</mgrwt>
</event>
<event>
 4    1  0.2721071E+004  0.2630125E+02  0.7546771E-02  0.1642986E+00
         21   -1    0    0  503  502  0.00000000000E+00  0.00000000000E+00  0.21800944736E+02  0.21800944736E+02  0.00000000000E+00 0. -1.
         21   -1    0    0  501  503 -0.00000000000E+00 -0.00000000000E+00 -0.44182809695E+02  0.44182809695E+02  0.00000000000E+00 0.  1.
          2    1    1    2  501    0 -0.23803555262E+02  0.11186878975E+02 -0.28705717739E+02  0.38932938949E+02  0.00000000000E+00 0.  1.
         -2    1    1    2    0  502  0.23803555262E+02 -0.11186878975E+02  0.63238527802E+01  0.27050815482E+02  0.00000000000E+00 0. -1.
<mgrwt>
<rscale>  2 0.26301245E+02</rscale>
<asrwt>0</asrwt>
<pdfrwt beam="1">  1       21 0.33539915E-02 0.26301245E+02</pdfrwt>
<pdfrwt beam="2">  1       21 0.67973553E-02 0.26301245E+02</pdfrwt>
<totfact> 0.60892097E+07</totfact>
</mgrwt>
</event>
<event>
 4    1  0.2721071E+004  0.2524455E+02  0.7546771E-02  0.1657514E+00
         21   -1    0    0  501  502  0.00000000000E+00  0.00000000000E+00  0.36157571356E+01  0.36157571356E+01  0.00000000000E+00 0. -1.
         21   -1    0    0  502  503 -0.00000000000E+00 -0.00000000000E+00 -0.37254376696E+03  0.37254376696E+03  0.00000000000E+00 0.  1.
          2    1    1    2  501    0 -0.20478695113E+01  0.25161345754E+02 -0.47941690118E+02  0.54182033379E+02  0.00000000000E+00 0. -1.
         -2    1    1    2    0  503  0.20478695113E+01 -0.25161345754E+02 -0.32098631970E+03  0.32197749071E+03  0.00000000000E+00 0.  1.
<mgrwt>
<rscale>  2 0.25244546E+02</rscale>
<asrwt>0</asrwt>
<pdfrwt beam="1">  1       21 0.55627016E-03 0.25244546E+02</pdfrwt>
<pdfrwt beam="2">  1       21 0.57314443E-01 0.25244546E+02</pdfrwt>
<totfact> 0.21408350E+07</totfact>
</mgrwt>
</event>
<event>
 4    1  0.2721071E+004  0.2951143E+02  0.7546771E-02  0.1603553E+00
         21   -1    0    0  503  502  0.00000000000E+00  0.00000000000E+00  0.12236119091E+02  0.12236119091E+02  0.00000000000E+00 0. -1.
         21   -1    0    0  501  503 -0.00000000000E+00 -0.00000000000E+00 -0.73168038306E+02  0.73168038306E+02  0.00000000000E+00 0.  1.
          2    1    1    2  501    0 -0.27710832484E+02 -0.10150564975E+02 -0.37510975340E+02  0.47728371827E+02  0.00000000000E+00 0. -1.
         -2    1    1    2    0  502  0.27710832484E+02  0.10150564975E+02 -0.23420943876E+02  0.37675785570E+02  0.00000000000E+00 0.  1.
<mgrwt>
<rscale>  2 0.29511425E+02</rscale>
<asrwt>0</asrwt>
<pdfrwt beam="1">  1       21 0.18824799E-02 0.29511425E+02</pdfrwt>
<pdfrwt beam="2">  1       21 0.11256621E-01 0.29511425E+02</pdfrwt>
<totfact> 0.66873026E+07</totfact>
</mgrwt>
</event>
<event>
 4    1  0.2721071E+004  0.2173315E+02  0.7546771E-02  0.1712908E+00
         21   -1    0    0  503  502  0.00000000000E+00  0.00000000000E+00  0.16874241120E+02  0.16874241120E+02  0.00000000000E+00 0. -1.
         21   -1    0    0  501  503 -0.00000000000E+00 -0.00000000000E+00 -0.27991245332E+02  0.27991245332E+02  0.00000000000E+00 0.  1.
          2    1    1    2  501    0 -0.11134758846E+02  0.18664060221E+02 -0.55915401571E+01  0.22440929566E+02  0.00000000000E+00 0. -1.
         -2    1    1    2    0  502  0.11134758846E+02 -0.18664060221E+02 -0.55254640551E+01  0.22424556885E+02  0.00000000000E+00 0.  1.
<mgrwt>
<rscale>  2 0.21733154E+02</rscale>
<asrwt>0</asrwt>
<pdfrwt beam="1">  1       21 0.25960371E-02 0.21733154E+02</pdfrwt>
<pdfrwt beam="2">  1       21 0.43063454E-02 0.21733154E+02</pdfrwt>
<totfact> 0.17864118E+08</totfact>
</mgrwt>
</event>
<event>
 4    1  0.2721071E+004  0.4300161E+02  0.7546771E-02  0.1487217E+00
         21   -1    0    0  501  502  0.00000000000E+00  0.00000000000E+00  0.11655437584E+02  0.11655437584E+02  0.00000000000E+00 0. -1.
         21   -1    0    0  502  503 -0.00000000000E+00 -0.00000000000E+00 -0.16571890495E+03  0.16571890495E+03  0.00000000000E+00 0.  1.
          2    1    1    2  501    0 -0.40484866859E+02  0.14495317973E+02 -0.95348195388E+02  0.10459644856E+03  0.00000000000E+00 0.  1.
         -2    1    1    2    0  503  0.40484866859E+02 -0.14495317973E+02 -0.58715271977E+02  0.72777893972E+02  0.00000000000E+00 0. -1.
<mgrwt>
<rscale>  2 0.43001613E+02</rscale>
<asrwt>0</asrwt>
<pdfrwt beam="1">  1       21 0.17931444E-02 0.43001613E+02</pdfrwt>
<pdfrwt beam="2">  1       21 0.25495214E-01 0.43001613E+02</pdfrwt>
<totfact> 0.18475381E+07</totfact>
</mgrwt>
</event>
<event>
 4    1  0.2721071E+004  0.2570153E+02  0.7546771E-02  0.1651125E+00
         21   -1    0    0  503  502  0.00000000000E+00  0.00000000000E+00  0.66601622573E+01  0.66601622573E+01  0.00000000000E+00 0.  1.
         21   -1    0    0  501  503 -0.00000000000E+00 -0.00000000000E+00 -0.10145008508E+03  0.10145008508E+03  0.00000000000E+00 0. -1.
          2    1    1    2  501    0 -0.12869233887E+02 -0.22247505823E+02 -0.55477231925E+02  0.61141573076E+02  0.00000000000E+00 0. -1.
         -2    1    1    2    0  502  0.12869233887E+02  0.22247505823E+02 -0.39312690895E+02  0.46968674258E+02  0.00000000000E+00 0.  1.
<mgrwt>
<rscale>  2 0.25701531E+02</rscale>
<asrwt>0</asrwt>
<pdfrwt beam="1">  1       21 0.10246403E-02 0.25701531E+02</pdfrwt>
<pdfrwt beam="2">  1       21 0.15607706E-01 0.25701531E+02</pdfrwt>
<totfact> 0.93837914E+07</totfact>
</mgrwt>
</event>
<event>
 4    1  0.2721071E+004  0.2638405E+02  0.7546771E-02  0.1641883E+00
         21   -1    0    0  501  502  0.00000000000E+00  0.00000000000E+00  0.22412583489E+03  0.22412583489E+03  0.00000000000E+00 0.  1.
         21   -1    0    0  502  503 -0.00000000000E+00 -0.00000000000E+00 -0.31801194747E+01  0.31801194747E+01  0.00000000000E+00 0. -1.
          2    1    1    2  501    0  0.26344605729E+02  0.14421788357E+01  0.93113101853E+02  0.96778963972E+02  0.00000000000E+00 0.  1.
         -2    1    1    2    0  503 -0.26344605729E+02 -0.14421788357E+01  0.12783261356E+03  0.13052699039E+03  0.00000000000E+00 0. -1.
<mgrwt>
<rscale>  2 0.26384051E+02</rscale>
<asrwt>0</asrwt>
<pdfrwt beam="1">  1       21 0.34480885E-01 0.26384051E+02</pdfrwt>
<pdfrwt beam="2">  1       21 0.48924933E-03 0.26384051E+02</pdfrwt>
<totfact> 0.69427989E+07</totfact>
</mgrwt>
</event>
<event>
 4    1  0.2721071E+004  0.2462143E+02  0.7546771E-02  0.1666500E+00
         21   -1    0    0  503  502  0.00000000000E+00  0.00000000000E+00  0.22251653750E+02  0.22251653750E+02  0.00000000000E+00 0. -1.
         21   -1    0    0  501  503 -0.00000000000E+00 -0.00000000000E+00 -0.27854178852E+02  0.27854178852E+02  0.00000000000E+00 0.  1.
          2    1    1    2  501    0 -0.10225562608E+02 -0.22397607992E+02 -0.65105189855E+01  0.25467662473E+02  0.00000000000E+00 0.  1.
         -2    1    1    2    0  502  0.10225562608E+02  0.22397607992E+02  0.90799388277E+00  0.24638170129E+02  0.00000000000E+00 0. -1.
<mgrwt>
<rscale>  2 0.24621433E+02</rscale>
<asrwt>0</asrwt>
<pdfrwt beam="1">  1       21 0.34233314E-02 0.24621433E+02</pdfrwt>
<pdfrwt beam="2">  1       21 0.42852582E-02 0.24621433E+02</pdfrwt>
<totfact> 0.12152204E+08</totfact>
</mgrwt>
</event>
<event>
 4    1  0.2721071E+004  0.2326934E+02  0.7546771E-02  0.1687181E+00
         21   -1    0    0  503  502  0.00000000000E+00  0.00000000000E+00  0.62246452885E+02  0.62246452885E+02  0.00000000000E+00 0.  1.
         21   -1    0    0  501  503 -0.00000000000E+00 -0.00000000000E+00 -0.16453641541E+02  0.16453641541E+02  0.00000000000E+00 0. -1.
          2    1    1    2  501    0 -0.15534307316E+02  0.17324766849E+02 -0.41185302851E+01  0.23631008058E+02  0.00000000000E+00 0. -1.
         -2    1    1    2    0  502  0.15534307316E+02 -0.17324766849E+02  0.49911341629E+02  0.55069086368E+02  0.00000000000E+00 0.  1.
<mgrwt>
<rscale>  2 0.23269341E+02</rscale>
<asrwt>0</asrwt>
<pdfrwt beam="1">  1       21 0.95763772E-02 0.23269341E+02</pdfrwt>
<pdfrwt beam="2">  1       21 0.25313295E-02 0.23269341E+02</pdfrwt>
<totfact> 0.52250119E+07</totfact>
</mgrwt>
</event>
<event>
 4    1  0.2721071E+004  0.3720507E+02  0.7546771E-02  0.1529848E+00
         21   -1    0    0  503  502  0.00000000000E+00  0.00000000000E+00  0.63639980550E+02  0.63639980550E+02  0.00000000000E+00 0. -1.
         21   -1    0    0  501  503 -0.00000000000E+00 -0.00000000000E+00 -0.23604642244E+02  0.23604642244E+02  0.00000000000E+00 0.  1.
          2    1    1    2  501    0  0.35433198948E+02 -0.11344856639E+02  0.77925779249E+01  0.38012387857E+02  0.00000000000E+00 0.  1.
         -2    1    1    2    0  502 -0.35433198948E+02  0.11344856639E+02  0.32242760381E+02  0.49232234937E+02  0.00000000000E+00 0. -1.
<mgrwt>
<rscale>  2 0.37205072E+02</rscale>
<asrwt>0</asrwt>
<pdfrwt beam="1">  1       21 0.97907662E-02 0.37205072E+02</pdfrwt>
<pdfrwt beam="2">  1       21 0.36314835E-02 0.37205072E+02</pdfrwt>
<totfact> 0.31621481E+07</totfact>
</mgrwt>
</event>
<event>
 4    1  0.2721071E+004  0.2345697E+02  0.7546771E-02  0.1684208E+00
         21   -1    0    0  503  502  0.00000000000E+00  0.00000000000E+00  0.36763428088E+03  0.36763428088E+03  0.00000000000E+00 0.  1.
         21   -1    0    0  501  503 -0.00000000000E+00 -0.00000000000E+00 -0.16586169915E+01  0.16586169915E+01  0.00000000000E+00 0. -1.
          2    1    1    2  501    0  0.17636029667E+02 -0.15466093389E+02  0.12529184096E+03  0.12746872164E+03  0.00000000000E+00 0. -1.
         -2    1    1    2    0  502 -0.17636029667E+02  0.15466093389E+02  0.24068382293E+03  0.24182417622E+03  0.00000000000E+00 0.  1.
<mgrwt>
<rscale>  2 0.23456973E+02</rscale>
<asrwt>0</asrwt>
<pdfrwt beam="1">  1       21 0.56559055E-01 0.23456973E+02</pdfrwt>
<pdfrwt beam="2">  1       21 0.25517214E-03 0.23456973E+02</pdfrwt>
<totfact> 0.67906182E+07</totfact>
</mgrwt>
</event>
<event>
 4    1  0.2721071E+004  0.2136104E+02  0.7546771E-02  0.1719543E+00
         21   -1    0    0  501  502  0.00000000000E+00  0.00000000000E+00  0.11486816223E+03  0.11486816223E+03  0.00000000000E+00 0. -1.
         21   -1    0    0  502  503 -0.00000000000E+00 -0.00000000000E+00 -0.44994356006E+01  0.44994356006E+01  0.00000000000E+00 0.  1.
          2    1    1    2  501    0  0.17884017834E+02  0.11681442319E+02  0.75612392187E+02  0.78571801817E+02  0.00000000000E+00 0. -1.
         -2    1    1    2    0  503 -0.17884017834E+02 -0.11681442319E+02  0.34756334446E+02  0.40795796017E+02  0.00000000000E+00 0.  1.
<mgrwt>
<rscale>  2 0.21361044E+02</rscale>
<asrwt>0</asrwt>
<pdfrwt beam="1">  1       21 0.17672023E-01 0.21361044E+02</pdfrwt>
<pdfrwt beam="2">  1       21 0.69222095E-03 0.21361044E+02</pdfrwt>
<totfact> 0.12948452E+08</totfact>
</mgrwt>
</event>
<event>
 4    1  0.2721071E+004  0.2308668E+02  0.7546771E-02  0.1690109E+00
         21   -1    0    0  503  502  0.00000000000E+00  0.00000000000E+00  0.18518889994E+02  0.18518889994E+02  0.00000000000E+00 0.  1.
         21   -1    0    0  501  503 -0.00000000000E+00 -0.00000000000E+00 -0.66532589414E+02  0.66532589414E+02  0.00000000000E+00 0. -1.
          2    1    1    2  501    0  0.15307068468E+02  0.17282599267E+02 -0.56040138976E+02  0.60609337226E+02  0.00000000000E+00 0. -1.
         -2    1    1    2    0  502 -0.15307068468E+02 -0.17282599267E+02  0.80264395556E+01  0.24442142182E+02  0.00000000000E+00 0.  1.
<mgrwt>
<rscale>  2 0.23086675E+02</rscale>
<asrwt>0</asrwt>
<pdfrwt beam="1">  1       21 0.28490599E-02 0.23086675E+02</pdfrwt>
<pdfrwt beam="2">  1       21 0.10235783E-01 0.23086675E+02</pdfrwt>
<totfact> 0.38881331E+07</totfact>
</mgrwt>
</event>
<event>
 4    1  0.2721071E+004  0.2133881E+02  0.7546771E-02  0.1719944E+00
         21   -1    0    0  501  502  0.00000000000E+00  0.00000000000E+00  0.10492183979E+02  0.10492183979E+02  0.00000000000E+00 0. -1.
         21   -1    0    0  502  503 -0.00000000000E+00 -0.00000000000E+00 -0.21088533054E+03  0.21088533054E+03  0.00000000000E+00 0.  1.
          2    1    1    2  501    0  0.15031855688E+00 -0.21338284296E+02 -0.15525748968E+01  0.21395220522E+02  0.00000000000E+00 0. -1.
         -2    1    1    2    0  503 -0.15031855688E+00  0.21338284296E+02 -0.19884057167E+03  0.19998229400E+03  0.00000000000E+00 0.  1.
<mgrwt>
<rscale>  2 0.21338814E+02</rscale>
<asrwt>0</asrwt>
<pdfrwt beam="1">  1       21 0.16141821E-02 0.21338814E+02</pdfrwt>
<pdfrwt beam="2">  1       21 0.32443898E-01 0.21338814E+02</pdfrwt>
<totfact> 0.12387543E+07</totfact>
</mgrwt>
</event>
<event>
 4    1  0.2721071E+004  0.2094726E+02  0.7546771E-02  0.1727121E+00
         21   -1    0    0  503  502  0.00000000000E+00  0.00000000000E+00  0.36604111095E+02  0.36604111095E+02  0.00000000000E+00 0.  1.
         21   -1    0    0  501  503 -0.00000000000E+00 -0.00000000000E+00 -0.12699485302E+02  0.12699485302E+02  0.00000000000E+00 0. -1.
          2    1    1    2  501    0 -0.15259377969E+02  0.14350577145E+02  0.17789790517E+02  0.27482072829E+02  0.00000000000E+00 0.  1.
         -2    1    1    2    0  502  0.15259377969E+02 -0.14350577145E+02  0.61148352761E+01  0.21821523568E+02  0.00000000000E+00 0. -1.
<mgrwt>
<rscale>  2 0.20947259E+02</rscale>
<asrwt>0</asrwt>
<pdfrwt beam="1">  1       21 0.56314017E-02 0.20947259E+02</pdfrwt>
<pdfrwt beam="2">  1       21 0.19537670E-02 0.20947259E+02</pdfrwt>
<totfact> 0.17856314E+08</totfact>
</mgrwt>
</event>
<event>
 4    1  0.2721071E+004  0.2339433E+02  0.7546771E-02  0.1685197E+00
         21   -1    0    0  503  502  0.00000000000E+00  0.00000000000E+00  0.44757711306E+02  0.44757711306E+02  0.00000000000E+00 0.  1.
         21   -1    0    0  501  503 -0.00000000000E+00 -0.00000000000E+00 -0.53997558154E+02  0.53997558154E+02  0.00000000000E+00 0. -1.
          2    1    1    2  501    0 -0.32859430132E+01 -0.23162405347E+02 -0.48048289899E+02  0.53440926312E+02  0.00000000000E+00 0. -1.
         -2    1    1    2    0  502  0.32859430132E+01  0.23162405347E+02  0.38808443050E+02  0.45314343148E+02  0.00000000000E+00 0.  1.
<mgrwt>
<rscale>  2 0.23394325E+02</rscale>
<asrwt>0</asrwt>
<pdfrwt beam="1">  1       21 0.68858018E-02 0.23394325E+02</pdfrwt>
<pdfrwt beam="2">  1       21 0.83073166E-02 0.23394325E+02</pdfrwt>
<totfact> 0.13583012E+07</totfact>
</mgrwt>
</event>
<event>
 4    1  0.2721071E+004  0.2439745E+02  0.7546771E-02  0.1669810E+00
         21   -1    0    0  501  502  0.00000000000E+00  0.00000000000E+00  0.16141748629E+02  0.16141748629E+02  0.00000000000E+00 0.  1.
         21   -1    0    0  502  503 -0.00000000000E+00 -0.00000000000E+00 -0.44423559912E+02  0.44423559912E+02  0.00000000000E+00 0. -1.
          2    1    1    2  501    0 -0.24372846214E+02 -0.10953556190E+01 -0.16583289630E+01  0.24453741871E+02  0.00000000000E+00 0.  1.
         -2    1    1    2    0  503  0.24372846214E+02  0.10953556190E+01 -0.26623482320E+02  0.36111566670E+02  0.00000000000E+00 0. -1.
<mgrwt>
<rscale>  2 0.24397447E+02</rscale>
<asrwt>0</asrwt>
<pdfrwt beam="1">  1       21 0.24833460E-02 0.24397447E+02</pdfrwt>
<pdfrwt beam="2">  1       21 0.68343938E-02 0.24397447E+02</pdfrwt>
<totfact> 0.94650842E+07</totfact>
</mgrwt>
</event>
<event>
 4    1  0.2721071E+004  0.2087694E+02  0.7546771E-02  0.1728431E+00
         21   -1    0    0  503  502  0.00000000000E+00  0.00000000000E+00  0.63176652123E+02  0.63176652123E+02  0.00000000000E+00 0. -1.
         21   -1    0    0  501  503 -0.00000000000E+00 -0.00000000000E+00 -0.32874555436E+02  0.32874555436E+02  0.00000000000E+00 0.  1.
          2    1    1    2  501    0  0.53324674847E+01  0.20184433681E+02 -0.27538987702E+02  0.34557812664E+02  0.00000000000E+00 0.  1.
         -2    1    1    2    0  502 -0.53324674847E+01 -0.20184433681E+02  0.57841084389E+02  0.61493394896E+02  0.00000000000E+00 0. -1.
<mgrwt>
<rscale>  2 0.20876939E+02</rscale>
<asrwt>0</asrwt>
<pdfrwt beam="1">  1       21 0.97194849E-02 0.20876939E+02</pdfrwt>
<pdfrwt beam="2">  1       21 0.50576239E-02 0.20876939E+02</pdfrwt>
<totfact> 0.16800323E+07</totfact>
</mgrwt>
</event>
<event>
 4    1  0.2721071E+004  0.2324660E+02  0.7546771E-02  0.1687544E+00
         21   -1    0    0  501  502  0.00000000000E+00  0.00000000000E+00  0.10677272017E+03  0.10677272017E+03  0.00000000000E+00 0. -1.
         21   -1    0    0  502  503 -0.00000000000E+00 -0.00000000000E+00 -0.61693978303E+02  0.61693978303E+02  0.00000000000E+00 0.  1.
          2    1    1    2  501    0  0.23165728758E+02  0.19373341668E+01  0.10324361866E+03  0.10582839433E+03  0.00000000000E+00 0. -1.
         -2    1    1    2    0  503 -0.23165728758E+02 -0.19373341668E+01 -0.58164876797E+02  0.62638304139E+02  0.00000000000E+00 0.  1.
<mgrwt>
<rscale>  2 0.23246597E+02</rscale>
<asrwt>0</asrwt>
<pdfrwt beam="1">  1       21 0.16426572E-01 0.23246597E+02</pdfrwt>
<pdfrwt beam="2">  1       21 0.94913813E-02 0.23246597E+02</pdfrwt>
<totfact> 0.25660565E+06</totfact>
</mgrwt>
</event>
<event>
 4    1  0.2721071E+004  0.2855605E+02  0.7546771E-02  0.1614621E+00
         21   -1    0    0  501  502  0.00000000000E+00  0.00000000000E+00  0.28762606345E+02  0.28762606345E+02  0.00000000000E+00 0.  1.
         21   -1    0    0  502  503 -0.00000000000E+00 -0.00000000000E+00 -0.30648417166E+02  0.30648417166E+02  0.00000000000E+00 0. -1.
          2    1    1    2  501    0 -0.28474358175E+02  0.21584480430E+01  0.71901771768E+01  0.29447353349E+02  0.00000000000E+00 0.  1.
         -2    1    1    2    0  503  0.28474358175E+02 -0.21584480430E+01 -0.90759879983E+01  0.29963670162E+02  0.00000000000E+00 0. -1.
<mgrwt>
<rscale>  2 0.28556050E+02</rscale>
<asrwt>0</asrwt>
<pdfrwt beam="1">  1       21 0.44250164E-02 0.28556050E+02</pdfrwt>
<pdfrwt beam="2">  1       21 0.47151411E-02 0.28556050E+02</pdfrwt>
<totfact> 0.72265055E+07</totfact>
</mgrwt>
</event>
<event>
 4    1  0.2721071E+004  0.2065190E+02  0.7546771E-02  0.1732666E+00
         21   -1    0    0  503  502  0.00000000000E+00  0.00000000000E+00  0.13327064142E+03  0.13327064142E+03  0.00000000000E+00 0. -1.
         21   -1    0    0  501  503 -0.00000000000E+00 -0.00000000000E+00 -0.14735569927E+02  0.14735569927E+02  0.00000000000E+00 0.  1.
          2    1    1    2  501    0  0.12170232333E+01 -0.20616012281E+02 -0.62083004826E+01  0.21564881238E+02  0.00000000000E+00 0.  1.
         -2    1    1    2    0  502 -0.12170232333E+01  0.20616012281E+02  0.12474337198E+03  0.12644133011E+03  0.00000000000E+00 0. -1.
<mgrwt>
<rscale>  2 0.20651903E+02</rscale>
<asrwt>0</asrwt>
<pdfrwt beam="1">  1       21 0.20503175E-01 0.20651903E+02</pdfrwt>
<pdfrwt beam="2">  1       21 0.22670108E-02 0.20651903E+02</pdfrwt>
<totfact> 0.16602042E+07</totfact>
</mgrwt>
</event>
<event>
 4    1  0.2721071E+004  0.2880778E+02  0.7546771E-02  0.1611654E+00
         21   -1    0    0  501  502  0.00000000000E+00  0.00000000000E+00  0.25466931468E+02  0.25466931468E+02  0.00000000000E+00 0. -1.
         21   -1    0    0  502  503 -0.00000000000E+00 -0.00000000000E+00 -0.10405763005E+03  0.10405763005E+03  0.00000000000E+00 0.  1.
          2    1    1    2  501    0  0.28521939077E+02  0.40481138227E+01  0.14376837795E+02  0.32195988868E+02  0.00000000000E+00 0. -1.
         -2    1    1    2    0  503 -0.28521939077E+02 -0.40481138227E+01 -0.92967536377E+02  0.97328572651E+02  0.00000000000E+00 0.  1.
<mgrwt>
<rscale>  2 0.28807781E+02</rscale>
<asrwt>0</asrwt>
<pdfrwt beam="1">  1       21 0.39179895E-02 0.28807781E+02</pdfrwt>
<pdfrwt beam="2">  1       21 0.16008866E-01 0.28807781E+02</pdfrwt>
<totfact> 0.11587516E+07</totfact>
</mgrwt>
</event>
<event>
 4    1  0.2721071E+004  0.2000701E+02  0.7546771E-02  0.1745189E+00
         21   -1    0    0  501  502  0.00000000000E+00  0.00000000000E+00  0.10954880432E+02  0.10954880432E+02  0.00000000000E+00 0. -1.
         21   -1    0    0  502  503 -0.00000000000E+00 -0.00000000000E+00 -0.41764272828E+02  0.41764272828E+02  0.00000000000E+00 0.  1.
          2    1    1    2  501    0 -0.18475203009E+02 -0.76777088794E+01 -0.60809468115E+01  0.20910721030E+02  0.00000000000E+00 0. -1.
         -2    1    1    2    0  503  0.18475203009E+02  0.76777088794E+01 -0.24728445585E+02  0.31808432230E+02  0.00000000000E+00 0.  1.
<mgrwt>
<rscale>  2 0.20007007E+02</rscale>
<asrwt>0</asrwt>
<pdfrwt beam="1">  1       21 0.16853662E-02 0.20007007E+02</pdfrwt>
<pdfrwt beam="2">  1       21 0.64252727E-02 0.20007007E+02</pdfrwt>
<totfact> 0.17844680E+08</totfact>
</mgrwt>
</event>
<event>
 4    1  0.2721071E+004  0.2129149E+02  0.7546771E-02  0.1720801E+00
         21   -1    0    0  501  502  0.00000000000E+00  0.00000000000E+00  0.58940955480E+01  0.58940955480E+01  0.00000000000E+00 0. -1.
         21   -1    0    0  502  503 -0.00000000000E+00 -0.00000000000E+00 -0.10835101225E+03  0.10835101225E+03  0.00000000000E+00 0.  1.
          2    1    1    2  501    0 -0.13464304208E+02  0.16493640343E+02 -0.20458675990E+02  0.29527700263E+02  0.00000000000E+00 0.  1.
         -2    1    1    2    0  503  0.13464304208E+02 -0.16493640343E+02 -0.81998240716E+02  0.84717407539E+02  0.00000000000E+00 0. -1.
<mgrwt>
<rscale>  2 0.21291493E+02</rscale>
<asrwt>0</asrwt>
<pdfrwt beam="1">  1       21 0.90678383E-03 0.21291493E+02</pdfrwt>
<pdfrwt beam="2">  1       21 0.16669388E-01 0.21291493E+02</pdfrwt>
<totfact> 0.95674875E+07</totfact>
</mgrwt>
</event>
<event>
 4    1  0.2721071E+004  0.2598627E+02  0.7546771E-02  0.1647227E+00
         21   -1    0    0  501  502  0.00000000000E+00  0.00000000000E+00  0.15597804514E+01  0.15597804514E+01  0.00000000000E+00 0. -1.
         21   -1    0    0  502  503 -0.00000000000E+00 -0.00000000000E+00 -0.44887123045E+03  0.44887123045E+03  0.00000000000E+00 0.  1.
          2    1    1    2  501    0  0.24804534160E+02  0.77473484316E+01 -0.18122250612E+03  0.18307616734E+03  0.00000000000E+00 0.  1.
         -2    1    1    2    0  503 -0.24804534160E+02 -0.77473484316E+01 -0.26608894388E+03  0.26735484356E+03  0.00000000000E+00 0. -1.
<mgrwt>
<rscale>  2 0.25986272E+02</rscale>
<asrwt>0</asrwt>
<pdfrwt beam="1">  1       21 0.23996639E-03 0.25986272E+02</pdfrwt>
<pdfrwt beam="2">  1       21 0.69057064E-01 0.25986272E+02</pdfrwt>
<totfact> 0.50780734E+07</totfact>
</mgrwt>
</event>
<event>
 4    1  0.2721071E+004  0.2720083E+02  0.7546771E-02  0.1631265E+00
         21   -1    0    0  501  502  0.00000000000E+00  0.00000000000E+00  0.11061750869E+01  0.11061750869E+01  0.00000000000E+00 0.  1.
         21   -1    0    0  502  503 -0.00000000000E+00 -0.00000000000E+00 -0.67771532958E+03  0.67771532958E+03  0.00000000000E+00 0. -1.
          2    1    1    2  501    0  0.27123501602E+02  0.20495949776E+01 -0.37708447848E+03  0.37806426582E+03  0.00000000000E+00 0. -1.
         -2    1    1    2    0  503 -0.27123501602E+02 -0.20495949776E+01 -0.29952467602E+03  0.30075723885E+03  0.00000000000E+00 0.  1.
<mgrwt>
<rscale>  2 0.27200830E+02</rscale>
<asrwt>0</asrwt>
<pdfrwt beam="1">  1       21 0.17018060E-03 0.27200830E+02</pdfrwt>
<pdfrwt beam="2">  1       21 0.10426401E+00 0.27200830E+02</pdfrwt>
<totfact> 0.35001254E+07</totfact>
</mgrwt>
</event>
<event>
 4    1  0.2721071E+004  0.2186591E+02  0.7546771E-02  0.1710581E+00
         21   -1    0    0  503  502  0.00000000000E+00  0.00000000000E+00  0.17237887499E+03  0.17237887499E+03  0.00000000000E+00 0. -1.
         21   -1    0    0  501  503 -0.00000000000E+00 -0.00000000000E+00 -0.35484883274E+01  0.35484883274E+01  0.00000000000E+00 0.  1.
          2    1    1    2  501    0 -0.15154141335E+02 -0.15762934145E+02  0.43310805120E+02  0.48517460080E+02  0.00000000000E+00 0.  1.
         -2    1    1    2    0  502  0.15154141335E+02  0.15762934145E+02  0.12551958154E+03  0.12740990324E+03  0.00000000000E+00 0. -1.
<mgrwt>
<rscale>  2 0.21865912E+02</rscale>
<asrwt>0</asrwt>
<pdfrwt beam="1">  1       21 0.26519820E-01 0.21865912E+02</pdfrwt>
<pdfrwt beam="2">  1       21 0.54592142E-03 0.21865912E+02</pdfrwt>
<totfact> 0.90883241E+07</totfact>
</mgrwt>
</event>
<event>
 4    1  0.2721071E+004  0.2058936E+02  0.7546771E-02  0.1733856E+00
         21   -1    0    0  503  502  0.00000000000E+00  0.00000000000E+00  0.76777772777E+02  0.76777772777E+02  0.00000000000E+00 0. -1.
         21   -1    0    0  501  503 -0.00000000000E+00 -0.00000000000E+00 -0.56359748453E+01  0.56359748453E+01  0.00000000000E+00 0.  1.
          2    1    1    2  501    0  0.18183494995E+02 -0.96582713631E+01  0.29695903526E+02  0.36135417282E+02  0.00000000000E+00 0.  1.
         -2    1    1    2    0  502 -0.18183494995E+02  0.96582713631E+01  0.41445894406E+02  0.46278330340E+02  0.00000000000E+00 0. -1.
<mgrwt>
<rscale>  2 0.20589359E+02</rscale>
<asrwt>0</asrwt>
<pdfrwt beam="1">  1       21 0.11811964E-01 0.20589359E+02</pdfrwt>
<pdfrwt beam="2">  1       21 0.86707311E-03 0.20589359E+02</pdfrwt>
<totfact> 0.18109243E+08</totfact>
</mgrwt>
</event>
<event>
 4    1  0.2721071E+004  0.2358649E+02  0.7546771E-02  0.1682176E+00
         21   -1    0    0  503  502  0.00000000000E+00  0.00000000000E+00  0.17037015526E+03  0.17037015526E+03  0.00000000000E+00 0. -1.
         21   -1    0    0  501  503 -0.00000000000E+00 -0.00000000000E+00 -0.37771426432E+01  0.37771426432E+01  0.00000000000E+00 0.  1.
          2    1    1    2  501    0  0.93578014476E+01 -0.21650731493E+02  0.51245547635E+02  0.56413019548E+02  0.00000000000E+00 0.  1.
         -2    1    1    2    0  502 -0.93578014476E+01  0.21650731493E+02  0.11534746498E+03  0.11773427835E+03  0.00000000000E+00 0. -1.
<mgrwt>
<rscale>  2 0.23586492E+02</rscale>
<asrwt>0</asrwt>
<pdfrwt beam="1">  1       21 0.26210787E-01 0.23586492E+02</pdfrwt>
<pdfrwt beam="2">  1       21 0.58109900E-03 0.23586492E+02</pdfrwt>
<totfact> 0.86365720E+07</totfact>
</mgrwt>
</event>
<event>
 4    1  0.2721071E+004  0.2672396E+02  0.7546771E-02  0.1637407E+00
         21   -1    0    0  501  502  0.00000000000E+00  0.00000000000E+00  0.69607018438E+03  0.69607018438E+03  0.00000000000E+00 0. -1.
         21   -1    0    0  502  503 -0.00000000000E+00 -0.00000000000E+00 -0.11234477434E+01  0.11234477434E+01  0.00000000000E+00 0.  1.
          2    1    1    2  501    0 -0.21254373956E+02 -0.16199434566E+02  0.45013926434E+03  0.45093184340E+03  0.00000000000E+00 0. -1.
         -2    1    1    2    0  503  0.21254373956E+02  0.16199434566E+02  0.24480747229E+03  0.24626178872E+03  0.00000000000E+00 0.  1.
<mgrwt>
<rscale>  2 0.26723961E+02</rscale>
<asrwt>0</asrwt>
<pdfrwt beam="1">  1       21 0.10708738E+00 0.26723961E+02</pdfrwt>
<pdfrwt beam="2">  1       21 0.17283867E-03 0.26723961E+02</pdfrwt>
<totfact> 0.32141020E+07</totfact>
</mgrwt>
</event>
<event>
 4    1  0.2721071E+004  0.2278929E+02  0.7546771E-02  0.1694949E+00
         21   -1    0    0  503  502  0.00000000000E+00  0.00000000000E+00  0.28312416305E+03  0.28312416305E+03  0.00000000000E+00 0.  1.
         21   -1    0    0  501  503 -0.00000000000E+00 -0.00000000000E+00 -0.43734530656E+01  0.43734530656E+01  0.00000000000E+00 0. -1.
          2    1    1    2  501    0  0.16597342474E+02  0.15616655178E+02  0.29845803362E+02  0.37551613473E+02  0.00000000000E+00 0. -1.
         -2    1    1    2    0  502 -0.16597342474E+02 -0.15616655178E+02  0.24890490662E+03  0.24994600264E+03  0.00000000000E+00 0.  1.
<mgrwt>
<rscale>  2 0.22789289E+02</rscale>
<asrwt>0</asrwt>
<pdfrwt beam="1">  1       21 0.43557549E-01 0.22789289E+02</pdfrwt>
<pdfrwt beam="2">  1       21 0.67283915E-03 0.22789289E+02</pdfrwt>
<totfact> 0.26974909E+07</totfact>
</mgrwt>
</event>
<event>
 4    1  0.2721071E+004  0.2698693E+02  0.7546771E-02  0.1634001E+00
         21   -1    0    0  501  502  0.00000000000E+00  0.00000000000E+00  0.27819667942E+03  0.27819667942E+03  0.00000000000E+00 0.  1.
         21   -1    0    0  502  503 -0.00000000000E+00 -0.00000000000E+00 -0.29686757810E+01  0.29686757810E+01  0.00000000000E+00 0. -1.
          2    1    1    2  501    0  0.10796815497E+02  0.24733041476E+02  0.18593740210E+03  0.18788563560E+03  0.00000000000E+00 0. -1.
         -2    1    1    2    0  503 -0.10796815497E+02 -0.24733041476E+02  0.89290601545E+02  0.93279719606E+02  0.00000000000E+00 0.  1.
<mgrwt>
<rscale>  2 0.26986933E+02</rscale>
<asrwt>0</asrwt>
<pdfrwt beam="1">  1       21 0.42799469E-01 0.26986933E+02</pdfrwt>
<pdfrwt beam="2">  1       21 0.45671957E-03 0.26986933E+02</pdfrwt>
<totfact> 0.51395155E+07</totfact>
</mgrwt>
</event>
<event>
 4    1  0.2721071E+004  0.2787339E+02  0.7546771E-02  0.1622860E+00
         21   -1    0    0  501  502  0.00000000000E+00  0.00000000000E+00  0.71909224392E+01  0.71909224392E+01  0.00000000000E+00 0. -1.
         21   -1    0    0  502  503 -0.00000000000E+00 -0.00000000000E+00 -0.11615421760E+03  0.11615421760E+03  0.00000000000E+00 0.  1.
          2    1    1    2  501    0 -0.50883558427E+01  0.27405005129E+02 -0.38183833778E+02  0.47275055085E+02  0.00000000000E+00 0. -1.
         -2    1    1    2    0  503  0.50883558427E+01 -0.27405005129E+02 -0.70779461380E+02  0.76070084951E+02  0.00000000000E+00 0.  1.
<mgrwt>
<rscale>  2 0.27873386E+02</rscale>
<asrwt>0</asrwt>
<pdfrwt beam="1">  1       21 0.11062958E-02 0.27873386E+02</pdfrwt>
<pdfrwt beam="2">  1       21 0.17869878E-01 0.27873386E+02</pdfrwt>
<totfact> 0.67470935E+07</totfact>
</mgrwt>
</event>
<event>
 4    1  0.2721071E+004  0.2473992E+02  0.7546771E-02  0.1664766E+00
         21   -1    0    0  503  502  0.00000000000E+00  0.00000000000E+00  0.12768060071E+03  0.12768060071E+03  0.00000000000E+00 0. -1.
         21   -1    0    0  501  503 -0.00000000000E+00 -0.00000000000E+00 -0.12134383791E+02  0.12134383791E+02  0.00000000000E+00 0.  1.
          2    1    1    2  501    0  0.19278270580E+02 -0.15505218529E+02  0.34001603388E+01  0.24972477020E+02  0.00000000000E+00 0.  1.
         -2    1    1    2    0  502 -0.19278270580E+02  0.15505218529E+02  0.11214605658E+03  0.11484250748E+03  0.00000000000E+00 0. -1.
<mgrwt>
<rscale>  2 0.24739918E+02</rscale>
<asrwt>0</asrwt>
<pdfrwt beam="1">  1       21 0.19643168E-01 0.24739918E+02</pdfrwt>
<pdfrwt beam="2">  1       21 0.18668284E-02 0.24739918E+02</pdfrwt>
<totfact> 0.25076037E+07</totfact>
</mgrwt>
</event>
<event>
 4    1  0.2721071E+004  0.2081292E+02  0.7546771E-02  0.1729629E+00
         21   -1    0    0  501  502  0.00000000000E+00  0.00000000000E+00  0.78116467072E+02  0.78116467072E+02  0.00000000000E+00 0. -1.
         21   -1    0    0  502  503 -0.00000000000E+00 -0.00000000000E+00 -0.56783905245E+01  0.56783905245E+01  0.00000000000E+00 0.  1.
          2    1    1    2  501    0  0.18866135425E+02 -0.87890082489E+01  0.42633790850E+02  0.47442785058E+02  0.00000000000E+00 0.  1.
         -2    1    1    2    0  503 -0.18866135425E+02  0.87890082489E+01  0.29804285698E+02  0.36352072538E+02  0.00000000000E+00 0. -1.
<mgrwt>
<rscale>  2 0.20812922E+02</rscale>
<asrwt>0</asrwt>
<pdfrwt beam="1">  1       21 0.12017917E-01 0.20812922E+02</pdfrwt>
<pdfrwt beam="2">  1       21 0.87359860E-03 0.20812922E+02</pdfrwt>
<totfact> 0.17458197E+08</totfact>
</mgrwt>
</event>
<event>
 4    1  0.2721071E+004  0.2781269E+02  0.7546771E-02  0.1623606E+00
         21   -1    0    0  501  502  0.00000000000E+00  0.00000000000E+00  0.75935246233E+01  0.75935246233E+01  0.00000000000E+00 0.  1.
         21   -1    0    0  502  503 -0.00000000000E+00 -0.00000000000E+00 -0.10542720386E+03  0.10542720386E+03  0.00000000000E+00 0. -1.
          2    1    1    2  501    0  0.19925647435E+02  0.19403971201E+02 -0.38535317496E+02  0.47523848945E+02  0.00000000000E+00 0.  1.
         -2    1    1    2    0  503 -0.19925647435E+02 -0.19403971201E+02 -0.59298361741E+02  0.65496879538E+02  0.00000000000E+00 0. -1.
<mgrwt>
<rscale>  2 0.27812686E+02</rscale>
<asrwt>0</asrwt>
<pdfrwt beam="1">  1       21 0.11682345E-02 0.27812686E+02</pdfrwt>
<pdfrwt beam="2">  1       21 0.16219571E-01 0.27812686E+02</pdfrwt>
<totfact> 0.73442514E+07</totfact>
</mgrwt>
</event>
<event>
 4    1  0.2721071E+004  0.2028243E+02  0.7546771E-02  0.1739769E+00
         21   -1    0    0  503  502  0.00000000000E+00  0.00000000000E+00  0.31899912147E+03  0.31899912147E+03  0.00000000000E+00 0. -1.
         21   -1    0    0  501  503 -0.00000000000E+00 -0.00000000000E+00 -0.29157753107E+01  0.29157753107E+01  0.00000000000E+00 0.  1.
          2    1    1    2  501    0 -0.18997758738E+02 -0.71036584734E+01  0.37837484073E+02  0.42930781518E+02  0.00000000000E+00 0.  1.
         -2    1    1    2    0  502  0.18997758738E+02  0.71036584734E+01  0.27824586208E+03  0.27898411526E+03  0.00000000000E+00 0. -1.
<mgrwt>
<rscale>  2 0.20282426E+02</rscale>
<asrwt>0</asrwt>
<pdfrwt beam="1">  1       21 0.49076760E-01 0.20282426E+02</pdfrwt>
<pdfrwt beam="2">  1       21 0.44858107E-03 0.20282426E+02</pdfrwt>
<totfact> 0.38003716E+07</totfact>
</mgrwt>
</event>
<event>
 4    1  0.2721071E+004  0.2088717E+02  0.7546771E-02  0.1728240E+00
         21   -1    0    0  503  502  0.00000000000E+00  0.00000000000E+00  0.46779455924E+02  0.46779455924E+02  0.00000000000E+00 0.  1.
         21   -1    0    0  501  503 -0.00000000000E+00 -0.00000000000E+00 -0.94943068913E+01  0.94943068913E+01  0.00000000000E+00 0. -1.
          2    1    1    2  501    0  0.20107647694E+02 -0.56529816796E+01  0.22386790972E+02  0.30617676392E+02  0.00000000000E+00 0.  1.
         -2    1    1    2    0  502 -0.20107647694E+02  0.56529816796E+01  0.14898358061E+02  0.25656086423E+02  0.00000000000E+00 0. -1.
<mgrwt>
<rscale>  2 0.20887166E+02</rscale>
<asrwt>0</asrwt>
<pdfrwt beam="1">  1       21 0.71968393E-02 0.20887166E+02</pdfrwt>
<pdfrwt beam="2">  1       21 0.14606626E-02 0.20887166E+02</pdfrwt>
<totfact> 0.18727450E+08</totfact>
</mgrwt>
</event>
<event>
 4    1  0.2721071E+004  0.2392521E+02  0.7546771E-02  0.1676937E+00
         21   -1    0    0  501  502  0.00000000000E+00  0.00000000000E+00  0.90188341053E+02  0.90188341053E+02  0.00000000000E+00 0. -1.
         21   -1    0    0  502  503 -0.00000000000E+00 -0.00000000000E+00 -0.89739210121E+01  0.89739210121E+01  0.00000000000E+00 0.  1.
          2    1    1    2  501    0  0.11498551617E+02  0.20980915124E+02  0.67433332313E+02  0.71551867869E+02  0.00000000000E+00 0. -1.
         -2    1    1    2    0  503 -0.11498551617E+02 -0.20980915124E+02  0.13781087728E+02  0.27610394196E+02  0.00000000000E+00 0.  1.
<mgrwt>
<rscale>  2 0.23925206E+02</rscale>
<asrwt>0</asrwt>
<pdfrwt beam="1">  1       21 0.13875129E-01 0.23925206E+02</pdfrwt>
<pdfrwt beam="2">  1       21 0.13806033E-02 0.23925206E+02</pdfrwt>
<totfact> 0.71701167E+07</totfact>
</mgrwt>
</event>
<event>
 4    1  0.2721071E+004  0.3979221E+02  0.7546771E-02  0.1509746E+00
         21   -1    0    0  503  502  0.00000000000E+00  0.00000000000E+00  0.18507280349E+03  0.18507280349E+03  0.00000000000E+00 0. -1.
         21   -1    0    0  501  503 -0.00000000000E+00 -0.00000000000E+00 -0.23267306242E+02  0.23267306242E+02  0.00000000000E+00 0.  1.
          2    1    1    2  501    0  0.38580185610E+02  0.97462533984E+01 -0.19296925910E+01  0.39838974517E+02  0.00000000000E+00 0.  1.
         -2    1    1    2    0  502 -0.38580185610E+02 -0.97462533984E+01  0.16373518984E+03  0.16850113521E+03  0.00000000000E+00 0. -1.
<mgrwt>
<rscale>  2 0.39792213E+02</rscale>
<asrwt>0</asrwt>
<pdfrwt beam="1">  1       21 0.28472738E-01 0.39792213E+02</pdfrwt>
<pdfrwt beam="2">  1       21 0.35795857E-02 0.39792213E+02</pdfrwt>
<totfact> 0.50092429E+06</totfact>
</mgrwt>
</event>
<event>
 4    1  0.2721071E+004  0.4503368E+02  0.7546771E-02  0.1474131E+00
         21   -1    0    0  501  502  0.00000000000E+00  0.00000000000E+00  0.80958810980E+02  0.80958810980E+02  0.00000000000E+00 0.  1.
         21   -1    0    0  502  503 -0.00000000000E+00 -0.00000000000E+00 -0.33461891796E+02  0.33461891796E+02  0.00000000000E+00 0. -1.
          2    1    1    2  501    0 -0.44972729969E+02 -0.23422811308E+01  0.52432583057E+02  0.69117353015E+02  0.00000000000E+00 0.  1.
         -2    1    1    2    0  503  0.44972729969E+02  0.23422811308E+01 -0.49356638730E+01  0.45303349761E+02  0.00000000000E+00 0. -1.
<mgrwt>
<rscale>  2 0.45033684E+02</rscale>
<asrwt>0</asrwt>
<pdfrwt beam="1">  1       21 0.12455202E-01 0.45033684E+02</pdfrwt>
<pdfrwt beam="2">  1       21 0.51479834E-02 0.45033684E+02</pdfrwt>
<totfact> 0.12315102E+07</totfact>
</mgrwt>
</event>
<event>
 4    1  0.2721071E+004  0.3297874E+02  0.7546771E-02  0.1567319E+00
         21   -1    0    0  503  502  0.00000000000E+00  0.00000000000E+00  0.37576581863E+02  0.37576581863E+02  0.00000000000E+00 0.  1.
         21   -1    0    0  501  503 -0.00000000000E+00 -0.00000000000E+00 -0.69111490668E+02  0.69111490668E+02  0.00000000000E+00 0. -1.
          2    1    1    2  501    0  0.34393967520E+01  0.32798897400E+02 -0.56435274553E+02  0.65364648967E+02  0.00000000000E+00 0. -1.
         -2    1    1    2    0  502 -0.34393967520E+01 -0.32798897400E+02  0.24900365748E+02  0.41323423564E+02  0.00000000000E+00 0.  1.
<mgrwt>
<rscale>  2 0.32978737E+02</rscale>
<asrwt>0</asrwt>
<pdfrwt beam="1">  1       21 0.57810126E-02 0.32978737E+02</pdfrwt>
<pdfrwt beam="2">  1       21 0.10632537E-01 0.32978737E+02</pdfrwt>
<totfact> 0.12746600E+07</totfact>
</mgrwt>
</event>
<event>
 4    1  0.2721071E+004  0.2704914E+02  0.7546771E-02  0.1633202E+00
         21   -1    0    0  503  502  0.00000000000E+00  0.00000000000E+00  0.77595307981E+01  0.77595307981E+01  0.00000000000E+00 0. -1.
         21   -1    0    0  501  503 -0.00000000000E+00 -0.00000000000E+00 -0.10393873655E+03  0.10393873655E+03  0.00000000000E+00 0.  1.
          2    1    1    2  501    0  0.46602058363E+01  0.26644671046E+02 -0.31074508401E+02  0.41198071386E+02  0.00000000000E+00 0. -1.
         -2    1    1    2    0  502 -0.46602058363E+01 -0.26644671046E+02 -0.65104697353E+02  0.70500195964E+02  0.00000000000E+00 0.  1.
<mgrwt>
<rscale>  2 0.27049141E+02</rscale>
<asrwt>0</asrwt>
<pdfrwt beam="1">  1       21 0.11937739E-02 0.27049141E+02</pdfrwt>
<pdfrwt beam="2">  1       21 0.15990575E-01 0.27049141E+02</pdfrwt>
<totfact> 0.72343490E+07</totfact>
</mgrwt>
</event>
<event>
 4    1  0.2721071E+004  0.3339636E+02  0.7546771E-02  0.1563320E+00
         21   -1    0    0  501  502  0.00000000000E+00  0.00000000000E+00  0.13106927893E+03  0.13106927893E+03  0.00000000000E+00 0.  1.
         21   -1    0    0  502  503 -0.00000000000E+00 -0.00000000000E+00 -0.85780302582E+01  0.85780302582E+01  0.00000000000E+00 0. -1.
          2    1    1    2  501    0 -0.28325658870E+02  0.17691062683E+02  0.67492598740E+02  0.75303170810E+02  0.00000000000E+00 0.  1.
         -2    1    1    2    0  503  0.28325658870E+02 -0.17691062683E+02  0.54998649927E+02  0.64344138374E+02  0.00000000000E+00 0. -1.
<mgrwt>
<rscale>  2 0.33396357E+02</rscale>
<asrwt>0</asrwt>
<pdfrwt beam="1">  1       21 0.20164503E-01 0.33396357E+02</pdfrwt>
<pdfrwt beam="2">  1       21 0.13196971E-02 0.33396357E+02</pdfrwt>
<totfact> 0.43366148E+07</totfact>
</mgrwt>
</event>
<event>
 4    1  0.2721071E+004  0.3055405E+02  0.7546771E-02  0.1592044E+00
         21   -1    0    0  501  502  0.00000000000E+00  0.00000000000E+00  0.16630100404E+03  0.16630100404E+03  0.00000000000E+00 0. -1.
         21   -1    0    0  502  503 -0.00000000000E+00 -0.00000000000E+00 -0.75578693217E+01  0.75578693217E+01  0.00000000000E+00 0.  1.
          2    1    1    2  501    0  0.16854343026E+02  0.25484923130E+02  0.12346190866E+03  0.12718645005E+03  0.00000000000E+00 0. -1.
         -2    1    1    2    0  503 -0.16854343026E+02 -0.25484923130E+02  0.35281226056E+02  0.46672423312E+02  0.00000000000E+00 0.  1.
<mgrwt>
<rscale>  2 0.30554054E+02</rscale>
<asrwt>0</asrwt>
<pdfrwt beam="1">  1       21 0.25584767E-01 0.30554054E+02</pdfrwt>
<pdfrwt beam="2">  1       21 0.11627493E-02 0.30554054E+02</pdfrwt>
<totfact> 0.33766512E+07</totfact>
</mgrwt>
</event>
<event>
 4    1  0.2721071E+004  0.2217431E+02  0.7546771E-02  0.1705255E+00
         21   -1    0    0  501  502  0.00000000000E+00  0.00000000000E+00  0.20676660545E+02  0.20676660545E+02  0.00000000000E+00 0. -1.
         21   -1    0    0  502  503 -0.00000000000E+00 -0.00000000000E+00 -0.44543707159E+02  0.44543707159E+02  0.00000000000E+00 0.  1.
          2    1    1    2  501    0  0.21569262892E+02  0.51445956042E+01  0.10330721812E+02  0.24462701788E+02  0.00000000000E+00 0. -1.
         -2    1    1    2    0  503 -0.21569262892E+02 -0.51445956042E+01 -0.34197768426E+02  0.40757665916E+02  0.00000000000E+00 0.  1.
<mgrwt>
<rscale>  2 0.22174309E+02</rscale>
<asrwt>0</asrwt>
<pdfrwt beam="1">  1       21 0.31810247E-02 0.22174309E+02</pdfrwt>
<pdfrwt beam="2">  1       21 0.68528780E-02 0.22174309E+02</pdfrwt>
<totfact> 0.62464145E+07</totfact>
</mgrwt>
</event>
<event>
 4    1  0.2721071E+004  0.2829310E+02  0.7546771E-02  0.1617761E+00
         21   -1    0    0  503  502  0.00000000000E+00  0.00000000000E+00  0.19835212126E+02  0.19835212126E+02  0.00000000000E+00 0. -1.
         21   -1    0    0  501  503 -0.00000000000E+00 -0.00000000000E+00 -0.48946289030E+02  0.48946289030E+02  0.00000000000E+00 0.  1.
          2    1    1    2  501    0  0.54251006142E+01 -0.27768102485E+02 -0.14938052094E+00  0.28293489477E+02  0.00000000000E+00 0. -1.
         -2    1    1    2    0  502 -0.54251006142E+01  0.27768102485E+02 -0.28961696384E+02  0.40488011678E+02  0.00000000000E+00 0.  1.
<mgrwt>
<rscale>  2 0.28293095E+02</rscale>
<asrwt>0</asrwt>
<pdfrwt beam="1">  1       21 0.30515711E-02 0.28293095E+02</pdfrwt>
<pdfrwt beam="2">  1       21 0.75301983E-02 0.28293095E+02</pdfrwt>
<totfact> 0.60835737E+07</totfact>
</mgrwt>
</event>
<event>
 4    1  0.2721071E+004  0.2871403E+02  0.7546771E-02  0.1612754E+00
         21   -1    0    0  503  502  0.00000000000E+00  0.00000000000E+00  0.25775242893E+02  0.25775242893E+02  0.00000000000E+00 0. -1.
         21   -1    0    0  501  503 -0.00000000000E+00 -0.00000000000E+00 -0.62265366761E+02  0.62265366761E+02  0.00000000000E+00 0.  1.
          2    1    1    2  501    0 -0.26974790317E+02  0.98415439385E+01 -0.48941621511E+02  0.56743084300E+02  0.00000000000E+00 0.  1.
         -2    1    1    2    0  502  0.26974790317E+02 -0.98415439385E+01  0.12451497644E+02  0.31297525354E+02  0.00000000000E+00 0. -1.
<mgrwt>
<rscale>  2 0.28714026E+02</rscale>
<asrwt>0</asrwt>
<pdfrwt beam="1">  1       21 0.39654220E-02 0.28714026E+02</pdfrwt>
<pdfrwt beam="2">  1       21 0.95792872E-02 0.28714026E+02</pdfrwt>
<totfact> 0.27120959E+07</totfact>
</mgrwt>
</event>
<event>
 4    1  0.2721071E+004  0.2810494E+02  0.7546771E-02  0.1620033E+00
         21   -1    0    0  501  502  0.00000000000E+00  0.00000000000E+00  0.85279054239E+01  0.85279054239E+01  0.00000000000E+00 0.  1.
         21   -1    0    0  502  503 -0.00000000000E+00 -0.00000000000E+00 -0.96394179611E+02  0.96394179611E+02  0.00000000000E+00 0. -1.
          2    1    1    2  501    0 -0.95550449457E+01 -0.26430834708E+02 -0.33557901527E+02  0.43772373275E+02  0.00000000000E+00 0.  1.
         -2    1    1    2    0  503  0.95550449457E+01  0.26430834708E+02 -0.54308372660E+02  0.61149711759E+02  0.00000000000E+00 0. -1.
<mgrwt>
<rscale>  2 0.28104945E+02</rscale>
<asrwt>0</asrwt>
<pdfrwt beam="1">  1       21 0.13119853E-02 0.28104945E+02</pdfrwt>
<pdfrwt beam="2">  1       21 0.14829875E-01 0.28104945E+02</pdfrwt>
<totfact> 0.71997043E+07</totfact>
</mgrwt>
</event>
<event>
 4    1  0.2721071E+004  0.3415278E+02  0.7546771E-02  0.1556255E+00
         21   -1    0    0  501  502  0.00000000000E+00  0.00000000000E+00  0.65345065849E+02  0.65345065849E+02  0.00000000000E+00 0. -1.
         21   -1    0    0  502  503 -0.00000000000E+00 -0.00000000000E+00 -0.17851517089E+02  0.17851517089E+02  0.00000000000E+00 0.  1.
          2    1    1    2  501    0 -0.29288242926E+02  0.17567328908E+02  0.23368734793E+02  0.41382484029E+02  0.00000000000E+00 0. -1.
         -2    1    1    2    0  503  0.29288242926E+02 -0.17567328908E+02  0.24124813966E+02  0.41814098908E+02  0.00000000000E+00 0.  1.
<mgrwt>
<rscale>  2 0.34152778E+02</rscale>
<asrwt>0</asrwt>
<pdfrwt beam="1">  1       21 0.10053087E-01 0.34152778E+02</pdfrwt>
<pdfrwt beam="2">  1       21 0.27463873E-02 0.34152778E+02</pdfrwt>
<totfact> 0.46326433E+07</totfact>
</mgrwt>
</event>
<event>
 4    1  0.2721071E+004  0.2014679E+02  0.7546771E-02  0.1742425E+00
         21   -1    0    0  503  502  0.00000000000E+00  0.00000000000E+00  0.17126272194E+03  0.17126272194E+03  0.00000000000E+00 0.  1.
         21   -1    0    0  501  503 -0.00000000000E+00 -0.00000000000E+00 -0.39641334374E+01  0.39641334374E+01  0.00000000000E+00 0. -1.
          2    1    1    2  501    0  0.13358317095E+02 -0.15081393913E+02  0.28089767843E+02  0.34567732575E+02  0.00000000000E+00 0. -1.
         -2    1    1    2    0  502 -0.13358317095E+02  0.15081393913E+02  0.13920882066E+03  0.14065912281E+03  0.00000000000E+00 0.  1.
<mgrwt>
<rscale>  2 0.20146788E+02</rscale>
<asrwt>0</asrwt>
<pdfrwt beam="1">  1       21 0.26348105E-01 0.20146788E+02</pdfrwt>
<pdfrwt beam="2">  1       21 0.60986681E-03 0.20146788E+02</pdfrwt>
<totfact> 0.76354440E+07</totfact>
</mgrwt>
</event>
<event>
 4    1  0.2721071E+004  0.2023196E+02  0.7546771E-02  0.1740754E+00
         21   -1    0    0  501  502  0.00000000000E+00  0.00000000000E+00  0.18123451292E+01  0.18123451292E+01  0.00000000000E+00 0.  1.
         21   -1    0    0  502  503 -0.00000000000E+00 -0.00000000000E+00 -0.36891169618E+03  0.36891169618E+03  0.00000000000E+00 0. -1.
          2    1    1    2  501    0 -0.21680440789E+00  0.20230801378E+02 -0.68122159298E+02  0.71063077023E+02  0.00000000000E+00 0. -1.
         -2    1    1    2    0  503  0.21680440789E+00 -0.20230801378E+02 -0.29897719175E+03  0.29966096429E+03  0.00000000000E+00 0.  1.
<mgrwt>
<rscale>  2 0.20231963E+02</rscale>
<asrwt>0</asrwt>
<pdfrwt beam="1">  1       21 0.27882217E-03 0.20231963E+02</pdfrwt>
<pdfrwt beam="2">  1       21 0.56755679E-01 0.20231963E+02</pdfrwt>
<totfact> 0.57187173E+07</totfact>
</mgrwt>
</event>
<event>
 4    1  0.2721071E+004  0.2170729E+02  0.7546771E-02  0.1713364E+00
         21   -1    0    0  503  502  0.00000000000E+00  0.00000000000E+00  0.21055221968E+01  0.21055221968E+01  0.00000000000E+00 0.  1.
         21   -1    0    0  501  503 -0.00000000000E+00 -0.00000000000E+00 -0.34585499008E+03  0.34585499008E+03  0.00000000000E+00 0. -1.
          2    1    1    2  501    0 -0.21567139203E+02 -0.24627532099E+01 -0.27523140283E+03  0.27608609482E+03  0.00000000000E+00 0. -1.
         -2    1    1    2    0  502  0.21567139203E+02  0.24627532099E+01 -0.68518065051E+02  0.71874417459E+02  0.00000000000E+00 0.  1.
<mgrwt>
<rscale>  2 0.21707295E+02</rscale>
<asrwt>0</asrwt>
<pdfrwt beam="1">  1       21 0.32392668E-03 0.21707295E+02</pdfrwt>
<pdfrwt beam="2">  1       21 0.53208430E-01 0.21707295E+02</pdfrwt>
<totfact> 0.53119706E+07</totfact>
</mgrwt>
</event>
<event>
 4    1  0.2721071E+004  0.2951780E+02  0.7546771E-02  0.1603481E+00
         21   -1    0    0  503  502  0.00000000000E+00  0.00000000000E+00  0.23348285875E+03  0.23348285875E+03  0.00000000000E+00 0.  1.
         21   -1    0    0  501  503 -0.00000000000E+00 -0.00000000000E+00 -0.39508356886E+01  0.39508356886E+01  0.00000000000E+00 0. -1.
          2    1    1    2  501    0 -0.25969340947E+02  0.14031896963E+02  0.86810334097E+02  0.91691520369E+02  0.00000000000E+00 0.  1.
         -2    1    1    2    0  502  0.25969340947E+02 -0.14031896963E+02  0.14272168896E+03  0.14574217407E+03  0.00000000000E+00 0. -1.
<mgrwt>
<rscale>  2 0.29517805E+02</rscale>
<asrwt>0</asrwt>
<pdfrwt beam="1">  1       21 0.35920429E-01 0.29517805E+02</pdfrwt>
<pdfrwt beam="2">  1       21 0.60782106E-03 0.29517805E+02</pdfrwt>
<totfact> 0.47753568E+07</totfact>
</mgrwt>
</event>
<event>
 4    1  0.2721071E+004  0.5478926E+02  0.7546771E-02  0.1421098E+00
         21   -1    0    0  501  502  0.00000000000E+00  0.00000000000E+00  0.64468866099E+02  0.64468866099E+02  0.00000000000E+00 0. -1.
         21   -1    0    0  502  503 -0.00000000000E+00 -0.00000000000E+00 -0.19323346954E+03  0.19323346954E+03  0.00000000000E+00 0.  1.
          2    1    1    2  501    0 -0.48142189124E+02 -0.26157082214E+02  0.47876017513E+02  0.72759716716E+02  0.00000000000E+00 0. -1.
         -2    1    1    2    0  503  0.48142189124E+02  0.26157082214E+02 -0.17664062096E+03  0.18494261893E+03  0.00000000000E+00 0.  1.
<mgrwt>
<rscale>  2 0.54789263E+02</rscale>
<asrwt>0</asrwt>
<pdfrwt beam="1">  1       21 0.99182872E-02 0.54789263E+02</pdfrwt>
<pdfrwt beam="2">  1       21 0.29728226E-01 0.54789263E+02</pdfrwt>
<totfact> 0.88093148E+05</totfact>
</mgrwt>
</event>
<event>
 4    1  0.2721071E+004  0.2709931E+02  0.7546771E-02  0.1632559E+00
         21   -1    0    0  503  502  0.00000000000E+00  0.00000000000E+00  0.31567416273E+01  0.31567416273E+01  0.00000000000E+00 0.  1.
         21   -1    0    0  501  503 -0.00000000000E+00 -0.00000000000E+00 -0.23497110708E+03  0.23497110708E+03  0.00000000000E+00 0. -1.
          2    1    1    2  501    0 -0.26700452399E+02 -0.46323229836E+01 -0.10403851615E+03  0.10750993171E+03  0.00000000000E+00 0. -1.
         -2    1    1    2    0  502  0.26700452399E+02  0.46323229836E+01 -0.12777584931E+03  0.13061791700E+03  0.00000000000E+00 0.  1.
<mgrwt>
<rscale>  2 0.27099309E+02</rscale>
<asrwt>0</asrwt>
<pdfrwt beam="1">  1       21 0.48565260E-03 0.27099309E+02</pdfrwt>
<pdfrwt beam="2">  1       21 0.36149398E-01 0.27099309E+02</pdfrwt>
<totfact> 0.64664105E+07</totfact>
</mgrwt>
</event>
<event>
 4    1  0.2721071E+004  0.2741912E+02  0.7546771E-02  0.1628504E+00
         21   -1    0    0  501  502  0.00000000000E+00  0.00000000000E+00  0.51420353844E+02  0.51420353844E+02  0.00000000000E+00 0. -1.
         21   -1    0    0  502  503 -0.00000000000E+00 -0.00000000000E+00 -0.27038800260E+02  0.27038800260E+02  0.00000000000E+00 0.  1.
          2    1    1    2  501    0  0.16613563262E+02  0.21812790003E+02  0.38776299969E+02  0.47491154242E+02  0.00000000000E+00 0. -1.
         -2    1    1    2    0  503 -0.16613563262E+02 -0.21812790003E+02 -0.14394746385E+02  0.30967999862E+02  0.00000000000E+00 0.  1.
<mgrwt>
<rscale>  2 0.27419123E+02</rscale>
<asrwt>0</asrwt>
<pdfrwt beam="1">  1       21 0.79108236E-02 0.27419123E+02</pdfrwt>
<pdfrwt beam="2">  1       21 0.41598154E-02 0.27419123E+02</pdfrwt>
<totfact> 0.34146168E+07</totfact>
</mgrwt>
</event>
<event>
 4    1  0.2721071E+004  0.2021950E+02  0.7546771E-02  0.1740998E+00
         21   -1    0    0  503  502  0.00000000000E+00  0.00000000000E+00  0.11698713174E+01  0.11698713174E+01  0.00000000000E+00 0. -1.
         21   -1    0    0  501  503 -0.00000000000E+00 -0.00000000000E+00 -0.37454006580E+03  0.37454006580E+03  0.00000000000E+00 0.  1.
          2    1    1    2  501    0  0.20194256603E+02  0.10100063099E+01 -0.23529242511E+03  0.23615959313E+03  0.00000000000E+00 0. -1.
         -2    1    1    2    0  502 -0.20194256603E+02 -0.10100063099E+01 -0.13807776937E+03  0.13955034399E+03  0.00000000000E+00 0.  1.
<mgrwt>
<rscale>  2 0.20219498E+02</rscale>
<asrwt>0</asrwt>
<pdfrwt beam="1">  1       21 0.17998018E-03 0.20219498E+02</pdfrwt>
<pdfrwt beam="2">  1       21 0.57621555E-01 0.20219498E+02</pdfrwt>
<totfact> 0.10428616E+08</totfact>
</mgrwt>
</event>
<event>
 4    1  0.2721071E+004  0.4540782E+02  0.7546771E-02  0.1471812E+00
         21   -1    0    0  501  502  0.00000000000E+00  0.00000000000E+00  0.92480234612E+02  0.92480234612E+02  0.00000000000E+00 0. -1.
         21   -1    0    0  502  503 -0.00000000000E+00 -0.00000000000E+00 -0.64758909809E+02  0.64758909809E+02  0.00000000000E+00 0.  1.
          2    1    1    2  501    0  0.17366163467E+02  0.41955768680E+02  0.77524030526E+02  0.89843449778E+02  0.00000000000E+00 0. -1.
         -2    1    1    2    0  503 -0.17366163467E+02 -0.41955768680E+02 -0.49802705722E+02  0.67395694642E+02  0.00000000000E+00 0.  1.
<mgrwt>
<rscale>  2 0.45407820E+02</rscale>
<asrwt>0</asrwt>
<pdfrwt beam="1">  1       21 0.14227728E-01 0.45407820E+02</pdfrwt>
<pdfrwt beam="2">  1       21 0.99629092E-02 0.45407820E+02</pdfrwt>
<totfact> 0.32654342E+06</totfact>
</mgrwt>
</event>
<event>
 4    1  0.2721071E+004  0.2892736E+02  0.7546771E-02  0.1610257E+00
         21   -1    0    0  503  502  0.00000000000E+00  0.00000000000E+00  0.66213521586E+02  0.66213521586E+02  0.00000000000E+00 0.  1.
         21   -1    0    0  501  503 -0.00000000000E+00 -0.00000000000E+00 -0.17164609740E+02  0.17164609740E+02  0.00000000000E+00 0. -1.
          2    1    1    2  501    0 -0.19659698616E+02 -0.21220004500E+02  0.31151804828E+01  0.29094616170E+02  0.00000000000E+00 0. -1.
         -2    1    1    2    0  502  0.19659698616E+02  0.21220004500E+02  0.45933731363E+02  0.54283515155E+02  0.00000000000E+00 0.  1.
<mgrwt>
<rscale>  2 0.28927363E+02</rscale>
<asrwt>0</asrwt>
<pdfrwt beam="1">  1       21 0.10186696E-01 0.28927363E+02</pdfrwt>
<pdfrwt beam="2">  1       21 0.26407092E-02 0.28927363E+02</pdfrwt>
<totfact> 0.46517864E+07</totfact>
</mgrwt>
</event>
<event>
 4    1  0.2721071E+004  0.2315047E+02  0.7546771E-02  0.1689083E+00
         21   -1    0    0  503  502  0.00000000000E+00  0.00000000000E+00  0.49096190991E+01  0.49096190991E+01  0.00000000000E+00 0. -1.
         21   -1    0    0  501  503 -0.00000000000E+00 -0.00000000000E+00 -0.12595518589E+03  0.12595518589E+03  0.00000000000E+00 0.  1.
          2    1    1    2  501    0  0.22028776074E+02 -0.71187834786E+01 -0.84414690954E+02  0.87531617729E+02  0.00000000000E+00 0.  1.
         -2    1    1    2    0  502 -0.22028776074E+02  0.71187834786E+01 -0.36630875840E+02  0.43333187263E+02  0.00000000000E+00 0. -1.
<mgrwt>
<rscale>  2 0.23150466E+02</rscale>
<asrwt>0</asrwt>
<pdfrwt beam="1">  1       21 0.75532596E-03 0.23150466E+02</pdfrwt>
<pdfrwt beam="2">  1       21 0.19377722E-01 0.23150466E+02</pdfrwt>
<totfact> 0.99215123E+07</totfact>
</mgrwt>
</event>
<event>
 4    1  0.2721071E+004  0.2195878E+02  0.7546771E-02  0.1708966E+00
         21   -1    0    0  501  502  0.00000000000E+00  0.00000000000E+00  0.24018323133E+02  0.24018323133E+02  0.00000000000E+00 0. -1.
         21   -1    0    0  502  503 -0.00000000000E+00 -0.00000000000E+00 -0.28633254808E+02  0.28633254808E+02  0.00000000000E+00 0.  1.
          2    1    1    2  501    0  0.39361706436E+01  0.21603111194E+02  0.12084413110E+02  0.25064335076E+02  0.00000000000E+00 0. -1.
         -2    1    1    2    0  503 -0.39361706436E+01 -0.21603111194E+02 -0.16699344786E+02  0.27587242865E+02  0.00000000000E+00 0.  1.
<mgrwt>
<rscale>  2 0.21958776E+02</rscale>
<asrwt>0</asrwt>
<pdfrwt beam="1">  1       21 0.36951266E-02 0.21958776E+02</pdfrwt>
<pdfrwt beam="2">  1       21 0.44051161E-02 0.21958776E+02</pdfrwt>
<totfact> 0.99815623E+07</totfact>
</mgrwt>
</event>
<event>
 4    1  0.2721071E+004  0.2181956E+02  0.7546771E-02  0.1711391E+00
         21   -1    0    0  501  502  0.00000000000E+00  0.00000000000E+00  0.16013185782E+03  0.16013185782E+03  0.00000000000E+00 0.  1.
         21   -1    0    0  502  503 -0.00000000000E+00 -0.00000000000E+00 -0.51714159800E+01  0.51714159800E+01  0.00000000000E+00 0. -1.
          2    1    1    2  501    0  0.10941906869E+02 -0.18877713236E+02  0.13136777564E+03  0.13316751052E+03  0.00000000000E+00 0.  1.
         -2    1    1    2    0  503 -0.10941906869E+02  0.18877713236E+02  0.23592666207E+02  0.32135763282E+02  0.00000000000E+00 0. -1.
<mgrwt>
<rscale>  2 0.21819564E+02</rscale>
<asrwt>0</asrwt>
<pdfrwt beam="1">  1       21 0.24635667E-01 0.21819564E+02</pdfrwt>
<pdfrwt beam="2">  1       21 0.79560258E-03 0.21819564E+02</pdfrwt>
<totfact> 0.59265999E+07</totfact>
</mgrwt>
</event>
<event>
 4    1  0.2721071E+004  0.2071730E+02  0.7546771E-02  0.1731429E+00
         21   -1    0    0  503  502  0.00000000000E+00  0.00000000000E+00  0.37237241211E+03  0.37237241211E+03  0.00000000000E+00 0.  1.
         21   -1    0    0  501  503 -0.00000000000E+00 -0.00000000000E+00 -0.13514318162E+01  0.13514318162E+01  0.00000000000E+00 0. -1.
          2    1    1    2  501    0  0.32464427535E+00 -0.20714752136E+02  0.11384045430E+03  0.11571022161E+03  0.00000000000E+00 0. -1.
         -2    1    1    2    0  502 -0.32464427535E+00  0.20714752136E+02  0.25718052600E+03  0.25801362232E+03  0.00000000000E+00 0.  1.
<mgrwt>
<rscale>  2 0.20717296E+02</rscale>
<asrwt>0</asrwt>
<pdfrwt beam="1">  1       21 0.57287982E-01 0.20717296E+02</pdfrwt>
<pdfrwt beam="2">  1       21 0.20791288E-03 0.20717296E+02</pdfrwt>
<totfact> 0.86295362E+07</totfact>
</mgrwt>
</event>
<event>
 4    1  0.2721071E+004  0.2223302E+02  0.7546771E-02  0.1704253E+00
         21   -1    0    0  501  502  0.00000000000E+00  0.00000000000E+00  0.15513887678E+03  0.15513887678E+03  0.00000000000E+00 0.  1.
         21   -1    0    0  502  503 -0.00000000000E+00 -0.00000000000E+00 -0.49463080449E+01  0.49463080449E+01  0.00000000000E+00 0. -1.
          2    1    1    2  501    0 -0.59050386714E+01  0.21434500942E+02  0.12284340535E+03  0.12483913469E+03  0.00000000000E+00 0. -1.
         -2    1    1    2    0  503  0.59050386714E+01 -0.21434500942E+02  0.27349163394E+02  0.35246050143E+02  0.00000000000E+00 0.  1.
<mgrwt>
<rscale>  2 0.22233023E+02</rscale>
<asrwt>0</asrwt>
<pdfrwt beam="1">  1       21 0.23867516E-01 0.22233023E+02</pdfrwt>
<pdfrwt beam="2">  1       21 0.76097059E-03 0.22233023E+02</pdfrwt>
<totfact> 0.67316343E+07</totfact>
</mgrwt>
</event>
<event>
 4    1  0.2721071E+004  0.2025456E+02  0.7546771E-02  0.1740313E+00
         21   -1    0    0  503  502  0.00000000000E+00  0.00000000000E+00  0.26076925870E+02  0.26076925870E+02  0.00000000000E+00 0.  1.
         21   -1    0    0  501  503 -0.00000000000E+00 -0.00000000000E+00 -0.75663763799E+02  0.75663763799E+02  0.00000000000E+00 0. -1.
          2    1    1    2  501    0  0.11694042006E+02  0.16537734310E+02 -0.70067384441E+02  0.72936175092E+02  0.00000000000E+00 0. -1.
         -2    1    1    2    0  502 -0.11694042006E+02 -0.16537734310E+02  0.20480546513E+02  0.28804514577E+02  0.00000000000E+00 0.  1.
<mgrwt>
<rscale>  2 0.20254562E+02</rscale>
<asrwt>0</asrwt>
<pdfrwt beam="1">  1       21 0.40118348E-02 0.20254562E+02</pdfrwt>
<pdfrwt beam="2">  1       21 0.11640579E-01 0.20254562E+02</pdfrwt>
<totfact> 0.17848155E+07</totfact>
</mgrwt>
</event>
<event>
 4    1  0.2721071E+004  0.2570523E+02  0.7546771E-02  0.1651074E+00
         21   -1    0    0  501  502  0.00000000000E+00  0.00000000000E+00  0.46567816211E+01  0.46567816211E+01  0.00000000000E+00 0.  1.
         21   -1    0    0  502  503 -0.00000000000E+00 -0.00000000000E+00 -0.20224505965E+03  0.20224505965E+03  0.00000000000E+00 0. -1.
          2    1    1    2  501    0  0.34949814201E+01 -0.25466525667E+02 -0.42281446725E+02  0.49482113555E+02  0.00000000000E+00 0.  1.
         -2    1    1    2    0  503 -0.34949814201E+01  0.25466525667E+02 -0.15530683131E+03  0.15741972772E+03  0.00000000000E+00 0. -1.
<mgrwt>
<rscale>  2 0.25705230E+02</rscale>
<asrwt>0</asrwt>
<pdfrwt beam="1">  1       21 0.71642818E-03 0.25705230E+02</pdfrwt>
<pdfrwt beam="2">  1       21 0.31114614E-01 0.25705230E+02</pdfrwt>
<totfact> 0.47314829E+07</totfact>
</mgrwt>
</event>
<event>
 4    1  0.2721071E+004  0.3237462E+02  0.7546771E-02  0.1573232E+00
         21   -1    0    0  501  502  0.00000000000E+00  0.00000000000E+00  0.12408142127E+01  0.12408142127E+01  0.00000000000E+00 0. -1.
         21   -1    0    0  502  503 -0.00000000000E+00 -0.00000000000E+00 -0.89231900834E+03  0.89231900834E+03  0.00000000000E+00 0.  1.
          2    1    1    2  501    0  0.30748294957E+02 -0.10132036731E+02 -0.34232867089E+03  0.34385612504E+03  0.00000000000E+00 0. -1.
         -2    1    1    2    0  503 -0.30748294957E+02  0.10132036731E+02 -0.54874952324E+03  0.54970369752E+03  0.00000000000E+00 0.  1.
<mgrwt>
<rscale>  2 0.32374617E+02</rscale>
<asrwt>0</asrwt>
<pdfrwt beam="1">  1       21 0.19089424E-03 0.32374617E+02</pdfrwt>
<pdfrwt beam="2">  1       21 0.13728003E+00 0.32374617E+02</pdfrwt>
<totfact> 0.16205155E+07</totfact>
</mgrwt>
</event>
<event>
 4    1  0.2721071E+004  0.3398211E+02  0.7546771E-02  0.1557830E+00
         21   -1    0    0  501  502  0.00000000000E+00  0.00000000000E+00  0.94348458271E+01  0.94348458271E+01  0.00000000000E+00 0.  1.
         21   -1    0    0  502  503 -0.00000000000E+00 -0.00000000000E+00 -0.16460823010E+03  0.16460823010E+03  0.00000000000E+00 0. -1.
          2    1    1    2  501    0  0.33579349266E+02 -0.52164445190E+01 -0.33518829844E+02  0.47731498454E+02  0.00000000000E+00 0.  1.
         -2    1    1    2    0  503 -0.33579349266E+02  0.52164445190E+01 -0.12165455443E+03  0.12631157747E+03  0.00000000000E+00 0. -1.
<mgrwt>
<rscale>  2 0.33982113E+02</rscale>
<asrwt>0</asrwt>
<pdfrwt beam="1">  1       21 0.14515149E-02 0.33982113E+02</pdfrwt>
<pdfrwt beam="2">  1       21 0.25324340E-01 0.33982113E+02</pdfrwt>
<totfact> 0.24984456E+07</totfact>
</mgrwt>
</event>
<event>
 4    1  0.2721071E+004  0.2229642E+02  0.7546771E-02  0.1703175E+00
         21   -1    0    0  501  502  0.00000000000E+00  0.00000000000E+00  0.39328688899E+00  0.39328688899E+00  0.00000000000E+00 0.  1.
         21   -1    0    0  502  503 -0.00000000000E+00 -0.00000000000E+00 -0.13819712503E+04  0.13819712503E+04  0.00000000000E+00 0. -1.
          2    1    1    2  501    0  0.11820404926E+02 -0.18905249989E+02 -0.89269864820E+03  0.89297704727E+03  0.00000000000E+00 0. -1.
         -2    1    1    2    0  503 -0.11820404926E+02  0.18905249989E+02 -0.48887931519E+03  0.48938748990E+03  0.00000000000E+00 0.  1.
<mgrwt>
<rscale>  2 0.22296422E+02</rscale>
<asrwt>0</asrwt>
<pdfrwt beam="1">  1       21 0.60506171E-04 0.22296422E+02</pdfrwt>
<pdfrwt beam="2">  1       21 0.21260922E+00 0.22296422E+02</pdfrwt>
<totfact> 0.26907658E+07</totfact>
</mgrwt>
</event>
<event>
 4    1  0.2721071E+004  0.2033675E+02  0.7546771E-02  0.1738713E+00
         21   -1    0    0  503  502  0.00000000000E+00  0.00000000000E+00  0.43588420547E+03  0.43588420547E+03  0.00000000000E+00 0. -1.
         21   -1    0    0  501  503 -0.00000000000E+00 -0.00000000000E+00 -0.13226381702E+01  0.13226381702E+01  0.00000000000E+00 0.  1.
          2    1    1    2  501    0 -0.15540057934E+01  0.20277290559E+02  0.10106737342E+03  0.10309314922E+03  0.00000000000E+00 0.  1.
         -2    1    1    2    0  502  0.15540057934E+01 -0.20277290559E+02  0.33349419388E+03  0.33411369442E+03  0.00000000000E+00 0. -1.
<mgrwt>
<rscale>  2 0.20336751E+02</rscale>
<asrwt>0</asrwt>
<pdfrwt beam="1">  1       21 0.67058994E-01 0.20336751E+02</pdfrwt>
<pdfrwt beam="2">  1       21 0.20348314E-03 0.20336751E+02</pdfrwt>
<totfact> 0.64656710E+07</totfact>
</mgrwt>
</event>
<event>
 4    1  0.2721071E+004  0.2302645E+02  0.7546771E-02  0.1691082E+00
         21   -1    0    0  501  502  0.00000000000E+00  0.00000000000E+00  0.39684533560E+02  0.39684533560E+02  0.00000000000E+00 0.  1.
         21   -1    0    0  502  503 -0.00000000000E+00 -0.00000000000E+00 -0.42353506787E+02  0.42353506787E+02  0.00000000000E+00 0. -1.
          2    1    1    2  501    0 -0.16811848659E+02 -0.15734653341E+02  0.32603407512E+02  0.39914906394E+02  0.00000000000E+00 0.  1.
         -2    1    1    2    0  503  0.16811848659E+02  0.15734653341E+02 -0.35272380738E+02  0.42123133953E+02  0.00000000000E+00 0. -1.
<mgrwt>
<rscale>  2 0.23026454E+02</rscale>
<asrwt>0</asrwt>
<pdfrwt beam="1">  1       21 0.61053129E-02 0.23026454E+02</pdfrwt>
<pdfrwt beam="2">  1       21 0.65159241E-02 0.23026454E+02</pdfrwt>
<totfact> 0.24387085E+07</totfact>
</mgrwt>
</event>
<event>
 4    1  0.2721071E+004  0.2189538E+02  0.7546771E-02  0.1710068E+00
         21   -1    0    0  501  502  0.00000000000E+00  0.00000000000E+00  0.19838110378E+02  0.19838110378E+02  0.00000000000E+00 0.  1.
         21   -1    0    0  502  503 -0.00000000000E+00 -0.00000000000E+00 -0.27203715172E+02  0.27203715172E+02  0.00000000000E+00 0. -1.
          2    1    1    2  501    0 -0.13423107282E+02 -0.17298207757E+02  0.41770338101E+01  0.22290253748E+02  0.00000000000E+00 0.  1.
         -2    1    1    2    0  503  0.13423107282E+02  0.17298207757E+02 -0.11542638604E+02  0.24751571802E+02  0.00000000000E+00 0. -1.
<mgrwt>
<rscale>  2 0.21895383E+02</rscale>
<asrwt>0</asrwt>
<pdfrwt beam="1">  1       21 0.30520170E-02 0.21895383E+02</pdfrwt>
<pdfrwt beam="2">  1       21 0.41851869E-02 0.21895383E+02</pdfrwt>
<totfact> 0.14574156E+08</totfact>
</mgrwt>
</event>
<event>
 4    1  0.2721071E+004  0.2096175E+02  0.7546771E-02  0.1726852E+00
         21   -1    0    0  501  502  0.00000000000E+00  0.00000000000E+00  0.15268133766E+03  0.15268133766E+03  0.00000000000E+00 0.  1.
         21   -1    0    0  502  503 -0.00000000000E+00 -0.00000000000E+00 -0.63295322180E+01  0.63295322180E+01  0.00000000000E+00 0. -1.
          2    1    1    2  501    0  0.20339927727E+02  0.50677539364E+01  0.13188779560E+03  0.13354319683E+03  0.00000000000E+00 0.  1.
         -2    1    1    2    0  503 -0.20339927727E+02 -0.50677539364E+01  0.14464009834E+02  0.25467673046E+02  0.00000000000E+00 0. -1.
<mgrwt>
<rscale>  2 0.20961746E+02</rscale>
<asrwt>0</asrwt>
<pdfrwt beam="1">  1       21 0.23489434E-01 0.20961746E+02</pdfrwt>
<pdfrwt beam="2">  1       21 0.97377430E-03 0.20961746E+02</pdfrwt>
<totfact> 0.47203068E+07</totfact>
</mgrwt>
</event>
<event>
 4    1  0.2721071E+004  0.2358498E+02  0.7546771E-02  0.1682200E+00
         21   -1    0    0  503  502  0.00000000000E+00  0.00000000000E+00  0.42745955947E+03  0.42745955947E+03  0.00000000000E+00 0.  1.
         21   -1    0    0  501  503 -0.00000000000E+00 -0.00000000000E+00 -0.21593940858E+01  0.21593940858E+01  0.00000000000E+00 0. -1.
          2    1    1    2  501    0 -0.51734322387E+01 -0.23010576902E+02  0.77238390362E+02  0.80759024240E+02  0.00000000000E+00 0. -1.
         -2    1    1    2    0  502  0.51734322387E+01  0.23010576902E+02  0.34806177502E+03  0.34885992932E+03  0.00000000000E+00 0.  1.
<mgrwt>
<rscale>  2 0.23584975E+02</rscale>
<asrwt>0</asrwt>
<pdfrwt beam="1">  1       21 0.65762942E-01 0.23584975E+02</pdfrwt>
<pdfrwt beam="2">  1       21 0.33221481E-03 0.23584975E+02</pdfrwt>
<totfact> 0.34205135E+07</totfact>
</mgrwt>
</event>
<event>
 4    1  0.2721071E+004  0.2176698E+02  0.7546771E-02  0.1712313E+00
         21   -1    0    0  503  502  0.00000000000E+00  0.00000000000E+00  0.10276867524E+03  0.10276867524E+03  0.00000000000E+00 0. -1.
         21   -1    0    0  501  503 -0.00000000000E+00 -0.00000000000E+00 -0.46579245915E+01  0.46579245915E+01  0.00000000000E+00 0.  1.
          2    1    1    2  501    0 -0.21035001577E+02 -0.55973490334E+01  0.43628094829E+02  0.48756663811E+02  0.00000000000E+00 0. -1.
         -2    1    1    2    0  502  0.21035001577E+02  0.55973490334E+01  0.54482655824E+02  0.58669936025E+02  0.00000000000E+00 0.  1.
<mgrwt>
<rscale>  2 0.21766984E+02</rscale>
<asrwt>0</asrwt>
<pdfrwt beam="1">  1       21 0.15810564E-01 0.21766984E+02</pdfrwt>
<pdfrwt beam="2">  1       21 0.71660386E-03 0.21766984E+02</pdfrwt>
<totfact> 0.14965903E+08</totfact>
</mgrwt>
</event>
<event>
 4    1  0.2721071E+004  0.2335730E+02  0.7546771E-02  0.1685783E+00
         21   -1    0    0  501  502  0.00000000000E+00  0.00000000000E+00  0.84596379727E+00  0.84596379727E+00  0.00000000000E+00 0. -1.
         21   -1    0    0  502  503 -0.00000000000E+00 -0.00000000000E+00 -0.66716354937E+03  0.66716354937E+03  0.00000000000E+00 0.  1.
          2    1    1    2  501    0  0.12197586391E+02 -0.19919398460E+02 -0.27214662581E+03  0.27314712059E+03  0.00000000000E+00 0.  1.
         -2    1    1    2    0  503 -0.12197586391E+02  0.19919398460E+02 -0.39417095976E+03  0.39486239257E+03  0.00000000000E+00 0. -1.
<mgrwt>
<rscale>  2 0.23357302E+02</rscale>
<asrwt>0</asrwt>
<pdfrwt beam="1">  1       21 0.13014834E-03 0.23357302E+02</pdfrwt>
<pdfrwt beam="2">  1       21 0.10264050E+00 0.23357302E+02</pdfrwt>
<totfact> 0.51709569E+07</totfact>
</mgrwt>
</event>
<event>
 4    1  0.2721071E+004  0.2172894E+02  0.7546771E-02  0.1712982E+00
         21   -1    0    0  503  502  0.00000000000E+00  0.00000000000E+00  0.73645759487E+02  0.73645759487E+02  0.00000000000E+00 0. -1.
         21   -1    0    0  501  503 -0.00000000000E+00 -0.00000000000E+00 -0.19733319847E+02  0.19733319847E+02  0.00000000000E+00 0.  1.
          2    1    1    2  501    0 -0.20256821192E+02  0.78618045323E+01 -0.11406430131E+02  0.24540852138E+02  0.00000000000E+00 0.  1.
         -2    1    1    2    0  502  0.20256821192E+02 -0.78618045323E+01  0.65318869771E+02  0.68838227196E+02  0.00000000000E+00 0. -1.
<mgrwt>
<rscale>  2 0.21728939E+02</rscale>
<asrwt>0</asrwt>
<pdfrwt beam="1">  1       21 0.11330117E-01 0.21728939E+02</pdfrwt>
<pdfrwt beam="2">  1       21 0.30358954E-02 0.21728939E+02</pdfrwt>
<totfact> 0.29320653E+07</totfact>
</mgrwt>
</event>
<event>
 4    1  0.2721071E+004  0.2087270E+02  0.7546771E-02  0.1728510E+00
         21   -1    0    0  503  502  0.00000000000E+00  0.00000000000E+00  0.11122653194E+04  0.11122653194E+04  0.00000000000E+00 0.  1.
         21   -1    0    0  501  503 -0.00000000000E+00 -0.00000000000E+00 -0.61634599657E+00  0.61634599657E+00  0.00000000000E+00 0. -1.
          2    1    1    2  501    0 -0.19943262403E+01 -0.20777204616E+02  0.21988567804E+03  0.22087412926E+03  0.00000000000E+00 0. -1.
         -2    1    1    2    0  502  0.19943262403E+01  0.20777204616E+02  0.89176329537E+03  0.89200753615E+03  0.00000000000E+00 0.  1.
<mgrwt>
<rscale>  2 0.20872699E+02</rscale>
<asrwt>0</asrwt>
<pdfrwt beam="1">  1       21 0.17111613E+00 0.20872699E+02</pdfrwt>
<pdfrwt beam="2">  1       21 0.94823351E-04 0.20872699E+02</pdfrwt>
<totfact> 0.24399416E+07</totfact>
</mgrwt>
</event>
<event>
 4    1  0.2721071E+004  0.2381875E+02  0.7546771E-02  0.1678572E+00
         21   -1    0    0  503  502  0.00000000000E+00  0.00000000000E+00  0.46136519590E+02  0.46136519590E+02  0.00000000000E+00 0.  1.
         21   -1    0    0  501  503 -0.00000000000E+00 -0.00000000000E+00 -0.35728449635E+02  0.35728449635E+02  0.00000000000E+00 0. -1.
          2    1    1    2  501    0 -0.20289126361E+02  0.12477345080E+02 -0.27944337181E+02  0.36718098660E+02  0.00000000000E+00 0. -1.
         -2    1    1    2    0  502  0.20289126361E+02 -0.12477345080E+02  0.38352407135E+02  0.45146870565E+02  0.00000000000E+00 0.  1.
<mgrwt>
<rscale>  2 0.23818749E+02</rscale>
<asrwt>0</asrwt>
<pdfrwt beam="1">  1       21 0.70979261E-02 0.23818749E+02</pdfrwt>
<pdfrwt beam="2">  1       21 0.54966845E-02 0.23818749E+02</pdfrwt>
<totfact> 0.25329526E+07</totfact>
</mgrwt>
</event>
<event>
 4    1  0.2721071E+004  0.2288522E+02  0.7546771E-02  0.1693377E+00
         21   -1    0    0  501  502  0.00000000000E+00  0.00000000000E+00  0.82468716944E+02  0.82468716944E+02  0.00000000000E+00 0.  1.
         21   -1    0    0  502  503 -0.00000000000E+00 -0.00000000000E+00 -0.10759070690E+02  0.10759070690E+02  0.00000000000E+00 0. -1.
          2    1    1    2  501    0 -0.58236909824E+01 -0.22131830519E+02  0.65692672844E+02  0.69564793999E+02  0.00000000000E+00 0.  1.
         -2    1    1    2    0  503  0.58236909824E+01  0.22131830519E+02  0.60169734098E+01  0.23662993635E+02  0.00000000000E+00 0. -1.
<mgrwt>
<rscale>  2 0.22885220E+02</rscale>
<asrwt>0</asrwt>
<pdfrwt beam="1">  1       21 0.12687494E-01 0.22885220E+02</pdfrwt>
<pdfrwt beam="2">  1       21 0.16552417E-02 0.22885220E+02</pdfrwt>
<totfact> 0.62531982E+07</totfact>
</mgrwt>
</event>
<event>
 4    1  0.2721071E+004  0.2357132E+02  0.7546771E-02  0.1682413E+00
         21   -1    0    0  503  502  0.00000000000E+00  0.00000000000E+00  0.39436293972E+01  0.39436293972E+01  0.00000000000E+00 0.  1.
         21   -1    0    0  501  503 -0.00000000000E+00 -0.00000000000E+00 -0.14108425517E+03  0.14108425517E+03  0.00000000000E+00 0. -1.
          2    1    1    2  501    0  0.60653746770E+01  0.22777588631E+02 -0.65860985392E+02  0.69951960020E+02  0.00000000000E+00 0.  1.
         -2    1    1    2    0  502 -0.60653746770E+01 -0.22777588631E+02 -0.71279640381E+02  0.75075924548E+02  0.00000000000E+00 0. -1.
<mgrwt>
<rscale>  2 0.23571324E+02</rscale>
<asrwt>0</asrwt>
<pdfrwt beam="1">  1       21 0.60671224E-03 0.23571324E+02</pdfrwt>
<pdfrwt beam="2">  1       21 0.21705269E-01 0.23571324E+02</pdfrwt>
<totfact> 0.11324477E+08</totfact>
</mgrwt>
</event>
<event>
 4    1  0.2721071E+004  0.2082197E+02  0.7546771E-02  0.1729460E+00
         21   -1    0    0  503  502  0.00000000000E+00  0.00000000000E+00  0.18404191842E+04  0.18404191842E+04  0.00000000000E+00 0. -1.
         21   -1    0    0  501  503 -0.00000000000E+00 -0.00000000000E+00 -0.28777006507E+00  0.28777006507E+00  0.00000000000E+00 0.  1.
          2    1    1    2  501    0  0.20726988090E+02 -0.19865067611E+01  0.52809624407E+03  0.52850657256E+03  0.00000000000E+00 0.  1.
         -2    1    1    2    0  502 -0.20726988090E+02  0.19865067611E+01  0.13120351701E+04  0.13122003817E+04  0.00000000000E+00 0. -1.
<mgrwt>
<rscale>  2 0.20821965E+02</rscale>
<asrwt>0</asrwt>
<pdfrwt beam="1">  1       21 0.28313199E+00 0.20821965E+02</pdfrwt>
<pdfrwt beam="2">  1       21 0.44273792E-04 0.20821965E+02</pdfrwt>
<totfact> 0.18424356E+07</totfact>
</mgrwt>
</event>
<event>
 4    1  0.2721071E+004  0.4324327E+02  0.7546771E-02  0.1485616E+00
         21   -1    0    0  503  502  0.00000000000E+00  0.00000000000E+00  0.14245529774E+03  0.14245529774E+03  0.00000000000E+00 0.  1.
         21   -1    0    0  501  503 -0.00000000000E+00 -0.00000000000E+00 -0.19012837026E+02  0.19012837026E+02  0.00000000000E+00 0. -1.
          2    1    1    2  501    0  0.35235246115E+02  0.25069069406E+02  0.16800663758E+02  0.46392274275E+02  0.00000000000E+00 0. -1.
         -2    1    1    2    0  502 -0.35235246115E+02 -0.25069069406E+02  0.10664179695E+03  0.11507586049E+03  0.00000000000E+00 0.  1.
<mgrwt>
<rscale>  2 0.43243275E+02</rscale>
<asrwt>0</asrwt>
<pdfrwt beam="1">  1       21 0.21916199E-01 0.43243275E+02</pdfrwt>
<pdfrwt beam="2">  1       21 0.29250519E-02 0.43243275E+02</pdfrwt>
<totfact> 0.11259831E+07</totfact>
</mgrwt>
</event>
<event>
 4    1  0.2721071E+004  0.3235251E+02  0.7546771E-02  0.1573452E+00
         21   -1    0    0  501  502  0.00000000000E+00  0.00000000000E+00  0.64378961125E+01  0.64378961125E+01  0.00000000000E+00 0. -1.
         21   -1    0    0  502  503 -0.00000000000E+00 -0.00000000000E+00 -0.58492913780E+03  0.58492913780E+03  0.00000000000E+00 0.  1.
          2    1    1    2  501    0 -0.22330873178E+02 -0.23409765241E+02 -0.37993147080E+02  0.49901545373E+02  0.00000000000E+00 0. -1.
         -2    1    1    2    0  503  0.22330873178E+02  0.23409765241E+02 -0.54049809460E+03  0.54146548854E+03  0.00000000000E+00 0.  1.
<mgrwt>
<rscale>  2 0.32352512E+02</rscale>
<asrwt>0</asrwt>
<pdfrwt beam="1">  1       21 0.99044543E-03 0.32352512E+02</pdfrwt>
<pdfrwt beam="2">  1       21 0.89989110E-01 0.32352512E+02</pdfrwt>
<totfact> 0.36535386E+06</totfact>
</mgrwt>
</event>
<event>
 4    1  0.2721071E+004  0.3988470E+02  0.7546771E-02  0.1509062E+00
         21   -1    0    0  501  502  0.00000000000E+00  0.00000000000E+00  0.12546184550E+04  0.12546184550E+04  0.00000000000E+00 0. -1.
         21   -1    0    0  502  503 -0.00000000000E+00 -0.00000000000E+00 -0.72756901275E+01  0.72756901275E+01  0.00000000000E+00 0.  1.
          2    1    1    2  501    0  0.33358151054E+02 -0.21863745832E+02  0.11970104195E+04  0.11976747196E+04  0.00000000000E+00 0. -1.
         -2    1    1    2    0  503 -0.33358151054E+02  0.21863745832E+02  0.50332345432E+02  0.64219425567E+02  0.00000000000E+00 0.  1.
<mgrwt>
<rscale>  2 0.39884704E+02</rscale>
<asrwt>0</asrwt>
<pdfrwt beam="1">  1       21 0.19301805E+00 0.39884704E+02</pdfrwt>
<pdfrwt beam="2">  1       21 0.11193379E-02 0.39884704E+02</pdfrwt>
<totfact> 0.49881480E+05</totfact>
</mgrwt>
</event>
<event>
 4    1  0.2721071E+004  0.3103039E+02  0.7546771E-02  0.1586971E+00
         21   -1    0    0  501  502  0.00000000000E+00  0.00000000000E+00  0.91984668982E+01  0.91984668982E+01  0.00000000000E+00 0. -1.
         21   -1    0    0  502  503 -0.00000000000E+00 -0.00000000000E+00 -0.11358151228E+03  0.11358151228E+03  0.00000000000E+00 0.  1.
          2    1    1    2  501    0 -0.21853332916E+02 -0.22029916324E+02 -0.35004425639E+02  0.46778148607E+02  0.00000000000E+00 0. -1.
         -2    1    1    2    0  503  0.21853332916E+02  0.22029916324E+02 -0.69378619738E+02  0.76001830567E+02  0.00000000000E+00 0.  1.
<mgrwt>
<rscale>  2 0.31030394E+02</rscale>
<asrwt>0</asrwt>
<pdfrwt beam="1">  1       21 0.14151488E-02 0.31030394E+02</pdfrwt>
<pdfrwt beam="2">  1       21 0.17474079E-01 0.31030394E+02</pdfrwt>
<totfact> 0.49372772E+07</totfact>
</mgrwt>
</event>
<event>
 4    1  0.2721071E+004  0.2202946E+02  0.7546771E-02  0.1707743E+00
         21   -1    0    0  501  502  0.00000000000E+00  0.00000000000E+00  0.32206647188E+02  0.32206647188E+02  0.00000000000E+00 0. -1.
         21   -1    0    0  502  503 -0.00000000000E+00 -0.00000000000E+00 -0.21203528595E+02  0.21203528595E+02  0.00000000000E+00 0.  1.
          2    1    1    2  501    0 -0.20750949652E+02  0.73956223896E+01  0.19866631770E+02  0.29664460216E+02  0.00000000000E+00 0. -1.
         -2    1    1    2    0  503  0.20750949652E+02 -0.73956223896E+01 -0.88635131769E+01  0.23745715568E+02  0.00000000000E+00 0.  1.
<mgrwt>
<rscale>  2 0.22029461E+02</rscale>
<asrwt>0</asrwt>
<pdfrwt beam="1">  1       21 0.49548688E-02 0.22029461E+02</pdfrwt>
<pdfrwt beam="2">  1       21 0.32620813E-02 0.22029461E+02</pdfrwt>
<totfact> 0.10077333E+08</totfact>
</mgrwt>
</event>
<event>
 4    1  0.2721071E+004  0.4930862E+02  0.7546771E-02  0.1449107E+00
         21   -1    0    0  501  502  0.00000000000E+00  0.00000000000E+00  0.19060987209E+03  0.19060987209E+03  0.00000000000E+00 0. -1.
         21   -1    0    0  502  503 -0.00000000000E+00 -0.00000000000E+00 -0.14112485520E+02  0.14112485520E+02  0.00000000000E+00 0.  1.
          2    1    1    2  501    0  0.46259485060E+02 -0.17070453070E+02  0.11998874367E+03  0.12972524401E+03  0.00000000000E+00 0. -1.
         -2    1    1    2    0  503 -0.46259485060E+02  0.17070453070E+02  0.56508642905E+02  0.74997113604E+02  0.00000000000E+00 0.  1.
<mgrwt>
<rscale>  2 0.49308623E+02</rscale>
<asrwt>0</asrwt>
<pdfrwt beam="1">  1       21 0.29324594E-01 0.49308623E+02</pdfrwt>
<pdfrwt beam="2">  1       21 0.21711518E-02 0.49308623E+02</pdfrwt>
<totfact> 0.10753230E+07</totfact>
</mgrwt>
</event>
<event>
 4    1  0.2721071E+004  0.2030011E+02  0.7546771E-02  0.1739425E+00
         21   -1    0    0  501  502  0.00000000000E+00  0.00000000000E+00  0.11373081173E+02  0.11373081173E+02  0.00000000000E+00 0. -1.
         21   -1    0    0  502  503 -0.00000000000E+00 -0.00000000000E+00 -0.42447077252E+02  0.42447077252E+02  0.00000000000E+00 0.  1.
          2    1    1    2  501    0  0.18965297701E+02  0.72396129001E+01 -0.52417355482E+01  0.20965931970E+02  0.00000000000E+00 0. -1.
         -2    1    1    2    0  503 -0.18965297701E+02 -0.72396129001E+01 -0.25832260531E+02  0.32854226455E+02  0.00000000000E+00 0.  1.
<mgrwt>
<rscale>  2 0.20300111E+02</rscale>
<asrwt>0</asrwt>
<pdfrwt beam="1">  1       21 0.17497048E-02 0.20300111E+02</pdfrwt>
<pdfrwt beam="2">  1       21 0.65303196E-02 0.20300111E+02</pdfrwt>
<totfact> 0.16504210E+08</totfact>
</mgrwt>
</event>
<event>
 4    1  0.2721071E+004  0.2121194E+02  0.7546771E-02  0.1722249E+00
         21   -1    0    0  503  502  0.00000000000E+00  0.00000000000E+00  0.75384269435E+01  0.75384269435E+01  0.00000000000E+00 0. -1.
         21   -1    0    0  501  503 -0.00000000000E+00 -0.00000000000E+00 -0.60205632267E+02  0.60205632267E+02  0.00000000000E+00 0.  1.
          2    1    1    2  501    0  0.91763563388E+00 -0.21192083574E+02 -0.29477234968E+02  0.36316027353E+02  0.00000000000E+00 0.  1.
         -2    1    1    2    0  502 -0.91763563388E+00  0.21192083574E+02 -0.23189970356E+02  0.31428031858E+02  0.00000000000E+00 0. -1.
<mgrwt>
<rscale>  2 0.21211941E+02</rscale>
<asrwt>0</asrwt>
<pdfrwt beam="1">  1       21 0.11597580E-02 0.21211941E+02</pdfrwt>
<pdfrwt beam="2">  1       21 0.92624050E-02 0.21211941E+02</pdfrwt>
<totfact> 0.17674620E+08</totfact>
</mgrwt>
</event>
<event>
 4    1  0.2721071E+004  0.2112909E+02  0.7546771E-02  0.1723764E+00
         21   -1    0    0  501  502  0.00000000000E+00  0.00000000000E+00  0.52616777432E+02  0.52616777432E+02  0.00000000000E+00 0. -1.
         21   -1    0    0  502  503 -0.00000000000E+00 -0.00000000000E+00 -0.35691757524E+02  0.35691757524E+02  0.00000000000E+00 0.  1.
          2    1    1    2  501    0 -0.10959048243E+02 -0.18064815043E+02  0.47012955082E+02  0.51542761145E+02  0.00000000000E+00 0. -1.
         -2    1    1    2    0  503  0.10959048243E+02  0.18064815043E+02 -0.30087935173E+02  0.36765773811E+02  0.00000000000E+00 0.  1.
<mgrwt>
<rscale>  2 0.21129086E+02</rscale>
<asrwt>0</asrwt>
<pdfrwt beam="1">  1       21 0.80948888E-02 0.21129086E+02</pdfrwt>
<pdfrwt beam="2">  1       21 0.54910396E-02 0.21129086E+02</pdfrwt>
<totfact> 0.19935269E+07</totfact>
</mgrwt>
</event>
<event>
 4    1  0.2721071E+004  0.2298194E+02  0.7546771E-02  0.1691803E+00
         21   -1    0    0  501  502  0.00000000000E+00  0.00000000000E+00  0.72806199743E+00  0.72806199743E+00  0.00000000000E+00 0.  1.
         21   -1    0    0  502  503 -0.00000000000E+00 -0.00000000000E+00 -0.15210936807E+04  0.15210936807E+04  0.00000000000E+00 0. -1.
          2    1    1    2  501    0 -0.75422614092E+01 -0.21709071966E+02 -0.20986158182E+03  0.21111620743E+03  0.00000000000E+00 0.  1.
         -2    1    1    2    0  503  0.75422614092E+01  0.21709071966E+02 -0.13105040369E+04  0.13107055352E+04  0.00000000000E+00 0. -1.
<mgrwt>
<rscale>  2 0.22981939E+02</rscale>
<asrwt>0</asrwt>
<pdfrwt beam="1">  1       21 0.11201071E-03 0.22981939E+02</pdfrwt>
<pdfrwt beam="2">  1       21 0.23401196E+00 0.22981939E+02</pdfrwt>
<totfact> 0.87140223E+06</totfact>
</mgrwt>
</event>
<event>
 4    1  0.2721071E+004  0.2218180E+02  0.7546771E-02  0.1705127E+00
         21   -1    0    0  503  502  0.00000000000E+00  0.00000000000E+00  0.25360826044E+02  0.25360826044E+02  0.00000000000E+00 0. -1.
         21   -1    0    0  501  503 -0.00000000000E+00 -0.00000000000E+00 -0.96094655333E+02  0.96094655333E+02  0.00000000000E+00 0.  1.
          2    1    1    2  501    0 -0.16952614892E+02 -0.14305287106E+02 -0.89619000941E+02  0.92323332482E+02  0.00000000000E+00 0.  1.
         -2    1    1    2    0  502  0.16952614892E+02  0.14305287106E+02  0.18885171652E+02  0.29132148894E+02  0.00000000000E+00 0. -1.
<mgrwt>
<rscale>  2 0.22181803E+02</rscale>
<asrwt>0</asrwt>
<pdfrwt beam="1">  1       21 0.39016655E-02 0.22181803E+02</pdfrwt>
<pdfrwt beam="2">  1       21 0.14783793E-01 0.22181803E+02</pdfrwt>
<totfact> 0.12725333E+07</totfact>
</mgrwt>
</event>
<event>
 4    1  0.2721071E+004  0.2032043E+02  0.7546771E-02  0.1739030E+00
         21   -1    0    0  501  502  0.00000000000E+00  0.00000000000E+00  0.31917145032E+01  0.31917145032E+01  0.00000000000E+00 0. -1.
         21   -1    0    0  502  503 -0.00000000000E+00 -0.00000000000E+00 -0.91934212660E+03  0.91934212660E+03  0.00000000000E+00 0.  1.
          2    1    1    2  501    0 -0.18032429810E+02 -0.93675682663E+01 -0.30493667013E+02  0.36644011625E+02  0.00000000000E+00 0. -1.
         -2    1    1    2    0  503  0.18032429810E+02  0.93675682663E+01 -0.88565674509E+03  0.88588982948E+03  0.00000000000E+00 0.  1.
<mgrwt>
<rscale>  2 0.20320430E+02</rscale>
<asrwt>0</asrwt>
<pdfrwt beam="1">  1       21 0.49103253E-03 0.20320430E+02</pdfrwt>
<pdfrwt beam="2">  1       21 0.14143739E+00 0.20320430E+02</pdfrwt>
<totfact> 0.35696292E+06</totfact>
</mgrwt>
</event>
<event>
 4    1  0.2721071E+004  0.2240453E+02  0.7546771E-02  0.1701348E+00
         21   -1    0    0  501  502  0.00000000000E+00  0.00000000000E+00  0.42361616442E+02  0.42361616442E+02  0.00000000000E+00 0.  1.
         21   -1    0    0  502  503 -0.00000000000E+00 -0.00000000000E+00 -0.29300596984E+02  0.29300596984E+02  0.00000000000E+00 0. -1.
          2    1    1    2  501    0  0.16943719830E+02 -0.14658561252E+02  0.34182960164E+02  0.40870990020E+02  0.00000000000E+00 0.  1.
         -2    1    1    2    0  503 -0.16943719830E+02  0.14658561252E+02 -0.21121940705E+02  0.30791223406E+02  0.00000000000E+00 0. -1.
<mgrwt>
<rscale>  2 0.22404532E+02</rscale>
<asrwt>0</asrwt>
<pdfrwt beam="1">  1       21 0.65171718E-02 0.22404532E+02</pdfrwt>
<pdfrwt beam="2">  1       21 0.45077841E-02 0.22404532E+02</pdfrwt>
<totfact> 0.39288191E+07</totfact>
</mgrwt>
</event>
<event>
 4    1  0.2721071E+004  0.2341930E+02  0.7546771E-02  0.1684802E+00
         21   -1    0    0  501  502  0.00000000000E+00  0.00000000000E+00  0.62755531063E+01  0.62755531063E+01  0.00000000000E+00 0.  1.
         21   -1    0    0  502  503 -0.00000000000E+00 -0.00000000000E+00 -0.13057185418E+03  0.13057185418E+03  0.00000000000E+00 0. -1.
          2    1    1    2  501    0 -0.23369081767E+02  0.15328197958E+01 -0.22802382249E+02  0.32686574543E+02  0.00000000000E+00 0.  1.
         -2    1    1    2    0  503  0.23369081767E+02 -0.15328197958E+01 -0.10149391882E+03  0.10416083274E+03  0.00000000000E+00 0. -1.
<mgrwt>
<rscale>  2 0.23419298E+02</rscale>
<asrwt>0</asrwt>
<pdfrwt beam="1">  1       21 0.96546979E-03 0.23419298E+02</pdfrwt>
<pdfrwt beam="2">  1       21 0.20087976E-01 0.23419298E+02</pdfrwt>
<totfact> 0.64740825E+07</totfact>
</mgrwt>
</event>
<event>
 4    1  0.2721071E+004  0.2823753E+02  0.7546771E-02  0.1618429E+00
         21   -1    0    0  501  502  0.00000000000E+00  0.00000000000E+00  0.24161695892E+02  0.24161695892E+02  0.00000000000E+00 0.  1.
         21   -1    0    0  502  503 -0.00000000000E+00 -0.00000000000E+00 -0.48362131603E+02  0.48362131603E+02  0.00000000000E+00 0. -1.
          2    1    1    2  501    0 -0.25121715781E+02 -0.12894093006E+02  0.83364794622E+01  0.29442403571E+02  0.00000000000E+00 0.  1.
         -2    1    1    2    0  503  0.25121715781E+02  0.12894093006E+02 -0.32536915173E+02  0.43081423923E+02  0.00000000000E+00 0. -1.
<mgrwt>
<rscale>  2 0.28237532E+02</rscale>
<asrwt>0</asrwt>
<pdfrwt beam="1">  1       21 0.37171840E-02 0.28237532E+02</pdfrwt>
<pdfrwt beam="2">  1       21 0.74403279E-02 0.28237532E+02</pdfrwt>
<totfact> 0.45435680E+07</totfact>
</mgrwt>
</event>
<event>
 4    1  0.2721071E+004  0.3091773E+02  0.7546771E-02  0.1588160E+00
         21   -1    0    0  503  502  0.00000000000E+00  0.00000000000E+00  0.34157038999E+03  0.34157038999E+03  0.00000000000E+00 0.  1.
         21   -1    0    0  501  503 -0.00000000000E+00 -0.00000000000E+00 -0.29335286298E+01  0.29335286298E+01  0.00000000000E+00 0. -1.
          2    1    1    2  501    0  0.78020808007E+01  0.29917116479E+02  0.13237133734E+03  0.13593409165E+03  0.00000000000E+00 0. -1.
         -2    1    1    2    0  502 -0.78020808007E+01 -0.29917116479E+02  0.20626552401E+03  0.20856982696E+03  0.00000000000E+00 0.  1.
<mgrwt>
<rscale>  2 0.30917735E+02</rscale>
<asrwt>0</asrwt>
<pdfrwt beam="1">  1       21 0.52549259E-01 0.30917735E+02</pdfrwt>
<pdfrwt beam="2">  1       21 0.45131237E-03 0.30917735E+02</pdfrwt>
<totfact> 0.36054685E+07</totfact>
</mgrwt>
</event>
<event>
 4    1  0.2721071E+004  0.2165447E+02  0.7546771E-02  0.1714297E+00
         21   -1    0    0  501  502  0.00000000000E+00  0.00000000000E+00  0.72442355712E+03  0.72442355712E+03  0.00000000000E+00 0. -1.
         21   -1    0    0  502  503 -0.00000000000E+00 -0.00000000000E+00 -0.84381453874E+00  0.84381453874E+00  0.00000000000E+00 0.  1.
          2    1    1    2  501    0 -0.68548415540E+01 -0.20540868280E+02  0.53679345279E+03  0.53723005042E+03  0.00000000000E+00 0. -1.
         -2    1    1    2    0  503  0.68548415540E+01  0.20540868280E+02  0.18678628979E+03  0.18803732123E+03  0.00000000000E+00 0.  1.
<mgrwt>
<rscale>  2 0.21654471E+02</rscale>
<asrwt>0</asrwt>
<pdfrwt beam="1">  1       21 0.11144928E+00 0.21654471E+02</pdfrwt>
<pdfrwt beam="2">  1       21 0.12981820E-03 0.21654471E+02</pdfrwt>
<totfact> 0.42543751E+07</totfact>
</mgrwt>
</event>
<event>
 4    1  0.2721071E+004  0.2823940E+02  0.7546771E-02  0.1618407E+00
         21   -1    0    0  503  502  0.00000000000E+00  0.00000000000E+00  0.31268173758E+02  0.31268173758E+02  0.00000000000E+00 0. -1.
         21   -1    0    0  501  503 -0.00000000000E+00 -0.00000000000E+00 -0.40818638663E+02  0.40818638663E+02  0.00000000000E+00 0.  1.
          2    1    1    2  501    0 -0.12456125619E+02 -0.25343811665E+02 -0.26852726984E+02  0.38968356414E+02  0.00000000000E+00 0.  1.
         -2    1    1    2    0  502  0.12456125619E+02  0.25343811665E+02  0.17302262079E+02  0.33118456006E+02  0.00000000000E+00 0. -1.
<mgrwt>
<rscale>  2 0.28239403E+02</rscale>
<asrwt>0</asrwt>
<pdfrwt beam="1">  1       21 0.48104883E-02 0.28239403E+02</pdfrwt>
<pdfrwt beam="2">  1       21 0.62797906E-02 0.28239403E+02</pdfrwt>
<totfact> 0.39738395E+07</totfact>
</mgrwt>
</event>
<event>
 4    1  0.2721071E+004  0.6050427E+02  0.7546771E-02  0.1395728E+00
         21   -1    0    0  503  502  0.00000000000E+00  0.00000000000E+00  0.78409085777E+02  0.78409085777E+02  0.00000000000E+00 0.  1.
         21   -1    0    0  501  503 -0.00000000000E+00 -0.00000000000E+00 -0.90251734917E+02  0.90251734917E+02  0.00000000000E+00 0. -1.
          2    1    1    2  501    0  0.60266108999E+02  0.53631056039E+01 -0.64510686901E+02  0.88444307449E+02  0.00000000000E+00 0. -1.
         -2    1    1    2    0  502 -0.60266108999E+02 -0.53631056039E+01  0.52668037761E+02  0.80216513246E+02  0.00000000000E+00 0.  1.
<mgrwt>
<rscale>  2 0.60504271E+02</rscale>
<asrwt>0</asrwt>
<pdfrwt beam="1">  1       21 0.12062936E-01 0.60504271E+02</pdfrwt>
<pdfrwt beam="2">  1       21 0.13884882E-01 0.60504271E+02</pdfrwt>
<totfact> 0.25089330E+06</totfact>
</mgrwt>
</event>
<event>
 4    1  0.2721071E+004  0.2753849E+02  0.7546771E-02  0.1627008E+00
         21   -1    0    0  503  502  0.00000000000E+00  0.00000000000E+00  0.81129727700E+01  0.81129727700E+01  0.00000000000E+00 0. -1.
         21   -1    0    0  501  503 -0.00000000000E+00 -0.00000000000E+00 -0.93750382118E+02  0.93750382118E+02  0.00000000000E+00 0.  1.
          2    1    1    2  501    0 -0.24581106615E+02 -0.12415227806E+02 -0.45573797974E+02  0.53247908369E+02  0.00000000000E+00 0.  1.
         -2    1    1    2    0  502  0.24581106615E+02  0.12415227806E+02 -0.40063611374E+02  0.48615446519E+02  0.00000000000E+00 0. -1.
<mgrwt>
<rscale>  2 0.27538495E+02</rscale>
<asrwt>0</asrwt>
<pdfrwt beam="1">  1       21 0.12481498E-02 0.27538495E+02</pdfrwt>
<pdfrwt beam="2">  1       21 0.14423134E-01 0.27538495E+02</pdfrwt>
<totfact> 0.81062293E+07</totfact>
</mgrwt>
</event>
<event>
 4    1  0.2721071E+004  0.2039192E+02  0.7546771E-02  0.1737645E+00
         21   -1    0    0  501  502  0.00000000000E+00  0.00000000000E+00  0.41814594007E+02  0.41814594007E+02  0.00000000000E+00 0. -1.
         21   -1    0    0  502  503 -0.00000000000E+00 -0.00000000000E+00 -0.13323876559E+02  0.13323876559E+02  0.00000000000E+00 0.  1.
          2    1    1    2  501    0  0.19096422871E+02  0.71524168900E+01  0.28129522135E+02  0.34743351153E+02  0.00000000000E+00 0. -1.
         -2    1    1    2    0  503 -0.19096422871E+02 -0.71524168900E+01  0.36119531327E+00  0.20395119413E+02  0.00000000000E+00 0.  1.
<mgrwt>
<rscale>  2 0.20391921E+02</rscale>
<asrwt>0</asrwt>
<pdfrwt beam="1">  1       21 0.64330144E-02 0.20391921E+02</pdfrwt>
<pdfrwt beam="2">  1       21 0.20498272E-02 0.20391921E+02</pdfrwt>
<totfact> 0.13300256E+08</totfact>
</mgrwt>
</event>
<event>
 4    1  0.2721071E+004  0.3663936E+02  0.7546771E-02  0.1534507E+00
         21   -1    0    0  501  502  0.00000000000E+00  0.00000000000E+00  0.70427754816E+01  0.70427754816E+01  0.00000000000E+00 0. -1.
         21   -1    0    0  502  503 -0.00000000000E+00 -0.00000000000E+00 -0.11727813323E+04  0.11727813323E+04  0.00000000000E+00 0.  1.
          2    1    1    2  501    0 -0.33593788367E+02 -0.14625325863E+02 -0.43020941368E+02  0.56508797276E+02  0.00000000000E+00 0. -1.
         -2    1    1    2    0  503  0.33593788367E+02  0.14625325863E+02 -0.11227176154E+04  0.11233153105E+04  0.00000000000E+00 0.  1.
<mgrwt>
<rscale>  2 0.36639361E+02</rscale>
<asrwt>0</asrwt>
<pdfrwt beam="1">  1       21 0.10835024E-02 0.36639361E+02</pdfrwt>
<pdfrwt beam="2">  1       21 0.18042815E+00 0.36639361E+02</pdfrwt>
<totfact> 0.62554078E+05</totfact>
</mgrwt>
</event>
<event>
 4    1  0.2721071E+004  0.2820876E+02  0.7546771E-02  0.1618776E+00
         21   -1    0    0  501  502  0.00000000000E+00  0.00000000000E+00  0.74219476191E+01  0.74219476191E+01  0.00000000000E+00 0.  1.
         21   -1    0    0  502  503 -0.00000000000E+00 -0.00000000000E+00 -0.20109373455E+03  0.20109373455E+03  0.00000000000E+00 0. -1.
          2    1    1    2  501    0  0.81233838311E+01  0.27013785310E+02 -0.25600433126E+02  0.38093518319E+02  0.00000000000E+00 0.  1.
         -2    1    1    2    0  503 -0.81233838311E+01 -0.27013785310E+02 -0.16807135380E+03  0.17042216385E+03  0.00000000000E+00 0. -1.
<mgrwt>
<rscale>  2 0.28208757E+02</rscale>
<asrwt>0</asrwt>
<pdfrwt beam="1">  1       21 0.11418381E-02 0.28208757E+02</pdfrwt>
<pdfrwt beam="2">  1       21 0.30937498E-01 0.28208757E+02</pdfrwt>
<totfact> 0.24163595E+07</totfact>
</mgrwt>
</event>
<event>
 4    1  0.2721071E+004  0.2192639E+02  0.7546771E-02  0.1709528E+00
         21   -1    0    0  503  502  0.00000000000E+00  0.00000000000E+00  0.61900409439E+03  0.61900409439E+03  0.00000000000E+00 0.  1.
         21   -1    0    0  501  503 -0.00000000000E+00 -0.00000000000E+00 -0.79735956863E+00  0.79735956863E+00  0.00000000000E+00 0. -1.
          2    1    1    2  501    0  0.12202953599E+02  0.18216873301E+02  0.35901393748E+03  0.35968287957E+03  0.00000000000E+00 0.  1.
         -2    1    1    2    0  502 -0.12202953599E+02 -0.18216873301E+02  0.25919279734E+03  0.26011857439E+03  0.00000000000E+00 0. -1.
<mgrwt>
<rscale>  2 0.21926389E+02</rscale>
<asrwt>0</asrwt>
<pdfrwt beam="1">  1       21 0.95231015E-01 0.21926389E+02</pdfrwt>
<pdfrwt beam="2">  1       21 0.12267120E-03 0.21926389E+02</pdfrwt>
<totfact> 0.65325152E+07</totfact>
</mgrwt>
</event>
<event>
 4    1  0.2721071E+004  0.4575734E+02  0.7546771E-02  0.1469668E+00
         21   -1    0    0  501  502  0.00000000000E+00  0.00000000000E+00  0.49769944783E+03  0.49769944783E+03  0.00000000000E+00 0. -1.
         21   -1    0    0  502  503 -0.00000000000E+00 -0.00000000000E+00 -0.84089100190E+01  0.84089100190E+01  0.00000000000E+00 0.  1.
          2    1    1    2  501    0 -0.30538972572E+02 -0.34074994638E+02  0.42353117182E+03  0.42599576009E+03  0.00000000000E+00 0. -1.
         -2    1    1    2    0  503  0.30538972572E+02  0.34074994638E+02  0.65759365991E+02  0.80112597766E+02  0.00000000000E+00 0.  1.
<mgrwt>
<rscale>  2 0.45757339E+02</rscale>
<asrwt>0</asrwt>
<pdfrwt beam="1">  1       21 0.76569123E-01 0.45757339E+02</pdfrwt>
<pdfrwt beam="2">  1       21 0.12936789E-02 0.45757339E+02</pdfrwt>
<totfact> 0.35457139E+06</totfact>
</mgrwt>
</event>
<event>
 4    1  0.2721071E+004  0.2664148E+02  0.7546771E-02  0.1638486E+00
         21   -1    0    0  501  502  0.00000000000E+00  0.00000000000E+00  0.56392258534E+01  0.56392258534E+01  0.00000000000E+00 0.  1.
         21   -1    0    0  502  503 -0.00000000000E+00 -0.00000000000E+00 -0.21687375096E+03  0.21687375096E+03  0.00000000000E+00 0. -1.
          2    1    1    2  501    0 -0.25087724664E+02 -0.89651920479E+01 -0.33544902108E+02  0.42837239112E+02  0.00000000000E+00 0.  1.
         -2    1    1    2    0  503  0.25087724664E+02  0.89651920479E+01 -0.17768962299E+03  0.17967573770E+03  0.00000000000E+00 0. -1.
<mgrwt>
<rscale>  2 0.26641483E+02</rscale>
<asrwt>0</asrwt>
<pdfrwt beam="1">  1       21 0.86757311E-03 0.26641483E+02</pdfrwt>
<pdfrwt beam="2">  1       21 0.33365196E-01 0.26641483E+02</pdfrwt>
<totfact> 0.31463591E+07</totfact>
</mgrwt>
</event>
<event>
 4    1  0.2721071E+004  0.2852989E+02  0.7546771E-02  0.1614931E+00
         21   -1    0    0  501  502  0.00000000000E+00  0.00000000000E+00  0.24240897585E+03  0.24240897585E+03  0.00000000000E+00 0. -1.
         21   -1    0    0  502  503 -0.00000000000E+00 -0.00000000000E+00 -0.38969171824E+01  0.38969171824E+01  0.00000000000E+00 0.  1.
          2    1    1    2  501    0  0.26162434890E+02 -0.11378990603E+02  0.16506351916E+03  0.16751095422E+03  0.00000000000E+00 0. -1.
         -2    1    1    2    0  503 -0.26162434890E+02  0.11378990603E+02  0.73448539509E+02  0.78794938813E+02  0.00000000000E+00 0.  1.
<mgrwt>
<rscale>  2 0.28529887E+02</rscale>
<asrwt>0</asrwt>
<pdfrwt beam="1">  1       21 0.37293677E-01 0.28529887E+02</pdfrwt>
<pdfrwt beam="2">  1       21 0.59952591E-03 0.28529887E+02</pdfrwt>
<totfact> 0.45095447E+07</totfact>
</mgrwt>
</event>
<event>
 4    1  0.2721071E+004  0.2284548E+02  0.7546771E-02  0.1694027E+00
         21   -1    0    0  501  502  0.00000000000E+00  0.00000000000E+00  0.28949959446E+02  0.28949959446E+02  0.00000000000E+00 0.  1.
         21   -1    0    0  502  503 -0.00000000000E+00 -0.00000000000E+00 -0.19000056244E+02  0.19000056244E+02  0.00000000000E+00 0. -1.
          2    1    1    2  501    0 -0.21251064516E+02  0.83850125935E+01  0.10397186314E+02  0.25100152639E+02  0.00000000000E+00 0.  1.
         -2    1    1    2    0  503  0.21251064516E+02 -0.83850125935E+01 -0.44728311224E+00  0.22849863051E+02  0.00000000000E+00 0. -1.
<mgrwt>
<rscale>  2 0.22845485E+02</rscale>
<asrwt>0</asrwt>
<pdfrwt beam="1">  1       21 0.44538399E-02 0.22845485E+02</pdfrwt>
<pdfrwt beam="2">  1       21 0.29230856E-02 0.22845485E+02</pdfrwt>
<totfact> 0.14311500E+08</totfact>
</mgrwt>
</event>
<event>
 4    1  0.2721071E+004  0.3065424E+02  0.7546771E-02  0.1590967E+00
         21   -1    0    0  501  502  0.00000000000E+00  0.00000000000E+00  0.31612336191E+03  0.31612336191E+03  0.00000000000E+00 0. -1.
         21   -1    0    0  502  503 -0.00000000000E+00 -0.00000000000E+00 -0.41026436358E+01  0.41026436358E+01  0.00000000000E+00 0.  1.
          2    1    1    2  501    0 -0.26404975266E+02 -0.15571123942E+02  0.24004491802E+03  0.24199430838E+03  0.00000000000E+00 0. -1.
         -2    1    1    2    0  503  0.26404975266E+02  0.15571123942E+02  0.71975800249E+02  0.78231697164E+02  0.00000000000E+00 0.  1.
<mgrwt>
<rscale>  2 0.30654243E+02</rscale>
<asrwt>0</asrwt>
<pdfrwt beam="1">  1       21 0.48634344E-01 0.30654243E+02</pdfrwt>
<pdfrwt beam="2">  1       21 0.63117619E-03 0.30654243E+02</pdfrwt>
<totfact> 0.25426828E+07</totfact>
</mgrwt>
</event>
<event>
 4    1  0.2721071E+004  0.2759004E+02  0.7546771E-02  0.1626365E+00
         21   -1    0    0  503  502  0.00000000000E+00  0.00000000000E+00  0.75953087923E+02  0.75953087923E+02  0.00000000000E+00 0. -1.
         21   -1    0    0  501  503 -0.00000000000E+00 -0.00000000000E+00 -0.10215295260E+02  0.10215295260E+02  0.00000000000E+00 0.  1.
          2    1    1    2  501    0 -0.17647991419E+02 -0.21207521396E+02  0.26944090665E+02  0.38564161946E+02  0.00000000000E+00 0. -1.
         -2    1    1    2    0  502  0.17647991419E+02  0.21207521396E+02  0.38793701998E+02  0.47604221237E+02  0.00000000000E+00 0.  1.
<mgrwt>
<rscale>  2 0.27590045E+02</rscale>
<asrwt>0</asrwt>
<pdfrwt beam="1">  1       21 0.11685090E-01 0.27590045E+02</pdfrwt>
<pdfrwt beam="2">  1       21 0.15715839E-02 0.27590045E+02</pdfrwt>
<totfact> 0.81541412E+07</totfact>
</mgrwt>
</event>
<event>
 4    1  0.2721071E+004  0.2295783E+02  0.7546771E-02  0.1692195E+00
         21   -1    0    0  503  502  0.00000000000E+00  0.00000000000E+00  0.26113029693E+02  0.26113029693E+02  0.00000000000E+00 0.  1.
         21   -1    0    0  501  503 -0.00000000000E+00 -0.00000000000E+00 -0.23946574492E+02  0.23946574492E+02  0.00000000000E+00 0. -1.
          2    1    1    2  501    0 -0.42554450487E+01 -0.22559988678E+02 -0.88384699209E+01  0.24600415693E+02  0.00000000000E+00 0. -1.
         -2    1    1    2    0  502  0.42554450487E+01  0.22559988678E+02  0.11004925122E+02  0.25459188492E+02  0.00000000000E+00 0.  1.
<mgrwt>
<rscale>  2 0.22957829E+02</rscale>
<asrwt>0</asrwt>
<pdfrwt beam="1">  1       21 0.40173892E-02 0.22957829E+02</pdfrwt>
<pdfrwt beam="2">  1       21 0.36840884E-02 0.22957829E+02</pdfrwt>
<totfact> 0.11750029E+08</totfact>
</mgrwt>
</event>
<event>
 4    1  0.2721071E+004  0.2130635E+02  0.7546771E-02  0.1720532E+00
         21   -1    0    0  501  502  0.00000000000E+00  0.00000000000E+00  0.43401882035E+03  0.43401882035E+03  0.00000000000E+00 0.  1.
         21   -1    0    0  502  503 -0.00000000000E+00 -0.00000000000E+00 -0.12302191195E+01  0.12302191195E+01  0.00000000000E+00 0. -1.
          2    1    1    2  501    0  0.20812897455E+02  0.45589387798E+01  0.30062037654E+03  0.30137447041E+03  0.00000000000E+00 0.  1.
         -2    1    1    2    0  503 -0.20812897455E+02 -0.45589387798E+01  0.13216822469E+03  0.13387456906E+03  0.00000000000E+00 0. -1.
<mgrwt>
<rscale>  2 0.21306352E+02</rscale>
<asrwt>0</asrwt>
<pdfrwt beam="1">  1       21 0.66772004E-01 0.21306352E+02</pdfrwt>
<pdfrwt beam="2">  1       21 0.18926483E-03 0.21306352E+02</pdfrwt>
<totfact> 0.73233391E+07</totfact>
</mgrwt>
</event>
<event>
 4    1  0.2721071E+004  0.2467648E+02  0.7546771E-02  0.1665693E+00
         21   -1    0    0  503  502  0.00000000000E+00  0.00000000000E+00  0.21656936353E+03  0.21656936353E+03  0.00000000000E+00 0. -1.
         21   -1    0    0  501  503 -0.00000000000E+00 -0.00000000000E+00 -0.90750379383E+01  0.90750379383E+01  0.00000000000E+00 0.  1.
          2    1    1    2  501    0  0.16624161567E+02 -0.18236395124E+02  0.10018344747E+02  0.26632613210E+02  0.00000000000E+00 0.  1.
         -2    1    1    2    0  502 -0.16624161567E+02  0.18236395124E+02  0.19747598085E+03  0.19901178826E+03  0.00000000000E+00 0. -1.
<mgrwt>
<rscale>  2 0.24676484E+02</rscale>
<asrwt>0</asrwt>
<pdfrwt beam="1">  1       21 0.33318360E-01 0.24676484E+02</pdfrwt>
<pdfrwt beam="2">  1       21 0.13961598E-02 0.24676484E+02</pdfrwt>
<totfact> 0.15136284E+07</totfact>
</mgrwt>
</event>
<event>
 4    1  0.2721071E+004  0.2017876E+02  0.7546771E-02  0.1741796E+00
         21   -1    0    0  501  502  0.00000000000E+00  0.00000000000E+00  0.31537953388E+02  0.31537953388E+02  0.00000000000E+00 0. -1.
         21   -1    0    0  502  503 -0.00000000000E+00 -0.00000000000E+00 -0.21601679469E+02  0.21601679469E+02  0.00000000000E+00 0.  1.
          2    1    1    2  501    0 -0.18200754550E+02  0.87129265909E+01  0.21821042974E+02  0.29721044269E+02  0.00000000000E+00 0. -1.
         -2    1    1    2    0  503  0.18200754550E+02 -0.87129265909E+01 -0.11884769055E+02  0.23418588588E+02  0.00000000000E+00 0.  1.
<mgrwt>
<rscale>  2 0.20178765E+02</rscale>
<asrwt>0</asrwt>
<pdfrwt beam="1">  1       21 0.48519928E-02 0.20178765E+02</pdfrwt>
<pdfrwt beam="2">  1       21 0.33233353E-02 0.20178765E+02</pdfrwt>
<totfact> 0.98627428E+07</totfact>
</mgrwt>
</event>
<event>
 4    1  0.2721071E+004  0.2543153E+02  0.7546771E-02  0.1654880E+00
         21   -1    0    0  503  502  0.00000000000E+00  0.00000000000E+00  0.14187489666E+02  0.14187489666E+02  0.00000000000E+00 0.  1.
         21   -1    0    0  501  503 -0.00000000000E+00 -0.00000000000E+00 -0.97969621097E+02  0.97969621097E+02  0.00000000000E+00 0. -1.
          2    1    1    2  501    0  0.66459886771E+01 -0.24547776365E+02 -0.82896883371E+02  0.86710182577E+02  0.00000000000E+00 0. -1.
         -2    1    1    2    0  502 -0.66459886771E+01  0.24547776365E+02 -0.88524806040E+00  0.25446928186E+02  0.00000000000E+00 0.  1.
<mgrwt>
<rscale>  2 0.25431526E+02</rscale>
<asrwt>0</asrwt>
<pdfrwt beam="1">  1       21 0.21826908E-02 0.25431526E+02</pdfrwt>
<pdfrwt beam="2">  1       21 0.15072249E-01 0.25431526E+02</pdfrwt>
<totfact> 0.31339047E+07</totfact>
</mgrwt>
</event>
<event>
 4    1  0.2721071E+004  0.4156681E+02  0.7546771E-02  0.1496988E+00
         21   -1    0    0  503  502  0.00000000000E+00  0.00000000000E+00  0.16486374284E+02  0.16486374284E+02  0.00000000000E+00 0. -1.
         21   -1    0    0  501  503 -0.00000000000E+00 -0.00000000000E+00 -0.17240720431E+03  0.17240720431E+03  0.00000000000E+00 0.  1.
          2    1    1    2  501    0 -0.40861194843E+02  0.76264120883E+01 -0.13710304707E+03  0.14326564460E+03  0.00000000000E+00 0.  1.
         -2    1    1    2    0  502  0.40861194843E+02 -0.76264120883E+01 -0.18817782951E+02  0.45627933993E+02  0.00000000000E+00 0. -1.
<mgrwt>
<rscale>  2 0.41566807E+02</rscale>
<asrwt>0</asrwt>
<pdfrwt beam="1">  1       21 0.25363651E-02 0.41566807E+02</pdfrwt>
<pdfrwt beam="2">  1       21 0.26524187E-01 0.41566807E+02</pdfrwt>
<totfact> 0.99211393E+06</totfact>
</mgrwt>
</event>
<event>
 4    1  0.2721071E+004  0.2753517E+02  0.7546771E-02  0.1627050E+00
         21   -1    0    0  503  502  0.00000000000E+00  0.00000000000E+00  0.11921821623E+02  0.11921821623E+02  0.00000000000E+00 0. -1.
         21   -1    0    0  501  503 -0.00000000000E+00 -0.00000000000E+00 -0.75636044205E+02  0.75636044205E+02  0.00000000000E+00 0.  1.
          2    1    1    2  501    0  0.23246193960E+02  0.14758053437E+02 -0.49323635005E+02  0.56488995786E+02  0.00000000000E+00 0.  1.
         -2    1    1    2    0  502 -0.23246193960E+02 -0.14758053437E+02 -0.14390587577E+02  0.31068870042E+02  0.00000000000E+00 0. -1.
<mgrwt>
<rscale>  2 0.27535172E+02</rscale>
<asrwt>0</asrwt>
<pdfrwt beam="1">  1       21 0.18341264E-02 0.27535172E+02</pdfrwt>
<pdfrwt beam="2">  1       21 0.11636315E-01 0.27535172E+02</pdfrwt>
<totfact> 0.64740231E+07</totfact>
</mgrwt>
</event>
<event>
 4    1  0.2721071E+004  0.2366138E+02  0.7546771E-02  0.1681008E+00
         21   -1    0    0  501  502  0.00000000000E+00  0.00000000000E+00  0.37234037295E+01  0.37234037295E+01  0.00000000000E+00 0. -1.
         21   -1    0    0  502  503 -0.00000000000E+00 -0.00000000000E+00 -0.16086340317E+03  0.16086340317E+03  0.00000000000E+00 0.  1.
          2    1    1    2  501    0 -0.20188134929E+02 -0.12340985549E+02 -0.57544449201E+02  0.62219163849E+02  0.00000000000E+00 0. -1.
         -2    1    1    2    0  503  0.20188134929E+02  0.12340985549E+02 -0.99595550240E+02  0.10236764305E+03  0.00000000000E+00 0.  1.
<mgrwt>
<rscale>  2 0.23661376E+02</rscale>
<asrwt>0</asrwt>
<pdfrwt beam="1">  1       21 0.57283134E-03 0.23661376E+02</pdfrwt>
<pdfrwt beam="2">  1       21 0.24748216E-01 0.23661376E+02</pdfrwt>
<totfact> 0.97841716E+07</totfact>
</mgrwt>
</event>
<event>
 4    1  0.2721071E+004  0.2230865E+02  0.7546771E-02  0.1702968E+00
         21   -1    0    0  503  502  0.00000000000E+00  0.00000000000E+00  0.98345846238E+01  0.98345846238E+01  0.00000000000E+00 0. -1.
         21   -1    0    0  501  503 -0.00000000000E+00 -0.00000000000E+00 -0.51820499382E+02  0.51820499382E+02  0.00000000000E+00 0.  1.
          2    1    1    2  501    0 -0.22306758697E+02  0.29042007035E+00 -0.25714956579E+02  0.34043131748E+02  0.00000000000E+00 0.  1.
         -2    1    1    2    0  502  0.22306758697E+02 -0.29042007035E+00 -0.16270958180E+02  0.27611952258E+02  0.00000000000E+00 0. -1.
<mgrwt>
<rscale>  2 0.22308649E+02</rscale>
<asrwt>0</asrwt>
<pdfrwt beam="1">  1       21 0.15130131E-02 0.22308649E+02</pdfrwt>
<pdfrwt beam="2">  1       21 0.79723843E-02 0.22308649E+02</pdfrwt>
<totfact> 0.15348532E+08</totfact>
</mgrwt>
</event>
<event>
 4    1  0.2721071E+004  0.2118348E+02  0.7546771E-02  0.1722768E+00
         21   -1    0    0  503  502  0.00000000000E+00  0.00000000000E+00  0.39951335232E+03  0.39951335232E+03  0.00000000000E+00 0. -1.
         21   -1    0    0  501  503 -0.00000000000E+00 -0.00000000000E+00 -0.21048840026E+01  0.21048840026E+01  0.00000000000E+00 0.  1.
          2    1    1    2  501    0 -0.19998202466E+02 -0.69865304859E+01  0.61568161785E+02  0.65110508028E+02  0.00000000000E+00 0.  1.
         -2    1    1    2    0  502  0.19998202466E+02  0.69865304859E+01  0.33584030653E+03  0.33650772829E+03  0.00000000000E+00 0. -1.
<mgrwt>
<rscale>  2 0.21183477E+02</rscale>
<asrwt>0</asrwt>
<pdfrwt beam="1">  1       21 0.61463532E-01 0.21183477E+02</pdfrwt>
<pdfrwt beam="2">  1       21 0.32382863E-03 0.21183477E+02</pdfrwt>
<totfact> 0.39724120E+07</totfact>
</mgrwt>
</event>
<event>
 4    1  0.2721071E+004  0.2028203E+02  0.7546771E-02  0.1739777E+00
         21   -1    0    0  503  502  0.00000000000E+00  0.00000000000E+00  0.29425043884E+03  0.29425043884E+03  0.00000000000E+00 0.  1.
         21   -1    0    0  501  503 -0.00000000000E+00 -0.00000000000E+00 -0.33608638187E+01  0.33608638187E+01  0.00000000000E+00 0. -1.
          2    1    1    2  501    0  0.18910261706E+02  0.73322957974E+01  0.31724058101E+02  0.37653371985E+02  0.00000000000E+00 0. -1.
         -2    1    1    2    0  502 -0.18910261706E+02 -0.73322957974E+01  0.25916551692E+03  0.25995793067E+03  0.00000000000E+00 0.  1.
<mgrwt>
<rscale>  2 0.20282026E+02</rscale>
<asrwt>0</asrwt>
<pdfrwt beam="1">  1       21 0.45269278E-01 0.20282026E+02</pdfrwt>
<pdfrwt beam="2">  1       21 0.51705620E-03 0.20282026E+02</pdfrwt>
<totfact> 0.36018818E+07</totfact>
</mgrwt>
</event>
<event>
 4    1  0.2721071E+004  0.3097448E+02  0.7546771E-02  0.1587560E+00
         21   -1    0    0  501  502  0.00000000000E+00  0.00000000000E+00  0.39172861452E+02  0.39172861452E+02  0.00000000000E+00 0.  1.
         21   -1    0    0  502  503 -0.00000000000E+00 -0.00000000000E+00 -0.26788601565E+02  0.26788601565E+02  0.00000000000E+00 0. -1.
          2    1    1    2  501    0 -0.29306422428E+02 -0.10027565372E+02 -0.34647305828E+01  0.31167656647E+02  0.00000000000E+00 0.  1.
         -2    1    1    2    0  503  0.29306422428E+02  0.10027565372E+02  0.15848990470E+02  0.34793806370E+02  0.00000000000E+00 0. -1.
<mgrwt>
<rscale>  2 0.30974481E+02</rscale>
<asrwt>0</asrwt>
<pdfrwt beam="1">  1       21 0.60265941E-02 0.30974481E+02</pdfrwt>
<pdfrwt beam="2">  1       21 0.41213233E-02 0.30974481E+02</pdfrwt>
<totfact> 0.55527564E+07</totfact>
</mgrwt>
</event>
<event>
 4    1  0.2721071E+004  0.2498165E+02  0.7546771E-02  0.1661266E+00
         21   -1    0    0  501  502  0.00000000000E+00  0.00000000000E+00  0.26666421988E+02  0.26666421988E+02  0.00000000000E+00 0.  1.
         21   -1    0    0  502  503 -0.00000000000E+00 -0.00000000000E+00 -0.26220569273E+02  0.26220569273E+02  0.00000000000E+00 0. -1.
          2    1    1    2  501    0 -0.95384868607E+00  0.24963430952E+02  0.88907630177E+01  0.26516568014E+02  0.00000000000E+00 0.  1.
         -2    1    1    2    0  503  0.95384868607E+00 -0.24963430952E+02 -0.84449103033E+01  0.26370423247E+02  0.00000000000E+00 0. -1.
<mgrwt>
<rscale>  2 0.24981648E+02</rscale>
<asrwt>0</asrwt>
<pdfrwt beam="1">  1       21 0.41025265E-02 0.24981648E+02</pdfrwt>
<pdfrwt beam="2">  1       21 0.40339337E-02 0.24981648E+02</pdfrwt>
<totfact> 0.10093398E+08</totfact>
</mgrwt>
</event>
<event>
 4    1  0.2721071E+004  0.3124173E+02  0.7546771E-02  0.1584755E+00
         21   -1    0    0  503  502  0.00000000000E+00  0.00000000000E+00  0.87807888368E+03  0.87807888368E+03  0.00000000000E+00 0.  1.
         21   -1    0    0  501  503 -0.00000000000E+00 -0.00000000000E+00 -0.16815604338E+01  0.16815604338E+01  0.00000000000E+00 0. -1.
          2    1    1    2  501    0 -0.14032372052E+02  0.27913050541E+02  0.18209717213E+03  0.18475774937E+03  0.00000000000E+00 0. -1.
         -2    1    1    2    0  502  0.14032372052E+02 -0.27913050541E+02  0.69430015112E+03  0.69500269474E+03  0.00000000000E+00 0.  1.
<mgrwt>
<rscale>  2 0.31241733E+02</rscale>
<asrwt>0</asrwt>
<pdfrwt beam="1">  1       21 0.13508869E+00 0.31241733E+02</pdfrwt>
<pdfrwt beam="2">  1       21 0.25870231E-03 0.31241733E+02</pdfrwt>
<totfact> 0.10744171E+07</totfact>
</mgrwt>
</event>
<event>
 4    1  0.2721071E+004  0.2518837E+02  0.7546771E-02  0.1658311E+00
         21   -1    0    0  501  502  0.00000000000E+00  0.00000000000E+00  0.14541310820E+03  0.14541310820E+03  0.00000000000E+00 0. -1.
         21   -1    0    0  502  503 -0.00000000000E+00 -0.00000000000E+00 -0.50295923560E+01  0.50295923560E+01  0.00000000000E+00 0.  1.
          2    1    1    2  501    0  0.24168332669E+02  0.70954567242E+01  0.97573943571E+02  0.10077265638E+03  0.00000000000E+00 0. -1.
         -2    1    1    2    0  503 -0.24168332669E+02 -0.70954567242E+01  0.42809572274E+02  0.49670044175E+02  0.00000000000E+00 0.  1.
<mgrwt>
<rscale>  2 0.25188367E+02</rscale>
<asrwt>0</asrwt>
<pdfrwt beam="1">  1       21 0.22371244E-01 0.25188367E+02</pdfrwt>
<pdfrwt beam="2">  1       21 0.77378355E-03 0.25188367E+02</pdfrwt>
<totfact> 0.76038509E+07</totfact>
</mgrwt>
</event>
<event>
 4    1  0.2721071E+004  0.3859306E+02  0.7546771E-02  0.1518828E+00
         21   -1    0    0  503  502  0.00000000000E+00  0.00000000000E+00  0.17292996034E+02  0.17292996034E+02  0.00000000000E+00 0.  1.
         21   -1    0    0  501  503 -0.00000000000E+00 -0.00000000000E+00 -0.86486131838E+02  0.86486131838E+02  0.00000000000E+00 0. -1.
          2    1    1    2  501    0  0.35369313301E+02 -0.15441375306E+02 -0.37932089807E+02  0.54113471815E+02  0.00000000000E+00 0.  1.
         -2    1    1    2    0  502 -0.35369313301E+02  0.15441375306E+02 -0.31261045997E+02  0.49665656057E+02  0.00000000000E+00 0. -1.
<mgrwt>
<rscale>  2 0.38593061E+02</rscale>
<asrwt>0</asrwt>
<pdfrwt beam="1">  1       21 0.26604609E-02 0.38593061E+02</pdfrwt>
<pdfrwt beam="2">  1       21 0.13305559E-01 0.38593061E+02</pdfrwt>
<totfact> 0.30949143E+07</totfact>
</mgrwt>
</event>
<event>
 4    1  0.2721071E+004  0.2471510E+02  0.7546771E-02  0.1665128E+00
         21   -1    0    0  503  502  0.00000000000E+00  0.00000000000E+00  0.57695839662E+02  0.57695839662E+02  0.00000000000E+00 0. -1.
         21   -1    0    0  501  503 -0.00000000000E+00 -0.00000000000E+00 -0.67506450793E+02  0.67506450793E+02  0.00000000000E+00 0.  1.
          2    1    1    2  501    0 -0.24071618841E+02  0.56029548855E+01 -0.62388292183E+02  0.67105401709E+02  0.00000000000E+00 0.  1.
         -2    1    1    2    0  502  0.24071618841E+02 -0.56029548855E+01  0.52577681053E+02  0.58096888746E+02  0.00000000000E+00 0. -1.
<mgrwt>
<rscale>  2 0.24715095E+02</rscale>
<asrwt>0</asrwt>
<pdfrwt beam="1">  1       21 0.88762830E-02 0.24715095E+02</pdfrwt>
<pdfrwt beam="2">  1       21 0.10385608E-01 0.24715095E+02</pdfrwt>
<totfact> 0.62730081E+06</totfact>
</mgrwt>
</event>
<event>
 4    1  0.2721071E+004  0.2267943E+02  0.7546771E-02  0.1696760E+00
         21   -1    0    0  501  502  0.00000000000E+00  0.00000000000E+00  0.89323558347E+02  0.89323558347E+02  0.00000000000E+00 0. -1.
         21   -1    0    0  502  503 -0.00000000000E+00 -0.00000000000E+00 -0.83094713332E+01  0.83094713332E+01  0.00000000000E+00 0.  1.
          2    1    1    2  501    0  0.16465395964E+02 -0.15596383571E+02  0.67555687916E+02  0.71260981011E+02  0.00000000000E+00 0. -1.
         -2    1    1    2    0  503 -0.16465395964E+02  0.15596383571E+02  0.13458399097E+02  0.26372048669E+02  0.00000000000E+00 0.  1.
<mgrwt>
<rscale>  2 0.22679428E+02</rscale>
<asrwt>0</asrwt>
<pdfrwt beam="1">  1       21 0.13742085E-01 0.22679428E+02</pdfrwt>
<pdfrwt beam="2">  1       21 0.12783803E-02 0.22679428E+02</pdfrwt>
<totfact> 0.80710341E+07</totfact>
</mgrwt>
</event>
<event>
 4    1  0.2721071E+004  0.2099648E+02  0.7546771E-02  0.1726208E+00
         21   -1    0    0  501  502  0.00000000000E+00  0.00000000000E+00  0.18883250895E+03  0.18883250895E+03  0.00000000000E+00 0. -1.
         21   -1    0    0  502  503 -0.00000000000E+00 -0.00000000000E+00 -0.27691897724E+01  0.27691897724E+01  0.00000000000E+00 0.  1.
          2    1    1    2  501    0 -0.13646729871E+02  0.15956779838E+02  0.13098264033E+03  0.13265483077E+03  0.00000000000E+00 0. -1.
         -2    1    1    2    0  503  0.13646729871E+02 -0.15956779838E+02  0.55080678842E+02  0.58946867946E+02  0.00000000000E+00 0.  1.
<mgrwt>
<rscale>  2 0.20996477E+02</rscale>
<asrwt>0</asrwt>
<pdfrwt beam="1">  1       21 0.29051145E-01 0.20996477E+02</pdfrwt>
<pdfrwt beam="2">  1       21 0.42602934E-03 0.20996477E+02</pdfrwt>
<totfact> 0.10983657E+08</totfact>
</mgrwt>
</event>
<event>
 4    1  0.2721071E+004  0.2249946E+02  0.7546771E-02  0.1699755E+00
         21   -1    0    0  501  502  0.00000000000E+00  0.00000000000E+00  0.56085669139E+02  0.56085669139E+02  0.00000000000E+00 0. -1.
         21   -1    0    0  502  503 -0.00000000000E+00 -0.00000000000E+00 -0.93618196738E+01  0.93618196738E+01  0.00000000000E+00 0.  1.
          2    1    1    2  501    0 -0.34101806484E+01  0.22239522677E+02  0.29560285259E+02  0.37148838011E+02  0.00000000000E+00 0. -1.
         -2    1    1    2    0  503  0.34101806484E+01 -0.22239522677E+02  0.17163564206E+02  0.28298650802E+02  0.00000000000E+00 0.  1.
<mgrwt>
<rscale>  2 0.22499460E+02</rscale>
<asrwt>0</asrwt>
<pdfrwt beam="1">  1       21 0.86285643E-02 0.22499460E+02</pdfrwt>
<pdfrwt beam="2">  1       21 0.14402800E-02 0.22499460E+02</pdfrwt>
<totfact> 0.14573406E+08</totfact>
</mgrwt>
</event>
<event>
 4    1  0.2721071E+004  0.3271787E+02  0.7546771E-02  0.1569853E+00
         21   -1    0    0  503  502  0.00000000000E+00  0.00000000000E+00  0.55123585264E+02  0.55123585264E+02  0.00000000000E+00 0. -1.
         21   -1    0    0  501  503 -0.00000000000E+00 -0.00000000000E+00 -0.12491357868E+03  0.12491357868E+03  0.00000000000E+00 0.  1.
          2    1    1    2  501    0  0.95332575969E+01 -0.31298180673E+02 -0.11762096940E+03  0.12208665593E+03  0.00000000000E+00 0.  1.
         -2    1    1    2    0  502 -0.95332575969E+01  0.31298180673E+02  0.47830975992E+02  0.57950508006E+02  0.00000000000E+00 0. -1.
<mgrwt>
<rscale>  2 0.32717871E+02</rscale>
<asrwt>0</asrwt>
<pdfrwt beam="1">  1       21 0.84805517E-02 0.32717871E+02</pdfrwt>
<pdfrwt beam="2">  1       21 0.19217473E-01 0.32717871E+02</pdfrwt>
<totfact> 0.24495846E+06</totfact>
</mgrwt>
</event>
<event>
 4    1  0.2721071E+004  0.2751953E+02  0.7546771E-02  0.1627245E+00
         21   -1    0    0  501  502  0.00000000000E+00  0.00000000000E+00  0.14785357157E+02  0.14785357157E+02  0.00000000000E+00 0.  1.
         21   -1    0    0  502  503 -0.00000000000E+00 -0.00000000000E+00 -0.52031024571E+02  0.52031024571E+02  0.00000000000E+00 0. -1.
          2    1    1    2  501    0 -0.19081749529E+02  0.19829557498E+02 -0.14455069852E+02  0.31084941050E+02  0.00000000000E+00 0.  1.
         -2    1    1    2    0  503  0.19081749529E+02 -0.19829557498E+02 -0.22790597562E+02  0.35731440677E+02  0.00000000000E+00 0. -1.
<mgrwt>
<rscale>  2 0.27519530E+02</rscale>
<asrwt>0</asrwt>
<pdfrwt beam="1">  1       21 0.22746703E-02 0.27519530E+02</pdfrwt>
<pdfrwt beam="2">  1       21 0.80047731E-02 0.27519530E+02</pdfrwt>
<totfact> 0.86447659E+07</totfact>
</mgrwt>
</event>
<event>
 4    1  0.2721071E+004  0.2509422E+02  0.7546771E-02  0.1659652E+00
         21   -1    0    0  501  502  0.00000000000E+00  0.00000000000E+00  0.79151647404E+03  0.79151647404E+03  0.00000000000E+00 0.  1.
         21   -1    0    0  502  503 -0.00000000000E+00 -0.00000000000E+00 -0.39045083444E+01  0.39045083444E+01  0.00000000000E+00 0. -1.
          2    1    1    2  501    0  0.24886749038E+02 -0.32201716148E+01  0.74869190786E+03  0.74911233648E+03  0.00000000000E+00 0.  1.
         -2    1    1    2    0  503 -0.24886749038E+02  0.32201716148E+01  0.38920057840E+02  0.46308645901E+02  0.00000000000E+00 0. -1.
<mgrwt>
<rscale>  2 0.25094218E+02</rscale>
<asrwt>0</asrwt>
<pdfrwt beam="1">  1       21 0.12177164E+00 0.25094218E+02</pdfrwt>
<pdfrwt beam="2">  1       21 0.60069422E-03 0.25094218E+02</pdfrwt>
<totfact> 0.38395805E+06</totfact>
</mgrwt>
</event>
<event>
 4    1  0.2721071E+004  0.4260197E+02  0.7546771E-02  0.1489892E+00
         21   -1    0    0  503  502  0.00000000000E+00  0.00000000000E+00  0.18567795284E+02  0.18567795284E+02  0.00000000000E+00 0.  1.
         21   -1    0    0  501  503 -0.00000000000E+00 -0.00000000000E+00 -0.10766307942E+03  0.10766307942E+03  0.00000000000E+00 0. -1.
          2    1    1    2  501    0 -0.14484673452E+02  0.40063969967E+02 -0.63703182250E+02  0.76635650211E+02  0.00000000000E+00 0. -1.
         -2    1    1    2    0  502  0.14484673452E+02 -0.40063969967E+02 -0.25392101890E+02  0.49595224497E+02  0.00000000000E+00 0.  1.
<mgrwt>
<rscale>  2 0.42601965E+02</rscale>
<asrwt>0</asrwt>
<pdfrwt beam="1">  1       21 0.28565839E-02 0.42601965E+02</pdfrwt>
<pdfrwt beam="2">  1       21 0.16563550E-01 0.42601965E+02</pdfrwt>
<totfact> 0.19206207E+07</totfact>
</mgrwt>
</event>
<event>
 4    1  0.2721071E+004  0.2150489E+02  0.7546771E-02  0.1716958E+00
         21   -1    0    0  501  502  0.00000000000E+00  0.00000000000E+00  0.21163587367E+01  0.21163587367E+01  0.00000000000E+00 0.  1.
         21   -1    0    0  502  503 -0.00000000000E+00 -0.00000000000E+00 -0.49878369613E+03  0.49878369613E+03  0.00000000000E+00 0. -1.
          2    1    1    2  501    0  0.21184395784E+02 -0.36988773333E+01 -0.60596301951E+02  0.64299083418E+02  0.00000000000E+00 0.  1.
         -2    1    1    2    0  503 -0.21184395784E+02  0.36988773333E+01 -0.43607103544E+03  0.43660097145E+03  0.00000000000E+00 0. -1.
<mgrwt>
<rscale>  2 0.21504891E+02</rscale>
<asrwt>0</asrwt>
<pdfrwt beam="1">  1       21 0.32559392E-03 0.21504891E+02</pdfrwt>
<pdfrwt beam="2">  1       21 0.76735891E-01 0.21504891E+02</pdfrwt>
<totfact> 0.25160034E+07</totfact>
</mgrwt>
</event>
<event>
 4    1  0.2721071E+004  0.3162706E+02  0.7546771E-02  0.1580770E+00
         21   -1    0    0  503  502  0.00000000000E+00  0.00000000000E+00  0.37901392479E+02  0.37901392479E+02  0.00000000000E+00 0.  1.
         21   -1    0    0  501  503 -0.00000000000E+00 -0.00000000000E+00 -0.27120284368E+02  0.27120284368E+02  0.00000000000E+00 0. -1.
          2    1    1    2  501    0 -0.39753309362E+01  0.31376227755E+02  0.60771801970E-01  0.31627118386E+02  0.00000000000E+00 0. -1.
         -2    1    1    2    0  502  0.39753309362E+01 -0.31376227755E+02  0.10720336309E+02  0.33394558460E+02  0.00000000000E+00 0.  1.
<mgrwt>
<rscale>  2 0.31627060E+02</rscale>
<asrwt>0</asrwt>
<pdfrwt beam="1">  1       21 0.58309835E-02 0.31627060E+02</pdfrwt>
<pdfrwt beam="2">  1       21 0.41723514E-02 0.31627060E+02</pdfrwt>
<totfact> 0.57708395E+07</totfact>
</mgrwt>
</event>
<event>
 4    1  0.2721071E+004  0.2119516E+02  0.7546771E-02  0.1722555E+00
         21   -1    0    0  501  502  0.00000000000E+00  0.00000000000E+00  0.14946547770E+02  0.14946547770E+02  0.00000000000E+00 0.  1.
         21   -1    0    0  502  503 -0.00000000000E+00 -0.00000000000E+00 -0.74156479517E+02  0.74156479517E+02  0.00000000000E+00 0. -1.
          2    1    1    2  501    0 -0.20640056143E+02  0.48189957127E+01  0.47515545866E+01  0.21721231739E+02  0.00000000000E+00 0.  1.
         -2    1    1    2    0  503  0.20640056143E+02 -0.48189957127E+01 -0.63961486334E+02  0.67381795548E+02  0.00000000000E+00 0. -1.
<mgrwt>
<rscale>  2 0.21195156E+02</rscale>
<asrwt>0</asrwt>
<pdfrwt beam="1">  1       21 0.22994689E-02 0.21195156E+02</pdfrwt>
<pdfrwt beam="2">  1       21 0.11408689E-01 0.21195156E+02</pdfrwt>
<totfact> 0.44257093E+07</totfact>
</mgrwt>
</event>
<event>
 4    1  0.2721071E+004  0.2162685E+02  0.7546771E-02  0.1714787E+00
         21   -1    0    0  503  502  0.00000000000E+00  0.00000000000E+00  0.52795519087E+02  0.52795519087E+02  0.00000000000E+00 0.  1.
         21   -1    0    0  501  503 -0.00000000000E+00 -0.00000000000E+00 -0.92435102953E+01  0.92435102953E+01  0.00000000000E+00 0. -1.
          2    1    1    2  501    0  0.13198330050E+02 -0.17132560250E+02  0.15450186655E+02  0.26578728421E+02  0.00000000000E+00 0. -1.
         -2    1    1    2    0  502 -0.13198330050E+02  0.17132560250E+02  0.28101822137E+02  0.35460300961E+02  0.00000000000E+00 0.  1.
<mgrwt>
<rscale>  2 0.21626848E+02</rscale>
<asrwt>0</asrwt>
<pdfrwt beam="1">  1       21 0.81223874E-02 0.21626848E+02</pdfrwt>
<pdfrwt beam="2">  1       21 0.14220785E-02 0.21626848E+02</pdfrwt>
<totfact> 0.16202156E+08</totfact>
</mgrwt>
</event>
<event>
 4    1  0.2721071E+004  0.3632224E+02  0.7546771E-02  0.1537163E+00
         21   -1    0    0  501  502  0.00000000000E+00  0.00000000000E+00  0.66017987639E+01  0.66017987639E+01  0.00000000000E+00 0. -1.
         21   -1    0    0  502  503 -0.00000000000E+00 -0.00000000000E+00 -0.20635567790E+03  0.20635567790E+03  0.00000000000E+00 0.  1.
          2    1    1    2  501    0  0.36071190839E+02  0.42631255691E+01 -0.80956705877E+02  0.88731579917E+02  0.00000000000E+00 0.  1.
         -2    1    1    2    0  503 -0.36071190839E+02 -0.42631255691E+01 -0.11879717326E+03  0.12422589675E+03  0.00000000000E+00 0. -1.
<mgrwt>
<rscale>  2 0.36322239E+02</rscale>
<asrwt>0</asrwt>
<pdfrwt beam="1">  1       21 0.10156613E-02 0.36322239E+02</pdfrwt>
<pdfrwt beam="2">  1       21 0.31747028E-01 0.36322239E+02</pdfrwt>
<totfact> 0.28827454E+07</totfact>
</mgrwt>
</event>
<event>
 4    1  0.2721071E+004  0.2079812E+02  0.7546771E-02  0.1729907E+00
         21   -1    0    0  503  502  0.00000000000E+00  0.00000000000E+00  0.57737184677E+01  0.57737184677E+01  0.00000000000E+00 0.  1.
         21   -1    0    0  501  503 -0.00000000000E+00 -0.00000000000E+00 -0.88532099464E+02  0.88532099464E+02  0.00000000000E+00 0. -1.
          2    1    1    2  501    0  0.15720201163E+02  0.13617535044E+02 -0.59869087271E+02  0.63378778751E+02  0.00000000000E+00 0. -1.
         -2    1    1    2    0  502 -0.15720201163E+02 -0.13617535044E+02 -0.22889293726E+02  0.30927039182E+02  0.00000000000E+00 0.  1.
<mgrwt>
<rscale>  2 0.20798125E+02</rscale>
<asrwt>0</asrwt>
<pdfrwt beam="1">  1       21 0.88826440E-03 0.20798125E+02</pdfrwt>
<pdfrwt beam="2">  1       21 0.13620323E-01 0.20798125E+02</pdfrwt>
<totfact> 0.13806175E+08</totfact>
</mgrwt>
</event>
<event>
 4    1  0.2721071E+004  0.2512466E+02  0.7546771E-02  0.1659218E+00
         21   -1    0    0  503  502  0.00000000000E+00  0.00000000000E+00  0.57235849177E+03  0.57235849177E+03  0.00000000000E+00 0.  1.
         21   -1    0    0  501  503 -0.00000000000E+00 -0.00000000000E+00 -0.36007576261E+01  0.36007576261E+01  0.00000000000E+00 0. -1.
          2    1    1    2  501    0 -0.23411057958E+01 -0.25015351659E+02  0.44523464266E+02  0.51123257576E+02  0.00000000000E+00 0. -1.
         -2    1    1    2    0  502  0.23411057958E+01  0.25015351659E+02  0.52423426988E+03  0.52483599182E+03  0.00000000000E+00 0.  1.
<mgrwt>
<rscale>  2 0.25124661E+02</rscale>
<asrwt>0</asrwt>
<pdfrwt beam="1">  1       21 0.88055080E-01 0.25124661E+02</pdfrwt>
<pdfrwt beam="2">  1       21 0.55396317E-03 0.25124661E+02</pdfrwt>
<totfact> 0.88683192E+06</totfact>
</mgrwt>
</event>
<event>
 4    1  0.2721071E+004  0.2403536E+02  0.7546771E-02  0.1675257E+00
         21   -1    0    0  503  502  0.00000000000E+00  0.00000000000E+00  0.41947142150E+02  0.41947142150E+02  0.00000000000E+00 0. -1.
         21   -1    0    0  501  503 -0.00000000000E+00 -0.00000000000E+00 -0.18933910589E+02  0.18933910589E+02  0.00000000000E+00 0.  1.
          2    1    1    2  501    0  0.16555617303E+02 -0.17424410923E+02 -0.43874391626E+01  0.24432523052E+02  0.00000000000E+00 0.  1.
         -2    1    1    2    0  502 -0.16555617303E+02  0.17424410923E+02  0.27400670723E+02  0.36448529688E+02  0.00000000000E+00 0. -1.
<mgrwt>
<rscale>  2 0.24035361E+02</rscale>
<asrwt>0</asrwt>
<pdfrwt beam="1">  1       21 0.64534065E-02 0.24035361E+02</pdfrwt>
<pdfrwt beam="2">  1       21 0.29129093E-02 0.24035361E+02</pdfrwt>
<totfact> 0.80717584E+07</totfact>
</mgrwt>
</event>
<event>
 4    1  0.2721071E+004  0.2646347E+02  0.7546771E-02  0.1640830E+00
         21   -1    0    0  501  502  0.00000000000E+00  0.00000000000E+00  0.41606321498E+03  0.41606321498E+03  0.00000000000E+00 0.  1.
         21   -1    0    0  502  503 -0.00000000000E+00 -0.00000000000E+00 -0.20331388678E+01  0.20331388678E+01  0.00000000000E+00 0. -1.
          2    1    1    2  501    0 -0.87313508405E+01  0.24981566962E+02  0.29374368589E+03  0.29493332836E+03  0.00000000000E+00 0.  1.
         -2    1    1    2    0  503  0.87313508405E+01 -0.24981566962E+02  0.12028639022E+03  0.12316302548E+03  0.00000000000E+00 0. -1.
<mgrwt>
<rscale>  2 0.26463469E+02</rscale>
<asrwt>0</asrwt>
<pdfrwt beam="1">  1       21 0.64009658E-01 0.26463469E+02</pdfrwt>
<pdfrwt beam="2">  1       21 0.31279093E-03 0.26463469E+02</pdfrwt>
<totfact> 0.40424134E+07</totfact>
</mgrwt>
</event>
<event>
 4    1  0.2721071E+004  0.3543480E+02  0.7546771E-02  0.1544773E+00
         21   -1    0    0  503  502  0.00000000000E+00  0.00000000000E+00  0.12354701453E+02  0.12354701453E+02  0.00000000000E+00 0. -1.
         21   -1    0    0  501  503 -0.00000000000E+00 -0.00000000000E+00 -0.10241183788E+03  0.10241183788E+03  0.00000000000E+00 0.  1.
          2    1    1    2  501    0 -0.32438671590E+02  0.14260350030E+02 -0.40019083358E+02  0.53452334190E+02  0.00000000000E+00 0. -1.
         -2    1    1    2    0  502  0.32438671590E+02 -0.14260350030E+02 -0.50038053071E+02  0.61314205146E+02  0.00000000000E+00 0.  1.
<mgrwt>
<rscale>  2 0.35434799E+02</rscale>
<asrwt>0</asrwt>
<pdfrwt beam="1">  1       21 0.19007233E-02 0.35434799E+02</pdfrwt>
<pdfrwt beam="2">  1       21 0.15755667E-01 0.35434799E+02</pdfrwt>
<totfact> 0.38523216E+07</totfact>
</mgrwt>
</event>
<event>
 4    1  0.2721071E+004  0.2093267E+02  0.7546771E-02  0.1727393E+00
         21   -1    0    0  501  502  0.00000000000E+00  0.00000000000E+00  0.13149026478E+01  0.13149026478E+01  0.00000000000E+00 0.  1.
         21   -1    0    0  502  503 -0.00000000000E+00 -0.00000000000E+00 -0.57605682819E+03  0.57605682819E+03  0.00000000000E+00 0. -1.
          2    1    1    2  501    0  0.19575868931E+02  0.74136295575E+01 -0.99943449756E+02  0.10211204482E+03  0.00000000000E+00 0.  1.
         -2    1    1    2    0  503 -0.19575868931E+02 -0.74136295575E+01 -0.47479847578E+03  0.47525968602E+03  0.00000000000E+00 0. -1.
<mgrwt>
<rscale>  2 0.20932667E+02</rscale>
<asrwt>0</asrwt>
<pdfrwt beam="1">  1       21 0.20229286E-03 0.20932667E+02</pdfrwt>
<pdfrwt beam="2">  1       21 0.88624063E-01 0.20932667E+02</pdfrwt>
<totfact> 0.36817558E+07</totfact>
</mgrwt>
</event>
<event>
 4    1  0.2721071E+004  0.3127706E+02  0.7546771E-02  0.1584387E+00
         21   -1    0    0  501  502  0.00000000000E+00  0.00000000000E+00  0.91543113619E+02  0.91543113619E+02  0.00000000000E+00 0. -1.
         21   -1    0    0  502  503 -0.00000000000E+00 -0.00000000000E+00 -0.18823398587E+02  0.18823398587E+02  0.00000000000E+00 0.  1.
          2    1    1    2  501    0  0.21405950949E+02 -0.22804383496E+02  0.72642075683E+02  0.79089353280E+02  0.00000000000E+00 0. -1.
         -2    1    1    2    0  503 -0.21405950949E+02  0.22804383496E+02  0.77639348842E-01  0.31277158927E+02  0.00000000000E+00 0.  1.
<mgrwt>
<rscale>  2 0.31277063E+02</rscale>
<asrwt>0</asrwt>
<pdfrwt beam="1">  1       21 0.14083556E-01 0.31277063E+02</pdfrwt>
<pdfrwt beam="2">  1       21 0.28959075E-02 0.31277063E+02</pdfrwt>
<totfact> 0.23636170E+07</totfact>
</mgrwt>
</event>
<event>
 4    1  0.2721071E+004  0.2150653E+02  0.7546771E-02  0.1716929E+00
         21   -1    0    0  501  502  0.00000000000E+00  0.00000000000E+00  0.34702035583E+03  0.34702035583E+03  0.00000000000E+00 0.  1.
         21   -1    0    0  502  503 -0.00000000000E+00 -0.00000000000E+00 -0.15386679484E+01  0.15386679484E+01  0.00000000000E+00 0. -1.
          2    1    1    2  501    0  0.21478318842E+02 -0.11011584297E+01  0.23647927504E+03  0.23745521315E+03  0.00000000000E+00 0.  1.
         -2    1    1    2    0  503 -0.21478318842E+02  0.11011584297E+01  0.10900241284E+03  0.11110381062E+03  0.00000000000E+00 0. -1.
<mgrwt>
<rscale>  2 0.21506528E+02</rscale>
<asrwt>0</asrwt>
<pdfrwt beam="1">  1       21 0.53387685E-01 0.21506528E+02</pdfrwt>
<pdfrwt beam="2">  1       21 0.23671842E-03 0.21506528E+02</pdfrwt>
<totfact> 0.83002133E+07</totfact>
</mgrwt>
</event>
<event>
 4    1  0.2721071E+004  0.2375158E+02  0.7546771E-02  0.1679609E+00
         21   -1    0    0  501  502  0.00000000000E+00  0.00000000000E+00  0.25305809443E+03  0.25305809443E+03  0.00000000000E+00 0. -1.
         21   -1    0    0  502  503 -0.00000000000E+00 -0.00000000000E+00 -0.23253993570E+01  0.23253993570E+01  0.00000000000E+00 0.  1.
          2    1    1    2  501    0  0.21847562462E+02  0.93178081682E+01  0.99405562341E+02  0.10220373456E+03  0.00000000000E+00 0.  1.
         -2    1    1    2    0  503 -0.21847562462E+02 -0.93178081682E+01  0.15132713273E+03  0.15317975922E+03  0.00000000000E+00 0. -1.
<mgrwt>
<rscale>  2 0.23751580E+02</rscale>
<asrwt>0</asrwt>
<pdfrwt beam="1">  1       21 0.38931993E-01 0.23751580E+02</pdfrwt>
<pdfrwt beam="2">  1       21 0.35775395E-03 0.23751580E+02</pdfrwt>
<totfact> 0.85527776E+07</totfact>
</mgrwt>
</event>
<event>
 4    1  0.2721071E+004  0.2560670E+02  0.7546771E-02  0.1652437E+00
         21   -1    0    0  501  502  0.00000000000E+00  0.00000000000E+00  0.14099684489E+02  0.14099684489E+02  0.00000000000E+00 0. -1.
         21   -1    0    0  502  503 -0.00000000000E+00 -0.00000000000E+00 -0.10412622707E+03  0.10412622707E+03  0.00000000000E+00 0.  1.
          2    1    1    2  501    0  0.28875611274E+01  0.25443372259E+02 -0.10394140126E+01  0.25627789266E+02  0.00000000000E+00 0. -1.
         -2    1    1    2    0  503 -0.28875611274E+01 -0.25443372259E+02 -0.88987128572E+02  0.92598122296E+02  0.00000000000E+00 0.  1.
<mgrwt>
<rscale>  2 0.25606702E+02</rscale>
<asrwt>0</asrwt>
<pdfrwt beam="1">  1       21 0.21691822E-02 0.25606702E+02</pdfrwt>
<pdfrwt beam="2">  1       21 0.16019420E-01 0.25606702E+02</pdfrwt>
<totfact> 0.28543286E+07</totfact>
</mgrwt>
</event>
<event>
 4    1  0.2721071E+004  0.3262040E+02  0.7546771E-02  0.1570808E+00
         21   -1    0    0  501  502  0.00000000000E+00  0.00000000000E+00  0.20266147424E+01  0.20266147424E+01  0.00000000000E+00 0.  1.
         21   -1    0    0  502  503 -0.00000000000E+00 -0.00000000000E+00 -0.11530318697E+04  0.11530318697E+04  0.00000000000E+00 0. -1.
          2    1    1    2  501    0  0.28683258229E+02 -0.15535797677E+02 -0.14929216661E+03  0.15281440156E+03  0.00000000000E+00 0.  1.
         -2    1    1    2    0  503 -0.28683258229E+02  0.15535797677E+02 -0.10017130883E+04  0.10022440828E+04  0.00000000000E+00 0. -1.
<mgrwt>
<rscale>  2 0.32620397E+02</rscale>
<asrwt>0</asrwt>
<pdfrwt beam="1">  1       21 0.31178754E-03 0.32620397E+02</pdfrwt>
<pdfrwt beam="2">  1       21 0.17738914E+00 0.32620397E+02</pdfrwt>
<totfact> 0.42165767E+06</totfact>
</mgrwt>
</event>
<event>
 4    1  0.2721071E+004  0.2258438E+02  0.7546771E-02  0.1698337E+00
         21   -1    0    0  501  502  0.00000000000E+00  0.00000000000E+00  0.24414184677E+01  0.24414184677E+01  0.00000000000E+00 0. -1.
         21   -1    0    0  502  503 -0.00000000000E+00 -0.00000000000E+00 -0.21014241791E+03  0.21014241791E+03  0.00000000000E+00 0.  1.
          2    1    1    2  501    0 -0.13652045143E+02  0.17990988484E+02 -0.95733933423E+02  0.98361781256E+02  0.00000000000E+00 0.  1.
         -2    1    1    2    0  503  0.13652045143E+02 -0.17990988484E+02 -0.11196706602E+03  0.11422205512E+03  0.00000000000E+00 0. -1.
<mgrwt>
<rscale>  2 0.22584375E+02</rscale>
<asrwt>0</asrwt>
<pdfrwt beam="1">  1       21 0.37560283E-03 0.22584375E+02</pdfrwt>
<pdfrwt beam="2">  1       21 0.32329603E-01 0.22584375E+02</pdfrwt>
<totfact> 0.11095508E+08</totfact>
</mgrwt>
</event>
<event>
 4    1  0.2721071E+004  0.2837850E+02  0.7546771E-02  0.1616736E+00
         21   -1    0    0  501  502  0.00000000000E+00  0.00000000000E+00  0.38627958621E+01  0.38627958621E+01  0.00000000000E+00 0. -1.
         21   -1    0    0  502  503 -0.00000000000E+00 -0.00000000000E+00 -0.23047676804E+03  0.23047676804E+03  0.00000000000E+00 0.  1.
          2    1    1    2  501    0 -0.14826697699E+02  0.24197279153E+02 -0.77114271624E+02  0.82170251132E+02  0.00000000000E+00 0. -1.
         -2    1    1    2    0  503  0.14826697699E+02 -0.24197279153E+02 -0.14949970055E+03  0.15216931277E+03  0.00000000000E+00 0.  1.
<mgrwt>
<rscale>  2 0.28378500E+02</rscale>
<asrwt>0</asrwt>
<pdfrwt beam="1">  1       21 0.59427618E-03 0.28378500E+02</pdfrwt>
<pdfrwt beam="2">  1       21 0.35457971E-01 0.28378500E+02</pdfrwt>
<totfact> 0.50175922E+07</totfact>
</mgrwt>
</event>
<event>
 4    1  0.2721071E+004  0.2191544E+02  0.7546771E-02  0.1709718E+00
         21   -1    0    0  501  502  0.00000000000E+00  0.00000000000E+00  0.16863907451E+01  0.16863907451E+01  0.00000000000E+00 0.  1.
         21   -1    0    0  502  503 -0.00000000000E+00 -0.00000000000E+00 -0.46998166081E+03  0.46998166081E+03  0.00000000000E+00 0. -1.
          2    1    1    2  501    0 -0.53952970394E+01  0.21240938396E+02 -0.86113053129E+02  0.88858002528E+02  0.00000000000E+00 0.  1.
         -2    1    1    2    0  503  0.53952970394E+01 -0.21240938396E+02 -0.38218221694E+03  0.38281004903E+03  0.00000000000E+00 0. -1.
<mgrwt>
<rscale>  2 0.21915444E+02</rscale>
<asrwt>0</asrwt>
<pdfrwt beam="1">  1       21 0.25944471E-03 0.21915444E+02</pdfrwt>
<pdfrwt beam="2">  1       21 0.72304877E-01 0.21915444E+02</pdfrwt>
<totfact> 0.39738265E+07</totfact>
</mgrwt>
</event>
<event>
 4    1  0.2721071E+004  0.2032665E+02  0.7546771E-02  0.1738909E+00
         21   -1    0    0  503  502  0.00000000000E+00  0.00000000000E+00  0.53593310809E+02  0.53593310809E+02  0.00000000000E+00 0. -1.
         21   -1    0    0  501  503 -0.00000000000E+00 -0.00000000000E+00 -0.20298238118E+02  0.20298238118E+02  0.00000000000E+00 0.  1.
          2    1    1    2  501    0  0.58319770132E+01  0.19472054820E+02 -0.12448125002E+02  0.23835450297E+02  0.00000000000E+00 0.  1.
         -2    1    1    2    0  502 -0.58319770132E+01 -0.19472054820E+02  0.45743197694E+02  0.50056098630E+02  0.00000000000E+00 0. -1.
<mgrwt>
<rscale>  2 0.20326654E+02</rscale>
<asrwt>0</asrwt>
<pdfrwt beam="1">  1       21 0.82451247E-02 0.20326654E+02</pdfrwt>
<pdfrwt beam="2">  1       21 0.31228059E-02 0.20326654E+02</pdfrwt>
<totfact> 0.46541325E+07</totfact>
</mgrwt>
</event>
<event>
 4    1  0.2721071E+004  0.2493442E+02  0.7546771E-02  0.1661946E+00
         21   -1    0    0  501  502  0.00000000000E+00  0.00000000000E+00  0.12170702157E+03  0.12170702157E+03  0.00000000000E+00 0. -1.
         21   -1    0    0  502  503 -0.00000000000E+00 -0.00000000000E+00 -0.91701920156E+01  0.91701920156E+01  0.00000000000E+00 0.  1.
          2    1    1    2  501    0  0.24266338724E+02 -0.57332437751E+01  0.99820096636E+02  0.10288720509E+03  0.00000000000E+00 0. -1.
         -2    1    1    2    0  503 -0.24266338724E+02  0.57332437751E+01  0.12716732916E+02  0.27990008491E+02  0.00000000000E+00 0.  1.
<mgrwt>
<rscale>  2 0.24934420E+02</rscale>
<asrwt>0</asrwt>
<pdfrwt beam="1">  1       21 0.18724156E-01 0.24934420E+02</pdfrwt>
<pdfrwt beam="2">  1       21 0.14107989E-02 0.24934420E+02</pdfrwt>
<totfact> 0.41896097E+07</totfact>
</mgrwt>
</event>
<event>
 4    1  0.2721071E+004  0.2209837E+02  0.7546771E-02  0.1706556E+00
         21   -1    0    0  501  502  0.00000000000E+00  0.00000000000E+00  0.12420395599E+02  0.12420395599E+02  0.00000000000E+00 0.  1.
         21   -1    0    0  502  503 -0.00000000000E+00 -0.00000000000E+00 -0.41480385599E+02  0.41480385599E+02  0.00000000000E+00 0. -1.
          2    1    1    2  501    0 -0.16750185235E+02 -0.14414200873E+02 -0.83758372536E+01  0.23632446803E+02  0.00000000000E+00 0.  1.
         -2    1    1    2    0  503  0.16750185235E+02  0.14414200873E+02 -0.20684152746E+02  0.30268334395E+02  0.00000000000E+00 0. -1.
<mgrwt>
<rscale>  2 0.22098369E+02</rscale>
<asrwt>0</asrwt>
<pdfrwt beam="1">  1       21 0.19108301E-02 0.22098369E+02</pdfrwt>
<pdfrwt beam="2">  1       21 0.63815978E-02 0.22098369E+02</pdfrwt>
<totfact> 0.15373638E+08</totfact>
</mgrwt>
</event>
<event>
 4    1  0.2721071E+004  0.2366967E+02  0.7546771E-02  0.1680879E+00
         21   -1    0    0  503  502  0.00000000000E+00  0.00000000000E+00  0.71237217086E+01  0.71237217086E+01  0.00000000000E+00 0. -1.
         21   -1    0    0  501  503 -0.00000000000E+00 -0.00000000000E+00 -0.13255223457E+03  0.13255223457E+03  0.00000000000E+00 0.  1.
          2    1    1    2  501    0 -0.30207346072E+01  0.23476126208E+02 -0.10725084985E+03  0.10983168092E+03  0.00000000000E+00 0.  1.
         -2    1    1    2    0  502  0.30207346072E+01 -0.23476126208E+02 -0.18177663008E+02  0.29844275360E+02  0.00000000000E+00 0. -1.
<mgrwt>
<rscale>  2 0.23669671E+02</rscale>
<asrwt>0</asrwt>
<pdfrwt beam="1">  1       21 0.10959573E-02 0.23669671E+02</pdfrwt>
<pdfrwt beam="2">  1       21 0.20392649E-01 0.23669671E+02</pdfrwt>
<totfact> 0.52251979E+07</totfact>
</mgrwt>
</event>
<event>
 4    1  0.2721071E+004  0.2067497E+02  0.7546771E-02  0.1732229E+00
         21   -1    0    0  503  502  0.00000000000E+00  0.00000000000E+00  0.47972319140E+03  0.47972319140E+03  0.00000000000E+00 0.  1.
         21   -1    0    0  501  503 -0.00000000000E+00 -0.00000000000E+00 -0.22992043516E+01  0.22992043516E+01  0.00000000000E+00 0. -1.
          2    1    1    2  501    0  0.47867528909E+00  0.20669426334E+02  0.50097726086E+02  0.54196277308E+02  0.00000000000E+00 0. -1.
         -2    1    1    2    0  502 -0.47867528909E+00 -0.20669426334E+02  0.42732626097E+03  0.42782611845E+03  0.00000000000E+00 0.  1.
<mgrwt>
<rscale>  2 0.20674968E+02</rscale>
<asrwt>0</asrwt>
<pdfrwt beam="1">  1       21 0.73803488E-01 0.20674968E+02</pdfrwt>
<pdfrwt beam="2">  1       21 0.35372413E-03 0.20674968E+02</pdfrwt>
<totfact> 0.23969140E+07</totfact>
</mgrwt>
</event>
<event>
 4    1  0.2721071E+004  0.2069286E+02  0.7546771E-02  0.1731891E+00
         21   -1    0    0  503  502  0.00000000000E+00  0.00000000000E+00  0.13937558992E+04  0.13937558992E+04  0.00000000000E+00 0.  1.
         21   -1    0    0  501  503 -0.00000000000E+00 -0.00000000000E+00 -0.51210928433E+00  0.51210928433E+00  0.00000000000E+00 0. -1.
          2    1    1    2  501    0 -0.58786983791E+01 -0.19840241733E+02  0.25567014801E+03  0.25650617706E+03  0.00000000000E+00 0. -1.
         -2    1    1    2    0  502  0.58786983791E+01  0.19840241733E+02  0.11375736419E+04  0.11377618314E+04  0.00000000000E+00 0.  1.
<mgrwt>
<rscale>  2 0.20692856E+02</rscale>
<asrwt>0</asrwt>
<pdfrwt beam="1">  1       21 0.21442095E+00 0.20692856E+02</pdfrwt>
<pdfrwt beam="2">  1       21 0.78787160E-04 0.20692856E+02</pdfrwt>
<totfact> 0.17933459E+07</totfact>
</mgrwt>
</event>
<event>
 4    1  0.2721071E+004  0.2114804E+02  0.7546771E-02  0.1723417E+00
         21   -1    0    0  503  502  0.00000000000E+00  0.00000000000E+00  0.46144084841E+02  0.46144084841E+02  0.00000000000E+00 0. -1.
         21   -1    0    0  501  503 -0.00000000000E+00 -0.00000000000E+00 -0.19168966746E+02  0.19168966746E+02  0.00000000000E+00 0.  1.
          2    1    1    2  501    0 -0.90352858639E+01  0.19120752917E+02 -0.94739162363E+01  0.23173145484E+02  0.00000000000E+00 0.  1.
         -2    1    1    2    0  502  0.90352858639E+01 -0.19120752917E+02  0.36449034331E+02  0.42139906104E+02  0.00000000000E+00 0. -1.
<mgrwt>
<rscale>  2 0.21148040E+02</rscale>
<asrwt>0</asrwt>
<pdfrwt beam="1">  1       21 0.70990899E-02 0.21148040E+02</pdfrwt>
<pdfrwt beam="2">  1       21 0.29490718E-02 0.21148040E+02</pdfrwt>
<totfact> 0.65519801E+07</totfact>
</mgrwt>
</event>
<event>
 4    1  0.2721071E+004  0.2422240E+02  0.7546771E-02  0.1672429E+00
         21   -1    0    0  501  502  0.00000000000E+00  0.00000000000E+00  0.74344159457E+00  0.74344159457E+00  0.00000000000E+00 0. -1.
         21   -1    0    0  502  503 -0.00000000000E+00 -0.00000000000E+00 -0.81487177458E+03  0.81487177458E+03  0.00000000000E+00 0.  1.
          2    1    1    2  501    0  0.23356685263E+02  0.64179372026E+01 -0.33468188252E+03  0.33555727849E+03  0.00000000000E+00 0. -1.
         -2    1    1    2    0  503 -0.23356685263E+02 -0.64179372026E+01 -0.47944645047E+03  0.48005793769E+03  0.00000000000E+00 0.  1.
<mgrwt>
<rscale>  2 0.24222400E+02</rscale>
<asrwt>0</asrwt>
<pdfrwt beam="1">  1       21 0.11437615E-03 0.24222400E+02</pdfrwt>
<pdfrwt beam="2">  1       21 0.12536432E+00 0.24222400E+02</pdfrwt>
<totfact> 0.40005573E+07</totfact>
</mgrwt>
</event>
<event>
 4    1  0.2721071E+004  0.2257909E+02  0.7546771E-02  0.1698425E+00
         21   -1    0    0  501  502  0.00000000000E+00  0.00000000000E+00  0.17384691214E+02  0.17384691214E+02  0.00000000000E+00 0.  1.
         21   -1    0    0  502  503 -0.00000000000E+00 -0.00000000000E+00 -0.51472475356E+02  0.51472475356E+02  0.00000000000E+00 0. -1.
          2    1    1    2  501    0  0.79097114044E+01  0.21148326620E+02  0.55394680064E+01  0.23248676503E+02  0.00000000000E+00 0.  1.
         -2    1    1    2    0  503 -0.79097114044E+01 -0.21148326620E+02 -0.39627252149E+02  0.45608490067E+02  0.00000000000E+00 0. -1.
<mgrwt>
<rscale>  2 0.22579089E+02</rscale>
<asrwt>0</asrwt>
<pdfrwt beam="1">  1       21 0.26745679E-02 0.22579089E+02</pdfrwt>
<pdfrwt beam="2">  1       21 0.79188422E-02 0.22579089E+02</pdfrwt>
<totfact> 0.65003035E+07</totfact>
</mgrwt>
</event>
<event>
 4    1  0.2721071E+004  0.2467152E+02  0.7546771E-02  0.1665765E+00
         21   -1    0    0  503  502  0.00000000000E+00  0.00000000000E+00  0.15611553942E+01  0.15611553942E+01  0.00000000000E+00 0. -1.
         21   -1    0    0  501  503 -0.00000000000E+00 -0.00000000000E+00 -0.55512166456E+03  0.55512166456E+03  0.00000000000E+00 0.  1.
          2    1    1    2  501    0  0.24622366305E+02  0.15565691262E+01 -0.42863424324E+03  0.42934368321E+03  0.00000000000E+00 0.  1.
         -2    1    1    2    0  502 -0.24622366305E+02 -0.15565691262E+01 -0.12492626592E+03  0.12733913674E+03  0.00000000000E+00 0. -1.
<mgrwt>
<rscale>  2 0.24671519E+02</rscale>
<asrwt>0</asrwt>
<pdfrwt beam="1">  1       21 0.24017737E-03 0.24671519E+02</pdfrwt>
<pdfrwt beam="2">  1       21 0.85403471E-01 0.24671519E+02</pdfrwt>
<totfact> 0.32175207E+07</totfact>
</mgrwt>
</event>
<event>
 4    1  0.2721071E+004  0.2637264E+02  0.7546771E-02  0.1642034E+00
         21   -1    0    0  501  502  0.00000000000E+00  0.00000000000E+00  0.21167980657E+04  0.21167980657E+04  0.00000000000E+00 0.  1.
         21   -1    0    0  502  503 -0.00000000000E+00 -0.00000000000E+00 -0.45986999740E+00  0.45986999740E+00  0.00000000000E+00 0. -1.
          2    1    1    2  501    0 -0.22395691453E+02  0.13926571212E+02  0.16238331265E+04  0.16240472712E+04  0.00000000000E+00 0.  1.
         -2    1    1    2    0  503  0.22395691453E+02 -0.13926571212E+02  0.49250506927E+03  0.49321066456E+03  0.00000000000E+00 0. -1.
<mgrwt>
<rscale>  2 0.26372645E+02</rscale>
<asrwt>0</asrwt>
<pdfrwt beam="1">  1       21 0.32565344E+00 0.26372645E+02</pdfrwt>
<pdfrwt beam="2">  1       21 0.70750925E-04 0.26372645E+02</pdfrwt>
<totfact> 0.59549072E+06</totfact>
</mgrwt>
</event>
<event>
 4    1  0.2721071E+004  0.2217311E+02  0.7546771E-02  0.1705275E+00
         21   -1    0    0  501  502  0.00000000000E+00  0.00000000000E+00  0.20685878639E+02  0.20685878639E+02  0.00000000000E+00 0. -1.
         21   -1    0    0  502  503 -0.00000000000E+00 -0.00000000000E+00 -0.39675010130E+02  0.39675010130E+02  0.00000000000E+00 0.  1.
          2    1    1    2  501    0  0.15404712518E+02 -0.15948095104E+02  0.96159022608E+01  0.24168419094E+02  0.00000000000E+00 0. -1.
         -2    1    1    2    0  503 -0.15404712518E+02  0.15948095104E+02 -0.28605033751E+02  0.36192469675E+02  0.00000000000E+00 0.  1.
<mgrwt>
<rscale>  2 0.22173112E+02</rscale>
<asrwt>0</asrwt>
<pdfrwt beam="1">  1       21 0.31824429E-02 0.22173112E+02</pdfrwt>
<pdfrwt beam="2">  1       21 0.61038477E-02 0.22173112E+02</pdfrwt>
<totfact> 0.75209489E+07</totfact>
</mgrwt>
</event>
<event>
 4    1  0.2721071E+004  0.2174924E+02  0.7546771E-02  0.1712625E+00
         21   -1    0    0  503  502  0.00000000000E+00  0.00000000000E+00  0.12740326786E+03  0.12740326786E+03  0.00000000000E+00 0. -1.
         21   -1    0    0  501  503 -0.00000000000E+00 -0.00000000000E+00 -0.10933558672E+02  0.10933558672E+02  0.00000000000E+00 0.  1.
          2    1    1    2  501    0 -0.11559494659E+02  0.18423017136E+02  0.20244262565E+01  0.21843254767E+02  0.00000000000E+00 0.  1.
         -2    1    1    2    0  502  0.11559494659E+02 -0.18423017136E+02  0.11444528293E+03  0.11649357176E+03  0.00000000000E+00 0. -1.
<mgrwt>
<rscale>  2 0.21749241E+02</rscale>
<asrwt>0</asrwt>
<pdfrwt beam="1">  1       21 0.19600502E-01 0.21749241E+02</pdfrwt>
<pdfrwt beam="2">  1       21 0.16820860E-02 0.21749241E+02</pdfrwt>
<totfact> 0.28663853E+07</totfact>
</mgrwt>
</event>
<event>
 4    1  0.2721071E+004  0.2987147E+02  0.7546771E-02  0.1599514E+00
         21   -1    0    0  501  502  0.00000000000E+00  0.00000000000E+00  0.36656362378E+01  0.36656362378E+01  0.00000000000E+00 0. -1.
         21   -1    0    0  502  503 -0.00000000000E+00 -0.00000000000E+00 -0.27662405133E+03  0.27662405133E+03  0.00000000000E+00 0.  1.
          2    1    1    2  501    0 -0.29698114614E+02 -0.32135486901E+01 -0.87928046378E+02  0.92863589456E+02  0.00000000000E+00 0.  1.
         -2    1    1    2    0  503  0.29698114614E+02  0.32135486901E+01 -0.18503036872E+03  0.18742609811E+03  0.00000000000E+00 0. -1.
<mgrwt>
<rscale>  2 0.29871473E+02</rscale>
<asrwt>0</asrwt>
<pdfrwt beam="1">  1       21 0.56394411E-03 0.29871473E+02</pdfrwt>
<pdfrwt beam="2">  1       21 0.42557541E-01 0.29871473E+02</pdfrwt>
<totfact> 0.38795974E+07</totfact>
</mgrwt>
</event>
<event>
 4    1  0.2721071E+004  0.2383847E+02  0.7546771E-02  0.1678268E+00
         21   -1    0    0  501  502  0.00000000000E+00  0.00000000000E+00  0.22344508757E+02  0.22344508757E+02  0.00000000000E+00 0.  1.
         21   -1    0    0  502  503 -0.00000000000E+00 -0.00000000000E+00 -0.30195035407E+02  0.30195035407E+02  0.00000000000E+00 0. -1.
          2    1    1    2  501    0 -0.75450840691E+01  0.22612928716E+02  0.65078892734E+01  0.24710836925E+02  0.00000000000E+00 0.  1.
         -2    1    1    2    0  503  0.75450840691E+01 -0.22612928716E+02 -0.14358415924E+02  0.27828707239E+02  0.00000000000E+00 0. -1.
<mgrwt>
<rscale>  2 0.23838474E+02</rscale>
<asrwt>0</asrwt>
<pdfrwt beam="1">  1       21 0.34376167E-02 0.23838474E+02</pdfrwt>
<pdfrwt beam="2">  1       21 0.46453900E-02 0.23838474E+02</pdfrwt>
<totfact> 0.10524197E+08</totfact>
</mgrwt>
</event>
<event>
 4    1  0.2721071E+004  0.2118548E+02  0.7546771E-02  0.1722732E+00
         21   -1    0    0  501  502  0.00000000000E+00  0.00000000000E+00  0.53169790992E+01  0.53169790992E+01  0.00000000000E+00 0.  1.
         21   -1    0    0  502  503 -0.00000000000E+00 -0.00000000000E+00 -0.21725847546E+03  0.21725847546E+03  0.00000000000E+00 0. -1.
          2    1    1    2  501    0  0.12309509214E+02 -0.17242402710E+02 -0.18948242779E+02  0.28422884666E+02  0.00000000000E+00 0.  1.
         -2    1    1    2    0  503 -0.12309509214E+02  0.17242402710E+02 -0.19299325358E+03  0.19415256989E+03  0.00000000000E+00 0. -1.
<mgrwt>
<rscale>  2 0.21185478E+02</rscale>
<asrwt>0</asrwt>
<pdfrwt beam="1">  1       21 0.81799689E-03 0.21185478E+02</pdfrwt>
<pdfrwt beam="2">  1       21 0.33424377E-01 0.21185478E+02</pdfrwt>
<totfact> 0.32549965E+07</totfact>
</mgrwt>
</event>
<event>
 4    1  0.2721071E+004  0.2746506E+02  0.7546771E-02  0.1627927E+00
         21   -1    0    0  503  502  0.00000000000E+00  0.00000000000E+00  0.29044876328E+02  0.29044876328E+02  0.00000000000E+00 0.  1.
         21   -1    0    0  501  503 -0.00000000000E+00 -0.00000000000E+00 -0.31456338931E+02  0.31456338931E+02  0.00000000000E+00 0. -1.
          2    1    1    2  501    0 -0.26742226727E+02  0.62596230055E+01 -0.13837809759E+02  0.30754098091E+02  0.00000000000E+00 0. -1.
         -2    1    1    2    0  502  0.26742226727E+02 -0.62596230055E+01  0.11426347156E+02  0.29747117168E+02  0.00000000000E+00 0.  1.
<mgrwt>
<rscale>  2 0.27465061E+02</rscale>
<asrwt>0</asrwt>
<pdfrwt beam="1">  1       21 0.44684425E-02 0.27465061E+02</pdfrwt>
<pdfrwt beam="2">  1       21 0.48394367E-02 0.27465061E+02</pdfrwt>
<totfact> 0.67589911E+07</totfact>
</mgrwt>
</event>
<event>
 4    1  0.2721071E+004  0.3523958E+02  0.7546771E-02  0.1546483E+00
         21   -1    0    0  503  502  0.00000000000E+00  0.00000000000E+00  0.54933996146E+03  0.54933996146E+03  0.00000000000E+00 0.  1.
         21   -1    0    0  501  503 -0.00000000000E+00 -0.00000000000E+00 -0.24801630688E+01  0.24801630688E+01  0.00000000000E+00 0. -1.
          2    1    1    2  501    0 -0.35175772416E+02 -0.21196945369E+01  0.19133337051E+03  0.19455150151E+03  0.00000000000E+00 0. -1.
         -2    1    1    2    0  502  0.35175772416E+02  0.21196945369E+01  0.35552642788E+03  0.35726862302E+03  0.00000000000E+00 0.  1.
<mgrwt>
<rscale>  2 0.35239581E+02</rscale>
<asrwt>0</asrwt>
<pdfrwt beam="1">  1       21 0.84513743E-01 0.35239581E+02</pdfrwt>
<pdfrwt beam="2">  1       21 0.38156399E-03 0.35239581E+02</pdfrwt>
<totfact> 0.17713333E+07</totfact>
</mgrwt>
</event>
<event>
 4    1  0.2721071E+004  0.2136483E+02  0.7546771E-02  0.1719474E+00
         21   -1    0    0  501  502  0.00000000000E+00  0.00000000000E+00  0.16949627635E+02  0.16949627635E+02  0.00000000000E+00 0.  1.
         21   -1    0    0  502  503 -0.00000000000E+00 -0.00000000000E+00 -0.28906019750E+02  0.28906019750E+02  0.00000000000E+00 0. -1.
          2    1    1    2  501    0  0.18741913432E+02  0.10256532996E+02  0.16253506231E-01  0.21364832140E+02  0.00000000000E+00 0.  1.
         -2    1    1    2    0  503 -0.18741913432E+02 -0.10256532996E+02 -0.11972645621E+02  0.24490815245E+02  0.00000000000E+00 0. -1.
<mgrwt>
<rscale>  2 0.21364826E+02</rscale>
<asrwt>0</asrwt>
<pdfrwt beam="1">  1       21 0.26076351E-02 0.21364826E+02</pdfrwt>
<pdfrwt beam="2">  1       21 0.44470799E-02 0.21364826E+02</pdfrwt>
<totfact> 0.16773321E+08</totfact>
</mgrwt>
</event>
<event>
 4    1  0.2721071E+004  0.2318665E+02  0.7546771E-02  0.1688502E+00
         21   -1    0    0  501  502  0.00000000000E+00  0.00000000000E+00  0.20545884531E+02  0.20545884531E+02  0.00000000000E+00 0. -1.
         21   -1    0    0  502  503 -0.00000000000E+00 -0.00000000000E+00 -0.96036929594E+02  0.96036929594E+02  0.00000000000E+00 0.  1.
          2    1    1    2  501    0 -0.21027997763E+02 -0.97695551643E+01  0.11974469639E+02  0.26096145714E+02  0.00000000000E+00 0. -1.
         -2    1    1    2    0  503  0.21027997763E+02  0.97695551643E+01 -0.87465514702E+02  0.90486668411E+02  0.00000000000E+00 0.  1.
<mgrwt>
<rscale>  2 0.23186653E+02</rscale>
<asrwt>0</asrwt>
<pdfrwt beam="1">  1       21 0.31609053E-02 0.23186653E+02</pdfrwt>
<pdfrwt beam="2">  1       21 0.14774912E-01 0.23186653E+02</pdfrwt>
<totfact> 0.17881179E+07</totfact>
</mgrwt>
</event>
<event>
 4    1  0.2721071E+004  0.2500205E+02  0.7546771E-02  0.1660972E+00
         21   -1    0    0  503  502  0.00000000000E+00  0.00000000000E+00  0.15303965184E+03  0.15303965184E+03  0.00000000000E+00 0. -1.
         21   -1    0    0  501  503 -0.00000000000E+00 -0.00000000000E+00 -0.58259266106E+01  0.58259266106E+01  0.00000000000E+00 0.  1.
          2    1    1    2  501    0  0.24537045306E+02 -0.47995795202E+01  0.30179841611E+02  0.39190884088E+02  0.00000000000E+00 0.  1.
         -2    1    1    2    0  502 -0.24537045306E+02  0.47995795202E+01  0.11703388362E+03  0.11967469436E+03  0.00000000000E+00 0. -1.
<mgrwt>
<rscale>  2 0.25002051E+02</rscale>
<asrwt>0</asrwt>
<pdfrwt beam="1">  1       21 0.23544559E-01 0.25002051E+02</pdfrwt>
<pdfrwt beam="2">  1       21 0.89629652E-03 0.25002051E+02</pdfrwt>
<totfact> 0.55615416E+07</totfact>
</mgrwt>
</event>
<event>
 4    1  0.2721071E+004  0.2765576E+02  0.7546771E-02  0.1625547E+00
         21   -1    0    0  501  502  0.00000000000E+00  0.00000000000E+00  0.52099465885E+01  0.52099465885E+01  0.00000000000E+00 0.  1.
         21   -1    0    0  502  503 -0.00000000000E+00 -0.00000000000E+00 -0.23533771122E+03  0.23533771122E+03  0.00000000000E+00 0. -1.
          2    1    1    2  501    0 -0.26707430449E+02 -0.71801229752E+01 -0.41293895610E+02  0.49699364400E+02  0.00000000000E+00 0.  1.
         -2    1    1    2    0  503  0.26707430449E+02  0.71801229752E+01 -0.18883386902E+03  0.19084829341E+03  0.00000000000E+00 0. -1.
<mgrwt>
<rscale>  2 0.27655759E+02</rscale>
<asrwt>0</asrwt>
<pdfrwt beam="1">  1       21 0.80153033E-03 0.27655759E+02</pdfrwt>
<pdfrwt beam="2">  1       21 0.36205798E-01 0.27655759E+02</pdfrwt>
<totfact> 0.30667351E+07</totfact>
</mgrwt>
</event>
<event>
 4    1  0.2721071E+004  0.2038846E+02  0.7546771E-02  0.1737712E+00
         21   -1    0    0  503  502  0.00000000000E+00  0.00000000000E+00  0.12430974661E+02  0.12430974661E+02  0.00000000000E+00 0.  1.
         21   -1    0    0  501  503 -0.00000000000E+00 -0.00000000000E+00 -0.35587504213E+02  0.35587504213E+02  0.00000000000E+00 0. -1.
          2    1    1    2  501    0  0.14616889444E+02 -0.14213928675E+02 -0.17476438103E+02  0.26853586616E+02  0.00000000000E+00 0. -1.
         -2    1    1    2    0  502 -0.14616889444E+02  0.14213928675E+02 -0.56800914491E+01  0.21164892257E+02  0.00000000000E+00 0.  1.
<mgrwt>
<rscale>  2 0.20388458E+02</rscale>
<asrwt>0</asrwt>
<pdfrwt beam="1">  1       21 0.19124577E-02 0.20388458E+02</pdfrwt>
<pdfrwt beam="2">  1       21 0.54750006E-02 0.20388458E+02</pdfrwt>
<totfact> 0.19129491E+08</totfact>
</mgrwt>
</event>
<event>
 4    1  0.2721071E+004  0.2909056E+02  0.7546771E-02  0.1608364E+00
         21   -1    0    0  501  502  0.00000000000E+00  0.00000000000E+00  0.25699859833E+03  0.25699859833E+03  0.00000000000E+00 0. -1.
         21   -1    0    0  502  503 -0.00000000000E+00 -0.00000000000E+00 -0.33295489486E+01  0.33295489486E+01  0.00000000000E+00 0.  1.
          2    1    1    2  501    0 -0.23213022767E+02 -0.17533293327E+02  0.14049786655E+03  0.14347791226E+03  0.00000000000E+00 0.  1.
         -2    1    1    2    0  503  0.23213022767E+02  0.17533293327E+02  0.11317118283E+03  0.11685023502E+03  0.00000000000E+00 0. -1.
<mgrwt>
<rscale>  2 0.29090562E+02</rscale>
<asrwt>0</asrwt>
<pdfrwt beam="1">  1       21 0.39538230E-01 0.29090562E+02</pdfrwt>
<pdfrwt beam="2">  1       21 0.51223850E-03 0.29090562E+02</pdfrwt>
<totfact> 0.51253233E+07</totfact>
</mgrwt>
</event>
<event>
 4    1  0.2721071E+004  0.2452913E+02  0.7546771E-02  0.1667859E+00
         21   -1    0    0  501  502  0.00000000000E+00  0.00000000000E+00  0.28941058268E+03  0.28941058268E+03  0.00000000000E+00 0. -1.
         21   -1    0    0  502  503 -0.00000000000E+00 -0.00000000000E+00 -0.68706879167E+01  0.68706879167E+01  0.00000000000E+00 0.  1.
          2    1    1    2  501    0 -0.19540600835E+02 -0.14827108287E+02  0.26498409095E+03  0.26611697932E+03  0.00000000000E+00 0. -1.
         -2    1    1    2    0  503  0.19540600835E+02  0.14827108287E+02  0.17555803810E+02  0.30164291282E+02  0.00000000000E+00 0.  1.
<mgrwt>
<rscale>  2 0.24529130E+02</rscale>
<asrwt>0</asrwt>
<pdfrwt beam="1">  1       21 0.44524696E-01 0.24529130E+02</pdfrwt>
<pdfrwt beam="2">  1       21 0.10570291E-02 0.24529130E+02</pdfrwt>
<totfact> 0.13355632E+07</totfact>
</mgrwt>
</event>
<event>
 4    1  0.2721071E+004  0.4632855E+02  0.7546771E-02  0.1466214E+00
         21   -1    0    0  501  502  0.00000000000E+00  0.00000000000E+00  0.12659140241E+03  0.12659140241E+03  0.00000000000E+00 0. -1.
         21   -1    0    0  502  503 -0.00000000000E+00 -0.00000000000E+00 -0.24017993581E+02  0.24017993581E+02  0.00000000000E+00 0.  1.
          2    1    1    2  501    0 -0.30958147678E+02 -0.34466325872E+02  0.92123685402E+02  0.10311696242E+03  0.00000000000E+00 0. -1.
         -2    1    1    2    0  503  0.30958147678E+02  0.34466325872E+02  0.10449723427E+02  0.47492433571E+02  0.00000000000E+00 0.  1.
<mgrwt>
<rscale>  2 0.46328550E+02</rscale>
<asrwt>0</asrwt>
<pdfrwt beam="1">  1       21 0.19475600E-01 0.46328550E+02</pdfrwt>
<pdfrwt beam="2">  1       21 0.36950760E-02 0.46328550E+02</pdfrwt>
<totfact> 0.96597073E+06</totfact>
</mgrwt>
</event>
<event>
 4    1  0.2721071E+004  0.2991449E+02  0.7546771E-02  0.1599036E+00
         21   -1    0    0  503  502  0.00000000000E+00  0.00000000000E+00  0.63930115779E+03  0.63930115779E+03  0.00000000000E+00 0. -1.
         21   -1    0    0  501  503 -0.00000000000E+00 -0.00000000000E+00 -0.18031247714E+01  0.18031247714E+01  0.00000000000E+00 0.  1.
          2    1    1    2  501    0 -0.17756600497E+02 -0.24074469155E+02  0.16713916677E+03  0.16979510592E+03  0.00000000000E+00 0.  1.
         -2    1    1    2    0  502  0.17756600497E+02  0.24074469155E+02  0.47035886625E+03  0.47130917664E+03  0.00000000000E+00 0. -1.
<mgrwt>
<rscale>  2 0.29914494E+02</rscale>
<asrwt>0</asrwt>
<pdfrwt beam="1">  1       21 0.98353843E-01 0.29914494E+02</pdfrwt>
<pdfrwt beam="2">  1       21 0.27740432E-03 0.29914494E+02</pdfrwt>
<totfact> 0.19874525E+07</totfact>
</mgrwt>
</event>
<event>
 4    1  0.2721071E+004  0.2037829E+02  0.7546771E-02  0.1737908E+00
         21   -1    0    0  501  502  0.00000000000E+00  0.00000000000E+00  0.12482983410E+03  0.12482983410E+03  0.00000000000E+00 0. -1.
         21   -1    0    0  502  503 -0.00000000000E+00 -0.00000000000E+00 -0.50131034049E+01  0.50131034049E+01  0.00000000000E+00 0.  1.
          2    1    1    2  501    0 -0.18196440622E+02 -0.91741037441E+01  0.97562477953E+02  0.99668007581E+02  0.00000000000E+00 0. -1.
         -2    1    1    2    0  503  0.18196440622E+02  0.91741037441E+01  0.22254252743E+02  0.30174929925E+02  0.00000000000E+00 0.  1.
<mgrwt>
<rscale>  2 0.20378288E+02</rscale>
<asrwt>0</asrwt>
<pdfrwt beam="1">  1       21 0.19204587E-01 0.20378288E+02</pdfrwt>
<pdfrwt beam="2">  1       21 0.77124678E-03 0.20378288E+02</pdfrwt>
<totfact> 0.94268164E+07</totfact>
</mgrwt>
</event>
<event>
 4    1  0.2721071E+004  0.2818577E+02  0.7546771E-02  0.1619054E+00
         21   -1    0    0  501  502  0.00000000000E+00  0.00000000000E+00  0.87487023810E+02  0.87487023810E+02  0.00000000000E+00 0.  1.
         21   -1    0    0  502  503 -0.00000000000E+00 -0.00000000000E+00 -0.17902746493E+02  0.17902746493E+02  0.00000000000E+00 0. -1.
          2    1    1    2  501    0  0.26207374634E+02 -0.10373586424E+02  0.71783037830E+02  0.77118365521E+02  0.00000000000E+00 0.  1.
         -2    1    1    2    0  503 -0.26207374634E+02  0.10373586424E+02 -0.21987605132E+01  0.28271404781E+02  0.00000000000E+00 0. -1.
<mgrwt>
<rscale>  2 0.28185773E+02</rscale>
<asrwt>0</asrwt>
<pdfrwt beam="1">  1       21 0.13459542E-01 0.28185773E+02</pdfrwt>
<pdfrwt beam="2">  1       21 0.27542687E-02 0.28185773E+02</pdfrwt>
<totfact> 0.27070426E+07</totfact>
</mgrwt>
</event>
<event>
 4    1  0.2721071E+004  0.2628060E+02  0.7546771E-02  0.1643261E+00
         21   -1    0    0  503  502  0.00000000000E+00  0.00000000000E+00  0.60299508390E+02  0.60299508390E+02  0.00000000000E+00 0.  1.
         21   -1    0    0  501  503 -0.00000000000E+00 -0.00000000000E+00 -0.21708861218E+02  0.21708861218E+02  0.00000000000E+00 0. -1.
          2    1    1    2  501    0  0.19926201445E+02 -0.17135238898E+02 -0.88868693666E+01  0.27742501028E+02  0.00000000000E+00 0. -1.
         -2    1    1    2    0  502 -0.19926201445E+02  0.17135238898E+02  0.47477516538E+02  0.54265868580E+02  0.00000000000E+00 0.  1.
<mgrwt>
<rscale>  2 0.26280600E+02</rscale>
<asrwt>0</asrwt>
<pdfrwt beam="1">  1       21 0.92768473E-02 0.26280600E+02</pdfrwt>
<pdfrwt beam="2">  1       21 0.33398248E-02 0.26280600E+02</pdfrwt>
<totfact> 0.36802534E+07</totfact>
</mgrwt>
</event>
<event>
 4    1  0.2721071E+004  0.2146578E+02  0.7546771E-02  0.1717658E+00
         21   -1    0    0  503  502  0.00000000000E+00  0.00000000000E+00  0.38028875941E+03  0.38028875941E+03  0.00000000000E+00 0.  1.
         21   -1    0    0  501  503 -0.00000000000E+00 -0.00000000000E+00 -0.19054913748E+01  0.19054913748E+01  0.00000000000E+00 0. -1.
          2    1    1    2  501    0  0.18884349786E+02 -0.10205926287E+02  0.73878568783E+02  0.76933884106E+02  0.00000000000E+00 0. -1.
         -2    1    1    2    0  502 -0.18884349786E+02  0.10205926287E+02  0.30450469926E+03  0.30526036668E+03  0.00000000000E+00 0.  1.
<mgrwt>
<rscale>  2 0.21465777E+02</rscale>
<asrwt>0</asrwt>
<pdfrwt beam="1">  1       21 0.58505903E-01 0.21465777E+02</pdfrwt>
<pdfrwt beam="2">  1       21 0.29315282E-03 0.21465777E+02</pdfrwt>
<totfact> 0.50808436E+07</totfact>
</mgrwt>
</event>
<event>
 4    1  0.2721071E+004  0.2576226E+02  0.7546771E-02  0.1650289E+00
         21   -1    0    0  503  502  0.00000000000E+00  0.00000000000E+00  0.36648816691E+02  0.36648816691E+02  0.00000000000E+00 0. -1.
         21   -1    0    0  501  503 -0.00000000000E+00 -0.00000000000E+00 -0.20227321590E+02  0.20227321590E+02  0.00000000000E+00 0.  1.
          2    1    1    2  501    0 -0.25689438340E+02 -0.19356481273E+01 -0.99097983905E+00  0.25781311389E+02  0.00000000000E+00 0.  1.
         -2    1    1    2    0  502  0.25689438340E+02  0.19356481273E+01  0.17412474939E+02  0.31094826892E+02  0.00000000000E+00 0. -1.
<mgrwt>
<rscale>  2 0.25762259E+02</rscale>
<asrwt>0</asrwt>
<pdfrwt beam="1">  1       21 0.56382795E-02 0.25762259E+02</pdfrwt>
<pdfrwt beam="2">  1       21 0.31118956E-02 0.25762259E+02</pdfrwt>
<totfact> 0.92177325E+07</totfact>
</mgrwt>
</event>
<event>
 4    1  0.2721071E+004  0.2273629E+02  0.7546771E-02  0.1695821E+00
         21   -1    0    0  503  502  0.00000000000E+00  0.00000000000E+00  0.19033415696E+03  0.19033415696E+03  0.00000000000E+00 0. -1.
         21   -1    0    0  501  503 -0.00000000000E+00 -0.00000000000E+00 -0.13433379973E+02  0.13433379973E+02  0.00000000000E+00 0.  1.
          2    1    1    2  501    0  0.22312447943E+02 -0.43696181583E+01 -0.25530051754E+01  0.22879176810E+02  0.00000000000E+00 0.  1.
         -2    1    1    2    0  502 -0.22312447943E+02  0.43696181583E+01  0.17945378216E+03  0.18088836012E+03  0.00000000000E+00 0. -1.
<mgrwt>
<rscale>  2 0.22736290E+02</rscale>
<asrwt>0</asrwt>
<pdfrwt beam="1">  1       21 0.29282176E-01 0.22736290E+02</pdfrwt>
<pdfrwt beam="2">  1       21 0.20666740E-02 0.22736290E+02</pdfrwt>
<totfact> 0.10364208E+07</totfact>
</mgrwt>
</event>
<event>
 4    1  0.2721071E+004  0.2562698E+02  0.7546771E-02  0.1652156E+00
         21   -1    0    0  503  502  0.00000000000E+00  0.00000000000E+00  0.54318565159E+03  0.54318565159E+03  0.00000000000E+00 0.  1.
         21   -1    0    0  501  503 -0.00000000000E+00 -0.00000000000E+00 -0.50989681615E+01  0.50989681615E+01  0.00000000000E+00 0. -1.
          2    1    1    2  501    0  0.11521561572E+02 -0.22890954626E+02  0.29598887534E+02  0.39151453715E+02  0.00000000000E+00 0. -1.
         -2    1    1    2    0  502 -0.11521561572E+02  0.22890954626E+02  0.50848779589E+03  0.50913316603E+03  0.00000000000E+00 0.  1.
<mgrwt>
<rscale>  2 0.25626982E+02</rscale>
<asrwt>0</asrwt>
<pdfrwt beam="1">  1       21 0.83566978E-01 0.25626982E+02</pdfrwt>
<pdfrwt beam="2">  1       21 0.78445707E-03 0.25626982E+02</pdfrwt>
<totfact> 0.59208943E+06</totfact>
</mgrwt>
</event>
<event>
 4    1  0.2721071E+004  0.2175192E+02  0.7546771E-02  0.1712578E+00
         21   -1    0    0  503  502  0.00000000000E+00  0.00000000000E+00  0.25910831431E+01  0.25910831431E+01  0.00000000000E+00 0. -1.
         21   -1    0    0  501  503 -0.00000000000E+00 -0.00000000000E+00 -0.21995118790E+03  0.21995118790E+03  0.00000000000E+00 0.  1.
          2    1    1    2  501    0  0.13496279442E+02  0.17058613574E+02 -0.15453012133E+03  0.15605353009E+03  0.00000000000E+00 0.  1.
         -2    1    1    2    0  502 -0.13496279442E+02 -0.17058613574E+02 -0.62829983421E+02  0.66488740945E+02  0.00000000000E+00 0. -1.
<mgrwt>
<rscale>  2 0.21751916E+02</rscale>
<asrwt>0</asrwt>
<pdfrwt beam="1">  1       21 0.39862810E-03 0.21751916E+02</pdfrwt>
<pdfrwt beam="2">  1       21 0.33838650E-01 0.21751916E+02</pdfrwt>
<totfact> 0.92578397E+07</totfact>
</mgrwt>
</event>
<event>
 4    1  0.2721071E+004  0.2104398E+02  0.7546771E-02  0.1725330E+00
         21   -1    0    0  503  502  0.00000000000E+00  0.00000000000E+00  0.78755901129E+01  0.78755901129E+01  0.00000000000E+00 0.  1.
         21   -1    0    0  501  503 -0.00000000000E+00 -0.00000000000E+00 -0.90381373586E+02  0.90381373586E+02  0.00000000000E+00 0. -1.
          2    1    1    2  501    0 -0.20612480151E+02 -0.42396704571E+01 -0.71452002803E+02  0.74486494400E+02  0.00000000000E+00 0. -1.
         -2    1    1    2    0  502  0.20612480151E+02  0.42396704571E+01 -0.11053780671E+02  0.23770469299E+02  0.00000000000E+00 0.  1.
<mgrwt>
<rscale>  2 0.21043981E+02</rscale>
<asrwt>0</asrwt>
<pdfrwt beam="1">  1       21 0.12116292E-02 0.21043981E+02</pdfrwt>
<pdfrwt beam="2">  1       21 0.13904827E-01 0.21043981E+02</pdfrwt>
<totfact> 0.84024499E+07</totfact>
</mgrwt>
</event>
<event>
 4    1  0.2721071E+004  0.2373949E+02  0.7546771E-02  0.1679796E+00
         21   -1    0    0  503  502  0.00000000000E+00  0.00000000000E+00  0.46195957073E+02  0.46195957073E+02  0.00000000000E+00 0. -1.
         21   -1    0    0  501  503 -0.00000000000E+00 -0.00000000000E+00 -0.13369283775E+02  0.13369283775E+02  0.00000000000E+00 0.  1.
          2    1    1    2  501    0 -0.23463204586E+02  0.36113123653E+01  0.76032976066E+01  0.24927368111E+02  0.00000000000E+00 0.  1.
         -2    1    1    2    0  502  0.23463204586E+02 -0.36113123653E+01  0.25223375692E+02  0.34637872736E+02  0.00000000000E+00 0. -1.
<mgrwt>
<rscale>  2 0.23739493E+02</rscale>
<asrwt>0</asrwt>
<pdfrwt beam="1">  1       21 0.71070702E-02 0.23739493E+02</pdfrwt>
<pdfrwt beam="2">  1       21 0.20568129E-02 0.23739493E+02</pdfrwt>
<totfact> 0.11789217E+08</totfact>
</mgrwt>
</event>
<event>
 4    1  0.2721071E+004  0.2895431E+02  0.7546771E-02  0.1609944E+00
         21   -1    0    0  503  502  0.00000000000E+00  0.00000000000E+00  0.67130649924E+01  0.67130649924E+01  0.00000000000E+00 0.  1.
         21   -1    0    0  501  503 -0.00000000000E+00 -0.00000000000E+00 -0.12829612615E+03  0.12829612615E+03  0.00000000000E+00 0. -1.
          2    1    1    2  501    0  0.27982072432E+02 -0.74401223075E+01 -0.71800935832E+02  0.77419159023E+02  0.00000000000E+00 0.  1.
         -2    1    1    2    0  502 -0.27982072432E+02  0.74401223075E+01 -0.49782125327E+02  0.57590032120E+02  0.00000000000E+00 0. -1.
<mgrwt>
<rscale>  2 0.28954305E+02</rscale>
<asrwt>0</asrwt>
<pdfrwt beam="1">  1       21 0.10327792E-02 0.28954305E+02</pdfrwt>
<pdfrwt beam="2">  1       21 0.19737865E-01 0.28954305E+02</pdfrwt>
<totfact> 0.63490628E+07</totfact>
</mgrwt>
</event>
<event>
 4    1  0.2721071E+004  0.2208357E+02  0.7546771E-02  0.1706811E+00
         21   -1    0    0  501  502  0.00000000000E+00  0.00000000000E+00  0.22289332665E+02  0.22289332665E+02  0.00000000000E+00 0. -1.
         21   -1    0    0  502  503 -0.00000000000E+00 -0.00000000000E+00 -0.28651160067E+03  0.28651160067E+03  0.00000000000E+00 0.  1.
          2    1    1    2  501    0  0.21957054729E+02  0.23604497146E+01  0.16276803633E+02  0.27433889840E+02  0.00000000000E+00 0. -1.
         -2    1    1    2    0  503 -0.21957054729E+02 -0.23604497146E+01 -0.28049907164E+03  0.28136704350E+03  0.00000000000E+00 0.  1.
<mgrwt>
<rscale>  2 0.22083568E+02</rscale>
<asrwt>0</asrwt>
<pdfrwt beam="1">  1       21 0.34291280E-02 0.22083568E+02</pdfrwt>
<pdfrwt beam="2">  1       21 0.44078709E-01 0.22083568E+02</pdfrwt>
<totfact> 0.22030200E+06</totfact>
</mgrwt>
</event>
<event>
 4    1  0.2721071E+004  0.4402726E+02  0.7546771E-02  0.1480507E+00
         21   -1    0    0  503  502  0.00000000000E+00  0.00000000000E+00  0.13375322814E+02  0.13375322814E+02  0.00000000000E+00 0.  1.
         21   -1    0    0  501  503 -0.00000000000E+00 -0.00000000000E+00 -0.14504656869E+03  0.14504656869E+03  0.00000000000E+00 0. -1.
          2    1    1    2  501    0  0.43239846533E+02 -0.82894506105E+01 -0.68142421898E+02  0.81128225555E+02  0.00000000000E+00 0. -1.
         -2    1    1    2    0  502 -0.43239846533E+02  0.82894506105E+01 -0.63528823975E+02  0.77293665945E+02  0.00000000000E+00 0.  1.
<mgrwt>
<rscale>  2 0.44027257E+02</rscale>
<asrwt>0</asrwt>
<pdfrwt beam="1">  1       21 0.20577420E-02 0.44027257E+02</pdfrwt>
<pdfrwt beam="2">  1       21 0.22314857E-01 0.44027257E+02</pdfrwt>
<totfact> 0.19043172E+07</totfact>
</mgrwt>
</event>
<event>
 4    1  0.2721071E+004  0.2485453E+02  0.7546771E-02  0.1663100E+00
         21   -1    0    0  503  502  0.00000000000E+00  0.00000000000E+00  0.33607768031E+03  0.33607768031E+03  0.00000000000E+00 0. -1.
         21   -1    0    0  501  503 -0.00000000000E+00 -0.00000000000E+00 -0.28524226563E+01  0.28524226563E+01  0.00000000000E+00 0.  1.
          2    1    1    2  501    0  0.14543327825E+02 -0.20155383051E+02  0.65557336089E+02  0.70110713627E+02  0.00000000000E+00 0.  1.
         -2    1    1    2    0  502 -0.14543327825E+02  0.20155383051E+02  0.26766792157E+03  0.26881938934E+03  0.00000000000E+00 0. -1.
<mgrwt>
<rscale>  2 0.24854534E+02</rscale>
<asrwt>0</asrwt>
<pdfrwt beam="1">  1       21 0.51704227E-01 0.24854534E+02</pdfrwt>
<pdfrwt beam="2">  1       21 0.43883452E-03 0.24854534E+02</pdfrwt>
<totfact> 0.37145639E+07</totfact>
</mgrwt>
</event>
<event>
 4    1  0.2721071E+004  0.2154220E+02  0.7546771E-02  0.1716292E+00
         21   -1    0    0  503  502  0.00000000000E+00  0.00000000000E+00  0.51937126684E+02  0.51937126684E+02  0.00000000000E+00 0.  1.
         21   -1    0    0  501  503 -0.00000000000E+00 -0.00000000000E+00 -0.89351787800E+01  0.89351787800E+01  0.00000000000E+00 0. -1.
          2    1    1    2  501    0  0.20267756195E+02 -0.72996101396E+01  0.21551182472E+02  0.30471621475E+02  0.00000000000E+00 0.  1.
         -2    1    1    2    0  502 -0.20267756195E+02  0.72996101396E+01  0.21450765431E+02  0.30400683988E+02  0.00000000000E+00 0. -1.
<mgrwt>
<rscale>  2 0.21542197E+02</rscale>
<asrwt>0</asrwt>
<pdfrwt beam="1">  1       21 0.79903270E-02 0.21542197E+02</pdfrwt>
<pdfrwt beam="2">  1       21 0.13746429E-02 0.21542197E+02</pdfrwt>
<totfact> 0.17495676E+08</totfact>
</mgrwt>
</event>
<event>
 4    1  0.2721071E+004  0.2018661E+02  0.7546771E-02  0.1741642E+00
         21   -1    0    0  503  502  0.00000000000E+00  0.00000000000E+00  0.61945783650E+03  0.61945783650E+03  0.00000000000E+00 0. -1.
         21   -1    0    0  501  503 -0.00000000000E+00 -0.00000000000E+00 -0.10850000950E+01  0.10850000950E+01  0.00000000000E+00 0.  1.
          2    1    1    2  501    0  0.19552256021E+02  0.50208213192E+01  0.11450426388E+03  0.11627005552E+03  0.00000000000E+00 0.  1.
         -2    1    1    2    0  502 -0.19552256021E+02 -0.50208213192E+01  0.50386857252E+03  0.50427278108E+03  0.00000000000E+00 0. -1.
<mgrwt>
<rscale>  2 0.20186613E+02</rscale>
<asrwt>0</asrwt>
<pdfrwt beam="1">  1       21 0.95300923E-01 0.20186613E+02</pdfrwt>
<pdfrwt beam="2">  1       21 0.16692359E-03 0.20186613E+02</pdfrwt>
<totfact> 0.41195468E+07</totfact>
</mgrwt>
</event>
<event>
 4    1  0.2721071E+004  0.3178802E+02  0.7546771E-02  0.1579126E+00
         21   -1    0    0  503  502  0.00000000000E+00  0.00000000000E+00  0.89653233695E+02  0.89653233695E+02  0.00000000000E+00 0.  1.
         21   -1    0    0  501  503 -0.00000000000E+00 -0.00000000000E+00 -0.14879427324E+02  0.14879427324E+02  0.00000000000E+00 0. -1.
          2    1    1    2  501    0 -0.14839422018E+02  0.28111741891E+02  0.11648003511E+02  0.33854903098E+02  0.00000000000E+00 0. -1.
         -2    1    1    2    0  502  0.14839422018E+02 -0.28111741891E+02  0.63125802861E+02  0.70677757921E+02  0.00000000000E+00 0.  1.
<mgrwt>
<rscale>  2 0.31788024E+02</rscale>
<asrwt>0</asrwt>
<pdfrwt beam="1">  1       21 0.13792805E-01 0.31788024E+02</pdfrwt>
<pdfrwt beam="2">  1       21 0.22891427E-02 0.31788024E+02</pdfrwt>
<totfact> 0.35511223E+07</totfact>
</mgrwt>
</event>
<event>
 4    1  0.2721071E+004  0.2030222E+02  0.7546771E-02  0.1739384E+00
         21   -1    0    0  503  502  0.00000000000E+00  0.00000000000E+00  0.66596943787E+03  0.66596943787E+03  0.00000000000E+00 0.  1.
         21   -1    0    0  501  503 -0.00000000000E+00 -0.00000000000E+00 -0.84027346002E+00  0.84027346002E+00  0.00000000000E+00 0. -1.
          2    1    1    2  501    0 -0.18307374214E+02 -0.87761231669E+01  0.16144213285E+03  0.16271368273E+03  0.00000000000E+00 0. -1.
         -2    1    1    2    0  502  0.18307374214E+02  0.87761231669E+01  0.50368703156E+03  0.50409602860E+03  0.00000000000E+00 0.  1.
<mgrwt>
<rscale>  2 0.20302224E+02</rscale>
<asrwt>0</asrwt>
<pdfrwt beam="1">  1       21 0.10245641E+00 0.20302224E+02</pdfrwt>
<pdfrwt beam="2">  1       21 0.12927337E-03 0.20302224E+02</pdfrwt>
<totfact> 0.50788244E+07</totfact>
</mgrwt>
</event>
<event>
 4    1  0.2721071E+004  0.2458621E+02  0.7546771E-02  0.1667017E+00
         21   -1    0    0  503  502  0.00000000000E+00  0.00000000000E+00  0.78866472125E+03  0.78866472125E+03  0.00000000000E+00 0. -1.
         21   -1    0    0  501  503 -0.00000000000E+00 -0.00000000000E+00 -0.83449628514E+00  0.83449628514E+00  0.00000000000E+00 0.  1.
          2    1    1    2  501    0 -0.19072436584E+02 -0.15515274593E+02  0.28120231166E+03  0.28227508156E+03  0.00000000000E+00 0.  1.
         -2    1    1    2    0  502  0.19072436584E+02  0.15515274593E+02  0.50662791330E+03  0.50722413597E+03  0.00000000000E+00 0. -1.
<mgrwt>
<rscale>  2 0.24586207E+02</rscale>
<asrwt>0</asrwt>
<pdfrwt beam="1">  1       21 0.12133244E+00 0.24586207E+02</pdfrwt>
<pdfrwt beam="2">  1       21 0.12838467E-03 0.24586207E+02</pdfrwt>
<totfact> 0.36645574E+07</totfact>
</mgrwt>
</event>
<event>
 4    1  0.2721071E+004  0.3562539E+02  0.7546771E-02  0.1543116E+00
         21   -1    0    0  503  502  0.00000000000E+00  0.00000000000E+00  0.19072001619E+04  0.19072001619E+04  0.00000000000E+00 0. -1.
         21   -1    0    0  501  503 -0.00000000000E+00 -0.00000000000E+00 -0.94453315613E+00  0.94453315613E+00  0.00000000000E+00 0.  1.
          2    1    1    2  501    0 -0.10444760806E+02 -0.34059884083E+02  0.43453035427E+03  0.43598829975E+03  0.00000000000E+00 0. -1.
         -2    1    1    2    0  502  0.10444760806E+02  0.34059884083E+02  0.14717252744E+04  0.14721563953E+04  0.00000000000E+00 0.  1.
<mgrwt>
<rscale>  2 0.35625394E+02</rscale>
<asrwt>0</asrwt>
<pdfrwt beam="1">  1       21 0.29341233E+00 0.35625394E+02</pdfrwt>
<pdfrwt beam="2">  1       21 0.14531432E-03 0.35625394E+02</pdfrwt>
<totfact> 0.30446465E+06</totfact>
</mgrwt>
</event>
<event>
 4    1  0.2721071E+004  0.3180433E+02  0.7546771E-02  0.1578960E+00
         21   -1    0    0  503  502  0.00000000000E+00  0.00000000000E+00  0.95889844589E+00  0.95889844589E+00  0.00000000000E+00 0.  1.
         21   -1    0    0  501  503 -0.00000000000E+00 -0.00000000000E+00 -0.10876090523E+04  0.10876090523E+04  0.00000000000E+00 0. -1.
          2    1    1    2  501    0 -0.24782008000E+02 -0.19934078305E+02 -0.44889572443E+03  0.45002098486E+03  0.00000000000E+00 0. -1.
         -2    1    1    2    0  502  0.24782008000E+02  0.19934078305E+02 -0.63775442944E+03  0.63854696590E+03  0.00000000000E+00 0.  1.
<mgrwt>
<rscale>  2 0.31804330E+02</rscale>
<asrwt>0</asrwt>
<pdfrwt beam="1">  1       21 0.14752285E-03 0.31804330E+02</pdfrwt>
<pdfrwt beam="2">  1       21 0.16732445E+00 0.31804330E+02</pdfrwt>
<totfact> 0.14545416E+07</totfact>
</mgrwt>
</event>
<event>
 4    1  0.2721071E+004  0.3127133E+02  0.7546771E-02  0.1584446E+00
         21   -1    0    0  503  502  0.00000000000E+00  0.00000000000E+00  0.16641726075E+02  0.16641726075E+02  0.00000000000E+00 0. -1.
         21   -1    0    0  501  503 -0.00000000000E+00 -0.00000000000E+00 -0.92326859086E+02  0.92326859086E+02  0.00000000000E+00 0.  1.
          2    1    1    2  501    0  0.21877396611E+02 -0.22344474652E+02 -0.70693799455E+02  0.77301418559E+02  0.00000000000E+00 0.  1.
         -2    1    1    2    0  502 -0.21877396611E+02  0.22344474652E+02 -0.49913335556E+01  0.31667166602E+02  0.00000000000E+00 0. -1.
<mgrwt>
<rscale>  2 0.31271329E+02</rscale>
<asrwt>0</asrwt>
<pdfrwt beam="1">  1       21 0.25602655E-02 0.31271329E+02</pdfrwt>
<pdfrwt beam="2">  1       21 0.14204132E-01 0.31271329E+02</pdfrwt>
<totfact> 0.28257603E+07</totfact>
</mgrwt>
</event>
<event>
 4    1  0.2721071E+004  0.2403265E+02  0.7546771E-02  0.1675298E+00
         21   -1    0    0  501  502  0.00000000000E+00  0.00000000000E+00  0.59646861350E+03  0.59646861350E+03  0.00000000000E+00 0. -1.
         21   -1    0    0  502  503 -0.00000000000E+00 -0.00000000000E+00 -0.15872148672E+01  0.15872148672E+01  0.00000000000E+00 0.  1.
          2    1    1    2  501    0  0.19506655896E+02 -0.14037759711E+02  0.48416668516E+03  0.48476277429E+03  0.00000000000E+00 0. -1.
         -2    1    1    2    0  503 -0.19506655896E+02  0.14037759711E+02  0.11071471347E+03  0.11329305407E+03  0.00000000000E+00 0.  1.
<mgrwt>
<rscale>  2 0.24032651E+02</rscale>
<asrwt>0</asrwt>
<pdfrwt beam="1">  1       21 0.91764224E-01 0.24032651E+02</pdfrwt>
<pdfrwt beam="2">  1       21 0.24418738E-03 0.24032651E+02</pdfrwt>
<totfact> 0.26793788E+07</totfact>
</mgrwt>
</event>
<event>
 4    1  0.2721071E+004  0.5260086E+02  0.7546771E-02  0.1431798E+00
         21   -1    0    0  503  502  0.00000000000E+00  0.00000000000E+00  0.54805922482E+02  0.54805922482E+02  0.00000000000E+00 0. -1.
         21   -1    0    0  501  503 -0.00000000000E+00 -0.00000000000E+00 -0.86874708629E+02  0.86874708629E+02  0.00000000000E+00 0.  1.
          2    1    1    2  501    0  0.20122819271E+02  0.48599619120E+02 -0.61882978856E+02  0.81217940790E+02  0.00000000000E+00 0.  1.
         -2    1    1    2    0  502 -0.20122819271E+02 -0.48599619120E+02  0.29814192709E+02  0.60462690322E+02  0.00000000000E+00 0. -1.
<mgrwt>
<rscale>  2 0.52600863E+02</rscale>
<asrwt>0</asrwt>
<pdfrwt beam="1">  1       21 0.84316804E-02 0.52600863E+02</pdfrwt>
<pdfrwt beam="2">  1       21 0.13365340E-01 0.52600863E+02</pdfrwt>
<totfact> 0.48939294E+06</totfact>
</mgrwt>
</event>
<event>
 4    1  0.2721071E+004  0.2609280E+02  0.7546771E-02  0.1645784E+00
         21   -1    0    0  503  502  0.00000000000E+00  0.00000000000E+00  0.13892990928E+03  0.13892990928E+03  0.00000000000E+00 0. -1.
         21   -1    0    0  501  503 -0.00000000000E+00 -0.00000000000E+00 -0.62706458846E+01  0.62706458846E+01  0.00000000000E+00 0.  1.
          2    1    1    2  501    0 -0.26083917915E+02  0.68095158078E+00  0.32394002119E+02  0.41595743077E+02  0.00000000000E+00 0.  1.
         -2    1    1    2    0  502  0.26083917915E+02 -0.68095158078E+00  0.10026526128E+03  0.10360481209E+03  0.00000000000E+00 0. -1.
<mgrwt>
<rscale>  2 0.26092805E+02</rscale>
<asrwt>0</asrwt>
<pdfrwt beam="1">  1       21 0.21373830E-01 0.26092805E+02</pdfrwt>
<pdfrwt beam="2">  1       21 0.96471486E-03 0.26092805E+02</pdfrwt>
<totfact> 0.59692409E+07</totfact>
</mgrwt>
</event>
<event>
 4    1  0.2721071E+004  0.3858818E+02  0.7546771E-02  0.1518866E+00
         21   -1    0    0  503  502  0.00000000000E+00  0.00000000000E+00  0.48340342389E+03  0.48340342389E+03  0.00000000000E+00 0.  1.
         21   -1    0    0  501  503 -0.00000000000E+00 -0.00000000000E+00 -0.23208384225E+02  0.23208384225E+02  0.00000000000E+00 0. -1.
          2    1    1    2  501    0 -0.36021331963E+02 -0.13838766268E+02 -0.58001376926E+01  0.39021653033E+02  0.00000000000E+00 0. -1.
         -2    1    1    2    0  502  0.36021331963E+02  0.13838766268E+02  0.46599517736E+03  0.46759015508E+03  0.00000000000E+00 0.  1.
<mgrwt>
<rscale>  2 0.38588182E+02</rscale>
<asrwt>0</asrwt>
<pdfrwt beam="1">  1       21 0.74369750E-01 0.38588182E+02</pdfrwt>
<pdfrwt beam="2">  1       21 0.35705210E-02 0.38588182E+02</pdfrwt>
<totfact> 0.75776290E+05</totfact>
</mgrwt>
</event>
<event>
 4    1  0.2721071E+004  0.3175005E+02  0.7546771E-02  0.1579512E+00
         21   -1    0    0  503  502  0.00000000000E+00  0.00000000000E+00  0.88080898990E+03  0.88080898990E+03  0.00000000000E+00 0.  1.
         21   -1    0    0  501  503 -0.00000000000E+00 -0.00000000000E+00 -0.30716935017E+01  0.30716935017E+01  0.00000000000E+00 0. -1.
          2    1    1    2  501    0 -0.19803586479E+02  0.24817008858E+02  0.88810720470E+02  0.94315481426E+02  0.00000000000E+00 0. -1.
         -2    1    1    2    0  502  0.19803586479E+02 -0.24817008858E+02  0.78892657592E+03  0.78956520197E+03  0.00000000000E+00 0.  1.
<mgrwt>
<rscale>  2 0.31750055E+02</rscale>
<asrwt>0</asrwt>
<pdfrwt beam="1">  1       21 0.13550887E+00 0.31750055E+02</pdfrwt>
<pdfrwt beam="2">  1       21 0.47256893E-03 0.31750055E+02</pdfrwt>
<totfact> 0.43879053E+06</totfact>
</mgrwt>
</event>
<event>
 4    1  0.2721071E+004  0.2300119E+02  0.7546771E-02  0.1691491E+00
         21   -1    0    0  503  502  0.00000000000E+00  0.00000000000E+00  0.47658906193E+02  0.47658906193E+02  0.00000000000E+00 0. -1.
         21   -1    0    0  501  503 -0.00000000000E+00 -0.00000000000E+00 -0.89128367201E+02  0.89128367201E+02  0.00000000000E+00 0.  1.
          2    1    1    2  501    0  0.22860098924E+02  0.25437780964E+01 -0.84727599764E+02  0.87794197368E+02  0.00000000000E+00 0.  1.
         -2    1    1    2    0  502 -0.22860098924E+02 -0.25437780964E+01  0.43258138756E+02  0.48993076025E+02  0.00000000000E+00 0. -1.
<mgrwt>
<rscale>  2 0.23001194E+02</rscale>
<asrwt>0</asrwt>
<pdfrwt beam="1">  1       21 0.73321394E-02 0.23001194E+02</pdfrwt>
<pdfrwt beam="2">  1       21 0.13712056E-01 0.23001194E+02</pdfrwt>
<totfact> 0.53158950E+06</totfact>
</mgrwt>
</event>
<event>
 4    1  0.2721071E+004  0.2304705E+02  0.7546771E-02  0.1690749E+00
         21   -1    0    0  501  502  0.00000000000E+00  0.00000000000E+00  0.94809006633E+01  0.94809006633E+01  0.00000000000E+00 0. -1.
         21   -1    0    0  502  503 -0.00000000000E+00 -0.00000000000E+00 -0.86950054074E+02  0.86950054074E+02  0.00000000000E+00 0.  1.
          2    1    1    2  501    0  0.78511504507E+01 -0.21668543291E+02 -0.99799580774E+01  0.25115053155E+02  0.00000000000E+00 0. -1.
         -2    1    1    2    0  503 -0.78511504507E+01  0.21668543291E+02 -0.67489195333E+02  0.71315901582E+02  0.00000000000E+00 0.  1.
<mgrwt>
<rscale>  2 0.23047046E+02</rscale>
<asrwt>0</asrwt>
<pdfrwt beam="1">  1       21 0.14586002E-02 0.23047046E+02</pdfrwt>
<pdfrwt beam="2">  1       21 0.13376931E-01 0.23047046E+02</pdfrwt>
<totfact> 0.69469115E+07</totfact>
</mgrwt>
</event>
<event>
 4    1  0.2721071E+004  0.2268879E+02  0.7546771E-02  0.1696605E+00
         21   -1    0    0  503  502  0.00000000000E+00  0.00000000000E+00  0.64990401094E+01  0.64990401094E+01  0.00000000000E+00 0. -1.
         21   -1    0    0  501  503 -0.00000000000E+00 -0.00000000000E+00 -0.57518845372E+03  0.57518845372E+03  0.00000000000E+00 0.  1.
          2    1    1    2  501    0 -0.20974641494E+02  0.86513430443E+01 -0.55442106661E+03  0.55488512363E+03  0.00000000000E+00 0.  1.
         -2    1    1    2    0  502  0.20974641494E+02 -0.86513430443E+01 -0.14268346999E+02  0.26802370200E+02  0.00000000000E+00 0. -1.
<mgrwt>
<rscale>  2 0.22688793E+02</rscale>
<asrwt>0</asrwt>
<pdfrwt beam="1">  1       21 0.99985173E-03 0.22688793E+02</pdfrwt>
<pdfrwt beam="2">  1       21 0.88490584E-01 0.22688793E+02</pdfrwt>
<totfact> 0.35829842E+06</totfact>
</mgrwt>
</event>
<event>
 4    1  0.2721071E+004  0.2107065E+02  0.7546771E-02  0.1724839E+00
         21   -1    0    0  501  502  0.00000000000E+00  0.00000000000E+00  0.29160293763E+02  0.29160293763E+02  0.00000000000E+00 0. -1.
         21   -1    0    0  502  503 -0.00000000000E+00 -0.00000000000E+00 -0.34308374671E+02  0.34308374671E+02  0.00000000000E+00 0.  1.
          2    1    1    2  501    0  0.15372499413E+02 -0.14410358807E+02  0.21093563354E+02  0.29814603706E+02  0.00000000000E+00 0.  1.
         -2    1    1    2    0  503 -0.15372499413E+02  0.14410358807E+02 -0.26241644263E+02  0.33654064729E+02  0.00000000000E+00 0. -1.
<mgrwt>
<rscale>  2 0.21070647E+02</rscale>
<asrwt>0</asrwt>
<pdfrwt beam="1">  1       21 0.44861990E-02 0.21070647E+02</pdfrwt>
<pdfrwt beam="2">  1       21 0.52782115E-02 0.21070647E+02</pdfrwt>
<totfact> 0.54599691E+07</totfact>
</mgrwt>
</event>
<event>
 4    1  0.2721071E+004  0.2249764E+02  0.7546771E-02  0.1699785E+00
         21   -1    0    0  503  502  0.00000000000E+00  0.00000000000E+00  0.86944387774E+02  0.86944387774E+02  0.00000000000E+00 0. -1.
         21   -1    0    0  501  503 -0.00000000000E+00 -0.00000000000E+00 -0.91196020277E+01  0.91196020277E+01  0.00000000000E+00 0.  1.
          2    1    1    2  501    0 -0.19934196127E+02  0.10429359054E+02  0.10027082889E+02  0.24630998697E+02  0.00000000000E+00 0.  1.
         -2    1    1    2    0  502  0.19934196127E+02 -0.10429359054E+02  0.67797702857E+02  0.71432991105E+02  0.00000000000E+00 0. -1.
<mgrwt>
<rscale>  2 0.22497638E+02</rscale>
<asrwt>0</asrwt>
<pdfrwt beam="1">  1       21 0.13376059E-01 0.22497638E+02</pdfrwt>
<pdfrwt beam="2">  1       21 0.14030158E-02 0.22497638E+02</pdfrwt>
<totfact> 0.73216631E+07</totfact>
</mgrwt>
</event>
<event>
 4    1  0.2721071E+004  0.2654459E+02  0.7546771E-02  0.1639759E+00
         21   -1    0    0  501  502  0.00000000000E+00  0.00000000000E+00  0.48335960074E+03  0.48335960074E+03  0.00000000000E+00 0.  1.
         21   -1    0    0  502  503 -0.00000000000E+00 -0.00000000000E+00 -0.51648294476E+01  0.51648294476E+01  0.00000000000E+00 0. -1.
          2    1    1    2  501    0 -0.35985545099E+01 -0.26299539232E+02  0.44603741198E+03  0.44682657513E+03  0.00000000000E+00 0.  1.
         -2    1    1    2    0  503  0.35985545099E+01  0.26299539232E+02  0.32157359316E+02  0.41697855059E+02  0.00000000000E+00 0. -1.
<mgrwt>
<rscale>  2 0.26544592E+02</rscale>
<asrwt>0</asrwt>
<pdfrwt beam="1">  1       21 0.74362980E-01 0.26544592E+02</pdfrwt>
<pdfrwt beam="2">  1       21 0.79458952E-03 0.26544592E+02</pdfrwt>
<totfact> 0.74615072E+06</totfact>
</mgrwt>
</event>
<event>
 4    1  0.2721071E+004  0.2043578E+02  0.7546771E-02  0.1736798E+00
         21   -1    0    0  503  502  0.00000000000E+00  0.00000000000E+00  0.37820821101E+02  0.37820821101E+02  0.00000000000E+00 0.  1.
         21   -1    0    0  501  503 -0.00000000000E+00 -0.00000000000E+00 -0.41394665628E+02  0.41394665628E+02  0.00000000000E+00 0. -1.
          2    1    1    2  501    0 -0.14495152419E+02 -0.14405270511E+02 -0.35702999714E+02  0.41137883401E+02  0.00000000000E+00 0. -1.
         -2    1    1    2    0  502  0.14495152419E+02  0.14405270511E+02  0.32129155187E+02  0.38077603328E+02  0.00000000000E+00 0.  1.
<mgrwt>
<rscale>  2 0.20435784E+02</rscale>
<asrwt>0</asrwt>
<pdfrwt beam="1">  1       21 0.58185879E-02 0.20435784E+02</pdfrwt>
<pdfrwt beam="2">  1       21 0.63684100E-02 0.20435784E+02</pdfrwt>
<totfact> 0.26568218E+07</totfact>
</mgrwt>
</event>
<event>
 4    1  0.2721071E+004  0.2188889E+02  0.7546771E-02  0.1710181E+00
         21   -1    0    0  503  502  0.00000000000E+00  0.00000000000E+00  0.61954699485E+03  0.61954699485E+03  0.00000000000E+00 0.  1.
         21   -1    0    0  501  503 -0.00000000000E+00 -0.00000000000E+00 -0.11016791190E+01  0.11016791190E+01  0.00000000000E+00 0. -1.
          2    1    1    2  501    0 -0.20651225807E+02 -0.72560479642E+01  0.13980974477E+03  0.14151285487E+03  0.00000000000E+00 0. -1.
         -2    1    1    2    0  502  0.20651225807E+02  0.72560479642E+01  0.47863557096E+03  0.47913581910E+03  0.00000000000E+00 0.  1.
<mgrwt>
<rscale>  2 0.21888887E+02</rscale>
<asrwt>0</asrwt>
<pdfrwt beam="1">  1       21 0.95314644E-01 0.21888887E+02</pdfrwt>
<pdfrwt beam="2">  1       21 0.16948959E-03 0.21888887E+02</pdfrwt>
<totfact> 0.41029322E+07</totfact>
</mgrwt>
</event>
<event>
 4    1  0.2721071E+004  0.2669140E+02  0.7546771E-02  0.1637832E+00
         21   -1    0    0  503  502  0.00000000000E+00  0.00000000000E+00  0.64032006944E+02  0.64032006944E+02  0.00000000000E+00 0.  1.
         21   -1    0    0  501  503 -0.00000000000E+00 -0.00000000000E+00 -0.11302338235E+02  0.11302338235E+02  0.00000000000E+00 0. -1.
          2    1    1    2  501    0 -0.26690335653E+02  0.23859123853E+00  0.21662173413E+02  0.34375582905E+02  0.00000000000E+00 0.  1.
         -2    1    1    2    0  502  0.26690335653E+02 -0.23859123853E+00  0.31067495297E+02  0.40958762274E+02  0.00000000000E+00 0. -1.
<mgrwt>
<rscale>  2 0.26691402E+02</rscale>
<asrwt>0</asrwt>
<pdfrwt beam="1">  1       21 0.98510777E-02 0.26691402E+02</pdfrwt>
<pdfrwt beam="2">  1       21 0.17388213E-02 0.26691402E+02</pdfrwt>
<totfact> 0.92135208E+07</totfact>
</mgrwt>
</event>
<event>
 4    1  0.2721071E+004  0.2116985E+02  0.7546771E-02  0.1723018E+00
         21   -1    0    0  503  502  0.00000000000E+00  0.00000000000E+00  0.22219158713E+03  0.22219158713E+03  0.00000000000E+00 0.  1.
         21   -1    0    0  501  503 -0.00000000000E+00 -0.00000000000E+00 -0.28069572751E+01  0.28069572751E+01  0.00000000000E+00 0. -1.
          2    1    1    2  501    0 -0.10832040099E+02  0.18188712914E+02  0.50011985118E+02  0.54308019902E+02  0.00000000000E+00 0.  1.
         -2    1    1    2    0  502  0.10832040099E+02 -0.18188712914E+02  0.16937264473E+03  0.17069052450E+03  0.00000000000E+00 0. -1.
<mgrwt>
<rscale>  2 0.21169846E+02</rscale>
<asrwt>0</asrwt>
<pdfrwt beam="1">  1       21 0.34183307E-01 0.21169846E+02</pdfrwt>
<pdfrwt beam="2">  1       21 0.43183976E-03 0.21169846E+02</pdfrwt>
<totfact> 0.80232694E+07</totfact>
</mgrwt>
</event>
<event>
 4    1  0.2721071E+004  0.2130034E+02  0.7546771E-02  0.1720641E+00
         21   -1    0    0  503  502  0.00000000000E+00  0.00000000000E+00  0.34955745041E+01  0.34955745041E+01  0.00000000000E+00 0. -1.
         21   -1    0    0  501  503 -0.00000000000E+00 -0.00000000000E+00 -0.22733106824E+03  0.22733106824E+03  0.00000000000E+00 0.  1.
          2    1    1    2  501    0  0.20343329629E+02 -0.63129647970E+01 -0.18751593721E+03  0.18872183576E+03  0.00000000000E+00 0.  1.
         -2    1    1    2    0  502 -0.20343329629E+02  0.63129647970E+01 -0.36319556525E+02  0.42104806984E+02  0.00000000000E+00 0. -1.
<mgrwt>
<rscale>  2 0.21300342E+02</rscale>
<asrwt>0</asrwt>
<pdfrwt beam="1">  1       21 0.53778065E-03 0.21300342E+02</pdfrwt>
<pdfrwt beam="2">  1       21 0.34974013E-01 0.21300342E+02</pdfrwt>
<totfact> 0.55811133E+07</totfact>
</mgrwt>
</event>
<event>
 4    1  0.2721071E+004  0.2864712E+02  0.7546771E-02  0.1613543E+00
         21   -1    0    0  503  502  0.00000000000E+00  0.00000000000E+00  0.19805484741E+02  0.19805484741E+02  0.00000000000E+00 0. -1.
         21   -1    0    0  501  503 -0.00000000000E+00 -0.00000000000E+00 -0.55475337922E+02  0.55475337922E+02  0.00000000000E+00 0.  1.
          2    1    1    2  501    0  0.17507252506E+01  0.28593577700E+02 -0.36770546373E+02  0.46612560594E+02  0.00000000000E+00 0.  1.
         -2    1    1    2    0  502 -0.17507252506E+01 -0.28593577700E+02  0.11006931922E+01  0.28668262069E+02  0.00000000000E+00 0. -1.
<mgrwt>
<rscale>  2 0.28647124E+02</rscale>
<asrwt>0</asrwt>
<pdfrwt beam="1">  1       21 0.30469977E-02 0.28647124E+02</pdfrwt>
<pdfrwt beam="2">  1       21 0.85346674E-02 0.28647124E+02</pdfrwt>
<totfact> 0.49770181E+07</totfact>
</mgrwt>
</event>
<event>
 4    1  0.2721071E+004  0.5660218E+02  0.7546771E-02  0.1412670E+00
         21   -1    0    0  503  502  0.00000000000E+00  0.00000000000E+00  0.31867896229E+02  0.31867896229E+02  0.00000000000E+00 0. -1.
         21   -1    0    0  501  503 -0.00000000000E+00 -0.00000000000E+00 -0.10061570573E+03  0.10061570573E+03  0.00000000000E+00 0.  1.
          2    1    1    2  501    0 -0.53092641211E+02 -0.19620862408E+02 -0.36261676246E+02  0.67221395081E+02  0.00000000000E+00 0.  1.
         -2    1    1    2    0  502  0.53092641211E+02  0.19620862408E+02 -0.32486133250E+02  0.65262206873E+02  0.00000000000E+00 0. -1.
<mgrwt>
<rscale>  2 0.56602180E+02</rscale>
<asrwt>0</asrwt>
<pdfrwt beam="1">  1       21 0.49027533E-02 0.56602180E+02</pdfrwt>
<pdfrwt beam="2">  1       21 0.15479339E-01 0.56602180E+02</pdfrwt>
<totfact> 0.93871933E+06</totfact>
</mgrwt>
</event>
<event>
 4    1  0.2721071E+004  0.6064753E+02  0.7546771E-02  0.1395134E+00
         21   -1    0    0  503  502  0.00000000000E+00  0.00000000000E+00  0.71660527459E+02  0.71660527459E+02  0.00000000000E+00 0. -1.
         21   -1    0    0  501  503 -0.00000000000E+00 -0.00000000000E+00 -0.87705875868E+02  0.87705875868E+02  0.00000000000E+00 0.  1.
          2    1    1    2  501    0 -0.42556049615E+02 -0.43210022309E+02 -0.59341507827E+02  0.84850090972E+02  0.00000000000E+00 0.  1.
         -2    1    1    2    0  502  0.42556049615E+02  0.43210022309E+02  0.43296159418E+02  0.74516312356E+02  0.00000000000E+00 0. -1.
<mgrwt>
<rscale>  2 0.60647534E+02</rscale>
<asrwt>0</asrwt>
<pdfrwt beam="1">  1       21 0.11024696E-01 0.60647534E+02</pdfrwt>
<pdfrwt beam="2">  1       21 0.13493212E-01 0.60647534E+02</pdfrwt>
<totfact> 0.30825887E+06</totfact>
</mgrwt>
</event>
<event>
 4    1  0.2721071E+004  0.3466478E+02  0.7546771E-02  0.1551598E+00
         21   -1    0    0  503  502  0.00000000000E+00  0.00000000000E+00  0.19505938552E+03  0.19505938552E+03  0.00000000000E+00 0. -1.
         21   -1    0    0  501  503 -0.00000000000E+00 -0.00000000000E+00 -0.61614353750E+01  0.61614353750E+01  0.00000000000E+00 0.  1.
          2    1    1    2  501    0 -0.30140929401E+02 -0.17122242756E+02  0.95743525336E+02  0.10182568176E+03  0.00000000000E+00 0. -1.
         -2    1    1    2    0  502  0.30140929401E+02  0.17122242756E+02  0.93154424812E+02  0.99395139138E+02  0.00000000000E+00 0.  1.
<mgrwt>
<rscale>  2 0.34664778E+02</rscale>
<asrwt>0</asrwt>
<pdfrwt beam="1">  1       21 0.30009132E-01 0.34664778E+02</pdfrwt>
<pdfrwt beam="2">  1       21 0.94791328E-03 0.34664778E+02</pdfrwt>
<totfact> 0.35258028E+07</totfact>
</mgrwt>
</event>
<event>
 4    1  0.2721071E+004  0.2231639E+02  0.7546771E-02  0.1702837E+00
         21   -1    0    0  501  502  0.00000000000E+00  0.00000000000E+00  0.30066801105E+02  0.30066801105E+02  0.00000000000E+00 0.  1.
         21   -1    0    0  502  503 -0.00000000000E+00 -0.00000000000E+00 -0.44395455944E+02  0.44395455944E+02  0.00000000000E+00 0. -1.
          2    1    1    2  501    0  0.30580160620E+01 -0.22105877715E+02  0.22314231781E+02  0.31558615809E+02  0.00000000000E+00 0.  1.
         -2    1    1    2    0  503 -0.30580160620E+01  0.22105877715E+02 -0.36642886620E+02  0.42903641240E+02  0.00000000000E+00 0. -1.
<mgrwt>
<rscale>  2 0.22316391E+02</rscale>
<asrwt>0</asrwt>
<pdfrwt beam="1">  1       21 0.46256617E-02 0.22316391E+02</pdfrwt>
<pdfrwt beam="2">  1       21 0.68300701E-02 0.22316391E+02</pdfrwt>
<totfact> 0.34931711E+07</totfact>
</mgrwt>
</event>
<event>
 4    1  0.2721071E+004  0.2308280E+02  0.7546771E-02  0.1690172E+00
         21   -1    0    0  501  502  0.00000000000E+00  0.00000000000E+00  0.38502392260E+03  0.38502392260E+03  0.00000000000E+00 0. -1.
         21   -1    0    0  502  503 -0.00000000000E+00 -0.00000000000E+00 -0.13839259884E+01  0.13839259884E+01  0.00000000000E+00 0.  1.
          2    1    1    2  501    0  0.19796522576E+02 -0.11870683682E+02  0.19039036484E+03  0.19178453134E+03  0.00000000000E+00 0. -1.
         -2    1    1    2    0  503 -0.19796522576E+02  0.11870683682E+02  0.19324963177E+03  0.19462331725E+03  0.00000000000E+00 0.  1.
<mgrwt>
<rscale>  2 0.23082795E+02</rscale>
<asrwt>0</asrwt>
<pdfrwt beam="1">  1       21 0.59234364E-01 0.23082795E+02</pdfrwt>
<pdfrwt beam="2">  1       21 0.21291200E-03 0.23082795E+02</pdfrwt>
<totfact> 0.80214493E+07</totfact>
</mgrwt>
</event>
<event>
 4    1  0.2721071E+004  0.2898658E+02  0.7546771E-02  0.1609569E+00
         21   -1    0    0  503  502  0.00000000000E+00  0.00000000000E+00  0.20529595200E+03  0.20529595200E+03  0.00000000000E+00 0.  1.
         21   -1    0    0  501  503 -0.00000000000E+00 -0.00000000000E+00 -0.49452201806E+01  0.49452201806E+01  0.00000000000E+00 0. -1.
          2    1    1    2  501    0  0.28957759925E+02  0.12922302155E+01  0.56529950049E+02  0.63528395001E+02  0.00000000000E+00 0.  1.
         -2    1    1    2    0  502 -0.28957759925E+02 -0.12922302155E+01  0.14382078177E+03  0.14671277718E+03  0.00000000000E+00 0. -1.
<mgrwt>
<rscale>  2 0.28986578E+02</rscale>
<asrwt>0</asrwt>
<pdfrwt beam="1">  1       21 0.31583986E-01 0.28986578E+02</pdfrwt>
<pdfrwt beam="2">  1       21 0.76080326E-03 0.28986578E+02</pdfrwt>
<totfact> 0.43182890E+07</totfact>
</mgrwt>
</event>
<event>
 4    1  0.2721071E+004  0.2005376E+02  0.7546771E-02  0.1744261E+00
         21   -1    0    0  503  502  0.00000000000E+00  0.00000000000E+00  0.10452748580E+03  0.10452748580E+03  0.00000000000E+00 0. -1.
         21   -1    0    0  501  503 -0.00000000000E+00 -0.00000000000E+00 -0.12180210906E+02  0.12180210906E+02  0.00000000000E+00 0.  1.
          2    1    1    2  501    0  0.10280468844E+02 -0.17218171179E+02 -0.20921343607E+01  0.20162601136E+02  0.00000000000E+00 0.  1.
         -2    1    1    2    0  502 -0.10280468844E+02  0.17218171179E+02  0.94439409259E+02  0.96545095575E+02  0.00000000000E+00 0. -1.
<mgrwt>
<rscale>  2 0.20053764E+02</rscale>
<asrwt>0</asrwt>
<pdfrwt beam="1">  1       21 0.16081151E-01 0.20053764E+02</pdfrwt>
<pdfrwt beam="2">  1       21 0.18738787E-02 0.20053764E+02</pdfrwt>
<totfact> 0.33506541E+07</totfact>
</mgrwt>
</event>
<event>
 4    1  0.2721071E+004  0.2482021E+02  0.7546771E-02  0.1663598E+00
         21   -1    0    0  501  502  0.00000000000E+00  0.00000000000E+00  0.65938300543E+02  0.65938300543E+02  0.00000000000E+00 0.  1.
         21   -1    0    0  502  503 -0.00000000000E+00 -0.00000000000E+00 -0.12488881448E+02  0.12488881448E+02  0.00000000000E+00 0. -1.
          2    1    1    2  501    0 -0.18013487087E+02  0.17075036461E+02  0.46406556972E+02  0.52627094896E+02  0.00000000000E+00 0. -1.
         -2    1    1    2    0  503  0.18013487087E+02 -0.17075036461E+02  0.70428621236E+01  0.25800087095E+02  0.00000000000E+00 0.  1.
<mgrwt>
<rscale>  2 0.24820205E+02</rscale>
<asrwt>0</asrwt>
<pdfrwt beam="1">  1       21 0.10144354E-01 0.24820205E+02</pdfrwt>
<pdfrwt beam="2">  1       21 0.19213664E-02 0.24820205E+02</pdfrwt>
<totfact> 0.73896035E+07</totfact>
</mgrwt>
</event>
<event>
 4    1  0.2721071E+004  0.2732820E+02  0.7546771E-02  0.1629650E+00
         21   -1    0    0  503  502  0.00000000000E+00  0.00000000000E+00  0.97041690494E+03  0.97041690494E+03  0.00000000000E+00 0. -1.
         21   -1    0    0  501  503 -0.00000000000E+00 -0.00000000000E+00 -0.10066070485E+01  0.10066070485E+01  0.00000000000E+00 0.  1.
          2    1    1    2  501    0  0.23752729200E+02 -0.13514380838E+02  0.24902046815E+03  0.25051551687E+03  0.00000000000E+00 0.  1.
         -2    1    1    2    0  502 -0.23752729200E+02  0.13514380838E+02  0.72038982974E+03  0.72090799512E+03  0.00000000000E+00 0. -1.
<mgrwt>
<rscale>  2 0.27328202E+02</rscale>
<asrwt>0</asrwt>
<pdfrwt beam="1">  1       21 0.14929416E+00 0.27328202E+02</pdfrwt>
<pdfrwt beam="2">  1       21 0.15486340E-03 0.27328202E+02</pdfrwt>
<totfact> 0.17556466E+07</totfact>
</mgrwt>
</event>
<event>
 4    1  0.2721071E+004  0.4842467E+02  0.7546771E-02  0.1454028E+00
         21   -1    0    0  503  502  0.00000000000E+00  0.00000000000E+00  0.35412549767E+02  0.35412549767E+02  0.00000000000E+00 0.  1.
         21   -1    0    0  501  503 -0.00000000000E+00 -0.00000000000E+00 -0.67380813338E+02  0.67380813338E+02  0.00000000000E+00 0. -1.
          2    1    1    2  501    0 -0.39182285097E+02  0.28455180383E+02 -0.22735925003E+02  0.53496458217E+02  0.00000000000E+00 0. -1.
         -2    1    1    2    0  502  0.39182285097E+02 -0.28455180383E+02 -0.92323385690E+01  0.49296904888E+02  0.00000000000E+00 0.  1.
<mgrwt>
<rscale>  2 0.48424671E+02</rscale>
<asrwt>0</asrwt>
<pdfrwt beam="1">  1       21 0.54480846E-02 0.48424671E+02</pdfrwt>
<pdfrwt beam="2">  1       21 0.10366279E-01 0.48424671E+02</pdfrwt>
<totfact> 0.15522413E+07</totfact>
</mgrwt>
</event>
<event>
 4    1  0.2721071E+004  0.2759723E+02  0.7546771E-02  0.1626275E+00
         21   -1    0    0  501  502  0.00000000000E+00  0.00000000000E+00  0.13436923745E+03  0.13436923745E+03  0.00000000000E+00 0.  1.
         21   -1    0    0  502  503 -0.00000000000E+00 -0.00000000000E+00 -0.18202273801E+02  0.18202273801E+02  0.00000000000E+00 0. -1.
          2    1    1    2  501    0  0.41460628987E+01 -0.27284009851E+02  0.12138730459E+03  0.12448487758E+03  0.00000000000E+00 0.  1.
         -2    1    1    2    0  503 -0.41460628987E+01  0.27284009851E+02 -0.52203409429E+01  0.28086633666E+02  0.00000000000E+00 0. -1.
<mgrwt>
<rscale>  2 0.27597229E+02</rscale>
<asrwt>0</asrwt>
<pdfrwt beam="1">  1       21 0.20672190E-01 0.27597229E+02</pdfrwt>
<pdfrwt beam="2">  1       21 0.28003499E-02 0.27597229E+02</pdfrwt>
<totfact> 0.12494888E+07</totfact>
</mgrwt>
</event>
<event>
 4    1  0.2721071E+004  0.3929561E+02  0.7546771E-02  0.1513460E+00
         21   -1    0    0  503  502  0.00000000000E+00  0.00000000000E+00  0.36593354084E+01  0.36593354084E+01  0.00000000000E+00 0. -1.
         21   -1    0    0  501  503 -0.00000000000E+00 -0.00000000000E+00 -0.13796034894E+04  0.13796034894E+04  0.00000000000E+00 0.  1.
          2    1    1    2  501    0 -0.38877747264E+02  0.57153861218E+01 -0.12642026464E+04  0.12648132178E+04  0.00000000000E+00 0.  1.
         -2    1    1    2    0  502  0.38877747264E+02 -0.57153861218E+01 -0.11174150759E+03  0.11844960696E+03  0.00000000000E+00 0. -1.
<mgrwt>
<rscale>  2 0.39295609E+02</rscale>
<asrwt>0</asrwt>
<pdfrwt beam="1">  1       21 0.56297464E-03 0.39295609E+02</pdfrwt>
<pdfrwt beam="2">  1       21 0.21224671E+00 0.39295609E+02</pdfrwt>
<totfact> 0.10962482E+06</totfact>
</mgrwt>
</event>
<event>
 4    1  0.2721071E+004  0.2479600E+02  0.7546771E-02  0.1663949E+00
         21   -1    0    0  503  502  0.00000000000E+00  0.00000000000E+00  0.19551274879E+02  0.19551274879E+02  0.00000000000E+00 0. -1.
         21   -1    0    0  501  503 -0.00000000000E+00 -0.00000000000E+00 -0.45410648328E+02  0.45410648328E+02  0.00000000000E+00 0.  1.
          2    1    1    2  501    0  0.24255037748E+02 -0.51511875402E+01 -0.30940752730E+02  0.39650621291E+02  0.00000000000E+00 0.  1.
         -2    1    1    2    0  502 -0.24255037748E+02  0.51511875402E+01  0.50813792813E+01  0.25311301915E+02  0.00000000000E+00 0. -1.
<mgrwt>
<rscale>  2 0.24795999E+02</rscale>
<asrwt>0</asrwt>
<pdfrwt beam="1">  1       21 0.30078885E-02 0.24795999E+02</pdfrwt>
<pdfrwt beam="2">  1       21 0.69862534E-02 0.24795999E+02</pdfrwt>
<totfact> 0.68076169E+07</totfact>
</mgrwt>
</event>
<event>
 4    1  0.2721071E+004  0.2046688E+02  0.7546771E-02  0.1736200E+00
         21   -1    0    0  503  502  0.00000000000E+00  0.00000000000E+00  0.42804594045E+03  0.42804594045E+03  0.00000000000E+00 0.  1.
         21   -1    0    0  501  503 -0.00000000000E+00 -0.00000000000E+00 -0.10078836146E+01  0.10078836146E+01  0.00000000000E+00 0. -1.
          2    1    1    2  501    0  0.11393823592E+02  0.17002179995E+02  0.17696312515E+03  0.17814275456E+03  0.00000000000E+00 0.  1.
         -2    1    1    2    0  502 -0.11393823592E+02 -0.17002179995E+02  0.25007493168E+03  0.25091106950E+03  0.00000000000E+00 0. -1.
<mgrwt>
<rscale>  2 0.20466884E+02</rscale>
<asrwt>0</asrwt>
<pdfrwt beam="1">  1       21 0.65853076E-01 0.20466884E+02</pdfrwt>
<pdfrwt beam="2">  1       21 0.15505936E-03 0.20466884E+02</pdfrwt>
<totfact> 0.99210222E+07</totfact>
</mgrwt>
</event>
<event>
 4    1  0.2721071E+004  0.5641904E+02  0.7546771E-02  0.1413505E+00
         21   -1    0    0  503  502  0.00000000000E+00  0.00000000000E+00  0.24487106143E+01  0.24487106143E+01  0.00000000000E+00 0.  1.
         21   -1    0    0  501  503 -0.00000000000E+00 -0.00000000000E+00 -0.13602445459E+04  0.13602445459E+04  0.00000000000E+00 0. -1.
          2    1    1    2  501    0 -0.37795526804E+02 -0.41888013385E+02 -0.82239286760E+03  0.82432586771E+03  0.00000000000E+00 0. -1.
         -2    1    1    2    0  502  0.37795526804E+02  0.41888013385E+02 -0.53540296773E+03  0.53836738884E+03  0.00000000000E+00 0.  1.
<mgrwt>
<rscale>  2 0.56419035E+02</rscale>
<asrwt>0</asrwt>
<pdfrwt beam="1">  1       21 0.37672525E-03 0.56419035E+02</pdfrwt>
<pdfrwt beam="2">  1       21 0.20926809E+00 0.56419035E+02</pdfrwt>
<totfact> 0.20865084E+06</totfact>
</mgrwt>
</event>
<event>
 4    1  0.2721071E+004  0.2029835E+02  0.7546771E-02  0.1739459E+00
         21   -1    0    0  503  502  0.00000000000E+00  0.00000000000E+00  0.15744125084E+02  0.15744125084E+02  0.00000000000E+00 0.  1.
         21   -1    0    0  501  503 -0.00000000000E+00 -0.00000000000E+00 -0.27362623155E+02  0.27362623155E+02  0.00000000000E+00 0. -1.
          2    1    1    2  501    0 -0.12810901115E+02  0.15744958460E+02 -0.10309097006E+02  0.22766211485E+02  0.00000000000E+00 0. -1.
         -2    1    1    2    0  502  0.12810901115E+02 -0.15744958460E+02 -0.13094010651E+01  0.20340536754E+02  0.00000000000E+00 0.  1.
<mgrwt>
<rscale>  2 0.20298347E+02</rscale>
<asrwt>0</asrwt>
<pdfrwt beam="1">  1       21 0.24221731E-02 0.20298347E+02</pdfrwt>
<pdfrwt beam="2">  1       21 0.42096344E-02 0.20298347E+02</pdfrwt>
<totfact> 0.20157728E+08</totfact>
</mgrwt>
</event>
<event>
 4    1  0.2721071E+004  0.2210723E+02  0.7546771E-02  0.1706404E+00
         21   -1    0    0  501  502  0.00000000000E+00  0.00000000000E+00  0.16245946367E+03  0.16245946367E+03  0.00000000000E+00 0.  1.
         21   -1    0    0  502  503 -0.00000000000E+00 -0.00000000000E+00 -0.11330802556E+02  0.11330802556E+02  0.00000000000E+00 0. -1.
          2    1    1    2  501    0  0.15119517202E+02 -0.16128542132E+02  0.15003609181E+03  0.15165605335E+03  0.00000000000E+00 0.  1.
         -2    1    1    2    0  503 -0.15119517202E+02  0.16128542132E+02  0.10925692981E+01  0.22134212870E+02  0.00000000000E+00 0. -1.
<mgrwt>
<rscale>  2 0.22107231E+02</rscale>
<asrwt>0</asrwt>
<pdfrwt beam="1">  1       21 0.24993762E-01 0.22107231E+02</pdfrwt>
<pdfrwt beam="2">  1       21 0.17432005E-02 0.22107231E+02</pdfrwt>
<totfact> 0.17771108E+07</totfact>
</mgrwt>
</event>
<event>
 4    1  0.2721071E+004  0.2250409E+02  0.7546771E-02  0.1699677E+00
         21   -1    0    0  503  502  0.00000000000E+00  0.00000000000E+00  0.16169004849E+03  0.16169004849E+03  0.00000000000E+00 0. -1.
         21   -1    0    0  501  503 -0.00000000000E+00 -0.00000000000E+00 -0.33087787916E+01  0.33087787916E+01  0.00000000000E+00 0.  1.
          2    1    1    2  501    0  0.71097633503E+01  0.21351476555E+02  0.60128476673E+02  0.64201775622E+02  0.00000000000E+00 0.  1.
         -2    1    1    2    0  502 -0.71097633503E+01 -0.21351476555E+02  0.98252793022E+02  0.10079705166E+03  0.00000000000E+00 0. -1.
<mgrwt>
<rscale>  2 0.22504095E+02</rscale>
<asrwt>0</asrwt>
<pdfrwt beam="1">  1       21 0.24875386E-01 0.22504095E+02</pdfrwt>
<pdfrwt beam="2">  1       21 0.50904302E-03 0.22504095E+02</pdfrwt>
<totfact> 0.11385577E+08</totfact>
</mgrwt>
</event>
<event>
 4    1  0.2721071E+004  0.4257996E+02  0.7546771E-02  0.1490041E+00
         21   -1    0    0  503  502  0.00000000000E+00  0.00000000000E+00  0.19210927067E+03  0.19210927067E+03  0.00000000000E+00 0.  1.
         21   -1    0    0  501  503 -0.00000000000E+00 -0.00000000000E+00 -0.10553780261E+02  0.10553780261E+02  0.00000000000E+00 0. -1.
          2    1    1    2  501    0 -0.33222027487E+02  0.26633622071E+02  0.57823967159E+02  0.71809916536E+02  0.00000000000E+00 0.  1.
         -2    1    1    2    0  502  0.33222027487E+02 -0.26633622071E+02  0.12373152325E+03  0.13085313440E+03  0.00000000000E+00 0. -1.
<mgrwt>
<rscale>  2 0.42579959E+02</rscale>
<asrwt>0</asrwt>
<pdfrwt beam="1">  1       21 0.29555270E-01 0.42579959E+02</pdfrwt>
<pdfrwt beam="2">  1       21 0.16236586E-02 0.42579959E+02</pdfrwt>
<totfact> 0.16395217E+07</totfact>
</mgrwt>
</event>
<event>
 4    1  0.2721071E+004  0.2065711E+02  0.7546771E-02  0.1732568E+00
         21   -1    0    0  503  502  0.00000000000E+00  0.00000000000E+00  0.33126945560E+03  0.33126945560E+03  0.00000000000E+00 0.  1.
         21   -1    0    0  501  503 -0.00000000000E+00 -0.00000000000E+00 -0.16873099733E+01  0.16873099733E+01  0.00000000000E+00 0. -1.
          2    1    1    2  501    0 -0.10326097380E+02 -0.17891000030E+02  0.83816625247E+02  0.86324636327E+02  0.00000000000E+00 0.  1.
         -2    1    1    2    0  502  0.10326097380E+02  0.17891000030E+02  0.24576552038E+03  0.24663212925E+03  0.00000000000E+00 0. -1.
<mgrwt>
<rscale>  2 0.20657109E+02</rscale>
<asrwt>0</asrwt>
<pdfrwt beam="1">  1       21 0.50964480E-01 0.20657109E+02</pdfrwt>
<pdfrwt beam="2">  1       21 0.25958641E-03 0.20657109E+02</pdfrwt>
<totfact> 0.78689003E+07</totfact>
</mgrwt>
</event>
<event>
 4    1  0.2721071E+004  0.3731018E+02  0.7546771E-02  0.1528993E+00
         21   -1    0    0  501  502  0.00000000000E+00  0.00000000000E+00  0.12328214905E+02  0.12328214905E+02  0.00000000000E+00 0. -1.
         21   -1    0    0  502  503 -0.00000000000E+00 -0.00000000000E+00 -0.18942765243E+03  0.18942765243E+03  0.00000000000E+00 0.  1.
          2    1    1    2  501    0  0.32634159971E+02 -0.18084826031E+02 -0.24437758013E+02  0.44601046471E+02  0.00000000000E+00 0. -1.
         -2    1    1    2    0  503 -0.32634159971E+02  0.18084826031E+02 -0.15266167951E+03  0.15715482086E+03  0.00000000000E+00 0.  1.
<mgrwt>
<rscale>  2 0.37310177E+02</rscale>
<asrwt>0</asrwt>
<pdfrwt beam="1">  1       21 0.18966485E-02 0.37310177E+02</pdfrwt>
<pdfrwt beam="2">  1       21 0.29142714E-01 0.37310177E+02</pdfrwt>
<totfact> 0.12963004E+07</totfact>
</mgrwt>
</event>
<event>
 4    1  0.2721071E+004  0.2446746E+02  0.7546771E-02  0.1668771E+00
         21   -1    0    0  503  502  0.00000000000E+00  0.00000000000E+00  0.10819716971E+03  0.10819716971E+03  0.00000000000E+00 0.  1.
         21   -1    0    0  501  503 -0.00000000000E+00 -0.00000000000E+00 -0.64382527572E+01  0.64382527572E+01  0.00000000000E+00 0. -1.
          2    1    1    2  501    0 -0.13319795583E+02  0.20524123787E+02  0.29387002242E+02  0.38239410461E+02  0.00000000000E+00 0. -1.
         -2    1    1    2    0  502  0.13319795583E+02 -0.20524123787E+02  0.72371914708E+02  0.76396012003E+02  0.00000000000E+00 0.  1.
<mgrwt>
<rscale>  2 0.24467460E+02</rscale>
<asrwt>0</asrwt>
<pdfrwt beam="1">  1       21 0.16645717E-01 0.24467460E+02</pdfrwt>
<pdfrwt beam="2">  1       21 0.99050050E-03 0.24467460E+02</pdfrwt>
<totfact> 0.87305589E+07</totfact>
</mgrwt>
</event>
<event>
 4    1  0.2721071E+004  0.4783502E+02  0.7546771E-02  0.1457381E+00
         21   -1    0    0  503  502  0.00000000000E+00  0.00000000000E+00  0.26688509469E+03  0.26688509469E+03  0.00000000000E+00 0. -1.
         21   -1    0    0  501  503 -0.00000000000E+00 -0.00000000000E+00 -0.15673159503E+02  0.15673159503E+02  0.00000000000E+00 0.  1.
          2    1    1    2  501    0 -0.18648897933E+02 -0.44050060341E+02  0.30520800618E+02  0.56742475100E+02  0.00000000000E+00 0.  1.
         -2    1    1    2    0  502  0.18648897933E+02  0.44050060341E+02  0.22069113457E+03  0.22581577909E+03  0.00000000000E+00 0. -1.
<mgrwt>
<rscale>  2 0.47835021E+02</rscale>
<asrwt>0</asrwt>
<pdfrwt beam="1">  1       21 0.41059242E-01 0.47835021E+02</pdfrwt>
<pdfrwt beam="2">  1       21 0.24112555E-02 0.47835021E+02</pdfrwt>
<totfact> 0.47818247E+06</totfact>
</mgrwt>
</event>
<event>
 4    1  0.2721071E+004  0.3071286E+02  0.7546771E-02  0.1590340E+00
         21   -1    0    0  503  502  0.00000000000E+00  0.00000000000E+00  0.95548607268E+03  0.95548607268E+03  0.00000000000E+00 0. -1.
         21   -1    0    0  501  503 -0.00000000000E+00 -0.00000000000E+00 -0.14822467382E+01  0.14822467382E+01  0.00000000000E+00 0.  1.
          2    1    1    2  501    0  0.26024477325E+02  0.16309707100E+02  0.20048649980E+03  0.20282533512E+03  0.00000000000E+00 0. -1.
         -2    1    1    2    0  502 -0.26024477325E+02 -0.16309707100E+02  0.75351732614E+03  0.75414298430E+03  0.00000000000E+00 0.  1.
<mgrwt>
<rscale>  2 0.30712863E+02</rscale>
<asrwt>0</asrwt>
<pdfrwt beam="1">  1       21 0.14699736E+00 0.30712863E+02</pdfrwt>
<pdfrwt beam="2">  1       21 0.22803872E-03 0.30712863E+02</pdfrwt>
<totfact> 0.10547563E+07</totfact>
</mgrwt>
</event>
<event>
 4    1  0.2721071E+004  0.2198875E+02  0.7546771E-02  0.1708447E+00
         21   -1    0    0  503  502  0.00000000000E+00  0.00000000000E+00  0.11609101044E+03  0.11609101044E+03  0.00000000000E+00 0.  1.
         21   -1    0    0  501  503 -0.00000000000E+00 -0.00000000000E+00 -0.41820830089E+01  0.41820830089E+01  0.00000000000E+00 0. -1.
          2    1    1    2  501    0 -0.21678641056E+02  0.36799210561E+01  0.52097674165E+02  0.56547970348E+02  0.00000000000E+00 0.  1.
         -2    1    1    2    0  502  0.21678641056E+02 -0.36799210561E+01  0.59811253265E+02  0.63725123100E+02  0.00000000000E+00 0. -1.
<mgrwt>
<rscale>  2 0.21988754E+02</rscale>
<asrwt>0</asrwt>
<pdfrwt beam="1">  1       21 0.17860153E-01 0.21988754E+02</pdfrwt>
<pdfrwt beam="2">  1       21 0.64339747E-03 0.21988754E+02</pdfrwt>
<totfact> 0.14291662E+08</totfact>
</mgrwt>
</event>
<event>
 4    1  0.2721071E+004  0.2346530E+02  0.7546771E-02  0.1684077E+00
         21   -1    0    0  501  502  0.00000000000E+00  0.00000000000E+00  0.20578138108E+03  0.20578138108E+03  0.00000000000E+00 0.  1.
         21   -1    0    0  502  503 -0.00000000000E+00 -0.00000000000E+00 -0.30980188009E+01  0.30980188009E+01  0.00000000000E+00 0. -1.
          2    1    1    2  501    0 -0.23457222649E+02 -0.61555963915E+00  0.13989984948E+03  0.14185410848E+03  0.00000000000E+00 0.  1.
         -2    1    1    2    0  503  0.23457222649E+02  0.61555963915E+00  0.62783512803E+02  0.67025291405E+02  0.00000000000E+00 0. -1.
<mgrwt>
<rscale>  2 0.23465298E+02</rscale>
<asrwt>0</asrwt>
<pdfrwt beam="1">  1       21 0.31658663E-01 0.23465298E+02</pdfrwt>
<pdfrwt beam="2">  1       21 0.47661844E-03 0.23465298E+02</pdfrwt>
<totfact> 0.82094924E+07</totfact>
</mgrwt>
</event>
<event>
 4    1  0.2721071E+004  0.2031553E+02  0.7546771E-02  0.1739125E+00
         21   -1    0    0  503  502  0.00000000000E+00  0.00000000000E+00  0.12822212929E+03  0.12822212929E+03  0.00000000000E+00 0.  1.
         21   -1    0    0  501  503 -0.00000000000E+00 -0.00000000000E+00 -0.56617242631E+01  0.56617242631E+01  0.00000000000E+00 0. -1.
          2    1    1    2  501    0 -0.14297236584E+02 -0.14432938065E+02  0.17307885732E+02  0.26688641473E+02  0.00000000000E+00 0. -1.
         -2    1    1    2    0  502  0.14297236584E+02  0.14432938065E+02  0.10525251929E+03  0.10719521208E+03  0.00000000000E+00 0.  1.
<mgrwt>
<rscale>  2 0.20315528E+02</rscale>
<asrwt>0</asrwt>
<pdfrwt beam="1">  1       21 0.19726479E-01 0.20315528E+02</pdfrwt>
<pdfrwt beam="2">  1       21 0.87103460E-03 0.20315528E+02</pdfrwt>
<totfact> 0.75031679E+07</totfact>
</mgrwt>
</event>
<event>
 4    1  0.2721071E+004  0.2564039E+02  0.7546771E-02  0.1651971E+00
         21   -1    0    0  501  502  0.00000000000E+00  0.00000000000E+00  0.20125594829E+02  0.20125594829E+02  0.00000000000E+00 0. -1.
         21   -1    0    0  502  503 -0.00000000000E+00 -0.00000000000E+00 -0.33009179102E+02  0.33009179102E+02  0.00000000000E+00 0.  1.
          2    1    1    2  501    0 -0.22904706650E+01  0.25537882541E+02 -0.37342758469E+01  0.25910895713E+02  0.00000000000E+00 0. -1.
         -2    1    1    2    0  503  0.22904706650E+01 -0.25537882541E+02 -0.91493084262E+01  0.27223878218E+02  0.00000000000E+00 0.  1.
<mgrwt>
<rscale>  2 0.25640392E+02</rscale>
<asrwt>0</asrwt>
<pdfrwt beam="1">  1       21 0.30962454E-02 0.25640392E+02</pdfrwt>
<pdfrwt beam="2">  1       21 0.50783352E-02 0.25640392E+02</pdfrwt>
<totfact> 0.10974232E+08</totfact>
</mgrwt>
</event>
<event>
 4    1  0.2721071E+004  0.2630503E+02  0.7546771E-02  0.1642935E+00
         21   -1    0    0  503  502  0.00000000000E+00  0.00000000000E+00  0.24287853094E+02  0.24287853094E+02  0.00000000000E+00 0. -1.
         21   -1    0    0  501  503 -0.00000000000E+00 -0.00000000000E+00 -0.33424499870E+02  0.33424499870E+02  0.00000000000E+00 0.  1.
          2    1    1    2  501    0 -0.22179503149E+02 -0.14142992363E+02 -0.15655970306E+02  0.30611501092E+02  0.00000000000E+00 0.  1.
         -2    1    1    2    0  502  0.22179503149E+02  0.14142992363E+02  0.65193235291E+01  0.27100851872E+02  0.00000000000E+00 0. -1.
<mgrwt>
<rscale>  2 0.26305030E+02</rscale>
<asrwt>0</asrwt>
<pdfrwt beam="1">  1       21 0.37365928E-02 0.26305030E+02</pdfrwt>
<pdfrwt beam="2">  1       21 0.51422307E-02 0.26305030E+02</pdfrwt>
<totfact> 0.80578528E+07</totfact>
</mgrwt>
</event>
<event>
 4    1  0.2721071E+004  0.2207995E+02  0.7546771E-02  0.1706873E+00
         21   -1    0    0  501  502  0.00000000000E+00  0.00000000000E+00  0.64218811358E+01  0.64218811358E+01  0.00000000000E+00 0. -1.
         21   -1    0    0  502  503 -0.00000000000E+00 -0.00000000000E+00 -0.86852007303E+02  0.86852007303E+02  0.00000000000E+00 0.  1.
          2    1    1    2  501    0 -0.18842177835E+02 -0.11510711108E+02 -0.23666218629E+02  0.32366866391E+02  0.00000000000E+00 0. -1.
         -2    1    1    2    0  503  0.18842177835E+02  0.11510711108E+02 -0.56763907538E+02  0.60907022048E+02  0.00000000000E+00 0.  1.
<mgrwt>
<rscale>  2 0.22079949E+02</rscale>
<asrwt>0</asrwt>
<pdfrwt beam="1">  1       21 0.98798175E-03 0.22079949E+02</pdfrwt>
<pdfrwt beam="2">  1       21 0.13361847E-01 0.22079949E+02</pdfrwt>
<totfact> 0.12378780E+08</totfact>
</mgrwt>
</event>
<event>
 4    1  0.2721071E+004  0.2654358E+02  0.7546771E-02  0.1639772E+00
         21   -1    0    0  503  502  0.00000000000E+00  0.00000000000E+00  0.19540867114E+04  0.19540867114E+04  0.00000000000E+00 0. -1.
         21   -1    0    0  501  503 -0.00000000000E+00 -0.00000000000E+00 -0.36057378109E+00  0.36057378109E+00  0.00000000000E+00 0.  1.
          2    1    1    2  501    0 -0.10419828247E+02  0.24412878710E+02  0.97038462413E+03  0.97074758831E+03  0.00000000000E+00 0. -1.
         -2    1    1    2    0  502  0.10419828247E+02 -0.24412878710E+02  0.98334151345E+03  0.98369969683E+03  0.00000000000E+00 0.  1.
<mgrwt>
<rscale>  2 0.26543577E+02</rscale>
<asrwt>0</asrwt>
<pdfrwt beam="1">  1       21 0.30062024E+00 0.26543577E+02</pdfrwt>
<pdfrwt beam="2">  1       21 0.55474454E-04 0.26543577E+02</pdfrwt>
<totfact> 0.11170034E+07</totfact>
</mgrwt>
</event>
<event>
 4    1  0.2721071E+004  0.2413284E+02  0.7546771E-02  0.1673779E+00
         21   -1    0    0  501  502  0.00000000000E+00  0.00000000000E+00  0.56325006165E+03  0.56325006165E+03  0.00000000000E+00 0.  1.
         21   -1    0    0  502  503 -0.00000000000E+00 -0.00000000000E+00 -0.31377433217E+01  0.31377433217E+01  0.00000000000E+00 0. -1.
          2    1    1    2  501    0 -0.17811752188E+02 -0.16282985690E+02  0.51194120592E+03  0.51250969987E+03  0.00000000000E+00 0.  1.
         -2    1    1    2    0  503  0.17811752188E+02  0.16282985690E+02  0.48171112405E+02  0.53878105101E+02  0.00000000000E+00 0. -1.
<mgrwt>
<rscale>  2 0.24132844E+02</rscale>
<asrwt>0</asrwt>
<pdfrwt beam="1">  1       21 0.86653775E-01 0.24132844E+02</pdfrwt>
<pdfrwt beam="2">  1       21 0.48273019E-03 0.24132844E+02</pdfrwt>
<totfact> 0.11178482E+07</totfact>
</mgrwt>
</event>
<event>
 4    1  0.2721071E+004  0.2400995E+02  0.7546771E-02  0.1675644E+00
         21   -1    0    0  503  502  0.00000000000E+00  0.00000000000E+00  0.24523817989E+03  0.24523817989E+03  0.00000000000E+00 0.  1.
         21   -1    0    0  501  503 -0.00000000000E+00 -0.00000000000E+00 -0.87447711663E+01  0.87447711663E+01  0.00000000000E+00 0. -1.
          2    1    1    2  501    0 -0.19935593777E+02 -0.13380940475E+02  0.96567574848E+01  0.25879150534E+02  0.00000000000E+00 0. -1.
         -2    1    1    2    0  502  0.19935593777E+02  0.13380940475E+02  0.22683665124E+03  0.22810380052E+03  0.00000000000E+00 0.  1.
<mgrwt>
<rscale>  2 0.24009945E+02</rscale>
<asrwt>0</asrwt>
<pdfrwt beam="1">  1       21 0.37728946E-01 0.24009945E+02</pdfrwt>
<pdfrwt beam="2">  1       21 0.13453496E-02 0.24009945E+02</pdfrwt>
<totfact> 0.12641522E+07</totfact>
</mgrwt>
</event>
<event>
 4    1  0.2721071E+004  0.2382787E+02  0.7546771E-02  0.1678432E+00
         21   -1    0    0  501  502  0.00000000000E+00  0.00000000000E+00  0.28197904616E+01  0.28197904616E+01  0.00000000000E+00 0. -1.
         21   -1    0    0  502  503 -0.00000000000E+00 -0.00000000000E+00 -0.21431703500E+03  0.21431703500E+03  0.00000000000E+00 0.  1.
          2    1    1    2  501    0  0.21316671065E+02  0.10647396930E+02 -0.13245280839E+03  0.13457902502E+03  0.00000000000E+00 0.  1.
         -2    1    1    2    0  503 -0.21316671065E+02 -0.10647396930E+02 -0.79044436154E+02  0.82557800440E+02  0.00000000000E+00 0. -1.
<mgrwt>
<rscale>  2 0.23827873E+02</rscale>
<asrwt>0</asrwt>
<pdfrwt beam="1">  1       21 0.43381387E-03 0.23827873E+02</pdfrwt>
<pdfrwt beam="2">  1       21 0.32971855E-01 0.23827873E+02</pdfrwt>
<totfact> 0.87865708E+07</totfact>
</mgrwt>
</event>
<event>
 4    1  0.2721071E+004  0.2224564E+02  0.7546771E-02  0.1704038E+00
         21   -1    0    0  503  502  0.00000000000E+00  0.00000000000E+00  0.12713448323E+03  0.12713448323E+03  0.00000000000E+00 0.  1.
         21   -1    0    0  501  503 -0.00000000000E+00 -0.00000000000E+00 -0.41709345696E+01  0.41709345696E+01  0.00000000000E+00 0. -1.
          2    1    1    2  501    0 -0.34913894069E+01  0.21969953666E+02  0.44518420514E+02  0.49767041596E+02  0.00000000000E+00 0. -1.
         -2    1    1    2    0  502  0.34913894069E+01 -0.21969953666E+02  0.78445128145E+02  0.81538376203E+02  0.00000000000E+00 0.  1.
<mgrwt>
<rscale>  2 0.22245644E+02</rscale>
<asrwt>0</asrwt>
<pdfrwt beam="1">  1       21 0.19559148E-01 0.22245644E+02</pdfrwt>
<pdfrwt beam="2">  1       21 0.64168234E-03 0.22245644E+02</pdfrwt>
<totfact> 0.12301090E+08</totfact>
</mgrwt>
</event>
<event>
 4    1  0.2721071E+004  0.2403981E+02  0.7546771E-02  0.1675189E+00
         21   -1    0    0  501  502  0.00000000000E+00  0.00000000000E+00  0.14810373388E+03  0.14810373388E+03  0.00000000000E+00 0. -1.
         21   -1    0    0  502  503 -0.00000000000E+00 -0.00000000000E+00 -0.42512362009E+01  0.42512362009E+01  0.00000000000E+00 0.  1.
          2    1    1    2  501    0 -0.59599545559E+01  0.23289301737E+02  0.50094987623E+02  0.55564560816E+02  0.00000000000E+00 0. -1.
         -2    1    1    2    0  503  0.59599545559E+01 -0.23289301737E+02  0.93757510053E+02  0.96790409262E+02  0.00000000000E+00 0.  1.
<mgrwt>
<rscale>  2 0.24039814E+02</rscale>
<asrwt>0</asrwt>
<pdfrwt beam="1">  1       21 0.22785186E-01 0.24039814E+02</pdfrwt>
<pdfrwt beam="2">  1       21 0.65403645E-03 0.24039814E+02</pdfrwt>
<totfact> 0.93473980E+07</totfact>
</mgrwt>
</event>
<event>
 4    1  0.2721071E+004  0.2348002E+02  0.7546771E-02  0.1683845E+00
         21   -1    0    0  501  502  0.00000000000E+00  0.00000000000E+00  0.24271222368E+03  0.24271222368E+03  0.00000000000E+00 0.  1.
         21   -1    0    0  502  503 -0.00000000000E+00 -0.00000000000E+00 -0.59597056834E+01  0.59597056834E+01  0.00000000000E+00 0. -1.
          2    1    1    2  501    0 -0.22901453849E+02 -0.51802454142E+01  0.21618871875E+03  0.21746005069E+03  0.00000000000E+00 0.  1.
         -2    1    1    2    0  503  0.22901453849E+02  0.51802454142E+01  0.20563799248E+02  0.31211878676E+02  0.00000000000E+00 0. -1.
<mgrwt>
<rscale>  2 0.23480024E+02</rscale>
<asrwt>0</asrwt>
<pdfrwt beam="1">  1       21 0.37340334E-01 0.23480024E+02</pdfrwt>
<pdfrwt beam="2">  1       21 0.91687798E-03 0.23480024E+02</pdfrwt>
<totfact> 0.22876802E+07</totfact>
</mgrwt>
</event>
<event>
 4    1  0.2721071E+004  0.2256394E+02  0.7546771E-02  0.1698678E+00
         21   -1    0    0  501  502  0.00000000000E+00  0.00000000000E+00  0.24923696960E+03  0.24923696960E+03  0.00000000000E+00 0. -1.
         21   -1    0    0  502  503 -0.00000000000E+00 -0.00000000000E+00 -0.47815557831E+01  0.47815557831E+01  0.00000000000E+00 0.  1.
          2    1    1    2  501    0 -0.17045131157E+01  0.22499466898E+02  0.21835143063E+03  0.21951418778E+03  0.00000000000E+00 0. -1.
         -2    1    1    2    0  503  0.17045131157E+01 -0.22499466898E+02  0.26103983186E+02  0.34504337609E+02  0.00000000000E+00 0.  1.
<mgrwt>
<rscale>  2 0.22563940E+02</rscale>
<asrwt>0</asrwt>
<pdfrwt beam="1">  1       21 0.38344139E-01 0.22563940E+02</pdfrwt>
<pdfrwt beam="2">  1       21 0.73562416E-03 0.22563940E+02</pdfrwt>
<totfact> 0.29988278E+07</totfact>
</mgrwt>
</event>
<event>
 4    1  0.2721071E+004  0.3182249E+02  0.7546771E-02  0.1578775E+00
         21   -1    0    0  501  502  0.00000000000E+00  0.00000000000E+00  0.42485001428E+01  0.42485001428E+01  0.00000000000E+00 0.  1.
         21   -1    0    0  502  503 -0.00000000000E+00 -0.00000000000E+00 -0.24141722547E+03  0.24141722547E+03  0.00000000000E+00 0. -1.
          2    1    1    2  501    0  0.30112915706E+02  0.10289952345E+02 -0.13240799921E+03  0.13617837224E+03  0.00000000000E+00 0.  1.
         -2    1    1    2    0  503 -0.30112915706E+02 -0.10289952345E+02 -0.10476072612E+03  0.10948735337E+03  0.00000000000E+00 0. -1.
<mgrwt>
<rscale>  2 0.31822489E+02</rscale>
<asrwt>0</asrwt>
<pdfrwt beam="1">  1       21 0.65361542E-03 0.31822489E+02</pdfrwt>
<pdfrwt beam="2">  1       21 0.37141111E-01 0.31822489E+02</pdfrwt>
<totfact> 0.40820060E+07</totfact>
</mgrwt>
</event>
<event>
 4    1  0.2721071E+004  0.3266808E+02  0.7546771E-02  0.1570340E+00
         21   -1    0    0  501  502  0.00000000000E+00  0.00000000000E+00  0.14840217638E+02  0.14840217638E+02  0.00000000000E+00 0. -1.
         21   -1    0    0  502  503 -0.00000000000E+00 -0.00000000000E+00 -0.10107534550E+03  0.10107534550E+03  0.00000000000E+00 0.  1.
          2    1    1    2  501    0  0.51260704373E+01  0.32263397082E+02 -0.11985998827E+02  0.34797522286E+02  0.00000000000E+00 0. -1.
         -2    1    1    2    0  503 -0.51260704373E+01 -0.32263397082E+02 -0.74249129038E+02  0.81118040855E+02  0.00000000000E+00 0.  1.
<mgrwt>
<rscale>  2 0.32668079E+02</rscale>
<asrwt>0</asrwt>
<pdfrwt beam="1">  1       21 0.22831103E-02 0.32668079E+02</pdfrwt>
<pdfrwt beam="2">  1       21 0.15550054E-01 0.32668079E+02</pdfrwt>
<totfact> 0.29157474E+07</totfact>
</mgrwt>
</event>
<event>
 4    1  0.2721071E+004  0.2053038E+02  0.7546771E-02  0.1734982E+00
         21   -1    0    0  501  502  0.00000000000E+00  0.00000000000E+00  0.14818540081E+02  0.14818540081E+02  0.00000000000E+00 0. -1.
         21   -1    0    0  502  503 -0.00000000000E+00 -0.00000000000E+00 -0.41966730246E+02  0.41966730246E+02  0.00000000000E+00 0.  1.
          2    1    1    2  501    0 -0.19366555916E+02 -0.68141731660E+01  0.25430314019E+01  0.20687277556E+02  0.00000000000E+00 0. -1.
         -2    1    1    2    0  503  0.19366555916E+02  0.68141731660E+01 -0.29691221567E+02  0.36097992771E+02  0.00000000000E+00 0.  1.
<mgrwt>
<rscale>  2 0.20530379E+02</rscale>
<asrwt>0</asrwt>
<pdfrwt beam="1">  1       21 0.22797754E-02 0.20530379E+02</pdfrwt>
<pdfrwt beam="2">  1       21 0.64564201E-02 0.20530379E+02</pdfrwt>
<totfact> 0.11258805E+08</totfact>
</mgrwt>
</event>
<event>
 4    1  0.2721071E+004  0.2257291E+02  0.7546771E-02  0.1698528E+00
         21   -1    0    0  501  502  0.00000000000E+00  0.00000000000E+00  0.41101192489E+02  0.41101192489E+02  0.00000000000E+00 0. -1.
         21   -1    0    0  502  503 -0.00000000000E+00 -0.00000000000E+00 -0.14794430932E+02  0.14794430932E+02  0.00000000000E+00 0.  1.
          2    1    1    2  501    0 -0.96707263034E+01 -0.20396408143E+02  0.24403596913E+02  0.33242622560E+02  0.00000000000E+00 0. -1.
         -2    1    1    2    0  503  0.96707263034E+01  0.20396408143E+02  0.19031646439E+01  0.22653000862E+02  0.00000000000E+00 0.  1.
<mgrwt>
<rscale>  2 0.22572913E+02</rscale>
<asrwt>0</asrwt>
<pdfrwt beam="1">  1       21 0.63232603E-02 0.22572913E+02</pdfrwt>
<pdfrwt beam="2">  1       21 0.22760663E-02 0.22572913E+02</pdfrwt>
<totfact> 0.12005411E+08</totfact>
</mgrwt>
</event>
<event>
 4    1  0.2721071E+004  0.2379065E+02  0.7546771E-02  0.1679005E+00
         21   -1    0    0  503  502  0.00000000000E+00  0.00000000000E+00  0.69281298306E+01  0.69281298306E+01  0.00000000000E+00 0. -1.
         21   -1    0    0  501  503 -0.00000000000E+00 -0.00000000000E+00 -0.51177455973E+03  0.51177455973E+03  0.00000000000E+00 0.  1.
          2    1    1    2  501    0 -0.22307577824E+02  0.82684392700E+01 -0.49017481360E+03  0.49075181406E+03  0.00000000000E+00 0.  1.
         -2    1    1    2    0  502  0.22307577824E+02 -0.82684392700E+01 -0.14671616299E+02  0.27950875500E+02  0.00000000000E+00 0. -1.
<mgrwt>
<rscale>  2 0.23790652E+02</rscale>
<asrwt>0</asrwt>
<pdfrwt beam="1">  1       21 0.10658662E-02 0.23790652E+02</pdfrwt>
<pdfrwt beam="2">  1       21 0.78734544E-01 0.23790652E+02</pdfrwt>
<totfact> 0.41933475E+06</totfact>
</mgrwt>
</event>
<event>
 4    1  0.2721071E+004  0.2188270E+02  0.7546771E-02  0.1710289E+00
         21   -1    0    0  503  502  0.00000000000E+00  0.00000000000E+00  0.57809035715E+00  0.57809035715E+00  0.00000000000E+00 0.  1.
         21   -1    0    0  501  503 -0.00000000000E+00 -0.00000000000E+00 -0.13611613602E+04  0.13611613602E+04  0.00000000000E+00 0. -1.
          2    1    1    2  501    0  0.52401035263E+01  0.21246029381E+02 -0.11062842669E+04  0.11065006695E+04  0.00000000000E+00 0. -1.
         -2    1    1    2    0  502 -0.52401035263E+01 -0.21246029381E+02 -0.25429900290E+03  0.25523878099E+03  0.00000000000E+00 0.  1.
<mgrwt>
<rscale>  2 0.21882697E+02</rscale>
<asrwt>0</asrwt>
<pdfrwt beam="1">  1       21 0.88936569E-04 0.21882697E+02</pdfrwt>
<pdfrwt beam="2">  1       21 0.20941040E+00 0.21882697E+02</pdfrwt>
<totfact> 0.16194105E+07</totfact>
</mgrwt>
</event>
<event>
 4    1  0.2721071E+004  0.3040452E+02  0.7546771E-02  0.1593660E+00
         21   -1    0    0  501  502  0.00000000000E+00  0.00000000000E+00  0.29809836502E+03  0.29809836502E+03  0.00000000000E+00 0.  1.
         21   -1    0    0  502  503 -0.00000000000E+00 -0.00000000000E+00 -0.36969227862E+01  0.36969227862E+01  0.00000000000E+00 0. -1.
          2    1    1    2  501    0 -0.29923327708E+02 -0.53879121868E+01  0.20777915089E+03  0.20999193004E+03  0.00000000000E+00 0.  1.
         -2    1    1    2    0  503  0.29923327708E+02  0.53879121868E+01  0.86622291343E+02  0.91803357762E+02  0.00000000000E+00 0. -1.
<mgrwt>
<rscale>  2 0.30404525E+02</rscale>
<asrwt>0</asrwt>
<pdfrwt beam="1">  1       21 0.45861268E-01 0.30404525E+02</pdfrwt>
<pdfrwt beam="2">  1       21 0.56875759E-03 0.30404525E+02</pdfrwt>
<totfact> 0.33266855E+07</totfact>
</mgrwt>
</event>
<event>
 4    1  0.2721071E+004  0.2068297E+02  0.7546771E-02  0.1732078E+00
         21   -1    0    0  501  502  0.00000000000E+00  0.00000000000E+00  0.87137517708E+01  0.87137517708E+01  0.00000000000E+00 0.  1.
         21   -1    0    0  502  503 -0.00000000000E+00 -0.00000000000E+00 -0.85804981752E+02  0.85804981752E+02  0.00000000000E+00 0. -1.
          2    1    1    2  501    0 -0.12121199983E+02  0.16758932938E+02 -0.76330665602E+01  0.22046519620E+02  0.00000000000E+00 0.  1.
         -2    1    1    2    0  503  0.12121199983E+02 -0.16758932938E+02 -0.69458163421E+02  0.72472213904E+02  0.00000000000E+00 0. -1.
<mgrwt>
<rscale>  2 0.20682972E+02</rscale>
<asrwt>0</asrwt>
<pdfrwt beam="1">  1       21 0.13405772E-02 0.20682972E+02</pdfrwt>
<pdfrwt beam="2">  1       21 0.13200767E-01 0.20682972E+02</pdfrwt>
<totfact> 0.78356371E+07</totfact>
</mgrwt>
</event>
<event>
 4    1  0.2721071E+004  0.2015513E+02  0.7546771E-02  0.1742261E+00
         21   -1    0    0  503  502  0.00000000000E+00  0.00000000000E+00  0.57161909235E+01  0.57161909235E+01  0.00000000000E+00 0.  1.
         21   -1    0    0  501  503 -0.00000000000E+00 -0.00000000000E+00 -0.95590021512E+02  0.95590021512E+02  0.00000000000E+00 0. -1.
          2    1    1    2  501    0  0.18552841168E+02  0.78753541688E+01 -0.70593101161E+02  0.73413997645E+02  0.00000000000E+00 0. -1.
         -2    1    1    2    0  502 -0.18552841168E+02 -0.78753541688E+01 -0.19280729428E+02  0.27892214791E+02  0.00000000000E+00 0.  1.
<mgrwt>
<rscale>  2 0.20155126E+02</rscale>
<asrwt>0</asrwt>
<pdfrwt beam="1">  1       21 0.87941396E-03 0.20155126E+02</pdfrwt>
<pdfrwt beam="2">  1       21 0.14706158E-01 0.20155126E+02</pdfrwt>
<totfact> 0.12197543E+08</totfact>
</mgrwt>
</event>
<event>
 4    1  0.2721071E+004  0.5292234E+02  0.7546771E-02  0.1430188E+00
         21   -1    0    0  501  502  0.00000000000E+00  0.00000000000E+00  0.51826754305E+03  0.51826754305E+03  0.00000000000E+00 0. -1.
         21   -1    0    0  502  503 -0.00000000000E+00 -0.00000000000E+00 -0.38719759942E+02  0.38719759942E+02  0.00000000000E+00 0.  1.
          2    1    1    2  501    0  0.48670080158E+02 -0.20784537056E+02  0.49810287250E+03  0.50090642367E+03  0.00000000000E+00 0. -1.
         -2    1    1    2    0  503 -0.48670080158E+02  0.20784537056E+02 -0.18555089390E+02  0.56080879321E+02  0.00000000000E+00 0.  1.
<mgrwt>
<rscale>  2 0.52922336E+02</rscale>
<asrwt>0</asrwt>
<pdfrwt beam="1">  1       21 0.79733464E-01 0.52922336E+02</pdfrwt>
<pdfrwt beam="2">  1       21 0.59568865E-02 0.52922336E+02</pdfrwt>
<totfact> 0.28576325E+05</totfact>
</mgrwt>
</event>
<event>
 4    1  0.2721071E+004  0.3961890E+02  0.7546771E-02  0.1511035E+00
         21   -1    0    0  501  502  0.00000000000E+00  0.00000000000E+00  0.54717986603E+02  0.54717986603E+02  0.00000000000E+00 0.  1.
         21   -1    0    0  502  503 -0.00000000000E+00 -0.00000000000E+00 -0.31371643613E+02  0.31371643613E+02  0.00000000000E+00 0. -1.
          2    1    1    2  501    0 -0.27190798315E+01  0.39525484624E+02  0.24266804507E+02  0.46460037999E+02  0.00000000000E+00 0. -1.
         -2    1    1    2    0  503  0.27190798315E+01 -0.39525484624E+02 -0.92046151704E+00  0.39629592217E+02  0.00000000000E+00 0.  1.
<mgrwt>
<rscale>  2 0.39618901E+02</rscale>
<asrwt>0</asrwt>
<pdfrwt beam="1">  1       21 0.84181518E-02 0.39618901E+02</pdfrwt>
<pdfrwt beam="2">  1       21 0.48264067E-02 0.39618901E+02</pdfrwt>
<totfact> 0.26061819E+07</totfact>
</mgrwt>
</event>
<event>
 4    1  0.2721071E+004  0.2287959E+02  0.7546771E-02  0.1693469E+00
         21   -1    0    0  503  502  0.00000000000E+00  0.00000000000E+00  0.23163864478E+02  0.23163864478E+02  0.00000000000E+00 0. -1.
         21   -1    0    0  501  503 -0.00000000000E+00 -0.00000000000E+00 -0.30373257386E+02  0.30373257386E+02  0.00000000000E+00 0.  1.
          2    1    1    2  501    0 -0.20742897811E+02 -0.96544202764E+01 -0.17147677241E+02  0.28592279993E+02  0.00000000000E+00 0.  1.
         -2    1    1    2    0  502  0.20742897811E+02  0.96544202764E+01  0.99382843333E+01  0.24944841871E+02  0.00000000000E+00 0. -1.
<mgrwt>
<rscale>  2 0.22879590E+02</rscale>
<asrwt>0</asrwt>
<pdfrwt beam="1">  1       21 0.35636715E-02 0.22879590E+02</pdfrwt>
<pdfrwt beam="2">  1       21 0.46728088E-02 0.22879590E+02</pdfrwt>
<totfact> 0.97379044E+07</totfact>
</mgrwt>
</event>
<event>
 4    1  0.2721071E+004  0.2034107E+02  0.7546771E-02  0.1738629E+00
         21   -1    0    0  503  502  0.00000000000E+00  0.00000000000E+00  0.27869871309E+00  0.27869871309E+00  0.00000000000E+00 0.  1.
         21   -1    0    0  501  503 -0.00000000000E+00 -0.00000000000E+00 -0.15208985767E+04  0.15208985767E+04  0.00000000000E+00 0. -1.
          2    1    1    2  501    0  0.26925093482E+01  0.20162084832E+02 -0.64282650735E+03  0.64314825493E+03  0.00000000000E+00 0.  1.
         -2    1    1    2    0  502 -0.26925093482E+01 -0.20162084832E+02 -0.87779337060E+03  0.87802902045E+03  0.00000000000E+00 0. -1.
<mgrwt>
<rscale>  2 0.20341074E+02</rscale>
<asrwt>0</asrwt>
<pdfrwt beam="1">  1       21 0.42876260E-04 0.20341074E+02</pdfrwt>
<pdfrwt beam="2">  1       21 0.23398694E+00 0.20341074E+02</pdfrwt>
<totfact> 0.33354420E+07</totfact>
</mgrwt>
</event>
<event>
 4    1  0.2721071E+004  0.3290354E+02  0.7546771E-02  0.1568047E+00
         21   -1    0    0  503  502  0.00000000000E+00  0.00000000000E+00  0.11224379795E+03  0.11224379795E+03  0.00000000000E+00 0. -1.
         21   -1    0    0  501  503 -0.00000000000E+00 -0.00000000000E+00 -0.16619774730E+02  0.16619774730E+02  0.00000000000E+00 0.  1.
          2    1    1    2  501    0 -0.10625857067E+02  0.31140554244E+02  0.60733608385E+01  0.33459358465E+02  0.00000000000E+00 0.  1.
         -2    1    1    2    0  502  0.10625857067E+02 -0.31140554244E+02  0.89550662381E+02  0.95404214215E+02  0.00000000000E+00 0. -1.
<mgrwt>
<rscale>  2 0.32903540E+02</rscale>
<asrwt>0</asrwt>
<pdfrwt beam="1">  1       21 0.17268276E-01 0.32903540E+02</pdfrwt>
<pdfrwt beam="2">  1       21 0.25568885E-02 0.32903540E+02</pdfrwt>
<totfact> 0.20380608E+07</totfact>
</mgrwt>
</event>
<event>
 4    1  0.2721071E+004  0.2129658E+02  0.7546771E-02  0.1720709E+00
         21   -1    0    0  503  502  0.00000000000E+00  0.00000000000E+00  0.39984451364E+03  0.39984451364E+03  0.00000000000E+00 0. -1.
         21   -1    0    0  501  503 -0.00000000000E+00 -0.00000000000E+00 -0.32951139208E+02  0.32951139208E+02  0.00000000000E+00 0.  1.
          2    1    1    2  501    0 -0.13081671981E+02  0.16805183590E+02 -0.29193909265E+02  0.36136251542E+02  0.00000000000E+00 0.  1.
         -2    1    1    2    0  502  0.13081671981E+02 -0.16805183590E+02  0.39608728370E+03  0.39665940131E+03  0.00000000000E+00 0. -1.
<mgrwt>
<rscale>  2 0.21296580E+02</rscale>
<asrwt>0</asrwt>
<pdfrwt beam="1">  1       21 0.61514537E-01 0.21296580E+02</pdfrwt>
<pdfrwt beam="2">  1       21 0.50694063E-02 0.21296580E+02</pdfrwt>
<totfact> 0.61880435E+05</totfact>
</mgrwt>
</event>
<event>
 4    1  0.2721071E+004  0.3736842E+02  0.7546771E-02  0.1528521E+00
         21   -1    0    0  503  502  0.00000000000E+00  0.00000000000E+00  0.15394051027E+02  0.15394051027E+02  0.00000000000E+00 0.  1.
         21   -1    0    0  501  503 -0.00000000000E+00 -0.00000000000E+00 -0.17416703605E+03  0.17416703605E+03  0.00000000000E+00 0. -1.
          2    1    1    2  501    0  0.20423819359E+02 -0.31293233599E+02 -0.14499602341E+03  0.14973391623E+03  0.00000000000E+00 0. -1.
         -2    1    1    2    0  502 -0.20423819359E+02  0.31293233599E+02 -0.13776961620E+02  0.39827170848E+02  0.00000000000E+00 0.  1.
<mgrwt>
<rscale>  2 0.37368421E+02</rscale>
<asrwt>0</asrwt>
<pdfrwt beam="1">  1       21 0.23683155E-02 0.37368421E+02</pdfrwt>
<pdfrwt beam="2">  1       21 0.26794929E-01 0.37368421E+02</pdfrwt>
<totfact> 0.10693406E+07</totfact>
</mgrwt>
</event>
<event>
 4    1  0.2721071E+004  0.2193263E+02  0.7546771E-02  0.1709420E+00
         21   -1    0    0  503  502  0.00000000000E+00  0.00000000000E+00  0.42100840458E+02  0.42100840458E+02  0.00000000000E+00 0. -1.
         21   -1    0    0  501  503 -0.00000000000E+00 -0.00000000000E+00 -0.99510938576E+02  0.99510938576E+02  0.00000000000E+00 0.  1.
          2    1    1    2  501    0 -0.21889581382E+02  0.13734281641E+01 -0.95322044509E+02  0.97812740721E+02  0.00000000000E+00 0.  1.
         -2    1    1    2    0  502  0.21889581382E+02 -0.13734281641E+01  0.37911946391E+02  0.43799038313E+02  0.00000000000E+00 0. -1.
<mgrwt>
<rscale>  2 0.21932626E+02</rscale>
<asrwt>0</asrwt>
<pdfrwt beam="1">  1       21 0.64770525E-02 0.21932626E+02</pdfrwt>
<pdfrwt beam="2">  1       21 0.15309375E-01 0.21932626E+02</pdfrwt>
<totfact> 0.53450543E+06</totfact>
</mgrwt>
</event>
<event>
 4    1  0.2721071E+004  0.3142177E+02  0.7546771E-02  0.1582884E+00
         21   -1    0    0  501  502  0.00000000000E+00  0.00000000000E+00  0.75130269113E+01  0.75130269113E+01  0.00000000000E+00 0.  1.
         21   -1    0    0  502  503 -0.00000000000E+00 -0.00000000000E+00 -0.21753957055E+03  0.21753957055E+03  0.00000000000E+00 0. -1.
          2    1    1    2  501    0  0.17395462128E+02  0.26167255778E+02 -0.34210958651E+02  0.46451233239E+02  0.00000000000E+00 0.  1.
         -2    1    1    2    0  503 -0.17395462128E+02 -0.26167255778E+02 -0.17581558499E+03  0.17860136422E+03  0.00000000000E+00 0. -1.
<mgrwt>
<rscale>  2 0.31421766E+02</rscale>
<asrwt>0</asrwt>
<pdfrwt beam="1">  1       21 0.11558502E-02 0.31421766E+02</pdfrwt>
<pdfrwt beam="2">  1       21 0.33467630E-01 0.31421766E+02</pdfrwt>
<totfact> 0.20913508E+07</totfact>
</mgrwt>
</event>
<event>
 4    1  0.2721071E+004  0.2053259E+02  0.7546771E-02  0.1734940E+00
         21   -1    0    0  501  502  0.00000000000E+00  0.00000000000E+00  0.32906730808E+01  0.32906730808E+01  0.00000000000E+00 0.  1.
         21   -1    0    0  502  503 -0.00000000000E+00 -0.00000000000E+00 -0.18496919523E+03  0.18496919523E+03  0.00000000000E+00 0. -1.
          2    1    1    2  501    0  0.12084810219E+02 -0.16599535095E+02 -0.38652989893E+02  0.43768034353E+02  0.00000000000E+00 0. -1.
         -2    1    1    2    0  503 -0.12084810219E+02  0.16599535095E+02 -0.14302553225E+03  0.14449183396E+03  0.00000000000E+00 0.  1.
<mgrwt>
<rscale>  2 0.20532589E+02</rscale>
<asrwt>0</asrwt>
<pdfrwt beam="1">  1       21 0.50625726E-03 0.20532589E+02</pdfrwt>
<pdfrwt beam="2">  1       21 0.28456807E-01 0.20532589E+02</pdfrwt>
<totfact> 0.87963649E+07</totfact>
</mgrwt>
</event>
<event>
 4    1  0.2721071E+004  0.2506668E+02  0.7546771E-02  0.1660046E+00
         21   -1    0    0  503  502  0.00000000000E+00  0.00000000000E+00  0.71975451028E+02  0.71975451028E+02  0.00000000000E+00 0. -1.
         21   -1    0    0  501  503 -0.00000000000E+00 -0.00000000000E+00 -0.93255574775E+01  0.93255574775E+01  0.00000000000E+00 0.  1.
          2    1    1    2  501    0  0.10393005694E+02 -0.22810606902E+02  0.21051231631E+02  0.32733663220E+02  0.00000000000E+00 0.  1.
         -2    1    1    2    0  502 -0.10393005694E+02  0.22810606902E+02  0.41598661919E+02  0.48567345286E+02  0.00000000000E+00 0. -1.
<mgrwt>
<rscale>  2 0.25066678E+02</rscale>
<asrwt>0</asrwt>
<pdfrwt beam="1">  1       21 0.11073146E-01 0.25066678E+02</pdfrwt>
<pdfrwt beam="2">  1       21 0.14347012E-02 0.25066678E+02</pdfrwt>
<totfact> 0.10008109E+08</totfact>
</mgrwt>
</event>
<event>
 4    1  0.2721071E+004  0.2007862E+02  0.7546771E-02  0.1743769E+00
         21   -1    0    0  501  502  0.00000000000E+00  0.00000000000E+00  0.37622354154E+02  0.37622354154E+02  0.00000000000E+00 0. -1.
         21   -1    0    0  502  503 -0.00000000000E+00 -0.00000000000E+00 -0.10806281837E+02  0.10806281837E+02  0.00000000000E+00 0.  1.
          2    1    1    2  501    0  0.10510336170E+02 -0.17108006568E+02  0.15624591185E+02  0.25441676534E+02  0.00000000000E+00 0. -1.
         -2    1    1    2    0  503 -0.10510336170E+02  0.17108006568E+02  0.11191481132E+02  0.22986959457E+02  0.00000000000E+00 0.  1.
<mgrwt>
<rscale>  2 0.20078622E+02</rscale>
<asrwt>0</asrwt>
<pdfrwt beam="1">  1       21 0.57880544E-02 0.20078622E+02</pdfrwt>
<pdfrwt beam="2">  1       21 0.16625049E-02 0.20078622E+02</pdfrwt>
<totfact> 0.21555011E+08</totfact>
</mgrwt>
</event>
<event>
 4    1  0.2721071E+004  0.2054020E+02  0.7546771E-02  0.1734794E+00
         21   -1    0    0  503  502  0.00000000000E+00  0.00000000000E+00  0.82784193337E+00  0.82784193337E+00  0.00000000000E+00 0. -1.
         21   -1    0    0  501  503 -0.00000000000E+00 -0.00000000000E+00 -0.64317643208E+03  0.64317643208E+03  0.00000000000E+00 0.  1.
          2    1    1    2  501    0 -0.49332252311E+01 -0.19938981626E+02 -0.46789683770E+03  0.46834746762E+03  0.00000000000E+00 0. -1.
         -2    1    1    2    0  502  0.49332252311E+01  0.19938981626E+02 -0.17445175244E+03  0.17565680639E+03  0.00000000000E+00 0.  1.
<mgrwt>
<rscale>  2 0.20540197E+02</rscale>
<asrwt>0</asrwt>
<pdfrwt beam="1">  1       21 0.12736011E-03 0.20540197E+02</pdfrwt>
<pdfrwt beam="2">  1       21 0.98950364E-01 0.20540197E+02</pdfrwt>
<totfact> 0.56124947E+07</totfact>
</mgrwt>
</event>
<event>
 4    1  0.2721071E+004  0.2283774E+02  0.7546771E-02  0.1694154E+00
         21   -1    0    0  503  502  0.00000000000E+00  0.00000000000E+00  0.21795450187E+01  0.21795450187E+01  0.00000000000E+00 0.  1.
         21   -1    0    0  501  503 -0.00000000000E+00 -0.00000000000E+00 -0.31414611210E+03  0.31414611210E+03  0.00000000000E+00 0. -1.
          2    1    1    2  501    0  0.19793317461E+02  0.11392414888E+02 -0.23318494536E+03  0.23430062158E+03  0.00000000000E+00 0. -1.
         -2    1    1    2    0  502 -0.19793317461E+02 -0.11392414888E+02 -0.78781621724E+02  0.82025035535E+02  0.00000000000E+00 0.  1.
<mgrwt>
<rscale>  2 0.22837744E+02</rscale>
<asrwt>0</asrwt>
<pdfrwt beam="1">  1       21 0.33531461E-03 0.22837744E+02</pdfrwt>
<pdfrwt beam="2">  1       21 0.48330172E-01 0.22837744E+02</pdfrwt>
<totfact> 0.61652624E+07</totfact>
</mgrwt>
</event>
<event>
 4    1  0.2721071E+004  0.3763483E+02  0.7546771E-02  0.1526375E+00
         21   -1    0    0  501  502  0.00000000000E+00  0.00000000000E+00  0.72362748337E+03  0.72362748337E+03  0.00000000000E+00 0. -1.
         21   -1    0    0  502  503 -0.00000000000E+00 -0.00000000000E+00 -0.59063588593E+01  0.59063588593E+01  0.00000000000E+00 0.  1.
          2    1    1    2  501    0  0.36328025603E+01  0.37459082202E+02  0.65712433735E+03  0.65820116593E+03  0.00000000000E+00 0.  1.
         -2    1    1    2    0  503 -0.36328025603E+01 -0.37459082202E+02  0.60596787163E+02  0.71332676302E+02  0.00000000000E+00 0. -1.
<mgrwt>
<rscale>  2 0.37634826E+02</rscale>
<asrwt>0</asrwt>
<pdfrwt beam="1">  1       21 0.11132723E+00 0.37634826E+02</pdfrwt>
<pdfrwt beam="2">  1       21 0.90867117E-03 0.37634826E+02</pdfrwt>
<totfact> 0.26261466E+06</totfact>
</mgrwt>
</event>
<event>
 4    1  0.2721071E+004  0.2486979E+02  0.7546771E-02  0.1662879E+00
         21   -1    0    0  503  502  0.00000000000E+00  0.00000000000E+00  0.11348672500E+02  0.11348672500E+02  0.00000000000E+00 0. -1.
         21   -1    0    0  501  503 -0.00000000000E+00 -0.00000000000E+00 -0.98029564083E+02  0.98029564083E+02  0.00000000000E+00 0.  1.
          2    1    1    2  501    0 -0.22638546378E+02 -0.10295771142E+02 -0.79783332558E+02  0.83569652624E+02  0.00000000000E+00 0.  1.
         -2    1    1    2    0  502  0.22638546378E+02  0.10295771142E+02 -0.68975590244E+01  0.25808583960E+02  0.00000000000E+00 0. -1.
<mgrwt>
<rscale>  2 0.24869795E+02</rscale>
<asrwt>0</asrwt>
<pdfrwt beam="1">  1       21 0.17459496E-02 0.24869795E+02</pdfrwt>
<pdfrwt beam="2">  1       21 0.15081472E-01 0.24869795E+02</pdfrwt>
<totfact> 0.43913581E+07</totfact>
</mgrwt>
</event>
<event>
 4    1  0.2721071E+004  0.2402135E+02  0.7546771E-02  0.1675470E+00
         21   -1    0    0  503  502  0.00000000000E+00  0.00000000000E+00  0.11270311639E+02  0.11270311639E+02  0.00000000000E+00 0.  1.
         21   -1    0    0  501  503 -0.00000000000E+00 -0.00000000000E+00 -0.30866149885E+03  0.30866149885E+03  0.00000000000E+00 0. -1.
          2    1    1    2  501    0  0.34672461622E+00  0.24018842807E+02 -0.29479332135E+03  0.29577039632E+03  0.00000000000E+00 0. -1.
         -2    1    1    2    0  502 -0.34672461622E+00 -0.24018842807E+02 -0.25978658660E+01  0.24161414172E+02  0.00000000000E+00 0.  1.
<mgrwt>
<rscale>  2 0.24021345E+02</rscale>
<asrwt>0</asrwt>
<pdfrwt beam="1">  1       21 0.17338945E-02 0.24021345E+02</pdfrwt>
<pdfrwt beam="2">  1       21 0.47486373E-01 0.24021345E+02</pdfrwt>
<totfact> 0.55452737E+06</totfact>
</mgrwt>
</event>
<event>
 4    1  0.2721071E+004  0.2406768E+02  0.7546771E-02  0.1674766E+00
         21   -1    0    0  503  502  0.00000000000E+00  0.00000000000E+00  0.19119017694E+01  0.19119017694E+01  0.00000000000E+00 0.  1.
         21   -1    0    0  501  503 -0.00000000000E+00 -0.00000000000E+00 -0.31266882826E+03  0.31266882826E+03  0.00000000000E+00 0. -1.
          2    1    1    2  501    0 -0.24066671694E+02 -0.22056058829E+00 -0.18307766756E+03  0.18465287892E+03  0.00000000000E+00 0. -1.
         -2    1    1    2    0  502  0.24066671694E+02  0.22056058829E+00 -0.12767925893E+03  0.12992785111E+03  0.00000000000E+00 0.  1.
<mgrwt>
<rscale>  2 0.24067682E+02</rscale>
<asrwt>0</asrwt>
<pdfrwt beam="1">  1       21 0.29413900E-03 0.24067682E+02</pdfrwt>
<pdfrwt beam="2">  1       21 0.48102854E-01 0.24067682E+02</pdfrwt>
<totfact> 0.76305860E+07</totfact>
</mgrwt>
</event>
<event>
 4    1  0.2721071E+004  0.4952363E+02  0.7546771E-02  0.1447928E+00
         21   -1    0    0  501  502  0.00000000000E+00  0.00000000000E+00  0.17872316213E+03  0.17872316213E+03  0.00000000000E+00 0.  1.
         21   -1    0    0  502  503 -0.00000000000E+00 -0.00000000000E+00 -0.17974327588E+02  0.17974327588E+02  0.00000000000E+00 0. -1.
          2    1    1    2  501    0 -0.23419707198E+02 -0.43636073568E+02  0.12820579425E+03  0.13743840541E+03  0.00000000000E+00 0.  1.
         -2    1    1    2    0  503  0.23419707198E+02  0.43636073568E+02  0.32543040287E+02  0.59259084306E+02  0.00000000000E+00 0. -1.
<mgrwt>
<rscale>  2 0.49523627E+02</rscale>
<asrwt>0</asrwt>
<pdfrwt beam="1">  1       21 0.27495870E-01 0.49523627E+02</pdfrwt>
<pdfrwt beam="2">  1       21 0.27652813E-02 0.49523627E+02</pdfrwt>
<totfact> 0.82653246E+06</totfact>
</mgrwt>
</event>
<event>
 4    1  0.2721071E+004  0.2100770E+02  0.7546771E-02  0.1726001E+00
         21   -1    0    0  503  502  0.00000000000E+00  0.00000000000E+00  0.45961996828E+01  0.45961996828E+01  0.00000000000E+00 0. -1.
         21   -1    0    0  501  503 -0.00000000000E+00 -0.00000000000E+00 -0.10284937461E+03  0.10284937461E+03  0.00000000000E+00 0.  1.
          2    1    1    2  501    0  0.20701627735E+02  0.35729449541E+01 -0.62970990515E+02  0.66382746049E+02  0.00000000000E+00 0.  1.
         -2    1    1    2    0  502 -0.20701627735E+02 -0.35729449541E+01 -0.35282184412E+02  0.41062828244E+02  0.00000000000E+00 0. -1.
<mgrwt>
<rscale>  2 0.21007697E+02</rscale>
<asrwt>0</asrwt>
<pdfrwt beam="1">  1       21 0.70710766E-03 0.21007697E+02</pdfrwt>
<pdfrwt beam="2">  1       21 0.15822980E-01 0.21007697E+02</pdfrwt>
<totfact> 0.15083671E+08</totfact>
</mgrwt>
</event>
<event>
 4    1  0.2721071E+004  0.3105851E+02  0.7546771E-02  0.1586675E+00
         21   -1    0    0  503  502  0.00000000000E+00  0.00000000000E+00  0.71345536139E+01  0.71345536139E+01  0.00000000000E+00 0.  1.
         21   -1    0    0  501  503 -0.00000000000E+00 -0.00000000000E+00 -0.13547689335E+03  0.13547689335E+03  0.00000000000E+00 0. -1.
          2    1    1    2  501    0  0.55393377216E+01 -0.30560541488E+02 -0.67362586804E+02  0.74177820536E+02  0.00000000000E+00 0. -1.
         -2    1    1    2    0  502 -0.55393377216E+01  0.30560541488E+02 -0.60979752928E+02  0.68433626425E+02  0.00000000000E+00 0.  1.
<mgrwt>
<rscale>  2 0.31058509E+02</rscale>
<asrwt>0</asrwt>
<pdfrwt beam="1">  1       21 0.10976236E-02 0.31058509E+02</pdfrwt>
<pdfrwt beam="2">  1       21 0.20842599E-01 0.31058509E+02</pdfrwt>
<totfact> 0.53385721E+07</totfact>
</mgrwt>
</event>
<event>
 4    1  0.2721071E+004  0.2562350E+02  0.7546771E-02  0.1652205E+00
         21   -1    0    0  503  502  0.00000000000E+00  0.00000000000E+00  0.26360008959E+01  0.26360008959E+01  0.00000000000E+00 0. -1.
         21   -1    0    0  501  503 -0.00000000000E+00 -0.00000000000E+00 -0.24907721155E+03  0.24907721155E+03  0.00000000000E+00 0.  1.
          2    1    1    2  501    0  0.11699601429E+02 -0.22796556051E+02 -0.12290566214E+03  0.12554825936E+03  0.00000000000E+00 0.  1.
         -2    1    1    2    0  502 -0.11699601429E+02  0.22796556051E+02 -0.12353554851E+03  0.12616495309E+03  0.00000000000E+00 0. -1.
<mgrwt>
<rscale>  2 0.25623498E+02</rscale>
<asrwt>0</asrwt>
<pdfrwt beam="1">  1       21 0.40553857E-03 0.25623498E+02</pdfrwt>
<pdfrwt beam="2">  1       21 0.38319574E-01 0.25623498E+02</pdfrwt>
<totfact> 0.74671313E+07</totfact>
</mgrwt>
</event>
<event>
 4    1  0.2721071E+004  0.2045528E+02  0.7546771E-02  0.1736423E+00
         21   -1    0    0  503  502  0.00000000000E+00  0.00000000000E+00  0.10045570794E+03  0.10045570794E+03  0.00000000000E+00 0. -1.
         21   -1    0    0  501  503 -0.00000000000E+00 -0.00000000000E+00 -0.69136931132E+01  0.69136931132E+01  0.00000000000E+00 0.  1.
          2    1    1    2  501    0 -0.43666566517E+01  0.19983758573E+02  0.12922254789E+02  0.24195102105E+02  0.00000000000E+00 0.  1.
         -2    1    1    2    0  502  0.43666566517E+01 -0.19983758573E+02  0.80619760037E+02  0.83174298947E+02  0.00000000000E+00 0. -1.
<mgrwt>
<rscale>  2 0.20455276E+02</rscale>
<asrwt>0</asrwt>
<pdfrwt beam="1">  1       21 0.15454723E-01 0.20455276E+02</pdfrwt>
<pdfrwt beam="2">  1       21 0.10636452E-02 0.20455276E+02</pdfrwt>
<totfact> 0.84769535E+07</totfact>
</mgrwt>
</event>
<event>
 4    1  0.2721071E+004  0.2131268E+02  0.7546771E-02  0.1720417E+00
         21   -1    0    0  503  502  0.00000000000E+00  0.00000000000E+00  0.16991938934E+04  0.16991938934E+04  0.00000000000E+00 0.  1.
         21   -1    0    0  501  503 -0.00000000000E+00 -0.00000000000E+00 -0.29614112731E+00  0.29614112731E+00  0.00000000000E+00 0. -1.
          2    1    1    2  501    0 -0.21312606795E+02 -0.57259002610E-01  0.58436336765E+03  0.58475189264E+03  0.00000000000E+00 0. -1.
         -2    1    1    2    0  502  0.21312606795E+02  0.57259002610E-01  0.11145343846E+04  0.11147381419E+04  0.00000000000E+00 0.  1.
<mgrwt>
<rscale>  2 0.21312684E+02</rscale>
<asrwt>0</asrwt>
<pdfrwt beam="1">  1       21 0.26140664E+00 0.21312684E+02</pdfrwt>
<pdfrwt beam="2">  1       21 0.45561534E-04 0.21312684E+02</pdfrwt>
<totfact> 0.22565234E+07</totfact>
</mgrwt>
</event>
<event>
 4    1  0.2721071E+004  0.2976300E+02  0.7546771E-02  0.1600723E+00
         21   -1    0    0  501  502  0.00000000000E+00  0.00000000000E+00  0.77455912712E+01  0.77455912712E+01  0.00000000000E+00 0.  1.
         21   -1    0    0  502  503 -0.00000000000E+00 -0.00000000000E+00 -0.11784762304E+03  0.11784762304E+03  0.00000000000E+00 0. -1.
          2    1    1    2  501    0  0.16543681718E+02  0.24741521676E+02 -0.44258210109E+02  0.53335030343E+02  0.00000000000E+00 0.  1.
         -2    1    1    2    0  503 -0.16543681718E+02 -0.24741521676E+02 -0.65843821659E+02  0.72258183967E+02  0.00000000000E+00 0. -1.
<mgrwt>
<rscale>  2 0.29763002E+02</rscale>
<asrwt>0</asrwt>
<pdfrwt beam="1">  1       21 0.11916294E-02 0.29763002E+02</pdfrwt>
<pdfrwt beam="2">  1       21 0.18130403E-01 0.29763002E+02</pdfrwt>
<totfact> 0.59667815E+07</totfact>
</mgrwt>
</event>
<event>
 4    1  0.2721071E+004  0.3243786E+02  0.7546771E-02  0.1572606E+00
         21   -1    0    0  501  502  0.00000000000E+00  0.00000000000E+00  0.27287180565E+02  0.27287180565E+02  0.00000000000E+00 0.  1.
         21   -1    0    0  502  503 -0.00000000000E+00 -0.00000000000E+00 -0.42987430023E+02  0.42987430023E+02  0.00000000000E+00 0. -1.
          2    1    1    2  501    0  0.26426838629E+02  0.18810548885E+02  0.34253816527E+01  0.32618212531E+02  0.00000000000E+00 0.  1.
         -2    1    1    2    0  503 -0.26426838629E+02 -0.18810548885E+02 -0.19125631110E+02  0.37656398057E+02  0.00000000000E+00 0. -1.
<mgrwt>
<rscale>  2 0.32437857E+02</rscale>
<asrwt>0</asrwt>
<pdfrwt beam="1">  1       21 0.41980278E-02 0.32437857E+02</pdfrwt>
<pdfrwt beam="2">  1       21 0.66134508E-02 0.32437857E+02</pdfrwt>
<totfact> 0.46797846E+07</totfact>
</mgrwt>
</event>
<event>
 4    1  0.2721071E+004  0.2931700E+02  0.7546771E-02  0.1605763E+00
         21   -1    0    0  501  502  0.00000000000E+00  0.00000000000E+00  0.24313779474E+02  0.24313779474E+02  0.00000000000E+00 0. -1.
         21   -1    0    0  502  503 -0.00000000000E+00 -0.00000000000E+00 -0.79227396202E+02  0.79227396202E+02  0.00000000000E+00 0.  1.
          2    1    1    2  501    0  0.24314841662E+02  0.16379096296E+02  0.11070352456E+02  0.31337501879E+02  0.00000000000E+00 0. -1.
         -2    1    1    2    0  503 -0.24314841662E+02 -0.16379096296E+02 -0.65983969184E+02  0.72203673797E+02  0.00000000000E+00 0.  1.
<mgrwt>
<rscale>  2 0.29316997E+02</rscale>
<asrwt>0</asrwt>
<pdfrwt beam="1">  1       21 0.37405815E-02 0.29316997E+02</pdfrwt>
<pdfrwt beam="2">  1       21 0.12188830E-01 0.29316997E+02</pdfrwt>
<totfact> 0.19942448E+07</totfact>
</mgrwt>
</event>
<event>
 4    1  0.2721071E+004  0.2073856E+02  0.7546771E-02  0.1731028E+00
         21   -1    0    0  501  502  0.00000000000E+00  0.00000000000E+00  0.24536972310E+01  0.24536972310E+01  0.00000000000E+00 0.  1.
         21   -1    0    0  502  503 -0.00000000000E+00 -0.00000000000E+00 -0.17548566981E+03  0.17548566981E+03  0.00000000000E+00 0. -1.
          2    1    1    2  501    0 -0.12667461665E+02 -0.16420211070E+02 -0.83481839451E+02  0.86019215497E+02  0.00000000000E+00 0.  1.
         -2    1    1    2    0  503  0.12667461665E+02  0.16420211070E+02 -0.89550133128E+02  0.91920151544E+02  0.00000000000E+00 0. -1.
<mgrwt>
<rscale>  2 0.20738561E+02</rscale>
<asrwt>0</asrwt>
<pdfrwt beam="1">  1       21 0.37749176E-03 0.20738561E+02</pdfrwt>
<pdfrwt beam="2">  1       21 0.26997804E-01 0.20738561E+02</pdfrwt>
<totfact> 0.14901564E+08</totfact>
</mgrwt>
</event>
<event>
 4    1  0.2721071E+004  0.2933492E+02  0.7546771E-02  0.1605559E+00
         21   -1    0    0  503  502  0.00000000000E+00  0.00000000000E+00  0.45638833496E+02  0.45638833496E+02  0.00000000000E+00 0. -1.
         21   -1    0    0  501  503 -0.00000000000E+00 -0.00000000000E+00 -0.60984163594E+02  0.60984163594E+02  0.00000000000E+00 0.  1.
          2    1    1    2  501    0  0.74739441123E+01  0.28366841626E+02 -0.51982671655E+02  0.59688656349E+02  0.00000000000E+00 0.  1.
         -2    1    1    2    0  502 -0.74739441123E+01 -0.28366841626E+02  0.36637341556E+02  0.46934340741E+02  0.00000000000E+00 0. -1.
<mgrwt>
<rscale>  2 0.29334920E+02</rscale>
<asrwt>0</asrwt>
<pdfrwt beam="1">  1       21 0.70213590E-02 0.29334920E+02</pdfrwt>
<pdfrwt beam="2">  1       21 0.93821791E-02 0.29334920E+02</pdfrwt>
<totfact> 0.11230905E+07</totfact>
</mgrwt>
</event>
<event>
 4    1  0.2721071E+004  0.2334351E+02  0.7546771E-02  0.1686002E+00
         21   -1    0    0  503  502  0.00000000000E+00  0.00000000000E+00  0.93583508547E+00  0.93583508547E+00  0.00000000000E+00 0.  1.
         21   -1    0    0  501  503 -0.00000000000E+00 -0.00000000000E+00 -0.62484277616E+03  0.62484277616E+03  0.00000000000E+00 0. -1.
          2    1    1    2  501    0  0.22516931419E+02  0.61568714258E+01 -0.39361428462E+03  0.39430587660E+03  0.00000000000E+00 0. -1.
         -2    1    1    2    0  502 -0.22516931419E+02 -0.61568714258E+01 -0.23029265645E+03  0.23147273464E+03  0.00000000000E+00 0.  1.
<mgrwt>
<rscale>  2 0.23343506E+02</rscale>
<asrwt>0</asrwt>
<pdfrwt beam="1">  1       21 0.14397462E-03 0.23343506E+02</pdfrwt>
<pdfrwt beam="2">  1       21 0.96129667E-01 0.23343506E+02</pdfrwt>
<totfact> 0.51632319E+07</totfact>
</mgrwt>
</event>
<event>
 4    1  0.2721071E+004  0.2378988E+02  0.7546771E-02  0.1679017E+00
         21   -1    0    0  503  502  0.00000000000E+00  0.00000000000E+00  0.82823234270E+02  0.82823234270E+02  0.00000000000E+00 0.  1.
         21   -1    0    0  501  503 -0.00000000000E+00 -0.00000000000E+00 -0.20394690427E+02  0.20394690427E+02  0.00000000000E+00 0. -1.
          2    1    1    2  501    0  0.11993246617E+02 -0.20545564793E+02 -0.10869848501E+02  0.26155531031E+02  0.00000000000E+00 0. -1.
         -2    1    1    2    0  502 -0.11993246617E+02  0.20545564793E+02  0.73298392345E+02  0.77062393666E+02  0.00000000000E+00 0.  1.
<mgrwt>
<rscale>  2 0.23789876E+02</rscale>
<asrwt>0</asrwt>
<pdfrwt beam="1">  1       21 0.12742036E-01 0.23789876E+02</pdfrwt>
<pdfrwt beam="2">  1       21 0.31376447E-02 0.23789876E+02</pdfrwt>
<totfact> 0.23371898E+07</totfact>
</mgrwt>
</event>
<event>
 4    1  0.2721071E+004  0.2147340E+02  0.7546771E-02  0.1717522E+00
         21   -1    0    0  503  502  0.00000000000E+00  0.00000000000E+00  0.18495768058E+02  0.18495768058E+02  0.00000000000E+00 0. -1.
         21   -1    0    0  501  503 -0.00000000000E+00 -0.00000000000E+00 -0.31437833489E+02  0.31437833489E+02  0.00000000000E+00 0.  1.
          2    1    1    2  501    0 -0.21211947008E+02 -0.33407119148E+01 -0.17830060939E+02  0.27910896171E+02  0.00000000000E+00 0.  1.
         -2    1    1    2    0  502  0.21211947008E+02  0.33407119148E+01  0.48879955084E+01  0.22022705376E+02  0.00000000000E+00 0. -1.
<mgrwt>
<rscale>  2 0.21473403E+02</rscale>
<asrwt>0</asrwt>
<pdfrwt beam="1">  1       21 0.28455028E-02 0.21473403E+02</pdfrwt>
<pdfrwt beam="2">  1       21 0.48365897E-02 0.21473403E+02</pdfrwt>
<totfact> 0.12851672E+08</totfact>
</mgrwt>
</event>
<event>
 4    1  0.2721071E+004  0.3982140E+02  0.7546771E-02  0.1509530E+00
         21   -1    0    0  503  502  0.00000000000E+00  0.00000000000E+00  0.37661084934E+03  0.37661084934E+03  0.00000000000E+00 0. -1.
         21   -1    0    0  501  503 -0.00000000000E+00 -0.00000000000E+00 -0.46939613627E+01  0.46939613627E+01  0.00000000000E+00 0.  1.
          2    1    1    2  501    0 -0.39812702708E+02 -0.83199603891E+00  0.12477620702E+03  0.13097650688E+03  0.00000000000E+00 0. -1.
         -2    1    1    2    0  502  0.39812702708E+02  0.83199603891E+00  0.24714068095E+03  0.25032830382E+03  0.00000000000E+00 0.  1.
<mgrwt>
<rscale>  2 0.39821395E+02</rscale>
<asrwt>0</asrwt>
<pdfrwt beam="1">  1       21 0.57940107E-01 0.39821395E+02</pdfrwt>
<pdfrwt beam="2">  1       21 0.72214820E-03 0.39821395E+02</pdfrwt>
<totfact> 0.15251694E+07</totfact>
</mgrwt>
</event>
<event>
 4    1  0.2721071E+004  0.2046455E+02  0.7546771E-02  0.1736245E+00
         21   -1    0    0  503  502  0.00000000000E+00  0.00000000000E+00  0.11989240112E+03  0.11989240112E+03  0.00000000000E+00 0.  1.
         21   -1    0    0  501  503 -0.00000000000E+00 -0.00000000000E+00 -0.54216715142E+01  0.54216715142E+01  0.00000000000E+00 0. -1.
          2    1    1    2  501    0  0.19401110936E+02 -0.65111245470E+01  0.19865672352E+02  0.28520918401E+02  0.00000000000E+00 0. -1.
         -2    1    1    2    0  502 -0.19401110936E+02  0.65111245470E+01  0.94605057254E+02  0.96793154233E+02  0.00000000000E+00 0.  1.
<mgrwt>
<rscale>  2 0.20464551E+02</rscale>
<asrwt>0</asrwt>
<pdfrwt beam="1">  1       21 0.18444983E-01 0.20464551E+02</pdfrwt>
<pdfrwt beam="2">  1       21 0.83410340E-03 0.20464551E+02</pdfrwt>
<totfact> 0.90065361E+07</totfact>
</mgrwt>
</event>
<event>
 4    1  0.2721071E+004  0.2206361E+02  0.7546771E-02  0.1707154E+00
         21   -1    0    0  503  502  0.00000000000E+00  0.00000000000E+00  0.19646690529E+02  0.19646690529E+02  0.00000000000E+00 0.  1.
         21   -1    0    0  501  503 -0.00000000000E+00 -0.00000000000E+00 -0.54318763661E+02  0.54318763661E+02  0.00000000000E+00 0. -1.
          2    1    1    2  501    0 -0.27328367735E+01  0.21893708486E+02 -0.44609224952E+02  0.49767316774E+02  0.00000000000E+00 0. -1.
         -2    1    1    2    0  502  0.27328367735E+01 -0.21893708486E+02  0.99371518195E+01  0.24198137415E+02  0.00000000000E+00 0.  1.
<mgrwt>
<rscale>  2 0.22063610E+02</rscale>
<asrwt>0</asrwt>
<pdfrwt beam="1">  1       21 0.30225678E-02 0.22063610E+02</pdfrwt>
<pdfrwt beam="2">  1       21 0.83567329E-02 0.22063610E+02</pdfrwt>
<totfact> 0.48941646E+07</totfact>
</mgrwt>
</event>
<event>
 4    1  0.2721071E+004  0.3179524E+02  0.7546771E-02  0.1579052E+00
         21   -1    0    0  501  502  0.00000000000E+00  0.00000000000E+00  0.29805602957E+02  0.29805602957E+02  0.00000000000E+00 0. -1.
         21   -1    0    0  502  503 -0.00000000000E+00 -0.00000000000E+00 -0.36514834063E+02  0.36514834063E+02  0.00000000000E+00 0.  1.
          2    1    1    2  501    0  0.31544312075E+02 -0.39867025704E+01  0.54890054043E+01  0.32265563717E+02  0.00000000000E+00 0.  1.
         -2    1    1    2    0  503 -0.31544312075E+02  0.39867025704E+01 -0.12198236510E+02  0.34054873302E+02  0.00000000000E+00 0. -1.
<mgrwt>
<rscale>  2 0.31795242E+02</rscale>
<asrwt>0</asrwt>
<pdfrwt beam="1">  1       21 0.45854774E-02 0.31795242E+02</pdfrwt>
<pdfrwt beam="2">  1       21 0.56176667E-02 0.31795242E+02</pdfrwt>
<totfact> 0.52763650E+07</totfact>
</mgrwt>
</event>
<event>
 4    1  0.2721071E+004  0.2579488E+02  0.7546771E-02  0.1649840E+00
         21   -1    0    0  503  502  0.00000000000E+00  0.00000000000E+00  0.90028209967E+01  0.90028209967E+01  0.00000000000E+00 0.  1.
         21   -1    0    0  501  503 -0.00000000000E+00 -0.00000000000E+00 -0.13744625762E+03  0.13744625762E+03  0.00000000000E+00 0. -1.
          2    1    1    2  501    0  0.19452478906E+02 -0.16940398612E+02 -0.11400798138E+03  0.11688967387E+03  0.00000000000E+00 0. -1.
         -2    1    1    2    0  502 -0.19452478906E+02  0.16940398612E+02 -0.14435455250E+02  0.29559404747E+02  0.00000000000E+00 0.  1.
<mgrwt>
<rscale>  2 0.25794884E+02</rscale>
<asrwt>0</asrwt>
<pdfrwt beam="1">  1       21 0.13850495E-02 0.25794884E+02</pdfrwt>
<pdfrwt beam="2">  1       21 0.21145576E-01 0.25794884E+02</pdfrwt>
<totfact> 0.35084803E+07</totfact>
</mgrwt>
</event>
<event>
 4    1  0.2721071E+004  0.2654819E+02  0.7546771E-02  0.1639711E+00
         21   -1    0    0  501  502  0.00000000000E+00  0.00000000000E+00  0.77280622225E+02  0.77280622225E+02  0.00000000000E+00 0. -1.
         21   -1    0    0  502  503 -0.00000000000E+00 -0.00000000000E+00 -0.11211791274E+02  0.11211791274E+02  0.00000000000E+00 0.  1.
          2    1    1    2  501    0 -0.17842144859E+02  0.19658691728E+02  0.52145629988E+02  0.58514724817E+02  0.00000000000E+00 0. -1.
         -2    1    1    2    0  503  0.17842144859E+02 -0.19658691728E+02  0.13923200964E+02  0.29977688682E+02  0.00000000000E+00 0.  1.
<mgrwt>
<rscale>  2 0.26548188E+02</rscale>
<asrwt>0</asrwt>
<pdfrwt beam="1">  1       21 0.11889326E-01 0.26548188E+02</pdfrwt>
<pdfrwt beam="2">  1       21 0.17248910E-02 0.26548188E+02</pdfrwt>
<totfact> 0.68011689E+07</totfact>
</mgrwt>
</event>
<event>
 4    1  0.2721071E+004  0.2938415E+02  0.7546771E-02  0.1604998E+00
         21   -1    0    0  503  502  0.00000000000E+00  0.00000000000E+00  0.17683018253E+03  0.17683018253E+03  0.00000000000E+00 0. -1.
         21   -1    0    0  501  503 -0.00000000000E+00 -0.00000000000E+00 -0.70297515122E+01  0.70297515122E+01  0.00000000000E+00 0.  1.
          2    1    1    2  501    0  0.56571032215E+01 -0.28834444743E+02  0.34096284527E+02  0.45010939104E+02  0.00000000000E+00 0.  1.
         -2    1    1    2    0  502 -0.56571032215E+01  0.28834444743E+02  0.13570414649E+03  0.13884899493E+03  0.00000000000E+00 0. -1.
<mgrwt>
<rscale>  2 0.29384146E+02</rscale>
<asrwt>0</asrwt>
<pdfrwt beam="1">  1       21 0.27204640E-01 0.29384146E+02</pdfrwt>
<pdfrwt beam="2">  1       21 0.10815004E-02 0.29384146E+02</pdfrwt>
<totfact> 0.33472536E+07</totfact>
</mgrwt>
</event>
<event>
 4    1  0.2721071E+004  0.2343392E+02  0.7546771E-02  0.1684571E+00
         21   -1    0    0  501  502  0.00000000000E+00  0.00000000000E+00  0.33586728339E+02  0.33586728339E+02  0.00000000000E+00 0.  1.
         21   -1    0    0  502  503 -0.00000000000E+00 -0.00000000000E+00 -0.16976572350E+02  0.16976572350E+02  0.00000000000E+00 0. -1.
          2    1    1    2  501    0  0.21468022770E+00  0.23432938411E+02  0.13161399080E+02  0.26876962550E+02  0.00000000000E+00 0.  1.
         -2    1    1    2    0  503 -0.21468022770E+00 -0.23432938411E+02  0.34487569084E+01  0.23686338138E+02  0.00000000000E+00 0. -1.
<mgrwt>
<rscale>  2 0.23433922E+02</rscale>
<asrwt>0</asrwt>
<pdfrwt beam="1">  1       21 0.51671890E-02 0.23433922E+02</pdfrwt>
<pdfrwt beam="2">  1       21 0.26117804E-02 0.23433922E+02</pdfrwt>
<totfact> 0.13564343E+08</totfact>
</mgrwt>
</event>
<event>
 4    1  0.2721071E+004  0.2007441E+02  0.7546771E-02  0.1743852E+00
         21   -1    0    0  503  502  0.00000000000E+00  0.00000000000E+00  0.20161718294E+01  0.20161718294E+01  0.00000000000E+00 0.  1.
         21   -1    0    0  501  503 -0.00000000000E+00 -0.00000000000E+00 -0.46270209477E+03  0.46270209477E+03  0.00000000000E+00 0. -1.
          2    1    1    2  501    0  0.19694746765E+02  0.38857129832E+01 -0.40546640930E+03  0.40596304128E+03  0.00000000000E+00 0. -1.
         -2    1    1    2    0  502 -0.19694746765E+02 -0.38857129832E+01 -0.55219513641E+02  0.58755225319E+02  0.00000000000E+00 0.  1.
<mgrwt>
<rscale>  2 0.20074407E+02</rscale>
<asrwt>0</asrwt>
<pdfrwt beam="1">  1       21 0.31017996E-03 0.20074407E+02</pdfrwt>
<pdfrwt beam="2">  1       21 0.71185011E-01 0.20074407E+02</pdfrwt>
<totfact> 0.31043869E+07</totfact>
</mgrwt>
</event>
<event>
 4    1  0.2721071E+004  0.2178873E+02  0.7546771E-02  0.1711932E+00
         21   -1    0    0  503  502  0.00000000000E+00  0.00000000000E+00  0.46737364490E+00  0.46737364490E+00  0.00000000000E+00 0.  1.
         21   -1    0    0  501  503 -0.00000000000E+00 -0.00000000000E+00 -0.11658853995E+04  0.11658853995E+04  0.00000000000E+00 0. -1.
          2    1    1    2  501    0  0.15431475101E+02  0.15382402181E+02 -0.79196139227E+03  0.79226106529E+03  0.00000000000E+00 0. -1.
         -2    1    1    2    0  502 -0.15431475101E+02 -0.15382402181E+02 -0.37345663359E+03  0.37409170786E+03  0.00000000000E+00 0.  1.
<mgrwt>
<rscale>  2 0.21788729E+02</rscale>
<asrwt>0</asrwt>
<pdfrwt beam="1">  1       21 0.71904898E-04 0.21788729E+02</pdfrwt>
<pdfrwt beam="2">  1       21 0.17936384E+00 0.21788729E+02</pdfrwt>
<totfact> 0.32401624E+07</totfact>
</mgrwt>
</event>
<event>
 4    1  0.2721071E+004  0.2876004E+02  0.7546771E-02  0.1612213E+00
         21   -1    0    0  501  502  0.00000000000E+00  0.00000000000E+00  0.28858749628E+02  0.28858749628E+02  0.00000000000E+00 0. -1.
         21   -1    0    0  502  503 -0.00000000000E+00 -0.00000000000E+00 -0.73858831700E+02  0.73858831700E+02  0.00000000000E+00 0.  1.
          2    1    1    2  501    0 -0.44252754028E+01  0.28417548178E+02  0.17676184075E+02  0.33757778219E+02  0.00000000000E+00 0. -1.
         -2    1    1    2    0  503  0.44252754028E+01 -0.28417548178E+02 -0.62676266147E+02  0.68959803110E+02  0.00000000000E+00 0.  1.
<mgrwt>
<rscale>  2 0.28760044E+02</rscale>
<asrwt>0</asrwt>
<pdfrwt beam="1">  1       21 0.44398077E-02 0.28760044E+02</pdfrwt>
<pdfrwt beam="2">  1       21 0.11362897E-01 0.28760044E+02</pdfrwt>
<totfact> 0.17028398E+07</totfact>
</mgrwt>
</event>
<event>
 4    1  0.2721071E+004  0.2521038E+02  0.7546771E-02  0.1657998E+00
         21   -1    0    0  501  502  0.00000000000E+00  0.00000000000E+00  0.19716474543E+01  0.19716474543E+01  0.00000000000E+00 0.  1.
         21   -1    0    0  502  503 -0.00000000000E+00 -0.00000000000E+00 -0.44081748414E+03  0.44081748414E+03  0.00000000000E+00 0. -1.
          2    1    1    2  501    0  0.16860198234E+02  0.18742917984E+02 -0.10465126929E+03  0.10764502508E+03  0.00000000000E+00 0.  1.
         -2    1    1    2    0  503 -0.16860198234E+02 -0.18742917984E+02 -0.33419456740E+03  0.33514410652E+03  0.00000000000E+00 0. -1.
<mgrwt>
<rscale>  2 0.25210380E+02</rscale>
<asrwt>0</asrwt>
<pdfrwt beam="1">  1       21 0.30332941E-03 0.25210380E+02</pdfrwt>
<pdfrwt beam="2">  1       21 0.67818290E-01 0.25210380E+02</pdfrwt>
<totfact> 0.37209526E+07</totfact>
</mgrwt>
</event>
<event>
 4    1  0.2721071E+004  0.2035042E+02  0.7546771E-02  0.1738448E+00
         21   -1    0    0  503  502  0.00000000000E+00  0.00000000000E+00  0.26344522479E+02  0.26344522479E+02  0.00000000000E+00 0. -1.
         21   -1    0    0  501  503 -0.00000000000E+00 -0.00000000000E+00 -0.62727968439E+02  0.62727968439E+02  0.00000000000E+00 0.  1.
          2    1    1    2  501    0 -0.20330224645E+02  0.90646313773E+00 -0.56745600456E+02  0.60284350213E+02  0.00000000000E+00 0.  1.
         -2    1    1    2    0  502  0.20330224645E+02 -0.90646313773E+00  0.20362154495E+02  0.28788140705E+02  0.00000000000E+00 0. -1.
<mgrwt>
<rscale>  2 0.20350423E+02</rscale>
<asrwt>0</asrwt>
<pdfrwt beam="1">  1       21 0.40530035E-02 0.20350423E+02</pdfrwt>
<pdfrwt beam="2">  1       21 0.96504566E-02 0.20350423E+02</pdfrwt>
<totfact> 0.23966363E+07</totfact>
</mgrwt>
</event>
<event>
 4    1  0.2721071E+004  0.4931168E+02  0.7546771E-02  0.1449090E+00
         21   -1    0    0  501  502  0.00000000000E+00  0.00000000000E+00  0.13293414161E+02  0.13293414161E+02  0.00000000000E+00 0. -1.
         21   -1    0    0  502  503 -0.00000000000E+00 -0.00000000000E+00 -0.25517390499E+03  0.25517390499E+03  0.00000000000E+00 0.  1.
          2    1    1    2  501    0  0.27092925076E+02  0.41202128510E+02 -0.49511741919E+02  0.69878856394E+02  0.00000000000E+00 0. -1.
         -2    1    1    2    0  503 -0.27092925076E+02 -0.41202128510E+02 -0.19236874891E+03  0.19858846275E+03  0.00000000000E+00 0.  1.
<mgrwt>
<rscale>  2 0.49311682E+02</rscale>
<asrwt>0</asrwt>
<pdfrwt beam="1">  1       21 0.20451404E-02 0.49311682E+02</pdfrwt>
<pdfrwt beam="2">  1       21 0.39257528E-01 0.49311682E+02</pdfrwt>
<totfact> 0.67865757E+06</totfact>
</mgrwt>
</event>
<event>
 4    1  0.2721071E+004  0.3689427E+02  0.7546771E-02  0.1532395E+00
         21   -1    0    0  503  502  0.00000000000E+00  0.00000000000E+00  0.24703788472E+02  0.24703788472E+02  0.00000000000E+00 0. -1.
         21   -1    0    0  501  503 -0.00000000000E+00 -0.00000000000E+00 -0.89434831218E+02  0.89434831218E+02  0.00000000000E+00 0.  1.
          2    1    1    2  501    0 -0.36783073877E+02  0.28623083096E+01 -0.67725706862E+02  0.77123010202E+02  0.00000000000E+00 0.  1.
         -2    1    1    2    0  502  0.36783073877E+02 -0.28623083096E+01  0.29946641153E+01  0.37015609489E+02  0.00000000000E+00 0. -1.
<mgrwt>
<rscale>  2 0.36894272E+02</rscale>
<asrwt>0</asrwt>
<pdfrwt beam="1">  1       21 0.38005828E-02 0.36894272E+02</pdfrwt>
<pdfrwt beam="2">  1       21 0.13759205E-01 0.36894272E+02</pdfrwt>
<totfact> 0.16452950E+07</totfact>
</mgrwt>
</event>
<event>
 4    1  0.2721071E+004  0.2473938E+02  0.7546771E-02  0.1664774E+00
         21   -1    0    0  501  502  0.00000000000E+00  0.00000000000E+00  0.53825376517E+01  0.53825376517E+01  0.00000000000E+00 0. -1.
         21   -1    0    0  502  503 -0.00000000000E+00 -0.00000000000E+00 -0.12757885342E+03  0.12757885342E+03  0.00000000000E+00 0.  1.
          2    1    1    2  501    0 -0.11490745591E+02  0.21908898737E+02 -0.83019103825E+02  0.86626835784E+02  0.00000000000E+00 0.  1.
         -2    1    1    2    0  503  0.11490745591E+02 -0.21908898737E+02 -0.39177211948E+02  0.46334555292E+02  0.00000000000E+00 0. -1.
<mgrwt>
<rscale>  2 0.24739383E+02</rscale>
<asrwt>0</asrwt>
<pdfrwt beam="1">  1       21 0.82808271E-03 0.24739383E+02</pdfrwt>
<pdfrwt beam="2">  1       21 0.19627516E-01 0.24739383E+02</pdfrwt>
<totfact> 0.86086703E+07</totfact>
</mgrwt>
</event>
<event>
 4    1  0.2721071E+004  0.4367450E+02  0.7546771E-02  0.1482790E+00
         21   -1    0    0  503  502  0.00000000000E+00  0.00000000000E+00  0.38277716785E+02  0.38277716785E+02  0.00000000000E+00 0. -1.
         21   -1    0    0  501  503 -0.00000000000E+00 -0.00000000000E+00 -0.73102954392E+02  0.73102954392E+02  0.00000000000E+00 0.  1.
          2    1    1    2  501    0  0.15489219133E+02 -0.40835593998E+02 -0.48833466114E+02  0.65514647669E+02  0.00000000000E+00 0.  1.
         -2    1    1    2    0  502 -0.15489219133E+02  0.40835593998E+02  0.14008228507E+02  0.45866023508E+02  0.00000000000E+00 0. -1.
<mgrwt>
<rscale>  2 0.43674497E+02</rscale>
<asrwt>0</asrwt>
<pdfrwt beam="1">  1       21 0.58888795E-02 0.43674497E+02</pdfrwt>
<pdfrwt beam="2">  1       21 0.11246608E-01 0.43674497E+02</pdfrwt>
<totfact> 0.11724303E+07</totfact>
</mgrwt>
</event>
<event>
 4    1  0.2721071E+004  0.4740706E+02  0.7546771E-02  0.1459851E+00
         21   -1    0    0  501  502  0.00000000000E+00  0.00000000000E+00  0.39824863207E+03  0.39824863207E+03  0.00000000000E+00 0.  1.
         21   -1    0    0  502  503 -0.00000000000E+00 -0.00000000000E+00 -0.62200881366E+01  0.62200881366E+01  0.00000000000E+00 0. -1.
          2    1    1    2  501    0 -0.78585823509E-01 -0.47406997940E+02  0.13442978392E+03  0.14254401578E+03  0.00000000000E+00 0. -1.
         -2    1    1    2    0  503  0.78585823509E-01  0.47406997940E+02  0.25759876001E+03  0.26192470443E+03  0.00000000000E+00 0.  1.
<mgrwt>
<rscale>  2 0.47407063E+02</rscale>
<asrwt>0</asrwt>
<pdfrwt beam="1">  1       21 0.61269000E-01 0.47407063E+02</pdfrwt>
<pdfrwt beam="2">  1       21 0.95693695E-03 0.47407063E+02</pdfrwt>
<totfact> 0.90446182E+06</totfact>
</mgrwt>
</event>
<event>
 4    1  0.2721071E+004  0.2713907E+02  0.7546771E-02  0.1632051E+00
         21   -1    0    0  501  502  0.00000000000E+00  0.00000000000E+00  0.88992990864E+03  0.88992990864E+03  0.00000000000E+00 0.  1.
         21   -1    0    0  502  503 -0.00000000000E+00 -0.00000000000E+00 -0.24179527893E+01  0.24179527893E+01  0.00000000000E+00 0. -1.
          2    1    1    2  501    0 -0.34282424946E+01 -0.26921664377E+02  0.80560175787E+03  0.80605875787E+03  0.00000000000E+00 0.  1.
         -2    1    1    2    0  503  0.34282424946E+01  0.26921664377E+02  0.81910197982E+02  0.86289103558E+02  0.00000000000E+00 0. -1.
<mgrwt>
<rscale>  2 0.27139065E+02</rscale>
<asrwt>0</asrwt>
<pdfrwt beam="1">  1       21 0.13691203E+00 0.27139065E+02</pdfrwt>
<pdfrwt beam="2">  1       21 0.37199345E-03 0.27139065E+02</pdfrwt>
<totfact> 0.60030112E+06</totfact>
</mgrwt>
</event>
<event>
 4    1  0.2721071E+004  0.5745144E+02  0.7546771E-02  0.1408849E+00
         21   -1    0    0  501  502  0.00000000000E+00  0.00000000000E+00  0.88900289131E+02  0.88900289131E+02  0.00000000000E+00 0. -1.
         21   -1    0    0  502  503 -0.00000000000E+00 -0.00000000000E+00 -0.38282459207E+02  0.38282459207E+02  0.00000000000E+00 0.  1.
          2    1    1    2  501    0 -0.53881099142E+02  0.19937286908E+02  0.36353094523E+02  0.67986879141E+02  0.00000000000E+00 0. -1.
         -2    1    1    2    0  503  0.53881099142E+02 -0.19937286908E+02  0.14264735400E+02  0.59195869197E+02  0.00000000000E+00 0.  1.
<mgrwt>
<rscale>  2 0.57451443E+02</rscale>
<asrwt>0</asrwt>
<pdfrwt beam="1">  1       21 0.13676967E-01 0.57451443E+02</pdfrwt>
<pdfrwt beam="2">  1       21 0.58896091E-02 0.57451443E+02</pdfrwt>
<totfact> 0.86367699E+06</totfact>
</mgrwt>
</event>
<event>
 4    1  0.2721071E+004  0.2183971E+02  0.7546771E-02  0.1711039E+00
         21   -1    0    0  503  502  0.00000000000E+00  0.00000000000E+00  0.36002982866E+02  0.36002982866E+02  0.00000000000E+00 0. -1.
         21   -1    0    0  501  503 -0.00000000000E+00 -0.00000000000E+00 -0.56211759185E+02  0.56211759185E+02  0.00000000000E+00 0.  1.
          2    1    1    2  501    0  0.19881653783E+02 -0.90383974566E+01 -0.50413865659E+02  0.54941156125E+02  0.00000000000E+00 0.  1.
         -2    1    1    2    0  502 -0.19881653783E+02  0.90383974566E+01  0.30205089339E+02  0.37273585926E+02  0.00000000000E+00 0. -1.
<mgrwt>
<rscale>  2 0.21839707E+02</rscale>
<asrwt>0</asrwt>
<pdfrwt beam="1">  1       21 0.55389204E-02 0.21839707E+02</pdfrwt>
<pdfrwt beam="2">  1       21 0.86479630E-02 0.21839707E+02</pdfrwt>
<totfact> 0.17783088E+07</totfact>
</mgrwt>
</event>
<event>
 4    1  0.2721071E+004  0.2603035E+02  0.7546771E-02  0.1646629E+00
         21   -1    0    0  503  502  0.00000000000E+00  0.00000000000E+00  0.11425336796E+02  0.11425336796E+02  0.00000000000E+00 0. -1.
         21   -1    0    0  501  503 -0.00000000000E+00 -0.00000000000E+00 -0.22193310393E+03  0.22193310393E+03  0.00000000000E+00 0.  1.
          2    1    1    2  501    0 -0.67052457869E+01 -0.25151913260E+02 -0.20513429831E+03  0.20677925284E+03  0.00000000000E+00 0.  1.
         -2    1    1    2    0  502  0.67052457869E+01  0.25151913260E+02 -0.53734688285E+01  0.26579187891E+02  0.00000000000E+00 0. -1.
<mgrwt>
<rscale>  2 0.26030349E+02</rscale>
<asrwt>0</asrwt>
<pdfrwt beam="1">  1       21 0.17577440E-02 0.26030349E+02</pdfrwt>
<pdfrwt beam="2">  1       21 0.34143556E-01 0.26030349E+02</pdfrwt>
<totfact> 0.10272308E+07</totfact>
</mgrwt>
</event>
<event>
 4    1  0.2721071E+004  0.2315668E+02  0.7546771E-02  0.1688983E+00
         21   -1    0    0  501  502  0.00000000000E+00  0.00000000000E+00  0.42626274672E+02  0.42626274672E+02  0.00000000000E+00 0. -1.
         21   -1    0    0  502  503 -0.00000000000E+00 -0.00000000000E+00 -0.30350548327E+02  0.30350548327E+02  0.00000000000E+00 0.  1.
          2    1    1    2  501    0 -0.16371940579E+02  0.16376554224E+02  0.34058414101E+02  0.41185040217E+02  0.00000000000E+00 0. -1.
         -2    1    1    2    0  503  0.16371940579E+02 -0.16376554224E+02 -0.21782687757E+02  0.31791782782E+02  0.00000000000E+00 0.  1.
<mgrwt>
<rscale>  2 0.23156683E+02</rscale>
<asrwt>0</asrwt>
<pdfrwt beam="1">  1       21 0.65578884E-02 0.23156683E+02</pdfrwt>
<pdfrwt beam="2">  1       21 0.46693151E-02 0.23156683E+02</pdfrwt>
<totfact> 0.37090395E+07</totfact>
</mgrwt>
</event>
<event>
 4    1  0.2721071E+004  0.2296613E+02  0.7546771E-02  0.1692060E+00
         21   -1    0    0  503  502  0.00000000000E+00  0.00000000000E+00  0.48945117828E+03  0.48945117828E+03  0.00000000000E+00 0. -1.
         21   -1    0    0  501  503 -0.00000000000E+00 -0.00000000000E+00 -0.10786741983E+01  0.10786741983E+01  0.00000000000E+00 0.  1.
          2    1    1    2  501    0  0.46093550183E+00  0.22961505111E+02  0.23652473741E+03  0.23763710692E+03  0.00000000000E+00 0. -1.
         -2    1    1    2    0  502 -0.46093550183E+00 -0.22961505111E+02  0.25184776667E+03  0.25289274555E+03  0.00000000000E+00 0.  1.
<mgrwt>
<rscale>  2 0.22966131E+02</rscale>
<asrwt>0</asrwt>
<pdfrwt beam="1">  1       21 0.75300004E-01 0.22966131E+02</pdfrwt>
<pdfrwt beam="2">  1       21 0.16595027E-03 0.22966131E+02</pdfrwt>
<totfact> 0.70421691E+07</totfact>
</mgrwt>
</event>
<event>
 4    1  0.2721071E+004  0.2415350E+02  0.7546771E-02  0.1673467E+00
         21   -1    0    0  501  502  0.00000000000E+00  0.00000000000E+00  0.85224777827E+01  0.85224777827E+01  0.00000000000E+00 0.  1.
         21   -1    0    0  502  503 -0.00000000000E+00 -0.00000000000E+00 -0.16396093252E+03  0.16396093252E+03  0.00000000000E+00 0. -1.
          2    1    1    2  501    0 -0.18082086105E+02 -0.16013420189E+02 -0.11897957725E+02  0.26924948692E+02  0.00000000000E+00 0.  1.
         -2    1    1    2    0  503  0.18082086105E+02  0.16013420189E+02 -0.14354049701E+03  0.14555846161E+03  0.00000000000E+00 0. -1.
<mgrwt>
<rscale>  2 0.24153498E+02</rscale>
<asrwt>0</asrwt>
<pdfrwt beam="1">  1       21 0.13111505E-02 0.24153498E+02</pdfrwt>
<pdfrwt beam="2">  1       21 0.25224758E-01 0.24153498E+02</pdfrwt>
<totfact> 0.27487014E+07</totfact>
</mgrwt>
</event>
<event>
 4    1  0.2721071E+004  0.4795208E+02  0.7546771E-02  0.1456711E+00
         21   -1    0    0  501  502  0.00000000000E+00  0.00000000000E+00  0.11452067445E+03  0.11452067445E+03  0.00000000000E+00 0.  1.
         21   -1    0    0  502  503 -0.00000000000E+00 -0.00000000000E+00 -0.23380722779E+02  0.23380722779E+02  0.00000000000E+00 0. -1.
          2    1    1    2  501    0  0.47182154609E+02 -0.85583906242E+01  0.71482743839E+02  0.86076619534E+02  0.00000000000E+00 0.  1.
         -2    1    1    2    0  503 -0.47182154609E+02  0.85583906242E+01  0.19657207837E+02  0.51824777700E+02  0.00000000000E+00 0. -1.
<mgrwt>
<rscale>  2 0.47952078E+02</rscale>
<asrwt>0</asrwt>
<pdfrwt beam="1">  1       21 0.17618565E-01 0.47952078E+02</pdfrwt>
<pdfrwt beam="2">  1       21 0.35970343E-02 0.47952078E+02</pdfrwt>
<totfact> 0.12109507E+07</totfact>
</mgrwt>
</event>
<event>
 4    1  0.2721071E+004  0.2210513E+02  0.7546771E-02  0.1706440E+00
         21   -1    0    0  503  502  0.00000000000E+00  0.00000000000E+00  0.82635041613E+02  0.82635041613E+02  0.00000000000E+00 0. -1.
         21   -1    0    0  501  503 -0.00000000000E+00 -0.00000000000E+00 -0.41409322400E+02  0.41409322400E+02  0.00000000000E+00 0.  1.
          2    1    1    2  501    0 -0.18670545614E+02 -0.11834160186E+02 -0.36810487467E+02  0.42937729428E+02  0.00000000000E+00 0.  1.
         -2    1    1    2    0  502  0.18670545614E+02  0.11834160186E+02  0.78036206680E+02  0.81106634586E+02  0.00000000000E+00 0. -1.
<mgrwt>
<rscale>  2 0.22105127E+02</rscale>
<asrwt>0</asrwt>
<pdfrwt beam="1">  1       21 0.12713083E-01 0.22105127E+02</pdfrwt>
<pdfrwt beam="2">  1       21 0.63706650E-02 0.22105127E+02</pdfrwt>
<totfact> 0.75254544E+06</totfact>
</mgrwt>
</event>
<event>
 4    1  0.2721071E+004  0.2423494E+02  0.7546771E-02  0.1672240E+00
         21   -1    0    0  503  502  0.00000000000E+00  0.00000000000E+00  0.29498963638E+01  0.29498963638E+01  0.00000000000E+00 0.  1.
         21   -1    0    0  501  503 -0.00000000000E+00 -0.00000000000E+00 -0.27303013503E+03  0.27303013503E+03  0.00000000000E+00 0. -1.
          2    1    1    2  501    0  0.75505379595E+01 -0.23028718263E+02 -0.20684352349E+03  0.20825843487E+03  0.00000000000E+00 0.  1.
         -2    1    1    2    0  502 -0.75505379595E+01  0.23028718263E+02 -0.63236715180E+02  0.67721596519E+02  0.00000000000E+00 0. -1.
<mgrwt>
<rscale>  2 0.24234944E+02</rscale>
<asrwt>0</asrwt>
<pdfrwt beam="1">  1       21 0.45383029E-03 0.24234944E+02</pdfrwt>
<pdfrwt beam="2">  1       21 0.42004629E-01 0.24234944E+02</pdfrwt>
<totfact> 0.52493736E+07</totfact>
</mgrwt>
</event>
<event>
 4    1  0.2721071E+004  0.2525159E+02  0.7546771E-02  0.1657414E+00
         21   -1    0    0  501  502  0.00000000000E+00  0.00000000000E+00  0.55320707720E+01  0.55320707720E+01  0.00000000000E+00 0. -1.
         21   -1    0    0  502  503 -0.00000000000E+00 -0.00000000000E+00 -0.13967600245E+03  0.13967600245E+03  0.00000000000E+00 0.  1.
          2    1    1    2  501    0  0.14592512971E+01 -0.25209389043E+02 -0.36718306910E+02  0.44563177318E+02  0.00000000000E+00 0. -1.
         -2    1    1    2    0  503 -0.14592512971E+01  0.25209389043E+02 -0.97425624767E+02  0.10064489590E+03  0.00000000000E+00 0.  1.
<mgrwt>
<rscale>  2 0.25251588E+02</rscale>
<asrwt>0</asrwt>
<pdfrwt beam="1">  1       21 0.85108780E-03 0.25251588E+02</pdfrwt>
<pdfrwt beam="2">  1       21 0.21488616E-01 0.25251588E+02</pdfrwt>
<totfact> 0.70832959E+07</totfact>
</mgrwt>
</event>
<event>
 4    1  0.2721071E+004  0.5615445E+02  0.7546771E-02  0.1414717E+00
         21   -1    0    0  501  502  0.00000000000E+00  0.00000000000E+00  0.81633808883E+03  0.81633808883E+03  0.00000000000E+00 0. -1.
         21   -1    0    0  502  503 -0.00000000000E+00 -0.00000000000E+00 -0.58471504538E+01  0.58471504538E+01  0.00000000000E+00 0.  1.
          2    1    1    2  501    0  0.53854682775E+02  0.15905831180E+02  0.64473169856E+03  0.64717253144E+03  0.00000000000E+00 0. -1.
         -2    1    1    2    0  503 -0.53854682775E+02 -0.15905831180E+02  0.16575923982E+03  0.17501270784E+03  0.00000000000E+00 0.  1.
<mgrwt>
<rscale>  2 0.56154451E+02</rscale>
<asrwt>0</asrwt>
<pdfrwt beam="1">  1       21 0.12559038E+00 0.56154451E+02</pdfrwt>
<pdfrwt beam="2">  1       21 0.89956226E-03 0.56154451E+02</pdfrwt>
<totfact> 0.20586649E+06</totfact>
</mgrwt>
</event>
<event>
 4    1  0.2721071E+004  0.2260800E+02  0.7546771E-02  0.1697944E+00
         21   -1    0    0  503  502  0.00000000000E+00  0.00000000000E+00  0.10298182362E+04  0.10298182362E+04  0.00000000000E+00 0.  1.
         21   -1    0    0  501  503 -0.00000000000E+00 -0.00000000000E+00 -0.56534250972E+00  0.56534250972E+00  0.00000000000E+00 0. -1.
          2    1    1    2  501    0 -0.22405078484E+02 -0.30222842608E+01  0.33461451846E+03  0.33537739594E+03  0.00000000000E+00 0. -1.
         -2    1    1    2    0  502  0.22405078484E+02  0.30222842608E+01  0.69463837524E+03  0.69500618278E+03  0.00000000000E+00 0.  1.
<mgrwt>
<rscale>  2 0.22608002E+02</rscale>
<asrwt>0</asrwt>
<pdfrwt beam="1">  1       21 0.15843207E+00 0.22608002E+02</pdfrwt>
<pdfrwt beam="2">  1       21 0.86976595E-04 0.22608002E+02</pdfrwt>
<totfact> 0.33707354E+07</totfact>
</mgrwt>
</event>
<event>
 4    1  0.2721071E+004  0.2688354E+02  0.7546771E-02  0.1635334E+00
         21   -1    0    0  503  502  0.00000000000E+00  0.00000000000E+00  0.59700494288E+02  0.59700494288E+02  0.00000000000E+00 0. -1.
         21   -1    0    0  501  503 -0.00000000000E+00 -0.00000000000E+00 -0.80771626886E+02  0.80771626886E+02  0.00000000000E+00 0.  1.
          2    1    1    2  501    0 -0.20512678053E+02 -0.17376838587E+02 -0.75294686250E+02  0.79950073531E+02  0.00000000000E+00 0.  1.
         -2    1    1    2    0  502  0.20512678053E+02  0.17376838587E+02  0.54223553652E+02  0.60522047642E+02  0.00000000000E+00 0. -1.
<mgrwt>
<rscale>  2 0.26883535E+02</rscale>
<asrwt>0</asrwt>
<pdfrwt beam="1">  1       21 0.91846914E-02 0.26883535E+02</pdfrwt>
<pdfrwt beam="2">  1       21 0.12426404E-01 0.26883535E+02</pdfrwt>
<totfact> 0.44451924E+06</totfact>
</mgrwt>
</event>
<event>
 4    1  0.2721071E+004  0.2254370E+02  0.7546771E-02  0.1699015E+00
         21   -1    0    0  501  502  0.00000000000E+00  0.00000000000E+00  0.21311639550E+02  0.21311639550E+02  0.00000000000E+00 0.  1.
         21   -1    0    0  502  503 -0.00000000000E+00 -0.00000000000E+00 -0.15882040015E+03  0.15882040015E+03  0.00000000000E+00 0. -1.
          2    1    1    2  501    0 -0.13617537473E+02  0.17966112406E+02  0.14275026166E+02  0.26683232448E+02  0.00000000000E+00 0.  1.
         -2    1    1    2    0  503  0.13617537473E+02 -0.17966112406E+02 -0.15178378676E+03  0.15344880725E+03  0.00000000000E+00 0. -1.
<mgrwt>
<rscale>  2 0.22543702E+02</rscale>
<asrwt>0</asrwt>
<pdfrwt beam="1">  1       21 0.32787137E-02 0.22543702E+02</pdfrwt>
<pdfrwt beam="2">  1       21 0.24433908E-01 0.22543702E+02</pdfrwt>
<totfact> 0.70089058E+06</totfact>
</mgrwt>
</event>
<event>
 4    1  0.2721071E+004  0.2309306E+02  0.7546771E-02  0.1690006E+00
         21   -1    0    0  501  502  0.00000000000E+00  0.00000000000E+00  0.33827973419E+03  0.33827973419E+03  0.00000000000E+00 0.  1.
         21   -1    0    0  502  503 -0.00000000000E+00 -0.00000000000E+00 -0.53788989985E+01  0.53788989985E+01  0.00000000000E+00 0. -1.
          2    1    1    2  501    0  0.22648701652E+02 -0.45084111678E+01  0.31092147576E+03  0.31177789137E+03  0.00000000000E+00 0.  1.
         -2    1    1    2    0  503 -0.22648701652E+02  0.45084111678E+01  0.21979359423E+02  0.31880741811E+02  0.00000000000E+00 0. -1.
<mgrwt>
<rscale>  2 0.23093061E+02</rscale>
<asrwt>0</asrwt>
<pdfrwt beam="1">  1       21 0.52043019E-01 0.23093061E+02</pdfrwt>
<pdfrwt beam="2">  1       21 0.82752319E-03 0.23093061E+02</pdfrwt>
<totfact> 0.14094740E+07</totfact>
</mgrwt>
</event>
<event>
 4    1  0.2721071E+004  0.2414179E+02  0.7546771E-02  0.1673644E+00
         21   -1    0    0  503  502  0.00000000000E+00  0.00000000000E+00  0.29507834393E+02  0.29507834393E+02  0.00000000000E+00 0.  1.
         21   -1    0    0  501  503 -0.00000000000E+00 -0.00000000000E+00 -0.65850207100E+02  0.65850207100E+02  0.00000000000E+00 0. -1.
          2    1    1    2  501    0 -0.10604578967E+02  0.21687987535E+02 -0.58063830467E+02  0.62882702764E+02  0.00000000000E+00 0. -1.
         -2    1    1    2    0  502  0.10604578967E+02 -0.21687987535E+02  0.21721457760E+02  0.32475338730E+02  0.00000000000E+00 0.  1.
<mgrwt>
<rscale>  2 0.24141787E+02</rscale>
<asrwt>0</asrwt>
<pdfrwt beam="1">  1       21 0.45396668E-02 0.24141787E+02</pdfrwt>
<pdfrwt beam="2">  1       21 0.10130801E-01 0.24141787E+02</pdfrwt>
<totfact> 0.19229315E+07</totfact>
</mgrwt>
</event>
<event>
 4    1  0.2721071E+004  0.2928298E+02  0.7546771E-02  0.1606152E+00
         21   -1    0    0  501  502  0.00000000000E+00  0.00000000000E+00  0.10256941258E+04  0.10256941258E+04  0.00000000000E+00 0. -1.
         21   -1    0    0  502  503 -0.00000000000E+00 -0.00000000000E+00 -0.18113948300E+01  0.18113948300E+01  0.00000000000E+00 0.  1.
          2    1    1    2  501    0 -0.23850220127E+02  0.16989989420E+02  0.88893596461E+03  0.88941814795E+03  0.00000000000E+00 0. -1.
         -2    1    1    2    0  503  0.23850220127E+02 -0.16989989420E+02  0.13494676641E+03  0.13808737272E+03  0.00000000000E+00 0.  1.
<mgrwt>
<rscale>  2 0.29282977E+02</rscale>
<asrwt>0</asrwt>
<pdfrwt beam="1">  1       21 0.15779863E+00 0.29282977E+02</pdfrwt>
<pdfrwt beam="2">  1       21 0.27867695E-03 0.29282977E+02</pdfrwt>
<totfact> 0.65905006E+06</totfact>
</mgrwt>
</event>
<event>
 4    1  0.2721071E+004  0.2254573E+02  0.7546771E-02  0.1698981E+00
         21   -1    0    0  501  502  0.00000000000E+00  0.00000000000E+00  0.10248375623E+03  0.10248375623E+03  0.00000000000E+00 0. -1.
         21   -1    0    0  502  503 -0.00000000000E+00 -0.00000000000E+00 -0.67397140562E+01  0.67397140562E+01  0.00000000000E+00 0.  1.
          2    1    1    2  501    0 -0.20939101632E+02 -0.83584637322E+01  0.75936159262E+02  0.79212437007E+02  0.00000000000E+00 0. -1.
         -2    1    1    2    0  503  0.20939101632E+02  0.83584637322E+01  0.19807882915E+02  0.30011033282E+02  0.00000000000E+00 0.  1.
<mgrwt>
<rscale>  2 0.22545729E+02</rscale>
<asrwt>0</asrwt>
<pdfrwt beam="1">  1       21 0.15766731E-01 0.22545729E+02</pdfrwt>
<pdfrwt beam="2">  1       21 0.10368792E-02 0.22545729E+02</pdfrwt>
<totfact> 0.87469283E+07</totfact>
</mgrwt>
</event>
<event>
 4    1  0.2721071E+004  0.2009514E+02  0.7546771E-02  0.1743443E+00
         21   -1    0    0  501  502  0.00000000000E+00  0.00000000000E+00  0.36076996359E+03  0.36076996359E+03  0.00000000000E+00 0. -1.
         21   -1    0    0  502  503 -0.00000000000E+00 -0.00000000000E+00 -0.25938843436E+01  0.25938843436E+01  0.00000000000E+00 0.  1.
          2    1    1    2  501    0 -0.20022921795E+02 -0.17020923324E+01  0.31607187101E+03  0.31671002851E+03  0.00000000000E+00 0. -1.
         -2    1    1    2    0  503  0.20022921795E+02  0.17020923324E+01  0.42104208236E+02  0.46653819422E+02  0.00000000000E+00 0.  1.
<mgrwt>
<rscale>  2 0.20095137E+02</rscale>
<asrwt>0</asrwt>
<pdfrwt beam="1">  1       21 0.55503031E-01 0.20095137E+02</pdfrwt>
<pdfrwt beam="2">  1       21 0.39905942E-03 0.20095137E+02</pdfrwt>
<totfact> 0.35415934E+07</totfact>
</mgrwt>
</event>
<event>
 4    1  0.2721071E+004  0.2405863E+02  0.7546771E-02  0.1674903E+00
         21   -1    0    0  503  502  0.00000000000E+00  0.00000000000E+00  0.47258994655E+01  0.47258994655E+01  0.00000000000E+00 0.  1.
         21   -1    0    0  501  503 -0.00000000000E+00 -0.00000000000E+00 -0.24689871031E+03  0.24689871031E+03  0.00000000000E+00 0. -1.
          2    1    1    2  501    0 -0.72640867338E+01  0.22935794529E+02 -0.21039853564E+03  0.21176959515E+03  0.00000000000E+00 0. -1.
         -2    1    1    2    0  502  0.72640867338E+01 -0.22935794529E+02 -0.31774275204E+02  0.39855014634E+02  0.00000000000E+00 0.  1.
<mgrwt>
<rscale>  2 0.24058629E+02</rscale>
<asrwt>0</asrwt>
<pdfrwt beam="1">  1       21 0.72706133E-03 0.24058629E+02</pdfrwt>
<pdfrwt beam="2">  1       21 0.37984423E-01 0.24058629E+02</pdfrwt>
<totfact> 0.31509096E+07</totfact>
</mgrwt>
</event>
<event>
 4    1  0.2721071E+004  0.2845714E+02  0.7546771E-02  0.1615797E+00
         21   -1    0    0  503  502  0.00000000000E+00  0.00000000000E+00  0.23144850866E+01  0.23144850866E+01  0.00000000000E+00 0. -1.
         21   -1    0    0  501  503 -0.00000000000E+00 -0.00000000000E+00 -0.35228776737E+03  0.35228776737E+03  0.00000000000E+00 0.  1.
          2    1    1    2  501    0 -0.93624292646E+01  0.26872917697E+02 -0.16035083996E+03  0.16285638048E+03  0.00000000000E+00 0. -1.
         -2    1    1    2    0  502  0.93624292646E+01 -0.26872917697E+02 -0.18962244232E+03  0.19174587197E+03  0.00000000000E+00 0.  1.
<mgrwt>
<rscale>  2 0.28457139E+02</rscale>
<asrwt>0</asrwt>
<pdfrwt beam="1">  1       21 0.35607463E-03 0.28457139E+02</pdfrwt>
<pdfrwt beam="2">  1       21 0.54198118E-01 0.28457139E+02</pdfrwt>
<totfact> 0.47375878E+07</totfact>
</mgrwt>
</event>
<event>
 4    1  0.2721071E+004  0.2268460E+02  0.7546771E-02  0.1696674E+00
         21   -1    0    0  503  502  0.00000000000E+00  0.00000000000E+00  0.18049347826E+03  0.18049347826E+03  0.00000000000E+00 0.  1.
         21   -1    0    0  501  503 -0.00000000000E+00 -0.00000000000E+00 -0.34920081827E+01  0.34920081827E+01  0.00000000000E+00 0. -1.
          2    1    1    2  501    0  0.12824101529E+02  0.18711858025E+02  0.49087720679E+02  0.54075831313E+02  0.00000000000E+00 0. -1.
         -2    1    1    2    0  502 -0.12824101529E+02 -0.18711858025E+02  0.12791374940E+03  0.12990965513E+03  0.00000000000E+00 0.  1.
<mgrwt>
<rscale>  2 0.22684603E+02</rscale>
<asrwt>0</asrwt>
<pdfrwt beam="1">  1       21 0.27768220E-01 0.22684603E+02</pdfrwt>
<pdfrwt beam="2">  1       21 0.53723217E-03 0.22684603E+02</pdfrwt>
<totfact> 0.86535379E+07</totfact>
</mgrwt>
</event>
<event>
 4    1  0.2721071E+004  0.2345864E+02  0.7546771E-02  0.1684182E+00
         21   -1    0    0  503  502  0.00000000000E+00  0.00000000000E+00  0.13215427810E+01  0.13215427810E+01  0.00000000000E+00 0.  1.
         21   -1    0    0  501  503 -0.00000000000E+00 -0.00000000000E+00 -0.57554653444E+03  0.57554653444E+03  0.00000000000E+00 0. -1.
          2    1    1    2  501    0  0.20867319180E+02 -0.10717404780E+02 -0.43877805019E+03  0.43940469400E+03  0.00000000000E+00 0. -1.
         -2    1    1    2    0  502 -0.20867319180E+02  0.10717404780E+02 -0.13544694147E+03  0.13746338322E+03  0.00000000000E+00 0.  1.
<mgrwt>
<rscale>  2 0.23458640E+02</rscale>
<asrwt>0</asrwt>
<pdfrwt beam="1">  1       21 0.20331380E-03 0.23458640E+02</pdfrwt>
<pdfrwt beam="2">  1       21 0.88545829E-01 0.23458640E+02</pdfrwt>
<totfact> 0.37534533E+07</totfact>
</mgrwt>
</event>
<event>
 4    1  0.2721071E+004  0.2302009E+02  0.7546771E-02  0.1691185E+00
         21   -1    0    0  501  502  0.00000000000E+00  0.00000000000E+00  0.29469549766E+01  0.29469549766E+01  0.00000000000E+00 0.  1.
         21   -1    0    0  502  503 -0.00000000000E+00 -0.00000000000E+00 -0.18029932481E+03  0.18029932481E+03  0.00000000000E+00 0. -1.
          2    1    1    2  501    0  0.22964278180E+02  0.16020119971E+01 -0.83957179412E+02  0.87055915879E+02  0.00000000000E+00 0.  1.
         -2    1    1    2    0  503 -0.22964278180E+02 -0.16020119971E+01 -0.93395190420E+02  0.96190363906E+02  0.00000000000E+00 0. -1.
<mgrwt>
<rscale>  2 0.23020089E+02</rscale>
<asrwt>0</asrwt>
<pdfrwt beam="1">  1       21 0.45337781E-03 0.23020089E+02</pdfrwt>
<pdfrwt beam="2">  1       21 0.27738350E-01 0.23020089E+02</pdfrwt>
<totfact> 0.11179151E+08</totfact>
</mgrwt>
</event>
<event>
 4    1  0.2721071E+004  0.2266534E+02  0.7546771E-02  0.1696993E+00
         21   -1    0    0  501  502  0.00000000000E+00  0.00000000000E+00  0.19432837341E+02  0.19432837341E+02  0.00000000000E+00 0.  1.
         21   -1    0    0  502  503 -0.00000000000E+00 -0.00000000000E+00 -0.33856755837E+02  0.33856755837E+02  0.00000000000E+00 0. -1.
          2    1    1    2  501    0 -0.20606121964E+02 -0.94395717655E+01  0.52626492702E+01  0.23268288610E+02  0.00000000000E+00 0.  1.
         -2    1    1    2    0  503  0.20606121964E+02  0.94395717655E+01 -0.19686567767E+02  0.30021304568E+02  0.00000000000E+00 0. -1.
<mgrwt>
<rscale>  2 0.22665343E+02</rscale>
<asrwt>0</asrwt>
<pdfrwt beam="1">  1       21 0.29896673E-02 0.22665343E+02</pdfrwt>
<pdfrwt beam="2">  1       21 0.52087316E-02 0.22665343E+02</pdfrwt>
<totfact> 0.10750467E+08</totfact>
</mgrwt>
</event>
<event>
 4    1  0.2721071E+004  0.2625390E+02  0.7546771E-02  0.1643618E+00
         21   -1    0    0  503  502  0.00000000000E+00  0.00000000000E+00  0.34505160931E+02  0.34505160931E+02  0.00000000000E+00 0.  1.
         21   -1    0    0  501  503 -0.00000000000E+00 -0.00000000000E+00 -0.22881950004E+02  0.22881950004E+02  0.00000000000E+00 0. -1.
          2    1    1    2  501    0 -0.23048059057E+02  0.12571962172E+02 -0.44142320328E+01  0.26622409801E+02  0.00000000000E+00 0. -1.
         -2    1    1    2    0  502  0.23048059057E+02 -0.12571962172E+02  0.16037442960E+02  0.30764701134E+02  0.00000000000E+00 0.  1.
<mgrwt>
<rscale>  2 0.26253900E+02</rscale>
<asrwt>0</asrwt>
<pdfrwt beam="1">  1       21 0.53084863E-02 0.26253900E+02</pdfrwt>
<pdfrwt beam="2">  1       21 0.35203000E-02 0.26253900E+02</pdfrwt>
<totfact> 0.84078734E+07</totfact>
</mgrwt>
</event>
<event>
 4    1  0.2721071E+004  0.2325305E+02  0.7546771E-02  0.1687441E+00
         21   -1    0    0  501  502  0.00000000000E+00  0.00000000000E+00  0.15032043399E+04  0.15032043399E+04  0.00000000000E+00 0. -1.
         21   -1    0    0  502  503 -0.00000000000E+00 -0.00000000000E+00 -0.46325663642E+00  0.46325663642E+00  0.00000000000E+00 0.  1.
          2    1    1    2  501    0 -0.19688444359E+02 -0.12372126518E+02  0.11068361106E+04  0.11070803404E+04  0.00000000000E+00 0. -1.
         -2    1    1    2    0  503  0.19688444359E+02  0.12372126518E+02  0.39590497264E+03  0.39658725612E+03  0.00000000000E+00 0.  1.
<mgrwt>
<rscale>  2 0.23253050E+02</rscale>
<asrwt>0</asrwt>
<pdfrwt beam="1">  1       21 0.23125830E+00 0.23253050E+02</pdfrwt>
<pdfrwt beam="2">  1       21 0.71271455E-04 0.23253050E+02</pdfrwt>
<totfact> 0.17134426E+07</totfact>
</mgrwt>
</event>
<event>
 4    1  0.2721071E+004  0.2761889E+02  0.7546771E-02  0.1626006E+00
         21   -1    0    0  501  502  0.00000000000E+00  0.00000000000E+00  0.37155354242E+02  0.37155354242E+02  0.00000000000E+00 0.  1.
         21   -1    0    0  502  503 -0.00000000000E+00 -0.00000000000E+00 -0.22976861524E+02  0.22976861524E+02  0.00000000000E+00 0. -1.
          2    1    1    2  501    0  0.10227481319E+02  0.25655441884E+02  0.16900575297E+02  0.32379507682E+02  0.00000000000E+00 0.  1.
         -2    1    1    2    0  503 -0.10227481319E+02 -0.25655441884E+02 -0.27220825791E+01  0.27752708083E+02  0.00000000000E+00 0. -1.
<mgrwt>
<rscale>  2 0.27618890E+02</rscale>
<asrwt>0</asrwt>
<pdfrwt beam="1">  1       21 0.57162084E-02 0.27618890E+02</pdfrwt>
<pdfrwt beam="2">  1       21 0.35349018E-02 0.27618890E+02</pdfrwt>
<totfact> 0.75115025E+07</totfact>
</mgrwt>
</event>
<event>
 4    1  0.2721071E+004  0.2184514E+02  0.7546771E-02  0.1710944E+00
         21   -1    0    0  503  502  0.00000000000E+00  0.00000000000E+00  0.18817472806E+02  0.18817472806E+02  0.00000000000E+00 0.  1.
         21   -1    0    0  501  503 -0.00000000000E+00 -0.00000000000E+00 -0.25741392247E+02  0.25741392247E+02  0.00000000000E+00 0. -1.
          2    1    1    2  501    0  0.10596288448E+02  0.19103108315E+02 -0.74986203941E+00  0.21858004695E+02  0.00000000000E+00 0.  1.
         -2    1    1    2    0  502 -0.10596288448E+02 -0.19103108315E+02 -0.61740574013E+01  0.22700860357E+02  0.00000000000E+00 0. -1.
<mgrwt>
<rscale>  2 0.21845139E+02</rscale>
<asrwt>0</asrwt>
<pdfrwt beam="1">  1       21 0.28949958E-02 0.21845139E+02</pdfrwt>
<pdfrwt beam="2">  1       21 0.39602142E-02 0.21845139E+02</pdfrwt>
<totfact> 0.17245658E+08</totfact>
</mgrwt>
</event>
<event>
 4    1  0.2721071E+004  0.2543985E+02  0.7546771E-02  0.1654763E+00
         21   -1    0    0  501  502  0.00000000000E+00  0.00000000000E+00  0.24069151258E+02  0.24069151258E+02  0.00000000000E+00 0. -1.
         21   -1    0    0  502  503 -0.00000000000E+00 -0.00000000000E+00 -0.69266145508E+02  0.69266145508E+02  0.00000000000E+00 0.  1.
          2    1    1    2  501    0  0.23558181740E+02 -0.96019742078E+01  0.13904060422E+02  0.28991528622E+02  0.00000000000E+00 0. -1.
         -2    1    1    2    0  503 -0.23558181740E+02  0.96019742078E+01 -0.59101054673E+02  0.64343768144E+02  0.00000000000E+00 0.  1.
<mgrwt>
<rscale>  2 0.25439847E+02</rscale>
<asrwt>0</asrwt>
<pdfrwt beam="1">  1       21 0.37029464E-02 0.25439847E+02</pdfrwt>
<pdfrwt beam="2">  1       21 0.10656330E-01 0.25439847E+02</pdfrwt>
<totfact> 0.24671760E+07</totfact>
</mgrwt>
</event>
<event>
 4    1  0.2721071E+004  0.2040533E+02  0.7546771E-02  0.1737386E+00
         21   -1    0    0  501  502  0.00000000000E+00  0.00000000000E+00  0.18161627874E+01  0.18161627874E+01  0.00000000000E+00 0.  1.
         21   -1    0    0  502  503 -0.00000000000E+00 -0.00000000000E+00 -0.27040773838E+03  0.27040773838E+03  0.00000000000E+00 0. -1.
          2    1    1    2  501    0 -0.27092356390E+01  0.20224671805E+02 -0.81201406415E+02  0.83726015736E+02  0.00000000000E+00 0.  1.
         -2    1    1    2    0  503  0.27092356390E+01 -0.20224671805E+02 -0.18739016918E+03  0.18849788543E+03  0.00000000000E+00 0. -1.
<mgrwt>
<rscale>  2 0.20405325E+02</rscale>
<asrwt>0</asrwt>
<pdfrwt beam="1">  1       21 0.27940985E-03 0.20405325E+02</pdfrwt>
<pdfrwt beam="2">  1       21 0.41601163E-01 0.20405325E+02</pdfrwt>
<totfact> 0.10392981E+08</totfact>
</mgrwt>
</event>
<event>
 4    1  0.2721071E+004  0.4363301E+02  0.7546771E-02  0.1483060E+00
         21   -1    0    0  503  502  0.00000000000E+00  0.00000000000E+00  0.10152834667E+02  0.10152834667E+02  0.00000000000E+00 0.  1.
         21   -1    0    0  501  503 -0.00000000000E+00 -0.00000000000E+00 -0.36326117439E+03  0.36326117439E+03  0.00000000000E+00 0. -1.
          2    1    1    2  501    0 -0.15476475422E+02  0.40796057829E+02 -0.30641862799E+03  0.30950963669E+03  0.00000000000E+00 0. -1.
         -2    1    1    2    0  502  0.15476475422E+02 -0.40796057829E+02 -0.46689711739E+02  0.63904372371E+02  0.00000000000E+00 0.  1.
<mgrwt>
<rscale>  2 0.43633011E+02</rscale>
<asrwt>0</asrwt>
<pdfrwt beam="1">  1       21 0.15619744E-02 0.43633011E+02</pdfrwt>
<pdfrwt beam="2">  1       21 0.55886340E-01 0.43633011E+02</pdfrwt>
<totfact> 0.50794357E+06</totfact>
</mgrwt>
</event>
<event>
 4    1  0.2721071E+004  0.2227551E+02  0.7546771E-02  0.1703530E+00
         21   -1    0    0  501  502  0.00000000000E+00  0.00000000000E+00  0.27996921644E+02  0.27996921644E+02  0.00000000000E+00 0. -1.
         21   -1    0    0  502  503 -0.00000000000E+00 -0.00000000000E+00 -0.21154860046E+02  0.21154860046E+02  0.00000000000E+00 0.  1.
          2    1    1    2  501    0  0.22177289170E+02 -0.20895000870E+01  0.13319072058E+02  0.25953725090E+02  0.00000000000E+00 0. -1.
         -2    1    1    2    0  503 -0.22177289170E+02  0.20895000870E+01 -0.64770104599E+01  0.23198056601E+02  0.00000000000E+00 0.  1.
<mgrwt>
<rscale>  2 0.22275506E+02</rscale>
<asrwt>0</asrwt>
<pdfrwt beam="1">  1       21 0.43072187E-02 0.22275506E+02</pdfrwt>
<pdfrwt beam="2">  1       21 0.32545938E-02 0.22275506E+02</pdfrwt>
<totfact> 0.12667142E+08</totfact>
</mgrwt>
</event>
<event>
 4    1  0.2721071E+004  0.2195123E+02  0.7546771E-02  0.1709097E+00
         21   -1    0    0  503  502  0.00000000000E+00  0.00000000000E+00  0.11801357106E+03  0.11801357106E+03  0.00000000000E+00 0.  1.
         21   -1    0    0  501  503 -0.00000000000E+00 -0.00000000000E+00 -0.10131870164E+02  0.10131870164E+02  0.00000000000E+00 0. -1.
          2    1    1    2  501    0  0.19933148739E+02 -0.91938174465E+01  0.44342309797E+01  0.22394622173E+02  0.00000000000E+00 0. -1.
         -2    1    1    2    0  502 -0.19933148739E+02  0.91938174465E+01  0.10344746991E+03  0.10575081905E+03  0.00000000000E+00 0.  1.
<mgrwt>
<rscale>  2 0.21951235E+02</rscale>
<asrwt>0</asrwt>
<pdfrwt beam="1">  1       21 0.18155933E-01 0.21951235E+02</pdfrwt>
<pdfrwt beam="2">  1       21 0.15587493E-02 0.21951235E+02</pdfrwt>
<totfact> 0.36827555E+07</totfact>
</mgrwt>
</event>
<event>
 4    1  0.2721071E+004  0.2176826E+02  0.7546771E-02  0.1712291E+00
         21   -1    0    0  503  502  0.00000000000E+00  0.00000000000E+00  0.74913856707E+03  0.74913856707E+03  0.00000000000E+00 0. -1.
         21   -1    0    0  501  503 -0.00000000000E+00 -0.00000000000E+00 -0.34208156316E+01  0.34208156316E+01  0.00000000000E+00 0.  1.
          2    1    1    2  501    0  0.50356960822E+01  0.21177787899E+02  0.33144342537E+02  0.39653554412E+02  0.00000000000E+00 0.  1.
         -2    1    1    2    0  502 -0.50356960822E+01 -0.21177787899E+02  0.71257340890E+03  0.71290582829E+03  0.00000000000E+00 0. -1.
<mgrwt>
<rscale>  2 0.21768255E+02</rscale>
<asrwt>0</asrwt>
<pdfrwt beam="1">  1       21 0.11525196E+00 0.21768255E+02</pdfrwt>
<pdfrwt beam="2">  1       21 0.52627992E-03 0.21768255E+02</pdfrwt>
<totfact> 0.51913006E+06</totfact>
</mgrwt>
</event>
<event>
 4    1  0.2721071E+004  0.2077695E+02  0.7546771E-02  0.1730305E+00
         21   -1    0    0  501  502  0.00000000000E+00  0.00000000000E+00  0.24783448293E+01  0.24783448293E+01  0.00000000000E+00 0. -1.
         21   -1    0    0  502  503 -0.00000000000E+00 -0.00000000000E+00 -0.21765079790E+03  0.21765079790E+03  0.00000000000E+00 0.  1.
          2    1    1    2  501    0 -0.33036230436E+01 -0.20512622269E+02 -0.58398225250E+02  0.61984145633E+02  0.00000000000E+00 0. -1.
         -2    1    1    2    0  503  0.33036230436E+01  0.20512622269E+02 -0.15677422782E+03  0.15814499709E+03  0.00000000000E+00 0.  1.
<mgrwt>
<rscale>  2 0.20776949E+02</rscale>
<asrwt>0</asrwt>
<pdfrwt beam="1">  1       21 0.38128380E-03 0.20776949E+02</pdfrwt>
<pdfrwt beam="2">  1       21 0.33484740E-01 0.20776949E+02</pdfrwt>
<totfact> 0.99475850E+07</totfact>
</mgrwt>
</event>
<event>
 4    1  0.2721071E+004  0.4225358E+02  0.7546771E-02  0.1492253E+00
         21   -1    0    0  503  502  0.00000000000E+00  0.00000000000E+00  0.54804094312E+02  0.54804094312E+02  0.00000000000E+00 0. -1.
         21   -1    0    0  501  503 -0.00000000000E+00 -0.00000000000E+00 -0.33434855732E+03  0.33434855732E+03  0.00000000000E+00 0.  1.
          2    1    1    2  501    0 -0.21675175573E+02  0.36270533928E+02 -0.32462640812E+03  0.32736473499E+03  0.00000000000E+00 0.  1.
         -2    1    1    2    0  502  0.21675175573E+02 -0.36270533928E+02  0.45081945112E+02  0.61787916639E+02  0.00000000000E+00 0. -1.
<mgrwt>
<rscale>  2 0.42253578E+02</rscale>
<asrwt>0</asrwt>
<pdfrwt beam="1">  1       21 0.84313991E-02 0.42253578E+02</pdfrwt>
<pdfrwt beam="2">  1       21 0.51438240E-01 0.42253578E+02</pdfrwt>
<totfact> 0.39845367E+05</totfact>
</mgrwt>
</event>
<event>
 4    1  0.2721071E+004  0.2185619E+02  0.7546771E-02  0.1710751E+00
         21   -1    0    0  501  502  0.00000000000E+00  0.00000000000E+00  0.12863469082E+02  0.12863469082E+02  0.00000000000E+00 0. -1.
         21   -1    0    0  502  503 -0.00000000000E+00 -0.00000000000E+00 -0.59441906707E+02  0.59441906707E+02  0.00000000000E+00 0.  1.
          2    1    1    2  501    0  0.20744908668E+02  0.68805295445E+01 -0.11425786757E+01  0.21886032269E+02  0.00000000000E+00 0. -1.
         -2    1    1    2    0  503 -0.20744908668E+02 -0.68805295445E+01 -0.45435858950E+02  0.50419343520E+02  0.00000000000E+00 0.  1.
<mgrwt>
<rscale>  2 0.21856187E+02</rscale>
<asrwt>0</asrwt>
<pdfrwt beam="1">  1       21 0.19789953E-02 0.21856187E+02</pdfrwt>
<pdfrwt beam="2">  1       21 0.91449086E-02 0.21856187E+02</pdfrwt>
<totfact> 0.80954162E+07</totfact>
</mgrwt>
</event>
<event>
 4    1  0.2721071E+004  0.2618450E+02  0.7546771E-02  0.1644549E+00
         21   -1    0    0  501  502  0.00000000000E+00  0.00000000000E+00  0.41997969117E+01  0.41997969117E+01  0.00000000000E+00 0.  1.
         21   -1    0    0  502  503 -0.00000000000E+00 -0.00000000000E+00 -0.17706601157E+03  0.17706601157E+03  0.00000000000E+00 0. -1.
          2    1    1    2  501    0 -0.17718794145E+02 -0.19278812820E+02 -0.61118755762E+02  0.66491582893E+02  0.00000000000E+00 0. -1.
         -2    1    1    2    0  503  0.17718794145E+02  0.19278812820E+02 -0.11174745889E+03  0.11477422559E+03  0.00000000000E+00 0.  1.
<mgrwt>
<rscale>  2 0.26184505E+02</rscale>
<asrwt>0</asrwt>
<pdfrwt beam="1">  1       21 0.64612273E-03 0.26184505E+02</pdfrwt>
<pdfrwt beam="2">  1       21 0.27240920E-01 0.26184505E+02</pdfrwt>
<totfact> 0.70635559E+07</totfact>
</mgrwt>
</event>
<event>
 4    1  0.2721071E+004  0.3623457E+02  0.7546771E-02  0.1537903E+00
         21   -1    0    0  503  502  0.00000000000E+00  0.00000000000E+00  0.26910311329E+02  0.26910311329E+02  0.00000000000E+00 0. -1.
         21   -1    0    0  501  503 -0.00000000000E+00 -0.00000000000E+00 -0.57370711497E+02  0.57370711497E+02  0.00000000000E+00 0.  1.
          2    1    1    2  501    0  0.28828892989E+02  0.21950836128E+02 -0.31527871630E+02  0.48030729405E+02  0.00000000000E+00 0.  1.
         -2    1    1    2    0  502 -0.28828892989E+02 -0.21950836128E+02  0.10674714615E+01  0.36250293420E+02  0.00000000000E+00 0. -1.
<mgrwt>
<rscale>  2 0.36234573E+02</rscale>
<asrwt>0</asrwt>
<pdfrwt beam="1">  1       21 0.41400480E-02 0.36234573E+02</pdfrwt>
<pdfrwt beam="2">  1       21 0.88262632E-02 0.36234573E+02</pdfrwt>
<totfact> 0.30362521E+07</totfact>
</mgrwt>
</event>
<event>
 4    1  0.2721071E+004  0.2754317E+02  0.7546771E-02  0.1626950E+00
         21   -1    0    0  503  502  0.00000000000E+00  0.00000000000E+00  0.26017358531E+02  0.26017358531E+02  0.00000000000E+00 0. -1.
         21   -1    0    0  501  503 -0.00000000000E+00 -0.00000000000E+00 -0.60158259504E+02  0.60158259504E+02  0.00000000000E+00 0.  1.
          2    1    1    2  501    0 -0.24529715812E+02 -0.12526731309E+02 -0.48000902258E+02  0.55341779630E+02  0.00000000000E+00 0.  1.
         -2    1    1    2    0  502  0.24529715812E+02  0.12526731309E+02  0.13860001285E+02  0.30833838404E+02  0.00000000000E+00 0. -1.
<mgrwt>
<rscale>  2 0.27543165E+02</rscale>
<asrwt>0</asrwt>
<pdfrwt beam="1">  1       21 0.40026706E-02 0.27543165E+02</pdfrwt>
<pdfrwt beam="2">  1       21 0.92551167E-02 0.27543165E+02</pdfrwt>
<totfact> 0.28045691E+07</totfact>
</mgrwt>
</event>
<event>
 4    1  0.2721071E+004  0.2211475E+02  0.7546771E-02  0.1706275E+00
         21   -1    0    0  503  502  0.00000000000E+00  0.00000000000E+00  0.11095608217E+02  0.11095608217E+02  0.00000000000E+00 0.  1.
         21   -1    0    0  501  503 -0.00000000000E+00 -0.00000000000E+00 -0.50336828009E+02  0.50336828009E+02  0.00000000000E+00 0. -1.
          2    1    1    2  501    0 -0.18233457983E+02  0.12514119469E+02 -0.30452462198E+02  0.37635284375E+02  0.00000000000E+00 0.  1.
         -2    1    1    2    0  502  0.18233457983E+02 -0.12514119469E+02 -0.87887575945E+01  0.23797151850E+02  0.00000000000E+00 0. -1.
<mgrwt>
<rscale>  2 0.22114750E+02</rscale>
<asrwt>0</asrwt>
<pdfrwt beam="1">  1       21 0.17070167E-02 0.22114750E+02</pdfrwt>
<pdfrwt beam="2">  1       21 0.77441273E-02 0.22114750E+02</pdfrwt>
<totfact> 0.13357918E+08</totfact>
</mgrwt>
</event>
<event>
 4    1  0.2721071E+004  0.3627976E+02  0.7546771E-02  0.1537521E+00
         21   -1    0    0  503  502  0.00000000000E+00  0.00000000000E+00  0.45501630985E+03  0.45501630985E+03  0.00000000000E+00 0.  1.
         21   -1    0    0  501  503 -0.00000000000E+00 -0.00000000000E+00 -0.47436238985E+01  0.47436238985E+01  0.00000000000E+00 0. -1.
          2    1    1    2  501    0 -0.17494855708E+01 -0.36237556627E+02  0.81540642828E+02  0.89247395720E+02  0.00000000000E+00 0. -1.
         -2    1    1    2    0  502  0.17494855708E+01  0.36237556627E+02  0.36873204312E+03  0.37051253803E+03  0.00000000000E+00 0.  1.
<mgrwt>
<rscale>  2 0.36279763E+02</rscale>
<asrwt>0</asrwt>
<pdfrwt beam="1">  1       21 0.70002475E-01 0.36279763E+02</pdfrwt>
<pdfrwt beam="2">  1       21 0.72978865E-03 0.36279763E+02</pdfrwt>
<totfact> 0.10042490E+07</totfact>
</mgrwt>
</event>
<event>
 4    1  0.2721071E+004  0.2153909E+02  0.7546771E-02  0.1716347E+00
         21   -1    0    0  501  502  0.00000000000E+00  0.00000000000E+00  0.17293185567E+02  0.17293185567E+02  0.00000000000E+00 0.  1.
         21   -1    0    0  502  503 -0.00000000000E+00 -0.00000000000E+00 -0.30663180279E+02  0.30663180279E+02  0.00000000000E+00 0. -1.
          2    1    1    2  501    0  0.20929403042E+02  0.50884505109E+01  0.17956918415E+01  0.21613809232E+02  0.00000000000E+00 0.  1.
         -2    1    1    2    0  503 -0.20929403042E+02 -0.50884505109E+01 -0.15165686554E+02  0.26342556614E+02  0.00000000000E+00 0. -1.
<mgrwt>
<rscale>  2 0.21539086E+02</rscale>
<asrwt>0</asrwt>
<pdfrwt beam="1">  1       21 0.26604901E-02 0.21539086E+02</pdfrwt>
<pdfrwt beam="2">  1       21 0.47174123E-02 0.21539086E+02</pdfrwt>
<totfact> 0.14849993E+08</totfact>
</mgrwt>
</event>
<event>
 4    1  0.2721071E+004  0.2006999E+02  0.7546771E-02  0.1743940E+00
         21   -1    0    0  501  502  0.00000000000E+00  0.00000000000E+00  0.14261979207E+03  0.14261979207E+03  0.00000000000E+00 0. -1.
         21   -1    0    0  502  503 -0.00000000000E+00 -0.00000000000E+00 -0.43658736383E+01  0.43658736383E+01  0.00000000000E+00 0.  1.
          2    1    1    2  501    0  0.42404377722E+01 -0.19616913939E+02  0.11279744692E+03  0.11456905628E+03  0.00000000000E+00 0.  1.
         -2    1    1    2    0  503 -0.42404377722E+01  0.19616913939E+02  0.25456471505E+02  0.32416609422E+02  0.00000000000E+00 0. -1.
<mgrwt>
<rscale>  2 0.20069993E+02</rscale>
<asrwt>0</asrwt>
<pdfrwt beam="1">  1       21 0.21941503E-01 0.20069993E+02</pdfrwt>
<pdfrwt beam="2">  1       21 0.67167298E-03 0.20069993E+02</pdfrwt>
<totfact> 0.91360552E+07</totfact>
</mgrwt>
</event>
<event>
 4    1  0.2721071E+004  0.2224421E+02  0.7546771E-02  0.1704062E+00
         21   -1    0    0  501  502  0.00000000000E+00  0.00000000000E+00  0.69916706644E+01  0.69916706644E+01  0.00000000000E+00 0.  1.
         21   -1    0    0  502  503 -0.00000000000E+00 -0.00000000000E+00 -0.32185944864E+03  0.32185944864E+03  0.00000000000E+00 0. -1.
          2    1    1    2  501    0 -0.16006892733E+02 -0.15446171881E+02 -0.12206043020E+02  0.25373063018E+02  0.00000000000E+00 0.  1.
         -2    1    1    2    0  503  0.16006892733E+02  0.15446171881E+02 -0.30266173495E+03  0.30347805628E+03  0.00000000000E+00 0. -1.
<mgrwt>
<rscale>  2 0.22244209E+02</rscale>
<asrwt>0</asrwt>
<pdfrwt beam="1">  1       21 0.10756414E-02 0.22244209E+02</pdfrwt>
<pdfrwt beam="2">  1       21 0.49516851E-01 0.22244209E+02</pdfrwt>
<totfact> 0.10408198E+07</totfact>
</mgrwt>
</event>
<event>
 4    1  0.2721071E+004  0.2439013E+02  0.7546771E-02  0.1669919E+00
         21   -1    0    0  503  502  0.00000000000E+00  0.00000000000E+00  0.38763757626E+03  0.38763757626E+03  0.00000000000E+00 0. -1.
         21   -1    0    0  501  503 -0.00000000000E+00 -0.00000000000E+00 -0.15386214749E+01  0.15386214749E+01  0.00000000000E+00 0.  1.
          2    1    1    2  501    0 -0.11645367033E+02  0.21430442426E+02  0.20296628854E+03  0.20442649710E+03  0.00000000000E+00 0. -1.
         -2    1    1    2    0  502  0.11645367033E+02 -0.21430442426E+02  0.18313266625E+03  0.18474970063E+03  0.00000000000E+00 0.  1.
<mgrwt>
<rscale>  2 0.24390130E+02</rscale>
<asrwt>0</asrwt>
<pdfrwt beam="1">  1       21 0.59636472E-01 0.24390130E+02</pdfrwt>
<pdfrwt beam="2">  1       21 0.23671130E-03 0.24390130E+02</pdfrwt>
<totfact> 0.68784603E+07</totfact>
</mgrwt>
</event>
<event>
 4    1  0.2721071E+004  0.2746438E+02  0.7546771E-02  0.1627936E+00
         21   -1    0    0  501  502  0.00000000000E+00  0.00000000000E+00  0.64005895161E+03  0.64005895161E+03  0.00000000000E+00 0.  1.
         21   -1    0    0  502  503 -0.00000000000E+00 -0.00000000000E+00 -0.23653079048E+01  0.23653079048E+01  0.00000000000E+00 0. -1.
          2    1    1    2  501    0  0.17410752682E+02  0.21240479877E+02  0.54637920812E+03  0.54706903711E+03  0.00000000000E+00 0.  1.
         -2    1    1    2    0  503 -0.17410752682E+02 -0.21240479877E+02  0.91314435583E+02  0.95355222407E+02  0.00000000000E+00 0. -1.
<mgrwt>
<rscale>  2 0.27464382E+02</rscale>
<asrwt>0</asrwt>
<pdfrwt beam="1">  1       21 0.98470470E-01 0.27464382E+02</pdfrwt>
<pdfrwt beam="2">  1       21 0.36389403E-03 0.27464382E+02</pdfrwt>
<totfact> 0.13126366E+07</totfact>
</mgrwt>
</event>
<event>
 4    1  0.2721071E+004  0.2340790E+02  0.7546771E-02  0.1684982E+00
         21   -1    0    0  503  502  0.00000000000E+00  0.00000000000E+00  0.44666342783E+02  0.44666342783E+02  0.00000000000E+00 0. -1.
         21   -1    0    0  501  503 -0.00000000000E+00 -0.00000000000E+00 -0.13256619552E+02  0.13256619552E+02  0.00000000000E+00 0.  1.
          2    1    1    2  501    0  0.52031321919E+01 -0.22822294688E+02  0.77925986398E+01  0.24670920392E+02  0.00000000000E+00 0.  1.
         -2    1    1    2    0  502 -0.52031321919E+01  0.22822294688E+02  0.23617124591E+02  0.33252041943E+02  0.00000000000E+00 0. -1.
<mgrwt>
<rscale>  2 0.23407899E+02</rscale>
<asrwt>0</asrwt>
<pdfrwt beam="1">  1       21 0.68717450E-02 0.23407899E+02</pdfrwt>
<pdfrwt beam="2">  1       21 0.20394800E-02 0.23407899E+02</pdfrwt>
<totfact> 0.12561657E+08</totfact>
</mgrwt>
</event>
<event>
 4    1  0.2721071E+004  0.2216784E+02  0.7546771E-02  0.1705365E+00
         21   -1    0    0  503  502  0.00000000000E+00  0.00000000000E+00  0.32510541939E+02  0.32510541939E+02  0.00000000000E+00 0.  1.
         21   -1    0    0  501  503 -0.00000000000E+00 -0.00000000000E+00 -0.15115527368E+02  0.15115527368E+02  0.00000000000E+00 0. -1.
          2    1    1    2  501    0  0.97177883913E+01 -0.19924303697E+02  0.86691395558E+01  0.23802673582E+02  0.00000000000E+00 0. -1.
         -2    1    1    2    0  502 -0.97177883913E+01  0.19924303697E+02  0.87258750156E+01  0.23823395724E+02  0.00000000000E+00 0.  1.
<mgrwt>
<rscale>  2 0.22167844E+02</rscale>
<asrwt>0</asrwt>
<pdfrwt beam="1">  1       21 0.50016218E-02 0.22167844E+02</pdfrwt>
<pdfrwt beam="2">  1       21 0.23254658E-02 0.22167844E+02</pdfrwt>
<totfact> 0.16806797E+08</totfact>
</mgrwt>
</event>
<event>
 4    1  0.2721071E+004  0.3197058E+02  0.7546771E-02  0.1577275E+00
         21   -1    0    0  501  502  0.00000000000E+00  0.00000000000E+00  0.10331098759E+04  0.10331098759E+04  0.00000000000E+00 0.  1.
         21   -1    0    0  502  503 -0.00000000000E+00 -0.00000000000E+00 -0.16866205333E+01  0.16866205333E+01  0.00000000000E+00 0. -1.
          2    1    1    2  501    0 -0.11995257773E+01 -0.31948069784E+02  0.84838165370E+03  0.84898383280E+03  0.00000000000E+00 0.  1.
         -2    1    1    2    0  503  0.11995257773E+01  0.31948069784E+02  0.18304160168E+03  0.18581266365E+03  0.00000000000E+00 0. -1.
<mgrwt>
<rscale>  2 0.31970581E+02</rscale>
<asrwt>0</asrwt>
<pdfrwt beam="1">  1       21 0.15893947E+00 0.31970581E+02</pdfrwt>
<pdfrwt beam="2">  1       21 0.25948091E-03 0.31970581E+02</pdfrwt>
<totfact> 0.72543579E+06</totfact>
</mgrwt>
</event>
<event>
 4    1  0.2721071E+004  0.3771382E+02  0.7546771E-02  0.1525742E+00
         21   -1    0    0  503  502  0.00000000000E+00  0.00000000000E+00  0.96721149716E+01  0.96721149716E+01  0.00000000000E+00 0.  1.
         21   -1    0    0  501  503 -0.00000000000E+00 -0.00000000000E+00 -0.45834694295E+03  0.45834694295E+03  0.00000000000E+00 0. -1.
          2    1    1    2  501    0 -0.21464126913E+01 -0.37652690711E+02 -0.41718773260E+03  0.41888893091E+03  0.00000000000E+00 0. -1.
         -2    1    1    2    0  502  0.21464126913E+01  0.37652690711E+02 -0.31487095384E+02  0.49130127019E+02  0.00000000000E+00 0.  1.
<mgrwt>
<rscale>  2 0.37713820E+02</rscale>
<asrwt>0</asrwt>
<pdfrwt beam="1">  1       21 0.14880182E-02 0.37713820E+02</pdfrwt>
<pdfrwt beam="2">  1       21 0.70514891E-01 0.37713820E+02</pdfrwt>
<totfact> 0.33446682E+06</totfact>
</mgrwt>
</event>
<event>
 4    1  0.2721071E+004  0.2196095E+02  0.7546771E-02  0.1708928E+00
         21   -1    0    0  501  502  0.00000000000E+00  0.00000000000E+00  0.16070312956E+04  0.16070312956E+04  0.00000000000E+00 0.  1.
         21   -1    0    0  502  503 -0.00000000000E+00 -0.00000000000E+00 -0.59156992195E+01  0.59156992195E+01  0.00000000000E+00 0. -1.
          2    1    1    2  501    0  0.10165106781E+02 -0.19466742419E+02  0.15863085202E+04  0.15864605273E+04  0.00000000000E+00 0.  1.
         -2    1    1    2    0  503 -0.10165106781E+02  0.19466742419E+02  0.14807076190E+02  0.26486467518E+02  0.00000000000E+00 0. -1.
<mgrwt>
<rscale>  2 0.21960953E+02</rscale>
<asrwt>0</asrwt>
<pdfrwt beam="1">  1       21 0.24723524E+00 0.21960953E+02</pdfrwt>
<pdfrwt beam="2">  1       21 0.91010885E-03 0.21960953E+02</pdfrwt>
<totfact> 0.35130423E+05</totfact>
</mgrwt>
</event>
<event>
 4    1  0.2721071E+004  0.3300850E+02  0.7546771E-02  0.1567032E+00
         21   -1    0    0  501  502  0.00000000000E+00  0.00000000000E+00  0.26152816683E+02  0.26152816683E+02  0.00000000000E+00 0.  1.
         21   -1    0    0  502  503 -0.00000000000E+00 -0.00000000000E+00 -0.41675105810E+02  0.41675105810E+02  0.00000000000E+00 0. -1.
          2    1    1    2  501    0  0.11328441570E+02  0.31003669605E+02 -0.83777453661E+01  0.34055069150E+02  0.00000000000E+00 0. -1.
         -2    1    1    2    0  503 -0.11328441570E+02 -0.31003669605E+02 -0.71445437613E+01  0.33772853343E+02  0.00000000000E+00 0.  1.
<mgrwt>
<rscale>  2 0.33008501E+02</rscale>
<asrwt>0</asrwt>
<pdfrwt beam="1">  1       21 0.40235103E-02 0.33008501E+02</pdfrwt>
<pdfrwt beam="2">  1       21 0.64115547E-02 0.33008501E+02</pdfrwt>
<totfact> 0.52885076E+07</totfact>
</mgrwt>
</event>
<event>
 4    1  0.2721071E+004  0.2859110E+02  0.7546771E-02  0.1614205E+00
         21   -1    0    0  501  502  0.00000000000E+00  0.00000000000E+00  0.99103253244E+00  0.99103253244E+00  0.00000000000E+00 0. -1.
         21   -1    0    0  502  503 -0.00000000000E+00 -0.00000000000E+00 -0.85395771431E+03  0.85395771431E+03  0.00000000000E+00 0.  1.
          2    1    1    2  501    0  0.79086758860E+01  0.27475514649E+02 -0.50540786066E+03  0.50621591902E+03  0.00000000000E+00 0. -1.
         -2    1    1    2    0  503 -0.79086758860E+01 -0.27475514649E+02 -0.34755882112E+03  0.34873282782E+03  0.00000000000E+00 0.  1.
<mgrwt>
<rscale>  2 0.28591101E+02</rscale>
<asrwt>0</asrwt>
<pdfrwt beam="1">  1       21 0.15246683E-03 0.28591101E+02</pdfrwt>
<pdfrwt beam="2">  1       21 0.13137787E+00 0.28591101E+02</pdfrwt>
<totfact> 0.24454032E+07</totfact>
</mgrwt>
</event>
<event>
 4    1  0.2721071E+004  0.2757729E+02  0.7546771E-02  0.1626524E+00
         21   -1    0    0  501  502  0.00000000000E+00  0.00000000000E+00  0.24861384394E+03  0.24861384394E+03  0.00000000000E+00 0. -1.
         21   -1    0    0  502  503 -0.00000000000E+00 -0.00000000000E+00 -0.22876203781E+02  0.22876203781E+02  0.00000000000E+00 0.  1.
          2    1    1    2  501    0 -0.15660708579E+02  0.22699096853E+02  0.23921242313E+03  0.24079678189E+03  0.00000000000E+00 0. -1.
         -2    1    1    2    0  503  0.15660708579E+02 -0.22699096853E+02 -0.13474782968E+02  0.30693265828E+02  0.00000000000E+00 0.  1.
<mgrwt>
<rscale>  2 0.27577288E+02</rscale>
<asrwt>0</asrwt>
<pdfrwt beam="1">  1       21 0.38248282E-01 0.27577288E+02</pdfrwt>
<pdfrwt beam="2">  1       21 0.35194162E-02 0.27577288E+02</pdfrwt>
<totfact> 0.28446344E+06</totfact>
</mgrwt>
</event>
<event>
 4    1  0.2721071E+004  0.2202343E+02  0.7546771E-02  0.1707847E+00
         21   -1    0    0  503  502  0.00000000000E+00  0.00000000000E+00  0.26335480918E+03  0.26335480918E+03  0.00000000000E+00 0. -1.
         21   -1    0    0  501  503 -0.00000000000E+00 -0.00000000000E+00 -0.26306655524E+01  0.26306655524E+01  0.00000000000E+00 0.  1.
          2    1    1    2  501    0 -0.22020348896E+02  0.36849082252E+00  0.57531682457E+02  0.61602971011E+02  0.00000000000E+00 0.  1.
         -2    1    1    2    0  502  0.22020348896E+02 -0.36849082252E+00  0.20319246117E+03  0.20438250372E+03  0.00000000000E+00 0. -1.
<mgrwt>
<rscale>  2 0.22023432E+02</rscale>
<asrwt>0</asrwt>
<pdfrwt beam="1">  1       21 0.40516104E-01 0.22023432E+02</pdfrwt>
<pdfrwt beam="2">  1       21 0.40471798E-03 0.22023432E+02</pdfrwt>
<totfact> 0.64965600E+07</totfact>
</mgrwt>
</event>
<event>
 4    1  0.2721071E+004  0.2848707E+02  0.7546771E-02  0.1615440E+00
         21   -1    0    0  503  502  0.00000000000E+00  0.00000000000E+00  0.10320780541E+04  0.10320780541E+04  0.00000000000E+00 0. -1.
         21   -1    0    0  501  503 -0.00000000000E+00 -0.00000000000E+00 -0.88325672191E+00  0.88325672191E+00  0.00000000000E+00 0.  1.
          2    1    1    2  501    0  0.24942356710E+02  0.13761980432E+02  0.34446957924E+03  0.34564548932E+03  0.00000000000E+00 0.  1.
         -2    1    1    2    0  502 -0.24942356710E+02 -0.13761980432E+02  0.68672521809E+03  0.68731582146E+03  0.00000000000E+00 0. -1.
<mgrwt>
<rscale>  2 0.28487072E+02</rscale>
<asrwt>0</asrwt>
<pdfrwt beam="1">  1       21 0.15878027E+00 0.28487072E+02</pdfrwt>
<pdfrwt beam="2">  1       21 0.13588648E-03 0.28487072E+02</pdfrwt>
<totfact> 0.18379002E+07</totfact>
</mgrwt>
</event>
<event>
 4    1  0.2721071E+004  0.2844429E+02  0.7546771E-02  0.1615950E+00
         21   -1    0    0  501  502  0.00000000000E+00  0.00000000000E+00  0.10289500683E+03  0.10289500683E+03  0.00000000000E+00 0. -1.
         21   -1    0    0  502  503 -0.00000000000E+00 -0.00000000000E+00 -0.43843858607E+02  0.43843858607E+02  0.00000000000E+00 0.  1.
          2    1    1    2  501    0  0.27901262085E+00 -0.28442921736E+02  0.95990986698E+02  0.10011666780E+03  0.00000000000E+00 0. -1.
         -2    1    1    2    0  503 -0.27901262085E+00  0.28442921736E+02 -0.36939838479E+02  0.46622197629E+02  0.00000000000E+00 0.  1.
<mgrwt>
<rscale>  2 0.28444290E+02</rscale>
<asrwt>0</asrwt>
<pdfrwt beam="1">  1       21 0.15830001E-01 0.28444290E+02</pdfrwt>
<pdfrwt beam="2">  1       21 0.67452090E-02 0.28444290E+02</pdfrwt>
<totfact> 0.49221418E+06</totfact>
</mgrwt>
</event>
<event>
 4    1  0.2721071E+004  0.2085983E+02  0.7546771E-02  0.1728751E+00
         21   -1    0    0  503  502  0.00000000000E+00  0.00000000000E+00  0.29173338342E+02  0.29173338342E+02  0.00000000000E+00 0. -1.
         21   -1    0    0  501  503 -0.00000000000E+00 -0.00000000000E+00 -0.80248353818E+02  0.80248353818E+02  0.00000000000E+00 0.  1.
          2    1    1    2  501    0  0.65193636877E+01  0.19814901860E+02 -0.74902771642E+02  0.77753184104E+02  0.00000000000E+00 0.  1.
         -2    1    1    2    0  502 -0.65193636877E+01 -0.19814901860E+02  0.23827756166E+02  0.31668508056E+02  0.00000000000E+00 0. -1.
<mgrwt>
<rscale>  2 0.20859828E+02</rscale>
<asrwt>0</asrwt>
<pdfrwt beam="1">  1       21 0.44882060E-02 0.20859828E+02</pdfrwt>
<pdfrwt beam="2">  1       21 0.12345900E-01 0.20859828E+02</pdfrwt>
<totfact> 0.13650686E+07</totfact>
</mgrwt>
</event>
<event>
 4    1  0.2721071E+004  0.3863726E+02  0.7546771E-02  0.1518486E+00
         21   -1    0    0  503  502  0.00000000000E+00  0.00000000000E+00  0.42209960596E+03  0.42209960596E+03  0.00000000000E+00 0. -1.
         21   -1    0    0  501  503 -0.00000000000E+00 -0.00000000000E+00 -0.69652991949E+01  0.69652991949E+01  0.00000000000E+00 0.  1.
          2    1    1    2  501    0 -0.28118869803E+02  0.26498434374E+02  0.57051474755E+02  0.68903618446E+02  0.00000000000E+00 0.  1.
         -2    1    1    2    0  502  0.28118869803E+02 -0.26498434374E+02  0.35808283201E+03  0.36016128671E+03  0.00000000000E+00 0. -1.
<mgrwt>
<rscale>  2 0.38637260E+02</rscale>
<asrwt>0</asrwt>
<pdfrwt beam="1">  1       21 0.64938381E-01 0.38637260E+02</pdfrwt>
<pdfrwt beam="2">  1       21 0.10715848E-02 0.38637260E+02</pdfrwt>
<totfact> 0.65941128E+06</totfact>
</mgrwt>
</event>
<event>
 4    1  0.2721071E+004  0.3763284E+02  0.7546771E-02  0.1526391E+00
         21   -1    0    0  501  502  0.00000000000E+00  0.00000000000E+00  0.53800935679E+02  0.53800935679E+02  0.00000000000E+00 0. -1.
         21   -1    0    0  502  503 -0.00000000000E+00 -0.00000000000E+00 -0.29910713349E+02  0.29910713349E+02  0.00000000000E+00 0.  1.
          2    1    1    2  501    0 -0.11583868102E+02 -0.35805646119E+02  0.26440156737E+02  0.45992523115E+02  0.00000000000E+00 0.  1.
         -2    1    1    2    0  503  0.11583868102E+02  0.35805646119E+02 -0.25499344072E+01  0.37719125913E+02  0.00000000000E+00 0. -1.
<mgrwt>
<rscale>  2 0.37632835E+02</rscale>
<asrwt>0</asrwt>
<pdfrwt beam="1">  1       21 0.82770670E-02 0.37632835E+02</pdfrwt>
<pdfrwt beam="2">  1       21 0.46016482E-02 0.37632835E+02</pdfrwt>
<totfact> 0.28700017E+07</totfact>
</mgrwt>
</event>
<event>
 4    1  0.2721071E+004  0.2074385E+02  0.7546771E-02  0.1730928E+00
         21   -1    0    0  503  502  0.00000000000E+00  0.00000000000E+00  0.11561216552E+02  0.11561216552E+02  0.00000000000E+00 0.  1.
         21   -1    0    0  501  503 -0.00000000000E+00 -0.00000000000E+00 -0.37829824598E+02  0.37829824598E+02  0.00000000000E+00 0. -1.
          2    1    1    2  501    0 -0.18678734370E+02  0.90228772231E+01 -0.16270013350E+02  0.26363246489E+02  0.00000000000E+00 0. -1.
         -2    1    1    2    0  502  0.18678734370E+02 -0.90228772231E+01 -0.99985946951E+01  0.23027794661E+02  0.00000000000E+00 0.  1.
<mgrwt>
<rscale>  2 0.20743853E+02</rscale>
<asrwt>0</asrwt>
<pdfrwt beam="1">  1       21 0.17786487E-02 0.20743853E+02</pdfrwt>
<pdfrwt beam="2">  1       21 0.58199729E-02 0.20743853E+02</pdfrwt>
<totfact> 0.19489814E+08</totfact>
</mgrwt>
</event>
<event>
 4    1  0.2721071E+004  0.2569220E+02  0.7546771E-02  0.1651254E+00
         21   -1    0    0  501  502  0.00000000000E+00  0.00000000000E+00  0.53672978886E+02  0.53672978886E+02  0.00000000000E+00 0.  1.
         21   -1    0    0  502  503 -0.00000000000E+00 -0.00000000000E+00 -0.13936250321E+02  0.13936250321E+02  0.00000000000E+00 0. -1.
          2    1    1    2  501    0  0.12749870444E+02  0.22305374327E+02  0.31457395913E+02  0.40615965799E+02  0.00000000000E+00 0.  1.
         -2    1    1    2    0  503 -0.12749870444E+02 -0.22305374327E+02  0.82793326527E+01  0.26993263407E+02  0.00000000000E+00 0. -1.
<mgrwt>
<rscale>  2 0.25692196E+02</rscale>
<asrwt>0</asrwt>
<pdfrwt beam="1">  1       21 0.82573813E-02 0.25692196E+02</pdfrwt>
<pdfrwt beam="2">  1       21 0.21440385E-02 0.25692196E+02</pdfrwt>
<totfact> 0.88448530E+07</totfact>
</mgrwt>
</event>
<event>
 4    1  0.2721071E+004  0.3873215E+02  0.7546771E-02  0.1517754E+00
         21   -1    0    0  503  502  0.00000000000E+00  0.00000000000E+00  0.31443736202E+02  0.31443736202E+02  0.00000000000E+00 0.  1.
         21   -1    0    0  501  503 -0.00000000000E+00 -0.00000000000E+00 -0.54151237979E+02  0.54151237979E+02  0.00000000000E+00 0. -1.
          2    1    1    2  501    0 -0.19525875976E+01  0.38682896236E+02 -0.26114230081E+02  0.46713296526E+02  0.00000000000E+00 0. -1.
         -2    1    1    2    0  502  0.19525875976E+01 -0.38682896236E+02  0.34067283045E+01  0.38881677655E+02  0.00000000000E+00 0.  1.
<mgrwt>
<rscale>  2 0.38732145E+02</rscale>
<asrwt>0</asrwt>
<pdfrwt beam="1">  1       21 0.48374980E-02 0.38732145E+02</pdfrwt>
<pdfrwt beam="2">  1       21 0.83309596E-02 0.38732145E+02</pdfrwt>
<totfact> 0.26317760E+07</totfact>
</mgrwt>
</event>
<event>
 4    1  0.2721071E+004  0.2082498E+02  0.7546771E-02  0.1729403E+00
         21   -1    0    0  501  502  0.00000000000E+00  0.00000000000E+00  0.11158528214E+03  0.11158528214E+03  0.00000000000E+00 0. -1.
         21   -1    0    0  502  503 -0.00000000000E+00 -0.00000000000E+00 -0.59084189044E+01  0.59084189044E+01  0.00000000000E+00 0.  1.
          2    1    1    2  501    0 -0.18774328621E+02 -0.90113418071E+01  0.87204310045E+02  0.89656407393E+02  0.00000000000E+00 0. -1.
         -2    1    1    2    0  503  0.18774328621E+02  0.90113418071E+01  0.18472553186E+02  0.27837293646E+02  0.00000000000E+00 0.  1.
<mgrwt>
<rscale>  2 0.20824978E+02</rscale>
<asrwt>0</asrwt>
<pdfrwt beam="1">  1       21 0.17166965E-01 0.20824978E+02</pdfrwt>
<pdfrwt beam="2">  1       21 0.90898761E-03 0.20824978E+02</pdfrwt>
<totfact> 0.90081099E+07</totfact>
</mgrwt>
</event>
<event>
 4    1  0.2721071E+004  0.2270172E+02  0.7546771E-02  0.1696391E+00
         21   -1    0    0  503  502  0.00000000000E+00  0.00000000000E+00  0.13655325491E+04  0.13655325491E+04  0.00000000000E+00 0. -1.
         21   -1    0    0  501  503 -0.00000000000E+00 -0.00000000000E+00 -0.43376772013E+00  0.43376772013E+00  0.00000000000E+00 0.  1.
          2    1    1    2  501    0 -0.20574432307E+02  0.95948225079E+01  0.43636996456E+03  0.43696008268E+03  0.00000000000E+00 0.  1.
         -2    1    1    2    0  502  0.20574432307E+02 -0.95948225079E+01  0.92872881685E+03  0.92900623417E+03  0.00000000000E+00 0. -1.
<mgrwt>
<rscale>  2 0.22701715E+02</rscale>
<asrwt>0</asrwt>
<pdfrwt beam="1">  1       21 0.21007849E+00 0.22701715E+02</pdfrwt>
<pdfrwt beam="2">  1       21 0.66734589E-04 0.22701715E+02</pdfrwt>
<totfact> 0.24240806E+07</totfact>
</mgrwt>
</event>
<event>
 4    1  0.2721071E+004  0.2296755E+02  0.7546771E-02  0.1692037E+00
         21   -1    0    0  503  502  0.00000000000E+00  0.00000000000E+00  0.93377439411E+03  0.93377439411E+03  0.00000000000E+00 0.  1.
         21   -1    0    0  501  503 -0.00000000000E+00 -0.00000000000E+00 -0.59396537701E+00  0.59396537701E+00  0.00000000000E+00 0. -1.
          2    1    1    2  501    0  0.19476859846E+02  0.12172102360E+02  0.36327993097E+03  0.36400524226E+03  0.00000000000E+00 0. -1.
         -2    1    1    2    0  502 -0.19476859846E+02 -0.12172102360E+02  0.56990049776E+03  0.57036311723E+03  0.00000000000E+00 0.  1.
<mgrwt>
<rscale>  2 0.22967545E+02</rscale>
<asrwt>0</asrwt>
<pdfrwt beam="1">  1       21 0.14365642E+00 0.22967545E+02</pdfrwt>
<pdfrwt beam="2">  1       21 0.91380036E-04 0.22967545E+02</pdfrwt>
<totfact> 0.39757441E+07</totfact>
</mgrwt>
</event>
<event>
 4    1  0.2721071E+004  0.2365673E+02  0.7546771E-02  0.1681081E+00
         21   -1    0    0  501  502  0.00000000000E+00  0.00000000000E+00  0.78115743018E+02  0.78115743018E+02  0.00000000000E+00 0. -1.
         21   -1    0    0  502  503 -0.00000000000E+00 -0.00000000000E+00 -0.71670011025E+01  0.71670011025E+01  0.00000000000E+00 0.  1.
          2    1    1    2  501    0  0.19104032881E+02  0.13952659614E+02  0.34639067330E+02  0.41946463118E+02  0.00000000000E+00 0.  1.
         -2    1    1    2    0  503 -0.19104032881E+02 -0.13952659614E+02  0.36309674585E+02  0.43336281002E+02  0.00000000000E+00 0. -1.
<mgrwt>
<rscale>  2 0.23656728E+02</rscale>
<asrwt>0</asrwt>
<pdfrwt beam="1">  1       21 0.12017806E-01 0.23656728E+02</pdfrwt>
<pdfrwt beam="2">  1       21 0.11026156E-02 0.23656728E+02</pdfrwt>
<totfact> 0.12796653E+08</totfact>
</mgrwt>
</event>
<event>
 4    1  0.2721071E+004  0.3281644E+02  0.7546771E-02  0.1568892E+00
         21   -1    0    0  503  502  0.00000000000E+00  0.00000000000E+00  0.13009975430E+03  0.13009975430E+03  0.00000000000E+00 0. -1.
         21   -1    0    0  501  503 -0.00000000000E+00 -0.00000000000E+00 -0.94786466795E+01  0.94786466795E+01  0.00000000000E+00 0.  1.
          2    1    1    2  501    0  0.17539964777E+01 -0.32769527944E+02  0.35468447676E+02  0.48321105595E+02  0.00000000000E+00 0.  1.
         -2    1    1    2    0  502 -0.17539964777E+01  0.32769527944E+02  0.85152659946E+02  0.91257295386E+02  0.00000000000E+00 0. -1.
<mgrwt>
<rscale>  2 0.32816436E+02</rscale>
<asrwt>0</asrwt>
<pdfrwt beam="1">  1       21 0.20015346E-01 0.32816436E+02</pdfrwt>
<pdfrwt beam="2">  1       21 0.14582534E-02 0.32816436E+02</pdfrwt>
<totfact> 0.37564527E+07</totfact>
</mgrwt>
</event>
<event>
 4    1  0.2721071E+004  0.2196612E+02  0.7546771E-02  0.1708839E+00
         21   -1    0    0  503  502  0.00000000000E+00  0.00000000000E+00  0.94771936805E+02  0.94771936805E+02  0.00000000000E+00 0.  1.
         21   -1    0    0  501  503 -0.00000000000E+00 -0.00000000000E+00 -0.56409969400E+01  0.56409969400E+01  0.00000000000E+00 0. -1.
          2    1    1    2  501    0 -0.20705564479E+02 -0.73341578088E+01  0.28892471063E+02  0.36294423198E+02  0.00000000000E+00 0. -1.
         -2    1    1    2    0  502  0.20705564479E+02  0.73341578088E+01  0.60238468801E+02  0.64118510546E+02  0.00000000000E+00 0.  1.
<mgrwt>
<rscale>  2 0.21966116E+02</rscale>
<asrwt>0</asrwt>
<pdfrwt beam="1">  1       21 0.14580297E-01 0.21966116E+02</pdfrwt>
<pdfrwt beam="2">  1       21 0.86784575E-03 0.21966116E+02</pdfrwt>
<totfact> 0.12948553E+08</totfact>
</mgrwt>
</event>
<event>
 4    1  0.2721071E+004  0.2995544E+02  0.7546771E-02  0.1598582E+00
         21   -1    0    0  503  502  0.00000000000E+00  0.00000000000E+00  0.13289700547E+03  0.13289700547E+03  0.00000000000E+00 0. -1.
         21   -1    0    0  501  503 -0.00000000000E+00 -0.00000000000E+00 -0.94678891921E+01  0.94678891921E+01  0.00000000000E+00 0.  1.
          2    1    1    2  501    0 -0.60995196521E+01 -0.29327876249E+02  0.23590632646E+02  0.38129337968E+02  0.00000000000E+00 0.  1.
         -2    1    1    2    0  502  0.60995196521E+01  0.29327876249E+02  0.99838483637E+02  0.10423555670E+03  0.00000000000E+00 0. -1.
<mgrwt>
<rscale>  2 0.29955441E+02</rscale>
<asrwt>0</asrwt>
<pdfrwt beam="1">  1       21 0.20445692E-01 0.29955441E+02</pdfrwt>
<pdfrwt beam="2">  1       21 0.14565984E-02 0.29955441E+02</pdfrwt>
<totfact> 0.35592833E+07</totfact>
</mgrwt>
</event>
<event>
 4    1  0.2721071E+004  0.2887018E+02  0.7546771E-02  0.1610924E+00
         21   -1    0    0  501  502  0.00000000000E+00  0.00000000000E+00  0.80024627638E+02  0.80024627638E+02  0.00000000000E+00 0. -1.
         21   -1    0    0  502  503 -0.00000000000E+00 -0.00000000000E+00 -0.30522290024E+02  0.30522290024E+02  0.00000000000E+00 0.  1.
          2    1    1    2  501    0 -0.15107797264E+02  0.24601657194E+02  0.69613385555E+02  0.75362527314E+02  0.00000000000E+00 0. -1.
         -2    1    1    2    0  503  0.15107797264E+02 -0.24601657194E+02 -0.20111047941E+02  0.35184390347E+02  0.00000000000E+00 0.  1.
<mgrwt>
<rscale>  2 0.28870176E+02</rscale>
<asrwt>0</asrwt>
<pdfrwt beam="1">  1       21 0.12311481E-01 0.28870176E+02</pdfrwt>
<pdfrwt beam="2">  1       21 0.46957369E-02 0.28870176E+02</pdfrwt>
<totfact> 0.13607782E+07</totfact>
</mgrwt>
</event>
<event>
 4    1  0.2721071E+004  0.2270738E+02  0.7546771E-02  0.1696298E+00
         21   -1    0    0  501  502  0.00000000000E+00  0.00000000000E+00  0.13504279328E+02  0.13504279328E+02  0.00000000000E+00 0. -1.
         21   -1    0    0  502  503 -0.00000000000E+00 -0.00000000000E+00 -0.40104249736E+02  0.40104249736E+02  0.00000000000E+00 0.  1.
          2    1    1    2  501    0  0.13966019353E+02  0.17904618925E+02 -0.74321969630E+01  0.23892731679E+02  0.00000000000E+00 0. -1.
         -2    1    1    2    0  503 -0.13966019353E+02 -0.17904618925E+02 -0.19167773444E+02  0.29715797385E+02  0.00000000000E+00 0.  1.
<mgrwt>
<rscale>  2 0.22707379E+02</rscale>
<asrwt>0</asrwt>
<pdfrwt beam="1">  1       21 0.20775815E-02 0.22707379E+02</pdfrwt>
<pdfrwt beam="2">  1       21 0.61698845E-02 0.22707379E+02</pdfrwt>
<totfact> 0.14396275E+08</totfact>
</mgrwt>
</event>
<event>
 4    1  0.2721071E+004  0.3742366E+02  0.7546771E-02  0.1528074E+00
         21   -1    0    0  503  502  0.00000000000E+00  0.00000000000E+00  0.13440661420E+02  0.13440661420E+02  0.00000000000E+00 0. -1.
         21   -1    0    0  501  503 -0.00000000000E+00 -0.00000000000E+00 -0.35928170680E+03  0.35928170680E+03  0.00000000000E+00 0.  1.
          2    1    1    2  501    0 -0.85724641420E+01 -0.36428599835E+02 -0.32994839118E+03  0.33206395600E+03  0.00000000000E+00 0.  1.
         -2    1    1    2    0  502  0.85724641420E+01  0.36428599835E+02 -0.15892654201E+02  0.40658412228E+02  0.00000000000E+00 0. -1.
<mgrwt>
<rscale>  2 0.37423656E+02</rscale>
<asrwt>0</asrwt>
<pdfrwt beam="1">  1       21 0.20677940E-02 0.37423656E+02</pdfrwt>
<pdfrwt beam="2">  1       21 0.55274110E-01 0.37423656E+02</pdfrwt>
<totfact> 0.33051294E+06</totfact>
</mgrwt>
</event>
<event>
 4    1  0.2721071E+004  0.5361755E+02  0.7546771E-02  0.1426752E+00
         21   -1    0    0  503  502  0.00000000000E+00  0.00000000000E+00  0.14502093602E+03  0.14502093602E+03  0.00000000000E+00 0. -1.
         21   -1    0    0  501  503 -0.00000000000E+00 -0.00000000000E+00 -0.20199518453E+02  0.20199518453E+02  0.00000000000E+00 0.  1.
          2    1    1    2  501    0  0.42607842214E+02 -0.32548630778E+02  0.73679880114E+02  0.91123906398E+02  0.00000000000E+00 0. -1.
         -2    1    1    2    0  502 -0.42607842214E+02  0.32548630778E+02  0.51141537458E+02  0.74096548079E+02  0.00000000000E+00 0.  1.
<mgrwt>
<rscale>  2 0.53617549E+02</rscale>
<asrwt>0</asrwt>
<pdfrwt beam="1">  1       21 0.22310913E-01 0.53617549E+02</pdfrwt>
<pdfrwt beam="2">  1       21 0.31076183E-02 0.53617549E+02</pdfrwt>
<totfact> 0.10157346E+07</totfact>
</mgrwt>
</event>
<event>
 4    1  0.2721071E+004  0.2424238E+02  0.7546771E-02  0.1672129E+00
         21   -1    0    0  503  502  0.00000000000E+00  0.00000000000E+00  0.12252823426E+02  0.12252823426E+02  0.00000000000E+00 0.  1.
         21   -1    0    0  501  503 -0.00000000000E+00 -0.00000000000E+00 -0.52999960013E+02  0.52999960013E+02  0.00000000000E+00 0. -1.
          2    1    1    2  501    0  0.23778400110E+02  0.47202219862E+01 -0.30430791677E+02  0.38906630405E+02  0.00000000000E+00 0. -1.
         -2    1    1    2    0  502 -0.23778400110E+02 -0.47202219862E+01 -0.10316344909E+02  0.26346153034E+02  0.00000000000E+00 0.  1.
<mgrwt>
<rscale>  2 0.24242376E+02</rscale>
<asrwt>0</asrwt>
<pdfrwt beam="1">  1       21 0.18850498E-02 0.24242376E+02</pdfrwt>
<pdfrwt beam="2">  1       21 0.81538400E-02 0.24242376E+02</pdfrwt>
<totfact> 0.10839959E+08</totfact>
</mgrwt>
</event>
<event>
 4    1  0.2721071E+004  0.2109116E+02  0.7546771E-02  0.1724461E+00
         21   -1    0    0  501  502  0.00000000000E+00  0.00000000000E+00  0.11644910930E+02  0.11644910930E+02  0.00000000000E+00 0.  1.
         21   -1    0    0  502  503 -0.00000000000E+00 -0.00000000000E+00 -0.52058638822E+02  0.52058638822E+02  0.00000000000E+00 0. -1.
          2    1    1    2  501    0 -0.19252049074E+02 -0.86136938338E+01 -0.37727808059E+01  0.21425941987E+02  0.00000000000E+00 0.  1.
         -2    1    1    2    0  503  0.19252049074E+02  0.86136938338E+01 -0.36640947086E+02  0.42277607766E+02  0.00000000000E+00 0. -1.
<mgrwt>
<rscale>  2 0.21091162E+02</rscale>
<asrwt>0</asrwt>
<pdfrwt beam="1">  1       21 0.17915247E-02 0.21091162E+02</pdfrwt>
<pdfrwt beam="2">  1       21 0.80090215E-02 0.21091162E+02</pdfrwt>
<totfact> 0.11584154E+08</totfact>
</mgrwt>
</event>
<event>
 4    1  0.2721071E+004  0.2017124E+02  0.7546771E-02  0.1741944E+00
         21   -1    0    0  501  502  0.00000000000E+00  0.00000000000E+00  0.16575593910E+02  0.16575593910E+02  0.00000000000E+00 0. -1.
         21   -1    0    0  502  503 -0.00000000000E+00 -0.00000000000E+00 -0.41314158539E+02  0.41314158539E+02  0.00000000000E+00 0.  1.
          2    1    1    2  501    0  0.18365551856E+02  0.83417957965E+01  0.60704061413E+01  0.21064873197E+02  0.00000000000E+00 0. -1.
         -2    1    1    2    0  503 -0.18365551856E+02 -0.83417957965E+01 -0.30808970770E+02  0.36824879252E+02  0.00000000000E+00 0.  1.
<mgrwt>
<rscale>  2 0.20171243E+02</rscale>
<asrwt>0</asrwt>
<pdfrwt beam="1">  1       21 0.25500914E-02 0.20171243E+02</pdfrwt>
<pdfrwt beam="2">  1       21 0.63560244E-02 0.20171243E+02</pdfrwt>
<totfact> 0.96672500E+07</totfact>
</mgrwt>
</event>
<event>
 4    1  0.2721071E+004  0.2360663E+02  0.7546771E-02  0.1681861E+00
         21   -1    0    0  503  502  0.00000000000E+00  0.00000000000E+00  0.35931606510E+02  0.35931606510E+02  0.00000000000E+00 0. -1.
         21   -1    0    0  501  503 -0.00000000000E+00 -0.00000000000E+00 -0.28267722596E+02  0.28267722596E+02  0.00000000000E+00 0.  1.
          2    1    1    2  501    0 -0.15560236651E+02  0.17752517903E+02 -0.17733290681E+02  0.29525285010E+02  0.00000000000E+00 0.  1.
         -2    1    1    2    0  502  0.15560236651E+02 -0.17752517903E+02  0.25397174595E+02  0.34674044096E+02  0.00000000000E+00 0. -1.
<mgrwt>
<rscale>  2 0.23606627E+02</rscale>
<asrwt>0</asrwt>
<pdfrwt beam="1">  1       21 0.55279395E-02 0.23606627E+02</pdfrwt>
<pdfrwt beam="2">  1       21 0.43488804E-02 0.23606627E+02</pdfrwt>
<totfact> 0.54909398E+07</totfact>
</mgrwt>
</event>
<event>
 4    1  0.2721071E+004  0.2173048E+02  0.7546771E-02  0.1712955E+00
         21   -1    0    0  501  502  0.00000000000E+00  0.00000000000E+00  0.15110221016E+04  0.15110221016E+04  0.00000000000E+00 0. -1.
         21   -1    0    0  502  503 -0.00000000000E+00 -0.00000000000E+00 -0.99286216607E+00  0.99286216607E+00  0.00000000000E+00 0.  1.
          2    1    1    2  501    0 -0.14638381103E+02 -0.16060251096E+02  0.13808319417E+04  0.13810029200E+04  0.00000000000E+00 0. -1.
         -2    1    1    2    0  503  0.14638381103E+02  0.16060251096E+02  0.12919729775E+03  0.13101204377E+03  0.00000000000E+00 0.  1.
<mgrwt>
<rscale>  2 0.21730482E+02</rscale>
<asrwt>0</asrwt>
<pdfrwt beam="1">  1       21 0.23246310E+00 0.21730482E+02</pdfrwt>
<pdfrwt beam="2">  1       21 0.15274923E-03 0.21730482E+02</pdfrwt>
<totfact> 0.56683585E+06</totfact>
</mgrwt>
</event>
<event>
 4    1  0.2721071E+004  0.2023484E+02  0.7546771E-02  0.1740698E+00
         21   -1    0    0  501  502  0.00000000000E+00  0.00000000000E+00  0.33408826804E+03  0.33408826804E+03  0.00000000000E+00 0. -1.
         21   -1    0    0  502  503 -0.00000000000E+00 -0.00000000000E+00 -0.26944196089E+01  0.26944196089E+01  0.00000000000E+00 0.  1.
          2    1    1    2  501    0 -0.98098657366E+01 -0.17697884790E+02  0.29002688563E+03  0.29073190912E+03  0.00000000000E+00 0. -1.
         -2    1    1    2    0  503  0.98098657366E+01  0.17697884790E+02  0.41366962801E+02  0.46050778530E+02  0.00000000000E+00 0.  1.
<mgrwt>
<rscale>  2 0.20234836E+02</rscale>
<asrwt>0</asrwt>
<pdfrwt beam="1">  1       21 0.51398162E-01 0.20234836E+02</pdfrwt>
<pdfrwt beam="2">  1       21 0.41452636E-03 0.20234836E+02</pdfrwt>
<totfact> 0.38987890E+07</totfact>
</mgrwt>
</event>
<event>
 4    1  0.2721071E+004  0.2277142E+02  0.7546771E-02  0.1695242E+00
         21   -1    0    0  503  502  0.00000000000E+00  0.00000000000E+00  0.68937599406E+03  0.68937599406E+03  0.00000000000E+00 0. -1.
         21   -1    0    0  501  503 -0.00000000000E+00 -0.00000000000E+00 -0.16178655513E+01  0.16178655513E+01  0.00000000000E+00 0.  1.
          2    1    1    2  501    0  0.19519865446E+02 -0.11726575762E+02  0.91151849496E+02  0.93953165954E+02  0.00000000000E+00 0.  1.
         -2    1    1    2    0  502 -0.19519865446E+02  0.11726575762E+02  0.59660627901E+03  0.59704069366E+03  0.00000000000E+00 0. -1.
<mgrwt>
<rscale>  2 0.22771423E+02</rscale>
<asrwt>0</asrwt>
<pdfrwt beam="1">  1       21 0.10605761E+00 0.22771423E+02</pdfrwt>
<pdfrwt beam="2">  1       21 0.24890294E-03 0.22771423E+02</pdfrwt>
<totfact> 0.18802550E+07</totfact>
</mgrwt>
</event>
<event>
 4    1  0.2721071E+004  0.2229739E+02  0.7546771E-02  0.1703159E+00
         21   -1    0    0  503  502  0.00000000000E+00  0.00000000000E+00  0.16390431570E+01  0.16390431570E+01  0.00000000000E+00 0.  1.
         21   -1    0    0  501  503 -0.00000000000E+00 -0.00000000000E+00 -0.13695834297E+04  0.13695834297E+04  0.00000000000E+00 0. -1.
          2    1    1    2  501    0  0.48065050785E+01 -0.21773173173E+02 -0.12889139701E+04  0.12891068210E+04  0.00000000000E+00 0. -1.
         -2    1    1    2    0  502 -0.48065050785E+01  0.21773173173E+02 -0.79030416444E+02  0.82115651885E+02  0.00000000000E+00 0.  1.
<mgrwt>
<rscale>  2 0.22297389E+02</rscale>
<asrwt>0</asrwt>
<pdfrwt beam="1">  1       21 0.25215937E-03 0.22297389E+02</pdfrwt>
<pdfrwt beam="2">  1       21 0.21070607E+00 0.22297389E+02</pdfrwt>
<totfact> 0.35848368E+06</totfact>
</mgrwt>
</event>
<event>
 4    1  0.2721071E+004  0.2510377E+02  0.7546771E-02  0.1659516E+00
         21   -1    0    0  501  502  0.00000000000E+00  0.00000000000E+00  0.13827100641E+02  0.13827100641E+02  0.00000000000E+00 0.  1.
         21   -1    0    0  502  503 -0.00000000000E+00 -0.00000000000E+00 -0.76201858423E+02  0.76201858423E+02  0.00000000000E+00 0. -1.
          2    1    1    2  501    0  0.20756412796E+02  0.14119868097E+02 -0.26505516893E+01  0.25243311421E+02  0.00000000000E+00 0.  1.
         -2    1    1    2    0  503 -0.20756412796E+02 -0.14119868097E+02 -0.59724206092E+02  0.64785647643E+02  0.00000000000E+00 0. -1.
<mgrwt>
<rscale>  2 0.25103772E+02</rscale>
<asrwt>0</asrwt>
<pdfrwt beam="1">  1       21 0.21272462E-02 0.25103772E+02</pdfrwt>
<pdfrwt beam="2">  1       21 0.11723363E-01 0.25103772E+02</pdfrwt>
<totfact> 0.49761310E+07</totfact>
</mgrwt>
</event>
<event>
 4    1  0.2721071E+004  0.2074725E+02  0.7546771E-02  0.1730864E+00
         21   -1    0    0  501  502  0.00000000000E+00  0.00000000000E+00  0.74254342984E+02  0.74254342984E+02  0.00000000000E+00 0.  1.
         21   -1    0    0  502  503 -0.00000000000E+00 -0.00000000000E+00 -0.46526750191E+02  0.46526750191E+02  0.00000000000E+00 0. -1.
          2    1    1    2  501    0 -0.12057076915E+02 -0.16884166746E+02  0.70367091883E+02  0.73361950700E+02  0.00000000000E+00 0.  1.
         -2    1    1    2    0  503  0.12057076915E+02  0.16884166746E+02 -0.42639499089E+02  0.47419142475E+02  0.00000000000E+00 0. -1.
<mgrwt>
<rscale>  2 0.20747245E+02</rscale>
<asrwt>0</asrwt>
<pdfrwt beam="1">  1       21 0.11423745E-01 0.20747245E+02</pdfrwt>
<pdfrwt beam="2">  1       21 0.71579615E-02 0.20747245E+02</pdfrwt>
<totfact> 0.73692953E+06</totfact>
</mgrwt>
</event>
<event>
 4    1  0.2721071E+004  0.2114054E+02  0.7546771E-02  0.1723554E+00
         21   -1    0    0  503  502  0.00000000000E+00  0.00000000000E+00  0.13286757528E+01  0.13286757528E+01  0.00000000000E+00 0. -1.
         21   -1    0    0  501  503 -0.00000000000E+00 -0.00000000000E+00 -0.39680939234E+03  0.39680939234E+03  0.00000000000E+00 0.  1.
          2    1    1    2  501    0  0.65279806203E+01  0.20107405549E+02 -0.27543384455E+03  0.27624395924E+03  0.00000000000E+00 0.  1.
         -2    1    1    2    0  502 -0.65279806203E+01 -0.20107405549E+02 -0.12004687204E+03  0.12189410886E+03  0.00000000000E+00 0. -1.
<mgrwt>
<rscale>  2 0.21140537E+02</rscale>
<asrwt>0</asrwt>
<pdfrwt beam="1">  1       21 0.20441156E-03 0.21140537E+02</pdfrwt>
<pdfrwt beam="2">  1       21 0.61047628E-01 0.21140537E+02</pdfrwt>
<totfact> 0.78351701E+07</totfact>
</mgrwt>
</event>
<event>
 4    1  0.2721071E+004  0.2032975E+02  0.7546771E-02  0.1738849E+00
         21   -1    0    0  501  502  0.00000000000E+00  0.00000000000E+00  0.71511095375E+01  0.71511095375E+01  0.00000000000E+00 0. -1.
         21   -1    0    0  502  503 -0.00000000000E+00 -0.00000000000E+00 -0.36700653142E+03  0.36700653142E+03  0.00000000000E+00 0.  1.
          2    1    1    2  501    0 -0.16211805019E+02  0.12266875644E+02 -0.82098303105E+01  0.21924875684E+02  0.00000000000E+00 0. -1.
         -2    1    1    2    0  503  0.16211805019E+02 -0.12266875644E+02 -0.35164559157E+03  0.35223276528E+03  0.00000000000E+00 0.  1.
<mgrwt>
<rscale>  2 0.20329753E+02</rscale>
<asrwt>0</asrwt>
<pdfrwt beam="1">  1       21 0.11001703E-02 0.20329753E+02</pdfrwt>
<pdfrwt beam="2">  1       21 0.56462566E-01 0.20329753E+02</pdfrwt>
<totfact> 0.76609383E+06</totfact>
</mgrwt>
</event>
<event>
 4    1  0.2721071E+004  0.3281281E+02  0.7546771E-02  0.1568928E+00
         21   -1    0    0  503  502  0.00000000000E+00  0.00000000000E+00  0.11847573762E+02  0.11847573762E+02  0.00000000000E+00 0.  1.
         21   -1    0    0  501  503 -0.00000000000E+00 -0.00000000000E+00 -0.17511538116E+03  0.17511538116E+03  0.00000000000E+00 0. -1.
          2    1    1    2  501    0  0.29209897924E+02 -0.14948659262E+02 -0.14646995513E+03  0.15010039409E+03  0.00000000000E+00 0. -1.
         -2    1    1    2    0  502 -0.29209897924E+02  0.14948659262E+02 -0.16797852275E+02  0.36862560838E+02  0.00000000000E+00 0.  1.
<mgrwt>
<rscale>  2 0.32812811E+02</rscale>
<asrwt>0</asrwt>
<pdfrwt beam="1">  1       21 0.18227037E-02 0.32812811E+02</pdfrwt>
<pdfrwt beam="2">  1       21 0.26940827E-01 0.32812811E+02</pdfrwt>
<totfact> 0.15613986E+07</totfact>
</mgrwt>
</event>
<event>
 4    1  0.2721071E+004  0.4920902E+02  0.7546771E-02  0.1449655E+00
         21   -1    0    0  501  502  0.00000000000E+00  0.00000000000E+00  0.10142405479E+02  0.10142405479E+02  0.00000000000E+00 0.  1.
         21   -1    0    0  502  503 -0.00000000000E+00 -0.00000000000E+00 -0.30494649398E+03  0.30494649398E+03  0.00000000000E+00 0. -1.
          2    1    1    2  501    0  0.46823767891E+02  0.15134798275E+02 -0.74001427854E+02  0.88869222359E+02  0.00000000000E+00 0.  1.
         -2    1    1    2    0  503 -0.46823767891E+02 -0.15134798275E+02 -0.22080266064E+03  0.22621967710E+03  0.00000000000E+00 0. -1.
<mgrwt>
<rscale>  2 0.49209017E+02</rscale>
<asrwt>0</asrwt>
<pdfrwt beam="1">  1       21 0.15603703E-02 0.49209017E+02</pdfrwt>
<pdfrwt beam="2">  1       21 0.46914838E-01 0.49209017E+02</pdfrwt>
<totfact> 0.73122630E+06</totfact>
</mgrwt>
</event>
<event>
 4    1  0.2721071E+004  0.2505938E+02  0.7546771E-02  0.1660150E+00
         21   -1    0    0  503  502  0.00000000000E+00  0.00000000000E+00  0.10409970018E+01  0.10409970018E+01  0.00000000000E+00 0. -1.
         21   -1    0    0  501  503 -0.00000000000E+00 -0.00000000000E+00 -0.74951106689E+03  0.74951106689E+03  0.00000000000E+00 0.  1.
          2    1    1    2  501    0  0.39819428053E+01  0.24740994620E+02 -0.54001752624E+03  0.54059865088E+03  0.00000000000E+00 0.  1.
         -2    1    1    2    0  502 -0.39819428053E+01 -0.24740994620E+02 -0.20845254364E+03  0.20995341301E+03  0.00000000000E+00 0. -1.
<mgrwt>
<rscale>  2 0.25059383E+02</rscale>
<asrwt>0</asrwt>
<pdfrwt beam="1">  1       21 0.16015364E-03 0.25059383E+02</pdfrwt>
<pdfrwt beam="2">  1       21 0.11530921E+00 0.25059383E+02</pdfrwt>
<totfact> 0.30038964E+07</totfact>
</mgrwt>
</event>
<event>
 4    1  0.2721071E+004  0.2750323E+02  0.7546771E-02  0.1627449E+00
         21   -1    0    0  503  502  0.00000000000E+00  0.00000000000E+00  0.65041339082E+01  0.65041339082E+01  0.00000000000E+00 0. -1.
         21   -1    0    0  501  503 -0.00000000000E+00 -0.00000000000E+00 -0.11631079348E+03  0.11631079348E+03  0.00000000000E+00 0.  1.
          2    1    1    2  501    0 -0.22485644380E+02 -0.15837412128E+02 -0.55507170648E+02  0.61947347154E+02  0.00000000000E+00 0. -1.
         -2    1    1    2    0  502  0.22485644380E+02  0.15837412128E+02 -0.54299488919E+02  0.60867580230E+02  0.00000000000E+00 0.  1.
<mgrwt>
<rscale>  2 0.27503233E+02</rscale>
<asrwt>0</asrwt>
<pdfrwt beam="1">  1       21 0.10006360E-02 0.27503233E+02</pdfrwt>
<pdfrwt beam="2">  1       21 0.17893967E-01 0.27503233E+02</pdfrwt>
<totfact> 0.78107417E+07</totfact>
</mgrwt>
</event>
<event>
 4    1  0.2721071E+004  0.2695293E+02  0.7546771E-02  0.1634438E+00
         21   -1    0    0  501  502  0.00000000000E+00  0.00000000000E+00  0.17419678079E+03  0.17419678079E+03  0.00000000000E+00 0. -1.
         21   -1    0    0  502  503 -0.00000000000E+00 -0.00000000000E+00 -0.56664213940E+01  0.56664213940E+01  0.00000000000E+00 0.  1.
          2    1    1    2  501    0  0.10704182431E+02 -0.24736227086E+02  0.13047507251E+03  0.13322989529E+03  0.00000000000E+00 0. -1.
         -2    1    1    2    0  503 -0.10704182431E+02  0.24736227086E+02  0.38055286878E+02  0.46633306888E+02  0.00000000000E+00 0.  1.
<mgrwt>
<rscale>  2 0.26952930E+02</rscale>
<asrwt>0</asrwt>
<pdfrwt beam="1">  1       21 0.26799501E-01 0.26952930E+02</pdfrwt>
<pdfrwt beam="2">  1       21 0.87175727E-03 0.26952930E+02</pdfrwt>
<totfact> 0.46766623E+07</totfact>
</mgrwt>
</event>
<event>
 4    1  0.2721071E+004  0.2531896E+02  0.7546771E-02  0.1656462E+00
         21   -1    0    0  503  502  0.00000000000E+00  0.00000000000E+00  0.84007828160E+01  0.84007828160E+01  0.00000000000E+00 0. -1.
         21   -1    0    0  501  503 -0.00000000000E+00 -0.00000000000E+00 -0.78574130909E+02  0.78574130909E+02  0.00000000000E+00 0.  1.
          2    1    1    2  501    0  0.15698788034E+02 -0.19864490620E+02 -0.42471368209E+02  0.49445596880E+02  0.00000000000E+00 0. -1.
         -2    1    1    2    0  502 -0.15698788034E+02  0.19864490620E+02 -0.27701979884E+02  0.37529316845E+02  0.00000000000E+00 0.  1.
<mgrwt>
<rscale>  2 0.25318964E+02</rscale>
<asrwt>0</asrwt>
<pdfrwt beam="1">  1       21 0.12924281E-02 0.25318964E+02</pdfrwt>
<pdfrwt beam="2">  1       21 0.12088328E-01 0.25318964E+02</pdfrwt>
<totfact> 0.10152747E+08</totfact>
</mgrwt>
</event>
<event>
 4    1  0.2721071E+004  0.2844742E+02  0.7546771E-02  0.1615913E+00
         21   -1    0    0  501  502  0.00000000000E+00  0.00000000000E+00  0.40718632205E+02  0.40718632205E+02  0.00000000000E+00 0.  1.
         21   -1    0    0  502  503 -0.00000000000E+00 -0.00000000000E+00 -0.20143906955E+02  0.20143906955E+02  0.00000000000E+00 0. -1.
          2    1    1    2  501    0  0.25791370954E+01  0.28330264328E+02  0.13807696334E+02  0.31621326713E+02  0.00000000000E+00 0.  1.
         -2    1    1    2    0  503 -0.25791370954E+01 -0.28330264328E+02  0.67670289152E+01  0.29241212447E+02  0.00000000000E+00 0. -1.
<mgrwt>
<rscale>  2 0.28447422E+02</rscale>
<asrwt>0</asrwt>
<pdfrwt beam="1">  1       21 0.62644049E-02 0.28447422E+02</pdfrwt>
<pdfrwt beam="2">  1       21 0.30990626E-02 0.28447422E+02</pdfrwt>
<totfact> 0.80277311E+07</totfact>
</mgrwt>
</event>
<event>
 4    1  0.2721071E+004  0.3125392E+02  0.7546771E-02  0.1584628E+00
         21   -1    0    0  503  502  0.00000000000E+00  0.00000000000E+00  0.10662009552E+04  0.10662009552E+04  0.00000000000E+00 0.  1.
         21   -1    0    0  501  503 -0.00000000000E+00 -0.00000000000E+00 -0.11187740985E+01  0.11187740985E+01  0.00000000000E+00 0. -1.
          2    1    1    2  501    0  0.31127076973E+02 -0.28129602630E+01  0.30543374187E+03  0.30702862788E+03  0.00000000000E+00 0. -1.
         -2    1    1    2    0  502 -0.31127076973E+02  0.28129602630E+01  0.75964843924E+03  0.76029110143E+03  0.00000000000E+00 0.  1.
<mgrwt>
<rscale>  2 0.31253922E+02</rscale>
<asrwt>0</asrwt>
<pdfrwt beam="1">  1       21 0.16403010E+00 0.31253922E+02</pdfrwt>
<pdfrwt beam="2">  1       21 0.17211994E-03 0.31253922E+02</pdfrwt>
<totfact> 0.12192602E+07</totfact>
</mgrwt>
</event>
<event>
 4    1  0.2721071E+004  0.2089143E+02  0.7546771E-02  0.1728161E+00
         21   -1    0    0  501  502  0.00000000000E+00  0.00000000000E+00  0.21280365989E+03  0.21280365989E+03  0.00000000000E+00 0. -1.
         21   -1    0    0  502  503 -0.00000000000E+00 -0.00000000000E+00 -0.56208324445E+01  0.56208324445E+01  0.00000000000E+00 0.  1.
          2    1    1    2  501    0  0.19034193057E+02 -0.86111074637E+01  0.19062710890E+03  0.19176847062E+03  0.00000000000E+00 0. -1.
         -2    1    1    2    0  503 -0.19034193057E+02  0.86111074637E+01  0.16555718550E+02  0.26656021718E+02  0.00000000000E+00 0.  1.
<mgrwt>
<rscale>  2 0.20891426E+02</rscale>
<asrwt>0</asrwt>
<pdfrwt beam="1">  1       21 0.32739018E-01 0.20891426E+02</pdfrwt>
<pdfrwt beam="2">  1       21 0.86474362E-03 0.20891426E+02</pdfrwt>
<totfact> 0.31020908E+07</totfact>
</mgrwt>
</event>
<event>
 4    1  0.2721071E+004  0.2627491E+02  0.7546771E-02  0.1643337E+00
         21   -1    0    0  503  502  0.00000000000E+00  0.00000000000E+00  0.16159887955E+02  0.16159887955E+02  0.00000000000E+00 0.  1.
         21   -1    0    0  501  503 -0.00000000000E+00 -0.00000000000E+00 -0.57216825853E+02  0.57216825853E+02  0.00000000000E+00 0. -1.
          2    1    1    2  501    0  0.20894129923E+02  0.15931295681E+02 -0.38994939638E+02  0.47021018329E+02  0.00000000000E+00 0. -1.
         -2    1    1    2    0  502 -0.20894129923E+02 -0.15931295681E+02 -0.20619982601E+01  0.26355695478E+02  0.00000000000E+00 0.  1.
<mgrwt>
<rscale>  2 0.26274909E+02</rscale>
<asrwt>0</asrwt>
<pdfrwt beam="1">  1       21 0.24861366E-02 0.26274909E+02</pdfrwt>
<pdfrwt beam="2">  1       21 0.88025887E-02 0.26274909E+02</pdfrwt>
<totfact> 0.63657608E+07</totfact>
</mgrwt>
</event>
<event>
 4    1  0.2721071E+004  0.3372592E+02  0.7546771E-02  0.1560215E+00
         21   -1    0    0  503  502  0.00000000000E+00  0.00000000000E+00  0.40316232245E+02  0.40316232245E+02  0.00000000000E+00 0. -1.
         21   -1    0    0  501  503 -0.00000000000E+00 -0.00000000000E+00 -0.95206665664E+02  0.95206665664E+02  0.00000000000E+00 0.  1.
          2    1    1    2  501    0  0.33184532956E+02 -0.60187023705E+01 -0.84286802679E+02  0.90783826266E+02  0.00000000000E+00 0.  1.
         -2    1    1    2    0  502 -0.33184532956E+02  0.60187023705E+01  0.29396369260E+02  0.44739071642E+02  0.00000000000E+00 0. -1.
<mgrwt>
<rscale>  2 0.33725925E+02</rscale>
<asrwt>0</asrwt>
<pdfrwt beam="1">  1       21 0.62024973E-02 0.33725925E+02</pdfrwt>
<pdfrwt beam="2">  1       21 0.14647179E-01 0.33725925E+02</pdfrwt>
<totfact> 0.66065614E+06</totfact>
</mgrwt>
</event>
<event>
 4    1  0.2721071E+004  0.4200421E+02  0.7546771E-02  0.1493960E+00
         21   -1    0    0  503  502  0.00000000000E+00  0.00000000000E+00  0.82615770426E+01  0.82615770426E+01  0.00000000000E+00 0.  1.
         21   -1    0    0  501  503 -0.00000000000E+00 -0.00000000000E+00 -0.24951020109E+03  0.24951020109E+03  0.00000000000E+00 0. -1.
          2    1    1    2  501    0  0.36316508782E+02 -0.21106046993E+02 -0.16954621846E+03  0.17467190450E+03  0.00000000000E+00 0. -1.
         -2    1    1    2    0  502 -0.36316508782E+02  0.21106046993E+02 -0.71702405593E+02  0.83099873631E+02  0.00000000000E+00 0.  1.
<mgrwt>
<rscale>  2 0.42004214E+02</rscale>
<asrwt>0</asrwt>
<pdfrwt beam="1">  1       21 0.12710119E-02 0.42004214E+02</pdfrwt>
<pdfrwt beam="2">  1       21 0.38386183E-01 0.42004214E+02</pdfrwt>
<totfact> 0.14592030E+07</totfact>
</mgrwt>
</event>
<event>
 4    1  0.2721071E+004  0.2865978E+02  0.7546771E-02  0.1613394E+00
         21   -1    0    0  503  502  0.00000000000E+00  0.00000000000E+00  0.27911393928E+03  0.27911393928E+03  0.00000000000E+00 0. -1.
         21   -1    0    0  501  503 -0.00000000000E+00 -0.00000000000E+00 -0.60563774236E+01  0.60563774236E+01  0.00000000000E+00 0.  1.
          2    1    1    2  501    0 -0.26248176789E+02  0.11507225799E+02  0.34294614683E+02  0.44693440532E+02  0.00000000000E+00 0.  1.
         -2    1    1    2    0  502  0.26248176789E+02 -0.11507225799E+02  0.23876294717E+03  0.24047687617E+03  0.00000000000E+00 0. -1.
<mgrwt>
<rscale>  2 0.28659781E+02</rscale>
<asrwt>0</asrwt>
<pdfrwt beam="1">  1       21 0.42940596E-01 0.28659781E+02</pdfrwt>
<pdfrwt beam="2">  1       21 0.93175059E-03 0.28659781E+02</pdfrwt>
<totfact> 0.17808473E+07</totfact>
</mgrwt>
</event>
<event>
 4    1  0.2721071E+004  0.4056566E+02  0.7546771E-02  0.1504090E+00
         21   -1    0    0  503  502  0.00000000000E+00  0.00000000000E+00  0.99308283757E+01  0.99308283757E+01  0.00000000000E+00 0. -1.
         21   -1    0    0  501  503 -0.00000000000E+00 -0.00000000000E+00 -0.19100853284E+03  0.19100853284E+03  0.00000000000E+00 0.  1.
          2    1    1    2  501    0  0.28434918645E+02 -0.28931436844E+02 -0.12710779640E+03  0.13342400287E+03  0.00000000000E+00 0. -1.
         -2    1    1    2    0  502 -0.28434918645E+02  0.28931436844E+02 -0.53969908071E+02  0.67515358352E+02  0.00000000000E+00 0.  1.
<mgrwt>
<rscale>  2 0.40565658E+02</rscale>
<asrwt>0</asrwt>
<pdfrwt beam="1">  1       21 0.15278198E-02 0.40565658E+02</pdfrwt>
<pdfrwt beam="2">  1       21 0.29385927E-01 0.40565658E+02</pdfrwt>
<totfact> 0.18082511E+07</totfact>
</mgrwt>
</event>
<event>
 4    1  0.2721071E+004  0.2210262E+02  0.7546771E-02  0.1706483E+00
         21   -1    0    0  503  502  0.00000000000E+00  0.00000000000E+00  0.14622862690E+02  0.14622862690E+02  0.00000000000E+00 0.  1.
         21   -1    0    0  501  503 -0.00000000000E+00 -0.00000000000E+00 -0.34746488225E+02  0.34746488225E+02  0.00000000000E+00 0. -1.
          2    1    1    2  501    0 -0.21528012509E+02  0.50070629448E+01 -0.14905981525E+02  0.26659225179E+02  0.00000000000E+00 0. -1.
         -2    1    1    2    0  502  0.21528012509E+02 -0.50070629448E+01 -0.52176440098E+01  0.22710125736E+02  0.00000000000E+00 0.  1.
<mgrwt>
<rscale>  2 0.22102624E+02</rscale>
<asrwt>0</asrwt>
<pdfrwt beam="1">  1       21 0.22496712E-02 0.22102624E+02</pdfrwt>
<pdfrwt beam="2">  1       21 0.53456136E-02 0.22102624E+02</pdfrwt>
<totfact> 0.15894728E+08</totfact>
</mgrwt>
</event>
<event>
 4    1  0.2721071E+004  0.2298357E+02  0.7546771E-02  0.1691777E+00
         21   -1    0    0  501  502  0.00000000000E+00  0.00000000000E+00  0.43982828968E+02  0.43982828968E+02  0.00000000000E+00 0. -1.
         21   -1    0    0  502  503 -0.00000000000E+00 -0.00000000000E+00 -0.19727733860E+02  0.19727733860E+02  0.00000000000E+00 0.  1.
          2    1    1    2  501    0  0.10016408121E+02 -0.20686129183E+02  0.32051750938E+02  0.39440576953E+02  0.00000000000E+00 0. -1.
         -2    1    1    2    0  503 -0.10016408121E+02  0.20686129183E+02 -0.77966558310E+01  0.24269985875E+02  0.00000000000E+00 0.  1.
<mgrwt>
<rscale>  2 0.22983567E+02</rscale>
<asrwt>0</asrwt>
<pdfrwt beam="1">  1       21 0.67665890E-02 0.22983567E+02</pdfrwt>
<pdfrwt beam="2">  1       21 0.30350360E-02 0.22983567E+02</pdfrwt>
<totfact> 0.69272708E+07</totfact>
</mgrwt>
</event>
<event>
 4    1  0.2721071E+004  0.2289375E+02  0.7546771E-02  0.1693238E+00
         21   -1    0    0  501  502  0.00000000000E+00  0.00000000000E+00  0.41524379884E+02  0.41524379884E+02  0.00000000000E+00 0. -1.
         21   -1    0    0  502  503 -0.00000000000E+00 -0.00000000000E+00 -0.20395079196E+02  0.20395079196E+02  0.00000000000E+00 0.  1.
          2    1    1    2  501    0 -0.16903944897E+02 -0.15439578717E+02  0.29677649441E+02  0.37481819864E+02  0.00000000000E+00 0. -1.
         -2    1    1    2    0  503  0.16903944897E+02  0.15439578717E+02 -0.85483487528E+01  0.24437639215E+02  0.00000000000E+00 0.  1.
<mgrwt>
<rscale>  2 0.22893753E+02</rscale>
<asrwt>0</asrwt>
<pdfrwt beam="1">  1       21 0.63883661E-02 0.22893753E+02</pdfrwt>
<pdfrwt beam="2">  1       21 0.31377045E-02 0.22893753E+02</pdfrwt>
<totfact> 0.72092216E+07</totfact>
</mgrwt>
</event>
<event>
 4    1  0.2721071E+004  0.2756497E+02  0.7546771E-02  0.1626677E+00
         21   -1    0    0  503  502  0.00000000000E+00  0.00000000000E+00  0.22082087456E+03  0.22082087456E+03  0.00000000000E+00 0.  1.
         21   -1    0    0  501  503 -0.00000000000E+00 -0.00000000000E+00 -0.56899782608E+01  0.56899782608E+01  0.00000000000E+00 0. -1.
          2    1    1    2  501    0  0.26369490591E+02  0.80297799014E+01  0.36361532275E+02  0.45628811388E+02  0.00000000000E+00 0. -1.
         -2    1    1    2    0  502 -0.26369490591E+02 -0.80297799014E+01  0.17876936403E+03  0.18088204143E+03  0.00000000000E+00 0.  1.
<mgrwt>
<rscale>  2 0.27564967E+02</rscale>
<asrwt>0</asrwt>
<pdfrwt beam="1">  1       21 0.33972436E-01 0.27564967E+02</pdfrwt>
<pdfrwt beam="2">  1       21 0.87538144E-03 0.27564967E+02</pdfrwt>
<totfact> 0.30230584E+07</totfact>
</mgrwt>
</event>
<event>
 4    1  0.2721071E+004  0.3990640E+02  0.7546771E-02  0.1508901E+00
         21   -1    0    0  501  502  0.00000000000E+00  0.00000000000E+00  0.31747002395E+03  0.31747002395E+03  0.00000000000E+00 0. -1.
         21   -1    0    0  502  503 -0.00000000000E+00 -0.00000000000E+00 -0.63664855982E+01  0.63664855982E+01  0.00000000000E+00 0.  1.
          2    1    1    2  501    0 -0.39905031850E+02  0.33085927232E+00  0.23011841669E+03  0.23355300626E+03  0.00000000000E+00 0. -1.
         -2    1    1    2    0  503  0.39905031850E+02 -0.33085927232E+00  0.80985121665E+02  0.90283503288E+02  0.00000000000E+00 0.  1.
<mgrwt>
<rscale>  2 0.39906403E+02</rscale>
<asrwt>0</asrwt>
<pdfrwt beam="1">  1       21 0.48841530E-01 0.39906403E+02</pdfrwt>
<pdfrwt beam="2">  1       21 0.97945957E-03 0.39906403E+02</pdfrwt>
<totfact> 0.13516490E+07</totfact>
</mgrwt>
</event>
<event>
 4    1  0.2721071E+004  0.2424075E+02  0.7546771E-02  0.1672153E+00
         21   -1    0    0  503  502  0.00000000000E+00  0.00000000000E+00  0.14798480707E+03  0.14798480707E+03  0.00000000000E+00 0.  1.
         21   -1    0    0  501  503 -0.00000000000E+00 -0.00000000000E+00 -0.50748305003E+01  0.50748305003E+01  0.00000000000E+00 0. -1.
          2    1    1    2  501    0 -0.23241842836E+02  0.68870107556E+01  0.35759310837E+02  0.43201186177E+02  0.00000000000E+00 0. -1.
         -2    1    1    2    0  502  0.23241842836E+02 -0.68870107556E+01  0.10715066573E+03  0.10985845139E+03  0.00000000000E+00 0.  1.
<mgrwt>
<rscale>  2 0.24240754E+02</rscale>
<asrwt>0</asrwt>
<pdfrwt beam="1">  1       21 0.22766890E-01 0.24240754E+02</pdfrwt>
<pdfrwt beam="2">  1       21 0.78074327E-03 0.24240754E+02</pdfrwt>
<totfact> 0.72046125E+07</totfact>
</mgrwt>
</event>
<event>
 4    1  0.2721071E+004  0.2945135E+02  0.7546771E-02  0.1604234E+00
         21   -1    0    0  503  502  0.00000000000E+00  0.00000000000E+00  0.14885774368E+03  0.14885774368E+03  0.00000000000E+00 0.  1.
         21   -1    0    0  501  503 -0.00000000000E+00 -0.00000000000E+00 -0.58429829946E+01  0.58429829946E+01  0.00000000000E+00 0. -1.
          2    1    1    2  501    0 -0.20793871706E+02  0.20856582154E+02  0.67451713122E+02  0.73601057892E+02  0.00000000000E+00 0.  1.
         -2    1    1    2    0  502  0.20793871706E+02 -0.20856582154E+02  0.75563047565E+02  0.81099668785E+02  0.00000000000E+00 0. -1.
<mgrwt>
<rscale>  2 0.29451352E+02</rscale>
<asrwt>0</asrwt>
<pdfrwt beam="1">  1       21 0.22901188E-01 0.29451352E+02</pdfrwt>
<pdfrwt beam="2">  1       21 0.89892057E-03 0.29451352E+02</pdfrwt>
<totfact> 0.60419794E+07</totfact>
</mgrwt>
</event>
<event>
 4    1  0.2721071E+004  0.3347543E+02  0.7546771E-02  0.1562571E+00
         21   -1    0    0  503  502  0.00000000000E+00  0.00000000000E+00  0.31530552254E+01  0.31530552254E+01  0.00000000000E+00 0.  1.
         21   -1    0    0  501  503 -0.00000000000E+00 -0.00000000000E+00 -0.54718634964E+03  0.54718634964E+03  0.00000000000E+00 0. -1.
          2    1    1    2  501    0  0.16676450164E+02  0.29025855665E+02 -0.43492329061E+03  0.43620966634E+03  0.00000000000E+00 0. -1.
         -2    1    1    2    0  502 -0.16676450164E+02 -0.29025855665E+02 -0.10911000380E+03  0.11412973853E+03  0.00000000000E+00 0.  1.
<mgrwt>
<rscale>  2 0.33475428E+02</rscale>
<asrwt>0</asrwt>
<pdfrwt beam="1">  1       21 0.48508483E-03 0.33475428E+02</pdfrwt>
<pdfrwt beam="2">  1       21 0.84182617E-01 0.33475428E+02</pdfrwt>
<totfact> 0.12406424E+07</totfact>
</mgrwt>
</event>
<event>
 4    1  0.2721071E+004  0.2582291E+02  0.7546771E-02  0.1649456E+00
         21   -1    0    0  503  502  0.00000000000E+00  0.00000000000E+00  0.47764666462E+00  0.47764666462E+00  0.00000000000E+00 0. -1.
         21   -1    0    0  501  503 -0.00000000000E+00 -0.00000000000E+00 -0.16833758984E+04  0.16833758984E+04  0.00000000000E+00 0.  1.
          2    1    1    2  501    0  0.17250831585E+02 -0.19215394694E+02 -0.11892774084E+04  0.11895577232E+04  0.00000000000E+00 0.  1.
         -2    1    1    2    0  502 -0.17250831585E+02  0.19215394694E+02 -0.49362084334E+03  0.49429582192E+03  0.00000000000E+00 0. -1.
<mgrwt>
<rscale>  2 0.25822908E+02</rscale>
<asrwt>0</asrwt>
<pdfrwt beam="1">  1       21 0.73484682E-04 0.25822908E+02</pdfrwt>
<pdfrwt beam="2">  1       21 0.25897886E+00 0.25822908E+02</pdfrwt>
<totfact> 0.11999743E+07</totfact>
</mgrwt>
</event>
<event>
 4    1  0.2721071E+004  0.2563805E+02  0.7546771E-02  0.1652003E+00
         21   -1    0    0  501  502  0.00000000000E+00  0.00000000000E+00  0.90042125568E+03  0.90042125568E+03  0.00000000000E+00 0. -1.
         21   -1    0    0  502  503 -0.00000000000E+00 -0.00000000000E+00 -0.16188027764E+01  0.16188027764E+01  0.00000000000E+00 0.  1.
          2    1    1    2  501    0 -0.24440873454E+02  0.77429423440E+01  0.78359706279E+03  0.78401636862E+03  0.00000000000E+00 0. -1.
         -2    1    1    2    0  503  0.24440873454E+02 -0.77429423440E+01  0.11520539011E+03  0.11802368984E+03  0.00000000000E+00 0.  1.
<mgrwt>
<rscale>  2 0.25638047E+02</rscale>
<asrwt>0</asrwt>
<pdfrwt beam="1">  1       21 0.13852595E+00 0.25638047E+02</pdfrwt>
<pdfrwt beam="2">  1       21 0.24904730E-03 0.25638047E+02</pdfrwt>
<totfact> 0.10431685E+07</totfact>
</mgrwt>
</event>
<event>
 4    1  0.2721071E+004  0.2980260E+02  0.7546771E-02  0.1600281E+00
         21   -1    0    0  503  502  0.00000000000E+00  0.00000000000E+00  0.12364666325E+04  0.12364666325E+04  0.00000000000E+00 0. -1.
         21   -1    0    0  501  503 -0.00000000000E+00 -0.00000000000E+00 -0.12151345786E+01  0.12151345786E+01  0.00000000000E+00 0.  1.
          2    1    1    2  501    0  0.29799664659E+02 -0.41809762186E+00  0.22193282926E+03  0.22392493278E+03  0.00000000000E+00 0.  1.
         -2    1    1    2    0  502 -0.29799664659E+02  0.41809762186E+00  0.10133186686E+04  0.10137568343E+04  0.00000000000E+00 0. -1.
<mgrwt>
<rscale>  2 0.29802598E+02</rscale>
<asrwt>0</asrwt>
<pdfrwt beam="1">  1       21 0.19022463E+00 0.29802598E+02</pdfrwt>
<pdfrwt beam="2">  1       21 0.18694477E-03 0.29802598E+02</pdfrwt>
<totfact> 0.74006055E+06</totfact>
</mgrwt>
</event>
<event>
 4    1  0.2721071E+004  0.3096874E+02  0.7546771E-02  0.1587621E+00
         21   -1    0    0  501  502  0.00000000000E+00  0.00000000000E+00  0.18714295937E+03  0.18714295937E+03  0.00000000000E+00 0. -1.
         21   -1    0    0  502  503 -0.00000000000E+00 -0.00000000000E+00 -0.23881978449E+02  0.23881978449E+02  0.00000000000E+00 0.  1.
          2    1    1    2  501    0  0.63362161039E+01 -0.30313619477E+02  0.17513936441E+03  0.17785629065E+03  0.00000000000E+00 0. -1.
         -2    1    1    2    0  503 -0.63362161039E+01  0.30313619477E+02 -0.11878383488E+02  0.33168647162E+02  0.00000000000E+00 0.  1.
<mgrwt>
<rscale>  2 0.30968745E+02</rscale>
<asrwt>0</asrwt>
<pdfrwt beam="1">  1       21 0.28791224E-01 0.30968745E+02</pdfrwt>
<pdfrwt beam="2">  1       21 0.36741507E-02 0.30968745E+02</pdfrwt>
<totfact> 0.45708030E+06</totfact>
</mgrwt>
</event>
<event>
 4    1  0.2721071E+004  0.6261337E+02  0.7546771E-02  0.1387181E+00
         21   -1    0    0  503  502  0.00000000000E+00  0.00000000000E+00  0.47504158747E+02  0.47504158747E+02  0.00000000000E+00 0. -1.
         21   -1    0    0  501  503 -0.00000000000E+00 -0.00000000000E+00 -0.22671783349E+03  0.22671783349E+03  0.00000000000E+00 0.  1.
          2    1    1    2  501    0 -0.51727358944E+02  0.35280502083E+02 -0.19895121046E+03  0.20857137300E+03  0.00000000000E+00 0.  1.
         -2    1    1    2    0  502  0.51727358944E+02 -0.35280502083E+02  0.19737535717E+02  0.65650619241E+02  0.00000000000E+00 0. -1.
<mgrwt>
<rscale>  2 0.62613365E+02</rscale>
<asrwt>0</asrwt>
<pdfrwt beam="1">  1       21 0.73083321E-02 0.62613365E+02</pdfrwt>
<pdfrwt beam="2">  1       21 0.34879667E-01 0.62613365E+02</pdfrwt>
<totfact> 0.10957893E+06</totfact>
</mgrwt>
</event>
<event>
 4    1  0.2721071E+004  0.2789392E+02  0.7546771E-02  0.1622608E+00
         21   -1    0    0  503  502  0.00000000000E+00  0.00000000000E+00  0.38466906291E+03  0.38466906291E+03  0.00000000000E+00 0.  1.
         21   -1    0    0  501  503 -0.00000000000E+00 -0.00000000000E+00 -0.69611321811E+01  0.69611321811E+01  0.00000000000E+00 0. -1.
          2    1    1    2  501    0  0.25262799561E+02 -0.11826314546E+02  0.23923567543E+02  0.36747895741E+02  0.00000000000E+00 0. -1.
         -2    1    1    2    0  502 -0.25262799561E+02  0.11826314546E+02  0.35378436318E+03  0.35488229935E+03  0.00000000000E+00 0.  1.
<mgrwt>
<rscale>  2 0.27893920E+02</rscale>
<asrwt>0</asrwt>
<pdfrwt beam="1">  1       21 0.59179839E-01 0.27893920E+02</pdfrwt>
<pdfrwt beam="2">  1       21 0.10709437E-02 0.27893920E+02</pdfrwt>
<totfact> 0.76498607E+06</totfact>
</mgrwt>
</event>
<event>
 4    1  0.2721071E+004  0.2200840E+02  0.7546771E-02  0.1708107E+00
         21   -1    0    0  503  502  0.00000000000E+00  0.00000000000E+00  0.19300410525E+01  0.19300410525E+01  0.00000000000E+00 0. -1.
         21   -1    0    0  501  503 -0.00000000000E+00 -0.00000000000E+00 -0.31190655635E+03  0.31190655635E+03  0.00000000000E+00 0.  1.
          2    1    1    2  501    0 -0.17754839285E+02  0.13005205107E+02 -0.22435060567E+03  0.22542751372E+03  0.00000000000E+00 0.  1.
         -2    1    1    2    0  502  0.17754839285E+02 -0.13005205107E+02 -0.85625909634E+02  0.88409083688E+02  0.00000000000E+00 0. -1.
<mgrwt>
<rscale>  2 0.22008400E+02</rscale>
<asrwt>0</asrwt>
<pdfrwt beam="1">  1       21 0.29692942E-03 0.22008400E+02</pdfrwt>
<pdfrwt beam="2">  1       21 0.47985619E-01 0.22008400E+02</pdfrwt>
<totfact> 0.73944617E+07</totfact>
</mgrwt>
</event>
<event>
 4    1  0.2721071E+004  0.2454674E+02  0.7546771E-02  0.1667599E+00
         21   -1    0    0  501  502  0.00000000000E+00  0.00000000000E+00  0.15764544143E+02  0.15764544143E+02  0.00000000000E+00 0.  1.
         21   -1    0    0  502  503 -0.00000000000E+00 -0.00000000000E+00 -0.46620819741E+02  0.46620819741E+02  0.00000000000E+00 0. -1.
          2    1    1    2  501    0 -0.24101375133E+02 -0.46547112639E+01 -0.21881390767E+01  0.24644077846E+02  0.00000000000E+00 0.  1.
         -2    1    1    2    0  503  0.24101375133E+02  0.46547112639E+01 -0.28668136521E+02  0.37741286039E+02  0.00000000000E+00 0. -1.
<mgrwt>
<rscale>  2 0.24546744E+02</rscale>
<asrwt>0</asrwt>
<pdfrwt beam="1">  1       21 0.24253145E-02 0.24546744E+02</pdfrwt>
<pdfrwt beam="2">  1       21 0.71724337E-02 0.24546744E+02</pdfrwt>
<totfact> 0.90927356E+07</totfact>
</mgrwt>
</event>
<event>
 4    1  0.2721071E+004  0.3447117E+02  0.7546771E-02  0.1553347E+00
         21   -1    0    0  503  502  0.00000000000E+00  0.00000000000E+00  0.13858749878E+02  0.13858749878E+02  0.00000000000E+00 0.  1.
         21   -1    0    0  501  503 -0.00000000000E+00 -0.00000000000E+00 -0.99194279333E+02  0.99194279333E+02  0.00000000000E+00 0. -1.
          2    1    1    2  501    0  0.34368293862E+02  0.26611389727E+01 -0.63485096265E+02  0.72240007831E+02  0.00000000000E+00 0. -1.
         -2    1    1    2    0  502 -0.34368293862E+02 -0.26611389727E+01 -0.21850433190E+02  0.40813021380E+02  0.00000000000E+00 0.  1.
<mgrwt>
<rscale>  2 0.34471166E+02</rscale>
<asrwt>0</asrwt>
<pdfrwt beam="1">  1       21 0.21321153E-02 0.34471166E+02</pdfrwt>
<pdfrwt beam="2">  1       21 0.15260659E-01 0.34471166E+02</pdfrwt>
<totfact> 0.33864580E+07</totfact>
</mgrwt>
</event>
<event>
 4    1  0.2721071E+004  0.2327606E+02  0.7546771E-02  0.1687074E+00
         21   -1    0    0  501  502  0.00000000000E+00  0.00000000000E+00  0.80389633824E+02  0.80389633824E+02  0.00000000000E+00 0. -1.
         21   -1    0    0  502  503 -0.00000000000E+00 -0.00000000000E+00 -0.12731784477E+02  0.12731784477E+02  0.00000000000E+00 0.  1.
          2    1    1    2  501    0  0.20554007758E+02 -0.10922818434E+02  0.65771946609E+02  0.69769077378E+02  0.00000000000E+00 0. -1.
         -2    1    1    2    0  503 -0.20554007758E+02  0.10922818434E+02  0.18859027380E+01  0.23352340923E+02  0.00000000000E+00 0.  1.
<mgrwt>
<rscale>  2 0.23276065E+02</rscale>
<asrwt>0</asrwt>
<pdfrwt beam="1">  1       21 0.12367636E-01 0.23276065E+02</pdfrwt>
<pdfrwt beam="2">  1       21 0.19587361E-02 0.23276065E+02</pdfrwt>
<totfact> 0.50681576E+07</totfact>
</mgrwt>
</event>
<event>
 4    1  0.2721071E+004  0.2408717E+02  0.7546771E-02  0.1674470E+00
         21   -1    0    0  503  502  0.00000000000E+00  0.00000000000E+00  0.10570502862E+02  0.10570502862E+02  0.00000000000E+00 0.  1.
         21   -1    0    0  501  503 -0.00000000000E+00 -0.00000000000E+00 -0.34996631547E+03  0.34996631547E+03  0.00000000000E+00 0. -1.
          2    1    1    2  501    0 -0.22203511137E+02  0.93378845417E+01 -0.33522735718E+03  0.33609161400E+03  0.00000000000E+00 0. -1.
         -2    1    1    2    0  502  0.22203511137E+02 -0.93378845417E+01 -0.41684554285E+01  0.24445204339E+02  0.00000000000E+00 0.  1.
<mgrwt>
<rscale>  2 0.24087175E+02</rscale>
<asrwt>0</asrwt>
<pdfrwt beam="1">  1       21 0.16262313E-02 0.24087175E+02</pdfrwt>
<pdfrwt beam="2">  1       21 0.53840969E-01 0.24087175E+02</pdfrwt>
<totfact> 0.47889804E+06</totfact>
</mgrwt>
</event>
<event>
 4    1  0.2721071E+004  0.2258394E+02  0.7546771E-02  0.1698344E+00
         21   -1    0    0  501  502  0.00000000000E+00  0.00000000000E+00  0.60602247527E+00  0.60602247527E+00  0.00000000000E+00 0.  1.
         21   -1    0    0  502  503 -0.00000000000E+00 -0.00000000000E+00 -0.12238384967E+04  0.12238384967E+04  0.00000000000E+00 0. -1.
          2    1    1    2  501    0  0.93774478974E+01 -0.20545014643E+02 -0.26947219219E+03  0.27041689392E+03  0.00000000000E+00 0.  1.
         -2    1    1    2    0  503 -0.93774478974E+01  0.20545014643E+02 -0.95376028201E+03  0.95402762522E+03  0.00000000000E+00 0. -1.
<mgrwt>
<rscale>  2 0.22583936E+02</rscale>
<asrwt>0</asrwt>
<pdfrwt beam="1">  1       21 0.93235138E-04 0.22583936E+02</pdfrwt>
<pdfrwt beam="2">  1       21 0.18828101E+00 0.22583936E+02</pdfrwt>
<totfact> 0.19978836E+07</totfact>
</mgrwt>
</event>
<event>
 4    1  0.2721071E+004  0.2442270E+02  0.7546771E-02  0.1669435E+00
         21   -1    0    0  501  502  0.00000000000E+00  0.00000000000E+00  0.29503748105E+01  0.29503748105E+01  0.00000000000E+00 0.  1.
         21   -1    0    0  502  503 -0.00000000000E+00 -0.00000000000E+00 -0.20314074516E+03  0.20314074516E+03  0.00000000000E+00 0. -1.
          2    1    1    2  501    0 -0.37701207114E+01 -0.24129949840E+02 -0.92960684038E+02  0.96115332108E+02  0.00000000000E+00 0.  1.
         -2    1    1    2    0  503  0.37701207114E+01  0.24129949840E+02 -0.10722968632E+03  0.10997578787E+03  0.00000000000E+00 0. -1.
<mgrwt>
<rscale>  2 0.24422700E+02</rscale>
<asrwt>0</asrwt>
<pdfrwt beam="1">  1       21 0.45390377E-03 0.24422700E+02</pdfrwt>
<pdfrwt beam="2">  1       21 0.31252425E-01 0.24422700E+02</pdfrwt>
<totfact> 0.91281390E+07</totfact>
</mgrwt>
</event>
<event>
 4    1  0.2721071E+004  0.2507036E+02  0.7546771E-02  0.1659993E+00
         21   -1    0    0  501  502  0.00000000000E+00  0.00000000000E+00  0.17504129509E+02  0.17504129509E+02  0.00000000000E+00 0. -1.
         21   -1    0    0  502  503 -0.00000000000E+00 -0.00000000000E+00 -0.10169155417E+03  0.10169155417E+03  0.00000000000E+00 0.  1.
          2    1    1    2  501    0  0.12412368745E+02 -0.21782008499E+02  0.58409507362E+01  0.25741785051E+02  0.00000000000E+00 0. -1.
         -2    1    1    2    0  503 -0.12412368745E+02  0.21782008499E+02 -0.90028375396E+02  0.93453898627E+02  0.00000000000E+00 0.  1.
<mgrwt>
<rscale>  2 0.25070357E+02</rscale>
<asrwt>0</asrwt>
<pdfrwt beam="1">  1       21 0.26929430E-02 0.25070357E+02</pdfrwt>
<pdfrwt beam="2">  1       21 0.15644854E-01 0.25070357E+02</pdfrwt>
<totfact> 0.21164909E+07</totfact>
</mgrwt>
</event>
<event>
 4    1  0.2721071E+004  0.2774626E+02  0.7546771E-02  0.1624426E+00
         21   -1    0    0  503  502  0.00000000000E+00  0.00000000000E+00  0.37630597769E+03  0.37630597769E+03  0.00000000000E+00 0.  1.
         21   -1    0    0  501  503 -0.00000000000E+00 -0.00000000000E+00 -0.30420121784E+01  0.30420121784E+01  0.00000000000E+00 0. -1.
          2    1    1    2  501    0 -0.23303272910E+02 -0.15060292582E+02  0.78089810961E+02  0.82872634306E+02  0.00000000000E+00 0. -1.
         -2    1    1    2    0  502  0.23303272910E+02  0.15060292582E+02  0.29517415455E+03  0.29647535556E+03  0.00000000000E+00 0.  1.
<mgrwt>
<rscale>  2 0.27746260E+02</rscale>
<asrwt>0</asrwt>
<pdfrwt beam="1">  1       21 0.57893190E-01 0.27746260E+02</pdfrwt>
<pdfrwt beam="2">  1       21 0.46800217E-03 0.27746260E+02</pdfrwt>
<totfact> 0.27599211E+07</totfact>
</mgrwt>
</event>
<event>
 4    1  0.2721071E+004  0.2928294E+02  0.7546771E-02  0.1606153E+00
         21   -1    0    0  501  502  0.00000000000E+00  0.00000000000E+00  0.52816032152E+02  0.52816032152E+02  0.00000000000E+00 0.  1.
         21   -1    0    0  502  503 -0.00000000000E+00 -0.00000000000E+00 -0.18107210338E+02  0.18107210338E+02  0.00000000000E+00 0. -1.
          2    1    1    2  501    0 -0.29177945202E+02  0.24774750633E+01  0.28755901276E+02  0.41041347774E+02  0.00000000000E+00 0.  1.
         -2    1    1    2    0  503  0.29177945202E+02 -0.24774750633E+01  0.59529205366E+01  0.29881894716E+02  0.00000000000E+00 0. -1.
<mgrwt>
<rscale>  2 0.29282936E+02</rscale>
<asrwt>0</asrwt>
<pdfrwt beam="1">  1       21 0.81255433E-02 0.29282936E+02</pdfrwt>
<pdfrwt beam="2">  1       21 0.27857247E-02 0.29282936E+02</pdfrwt>
<totfact> 0.62447609E+07</totfact>
</mgrwt>
</event>
<event>
 4    1  0.2721071E+004  0.2122089E+02  0.7546771E-02  0.1722085E+00
         21   -1    0    0  501  502  0.00000000000E+00  0.00000000000E+00  0.35056311712E+01  0.35056311712E+01  0.00000000000E+00 0.  1.
         21   -1    0    0  502  503 -0.00000000000E+00 -0.00000000000E+00 -0.34479984024E+03  0.34479984024E+03  0.00000000000E+00 0. -1.
          2    1    1    2  501    0  0.12135937784E+01 -0.21186159608E+02 -0.32698570330E+02  0.38981055276E+02  0.00000000000E+00 0.  1.
         -2    1    1    2    0  503 -0.12135937784E+01  0.21186159608E+02 -0.30859563874E+03  0.30932441614E+03  0.00000000000E+00 0. -1.
<mgrwt>
<rscale>  2 0.21220890E+02</rscale>
<asrwt>0</asrwt>
<pdfrwt beam="1">  1       21 0.53932782E-03 0.21220890E+02</pdfrwt>
<pdfrwt beam="2">  1       21 0.53046135E-01 0.21220890E+02</pdfrwt>
<totfact> 0.25188886E+07</totfact>
</mgrwt>
</event>
<event>
 4    1  0.2721071E+004  0.3012035E+02  0.7546771E-02  0.1596762E+00
         21   -1    0    0  501  502  0.00000000000E+00  0.00000000000E+00  0.84365860302E+03  0.84365860302E+03  0.00000000000E+00 0. -1.
         21   -1    0    0  502  503 -0.00000000000E+00 -0.00000000000E+00 -0.22902196823E+01  0.22902196823E+01  0.00000000000E+00 0.  1.
          2    1    1    2  501    0  0.23592034433E+02  0.18725691723E+02  0.72874667730E+03  0.72936887464E+03  0.00000000000E+00 0. -1.
         -2    1    1    2    0  503 -0.23592034433E+02 -0.18725691723E+02  0.11262170604E+03  0.11657994807E+03  0.00000000000E+00 0.  1.
<mgrwt>
<rscale>  2 0.30120352E+02</rscale>
<asrwt>0</asrwt>
<pdfrwt beam="1">  1       21 0.12979338E+00 0.30120352E+02</pdfrwt>
<pdfrwt beam="2">  1       21 0.35234216E-03 0.30120352E+02</pdfrwt>
<totfact> 0.74578017E+06</totfact>
</mgrwt>
</event>
<event>
 4    1  0.2721071E+004  0.2295964E+02  0.7546771E-02  0.1692165E+00
         21   -1    0    0  501  502  0.00000000000E+00  0.00000000000E+00  0.22764252146E+01  0.22764252146E+01  0.00000000000E+00 0. -1.
         21   -1    0    0  502  503 -0.00000000000E+00 -0.00000000000E+00 -0.26351163886E+03  0.26351163886E+03  0.00000000000E+00 0.  1.
          2    1    1    2  501    0 -0.22513806490E+02 -0.45026296160E+01 -0.84347129902E+02  0.87416151132E+02  0.00000000000E+00 0.  1.
         -2    1    1    2    0  503  0.22513806490E+02  0.45026296160E+01 -0.17688808374E+03  0.17837191294E+03  0.00000000000E+00 0. -1.
<mgrwt>
<rscale>  2 0.22959642E+02</rscale>
<asrwt>0</asrwt>
<pdfrwt beam="1">  1       21 0.35021914E-03 0.22959642E+02</pdfrwt>
<pdfrwt beam="2">  1       21 0.40540267E-01 0.22959642E+02</pdfrwt>
<totfact> 0.81047618E+07</totfact>
</mgrwt>
</event>
<event>
 4    1  0.2721071E+004  0.2655139E+02  0.7546771E-02  0.1639669E+00
         21   -1    0    0  501  502  0.00000000000E+00  0.00000000000E+00  0.15236573721E+04  0.15236573721E+04  0.00000000000E+00 0. -1.
         21   -1    0    0  502  503 -0.00000000000E+00 -0.00000000000E+00 -0.72655202662E+00  0.72655202662E+00  0.00000000000E+00 0.  1.
          2    1    1    2  501    0  0.66481518140E+00  0.26543061065E+02  0.12207925751E+04  0.12210812780E+04  0.00000000000E+00 0. -1.
         -2    1    1    2    0  503 -0.66481518140E+00 -0.26543061065E+02  0.30213824493E+03  0.30330264608E+03  0.00000000000E+00 0.  1.
<mgrwt>
<rscale>  2 0.26551385E+02</rscale>
<asrwt>0</asrwt>
<pdfrwt beam="1">  1       21 0.23440627E+00 0.26551385E+02</pdfrwt>
<pdfrwt beam="2">  1       21 0.11177845E-03 0.26551385E+02</pdfrwt>
<totfact> 0.88015686E+06</totfact>
</mgrwt>
</event>
<event>
 4    1  0.2721071E+004  0.2824934E+02  0.7546771E-02  0.1618287E+00
         21   -1    0    0  503  502  0.00000000000E+00  0.00000000000E+00  0.36721990620E+02  0.36721990620E+02  0.00000000000E+00 0. -1.
         21   -1    0    0  501  503 -0.00000000000E+00 -0.00000000000E+00 -0.28795257377E+02  0.28795257377E+02  0.00000000000E+00 0.  1.
          2    1    1    2  501    0 -0.28162793938E+02 -0.22095593939E+01 -0.12261534972E+02  0.30795622334E+02  0.00000000000E+00 0.  1.
         -2    1    1    2    0  502  0.28162793938E+02  0.22095593939E+01  0.20188268215E+02  0.34721625662E+02  0.00000000000E+00 0. -1.
<mgrwt>
<rscale>  2 0.28249338E+02</rscale>
<asrwt>0</asrwt>
<pdfrwt beam="1">  1       21 0.56495371E-02 0.28249338E+02</pdfrwt>
<pdfrwt beam="2">  1       21 0.44300396E-02 0.28249338E+02</pdfrwt>
<totfact> 0.53801127E+07</totfact>
</mgrwt>
</event>
<event>
 4    1  0.2721071E+004  0.2353775E+02  0.7546771E-02  0.1682939E+00
         21   -1    0    0  503  502  0.00000000000E+00  0.00000000000E+00  0.14668056365E+02  0.14668056365E+02  0.00000000000E+00 0.  1.
         21   -1    0    0  501  503 -0.00000000000E+00 -0.00000000000E+00 -0.29634095677E+03  0.29634095677E+03  0.00000000000E+00 0. -1.
          2    1    1    2  501    0  0.23068863618E+02  0.46747507847E+01 -0.28609317626E+03  0.28705980434E+03  0.00000000000E+00 0. -1.
         -2    1    1    2    0  502 -0.23068863618E+02 -0.46747507847E+01  0.44202758532E+01  0.23949208800E+02  0.00000000000E+00 0.  1.
<mgrwt>
<rscale>  2 0.23537752E+02</rscale>
<asrwt>0</asrwt>
<pdfrwt beam="1">  1       21 0.22566240E-02 0.23537752E+02</pdfrwt>
<pdfrwt beam="2">  1       21 0.45590918E-01 0.23537752E+02</pdfrwt>
<totfact> 0.39894181E+06</totfact>
</mgrwt>
</event>
<event>
 4    1  0.2721071E+004  0.2909709E+02  0.7546771E-02  0.1608289E+00
         21   -1    0    0  503  502  0.00000000000E+00  0.00000000000E+00  0.49700191135E+02  0.49700191135E+02  0.00000000000E+00 0.  1.
         21   -1    0    0  501  503 -0.00000000000E+00 -0.00000000000E+00 -0.40417638408E+02  0.40417638408E+02  0.00000000000E+00 0. -1.
          2    1    1    2  501    0  0.11251270754E+02 -0.26833734140E+02 -0.29630961325E+02  0.41528715975E+02  0.00000000000E+00 0. -1.
         -2    1    1    2    0  502 -0.11251270754E+02  0.26833734140E+02  0.38913514052E+02  0.48589113568E+02  0.00000000000E+00 0.  1.
<mgrwt>
<rscale>  2 0.29097085E+02</rscale>
<asrwt>0</asrwt>
<pdfrwt beam="1">  1       21 0.76461833E-02 0.29097085E+02</pdfrwt>
<pdfrwt beam="2">  1       21 0.62180982E-02 0.29097085E+02</pdfrwt>
<totfact> 0.19169582E+07</totfact>
</mgrwt>
</event>
<event>
 4    1  0.2721071E+004  0.2144242E+02  0.7546771E-02  0.1718077E+00
         21   -1    0    0  501  502  0.00000000000E+00  0.00000000000E+00  0.29561783432E+03  0.29561783432E+03  0.00000000000E+00 0. -1.
         21   -1    0    0  502  503 -0.00000000000E+00 -0.00000000000E+00 -0.18303752607E+01  0.18303752607E+01  0.00000000000E+00 0.  1.
          2    1    1    2  501    0  0.17600163166E+02 -0.12247916344E+02  0.20454775509E+03  0.20566857152E+03  0.00000000000E+00 0. -1.
         -2    1    1    2    0  503 -0.17600163166E+02  0.12247916344E+02  0.89239703962E+02  0.91779638054E+02  0.00000000000E+00 0.  1.
<mgrwt>
<rscale>  2 0.21442416E+02</rscale>
<asrwt>0</asrwt>
<pdfrwt beam="1">  1       21 0.45479629E-01 0.21442416E+02</pdfrwt>
<pdfrwt beam="2">  1       21 0.28159643E-03 0.21442416E+02</pdfrwt>
<totfact> 0.87935052E+07</totfact>
</mgrwt>
</event>
<event>
 4    1  0.2721071E+004  0.4153997E+02  0.7546771E-02  0.1497175E+00
         21   -1    0    0  503  502  0.00000000000E+00  0.00000000000E+00  0.63225097684E+02  0.63225097684E+02  0.00000000000E+00 0.  1.
         21   -1    0    0  501  503 -0.00000000000E+00 -0.00000000000E+00 -0.31549129043E+02  0.31549129043E+02  0.00000000000E+00 0. -1.
          2    1    1    2  501    0  0.30666209223E+02  0.28020583854E+02 -0.15680828650E+01  0.41569560877E+02  0.00000000000E+00 0. -1.
         -2    1    1    2    0  502 -0.30666209223E+02 -0.28020583854E+02  0.33244051507E+02  0.53204665850E+02  0.00000000000E+00 0.  1.
<mgrwt>
<rscale>  2 0.41539975E+02</rscale>
<asrwt>0</asrwt>
<pdfrwt beam="1">  1       21 0.97269381E-02 0.41539975E+02</pdfrwt>
<pdfrwt beam="2">  1       21 0.48537122E-02 0.41539975E+02</pdfrwt>
<totfact> 0.20419887E+07</totfact>
</mgrwt>
</event>
<event>
 4    1  0.2721071E+004  0.2022633E+02  0.7546771E-02  0.1740864E+00
         21   -1    0    0  501  502  0.00000000000E+00  0.00000000000E+00  0.29877520379E+01  0.29877520379E+01  0.00000000000E+00 0.  1.
         21   -1    0    0  502  503 -0.00000000000E+00 -0.00000000000E+00 -0.14612488671E+03  0.14612488671E+03  0.00000000000E+00 0. -1.
          2    1    1    2  501    0  0.18548706661E+02  0.80653439768E+01 -0.52863318981E+02  0.56600660649E+02  0.00000000000E+00 0.  1.
         -2    1    1    2    0  503 -0.18548706661E+02 -0.80653439768E+01 -0.90273815691E+02  0.92511978098E+02  0.00000000000E+00 0. -1.
<mgrwt>
<rscale>  2 0.20226327E+02</rscale>
<asrwt>0</asrwt>
<pdfrwt beam="1">  1       21 0.45965437E-03 0.20226327E+02</pdfrwt>
<pdfrwt beam="2">  1       21 0.22480742E-01 0.20226327E+02</pdfrwt>
<totfact> 0.15338456E+08</totfact>
</mgrwt>
</event>
<event>
 4    1  0.2721071E+004  0.2015560E+02  0.7546771E-02  0.1742251E+00
         21   -1    0    0  501  502  0.00000000000E+00  0.00000000000E+00  0.47462611070E+01  0.47462611070E+01  0.00000000000E+00 0. -1.
         21   -1    0    0  502  503 -0.00000000000E+00 -0.00000000000E+00 -0.42924370059E+03  0.42924370059E+03  0.00000000000E+00 0.  1.
          2    1    1    2  501    0  0.19258875982E+02 -0.59450908451E+01 -0.18090350215E+02  0.27083374608E+02  0.00000000000E+00 0. -1.
         -2    1    1    2    0  503 -0.19258875982E+02  0.59450908451E+01 -0.40640708927E+03  0.40690658709E+03  0.00000000000E+00 0.  1.
<mgrwt>
<rscale>  2 0.20155605E+02</rscale>
<asrwt>0</asrwt>
<pdfrwt beam="1">  1       21 0.73019413E-03 0.20155605E+02</pdfrwt>
<pdfrwt beam="2">  1       21 0.66037483E-01 0.20155605E+02</pdfrwt>
<totfact> 0.10311245E+07</totfact>
</mgrwt>
</event>
<event>
 4    1  0.2721071E+004  0.3699184E+02  0.7546771E-02  0.1531592E+00
         21   -1    0    0  503  502  0.00000000000E+00  0.00000000000E+00  0.20649432820E+02  0.20649432820E+02  0.00000000000E+00 0. -1.
         21   -1    0    0  501  503 -0.00000000000E+00 -0.00000000000E+00 -0.14894385078E+03  0.14894385078E+03  0.00000000000E+00 0.  1.
          2    1    1    2  501    0  0.18324790670E+01  0.36946421231E+02 -0.12732388557E+03  0.13258871693E+03  0.00000000000E+00 0. -1.
         -2    1    1    2    0  502 -0.18324790670E+01 -0.36946421231E+02 -0.97053239204E+00  0.37004566670E+02  0.00000000000E+00 0.  1.
<mgrwt>
<rscale>  2 0.36991837E+02</rscale>
<asrwt>0</asrwt>
<pdfrwt beam="1">  1       21 0.31768360E-02 0.36991837E+02</pdfrwt>
<pdfrwt beam="2">  1       21 0.22914438E-01 0.36991837E+02</pdfrwt>
<totfact> 0.89239722E+06</totfact>
</mgrwt>
</event>
<event>
 4    1  0.2721071E+004  0.3076641E+02  0.7546771E-02  0.1589768E+00
         21   -1    0    0  501  502  0.00000000000E+00  0.00000000000E+00  0.11953989195E+01  0.11953989195E+01  0.00000000000E+00 0.  1.
         21   -1    0    0  502  503 -0.00000000000E+00 -0.00000000000E+00 -0.81163324164E+03  0.81163324164E+03  0.00000000000E+00 0. -1.
          2    1    1    2  501    0  0.10914959290E+02 -0.28765178929E+02 -0.34176160572E+03  0.34314365359E+03  0.00000000000E+00 0.  1.
         -2    1    1    2    0  503 -0.10914959290E+02  0.28765178929E+02 -0.46867623700E+03  0.46968498697E+03  0.00000000000E+00 0. -1.
<mgrwt>
<rscale>  2 0.30766408E+02</rscale>
<asrwt>0</asrwt>
<pdfrwt beam="1">  1       21 0.18390715E-03 0.30766408E+02</pdfrwt>
<pdfrwt beam="2">  1       21 0.12486691E+00 0.30766408E+02</pdfrwt>
<totfact> 0.21208064E+07</totfact>
</mgrwt>
</event>
<event>
 4    1  0.2721071E+004  0.2141752E+02  0.7546771E-02  0.1718525E+00
         21   -1    0    0  503  502  0.00000000000E+00  0.00000000000E+00  0.48851203128E+00  0.48851203128E+00  0.00000000000E+00 0. -1.
         21   -1    0    0  501  503 -0.00000000000E+00 -0.00000000000E+00 -0.12628962687E+04  0.12628962687E+04  0.00000000000E+00 0.  1.
          2    1    1    2  501    0  0.41476548290E+01 -0.21012066605E+02 -0.95111448488E+03  0.95135559773E+03  0.00000000000E+00 0. -1.
         -2    1    1    2    0  502 -0.41476548290E+01  0.21012066605E+02 -0.31129327182E+03  0.31202918304E+03  0.00000000000E+00 0.  1.
<mgrwt>
<rscale>  2 0.21417516E+02</rscale>
<asrwt>0</asrwt>
<pdfrwt beam="1">  1       21 0.75156116E-04 0.21417516E+02</pdfrwt>
<pdfrwt beam="2">  1       21 0.19429065E+00 0.21417516E+02</pdfrwt>
<totfact> 0.24841361E+07</totfact>
</mgrwt>
</event>
<event>
 4    1  0.2721071E+004  0.2401102E+02  0.7546771E-02  0.1675627E+00
         21   -1    0    0  501  502  0.00000000000E+00  0.00000000000E+00  0.87420481830E+01  0.87420481830E+01  0.00000000000E+00 0. -1.
         21   -1    0    0  502  503 -0.00000000000E+00 -0.00000000000E+00 -0.68022094097E+02  0.68022094097E+02  0.00000000000E+00 0.  1.
          2    1    1    2  501    0 -0.70706156575E+01 -0.22946358626E+02 -0.22939369217E+02  0.33207584074E+02  0.00000000000E+00 0. -1.
         -2    1    1    2    0  503  0.70706156575E+01  0.22946358626E+02 -0.36340676697E+02  0.43556558206E+02  0.00000000000E+00 0.  1.
<mgrwt>
<rscale>  2 0.24011018E+02</rscale>
<asrwt>0</asrwt>
<pdfrwt beam="1">  1       21 0.13449305E-02 0.24011018E+02</pdfrwt>
<pdfrwt beam="2">  1       21 0.10464938E-01 0.24011018E+02</pdfrwt>
<totfact> 0.11988994E+08</totfact>
</mgrwt>
</event>
<event>
 4    1  0.2721071E+004  0.2234577E+02  0.7546771E-02  0.1702340E+00
         21   -1    0    0  503  502  0.00000000000E+00  0.00000000000E+00  0.19173551885E+02  0.19173551885E+02  0.00000000000E+00 0.  1.
         21   -1    0    0  501  503 -0.00000000000E+00 -0.00000000000E+00 -0.91103917700E+02  0.91103917700E+02  0.00000000000E+00 0. -1.
          2    1    1    2  501    0 -0.19690595022E+02 -0.10564743505E+02 -0.82561218377E+02  0.85531795945E+02  0.00000000000E+00 0. -1.
         -2    1    1    2    0  502  0.19690595022E+02  0.10564743505E+02  0.10630852563E+02  0.24745673640E+02  0.00000000000E+00 0.  1.
<mgrwt>
<rscale>  2 0.22345768E+02</rscale>
<asrwt>0</asrwt>
<pdfrwt beam="1">  1       21 0.29497773E-02 0.22345768E+02</pdfrwt>
<pdfrwt beam="2">  1       21 0.14015987E-01 0.22345768E+02</pdfrwt>
<totfact> 0.21600506E+07</totfact>
</mgrwt>
</event>
<event>
 4    1  0.2721071E+004  0.2348521E+02  0.7546771E-02  0.1683764E+00
         21   -1    0    0  501  502  0.00000000000E+00  0.00000000000E+00  0.18352749740E+02  0.18352749740E+02  0.00000000000E+00 0. -1.
         21   -1    0    0  502  503 -0.00000000000E+00 -0.00000000000E+00 -0.30737239686E+02  0.30737239686E+02  0.00000000000E+00 0.  1.
          2    1    1    2  501    0  0.23442881669E+02 -0.14093562741E+01 -0.25300780853E+01  0.23621098221E+02  0.00000000000E+00 0. -1.
         -2    1    1    2    0  503 -0.23442881669E+02  0.14093562741E+01 -0.98544118606E+01  0.25468891204E+02  0.00000000000E+00 0.  1.
<mgrwt>
<rscale>  2 0.23485208E+02</rscale>
<asrwt>0</asrwt>
<pdfrwt beam="1">  1       21 0.28235000E-02 0.23485208E+02</pdfrwt>
<pdfrwt beam="2">  1       21 0.47288061E-02 0.23485208E+02</pdfrwt>
<totfact> 0.13849844E+08</totfact>
</mgrwt>
</event>
<event>
 4    1  0.2721071E+004  0.2494732E+02  0.7546771E-02  0.1661760E+00
         21   -1    0    0  501  502  0.00000000000E+00  0.00000000000E+00  0.94591814088E+02  0.94591814088E+02  0.00000000000E+00 0.  1.
         21   -1    0    0  502  503 -0.00000000000E+00 -0.00000000000E+00 -0.67518166422E+01  0.67518166422E+01  0.00000000000E+00 0. -1.
          2    1    1    2  501    0  0.23823927537E+01 -0.24833302662E+02  0.52014587080E+02  0.57687832213E+02  0.00000000000E+00 0. -1.
         -2    1    1    2    0  503 -0.23823927537E+01  0.24833302662E+02  0.35825410366E+02  0.43655798518E+02  0.00000000000E+00 0.  1.
<mgrwt>
<rscale>  2 0.24947319E+02</rscale>
<asrwt>0</asrwt>
<pdfrwt beam="1">  1       21 0.14552586E-01 0.24947319E+02</pdfrwt>
<pdfrwt beam="2">  1       21 0.10387411E-02 0.24947319E+02</pdfrwt>
<totfact> 0.10281872E+08</totfact>
</mgrwt>
</event>
<event>
 4    1  0.2721071E+004  0.2752743E+02  0.7546771E-02  0.1627146E+00
         21   -1    0    0  501  502  0.00000000000E+00  0.00000000000E+00  0.17978948180E+02  0.17978948180E+02  0.00000000000E+00 0.  1.
         21   -1    0    0  502  503 -0.00000000000E+00 -0.00000000000E+00 -0.85477630642E+02  0.85477630642E+02  0.00000000000E+00 0. -1.
          2    1    1    2  501    0  0.26719369866E+02 -0.66207656221E+01  0.30804481552E+01  0.27699249525E+02  0.00000000000E+00 0.  1.
         -2    1    1    2    0  503 -0.26719369866E+02  0.66207656221E+01 -0.70579130617E+02  0.75757329296E+02  0.00000000000E+00 0. -1.
<mgrwt>
<rscale>  2 0.27527427E+02</rscale>
<asrwt>0</asrwt>
<pdfrwt beam="1">  1       21 0.27659920E-02 0.27527427E+02</pdfrwt>
<pdfrwt beam="2">  1       21 0.13150405E-01 0.27527427E+02</pdfrwt>
<totfact> 0.27836485E+07</totfact>
</mgrwt>
</event>
<event>
 4    1  0.2721071E+004  0.2367294E+02  0.7546771E-02  0.1680829E+00
         21   -1    0    0  501  502  0.00000000000E+00  0.00000000000E+00  0.64752371462E+01  0.64752371462E+01  0.00000000000E+00 0.  1.
         21   -1    0    0  502  503 -0.00000000000E+00 -0.00000000000E+00 -0.25918858995E+03  0.25918858995E+03  0.00000000000E+00 0. -1.
          2    1    1    2  501    0 -0.15953433709E+02  0.17489888301E+02 -0.17947011683E+02  0.29706959929E+02  0.00000000000E+00 0.  1.
         -2    1    1    2    0  503  0.15953433709E+02 -0.17489888301E+02 -0.23476634112E+03  0.23595686717E+03  0.00000000000E+00 0. -1.
<mgrwt>
<rscale>  2 0.23672943E+02</rscale>
<asrwt>0</asrwt>
<pdfrwt beam="1">  1       21 0.99619038E-03 0.23672943E+02</pdfrwt>
<pdfrwt beam="2">  1       21 0.39875166E-01 0.23672943E+02</pdfrwt>
<totfact> 0.17885404E+07</totfact>
</mgrwt>
</event>
<event>
 4    1  0.2721071E+004  0.3722336E+02  0.7546771E-02  0.1529699E+00
         21   -1    0    0  501  502  0.00000000000E+00  0.00000000000E+00  0.16890877097E+02  0.16890877097E+02  0.00000000000E+00 0.  1.
         21   -1    0    0  502  503 -0.00000000000E+00 -0.00000000000E+00 -0.23200860153E+03  0.23200860153E+03  0.00000000000E+00 0. -1.
          2    1    1    2  501    0  0.10641314898E+02 -0.35669889243E+02 -0.75001545609E+01  0.37971448482E+02  0.00000000000E+00 0.  1.
         -2    1    1    2    0  503 -0.10641314898E+02  0.35669889243E+02 -0.20761756987E+03  0.21092803015E+03  0.00000000000E+00 0. -1.
<mgrwt>
<rscale>  2 0.37223361E+02</rscale>
<asrwt>0</asrwt>
<pdfrwt beam="1">  1       21 0.25985965E-02 0.37223361E+02</pdfrwt>
<pdfrwt beam="2">  1       21 0.35693630E-01 0.37223361E+02</pdfrwt>
<totfact> 0.54162587E+06</totfact>
</mgrwt>
</event>
<event>
 4    1  0.2721071E+004  0.2654214E+02  0.7546771E-02  0.1639791E+00
         21   -1    0    0  503  502  0.00000000000E+00  0.00000000000E+00  0.20023349332E+03  0.20023349332E+03  0.00000000000E+00 0.  1.
         21   -1    0    0  501  503 -0.00000000000E+00 -0.00000000000E+00 -0.36516910254E+01  0.36516910254E+01  0.00000000000E+00 0. -1.
          2    1    1    2  501    0 -0.26452016288E+02 -0.21854522390E+01  0.78808587990E+02  0.83158155993E+02  0.00000000000E+00 0. -1.
         -2    1    1    2    0  502  0.26452016288E+02  0.21854522390E+01  0.11777321431E+03  0.12072702835E+03  0.00000000000E+00 0.  1.
<mgrwt>
<rscale>  2 0.26542143E+02</rscale>
<asrwt>0</asrwt>
<pdfrwt beam="1">  1       21 0.30805144E-01 0.26542143E+02</pdfrwt>
<pdfrwt beam="2">  1       21 0.56179878E-03 0.26542143E+02</pdfrwt>
<totfact> 0.69742301E+07</totfact>
</mgrwt>
</event>
<event>
 4    1  0.2721071E+004  0.2232639E+02  0.7546771E-02  0.1702668E+00
         21   -1    0    0  501  502  0.00000000000E+00  0.00000000000E+00  0.76474598562E+01  0.76474598562E+01  0.00000000000E+00 0. -1.
         21   -1    0    0  502  503 -0.00000000000E+00 -0.00000000000E+00 -0.66318193665E+02  0.66318193665E+02  0.00000000000E+00 0.  1.
          2    1    1    2  501    0 -0.21713502461E+02 -0.51953449080E+01 -0.34178573650E+02  0.40824535449E+02  0.00000000000E+00 0.  1.
         -2    1    1    2    0  503  0.21713502461E+02  0.51953449080E+01 -0.24492160159E+02  0.33141118072E+02  0.00000000000E+00 0. -1.
<mgrwt>
<rscale>  2 0.22326392E+02</rscale>
<asrwt>0</asrwt>
<pdfrwt beam="1">  1       21 0.11765322E-02 0.22326392E+02</pdfrwt>
<pdfrwt beam="2">  1       21 0.10202800E-01 0.22326392E+02</pdfrwt>
<totfact> 0.14982728E+08</totfact>
</mgrwt>
</event>
<event>
 4    1  0.2721071E+004  0.3579499E+02  0.7546771E-02  0.1541652E+00
         21   -1    0    0  503  502  0.00000000000E+00  0.00000000000E+00  0.21901446382E+03  0.21901446382E+03  0.00000000000E+00 0.  1.
         21   -1    0    0  501  503 -0.00000000000E+00 -0.00000000000E+00 -0.95384316266E+01  0.95384316266E+01  0.00000000000E+00 0. -1.
          2    1    1    2  501    0  0.40015296116E+01 -0.35570622573E+02  0.33677798960E+02  0.49147487955E+02  0.00000000000E+00 0. -1.
         -2    1    1    2    0  502 -0.40015296116E+01  0.35570622573E+02  0.17579823323E+03  0.17940540749E+03  0.00000000000E+00 0.  1.
<mgrwt>
<rscale>  2 0.35794992E+02</rscale>
<asrwt>0</asrwt>
<pdfrwt beam="1">  1       21 0.33694529E-01 0.35794992E+02</pdfrwt>
<pdfrwt beam="2">  1       21 0.14674512E-02 0.35794992E+02</pdfrwt>
<totfact> 0.14633523E+07</totfact>
</mgrwt>
</event>
<event>
 4    1  0.2721071E+004  0.2107941E+02  0.7546771E-02  0.1724677E+00
         21   -1    0    0  501  502  0.00000000000E+00  0.00000000000E+00  0.29166765215E+01  0.29166765215E+01  0.00000000000E+00 0. -1.
         21   -1    0    0  502  503 -0.00000000000E+00 -0.00000000000E+00 -0.17514665900E+03  0.17514665900E+03  0.00000000000E+00 0.  1.
          2    1    1    2  501    0 -0.19060380339E+02 -0.90024047383E+01 -0.53991273063E+02  0.57960322262E+02  0.00000000000E+00 0. -1.
         -2    1    1    2    0  503  0.19060380339E+02  0.90024047383E+01 -0.11823870941E+03  0.12010301326E+03  0.00000000000E+00 0.  1.
<mgrwt>
<rscale>  2 0.21079407E+02</rscale>
<asrwt>0</asrwt>
<pdfrwt beam="1">  1       21 0.44871948E-03 0.21079407E+02</pdfrwt>
<pdfrwt beam="2">  1       21 0.26945639E-01 0.21079407E+02</pdfrwt>
<totfact> 0.11666693E+08</totfact>
</mgrwt>
</event>
<event>
 4    1  0.2721071E+004  0.2193688E+02  0.7546771E-02  0.1709346E+00
         21   -1    0    0  503  502  0.00000000000E+00  0.00000000000E+00  0.13254919669E+02  0.13254919669E+02  0.00000000000E+00 0.  1.
         21   -1    0    0  501  503 -0.00000000000E+00 -0.00000000000E+00 -0.49868400389E+02  0.49868400389E+02  0.00000000000E+00 0. -1.
          2    1    1    2  501    0 -0.75732772667E+01 -0.20588159302E+02 -0.34766480967E+02  0.41108819380E+02  0.00000000000E+00 0.  1.
         -2    1    1    2    0  502  0.75732772667E+01  0.20588159302E+02 -0.18469997528E+01  0.22014500678E+02  0.00000000000E+00 0. -1.
<mgrwt>
<rscale>  2 0.21936883E+02</rscale>
<asrwt>0</asrwt>
<pdfrwt beam="1">  1       21 0.20392184E-02 0.21936883E+02</pdfrwt>
<pdfrwt beam="2">  1       21 0.76720616E-02 0.21936883E+02</pdfrwt>
<totfact> 0.10310496E+08</totfact>
</mgrwt>
</event>
<event>
 4    1  0.2721071E+004  0.4693444E+02  0.7546771E-02  0.1462614E+00
         21   -1    0    0  503  502  0.00000000000E+00  0.00000000000E+00  0.60121221604E+03  0.60121221604E+03  0.00000000000E+00 0. -1.
         21   -1    0    0  501  503 -0.00000000000E+00 -0.00000000000E+00 -0.37747329718E+01  0.37747329718E+01  0.00000000000E+00 0.  1.
          2    1    1    2  501    0  0.46758490631E+02  0.40602136273E+01  0.24690909265E+03  0.25133034400E+03  0.00000000000E+00 0.  1.
         -2    1    1    2    0  502 -0.46758490631E+02 -0.40602136273E+01  0.35052839041E+03  0.35365660501E+03  0.00000000000E+00 0. -1.
<mgrwt>
<rscale>  2 0.46934441E+02</rscale>
<asrwt>0</asrwt>
<pdfrwt beam="1">  1       21 0.92494111E-01 0.46934441E+02</pdfrwt>
<pdfrwt beam="2">  1       21 0.58072863E-03 0.46934441E+02</pdfrwt>
<totfact> 0.80159180E+06</totfact>
</mgrwt>
</event>
