<event>
 4    1  0.4556894E+006  0.2140305E+02  0.7546771E-02  0.1718785E+00
         21   -1    0    0  503  501  0.00000000000E+00  0.00000000000E+00  0.12096000721E+04  0.12096000721E+04  0.00000000000E+00 0.  1.
         21   -1    0    0  504  502 -0.00000000000E+00 -0.00000000000E+00 -0.74515070365E+00  0.74515070365E+00  0.00000000000E+00 0. -1.
         21    1    1    2  503  502 -0.60943040201E+01 -0.20517062130E+02  0.18004471306E+03  0.18131240741E+03  0.00000000000E+00 0. -1.
         21    1    1    2  504  501  0.60943040201E+01  0.20517062130E+02  0.10288102083E+04  0.10290328154E+04  0.00000000000E+00 0.  1.
<mgrwt>
<rscale>  2 0.21403046E+02</rscale>
<asrwt>0</asrwt>
<pdfrwt beam="1">  1       21 0.18609075E+00 0.21403046E+02</pdfrwt>
<pdfrwt beam="2">  1       21 0.11463954E-03 0.21403046E+02</pdfrwt>
<totfact> 0.15210539E+07</totfact>
</mgrwt>
</event>
<event>
 4    1  0.4556894E+006  0.3347893E+02  0.7546771E-02  0.1562538E+00
         21   -1    0    0  503  501  0.00000000000E+00  0.00000000000E+00  0.48628588985E+03  0.48628588985E+03  0.00000000000E+00 0.  1.
         21   -1    0    0  504  502 -0.00000000000E+00 -0.00000000000E+00 -0.16869584934E+02  0.16869584934E+02  0.00000000000E+00 0. -1.
         21    1    1    2  503  502  0.27158913863E+02 -0.19576319295E+02  0.46846836879E+03  0.46966312548E+03  0.00000000000E+00 0.  1.
         21    1    1    2  504  501 -0.27158913863E+02  0.19576319295E+02  0.94793613225E+00  0.33492349310E+02  0.00000000000E+00 0. -1.
<mgrwt>
<rscale>  2 0.33478932E+02</rscale>
<asrwt>0</asrwt>
<pdfrwt beam="1">  1       21 0.74813203E-01 0.33478932E+02</pdfrwt>
<pdfrwt beam="2">  1       21 0.25953211E-02 0.33478932E+02</pdfrwt>
<totfact> 0.12306249E+06</totfact>
</mgrwt>
</event>
<event>
 4    1  0.4556894E+006  0.3422929E+02  0.7546771E-02  0.1555553E+00
         21   -1    0    0  504  501  0.00000000000E+00  0.00000000000E+00  0.23833164007E+02  0.23833164007E+02  0.00000000000E+00 0.  1.
         21   -1    0    0  501  502 -0.00000000000E+00 -0.00000000000E+00 -0.43778483547E+03  0.43778483547E+03  0.00000000000E+00 0.  1.
         21    1    1    2  503  502  0.35244927334E+01  0.34047356648E+02 -0.42443990585E+03  0.42581789327E+03  0.00000000000E+00 0.  1.
         21    1    1    2  504  503 -0.35244927334E+01 -0.34047356648E+02  0.10488234395E+02  0.35800106207E+02  0.00000000000E+00 0.  1.
<mgrwt>
<rscale>  2 0.34229294E+02</rscale>
<asrwt>0</asrwt>
<pdfrwt beam="1">  1       21 0.36666404E-02 0.34229294E+02</pdfrwt>
<pdfrwt beam="2">  1       21 0.67351516E-01 0.34229294E+02</pdfrwt>
<totfact> 0.88872094E+05</totfact>
</mgrwt>
</event>
<event>
 4    1  0.4556894E+006  0.2824263E+02  0.7546771E-02  0.1618368E+00
         21   -1    0    0  504  501  0.00000000000E+00  0.00000000000E+00  0.13565633375E+02  0.13565633375E+02  0.00000000000E+00 0. -1.
         21   -1    0    0  503  502 -0.00000000000E+00 -0.00000000000E+00 -0.10334851572E+03  0.10334851572E+03  0.00000000000E+00 0. -1.
         21    1    1    2  503  501 -0.86379698888E+01  0.26889248644E+02 -0.83271554741E+02  0.87930643381E+02  0.00000000000E+00 0. -1.
         21    1    1    2  504  502  0.86379698888E+01 -0.26889248644E+02 -0.65113276063E+01  0.28983505717E+02  0.00000000000E+00 0. -1.
<mgrwt>
<rscale>  2 0.28242631E+02</rscale>
<asrwt>0</asrwt>
<pdfrwt beam="1">  1       21 0.20870204E-02 0.28242631E+02</pdfrwt>
<pdfrwt beam="2">  1       21 0.15899772E-01 0.28242631E+02</pdfrwt>
<totfact> 0.31341097E+07</totfact>
</mgrwt>
</event>
<event>
 4    1  0.4556894E+006  0.2323214E+02  0.7546771E-02  0.1687775E+00
         21   -1    0    0  502  501  0.00000000000E+00  0.00000000000E+00  0.36784758252E+03  0.36784758252E+03  0.00000000000E+00 0. -1.
         21   -1    0    0  503  502 -0.00000000000E+00 -0.00000000000E+00 -0.23343862797E+01  0.23343862797E+01  0.00000000000E+00 0. -1.
         21    1    1    2  503  504  0.19700863351E+02  0.12312938409E+02  0.69949334166E+02  0.73706457107E+02  0.00000000000E+00 0. -1.
         21    1    1    2  504  501 -0.19700863351E+02 -0.12312938409E+02  0.29556386207E+03  0.29647551169E+03  0.00000000000E+00 0. -1.
<mgrwt>
<rscale>  2 0.23232143E+02</rscale>
<asrwt>0</asrwt>
<pdfrwt beam="1">  1       21 0.56591890E-01 0.23232143E+02</pdfrwt>
<pdfrwt beam="2">  1       21 0.35913664E-03 0.23232143E+02</pdfrwt>
<totfact> 0.41115498E+07</totfact>
</mgrwt>
</event>
<event>
 4    1  0.4556894E+006  0.2814163E+02  0.7546771E-02  0.1619588E+00
         21   -1    0    0  502  501  0.00000000000E+00  0.00000000000E+00  0.22213646986E+03  0.22213646986E+03  0.00000000000E+00 0.  1.
         21   -1    0    0  504  502 -0.00000000000E+00 -0.00000000000E+00 -0.21684696772E+03  0.21684696772E+03  0.00000000000E+00 0. -1.
         21    1    1    2  503  501 -0.15512351523E+02 -0.23480167744E+02  0.22032467272E+03  0.22211463873E+03  0.00000000000E+00 0.  1.
         21    1    1    2  504  503  0.15512351523E+02  0.23480167744E+02 -0.21503517058E+03  0.21686879885E+03  0.00000000000E+00 0. -1.
<mgrwt>
<rscale>  2 0.28141630E+02</rscale>
<asrwt>0</asrwt>
<pdfrwt beam="1">  1       21 0.34174842E-01 0.28141630E+02</pdfrwt>
<pdfrwt beam="2">  1       21 0.33361072E-01 0.28141630E+02</pdfrwt>
<totfact> 0.78707138E+04</totfact>
</mgrwt>
</event>
<event>
 4    1  0.4556894E+006  0.2385212E+02  0.7546771E-02  0.1678059E+00
         21   -1    0    0  504  501  0.00000000000E+00  0.00000000000E+00  0.14403215544E+03  0.14403215544E+03  0.00000000000E+00 0.  1.
         21   -1    0    0  503  502 -0.00000000000E+00 -0.00000000000E+00 -0.52878875205E+01  0.52878875205E+01  0.00000000000E+00 0.  1.
         21    1    1    2  503  501 -0.23657815866E+02 -0.30382914263E+01  0.31817735899E+02  0.39765459687E+02  0.00000000000E+00 0.  1.
         21    1    1    2  504  502  0.23657815866E+02  0.30382914263E+01  0.10692653202E+03  0.10955458327E+03  0.00000000000E+00 0.  1.
<mgrwt>
<rscale>  2 0.23852117E+02</rscale>
<asrwt>0</asrwt>
<pdfrwt beam="1">  1       21 0.22158790E-01 0.23852117E+02</pdfrwt>
<pdfrwt beam="2">  1       21 0.81352126E-03 0.23852117E+02</pdfrwt>
<totfact> 0.70772822E+07</totfact>
</mgrwt>
</event>
<event>
 4    1  0.4556894E+006  0.2559068E+02  0.7546771E-02  0.1652660E+00
         21   -1    0    0  502  501  0.00000000000E+00  0.00000000000E+00  0.32420210274E+02  0.32420210274E+02  0.00000000000E+00 0. -1.
         21   -1    0    0  503  502 -0.00000000000E+00 -0.00000000000E+00 -0.45557326045E+02  0.45557326045E+02  0.00000000000E+00 0.  1.
         21    1    1    2  503  504 -0.16192962752E+02 -0.19815923555E+02 -0.35656536973E+02  0.43889309608E+02  0.00000000000E+00 0.  1.
         21    1    1    2  504  501  0.16192962752E+02  0.19815923555E+02  0.22519421202E+02  0.34088226711E+02  0.00000000000E+00 0. -1.
<mgrwt>
<rscale>  2 0.25590679E+02</rscale>
<asrwt>0</asrwt>
<pdfrwt beam="1">  1       21 0.49877246E-02 0.25590679E+02</pdfrwt>
<pdfrwt beam="2">  1       21 0.70088194E-02 0.25590679E+02</pdfrwt>
<totfact> 0.30691573E+07</totfact>
</mgrwt>
</event>
<event>
 4    1  0.4556894E+006  0.2086589E+02  0.7546771E-02  0.1728638E+00
         21   -1    0    0  504  501  0.00000000000E+00  0.00000000000E+00  0.30437964600E+02  0.30437964600E+02  0.00000000000E+00 0.  1.
         21   -1    0    0  503  502 -0.00000000000E+00 -0.00000000000E+00 -0.24041456557E+02  0.24041456557E+02  0.00000000000E+00 0. -1.
         21    1    1    2  503  501  0.18456927934E+02  0.97327833908E+01  0.20534075116E+02  0.29275134537E+02  0.00000000000E+00 0.  1.
         21    1    1    2  504  502 -0.18456927934E+02 -0.97327833908E+01 -0.14137567073E+02  0.25204286620E+02  0.00000000000E+00 0. -1.
<mgrwt>
<rscale>  2 0.20865888E+02</rscale>
<asrwt>0</asrwt>
<pdfrwt beam="1">  1       21 0.46827638E-02 0.20865888E+02</pdfrwt>
<pdfrwt beam="2">  1       21 0.36986856E-02 0.20865888E+02</pdfrwt>
<totfact> 0.89156944E+07</totfact>
</mgrwt>
</event>
<event>
 4    1  0.4556894E+006  0.2436327E+02  0.7546771E-02  0.1670319E+00
         21   -1    0    0  503  501  0.00000000000E+00  0.00000000000E+00  0.56284543279E+02  0.56284543279E+02  0.00000000000E+00 0.  1.
         21   -1    0    0  501  502 -0.00000000000E+00 -0.00000000000E+00 -0.14448214170E+02  0.14448214170E+02  0.00000000000E+00 0.  1.
         21    1    1    2  503  504  0.21646662043E+02 -0.11179944604E+02  0.39298211928E+02  0.46237631856E+02  0.00000000000E+00 0.  1.
         21    1    1    2  504  502 -0.21646662043E+02  0.11179944604E+02  0.25381171813E+01  0.24495125592E+02  0.00000000000E+00 0.  1.
<mgrwt>
<rscale>  2 0.24363274E+02</rscale>
<asrwt>0</asrwt>
<pdfrwt beam="1">  1       21 0.86591604E-02 0.24363274E+02</pdfrwt>
<pdfrwt beam="2">  1       21 0.22228022E-02 0.24363274E+02</pdfrwt>
<totfact> 0.76324898E+07</totfact>
</mgrwt>
</event>
<event>
 4    1  0.4556894E+006  0.2245925E+02  0.7546771E-02  0.1700428E+00
         21   -1    0    0  504  501  0.00000000000E+00  0.00000000000E+00  0.37574628469E+02  0.37574628469E+02  0.00000000000E+00 0.  1.
         21   -1    0    0  503  502 -0.00000000000E+00 -0.00000000000E+00 -0.29436156195E+02  0.29436156195E+02  0.00000000000E+00 0.  1.
         21    1    1    2  503  501 -0.20001994414E+02  0.10214610458E+02 -0.20641928134E+02  0.30504216831E+02  0.00000000000E+00 0.  1.
         21    1    1    2  504  502  0.20001994414E+02 -0.10214610458E+02  0.28780400407E+02  0.36506567833E+02  0.00000000000E+00 0.  1.
<mgrwt>
<rscale>  2 0.22459253E+02</rscale>
<asrwt>0</asrwt>
<pdfrwt beam="1">  1       21 0.57807121E-02 0.22459253E+02</pdfrwt>
<pdfrwt beam="2">  1       21 0.45286394E-02 0.22459253E+02</pdfrwt>
<totfact> 0.47318130E+07</totfact>
</mgrwt>
</event>
<event>
 4    1  0.4556894E+006  0.2542159E+02  0.7546771E-02  0.1655019E+00
         21   -1    0    0  503  501  0.00000000000E+00  0.00000000000E+00  0.37228097623E+02  0.37228097623E+02  0.00000000000E+00 0. -1.
         21   -1    0    0  504  502 -0.00000000000E+00 -0.00000000000E+00 -0.19018050585E+02  0.19018050585E+02  0.00000000000E+00 0. -1.
         21    1    1    2  503  502 -0.50143760963E+00 -0.25416639699E+02  0.17410388808E+02  0.30811988766E+02  0.00000000000E+00 0. -1.
         21    1    1    2  504  501  0.50143760963E+00  0.25416639699E+02  0.79965822941E+00  0.25434159442E+02  0.00000000000E+00 0. -1.
<mgrwt>
<rscale>  2 0.25421586E+02</rscale>
<asrwt>0</asrwt>
<pdfrwt beam="1">  1       21 0.57273996E-02 0.25421586E+02</pdfrwt>
<pdfrwt beam="2">  1       21 0.29258539E-02 0.25421586E+02</pdfrwt>
<totfact> 0.98632661E+07</totfact>
</mgrwt>
</event>
<event>
 4    1  0.4556894E+006  0.2513538E+02  0.7546771E-02  0.1659065E+00
         21   -1    0    0  503  501  0.00000000000E+00  0.00000000000E+00  0.14774306008E+03  0.14774306008E+03  0.00000000000E+00 0. -1.
         21   -1    0    0  504  502 -0.00000000000E+00 -0.00000000000E+00 -0.88696266026E+01  0.88696266026E+01  0.00000000000E+00 0. -1.
         21    1    1    2  503  502  0.22269637632E+02  0.11655501081E+02  0.12578879236E+03  0.12827551500E+03  0.00000000000E+00 0. -1.
         21    1    1    2  504  501 -0.22269637632E+02 -0.11655501081E+02  0.13084641119E+02  0.28337171682E+02  0.00000000000E+00 0. -1.
<mgrwt>
<rscale>  2 0.25135383E+02</rscale>
<asrwt>0</asrwt>
<pdfrwt beam="1">  1       21 0.22729700E-01 0.25135383E+02</pdfrwt>
<pdfrwt beam="2">  1       21 0.13645580E-02 0.25135383E+02</pdfrwt>
<totfact> 0.31410906E+07</totfact>
</mgrwt>
</event>
<event>
 4    1  0.4556894E+006  0.3230942E+02  0.7546771E-02  0.1573880E+00
         21   -1    0    0  504  501  0.00000000000E+00  0.00000000000E+00  0.44967431620E+01  0.44967431620E+01  0.00000000000E+00 0.  1.
         21   -1    0    0  503  502 -0.00000000000E+00 -0.00000000000E+00 -0.23391172173E+03  0.23391172173E+03  0.00000000000E+00 0.  1.
         21    1    1    2  503  501  0.18532437145E+02  0.26465965161E+02 -0.12506588341E+03  0.12917187670E+03  0.00000000000E+00 0.  1.
         21    1    1    2  504  502 -0.18532437145E+02 -0.26465965161E+02 -0.10434909516E+03  0.10923658819E+03  0.00000000000E+00 0.  1.
<mgrwt>
<rscale>  2 0.32309419E+02</rscale>
<asrwt>0</asrwt>
<pdfrwt beam="1">  1       21 0.69180656E-03 0.32309419E+02</pdfrwt>
<pdfrwt beam="2">  1       21 0.35986423E-01 0.32309419E+02</pdfrwt>
<totfact> 0.39901304E+07</totfact>
</mgrwt>
</event>
<event>
 4    1  0.4556894E+006  0.2722873E+02  0.7546771E-02  0.1630910E+00
         21   -1    0    0  502  501  0.00000000000E+00  0.00000000000E+00  0.16623650214E+02  0.16623650214E+02  0.00000000000E+00 0.  1.
         21   -1    0    0  504  502 -0.00000000000E+00 -0.00000000000E+00 -0.47282528695E+02  0.47282528695E+02  0.00000000000E+00 0.  1.
         21    1    1    2  503  501 -0.22550772265E+02  0.15259967568E+02 -0.77176357065E+01  0.28301339912E+02  0.00000000000E+00 0.  1.
         21    1    1    2  504  503  0.22550772265E+02 -0.15259967568E+02 -0.22941242774E+02  0.35604838997E+02  0.00000000000E+00 0.  1.
<mgrwt>
<rscale>  2 0.27228734E+02</rscale>
<asrwt>0</asrwt>
<pdfrwt beam="1">  1       21 0.25574847E-02 0.27228734E+02</pdfrwt>
<pdfrwt beam="2">  1       21 0.72742351E-02 0.27228734E+02</pdfrwt>
<totfact> 0.84055978E+07</totfact>
</mgrwt>
</event>
<event>
 4    1  0.4556894E+006  0.2088182E+02  0.7546771E-02  0.1728340E+00
         21   -1    0    0  502  501  0.00000000000E+00  0.00000000000E+00  0.27996958918E+02  0.27996958918E+02  0.00000000000E+00 0.  1.
         21   -1    0    0  504  502 -0.00000000000E+00 -0.00000000000E+00 -0.31354683567E+02  0.31354683567E+02  0.00000000000E+00 0.  1.
         21    1    1    2  503  501  0.13661153273E+02  0.15793138475E+02  0.19373547339E+02  0.28484814694E+02  0.00000000000E+00 0.  1.
         21    1    1    2  504  503 -0.13661153273E+02 -0.15793138475E+02 -0.22731271988E+02  0.30866827791E+02  0.00000000000E+00 0.  1.
<mgrwt>
<rscale>  2 0.20881818E+02</rscale>
<asrwt>0</asrwt>
<pdfrwt beam="1">  1       21 0.43072245E-02 0.20881818E+02</pdfrwt>
<pdfrwt beam="2">  1       21 0.48237974E-02 0.20881818E+02</pdfrwt>
<totfact> 0.66994077E+07</totfact>
</mgrwt>
</event>
<event>
 4    1  0.4556894E+006  0.2629116E+02  0.7546771E-02  0.1643120E+00
         21   -1    0    0  502  501  0.00000000000E+00  0.00000000000E+00  0.20599329914E+02  0.20599329914E+02  0.00000000000E+00 0.  1.
         21   -1    0    0  504  502 -0.00000000000E+00 -0.00000000000E+00 -0.43262579283E+02  0.43262579283E+02  0.00000000000E+00 0.  1.
         21    1    1    2  503  501 -0.22538204368E+02  0.13537140633E+02  0.37933836764E+01  0.26563407018E+02  0.00000000000E+00 0.  1.
         21    1    1    2  504  503  0.22538204368E+02 -0.13537140633E+02 -0.26456633046E+02  0.37298502179E+02  0.00000000000E+00 0.  1.
<mgrwt>
<rscale>  2 0.26291155E+02</rscale>
<asrwt>0</asrwt>
<pdfrwt beam="1">  1       21 0.31691277E-02 0.26291155E+02</pdfrwt>
<pdfrwt beam="2">  1       21 0.66557814E-02 0.26291155E+02</pdfrwt>
<totfact> 0.68871244E+07</totfact>
</mgrwt>
</event>
<event>
 4    1  0.4556894E+006  0.2141670E+02  0.7546771E-02  0.1718539E+00
         21   -1    0    0  504  501  0.00000000000E+00  0.00000000000E+00  0.11782570848E+03  0.11782570848E+03  0.00000000000E+00 0. -1.
         21   -1    0    0  503  502 -0.00000000000E+00 -0.00000000000E+00 -0.12537476363E+03  0.12537476363E+03  0.00000000000E+00 0.  1.
         21    1    1    2  503  501  0.21103179446E+02 -0.36511712265E+01 -0.12347206226E+03  0.12531570290E+03  0.00000000000E+00 0.  1.
         21    1    1    2  504  502 -0.21103179446E+02  0.36511712265E+01  0.11592300711E+03  0.11788476921E+03  0.00000000000E+00 0. -1.
<mgrwt>
<rscale>  2 0.21416705E+02</rscale>
<asrwt>0</asrwt>
<pdfrwt beam="1">  1       21 0.18127032E-01 0.21416705E+02</pdfrwt>
<pdfrwt beam="2">  1       21 0.19288425E-01 0.21416705E+02</pdfrwt>
<totfact> 0.64833537E+05</totfact>
</mgrwt>
</event>
<event>
 4    1  0.4556894E+006  0.2022284E+02  0.7546771E-02  0.1740933E+00
         21   -1    0    0  504  501  0.00000000000E+00  0.00000000000E+00  0.59663803313E+02  0.59663803313E+02  0.00000000000E+00 0.  1.
         21   -1    0    0  503  502 -0.00000000000E+00 -0.00000000000E+00 -0.14353474471E+03  0.14353474471E+03  0.00000000000E+00 0.  1.
         21    1    1    2  503  501  0.72236055215E+01 -0.18888695281E+02  0.57208205412E+02  0.60677360297E+02  0.00000000000E+00 0.  1.
         21    1    1    2  504  502 -0.72236055215E+01  0.18888695281E+02 -0.14107914681E+03  0.14252118772E+03  0.00000000000E+00 0.  1.
<mgrwt>
<rscale>  2 0.20222841E+02</rscale>
<asrwt>0</asrwt>
<pdfrwt beam="1">  1       21 0.91790467E-02 0.20222841E+02</pdfrwt>
<pdfrwt beam="2">  1       21 0.22082268E-01 0.20222841E+02</pdfrwt>
<totfact> 0.15945937E+06</totfact>
</mgrwt>
</event>
<event>
 4    1  0.4556894E+006  0.2225787E+02  0.7546771E-02  0.1703830E+00
         21   -1    0    0  502  501  0.00000000000E+00  0.00000000000E+00  0.24827740713E+02  0.24827740713E+02  0.00000000000E+00 0. -1.
         21   -1    0    0  503  502 -0.00000000000E+00 -0.00000000000E+00 -0.29889716612E+02  0.29889716612E+02  0.00000000000E+00 0. -1.
         21    1    1    2  503  504 -0.22074687478E+02 -0.28497658380E+01 -0.18304717398E+02  0.28817974801E+02  0.00000000000E+00 0. -1.
         21    1    1    2  504  501  0.22074687478E+02  0.28497658380E+01  0.13242741499E+02  0.25899482524E+02  0.00000000000E+00 0. -1.
<mgrwt>
<rscale>  2 0.22257875E+02</rscale>
<asrwt>0</asrwt>
<pdfrwt beam="1">  1       21 0.38196524E-02 0.22257875E+02</pdfrwt>
<pdfrwt beam="2">  1       21 0.45984179E-02 0.22257875E+02</pdfrwt>
<totfact> 0.88880485E+07</totfact>
</mgrwt>
</event>
<event>
 4    1  0.4556894E+006  0.2128067E+02  0.7546771E-02  0.1720998E+00
         21   -1    0    0  504  501  0.00000000000E+00  0.00000000000E+00  0.70993564993E+02  0.70993564993E+02  0.00000000000E+00 0. -1.
         21   -1    0    0  501  502 -0.00000000000E+00 -0.00000000000E+00 -0.48773971978E+02  0.48773971978E+02  0.00000000000E+00 0.  1.
         21    1    1    2  503  502  0.10476434192E+02 -0.18523261247E+02 -0.44720805913E+02  0.49525926161E+02  0.00000000000E+00 0.  1.
         21    1    1    2  504  503 -0.10476434192E+02  0.18523261247E+02  0.66940398927E+02  0.70241610810E+02  0.00000000000E+00 0. -1.
<mgrwt>
<rscale>  2 0.21280669E+02</rscale>
<asrwt>0</asrwt>
<pdfrwt beam="1">  1       21 0.10922087E-01 0.21280669E+02</pdfrwt>
<pdfrwt beam="2">  1       21 0.75036879E-02 0.21280669E+02</pdfrwt>
<totfact> 0.73910319E+06</totfact>
</mgrwt>
</event>
<event>
 4    1  0.4556894E+006  0.2090392E+02  0.7546771E-02  0.1727928E+00
         21   -1    0    0  503  501  0.00000000000E+00  0.00000000000E+00  0.10463172512E+02  0.10463172512E+02  0.00000000000E+00 0.  1.
         21   -1    0    0  504  502 -0.00000000000E+00 -0.00000000000E+00 -0.65469246196E+02  0.65469246196E+02  0.00000000000E+00 0.  1.
         21    1    1    2  503  502  0.25914143093E+01 -0.20742674158E+02 -0.46570702249E+01  0.21416401716E+02  0.00000000000E+00 0.  1.
         21    1    1    2  504  501 -0.25914143093E+01  0.20742674158E+02 -0.50349003459E+02  0.54516016992E+02  0.00000000000E+00 0.  1.
<mgrwt>
<rscale>  2 0.20903922E+02</rscale>
<asrwt>0</asrwt>
<pdfrwt beam="1">  1       21 0.16097188E-02 0.20903922E+02</pdfrwt>
<pdfrwt beam="2">  1       21 0.10072192E-01 0.20903922E+02</pdfrwt>
<totfact> 0.93426760E+07</totfact>
</mgrwt>
</event>
<event>
 4    1  0.4556894E+006  0.2241804E+02  0.7546771E-02  0.1701121E+00
         21   -1    0    0  503  501  0.00000000000E+00  0.00000000000E+00  0.25163340183E+02  0.25163340183E+02  0.00000000000E+00 0.  1.
         21   -1    0    0  504  502 -0.00000000000E+00 -0.00000000000E+00 -0.65433115321E+02  0.65433115321E+02  0.00000000000E+00 0.  1.
         21    1    1    2  503  502 -0.19644214246E+02  0.10801545401E+02  0.17622440905E+02  0.28515240834E+02  0.00000000000E+00 0.  1.
         21    1    1    2  504  501  0.19644214246E+02 -0.10801545401E+02 -0.57892216044E+02  0.62081214669E+02  0.00000000000E+00 0.  1.
<mgrwt>
<rscale>  2 0.22418040E+02</rscale>
<asrwt>0</asrwt>
<pdfrwt beam="1">  1       21 0.38712832E-02 0.22418040E+02</pdfrwt>
<pdfrwt beam="2">  1       21 0.10066633E-01 0.22418040E+02</pdfrwt>
<totfact> 0.24576514E+07</totfact>
</mgrwt>
</event>
<event>
 4    1  0.4556894E+006  0.2421674E+02  0.7546771E-02  0.1672514E+00
         21   -1    0    0  503  501  0.00000000000E+00  0.00000000000E+00  0.18168589757E+02  0.18168589757E+02  0.00000000000E+00 0. -1.
         21   -1    0    0  504  502 -0.00000000000E+00 -0.00000000000E+00 -0.17342671912E+03  0.17342671912E+03  0.00000000000E+00 0.  1.
         21    1    1    2  503  502  0.19937104031E+02 -0.13746362598E+02  0.87950482638E+01  0.25764383862E+02  0.00000000000E+00 0. -1.
         21    1    1    2  504  501 -0.19937104031E+02  0.13746362598E+02 -0.16405317762E+03  0.16583092501E+03  0.00000000000E+00 0.  1.
<mgrwt>
<rscale>  2 0.24216742E+02</rscale>
<asrwt>0</asrwt>
<pdfrwt beam="1">  1       21 0.27951676E-02 0.24216742E+02</pdfrwt>
<pdfrwt beam="2">  1       21 0.26681034E-01 0.24216742E+02</pdfrwt>
<totfact> 0.77782330E+06</totfact>
</mgrwt>
</event>
<event>
 4    1  0.4556894E+006  0.3913387E+02  0.7546771E-02  0.1514684E+00
         21   -1    0    0  504  501  0.00000000000E+00  0.00000000000E+00  0.15029919743E+02  0.15029919743E+02  0.00000000000E+00 0. -1.
         21   -1    0    0  501  502 -0.00000000000E+00 -0.00000000000E+00 -0.16678201225E+03  0.16678201225E+03  0.00000000000E+00 0.  1.
         21    1    1    2  503  502 -0.26098922093E+02  0.29160006679E+02 -0.13257822880E+03  0.13823330451E+03  0.00000000000E+00 0.  1.
         21    1    1    2  504  503  0.26098922093E+02 -0.29160006679E+02 -0.19173863710E+02  0.43578627486E+02  0.00000000000E+00 0. -1.
<mgrwt>
<rscale>  2 0.39133869E+02</rscale>
<asrwt>0</asrwt>
<pdfrwt beam="1">  1       21 0.23122954E-02 0.39133869E+02</pdfrwt>
<pdfrwt beam="2">  1       21 0.25658770E-01 0.39133869E+02</pdfrwt>
<totfact> 0.12095677E+07</totfact>
</mgrwt>
</event>
<event>
 4    1  0.4556894E+006  0.2025227E+02  0.7546771E-02  0.1740357E+00
         21   -1    0    0  504  501  0.00000000000E+00  0.00000000000E+00  0.22007766819E+02  0.22007766819E+02  0.00000000000E+00 0. -1.
         21   -1    0    0  503  502 -0.00000000000E+00 -0.00000000000E+00 -0.16141357937E+03  0.16141357937E+03  0.00000000000E+00 0. -1.
         21    1    1    2  503  501  0.29433790708E+01 -0.20037240879E+02  0.16550971057E+02  0.26155097884E+02  0.00000000000E+00 0. -1.
         21    1    1    2  504  502 -0.29433790708E+01  0.20037240879E+02 -0.15595678361E+03  0.15726624831E+03  0.00000000000E+00 0. -1.
<mgrwt>
<rscale>  2 0.20252272E+02</rscale>
<asrwt>0</asrwt>
<pdfrwt beam="1">  1       21 0.33858101E-02 0.20252272E+02</pdfrwt>
<pdfrwt beam="2">  1       21 0.24832860E-01 0.20252272E+02</pdfrwt>
<totfact> 0.63555369E+06</totfact>
</mgrwt>
</event>
<event>
 4    1  0.4556894E+006  0.2821860E+02  0.7546771E-02  0.1618658E+00
         21   -1    0    0  502  501  0.00000000000E+00  0.00000000000E+00  0.34492306517E+02  0.34492306517E+02  0.00000000000E+00 0.  1.
         21   -1    0    0  503  502 -0.00000000000E+00 -0.00000000000E+00 -0.44491139552E+02  0.44491139552E+02  0.00000000000E+00 0.  1.
         21    1    1    2  503  504  0.16949944350E+02  0.22560775760E+02 -0.32391710256E+02  0.42959423992E+02  0.00000000000E+00 0.  1.
         21    1    1    2  504  501 -0.16949944350E+02 -0.22560775760E+02  0.22392877221E+02  0.36024022077E+02  0.00000000000E+00 0.  1.
<mgrwt>
<rscale>  2 0.28218597E+02</rscale>
<asrwt>0</asrwt>
<pdfrwt beam="1">  1       21 0.53065087E-02 0.28218597E+02</pdfrwt>
<pdfrwt beam="2">  1       21 0.68447906E-02 0.28218597E+02</pdfrwt>
<totfact> 0.29501700E+07</totfact>
</mgrwt>
</event>
<event>
 4    1  0.4556894E+006  0.2426509E+02  0.7546771E-02  0.1671788E+00
         21   -1    0    0  503  501  0.00000000000E+00  0.00000000000E+00  0.20927180251E+02  0.20927180251E+02  0.00000000000E+00 0.  1.
         21   -1    0    0  501  502 -0.00000000000E+00 -0.00000000000E+00 -0.17575475115E+03  0.17575475115E+03  0.00000000000E+00 0.  1.
         21    1    1    2  503  504  0.19424436479E+02 -0.14542554954E+02  0.12712728735E+02  0.27393577879E+02  0.00000000000E+00 0.  1.
         21    1    1    2  504  502 -0.19424436479E+02  0.14542554954E+02 -0.16754029964E+03  0.16928835353E+03  0.00000000000E+00 0.  1.
<mgrwt>
<rscale>  2 0.24265091E+02</rscale>
<asrwt>0</asrwt>
<pdfrwt beam="1">  1       21 0.32195664E-02 0.24265091E+02</pdfrwt>
<pdfrwt beam="2">  1       21 0.27039191E-01 0.24265091E+02</pdfrwt>
<totfact> 0.60927396E+06</totfact>
</mgrwt>
</event>
<event>
 4    1  0.4556894E+006  0.2415841E+02  0.7546771E-02  0.1673393E+00
         21   -1    0    0  504  501  0.00000000000E+00  0.00000000000E+00  0.74140767604E+01  0.74140767604E+01  0.00000000000E+00 0.  1.
         21   -1    0    0  503  502 -0.00000000000E+00 -0.00000000000E+00 -0.78751106468E+02  0.78751106468E+02  0.00000000000E+00 0.  1.
         21    1    1    2  503  501 -0.20312847153E+02 -0.13077345821E+02 -0.36538370610E+02  0.43802754023E+02  0.00000000000E+00 0.  1.
         21    1    1    2  504  502  0.20312847153E+02  0.13077345821E+02 -0.34798659098E+02  0.42362429206E+02  0.00000000000E+00 0.  1.
<mgrwt>
<rscale>  2 0.24158409E+02</rscale>
<asrwt>0</asrwt>
<pdfrwt beam="1">  1       21 0.11406271E-02 0.24158409E+02</pdfrwt>
<pdfrwt beam="2">  1       21 0.12115556E-01 0.24158409E+02</pdfrwt>
<totfact> 0.12067358E+08</totfact>
</mgrwt>
</event>
<event>
 4    1  0.4556894E+006  0.5153052E+02  0.7546771E-02  0.1437257E+00
         21   -1    0    0  504  501  0.00000000000E+00  0.00000000000E+00  0.59897459255E+02  0.59897459255E+02  0.00000000000E+00 0. -1.
         21   -1    0    0  501  502 -0.00000000000E+00 -0.00000000000E+00 -0.14779397900E+03  0.14779397900E+03  0.00000000000E+00 0. -1.
         21    1    1    2  503  502 -0.26272150811E+02  0.44330221736E+02 -0.13083428040E+03  0.14061651181E+03  0.00000000000E+00 0. -1.
         21    1    1    2  504  503  0.26272150811E+02 -0.44330221736E+02  0.42937760652E+02  0.67074926442E+02  0.00000000000E+00 0. -1.
<mgrwt>
<rscale>  2 0.51530520E+02</rscale>
<asrwt>0</asrwt>
<pdfrwt beam="1">  1       21 0.92149938E-02 0.51530520E+02</pdfrwt>
<pdfrwt beam="2">  1       21 0.22737535E-01 0.51530520E+02</pdfrwt>
<totfact> 0.16342929E+06</totfact>
</mgrwt>
</event>
<event>
 4    1  0.4556894E+006  0.2407394E+02  0.7546771E-02  0.1674671E+00
         21   -1    0    0  504  501  0.00000000000E+00  0.00000000000E+00  0.54113181838E+01  0.54113181838E+01  0.00000000000E+00 0.  1.
         21   -1    0    0  503  502 -0.00000000000E+00 -0.00000000000E+00 -0.18335018800E+03  0.18335018800E+03  0.00000000000E+00 0.  1.
         21    1    1    2  503  501 -0.14887282752E+01  0.24027865359E+02 -0.14983363653E+03  0.15175530719E+03  0.00000000000E+00 0.  1.
         21    1    1    2  504  502  0.14887282752E+01 -0.24027865359E+02 -0.28105233282E+02  0.37006198986E+02  0.00000000000E+00 0.  1.
<mgrwt>
<rscale>  2 0.24073941E+02</rscale>
<asrwt>0</asrwt>
<pdfrwt beam="1">  1       21 0.83251054E-03 0.24073941E+02</pdfrwt>
<pdfrwt beam="2">  1       21 0.28207720E-01 0.24073941E+02</pdfrwt>
<totfact> 0.44526749E+07</totfact>
</mgrwt>
</event>
<event>
 4    1  0.4556894E+006  0.2852241E+02  0.7546771E-02  0.1615020E+00
         21   -1    0    0  502  501  0.00000000000E+00  0.00000000000E+00  0.77792305311E+01  0.77792305311E+01  0.00000000000E+00 0.  1.
         21   -1    0    0  503  502 -0.00000000000E+00 -0.00000000000E+00 -0.18698642301E+03  0.18698642301E+03  0.00000000000E+00 0.  1.
         21    1    1    2  503  504 -0.21058098955E+02 -0.19237570661E+02 -0.15425323362E+03  0.15686805838E+03  0.00000000000E+00 0.  1.
         21    1    1    2  504  501  0.21058098955E+02  0.19237570661E+02 -0.24953958859E+02  0.37897595164E+02  0.00000000000E+00 0.  1.
<mgrwt>
<rscale>  2 0.28522406E+02</rscale>
<asrwt>0</asrwt>
<pdfrwt beam="1">  1       21 0.11968048E-02 0.28522406E+02</pdfrwt>
<pdfrwt beam="2">  1       21 0.28767140E-01 0.28522406E+02</pdfrwt>
<totfact> 0.25764030E+07</totfact>
</mgrwt>
</event>
<event>
 4    1  0.4556894E+006  0.4490528E+02  0.7546771E-02  0.1474934E+00
         21   -1    0    0  503  501  0.00000000000E+00  0.00000000000E+00  0.32505287867E+03  0.32505287867E+03  0.00000000000E+00 0. -1.
         21   -1    0    0  504  502 -0.00000000000E+00 -0.00000000000E+00 -0.67035832607E+01  0.67035832607E+01  0.00000000000E+00 0. -1.
         21    1    1    2  503  502 -0.24242103395E+02  0.37799530595E+02  0.11387109521E+03  0.12240551628E+03  0.00000000000E+00 0. -1.
         21    1    1    2  504  501  0.24242103395E+02 -0.37799530595E+02  0.20447820020E+03  0.20935094566E+03  0.00000000000E+00 0. -1.
<mgrwt>
<rscale>  2 0.44905279E+02</rscale>
<asrwt>0</asrwt>
<pdfrwt beam="1">  1       21 0.50008123E-01 0.44905279E+02</pdfrwt>
<pdfrwt beam="2">  1       21 0.10313208E-02 0.44905279E+02</pdfrwt>
<totfact> 0.12099267E+07</totfact>
</mgrwt>
</event>
<event>
 4    1  0.4556894E+006  0.2552116E+02  0.7546771E-02  0.1653627E+00
         21   -1    0    0  503  501  0.00000000000E+00  0.00000000000E+00  0.27061766982E+03  0.27061766982E+03  0.00000000000E+00 0.  1.
         21   -1    0    0  504  502 -0.00000000000E+00 -0.00000000000E+00 -0.71986763394E+01  0.71986763394E+01  0.00000000000E+00 0. -1.
         21    1    1    2  503  502  0.16836963012E+02 -0.19179325196E+02  0.24504163059E+03  0.24636706468E+03  0.00000000000E+00 0.  1.
         21    1    1    2  504  501 -0.16836963012E+02  0.19179325196E+02  0.18377362887E+02  0.31449281472E+02  0.00000000000E+00 0. -1.
<mgrwt>
<rscale>  2 0.25521165E+02</rscale>
<asrwt>0</asrwt>
<pdfrwt beam="1">  1       21 0.41633480E-01 0.25521165E+02</pdfrwt>
<pdfrwt beam="2">  1       21 0.11074889E-02 0.25521165E+02</pdfrwt>
<totfact> 0.14251350E+07</totfact>
</mgrwt>
</event>
<event>
 4    1  0.4556894E+006  0.2243099E+02  0.7546771E-02  0.1700903E+00
         21   -1    0    0  504  501  0.00000000000E+00  0.00000000000E+00  0.34675709452E+01  0.34675709452E+01  0.00000000000E+00 0.  1.
         21   -1    0    0  503  502 -0.00000000000E+00 -0.00000000000E+00 -0.17479175564E+03  0.17479175564E+03  0.00000000000E+00 0.  1.
         21    1    1    2  503  501 -0.13272087903E+02  0.18083165921E+02 -0.12239623412E+03  0.12443467095E+03  0.00000000000E+00 0.  1.
         21    1    1    2  504  502  0.13272087903E+02 -0.18083165921E+02 -0.48927950570E+02  0.53824655633E+02  0.00000000000E+00 0.  1.
<mgrwt>
<rscale>  2 0.22430988E+02</rscale>
<asrwt>0</asrwt>
<pdfrwt beam="1">  1       21 0.53347233E-03 0.22430988E+02</pdfrwt>
<pdfrwt beam="2">  1       21 0.26891046E-01 0.22430988E+02</pdfrwt>
<totfact> 0.92354213E+07</totfact>
</mgrwt>
</event>
<event>
 4    1  0.4556894E+006  0.2038958E+02  0.7546771E-02  0.1737690E+00
         21   -1    0    0  504  501  0.00000000000E+00  0.00000000000E+00  0.32042314217E+03  0.32042314217E+03  0.00000000000E+00 0. -1.
         21   -1    0    0  501  502 -0.00000000000E+00 -0.00000000000E+00 -0.60035713923E+01  0.60035713923E+01  0.00000000000E+00 0. -1.
         21    1    1    2  503  502  0.17839722839E+02 -0.98731488653E+01  0.12705021574E+02  0.24023995353E+02  0.00000000000E+00 0. -1.
         21    1    1    2  504  503 -0.17839722839E+02  0.98731488653E+01  0.30171454921E+03  0.30240271821E+03  0.00000000000E+00 0. -1.
<mgrwt>
<rscale>  2 0.20389575E+02</rscale>
<asrwt>0</asrwt>
<pdfrwt beam="1">  1       21 0.49295855E-01 0.20389575E+02</pdfrwt>
<pdfrwt beam="2">  1       21 0.92362662E-03 0.20389575E+02</pdfrwt>
<totfact> 0.12972190E+07</totfact>
</mgrwt>
</event>
<event>
 4    1  0.4556894E+006  0.2086304E+02  0.7546771E-02  0.1728691E+00
         21   -1    0    0  502  501  0.00000000000E+00  0.00000000000E+00  0.90209206765E+02  0.90209206765E+02  0.00000000000E+00 0. -1.
         21   -1    0    0  504  502 -0.00000000000E+00 -0.00000000000E+00 -0.76784900722E+01  0.76784900722E+01  0.00000000000E+00 0.  1.
         21    1    1    2  503  501 -0.17363046107E+02  0.11566807247E+02  0.71101488840E+02  0.74099177562E+02  0.00000000000E+00 0. -1.
         21    1    1    2  504  503  0.17363046107E+02 -0.11566807247E+02  0.11429227852E+02  0.23788519275E+02  0.00000000000E+00 0.  1.
<mgrwt>
<rscale>  2 0.20863039E+02</rscale>
<asrwt>0</asrwt>
<pdfrwt beam="1">  1       21 0.13878339E-01 0.20863039E+02</pdfrwt>
<pdfrwt beam="2">  1       21 0.11813062E-02 0.20863039E+02</pdfrwt>
<totfact> 0.87358756E+07</totfact>
</mgrwt>
</event>
<event>
 4    1  0.4556894E+006  0.2146280E+02  0.7546771E-02  0.1717712E+00
         21   -1    0    0  504  501  0.00000000000E+00  0.00000000000E+00  0.34363873049E+03  0.34363873049E+03  0.00000000000E+00 0. -1.
         21   -1    0    0  503  502 -0.00000000000E+00 -0.00000000000E+00 -0.21894307264E+02  0.21894307264E+02  0.00000000000E+00 0.  1.
         21    1    1    2  503  501 -0.18877016511E+02 -0.10213235068E+02 -0.16210859916E+02  0.26896912502E+02  0.00000000000E+00 0.  1.
         21    1    1    2  504  502  0.18877016511E+02  0.10213235068E+02  0.33795528314E+03  0.33863612525E+03  0.00000000000E+00 0. -1.
<mgrwt>
<rscale>  2 0.21462803E+02</rscale>
<asrwt>0</asrwt>
<pdfrwt beam="1">  1       21 0.52867493E-01 0.21462803E+02</pdfrwt>
<pdfrwt beam="2">  1       21 0.33683552E-02 0.21462803E+02</pdfrwt>
<totfact> 0.15896791E+06</totfact>
</mgrwt>
</event>
<event>
 4    1  0.4556894E+006  0.3034657E+02  0.7546771E-02  0.1594289E+00
         21   -1    0    0  503  501  0.00000000000E+00  0.00000000000E+00  0.51744746692E+02  0.51744746692E+02  0.00000000000E+00 0. -1.
         21   -1    0    0  504  502 -0.00000000000E+00 -0.00000000000E+00 -0.12855727767E+03  0.12855727767E+03  0.00000000000E+00 0.  1.
         21    1    1    2  503  502 -0.28104091449E+02  0.11448770107E+02  0.45272217367E+02  0.54502183061E+02  0.00000000000E+00 0. -1.
         21    1    1    2  504  501  0.28104091449E+02 -0.11448770107E+02 -0.12208474835E+03  0.12579984130E+03  0.00000000000E+00 0.  1.
<mgrwt>
<rscale>  2 0.30346570E+02</rscale>
<asrwt>0</asrwt>
<pdfrwt beam="1">  1       21 0.79607303E-02 0.30346570E+02</pdfrwt>
<pdfrwt beam="2">  1       21 0.19778043E-01 0.30346570E+02</pdfrwt>
<totfact> 0.25652324E+06</totfact>
</mgrwt>
</event>
<event>
 4    1  0.4556894E+006  0.3593511E+02  0.7546771E-02  0.1540450E+00
         21   -1    0    0  504  501  0.00000000000E+00  0.00000000000E+00  0.25654382153E+03  0.25654382153E+03  0.00000000000E+00 0.  1.
         21   -1    0    0  501  502 -0.00000000000E+00 -0.00000000000E+00 -0.16919133913E+02  0.16919133913E+02  0.00000000000E+00 0.  1.
         21    1    1    2  503  502  0.24446996736E+01 -0.35851855370E+02  0.52111129868E+01  0.36310987160E+02  0.00000000000E+00 0.  1.
         21    1    1    2  504  503 -0.24446996736E+01  0.35851855370E+02  0.23441357463E+03  0.23715196829E+03  0.00000000000E+00 0.  1.
<mgrwt>
<rscale>  2 0.35935109E+02</rscale>
<asrwt>0</asrwt>
<pdfrwt beam="1">  1       21 0.39468277E-01 0.35935109E+02</pdfrwt>
<pdfrwt beam="2">  1       21 0.26029439E-02 0.35935109E+02</pdfrwt>
<totfact> 0.44438963E+06</totfact>
</mgrwt>
</event>
<event>
 4    1  0.4556894E+006  0.2172943E+02  0.7546771E-02  0.1712974E+00
         21   -1    0    0  504  501  0.00000000000E+00  0.00000000000E+00  0.67127497974E+03  0.67127497974E+03  0.00000000000E+00 0.  1.
         21   -1    0    0  503  502 -0.00000000000E+00 -0.00000000000E+00 -0.11652069666E+01  0.11652069666E+01  0.00000000000E+00 0.  1.
         21    1    1    2  503  501  0.12997558004E+02  0.17413540789E+02  0.54672386012E+03  0.54715550545E+03  0.00000000000E+00 0.  1.
         21    1    1    2  504  502 -0.12997558004E+02 -0.17413540789E+02  0.12338591264E+03  0.12528468125E+03  0.00000000000E+00 0.  1.
<mgrwt>
<rscale>  2 0.21729425E+02</rscale>
<asrwt>0</asrwt>
<pdfrwt beam="1">  1       21 0.10327276E+00 0.21729425E+02</pdfrwt>
<pdfrwt beam="2">  1       21 0.17926315E-03 0.21729425E+02</pdfrwt>
<totfact> 0.31734833E+07</totfact>
</mgrwt>
</event>
<event>
 4    1  0.4556894E+006  0.4091223E+02  0.7546771E-02  0.1501604E+00
         21   -1    0    0  502  501  0.00000000000E+00  0.00000000000E+00  0.48707888613E+02  0.48707888613E+02  0.00000000000E+00 0.  1.
         21   -1    0    0  504  502 -0.00000000000E+00 -0.00000000000E+00 -0.34478091114E+02  0.34478091114E+02  0.00000000000E+00 0.  1.
         21    1    1    2  503  501  0.25793838760E+02  0.31756710627E+02  0.95047432723E+01  0.42001796777E+02  0.00000000000E+00 0.  1.
         21    1    1    2  504  503 -0.25793838760E+02 -0.31756710627E+02  0.47250542272E+01  0.41184182950E+02  0.00000000000E+00 0.  1.
<mgrwt>
<rscale>  2 0.40912233E+02</rscale>
<asrwt>0</asrwt>
<pdfrwt beam="1">  1       21 0.74935214E-02 0.40912233E+02</pdfrwt>
<pdfrwt beam="2">  1       21 0.53043217E-02 0.40912233E+02</pdfrwt>
<totfact> 0.27283533E+07</totfact>
</mgrwt>
</event>
<event>
 4    1  0.4556894E+006  0.2230924E+02  0.7546771E-02  0.1702958E+00
         21   -1    0    0  502  501  0.00000000000E+00  0.00000000000E+00  0.14821034263E+03  0.14821034263E+03  0.00000000000E+00 0. -1.
         21   -1    0    0  504  502 -0.00000000000E+00 -0.00000000000E+00 -0.12432656262E+02  0.12432656262E+02  0.00000000000E+00 0.  1.
         21    1    1    2  503  501 -0.81979885788E+01  0.20748382810E+02  0.13651078230E+03  0.13832171229E+03  0.00000000000E+00 0. -1.
         21    1    1    2  504  503  0.81979885788E+01 -0.20748382810E+02 -0.73309593329E+00  0.22321286603E+02  0.00000000000E+00 0.  1.
<mgrwt>
<rscale>  2 0.22309245E+02</rscale>
<asrwt>0</asrwt>
<pdfrwt beam="1">  1       21 0.22801590E-01 0.22309245E+02</pdfrwt>
<pdfrwt beam="2">  1       21 0.19127165E-02 0.22309245E+02</pdfrwt>
<totfact> 0.18181577E+07</totfact>
</mgrwt>
</event>
<event>
 4    1  0.4556894E+006  0.2582209E+02  0.7546771E-02  0.1649467E+00
         21   -1    0    0  503  501  0.00000000000E+00  0.00000000000E+00  0.78432770806E+03  0.78432770806E+03  0.00000000000E+00 0. -1.
         21   -1    0    0  504  502 -0.00000000000E+00 -0.00000000000E+00 -0.16623019487E+01  0.16623019487E+01  0.00000000000E+00 0. -1.
         21    1    1    2  503  502  0.11392556704E+02 -0.23173042084E+02  0.66603112465E+03  0.66653149906E+03  0.00000000000E+00 0. -1.
         21    1    1    2  504  501 -0.11392556704E+02  0.23173042084E+02  0.11663428146E+03  0.11945851096E+03  0.00000000000E+00 0. -1.
<mgrwt>
<rscale>  2 0.25822088E+02</rscale>
<asrwt>0</asrwt>
<pdfrwt beam="1">  1       21 0.12066551E+00 0.25822088E+02</pdfrwt>
<pdfrwt beam="2">  1       21 0.25573939E-03 0.25822088E+02</pdfrwt>
<totfact> 0.13825126E+07</totfact>
</mgrwt>
</event>
<event>
 4    1  0.4556894E+006  0.2707913E+02  0.7546771E-02  0.1632818E+00
         21   -1    0    0  503  501  0.00000000000E+00  0.00000000000E+00  0.12779720342E+03  0.12779720342E+03  0.00000000000E+00 0.  1.
         21   -1    0    0  501  502 -0.00000000000E+00 -0.00000000000E+00 -0.17436786679E+02  0.17436786679E+02  0.00000000000E+00 0.  1.
         21    1    1    2  503  504  0.73335339073E+01 -0.26067191144E+02  0.11466124564E+03  0.11781545070E+03  0.00000000000E+00 0.  1.
         21    1    1    2  504  502 -0.73335339073E+01  0.26067191144E+02 -0.43008288906E+01  0.27418539401E+02  0.00000000000E+00 0.  1.
<mgrwt>
<rscale>  2 0.27079128E+02</rscale>
<asrwt>0</asrwt>
<pdfrwt beam="1">  1       21 0.19661108E-01 0.27079128E+02</pdfrwt>
<pdfrwt beam="2">  1       21 0.26825826E-02 0.27079128E+02</pdfrwt>
<totfact> 0.14543880E+07</totfact>
</mgrwt>
</event>
<event>
 4    1  0.4556894E+006  0.2364862E+02  0.7546771E-02  0.1681207E+00
         21   -1    0    0  504  501  0.00000000000E+00  0.00000000000E+00  0.13490752075E+01  0.13490752075E+01  0.00000000000E+00 0.  1.
         21   -1    0    0  501  502 -0.00000000000E+00 -0.00000000000E+00 -0.84088098450E+03  0.84088098450E+03  0.00000000000E+00 0. -1.
         21    1    1    2  503  502  0.17720222394E+02  0.15660489165E+02 -0.71961843894E+03  0.72000691307E+03  0.00000000000E+00 0. -1.
         21    1    1    2  504  503 -0.17720222394E+02 -0.15660489165E+02 -0.11991347035E+03  0.12222314664E+03  0.00000000000E+00 0.  1.
<mgrwt>
<rscale>  2 0.23648619E+02</rscale>
<asrwt>0</asrwt>
<pdfrwt beam="1">  1       21 0.20755043E-03 0.23648619E+02</pdfrwt>
<pdfrwt beam="2">  1       21 0.12936606E+00 0.23648619E+02</pdfrwt>
<totfact> 0.15732987E+07</totfact>
</mgrwt>
</event>
<event>
 4    1  0.4556894E+006  0.2558121E+02  0.7546771E-02  0.1652791E+00
         21   -1    0    0  503  501  0.00000000000E+00  0.00000000000E+00  0.37791909550E+01  0.37791909550E+01  0.00000000000E+00 0.  1.
         21   -1    0    0  501  502 -0.00000000000E+00 -0.00000000000E+00 -0.17391576839E+03  0.17391576839E+03  0.00000000000E+00 0.  1.
         21    1    1    2  503  504 -0.17556588986E+02  0.18605496000E+02 -0.90931784215E+02  0.94461567205E+02  0.00000000000E+00 0.  1.
         21    1    1    2  504  502  0.17556588986E+02 -0.18605496000E+02 -0.79204793220E+02  0.83233392140E+02  0.00000000000E+00 0.  1.
<mgrwt>
<rscale>  2 0.25581210E+02</rscale>
<asrwt>0</asrwt>
<pdfrwt beam="1">  1       21 0.58141401E-03 0.25581210E+02</pdfrwt>
<pdfrwt beam="2">  1       21 0.26756271E-01 0.25581210E+02</pdfrwt>
<totfact> 0.84892201E+07</totfact>
</mgrwt>
</event>
<event>
 4    1  0.4556894E+006  0.2218196E+02  0.7546771E-02  0.1705124E+00
         21   -1    0    0  503  501  0.00000000000E+00  0.00000000000E+00  0.17340932444E+03  0.17340932444E+03  0.00000000000E+00 0.  1.
         21   -1    0    0  504  502 -0.00000000000E+00 -0.00000000000E+00 -0.19528865071E+03  0.19528865071E+03  0.00000000000E+00 0. -1.
         21    1    1    2  503  502 -0.19228876825E+02 -0.11058469971E+02  0.17206517538E+03  0.17348908911E+03  0.00000000000E+00 0.  1.
         21    1    1    2  504  501  0.19228876825E+02  0.11058469971E+02 -0.19394450166E+03  0.19520888603E+03  0.00000000000E+00 0. -1.
<mgrwt>
<rscale>  2 0.22181963E+02</rscale>
<asrwt>0</asrwt>
<pdfrwt beam="1">  1       21 0.26678358E-01 0.22181963E+02</pdfrwt>
<pdfrwt beam="2">  1       21 0.30044408E-01 0.22181963E+02</pdfrwt>
<totfact> 0.15011614E+05</totfact>
</mgrwt>
</event>
<event>
 4    1  0.4556894E+006  0.2518979E+02  0.7546771E-02  0.1658291E+00
         21   -1    0    0  504  501  0.00000000000E+00  0.00000000000E+00  0.24051610676E+03  0.24051610676E+03  0.00000000000E+00 0.  1.
         21   -1    0    0  503  502 -0.00000000000E+00 -0.00000000000E+00 -0.27075090149E+01  0.27075090149E+01  0.00000000000E+00 0.  1.
         21    1    1    2  503  501  0.23782326365E+02 -0.83022024695E+01  0.13836405916E+03  0.14063832508E+03  0.00000000000E+00 0.  1.
         21    1    1    2  504  502 -0.23782326365E+02  0.83022024695E+01  0.99444538586E+02  0.10258529070E+03  0.00000000000E+00 0.  1.
<mgrwt>
<rscale>  2 0.25189792E+02</rscale>
<asrwt>0</asrwt>
<pdfrwt beam="1">  1       21 0.37002461E-01 0.25189792E+02</pdfrwt>
<pdfrwt beam="2">  1       21 0.41654004E-03 0.25189792E+02</pdfrwt>
<totfact> 0.76346764E+07</totfact>
</mgrwt>
</event>
<event>
 4    1  0.4556894E+006  0.2049796E+02  0.7546771E-02  0.1735603E+00
         21   -1    0    0  502  501  0.00000000000E+00  0.00000000000E+00  0.57301273727E+02  0.57301273727E+02  0.00000000000E+00 0.  1.
         21   -1    0    0  504  502 -0.00000000000E+00 -0.00000000000E+00 -0.11223853107E+02  0.11223853107E+02  0.00000000000E+00 0.  1.
         21    1    1    2  503  501 -0.15472262996E+02 -0.13445268818E+02  0.43212835873E+02  0.47827976750E+02  0.00000000000E+00 0.  1.
         21    1    1    2  504  503  0.15472262996E+02  0.13445268818E+02  0.28645847463E+01  0.20697150084E+02  0.00000000000E+00 0.  1.
<mgrwt>
<rscale>  2 0.20497955E+02</rscale>
<asrwt>0</asrwt>
<pdfrwt beam="1">  1       21 0.88155804E-02 0.20497955E+02</pdfrwt>
<pdfrwt beam="2">  1       21 0.17267467E-02 0.20497955E+02</pdfrwt>
<totfact> 0.10390698E+08</totfact>
</mgrwt>
</event>
<event>
 4    1  0.4556894E+006  0.4655137E+02  0.7546771E-02  0.1464883E+00
         21   -1    0    0  504  501  0.00000000000E+00  0.00000000000E+00  0.48971242953E+01  0.48971242953E+01  0.00000000000E+00 0.  1.
         21   -1    0    0  503  502 -0.00000000000E+00 -0.00000000000E+00 -0.44570057806E+03  0.44570057806E+03  0.00000000000E+00 0.  1.
         21    1    1    2  503  501  0.19807540128E+02  0.42127091060E+02 -0.23946145991E+03  0.24394429944E+03  0.00000000000E+00 0.  1.
         21    1    1    2  504  502 -0.19807540128E+02 -0.42127091060E+02 -0.20134199386E+03  0.20665340292E+03  0.00000000000E+00 0.  1.
<mgrwt>
<rscale>  2 0.46551374E+02</rscale>
<asrwt>0</asrwt>
<pdfrwt beam="1">  1       21 0.75340377E-03 0.46551374E+02</pdfrwt>
<pdfrwt beam="2">  1       21 0.68569317E-01 0.46551374E+02</pdfrwt>
<totfact> 0.10292191E+07</totfact>
</mgrwt>
</event>
<event>
 4    1  0.4556894E+006  0.2064061E+02  0.7546771E-02  0.1732881E+00
         21   -1    0    0  502  501  0.00000000000E+00  0.00000000000E+00  0.11556588762E+04  0.11556588762E+04  0.00000000000E+00 0.  1.
         21   -1    0    0  503  502 -0.00000000000E+00 -0.00000000000E+00 -0.87706105990E+00  0.87706105990E+00  0.00000000000E+00 0.  1.
         21    1    1    2  503  504 -0.75724303798E+01  0.19201382728E+02  0.13711868154E+03  0.13866350503E+03  0.00000000000E+00 0.  1.
         21    1    1    2  504  501  0.75724303798E+01 -0.19201382728E+02  0.10176631336E+04  0.10178724322E+04  0.00000000000E+00 0.  1.
<mgrwt>
<rscale>  2 0.20640610E+02</rscale>
<asrwt>0</asrwt>
<pdfrwt beam="1">  1       21 0.17779245E+00 0.20640610E+02</pdfrwt>
<pdfrwt beam="2">  1       21 0.13493340E-03 0.20640610E+02</pdfrwt>
<totfact> 0.13427386E+07</totfact>
</mgrwt>
</event>
<event>
 4    1  0.4556894E+006  0.2818691E+02  0.7546771E-02  0.1619040E+00
         21   -1    0    0  503  501  0.00000000000E+00  0.00000000000E+00  0.89773257724E+02  0.89773257724E+02  0.00000000000E+00 0.  1.
         21   -1    0    0  501  502 -0.00000000000E+00 -0.00000000000E+00 -0.30302503599E+02  0.30302503599E+02  0.00000000000E+00 0.  1.
         21    1    1    2  503  504 -0.24966141834E+02 -0.13084088686E+02  0.80250818815E+02  0.85057013439E+02  0.00000000000E+00 0.  1.
         21    1    1    2  504  502  0.24966141834E+02  0.13084088686E+02 -0.20780064689E+02  0.35018747883E+02  0.00000000000E+00 0.  1.
<mgrwt>
<rscale>  2 0.28186905E+02</rscale>
<asrwt>0</asrwt>
<pdfrwt beam="1">  1       21 0.13811270E-01 0.28186905E+02</pdfrwt>
<pdfrwt beam="2">  1       21 0.46619237E-02 0.28186905E+02</pdfrwt>
<totfact> 0.11274245E+07</totfact>
</mgrwt>
</event>
<event>
 4    1  0.4556894E+006  0.2572131E+02  0.7546771E-02  0.1650853E+00
         21   -1    0    0  502  501  0.00000000000E+00  0.00000000000E+00  0.36982630650E+02  0.36982630650E+02  0.00000000000E+00 0. -1.
         21   -1    0    0  504  502 -0.00000000000E+00 -0.00000000000E+00 -0.29642105766E+02  0.29642105766E+02  0.00000000000E+00 0. -1.
         21    1    1    2  503  501  0.74535692988E+01  0.24617677401E+02  0.24646402660E+02  0.35623459967E+02  0.00000000000E+00 0. -1.
         21    1    1    2  504  503 -0.74535692988E+01 -0.24617677401E+02 -0.17305877776E+02  0.31001276450E+02  0.00000000000E+00 0. -1.
<mgrwt>
<rscale>  2 0.25721309E+02</rscale>
<asrwt>0</asrwt>
<pdfrwt beam="1">  1       21 0.56896355E-02 0.25721309E+02</pdfrwt>
<pdfrwt beam="2">  1       21 0.45603239E-02 0.25721309E+02</pdfrwt>
<totfact> 0.49669552E+07</totfact>
</mgrwt>
</event>
<event>
 4    1  0.4556894E+006  0.2224102E+02  0.7546771E-02  0.1704117E+00
         21   -1    0    0  502  501  0.00000000000E+00  0.00000000000E+00  0.30941781387E+01  0.30941781387E+01  0.00000000000E+00 0. -1.
         21   -1    0    0  504  502 -0.00000000000E+00 -0.00000000000E+00 -0.35430068831E+03  0.35430068831E+03  0.00000000000E+00 0. -1.
         21    1    1    2  503  501 -0.71708735149E+01  0.21053307400E+02 -0.43225249168E+02  0.48611576246E+02  0.00000000000E+00 0. -1.
         21    1    1    2  504  503  0.71708735149E+01 -0.21053307400E+02 -0.30798126101E+03  0.30878329021E+03  0.00000000000E+00 0. -1.
<mgrwt>
<rscale>  2 0.22241025E+02</rscale>
<asrwt>0</asrwt>
<pdfrwt beam="1">  1       21 0.47602738E-03 0.22241025E+02</pdfrwt>
<pdfrwt beam="2">  1       21 0.54507801E-01 0.22241025E+02</pdfrwt>
<totfact> 0.28997933E+07</totfact>
</mgrwt>
</event>
<event>
 4    1  0.4556894E+006  0.2375734E+02  0.7546771E-02  0.1679520E+00
         21   -1    0    0  502  501  0.00000000000E+00  0.00000000000E+00  0.87439961987E+02  0.87439961987E+02  0.00000000000E+00 0.  1.
         21   -1    0    0  504  502 -0.00000000000E+00 -0.00000000000E+00 -0.12886815767E+02  0.12886815767E+02  0.00000000000E+00 0.  1.
         21    1    1    2  503  501 -0.15266885283E+02  0.18202569721E+02  0.72715953214E+02  0.76498504446E+02  0.00000000000E+00 0.  1.
         21    1    1    2  504  503  0.15266885283E+02 -0.18202569721E+02  0.18371930055E+01  0.23828273308E+02  0.00000000000E+00 0.  1.
<mgrwt>
<rscale>  2 0.23757343E+02</rscale>
<asrwt>0</asrwt>
<pdfrwt beam="1">  1       21 0.13452301E-01 0.23757343E+02</pdfrwt>
<pdfrwt beam="2">  1       21 0.19825871E-02 0.23757343E+02</pdfrwt>
<totfact> 0.43403687E+07</totfact>
</mgrwt>
</event>
<event>
 4    1  0.4556894E+006  0.2938580E+02  0.7546771E-02  0.1604979E+00
         21   -1    0    0  502  501  0.00000000000E+00  0.00000000000E+00  0.89071327728E+03  0.89071327728E+03  0.00000000000E+00 0.  1.
         21   -1    0    0  503  502 -0.00000000000E+00 -0.00000000000E+00 -0.11274060213E+01  0.11274060213E+01  0.00000000000E+00 0.  1.
         21    1    1    2  503  504  0.43728732861E+01  0.29058615362E+02  0.27789558121E+03  0.27944494844E+03  0.00000000000E+00 0.  1.
         21    1    1    2  504  501 -0.43728732861E+01 -0.29058615362E+02  0.61169029004E+03  0.61239573487E+03  0.00000000000E+00 0.  1.
<mgrwt>
<rscale>  2 0.29385798E+02</rscale>
<asrwt>0</asrwt>
<pdfrwt beam="1">  1       21 0.13703225E+00 0.29385798E+02</pdfrwt>
<pdfrwt beam="2">  1       21 0.17344779E-03 0.29385798E+02</pdfrwt>
<totfact> 0.18460167E+07</totfact>
</mgrwt>
</event>
<event>
 4    1  0.4556894E+006  0.2611862E+02  0.7546771E-02  0.1645436E+00
         21   -1    0    0  504  501  0.00000000000E+00  0.00000000000E+00  0.15278524221E+02  0.15278524221E+02  0.00000000000E+00 0. -1.
         21   -1    0    0  503  502 -0.00000000000E+00 -0.00000000000E+00 -0.61357390058E+02  0.61357390058E+02  0.00000000000E+00 0. -1.
         21    1    1    2  503  501 -0.38755604975E+00  0.26115748634E+02 -0.43034656276E+02  0.50340482389E+02  0.00000000000E+00 0. -1.
         21    1    1    2  504  502  0.38755604975E+00 -0.26115748634E+02 -0.30442095612E+01  0.26295431890E+02  0.00000000000E+00 0. -1.
<mgrwt>
<rscale>  2 0.26118624E+02</rscale>
<asrwt>0</asrwt>
<pdfrwt beam="1">  1       21 0.23505422E-02 0.26118624E+02</pdfrwt>
<pdfrwt beam="2">  1       21 0.94395982E-02 0.26118624E+02</pdfrwt>
<totfact> 0.61780814E+07</totfact>
</mgrwt>
</event>
<event>
 4    1  0.4556894E+006  0.2160613E+02  0.7546771E-02  0.1715154E+00
         21   -1    0    0  502  501  0.00000000000E+00  0.00000000000E+00  0.51930280738E+02  0.51930280738E+02  0.00000000000E+00 0.  1.
         21   -1    0    0  504  502 -0.00000000000E+00 -0.00000000000E+00 -0.12137097241E+02  0.12137097241E+02  0.00000000000E+00 0.  1.
         21    1    1    2  503  501  0.20772871104E+02  0.59424605650E+01  0.36209902246E+02  0.42166124225E+02  0.00000000000E+00 0.  1.
         21    1    1    2  504  503 -0.20772871104E+02 -0.59424605650E+01  0.35832812511E+01  0.21901253754E+02  0.00000000000E+00 0.  1.
<mgrwt>
<rscale>  2 0.21606134E+02</rscale>
<asrwt>0</asrwt>
<pdfrwt beam="1">  1       21 0.79892738E-02 0.21606134E+02</pdfrwt>
<pdfrwt beam="2">  1       21 0.18672458E-02 0.21606134E+02</pdfrwt>
<totfact> 0.10997124E+08</totfact>
</mgrwt>
</event>
<event>
 4    1  0.4556894E+006  0.2921671E+02  0.7546771E-02  0.1606912E+00
         21   -1    0    0  504  501  0.00000000000E+00  0.00000000000E+00  0.11128933591E+02  0.11128933591E+02  0.00000000000E+00 0.  1.
         21   -1    0    0  503  502 -0.00000000000E+00 -0.00000000000E+00 -0.11799706731E+03  0.11799706731E+03  0.00000000000E+00 0. -1.
         21    1    1    2  503  501  0.26147358609E+02  0.13035777675E+02 -0.15240069847E+02  0.32952626463E+02  0.00000000000E+00 0.  1.
         21    1    1    2  504  502 -0.26147358609E+02 -0.13035777675E+02 -0.91628063873E+02  0.96173374439E+02  0.00000000000E+00 0. -1.
<mgrwt>
<rscale>  2 0.29216705E+02</rscale>
<asrwt>0</asrwt>
<pdfrwt beam="1">  1       21 0.17121436E-02 0.29216705E+02</pdfrwt>
<pdfrwt beam="2">  1       21 0.18153396E-01 0.29216705E+02</pdfrwt>
<totfact> 0.34046258E+07</totfact>
</mgrwt>
</event>
<event>
 4    1  0.4556894E+006  0.2357357E+02  0.7546771E-02  0.1682378E+00
         21   -1    0    0  504  501  0.00000000000E+00  0.00000000000E+00  0.48243248822E+01  0.48243248822E+01  0.00000000000E+00 0. -1.
         21   -1    0    0  503  502 -0.00000000000E+00 -0.00000000000E+00 -0.14139116207E+03  0.14139116207E+03  0.00000000000E+00 0. -1.
         21    1    1    2  503  501  0.13291225465E+02  0.19469374509E+02 -0.36812179791E+02  0.43713267998E+02  0.00000000000E+00 0. -1.
         21    1    1    2  504  502 -0.13291225465E+02 -0.19469374509E+02 -0.99754657400E+02  0.10250221896E+03  0.00000000000E+00 0. -1.
<mgrwt>
<rscale>  2 0.23573570E+02</rscale>
<asrwt>0</asrwt>
<pdfrwt beam="1">  1       21 0.74220379E-03 0.23573570E+02</pdfrwt>
<pdfrwt beam="2">  1       21 0.21752487E-01 0.23573570E+02</pdfrwt>
<totfact> 0.83595520E+07</totfact>
</mgrwt>
</event>
<event>
 4    1  0.4556894E+006  0.2127219E+02  0.7546771E-02  0.1721152E+00
         21   -1    0    0  504  501  0.00000000000E+00  0.00000000000E+00  0.10626775913E+02  0.10626775913E+02  0.00000000000E+00 0. -1.
         21   -1    0    0  503  502 -0.00000000000E+00 -0.00000000000E+00 -0.29378145712E+03  0.29378145712E+03  0.00000000000E+00 0.  1.
         21    1    1    2  503  501  0.20410021840E+02  0.59947458548E+01 -0.83530331809E+00  0.21288581470E+02  0.00000000000E+00 0. -1.
         21    1    1    2  504  502 -0.20410021840E+02 -0.59947458548E+01 -0.28231937789E+03  0.28311965156E+03  0.00000000000E+00 0.  1.
<mgrwt>
<rscale>  2 0.21272188E+02</rscale>
<asrwt>0</asrwt>
<pdfrwt beam="1">  1       21 0.16348890E-02 0.21272188E+02</pdfrwt>
<pdfrwt beam="2">  1       21 0.45197136E-01 0.21272188E+02</pdfrwt>
<totfact> 0.65371719E+06</totfact>
</mgrwt>
</event>
<event>
 4    1  0.4556894E+006  0.2143995E+02  0.7546771E-02  0.1718122E+00
         21   -1    0    0  503  501  0.00000000000E+00  0.00000000000E+00  0.29553256476E+02  0.29553256476E+02  0.00000000000E+00 0. -1.
         21   -1    0    0  504  502 -0.00000000000E+00 -0.00000000000E+00 -0.22668969174E+02  0.22668969174E+02  0.00000000000E+00 0. -1.
         21    1    1    2  503  502 -0.12453602895E+01 -0.21403754650E+02  0.18070506134E+02  0.28039522594E+02  0.00000000000E+00 0. -1.
         21    1    1    2  504  501  0.12453602895E+01  0.21403754650E+02 -0.11186218832E+02  0.24182703056E+02  0.00000000000E+00 0. -1.
<mgrwt>
<rscale>  2 0.21439954E+02</rscale>
<asrwt>0</asrwt>
<pdfrwt beam="1">  1       21 0.45466548E-02 0.21439954E+02</pdfrwt>
<pdfrwt beam="2">  1       21 0.34875337E-02 0.21439954E+02</pdfrwt>
<totfact> 0.10321788E+08</totfact>
</mgrwt>
</event>
<event>
 4    1  0.4556894E+006  0.2190221E+02  0.7546771E-02  0.1709949E+00
         21   -1    0    0  503  501  0.00000000000E+00  0.00000000000E+00  0.14629518740E+03  0.14629518740E+03  0.00000000000E+00 0. -1.
         21   -1    0    0  504  502 -0.00000000000E+00 -0.00000000000E+00 -0.78366557422E+01  0.78366557422E+01  0.00000000000E+00 0. -1.
         21    1    1    2  503  502 -0.11247787316E+02 -0.18793458473E+02  0.12800068271E+03  0.12986100868E+03  0.00000000000E+00 0. -1.
         21    1    1    2  504  501  0.11247787316E+02  0.18793458473E+02  0.10457848946E+02  0.24270834462E+02  0.00000000000E+00 0. -1.
<mgrwt>
<rscale>  2 0.21902210E+02</rscale>
<asrwt>0</asrwt>
<pdfrwt beam="1">  1       21 0.22506950E-01 0.21902210E+02</pdfrwt>
<pdfrwt beam="2">  1       21 0.12056395E-02 0.21902210E+02</pdfrwt>
<totfact> 0.37335494E+07</totfact>
</mgrwt>
</event>
<event>
 4    1  0.4556894E+006  0.2636838E+02  0.7546771E-02  0.1642091E+00
         21   -1    0    0  502  501  0.00000000000E+00  0.00000000000E+00  0.19957789188E+03  0.19957789188E+03  0.00000000000E+00 0. -1.
         21   -1    0    0  504  502 -0.00000000000E+00 -0.00000000000E+00 -0.45327741102E+02  0.45327741102E+02  0.00000000000E+00 0. -1.
         21    1    1    2  503  501  0.25284585595E+02  0.74820599313E+01  0.19477806807E+03  0.19655479463E+03  0.00000000000E+00 0. -1.
         21    1    1    2  504  503 -0.25284585595E+02 -0.74820599313E+01 -0.40527917293E+02  0.48350838355E+02  0.00000000000E+00 0. -1.
<mgrwt>
<rscale>  2 0.26368380E+02</rscale>
<asrwt>0</asrwt>
<pdfrwt beam="1">  1       21 0.30704291E-01 0.26368380E+02</pdfrwt>
<pdfrwt beam="2">  1       21 0.69734987E-02 0.26368380E+02</pdfrwt>
<totfact> 0.14247278E+06</totfact>
</mgrwt>
</event>
<event>
 4    1  0.4556894E+006  0.2801422E+02  0.7546771E-02  0.1621136E+00
         21   -1    0    0  504  501  0.00000000000E+00  0.00000000000E+00  0.88647604018E+01  0.88647604018E+01  0.00000000000E+00 0. -1.
         21   -1    0    0  501  502 -0.00000000000E+00 -0.00000000000E+00 -0.15911061361E+03  0.15911061361E+03  0.00000000000E+00 0.  1.
         21    1    1    2  503  502 -0.23540954160E+02 -0.15186182215E+02 -0.13106118797E+03  0.13402175810E+03  0.00000000000E+00 0.  1.
         21    1    1    2  504  503  0.23540954160E+02  0.15186182215E+02 -0.19184665241E+02  0.33953615911E+02  0.00000000000E+00 0. -1.
<mgrwt>
<rscale>  2 0.28014222E+02</rscale>
<asrwt>0</asrwt>
<pdfrwt beam="1">  1       21 0.13638093E-02 0.28014222E+02</pdfrwt>
<pdfrwt beam="2">  1       21 0.24478556E-01 0.28014222E+02</pdfrwt>
<totfact> 0.28177821E+07</totfact>
</mgrwt>
</event>
<event>
 4    1  0.4556894E+006  0.2236977E+02  0.7546771E-02  0.1701934E+00
         21   -1    0    0  504  501  0.00000000000E+00  0.00000000000E+00  0.10280759945E+02  0.10280759945E+02  0.00000000000E+00 0.  1.
         21   -1    0    0  501  502 -0.00000000000E+00 -0.00000000000E+00 -0.55394620487E+02  0.55394620487E+02  0.00000000000E+00 0.  1.
         21    1    1    2  503  502 -0.32327788376E+01 -0.22134948515E+02 -0.33994665781E+02  0.40694521822E+02  0.00000000000E+00 0.  1.
         21    1    1    2  504  503  0.32327788376E+01  0.22134948515E+02 -0.11119194761E+02  0.24980858611E+02  0.00000000000E+00 0.  1.
<mgrwt>
<rscale>  2 0.22369774E+02</rscale>
<asrwt>0</asrwt>
<pdfrwt beam="1">  1       21 0.15816554E-02 0.22369774E+02</pdfrwt>
<pdfrwt beam="2">  1       21 0.85222493E-02 0.22369774E+02</pdfrwt>
<totfact> 0.12878056E+08</totfact>
</mgrwt>
</event>
<event>
 4    1  0.4556894E+006  0.2258038E+02  0.7546771E-02  0.1698404E+00
         21   -1    0    0  504  501  0.00000000000E+00  0.00000000000E+00  0.16592661778E+02  0.16592661778E+02  0.00000000000E+00 0. -1.
         21   -1    0    0  501  502 -0.00000000000E+00 -0.00000000000E+00 -0.56785487605E+02  0.56785487605E+02  0.00000000000E+00 0. -1.
         21    1    1    2  503  502 -0.12690164851E-01 -0.22580373712E+02 -0.44949323309E+02  0.50302237564E+02  0.00000000000E+00 0. -1.
         21    1    1    2  504  503  0.12690164851E-01  0.22580373712E+02  0.47564974808E+01  0.23075911819E+02  0.00000000000E+00 0. -1.
<mgrwt>
<rscale>  2 0.22580377E+02</rscale>
<asrwt>0</asrwt>
<pdfrwt beam="1">  1       21 0.25527172E-02 0.22580377E+02</pdfrwt>
<pdfrwt beam="2">  1       21 0.87362289E-02 0.22580377E+02</pdfrwt>
<totfact> 0.59507775E+07</totfact>
</mgrwt>
</event>
<event>
 4    1  0.4556894E+006  0.3003150E+02  0.7546771E-02  0.1597741E+00
         21   -1    0    0  503  501  0.00000000000E+00  0.00000000000E+00  0.64035746841E+02  0.64035746841E+02  0.00000000000E+00 0.  1.
         21   -1    0    0  504  502 -0.00000000000E+00 -0.00000000000E+00 -0.25430189364E+02  0.25430189364E+02  0.00000000000E+00 0. -1.
         21    1    1    2  503  502 -0.29978420369E+02  0.17847292266E+01  0.49182359428E+02  0.57626343153E+02  0.00000000000E+00 0.  1.
         21    1    1    2  504  501  0.29978420369E+02 -0.17847292266E+01 -0.10576801951E+02  0.31839593053E+02  0.00000000000E+00 0. -1.
<mgrwt>
<rscale>  2 0.30031499E+02</rscale>
<asrwt>0</asrwt>
<pdfrwt beam="1">  1       21 0.98516533E-02 0.30031499E+02</pdfrwt>
<pdfrwt beam="2">  1       21 0.39123368E-02 0.30031499E+02</pdfrwt>
<totfact> 0.26684427E+07</totfact>
</mgrwt>
</event>
<event>
 4    1  0.4556894E+006  0.2044928E+02  0.7546771E-02  0.1736538E+00
         21   -1    0    0  503  501  0.00000000000E+00  0.00000000000E+00  0.30507940004E+01  0.30507940004E+01  0.00000000000E+00 0.  1.
         21   -1    0    0  504  502 -0.00000000000E+00 -0.00000000000E+00 -0.29663899028E+03  0.29663899028E+03  0.00000000000E+00 0. -1.
         21    1    1    2  503  502  0.11692988656E+02 -0.16776385465E+02 -0.25669512141E+03  0.25750836579E+03  0.00000000000E+00 0. -1.
         21    1    1    2  504  501 -0.11692988656E+02  0.16776385465E+02 -0.36893074864E+02  0.42181418490E+02  0.00000000000E+00 0.  1.
<mgrwt>
<rscale>  2 0.20449281E+02</rscale>
<asrwt>0</asrwt>
<pdfrwt beam="1">  1       21 0.46935279E-03 0.20449281E+02</pdfrwt>
<pdfrwt beam="2">  1       21 0.45636781E-01 0.20449281E+02</pdfrwt>
<totfact> 0.40963952E+07</totfact>
</mgrwt>
</event>
<event>
 4    1  0.4556894E+006  0.6287345E+02  0.7546771E-02  0.1386154E+00
         21   -1    0    0  502  501  0.00000000000E+00  0.00000000000E+00  0.29645459915E+03  0.29645459915E+03  0.00000000000E+00 0.  1.
         21   -1    0    0  504  502 -0.00000000000E+00 -0.00000000000E+00 -0.21391388147E+02  0.21391388147E+02  0.00000000000E+00 0. -1.
         21    1    1    2  503  501  0.52173874073E+02 -0.35085000288E+02  0.23506452763E+03  0.24332776770E+03  0.00000000000E+00 0.  1.
         21    1    1    2  504  503 -0.52173874073E+02  0.35085000288E+02  0.39998683369E+02  0.74518219599E+02  0.00000000000E+00 0. -1.
<mgrwt>
<rscale>  2 0.62873447E+02</rscale>
<asrwt>0</asrwt>
<pdfrwt beam="1">  1       21 0.45608397E-01 0.62873447E+02</pdfrwt>
<pdfrwt beam="2">  1       21 0.32909830E-02 0.62873447E+02</pdfrwt>
<totfact> 0.24128816E+06</totfact>
</mgrwt>
</event>
<event>
 4    1  0.4556894E+006  0.2054481E+02  0.7546771E-02  0.1734706E+00
         21   -1    0    0  503  501  0.00000000000E+00  0.00000000000E+00  0.69113671673E+02  0.69113671673E+02  0.00000000000E+00 0. -1.
         21   -1    0    0  501  502 -0.00000000000E+00 -0.00000000000E+00 -0.29599961656E+02  0.29599961656E+02  0.00000000000E+00 0. -1.
         21    1    1    2  503  504  0.19989344325E+02 -0.47450405798E+01  0.63728107206E+02  0.66957904273E+02  0.00000000000E+00 0. -1.
         21    1    1    2  504  502 -0.19989344325E+02  0.47450405798E+01 -0.24214397189E+02  0.31755729056E+02  0.00000000000E+00 0. -1.
<mgrwt>
<rscale>  2 0.20544812E+02</rscale>
<asrwt>0</asrwt>
<pdfrwt beam="1">  1       21 0.10632873E-01 0.20544812E+02</pdfrwt>
<pdfrwt beam="2">  1       21 0.45538403E-02 0.20544812E+02</pdfrwt>
<totfact> 0.17044040E+07</totfact>
</mgrwt>
</event>
<event>
 4    1  0.4556894E+006  0.2533587E+02  0.7546771E-02  0.1656224E+00
         21   -1    0    0  503  501  0.00000000000E+00  0.00000000000E+00  0.34996551809E+03  0.34996551809E+03  0.00000000000E+00 0. -1.
         21   -1    0    0  501  502 -0.00000000000E+00 -0.00000000000E+00 -0.76768580806E+01  0.76768580806E+01  0.00000000000E+00 0. -1.
         21    1    1    2  503  504 -0.87373897311E+01 -0.23781595439E+02  0.32714717123E+03  0.32812677109E+03  0.00000000000E+00 0. -1.
         21    1    1    2  504  502  0.87373897311E+01  0.23781595439E+02  0.15141488780E+02  0.29515605083E+02  0.00000000000E+00 0. -1.
<mgrwt>
<rscale>  2 0.25335869E+02</rscale>
<asrwt>0</asrwt>
<pdfrwt beam="1">  1       21 0.53840837E-01 0.25335869E+02</pdfrwt>
<pdfrwt beam="2">  1       21 0.11810554E-02 0.25335869E+02</pdfrwt>
<totfact> 0.78475589E+06</totfact>
</mgrwt>
</event>
<event>
 4    1  0.4556894E+006  0.3777396E+02  0.7546771E-02  0.1525262E+00
         21   -1    0    0  503  501  0.00000000000E+00  0.00000000000E+00  0.15924316775E+02  0.15924316775E+02  0.00000000000E+00 0. -1.
         21   -1    0    0  504  502 -0.00000000000E+00 -0.00000000000E+00 -0.99199051020E+02  0.99199051020E+02  0.00000000000E+00 0. -1.
         21    1    1    2  503  502  0.35908714115E+02 -0.11723319287E+02 -0.59540058287E+02  0.70511633829E+02  0.00000000000E+00 0. -1.
         21    1    1    2  504  501 -0.35908714115E+02  0.11723319287E+02 -0.23734675959E+02  0.44611733965E+02  0.00000000000E+00 0. -1.
<mgrwt>
<rscale>  2 0.37773959E+02</rscale>
<asrwt>0</asrwt>
<pdfrwt beam="1">  1       21 0.24498949E-02 0.37773959E+02</pdfrwt>
<pdfrwt beam="2">  1       21 0.15261392E-01 0.37773959E+02</pdfrwt>
<totfact> 0.27695291E+07</totfact>
</mgrwt>
</event>
<event>
 4    1  0.4556894E+006  0.2612878E+02  0.7546771E-02  0.1645299E+00
         21   -1    0    0  503  501  0.00000000000E+00  0.00000000000E+00  0.92502306248E+01  0.92502306248E+01  0.00000000000E+00 0. -1.
         21   -1    0    0  504  502 -0.00000000000E+00 -0.00000000000E+00 -0.10828662002E+03  0.10828662002E+03  0.00000000000E+00 0. -1.
         21    1    1    2  503  502  0.25004803785E+02  0.75810890068E+01 -0.82680948517E+02  0.86711316277E+02  0.00000000000E+00 0. -1.
         21    1    1    2  504  501 -0.25004803785E+02 -0.75810890068E+01 -0.16355440882E+02  0.30825534372E+02  0.00000000000E+00 0. -1.
<mgrwt>
<rscale>  2 0.26128780E+02</rscale>
<asrwt>0</asrwt>
<pdfrwt beam="1">  1       21 0.14231124E-02 0.26128780E+02</pdfrwt>
<pdfrwt beam="2">  1       21 0.16659480E-01 0.26128780E+02</pdfrwt>
<totfact> 0.51171654E+07</totfact>
</mgrwt>
</event>
<event>
 4    1  0.4556894E+006  0.2173613E+02  0.7546771E-02  0.1712856E+00
         21   -1    0    0  502  501  0.00000000000E+00  0.00000000000E+00  0.28773523804E+03  0.28773523804E+03  0.00000000000E+00 0.  1.
         21   -1    0    0  504  502 -0.00000000000E+00 -0.00000000000E+00 -0.36284661624E+01  0.36284661624E+01  0.00000000000E+00 0.  1.
         21    1    1    2  503  501 -0.11245291162E+02 -0.18601154659E+02  0.24984504581E+03  0.25078876858E+03  0.00000000000E+00 0.  1.
         21    1    1    2  504  503  0.11245291162E+02  0.18601154659E+02  0.34261726068E+02  0.40574935627E+02  0.00000000000E+00 0.  1.
<mgrwt>
<rscale>  2 0.21736134E+02</rscale>
<asrwt>0</asrwt>
<pdfrwt beam="1">  1       21 0.44266942E-01 0.21736134E+02</pdfrwt>
<pdfrwt beam="2">  1       21 0.55822579E-03 0.21736134E+02</pdfrwt>
<totfact> 0.34124987E+07</totfact>
</mgrwt>
</event>
<event>
 4    1  0.4556894E+006  0.2056755E+02  0.7546771E-02  0.1734272E+00
         21   -1    0    0  503  501  0.00000000000E+00  0.00000000000E+00  0.47447169146E+00  0.47447169146E+00  0.00000000000E+00 0.  1.
         21   -1    0    0  504  502 -0.00000000000E+00 -0.00000000000E+00 -0.94294823629E+03  0.94294823629E+03  0.00000000000E+00 0.  1.
         21    1    1    2  503  502 -0.61274804918E+01  0.19633592386E+02 -0.36112637634E+03  0.36171160288E+03  0.00000000000E+00 0.  1.
         21    1    1    2  504  501  0.61274804918E+01 -0.19633592386E+02 -0.58134738825E+03  0.58171110510E+03  0.00000000000E+00 0.  1.
<mgrwt>
<rscale>  2 0.20567546E+02</rscale>
<asrwt>0</asrwt>
<pdfrwt beam="1">  1       21 0.72996760E-04 0.20567546E+02</pdfrwt>
<pdfrwt beam="2">  1       21 0.14506674E+00 0.20567546E+02</pdfrwt>
<totfact> 0.52206318E+07</totfact>
</mgrwt>
</event>
<event>
 4    1  0.4556894E+006  0.2336383E+02  0.7546771E-02  0.1685679E+00
         21   -1    0    0  502  501  0.00000000000E+00  0.00000000000E+00  0.29266382654E+00  0.29266382654E+00  0.00000000000E+00 0.  1.
         21   -1    0    0  504  502 -0.00000000000E+00 -0.00000000000E+00 -0.23212598137E+04  0.23212598137E+04  0.00000000000E+00 0.  1.
         21    1    1    2  503  501 -0.22638017188E+02 -0.57783135537E+01 -0.64595406306E+03  0.64637645402E+03  0.00000000000E+00 0.  1.
         21    1    1    2  504  503  0.22638017188E+02  0.57783135537E+01 -0.16750130868E+04  0.16751760235E+04  0.00000000000E+00 0.  1.
<mgrwt>
<rscale>  2 0.23363834E+02</rscale>
<asrwt>0</asrwt>
<pdfrwt beam="1">  1       21 0.45024110E-04 0.23363834E+02</pdfrwt>
<pdfrwt beam="2">  1       21 0.35712557E+00 0.23363834E+02</pdfrwt>
<totfact> 0.78787257E+06</totfact>
</mgrwt>
</event>
<event>
 4    1  0.4556894E+006  0.2257553E+02  0.7546771E-02  0.1698484E+00
         21   -1    0    0  503  501  0.00000000000E+00  0.00000000000E+00  0.27900625629E+03  0.27900625629E+03  0.00000000000E+00 0.  1.
         21   -1    0    0  501  502 -0.00000000000E+00 -0.00000000000E+00 -0.13498964675E+02  0.13498964675E+02  0.00000000000E+00 0. -1.
         21    1    1    2  503  504 -0.21013557934E+02 -0.82513658651E+01  0.26875128346E+03  0.26969780684E+03  0.00000000000E+00 0.  1.
         21    1    1    2  504  502  0.21013557934E+02  0.82513658651E+01 -0.32439918459E+01  0.22807414118E+02  0.00000000000E+00 0. -1.
<mgrwt>
<rscale>  2 0.22575532E+02</rscale>
<asrwt>0</asrwt>
<pdfrwt beam="1">  1       21 0.42924035E-01 0.22575532E+02</pdfrwt>
<pdfrwt beam="2">  1       21 0.20767640E-02 0.22575532E+02</pdfrwt>
<totfact> 0.50541375E+06</totfact>
</mgrwt>
</event>
<event>
 4    1  0.4556894E+006  0.2514703E+02  0.7546771E-02  0.1658899E+00
         21   -1    0    0  503  501  0.00000000000E+00  0.00000000000E+00  0.11335157721E+03  0.11335157721E+03  0.00000000000E+00 0.  1.
         21   -1    0    0  504  502 -0.00000000000E+00 -0.00000000000E+00 -0.37374230123E+02  0.37374230123E+02  0.00000000000E+00 0. -1.
         21    1    1    2  503  502 -0.14753590492E+02  0.20364297034E+02  0.10749965346E+03  0.11040175959E+03  0.00000000000E+00 0.  1.
         21    1    1    2  504  501  0.14753590492E+02 -0.20364297034E+02 -0.31522306383E+02  0.40324047736E+02  0.00000000000E+00 0. -1.
<mgrwt>
<rscale>  2 0.25147028E+02</rscale>
<asrwt>0</asrwt>
<pdfrwt beam="1">  1       21 0.17438704E-01 0.25147028E+02</pdfrwt>
<pdfrwt beam="2">  1       21 0.57498816E-02 0.25147028E+02</pdfrwt>
<totfact> 0.52955219E+06</totfact>
</mgrwt>
</event>
<event>
 4    1  0.4556894E+006  0.3094052E+02  0.7546771E-02  0.1587919E+00
         21   -1    0    0  503  501  0.00000000000E+00  0.00000000000E+00  0.10133856072E+03  0.10133856072E+03  0.00000000000E+00 0. -1.
         21   -1    0    0  504  502 -0.00000000000E+00 -0.00000000000E+00 -0.12701819688E+02  0.12701819688E+02  0.00000000000E+00 0.  1.
         21    1    1    2  503  502 -0.18185473339E+02 -0.25032061123E+02  0.15452888540E+02  0.34584784065E+02  0.00000000000E+00 0.  1.
         21    1    1    2  504  501  0.18185473339E+02  0.25032061123E+02  0.73183852497E+02  0.79455596347E+02  0.00000000000E+00 0. -1.
<mgrwt>
<rscale>  2 0.30940516E+02</rscale>
<asrwt>0</asrwt>
<pdfrwt beam="1">  1       21 0.15590547E-01 0.30940516E+02</pdfrwt>
<pdfrwt beam="2">  1       21 0.19541262E-02 0.30940516E+02</pdfrwt>
<totfact> 0.36581731E+07</totfact>
</mgrwt>
</event>
<event>
 4    1  0.4556894E+006  0.3105172E+02  0.7546771E-02  0.1586746E+00
         21   -1    0    0  504  501  0.00000000000E+00  0.00000000000E+00  0.24817942102E+03  0.24817942102E+03  0.00000000000E+00 0.  1.
         21   -1    0    0  501  502 -0.00000000000E+00 -0.00000000000E+00 -0.63901027584E+01  0.63901027584E+01  0.00000000000E+00 0. -1.
         21    1    1    2  503  502 -0.18234971525E+02 -0.25133547608E+02  0.41200963577E+02  0.51591945123E+02  0.00000000000E+00 0. -1.
         21    1    1    2  504  503  0.18234971525E+02  0.25133547608E+02  0.20058835469E+03  0.20297757866E+03  0.00000000000E+00 0.  1.
<mgrwt>
<rscale>  2 0.31051721E+02</rscale>
<asrwt>0</asrwt>
<pdfrwt beam="1">  1       21 0.38181442E-01 0.31051721E+02</pdfrwt>
<pdfrwt beam="2">  1       21 0.98309292E-03 0.31051721E+02</pdfrwt>
<totfact> 0.20835248E+07</totfact>
</mgrwt>
</event>
<event>
 4    1  0.4556894E+006  0.5319523E+02  0.7546771E-02  0.1428832E+00
         21   -1    0    0  504  501  0.00000000000E+00  0.00000000000E+00  0.83615864160E+03  0.83615864160E+03  0.00000000000E+00 0.  1.
         21   -1    0    0  503  502 -0.00000000000E+00 -0.00000000000E+00 -0.65726234990E+01  0.65726234990E+01  0.00000000000E+00 0. -1.
         21    1    1    2  503  501 -0.41733956273E+02  0.32984979862E+02  0.12131375005E+03  0.13246417611E+03  0.00000000000E+00 0. -1.
         21    1    1    2  504  502  0.41733956273E+02 -0.32984979862E+02  0.70827226806E+03  0.71026708899E+03  0.00000000000E+00 0.  1.
<mgrwt>
<rscale>  2 0.53195225E+02</rscale>
<asrwt>0</asrwt>
<pdfrwt beam="1">  1       21 0.12863971E+00 0.53195225E+02</pdfrwt>
<pdfrwt beam="2">  1       21 0.10111735E-02 0.53195225E+02</pdfrwt>
<totfact> 0.16202203E+06</totfact>
</mgrwt>
</event>
<event>
 4    1  0.4556894E+006  0.2233053E+02  0.7546771E-02  0.1702598E+00
         21   -1    0    0  504  501  0.00000000000E+00  0.00000000000E+00  0.38185788817E+01  0.38185788817E+01  0.00000000000E+00 0.  1.
         21   -1    0    0  501  502 -0.00000000000E+00 -0.00000000000E+00 -0.46756533839E+03  0.46756533839E+03  0.00000000000E+00 0.  1.
         21    1    1    2  503  502 -0.11977469707E+01 -0.22298384710E+02 -0.43196334673E+03  0.43254015475E+03  0.00000000000E+00 0.  1.
         21    1    1    2  504  503  0.11977469707E+01  0.22298384710E+02 -0.31783412776E+02  0.38843762513E+02  0.00000000000E+00 0.  1.
<mgrwt>
<rscale>  2 0.22330530E+02</rscale>
<asrwt>0</asrwt>
<pdfrwt beam="1">  1       21 0.58747384E-03 0.22330530E+02</pdfrwt>
<pdfrwt beam="2">  1       21 0.71933109E-01 0.22330530E+02</pdfrwt>
<totfact> 0.12182205E+07</totfact>
</mgrwt>
</event>
<event>
 4    1  0.4556894E+006  0.3441122E+02  0.7546771E-02  0.1553892E+00
         21   -1    0    0  502  501  0.00000000000E+00  0.00000000000E+00  0.30530666637E+02  0.30530666637E+02  0.00000000000E+00 0.  1.
         21   -1    0    0  503  502 -0.00000000000E+00 -0.00000000000E+00 -0.12521837863E+03  0.12521837863E+03  0.00000000000E+00 0.  1.
         21    1    1    2  503  504  0.13794052693E+02  0.31525481501E+02 -0.11204353215E+03  0.11720872395E+03  0.00000000000E+00 0.  1.
         21    1    1    2  504  501 -0.13794052693E+02 -0.31525481501E+02  0.17355820158E+02  0.38540321314E+02  0.00000000000E+00 0.  1.
<mgrwt>
<rscale>  2 0.34411217E+02</rscale>
<asrwt>0</asrwt>
<pdfrwt beam="1">  1       21 0.46970256E-02 0.34411217E+02</pdfrwt>
<pdfrwt beam="2">  1       21 0.19264366E-01 0.34411217E+02</pdfrwt>
<totfact> 0.64452089E+06</totfact>
</mgrwt>
</event>
<event>
 4    1  0.4556894E+006  0.2058178E+02  0.7546771E-02  0.1734000E+00
         21   -1    0    0  504  501  0.00000000000E+00  0.00000000000E+00  0.94048760637E+00  0.94048760637E+00  0.00000000000E+00 0. -1.
         21   -1    0    0  503  502 -0.00000000000E+00 -0.00000000000E+00 -0.63524831807E+03  0.63524831807E+03  0.00000000000E+00 0. -1.
         21    1    1    2  503  501 -0.11560393801E+01 -0.20549284028E+02 -0.14557074990E+03  0.14701854553E+03  0.00000000000E+00 0. -1.
         21    1    1    2  504  502  0.11560393801E+01  0.20549284028E+02 -0.48873708056E+03  0.48917026015E+03  0.00000000000E+00 0. -1.
<mgrwt>
<rscale>  2 0.20581776E+02</rscale>
<asrwt>0</asrwt>
<pdfrwt beam="1">  1       21 0.14469053E-03 0.20581776E+02</pdfrwt>
<pdfrwt beam="2">  1       21 0.97730427E-01 0.20581776E+02</pdfrwt>
<totfact> 0.48082673E+07</totfact>
</mgrwt>
</event>
<event>
 4    1  0.4556894E+006  0.2003995E+02  0.7546771E-02  0.1744535E+00
         21   -1    0    0  503  501  0.00000000000E+00  0.00000000000E+00  0.10946789029E+02  0.10946789029E+02  0.00000000000E+00 0. -1.
         21   -1    0    0  504  502 -0.00000000000E+00 -0.00000000000E+00 -0.75930776534E+02  0.75930776534E+02  0.00000000000E+00 0. -1.
         21    1    1    2  503  502  0.11933541276E+02 -0.16099390027E+02 -0.12630933531E+01  0.20079720402E+02  0.00000000000E+00 0. -1.
         21    1    1    2  504  501 -0.11933541276E+02  0.16099390027E+02 -0.63720894152E+02  0.66797845161E+02  0.00000000000E+00 0. -1.
<mgrwt>
<rscale>  2 0.20039954E+02</rscale>
<asrwt>0</asrwt>
<pdfrwt beam="1">  1       21 0.16841215E-02 0.20039954E+02</pdfrwt>
<pdfrwt beam="2">  1       21 0.11681657E-01 0.20039954E+02</pdfrwt>
<totfact> 0.67436591E+07</totfact>
</mgrwt>
</event>
<event>
 4    1  0.4556894E+006  0.3034364E+02  0.7546771E-02  0.1594321E+00
         21   -1    0    0  503  501  0.00000000000E+00  0.00000000000E+00  0.54144974905E+02  0.54144974905E+02  0.00000000000E+00 0. -1.
         21   -1    0    0  504  502 -0.00000000000E+00 -0.00000000000E+00 -0.20256470079E+02  0.20256470079E+02  0.00000000000E+00 0. -1.
         21    1    1    2  503  502 -0.24151190767E+02  0.18369980891E+02  0.31848437780E+02  0.43989307819E+02  0.00000000000E+00 0. -1.
         21    1    1    2  504  501  0.24151190767E+02 -0.18369980891E+02  0.20400670459E+01  0.30412137165E+02  0.00000000000E+00 0. -1.
<mgrwt>
<rscale>  2 0.30343635E+02</rscale>
<asrwt>0</asrwt>
<pdfrwt beam="1">  1       21 0.83299961E-02 0.30343635E+02</pdfrwt>
<pdfrwt beam="2">  1       21 0.31163800E-02 0.30343635E+02</pdfrwt>
<totfact> 0.50653694E+07</totfact>
</mgrwt>
</event>
<event>
 4    1  0.4556894E+006  0.2300597E+02  0.7546771E-02  0.1691413E+00
         21   -1    0    0  502  501  0.00000000000E+00  0.00000000000E+00  0.40511890208E+02  0.40511890208E+02  0.00000000000E+00 0.  1.
         21   -1    0    0  503  502 -0.00000000000E+00 -0.00000000000E+00 -0.73301654824E+02  0.73301654824E+02  0.00000000000E+00 0. -1.
         21    1    1    2  503  504  0.12568927745E+02 -0.19269066321E+02 -0.67981688843E+02  0.71768968778E+02  0.00000000000E+00 0. -1.
         21    1    1    2  504  501 -0.12568927745E+02  0.19269066321E+02  0.35191924228E+02  0.42044576254E+02  0.00000000000E+00 0.  1.
<mgrwt>
<rscale>  2 0.23005974E+02</rscale>
<asrwt>0</asrwt>
<pdfrwt beam="1">  1       21 0.62325985E-02 0.23005974E+02</pdfrwt>
<pdfrwt beam="2">  1       21 0.11277178E-01 0.23005974E+02</pdfrwt>
<totfact> 0.95983310E+06</totfact>
</mgrwt>
</event>
<event>
 4    1  0.4556894E+006  0.3077248E+02  0.7546771E-02  0.1589704E+00
         21   -1    0    0  503  501  0.00000000000E+00  0.00000000000E+00  0.34137352772E+01  0.34137352772E+01  0.00000000000E+00 0.  1.
         21   -1    0    0  504  502 -0.00000000000E+00 -0.00000000000E+00 -0.72775271734E+03  0.72775271734E+03  0.00000000000E+00 0. -1.
         21    1    1    2  503  502 -0.29482527195E+02  0.88162524657E+01 -0.74579219847E+02  0.80678409443E+02  0.00000000000E+00 0.  1.
         21    1    1    2  504  501  0.29482527195E+02 -0.88162524657E+01 -0.64975976222E+03  0.65048804318E+03  0.00000000000E+00 0. -1.
<mgrwt>
<rscale>  2 0.30772483E+02</rscale>
<asrwt>0</asrwt>
<pdfrwt beam="1">  1       21 0.52518901E-03 0.30772483E+02</pdfrwt>
<pdfrwt beam="2">  1       21 0.11196218E+00 0.30772483E+02</pdfrwt>
<totfact> 0.58095861E+06</totfact>
</mgrwt>
</event>
<event>
 4    1  0.4556894E+006  0.2274111E+02  0.7546771E-02  0.1695741E+00
         21   -1    0    0  503  501  0.00000000000E+00  0.00000000000E+00  0.33234655394E+03  0.33234655394E+03  0.00000000000E+00 0.  1.
         21   -1    0    0  501  502 -0.00000000000E+00 -0.00000000000E+00 -0.49037622839E+01  0.49037622839E+01  0.00000000000E+00 0. -1.
         21    1    1    2  503  504  0.16521591187E+02  0.15626737849E+02  0.30304662488E+03  0.30389869161E+03  0.00000000000E+00 0.  1.
         21    1    1    2  504  502 -0.16521591187E+02 -0.15626737849E+02  0.24396166783E+02  0.33351624621E+02  0.00000000000E+00 0. -1.
<mgrwt>
<rscale>  2 0.22741106E+02</rscale>
<asrwt>0</asrwt>
<pdfrwt beam="1">  1       21 0.51130222E-01 0.22741106E+02</pdfrwt>
<pdfrwt beam="2">  1       21 0.75442522E-03 0.22741106E+02</pdfrwt>
<totfact> 0.16698724E+07</totfact>
</mgrwt>
</event>
<event>
 4    1  0.4556894E+006  0.2149925E+02  0.7546771E-02  0.1717059E+00
         21   -1    0    0  503  501  0.00000000000E+00  0.00000000000E+00  0.86986730544E+01  0.86986730544E+01  0.00000000000E+00 0. -1.
         21   -1    0    0  504  502 -0.00000000000E+00 -0.00000000000E+00 -0.10381065912E+03  0.10381065912E+03  0.00000000000E+00 0. -1.
         21    1    1    2  503  502 -0.21187132141E+02 -0.36501134001E+01 -0.82525650119E+01  0.23028736949E+02  0.00000000000E+00 0. -1.
         21    1    1    2  504  501  0.21187132141E+02  0.36501134001E+01 -0.86859421054E+02  0.89480595226E+02  0.00000000000E+00 0. -1.
<mgrwt>
<rscale>  2 0.21499253E+02</rscale>
<asrwt>0</asrwt>
<pdfrwt beam="1">  1       21 0.13382574E-02 0.21499253E+02</pdfrwt>
<pdfrwt beam="2">  1       21 0.15970871E-01 0.21499253E+02</pdfrwt>
<totfact> 0.57516205E+07</totfact>
</mgrwt>
</event>
<event>
 4    1  0.4556894E+006  0.2218327E+02  0.7546771E-02  0.1705102E+00
         21   -1    0    0  503  501  0.00000000000E+00  0.00000000000E+00  0.12030847860E+03  0.12030847860E+03  0.00000000000E+00 0.  1.
         21   -1    0    0  504  502 -0.00000000000E+00 -0.00000000000E+00 -0.31029571379E+02  0.31029571379E+02  0.00000000000E+00 0.  1.
         21    1    1    2  503  502  0.70837813898E+01  0.21021830436E+02  0.11514498707E+03  0.11726237829E+03  0.00000000000E+00 0.  1.
         21    1    1    2  504  501 -0.70837813898E+01 -0.21021830436E+02 -0.25866079857E+02  0.34075671685E+02  0.00000000000E+00 0.  1.
<mgrwt>
<rscale>  2 0.22183267E+02</rscale>
<asrwt>0</asrwt>
<pdfrwt beam="1">  1       21 0.18508997E-01 0.22183267E+02</pdfrwt>
<pdfrwt beam="2">  1       21 0.47737803E-02 0.22183267E+02</pdfrwt>
<totfact> 0.62966791E+06</totfact>
</mgrwt>
</event>
<event>
 4    1  0.4556894E+006  0.2068086E+02  0.7546771E-02  0.1732118E+00
         21   -1    0    0  502  501  0.00000000000E+00  0.00000000000E+00  0.25777455932E+01  0.25777455932E+01  0.00000000000E+00 0. -1.
         21   -1    0    0  504  502 -0.00000000000E+00 -0.00000000000E+00 -0.23966402117E+03  0.23966402117E+03  0.00000000000E+00 0. -1.
         21    1    1    2  503  501 -0.19858762995E+02 -0.57729954627E+01 -0.51356509121E+02  0.55364148810E+02  0.00000000000E+00 0. -1.
         21    1    1    2  504  503  0.19858762995E+02  0.57729954627E+01 -0.18572976645E+03  0.18687761795E+03  0.00000000000E+00 0. -1.
<mgrwt>
<rscale>  2 0.20680859E+02</rscale>
<asrwt>0</asrwt>
<pdfrwt beam="1">  1       21 0.39657642E-03 0.20680859E+02</pdfrwt>
<pdfrwt beam="2">  1       21 0.36871371E-01 0.20680859E+02</pdfrwt>
<totfact> 0.78530892E+07</totfact>
</mgrwt>
</event>
<event>
 4    1  0.4556894E+006  0.2565356E+02  0.7546771E-02  0.1651788E+00
         21   -1    0    0  503  501  0.00000000000E+00  0.00000000000E+00  0.35252304072E+01  0.35252304072E+01  0.00000000000E+00 0.  1.
         21   -1    0    0  504  502 -0.00000000000E+00 -0.00000000000E+00 -0.18979457557E+03  0.18979457557E+03  0.00000000000E+00 0.  1.
         21    1    1    2  503  502 -0.22444062986E+02 -0.12424534355E+02 -0.80760763119E+02  0.84737275604E+02  0.00000000000E+00 0.  1.
         21    1    1    2  504  501  0.22444062986E+02  0.12424534355E+02 -0.10550858204E+03  0.10858253037E+03  0.00000000000E+00 0.  1.
<mgrwt>
<rscale>  2 0.25653558E+02</rscale>
<asrwt>0</asrwt>
<pdfrwt beam="1">  1       21 0.54234310E-03 0.25653558E+02</pdfrwt>
<pdfrwt beam="2">  1       21 0.29199168E-01 0.25653558E+02</pdfrwt>
<totfact> 0.80393686E+07</totfact>
</mgrwt>
</event>
<event>
 4    1  0.4556894E+006  0.2026717E+02  0.7546771E-02  0.1740067E+00
         21   -1    0    0  502  501  0.00000000000E+00  0.00000000000E+00  0.17711071904E+03  0.17711071904E+03  0.00000000000E+00 0. -1.
         21   -1    0    0  504  502 -0.00000000000E+00 -0.00000000000E+00 -0.39586554805E+02  0.39586554805E+02  0.00000000000E+00 0.  1.
         21    1    1    2  503  501  0.20230169786E+02 -0.12240859901E+01  0.17388896436E+03  0.17506607348E+03  0.00000000000E+00 0. -1.
         21    1    1    2  504  503 -0.20230169786E+02  0.12240859901E+01 -0.36364800125E+02  0.41631200369E+02  0.00000000000E+00 0.  1.
<mgrwt>
<rscale>  2 0.20267169E+02</rscale>
<asrwt>0</asrwt>
<pdfrwt beam="1">  1       21 0.27247802E-01 0.20267169E+02</pdfrwt>
<pdfrwt beam="2">  1       21 0.60902393E-02 0.20267169E+02</pdfrwt>
<totfact> 0.21346680E+06</totfact>
</mgrwt>
</event>
<event>
 4    1  0.4556894E+006  0.2515475E+02  0.7546771E-02  0.1658789E+00
         21   -1    0    0  503  501  0.00000000000E+00  0.00000000000E+00  0.92293429941E+01  0.92293429941E+01  0.00000000000E+00 0. -1.
         21   -1    0    0  504  502 -0.00000000000E+00 -0.00000000000E+00 -0.94839869579E+02  0.94839869579E+02  0.00000000000E+00 0.  1.
         21    1    1    2  503  502  0.20590204598E+02 -0.14450091091E+02 -0.15414112442E+02  0.29501805374E+02  0.00000000000E+00 0. -1.
         21    1    1    2  504  501 -0.20590204598E+02  0.14450091091E+02 -0.70196414142E+02  0.74567407199E+02  0.00000000000E+00 0.  1.
<mgrwt>
<rscale>  2 0.25154754E+02</rscale>
<asrwt>0</asrwt>
<pdfrwt beam="1">  1       21 0.14198990E-02 0.25154754E+02</pdfrwt>
<pdfrwt beam="2">  1       21 0.14590749E-01 0.25154754E+02</pdfrwt>
<totfact> 0.63883175E+07</totfact>
</mgrwt>
</event>
<event>
 4    1  0.4556894E+006  0.3089518E+02  0.7546771E-02  0.1588399E+00
         21   -1    0    0  503  501  0.00000000000E+00  0.00000000000E+00  0.24551703703E+03  0.24551703703E+03  0.00000000000E+00 0.  1.
         21   -1    0    0  501  502 -0.00000000000E+00 -0.00000000000E+00 -0.11526064300E+02  0.11526064300E+02  0.00000000000E+00 0. -1.
         21    1    1    2  503  504 -0.23007737438E+02 -0.20619322723E+02  0.22162008005E+03  0.22376320594E+03  0.00000000000E+00 0.  1.
         21    1    1    2  504  502  0.23007737438E+02  0.20619322723E+02  0.12370892685E+02  0.33279895393E+02  0.00000000000E+00 0. -1.
<mgrwt>
<rscale>  2 0.30895185E+02</rscale>
<asrwt>0</asrwt>
<pdfrwt beam="1">  1       21 0.37771848E-01 0.30895185E+02</pdfrwt>
<pdfrwt beam="2">  1       21 0.17732408E-02 0.30895185E+02</pdfrwt>
<totfact> 0.86178683E+06</totfact>
</mgrwt>
</event>
<event>
 4    1  0.4556894E+006  0.2226772E+02  0.7546771E-02  0.1703663E+00
         21   -1    0    0  503  501  0.00000000000E+00  0.00000000000E+00  0.38410337536E+03  0.38410337536E+03  0.00000000000E+00 0. -1.
         21   -1    0    0  504  502 -0.00000000000E+00 -0.00000000000E+00 -0.33796973696E+01  0.33796973696E+01  0.00000000000E+00 0. -1.
         21    1    1    2  503  502  0.50138825026E+01  0.21695902773E+02  0.38051741808E+02  0.44088391551E+02  0.00000000000E+00 0. -1.
         21    1    1    2  504  501 -0.50138825026E+01 -0.21695902773E+02  0.34267193618E+03  0.34339468118E+03  0.00000000000E+00 0. -1.
<mgrwt>
<rscale>  2 0.22267717E+02</rscale>
<asrwt>0</asrwt>
<pdfrwt beam="1">  1       21 0.59092793E-01 0.22267717E+02</pdfrwt>
<pdfrwt beam="2">  1       21 0.51995374E-03 0.22267717E+02</pdfrwt>
<totfact> 0.21707722E+07</totfact>
</mgrwt>
</event>
<event>
 4    1  0.4556894E+006  0.2048958E+02  0.7546771E-02  0.1735764E+00
         21   -1    0    0  502  501  0.00000000000E+00  0.00000000000E+00  0.75891244081E+02  0.75891244081E+02  0.00000000000E+00 0.  1.
         21   -1    0    0  503  502 -0.00000000000E+00 -0.00000000000E+00 -0.12125937858E+03  0.12125937858E+03  0.00000000000E+00 0.  1.
         21    1    1    2  503  504 -0.13628695509E+01  0.20444199015E+02 -0.11898461024E+03  0.12073591081E+03  0.00000000000E+00 0.  1.
         21    1    1    2  504  501  0.13628695509E+01 -0.20444199015E+02  0.73616475738E+02  0.76414711848E+02  0.00000000000E+00 0.  1.
<mgrwt>
<rscale>  2 0.20489575E+02</rscale>
<asrwt>0</asrwt>
<pdfrwt beam="1">  1       21 0.11675576E-01 0.20489575E+02</pdfrwt>
<pdfrwt beam="2">  1       21 0.18655289E-01 0.20489575E+02</pdfrwt>
<totfact> 0.14397612E+06</totfact>
</mgrwt>
</event>
<event>
 4    1  0.4556894E+006  0.2618918E+02  0.7546771E-02  0.1644486E+00
         21   -1    0    0  503  501  0.00000000000E+00  0.00000000000E+00  0.78975808967E+03  0.78975808967E+03  0.00000000000E+00 0.  1.
         21   -1    0    0  504  502 -0.00000000000E+00 -0.00000000000E+00 -0.92475694851E+00  0.92475694851E+00  0.00000000000E+00 0.  1.
         21    1    1    2  503  502 -0.56886298146E+01 -0.25563896761E+02  0.49196073540E+03  0.49265732361E+03  0.00000000000E+00 0.  1.
         21    1    1    2  504  501  0.56886298146E+01  0.25563896761E+02  0.29687259731E+03  0.29802552300E+03  0.00000000000E+00 0.  1.
<mgrwt>
<rscale>  2 0.26189183E+02</rscale>
<asrwt>0</asrwt>
<pdfrwt beam="1">  1       21 0.12150071E+00 0.26189183E+02</pdfrwt>
<pdfrwt beam="2">  1       21 0.14227093E-03 0.26189183E+02</pdfrwt>
<totfact> 0.31891613E+07</totfact>
</mgrwt>
</event>
<event>
 4    1  0.4556894E+006  0.2749781E+02  0.7546771E-02  0.1627517E+00
         21   -1    0    0  503  501  0.00000000000E+00  0.00000000000E+00  0.12621112576E+04  0.12621112576E+04  0.00000000000E+00 0.  1.
         21   -1    0    0  504  502 -0.00000000000E+00 -0.00000000000E+00 -0.19439947255E+01  0.19439947255E+01  0.00000000000E+00 0. -1.
         21    1    1    2  503  502 -0.11737918419E+02  0.24866658070E+02  0.10438983702E+03  0.10795076417E+03  0.00000000000E+00 0. -1.
         21    1    1    2  504  501  0.11737918419E+02 -0.24866658070E+02  0.11557774258E+04  0.11561044881E+04  0.00000000000E+00 0.  1.
<mgrwt>
<rscale>  2 0.27497807E+02</rscale>
<asrwt>0</asrwt>
<pdfrwt beam="1">  1       21 0.19417031E+00 0.27497807E+02</pdfrwt>
<pdfrwt beam="2">  1       21 0.29907712E-03 0.27497807E+02</pdfrwt>
<totfact> 0.35126523E+06</totfact>
</mgrwt>
</event>
<event>
 4    1  0.4556894E+006  0.3684746E+02  0.7546771E-02  0.1532781E+00
         21   -1    0    0  503  501  0.00000000000E+00  0.00000000000E+00  0.30102757732E+02  0.30102757732E+02  0.00000000000E+00 0. -1.
         21   -1    0    0  504  502 -0.00000000000E+00 -0.00000000000E+00 -0.46353290083E+02  0.46353290083E+02  0.00000000000E+00 0. -1.
         21    1    1    2  503  502  0.36820044124E+02  0.14210329086E+01 -0.14402777645E+02  0.39562292499E+02  0.00000000000E+00 0. -1.
         21    1    1    2  504  501 -0.36820044124E+02 -0.14210329086E+01 -0.18477547055E+01  0.36893755316E+02  0.00000000000E+00 0. -1.
<mgrwt>
<rscale>  2 0.36847456E+02</rscale>
<asrwt>0</asrwt>
<pdfrwt beam="1">  1       21 0.46311935E-02 0.36847456E+02</pdfrwt>
<pdfrwt beam="2">  1       21 0.71312754E-02 0.36847456E+02</pdfrwt>
<totfact> 0.36226678E+07</totfact>
</mgrwt>
</event>
<event>
 4    1  0.4556894E+006  0.2006959E+02  0.7546771E-02  0.1743948E+00
         21   -1    0    0  503  501  0.00000000000E+00  0.00000000000E+00  0.13100503247E+02  0.13100503247E+02  0.00000000000E+00 0.  1.
         21   -1    0    0  504  502 -0.00000000000E+00 -0.00000000000E+00 -0.13526439046E+03  0.13526439046E+03  0.00000000000E+00 0.  1.
         21    1    1    2  503  502  0.10197786674E+02 -0.17285641925E+02  0.41267860245E+01  0.20489476146E+02  0.00000000000E+00 0.  1.
         21    1    1    2  504  501 -0.10197786674E+02  0.17285641925E+02 -0.12629067324E+03  0.12787541756E+03  0.00000000000E+00 0.  1.
<mgrwt>
<rscale>  2 0.20069586E+02</rscale>
<asrwt>0</asrwt>
<pdfrwt beam="1">  1       21 0.20154619E-02 0.20069586E+02</pdfrwt>
<pdfrwt beam="2">  1       21 0.20809907E-01 0.20069586E+02</pdfrwt>
<totfact> 0.19245882E+07</totfact>
</mgrwt>
</event>
<event>
 4    1  0.4556894E+006  0.3099759E+02  0.7546771E-02  0.1587316E+00
         21   -1    0    0  504  501  0.00000000000E+00  0.00000000000E+00  0.48047228162E+03  0.48047228162E+03  0.00000000000E+00 0. -1.
         21   -1    0    0  503  502 -0.00000000000E+00 -0.00000000000E+00 -0.21284620603E+01  0.21284620603E+01  0.00000000000E+00 0. -1.
         21    1    1    2  503  501  0.13271306259E+02 -0.28012907855E+02  0.29849761124E+03  0.30010277322E+03  0.00000000000E+00 0. -1.
         21    1    1    2  504  502 -0.13271306259E+02  0.28012907855E+02  0.17984620831E+03  0.18249797046E+03  0.00000000000E+00 0. -1.
<mgrwt>
<rscale>  2 0.30997590E+02</rscale>
<asrwt>0</asrwt>
<pdfrwt beam="1">  1       21 0.73918726E-01 0.30997590E+02</pdfrwt>
<pdfrwt beam="2">  1       21 0.32745608E-03 0.30997590E+02</pdfrwt>
<totfact> 0.28932622E+07</totfact>
</mgrwt>
</event>
<event>
 4    1  0.4556894E+006  0.2053596E+02  0.7546771E-02  0.1734875E+00
         21   -1    0    0  504  501  0.00000000000E+00  0.00000000000E+00  0.26350614746E+03  0.26350614746E+03  0.00000000000E+00 0.  1.
         21   -1    0    0  503  502 -0.00000000000E+00 -0.00000000000E+00 -0.32990663155E+01  0.32990663155E+01  0.00000000000E+00 0.  1.
         21    1    1    2  503  501  0.14052080286E+02  0.14975464313E+02  0.22582688347E+03  0.22675869728E+03  0.00000000000E+00 0.  1.
         21    1    1    2  504  502 -0.14052080286E+02 -0.14975464313E+02  0.34380197674E+02  0.40046516501E+02  0.00000000000E+00 0.  1.
<mgrwt>
<rscale>  2 0.20535956E+02</rscale>
<asrwt>0</asrwt>
<pdfrwt beam="1">  1       21 0.40539391E-01 0.20535956E+02</pdfrwt>
<pdfrwt beam="2">  1       21 0.50754887E-03 0.20535956E+02</pdfrwt>
<totfact> 0.45746171E+07</totfact>
</mgrwt>
</event>
<event>
 4    1  0.4556894E+006  0.2339299E+02  0.7546771E-02  0.1685218E+00
         21   -1    0    0  503  501  0.00000000000E+00  0.00000000000E+00  0.84328155188E+01  0.84328155188E+01  0.00000000000E+00 0.  1.
         21   -1    0    0  504  502 -0.00000000000E+00 -0.00000000000E+00 -0.16044153284E+03  0.16044153284E+03  0.00000000000E+00 0.  1.
         21    1    1    2  503  502  0.10538584861E+02 -0.20884686971E+02 -0.14116524319E+03  0.14309038334E+03  0.00000000000E+00 0.  1.
         21    1    1    2  504  501 -0.10538584861E+02  0.20884686971E+02 -0.10843474134E+02  0.25783965018E+02  0.00000000000E+00 0.  1.
<mgrwt>
<rscale>  2 0.23392989E+02</rscale>
<asrwt>0</asrwt>
<pdfrwt beam="1">  1       21 0.12973563E-02 0.23392989E+02</pdfrwt>
<pdfrwt beam="2">  1       21 0.24683312E-01 0.23392989E+02</pdfrwt>
<totfact> 0.28824263E+07</totfact>
</mgrwt>
</event>
<event>
 4    1  0.4556894E+006  0.2852403E+02  0.7546771E-02  0.1615001E+00
         21   -1    0    0  504  501  0.00000000000E+00  0.00000000000E+00  0.56366996172E+01  0.56366996172E+01  0.00000000000E+00 0. -1.
         21   -1    0    0  503  502 -0.00000000000E+00 -0.00000000000E+00 -0.16768464407E+03  0.16768464407E+03  0.00000000000E+00 0. -1.
         21    1    1    2  503  501 -0.26087363028E+02 -0.11535579518E+02 -0.11335636693E+03  0.11689005957E+03  0.00000000000E+00 0. -1.
         21    1    1    2  504  502  0.26087363028E+02  0.11535579518E+02 -0.48691577524E+02  0.56431284110E+02  0.00000000000E+00 0. -1.
<mgrwt>
<rscale>  2 0.28524027E+02</rscale>
<asrwt>0</asrwt>
<pdfrwt beam="1">  1       21 0.86718446E-03 0.28524027E+02</pdfrwt>
<pdfrwt beam="2">  1       21 0.25797640E-01 0.28524027E+02</pdfrwt>
<totfact> 0.51138007E+07</totfact>
</mgrwt>
</event>
<event>
 4    1  0.4556894E+006  0.3627373E+02  0.7546771E-02  0.1537572E+00
         21   -1    0    0  503  501  0.00000000000E+00  0.00000000000E+00  0.25488264279E+02  0.25488264279E+02  0.00000000000E+00 0.  1.
         21   -1    0    0  504  502 -0.00000000000E+00 -0.00000000000E+00 -0.52437987616E+02  0.52437987616E+02  0.00000000000E+00 0. -1.
         21    1    1    2  503  502  0.27667530873E+02  0.23458280804E+02 -0.86177311141E+01  0.37283354093E+02  0.00000000000E+00 0. -1.
         21    1    1    2  504  501 -0.27667530873E+02 -0.23458280804E+02 -0.18331992223E+02  0.40642897802E+02  0.00000000000E+00 0.  1.
<mgrwt>
<rscale>  2 0.36273726E+02</rscale>
<asrwt>0</asrwt>
<pdfrwt beam="1">  1       21 0.39212715E-02 0.36273726E+02</pdfrwt>
<pdfrwt beam="2">  1       21 0.80673826E-02 0.36273726E+02</pdfrwt>
<totfact> 0.38479949E+07</totfact>
</mgrwt>
</event>
<event>
 4    1  0.4556894E+006  0.2927235E+02  0.7546771E-02  0.1606274E+00
         21   -1    0    0  503  501  0.00000000000E+00  0.00000000000E+00  0.21988314530E+02  0.21988314530E+02  0.00000000000E+00 0. -1.
         21   -1    0    0  504  502 -0.00000000000E+00 -0.00000000000E+00 -0.23602293902E+03  0.23602293902E+03  0.00000000000E+00 0. -1.
         21    1    1    2  503  502  0.17891395059E+02  0.23168268854E+02 -0.22489285407E+03  0.22678991712E+03  0.00000000000E+00 0. -1.
         21    1    1    2  504  501 -0.17891395059E+02 -0.23168268854E+02  0.10858229575E+02  0.31221336428E+02  0.00000000000E+00 0. -1.
<mgrwt>
<rscale>  2 0.29272354E+02</rscale>
<asrwt>0</asrwt>
<pdfrwt beam="1">  1       21 0.33828176E-02 0.29272354E+02</pdfrwt>
<pdfrwt beam="2">  1       21 0.36311221E-01 0.29272354E+02</pdfrwt>
<totfact> 0.33638682E+06</totfact>
</mgrwt>
</event>
<event>
 4    1  0.4556894E+006  0.2729278E+02  0.7546771E-02  0.1630098E+00
         21   -1    0    0  503  501  0.00000000000E+00  0.00000000000E+00  0.68803467353E+00  0.68803467353E+00  0.00000000000E+00 0.  1.
         21   -1    0    0  504  502 -0.00000000000E+00 -0.00000000000E+00 -0.13139531602E+04  0.13139531602E+04  0.00000000000E+00 0.  1.
         21    1    1    2  503  502 -0.88741761942E+00 -0.27278351551E+02 -0.93242641785E+03  0.93282577187E+03  0.00000000000E+00 0.  1.
         21    1    1    2  504  501  0.88741761942E+00  0.27278351551E+02 -0.38083870771E+03  0.38181542303E+03  0.00000000000E+00 0.  1.
<mgrwt>
<rscale>  2 0.27292782E+02</rscale>
<asrwt>0</asrwt>
<pdfrwt beam="1">  1       21 0.10585191E-03 0.27292782E+02</pdfrwt>
<pdfrwt beam="2">  1       21 0.20214584E+00 0.27292782E+02</pdfrwt>
<totfact> 0.14231234E+07</totfact>
</mgrwt>
</event>
<event>
 4    1  0.4556894E+006  0.2927122E+02  0.7546771E-02  0.1606287E+00
         21   -1    0    0  503  501  0.00000000000E+00  0.00000000000E+00  0.21038347797E+02  0.21038347797E+02  0.00000000000E+00 0.  1.
         21   -1    0    0  504  502 -0.00000000000E+00 -0.00000000000E+00 -0.25790744816E+03  0.25790744816E+03  0.00000000000E+00 0.  1.
         21    1    1    2  503  502 -0.26428153203E+02 -0.12583999649E+02 -0.24642259586E+03  0.24815499205E+03  0.00000000000E+00 0.  1.
         21    1    1    2  504  501  0.26428153203E+02  0.12583999649E+02  0.95534954980E+01  0.30790803905E+02  0.00000000000E+00 0.  1.
<mgrwt>
<rscale>  2 0.29271220E+02</rscale>
<asrwt>0</asrwt>
<pdfrwt beam="1">  1       21 0.32366688E-02 0.29271220E+02</pdfrwt>
<pdfrwt beam="2">  1       21 0.39678070E-01 0.29271220E+02</pdfrwt>
<totfact> 0.30500347E+06</totfact>
</mgrwt>
</event>
<event>
 4    1  0.4556894E+006  0.2412778E+02  0.7546771E-02  0.1673855E+00
         21   -1    0    0  503  501  0.00000000000E+00  0.00000000000E+00  0.41132946839E+01  0.41132946839E+01  0.00000000000E+00 0.  1.
         21   -1    0    0  504  502 -0.00000000000E+00 -0.00000000000E+00 -0.14480504027E+03  0.14480504027E+03  0.00000000000E+00 0.  1.
         21    1    1    2  503  502  0.39920348724E+00 -0.24124473112E+02 -0.81545813607E+02  0.85040397948E+02  0.00000000000E+00 0.  1.
         21    1    1    2  504  501 -0.39920348724E+00  0.24124473112E+02 -0.59145931974E+02  0.63877937001E+02  0.00000000000E+00 0.  1.
<mgrwt>
<rscale>  2 0.24127776E+02</rscale>
<asrwt>0</asrwt>
<pdfrwt beam="1">  1       21 0.63281470E-03 0.24127776E+02</pdfrwt>
<pdfrwt beam="2">  1       21 0.22277694E-01 0.24127776E+02</pdfrwt>
<totfact> 0.10226111E+08</totfact>
</mgrwt>
</event>
<event>
 4    1  0.4556894E+006  0.4067725E+02  0.7546771E-02  0.1503286E+00
         21   -1    0    0  504  501  0.00000000000E+00  0.00000000000E+00  0.38798476015E+02  0.38798476015E+02  0.00000000000E+00 0.  1.
         21   -1    0    0  503  502 -0.00000000000E+00 -0.00000000000E+00 -0.40353025159E+03  0.40353025159E+03  0.00000000000E+00 0. -1.
         21    1    1    2  503  501  0.34898216809E+02  0.20898630418E+02  0.26785364776E+02  0.48704148242E+02  0.00000000000E+00 0.  1.
         21    1    1    2  504  502 -0.34898216809E+02 -0.20898630418E+02 -0.39151714035E+03  0.39362457937E+03  0.00000000000E+00 0. -1.
<mgrwt>
<rscale>  2 0.40677245E+02</rscale>
<asrwt>0</asrwt>
<pdfrwt beam="1">  1       21 0.59689964E-02 0.40677245E+02</pdfrwt>
<pdfrwt beam="2">  1       21 0.62081577E-01 0.40677245E+02</pdfrwt>
<totfact> 0.48179731E+05</totfact>
</mgrwt>
</event>
<event>
 4    1  0.4556894E+006  0.2113708E+02  0.7546771E-02  0.1723618E+00
         21   -1    0    0  503  501  0.00000000000E+00  0.00000000000E+00  0.96464297146E+03  0.96464297146E+03  0.00000000000E+00 0.  1.
         21   -1    0    0  501  502 -0.00000000000E+00 -0.00000000000E+00 -0.50785206876E+00  0.50785206876E+00  0.00000000000E+00 0.  1.
         21    1    1    2  503  504 -0.10752726923E+02  0.18197669621E+02  0.62523712318E+03  0.62559430665E+03  0.00000000000E+00 0.  1.
         21    1    1    2  504  502  0.10752726923E+02 -0.18197669621E+02  0.33889799621E+03  0.33955651687E+03  0.00000000000E+00 0.  1.
<mgrwt>
<rscale>  2 0.21137084E+02</rscale>
<asrwt>0</asrwt>
<pdfrwt beam="1">  1       21 0.14840514E+00 0.21137084E+02</pdfrwt>
<pdfrwt beam="2">  1       21 0.78131860E-04 0.21137084E+02</pdfrwt>
<totfact> 0.45226233E+07</totfact>
</mgrwt>
</event>
<event>
 4    1  0.4556894E+006  0.2090627E+02  0.7546771E-02  0.1727884E+00
         21   -1    0    0  504  501  0.00000000000E+00  0.00000000000E+00  0.16921359775E+02  0.16921359775E+02  0.00000000000E+00 0.  1.
         21   -1    0    0  503  502 -0.00000000000E+00 -0.00000000000E+00 -0.87523054454E+02  0.87523054454E+02  0.00000000000E+00 0. -1.
         21    1    1    2  503  501  0.65057077734E+01 -0.19868268010E+02 -0.79145179676E+02  0.81859830034E+02  0.00000000000E+00 0. -1.
         21    1    1    2  504  502 -0.65057077734E+01  0.19868268010E+02  0.85434849968E+01  0.22584584195E+02  0.00000000000E+00 0.  1.
<mgrwt>
<rscale>  2 0.20906274E+02</rscale>
<asrwt>0</asrwt>
<pdfrwt beam="1">  1       21 0.26032862E-02 0.20906274E+02</pdfrwt>
<pdfrwt beam="2">  1       21 0.13465085E-01 0.20906274E+02</pdfrwt>
<totfact> 0.27616231E+07</totfact>
</mgrwt>
</event>
<event>
 4    1  0.4556894E+006  0.2348876E+02  0.7546771E-02  0.1683708E+00
         21   -1    0    0  503  501  0.00000000000E+00  0.00000000000E+00  0.19811009178E+02  0.19811009178E+02  0.00000000000E+00 0.  1.
         21   -1    0    0  501  502 -0.00000000000E+00 -0.00000000000E+00 -0.46149975421E+03  0.46149975421E+03  0.00000000000E+00 0. -1.
         21    1    1    2  503  504  0.66201007994E+00 -0.23479427417E+02  0.12436842366E+02  0.26578126669E+02  0.00000000000E+00 0.  1.
         21    1    1    2  504  502 -0.66201007994E+00  0.23479427417E+02 -0.45412558740E+03  0.45473263672E+03  0.00000000000E+00 0. -1.
<mgrwt>
<rscale>  2 0.23488758E+02</rscale>
<asrwt>0</asrwt>
<pdfrwt beam="1">  1       21 0.30478475E-02 0.23488758E+02</pdfrwt>
<pdfrwt beam="2">  1       21 0.70999963E-01 0.23488758E+02</pdfrwt>
<totfact> 0.10384820E+06</totfact>
</mgrwt>
</event>
<event>
 4    1  0.4556894E+006  0.2178846E+02  0.7546771E-02  0.1711936E+00
         21   -1    0    0  503  501  0.00000000000E+00  0.00000000000E+00  0.22318456098E+02  0.22318456098E+02  0.00000000000E+00 0. -1.
         21   -1    0    0  504  502 -0.00000000000E+00 -0.00000000000E+00 -0.10641969709E+03  0.10641969709E+03  0.00000000000E+00 0.  1.
         21    1    1    2  503  502 -0.14729799870E+02  0.16055211694E+02 -0.99628433514E+02  0.10198314366E+03  0.00000000000E+00 0.  1.
         21    1    1    2  504  501  0.14729799870E+02 -0.16055211694E+02  0.15527192527E+02  0.26755009522E+02  0.00000000000E+00 0. -1.
<mgrwt>
<rscale>  2 0.21788456E+02</rscale>
<asrwt>0</asrwt>
<pdfrwt beam="1">  1       21 0.34336086E-02 0.21788456E+02</pdfrwt>
<pdfrwt beam="2">  1       21 0.16372261E-01 0.21788456E+02</pdfrwt>
<totfact> 0.13016870E+07</totfact>
</mgrwt>
</event>
<event>
 4    1  0.4556894E+006  0.3963880E+02  0.7546771E-02  0.1510886E+00
         21   -1    0    0  504  501  0.00000000000E+00  0.00000000000E+00  0.13249442977E+01  0.13249442977E+01  0.00000000000E+00 0. -1.
         21   -1    0    0  503  502 -0.00000000000E+00 -0.00000000000E+00 -0.12855364144E+04  0.12855364144E+04  0.00000000000E+00 0. -1.
         21    1    1    2  503  501  0.12272701723E+02  0.37691046583E+02 -0.82124755353E+03  0.82220361126E+03  0.00000000000E+00 0. -1.
         21    1    1    2  504  502 -0.12272701723E+02 -0.37691046583E+02 -0.46296391656E+03  0.46465774742E+03  0.00000000000E+00 0. -1.
<mgrwt>
<rscale>  2 0.39638797E+02</rscale>
<asrwt>0</asrwt>
<pdfrwt beam="1">  1       21 0.20383719E-03 0.39638797E+02</pdfrwt>
<pdfrwt beam="2">  1       21 0.19777522E+00 0.39638797E+02</pdfrwt>
<totfact> 0.60095843E+06</totfact>
</mgrwt>
</event>
<event>
 4    1  0.4556894E+006  0.2141689E+02  0.7546771E-02  0.1718536E+00
         21   -1    0    0  504  501  0.00000000000E+00  0.00000000000E+00  0.11244329255E+03  0.11244329255E+03  0.00000000000E+00 0.  1.
         21   -1    0    0  503  502 -0.00000000000E+00 -0.00000000000E+00 -0.20233909182E+02  0.20233909182E+02  0.00000000000E+00 0. -1.
         21    1    1    2  503  501 -0.99567769030E+01 -0.18961692902E+02  0.10538022098E+03  0.10753452552E+03  0.00000000000E+00 0.  1.
         21    1    1    2  504  502  0.99567769030E+01  0.18961692902E+02 -0.13170837611E+02  0.25142676217E+02  0.00000000000E+00 0. -1.
<mgrwt>
<rscale>  2 0.21416891E+02</rscale>
<asrwt>0</asrwt>
<pdfrwt beam="1">  1       21 0.17298968E-01 0.21416891E+02</pdfrwt>
<pdfrwt beam="2">  1       21 0.31129092E-02 0.21416891E+02</pdfrwt>
<totfact> 0.13751866E+07</totfact>
</mgrwt>
</event>
<event>
 4    1  0.4556894E+006  0.3467099E+02  0.7546771E-02  0.1551542E+00
         21   -1    0    0  504  501  0.00000000000E+00  0.00000000000E+00  0.14475754099E+02  0.14475754099E+02  0.00000000000E+00 0.  1.
         21   -1    0    0  501  502 -0.00000000000E+00 -0.00000000000E+00 -0.23393241553E+03  0.23393241553E+03  0.00000000000E+00 0.  1.
         21    1    1    2  503  502  0.11298007136E+02 -0.32778534898E+02 -0.20948072274E+03  0.21233052187E+03  0.00000000000E+00 0.  1.
         21    1    1    2  504  503 -0.11298007136E+02  0.32778534898E+02 -0.99759386869E+01  0.36077647761E+02  0.00000000000E+00 0.  1.
<mgrwt>
<rscale>  2 0.34670987E+02</rscale>
<asrwt>0</asrwt>
<pdfrwt beam="1">  1       21 0.22270392E-02 0.34670987E+02</pdfrwt>
<pdfrwt beam="2">  1       21 0.35989601E-01 0.34670987E+02</pdfrwt>
<totfact> 0.67344823E+06</totfact>
</mgrwt>
</event>
<event>
 4    1  0.4556894E+006  0.2051280E+02  0.7546771E-02  0.1735319E+00
         21   -1    0    0  503  501  0.00000000000E+00  0.00000000000E+00  0.12908054323E+03  0.12908054323E+03  0.00000000000E+00 0.  1.
         21   -1    0    0  504  502 -0.00000000000E+00 -0.00000000000E+00 -0.32841568940E+01  0.32841568940E+01  0.00000000000E+00 0.  1.
         21    1    1    2  503  502  0.19808788039E+02 -0.53279277018E+01  0.68599434901E+02  0.71600679926E+02  0.00000000000E+00 0.  1.
         21    1    1    2  504  501 -0.19808788039E+02  0.53279277018E+01  0.57196951437E+02  0.60764020200E+02  0.00000000000E+00 0.  1.
<mgrwt>
<rscale>  2 0.20512798E+02</rscale>
<asrwt>0</asrwt>
<pdfrwt beam="1">  1       21 0.19858541E-01 0.20512798E+02</pdfrwt>
<pdfrwt beam="2">  1       21 0.50525501E-03 0.20512798E+02</pdfrwt>
<totfact> 0.16646222E+08</totfact>
</mgrwt>
</event>
<event>
 4    1  0.4556894E+006  0.2074242E+02  0.7546771E-02  0.1730955E+00
         21   -1    0    0  504  501  0.00000000000E+00  0.00000000000E+00  0.35050288015E+02  0.35050288015E+02  0.00000000000E+00 0.  1.
         21   -1    0    0  501  502 -0.00000000000E+00 -0.00000000000E+00 -0.43189669253E+02  0.43189669253E+02  0.00000000000E+00 0.  1.
         21    1    1    2  503  502 -0.20032920072E+02  0.53786571605E+01 -0.37166784283E+02  0.42563102488E+02  0.00000000000E+00 0.  1.
         21    1    1    2  504  503  0.20032920072E+02 -0.53786571605E+01  0.29027403045E+02  0.35676854780E+02  0.00000000000E+00 0.  1.
<mgrwt>
<rscale>  2 0.20742416E+02</rscale>
<asrwt>0</asrwt>
<pdfrwt beam="1">  1       21 0.53923520E-02 0.20742416E+02</pdfrwt>
<pdfrwt beam="2">  1       21 0.66445645E-02 0.20742416E+02</pdfrwt>
<totfact> 0.28116706E+07</totfact>
</mgrwt>
</event>
<event>
 4    1  0.4556894E+006  0.2310915E+02  0.7546771E-02  0.1689747E+00
         21   -1    0    0  504  501  0.00000000000E+00  0.00000000000E+00  0.11703700746E+03  0.11703700746E+03  0.00000000000E+00 0.  1.
         21   -1    0    0  503  502 -0.00000000000E+00 -0.00000000000E+00 -0.10484749847E+02  0.10484749847E+02  0.00000000000E+00 0.  1.
         21    1    1    2  503  501  0.21864143849E+02 -0.74827690593E+01  0.10119455607E+03  0.10379966666E+03  0.00000000000E+00 0.  1.
         21    1    1    2  504  502 -0.21864143849E+02  0.74827690593E+01  0.53577015385E+01  0.23722090650E+02  0.00000000000E+00 0.  1.
<mgrwt>
<rscale>  2 0.23109146E+02</rscale>
<asrwt>0</asrwt>
<pdfrwt beam="1">  1       21 0.18005693E-01 0.23109146E+02</pdfrwt>
<pdfrwt beam="2">  1       21 0.16130385E-02 0.23109146E+02</pdfrwt>
<totfact> 0.35909319E+07</totfact>
</mgrwt>
</event>
<event>
 4    1  0.4556894E+006  0.2087063E+02  0.7546771E-02  0.1728549E+00
         21   -1    0    0  504  501  0.00000000000E+00  0.00000000000E+00  0.18376433109E+03  0.18376433109E+03  0.00000000000E+00 0.  1.
         21   -1    0    0  503  502 -0.00000000000E+00 -0.00000000000E+00 -0.63891289004E+01  0.63891289004E+01  0.00000000000E+00 0. -1.
         21    1    1    2  503  501  0.67913220623E+00  0.20859574541E+02  0.13282406429E+02  0.24738742715E+02  0.00000000000E+00 0. -1.
         21    1    1    2  504  502 -0.67913220623E+00 -0.20859574541E+02  0.16409279576E+03  0.16541471727E+03  0.00000000000E+00 0.  1.
<mgrwt>
<rscale>  2 0.20870627E+02</rscale>
<asrwt>0</asrwt>
<pdfrwt beam="1">  1       21 0.28271432E-01 0.20870627E+02</pdfrwt>
<pdfrwt beam="2">  1       21 0.98294305E-03 0.20870627E+02</pdfrwt>
<totfact> 0.33424384E+07</totfact>
</mgrwt>
</event>
<event>
 4    1  0.4556894E+006  0.2314842E+02  0.7546771E-02  0.1689116E+00
         21   -1    0    0  503  501  0.00000000000E+00  0.00000000000E+00  0.33982189559E+02  0.33982189559E+02  0.00000000000E+00 0.  1.
         21   -1    0    0  501  502 -0.00000000000E+00 -0.00000000000E+00 -0.23554022814E+02  0.23554022814E+02  0.00000000000E+00 0. -1.
         21    1    1    2  503  504  0.18339232142E+02 -0.14125220519E+02  0.21753557130E+02  0.31765807688E+02  0.00000000000E+00 0.  1.
         21    1    1    2  504  502 -0.18339232142E+02  0.14125220519E+02 -0.11325390385E+02  0.25770404685E+02  0.00000000000E+00 0. -1.
<mgrwt>
<rscale>  2 0.23148419E+02</rscale>
<asrwt>0</asrwt>
<pdfrwt beam="1">  1       21 0.52280292E-02 0.23148419E+02</pdfrwt>
<pdfrwt beam="2">  1       21 0.36236958E-02 0.23148419E+02</pdfrwt>
<totfact> 0.79605189E+07</totfact>
</mgrwt>
</event>
<event>
 4    1  0.4556894E+006  0.2765556E+02  0.7546771E-02  0.1625550E+00
         21   -1    0    0  503  501  0.00000000000E+00  0.00000000000E+00  0.11127120944E+02  0.11127120944E+02  0.00000000000E+00 0. -1.
         21   -1    0    0  504  502 -0.00000000000E+00 -0.00000000000E+00 -0.12541788714E+03  0.12541788714E+03  0.00000000000E+00 0. -1.
         21    1    1    2  503  502  0.75318554733E+01 -0.26610167617E+02 -0.11247823851E+02  0.29855374874E+02  0.00000000000E+00 0. -1.
         21    1    1    2  504  501 -0.75318554733E+01  0.26610167617E+02 -0.10304294235E+03  0.10668963321E+03  0.00000000000E+00 0. -1.
<mgrwt>
<rscale>  2 0.27655558E+02</rscale>
<asrwt>0</asrwt>
<pdfrwt beam="1">  1       21 0.17118649E-02 0.27655558E+02</pdfrwt>
<pdfrwt beam="2">  1       21 0.19295058E-01 0.27655558E+02</pdfrwt>
<totfact> 0.30253868E+07</totfact>
</mgrwt>
</event>
<event>
 4    1  0.4556894E+006  0.2984931E+02  0.7546771E-02  0.1599760E+00
         21   -1    0    0  504  501  0.00000000000E+00  0.00000000000E+00  0.50303304616E+02  0.50303304616E+02  0.00000000000E+00 0. -1.
         21   -1    0    0  503  502 -0.00000000000E+00 -0.00000000000E+00 -0.92257936465E+02  0.92257936465E+02  0.00000000000E+00 0.  1.
         21    1    1    2  503  501  0.13448540493E+02  0.26648040741E+02 -0.85051201172E+02  0.90137051968E+02  0.00000000000E+00 0.  1.
         21    1    1    2  504  502 -0.13448540493E+02 -0.26648040741E+02  0.43096569323E+02  0.52424189113E+02  0.00000000000E+00 0. -1.
<mgrwt>
<rscale>  2 0.29849310E+02</rscale>
<asrwt>0</asrwt>
<pdfrwt beam="1">  1       21 0.77389699E-02 0.29849310E+02</pdfrwt>
<pdfrwt beam="2">  1       21 0.14193529E-01 0.29849310E+02</pdfrwt>
<totfact> 0.47734168E+06</totfact>
</mgrwt>
</event>
<event>
 4    1  0.4556894E+006  0.2515114E+02  0.7546771E-02  0.1658841E+00
         21   -1    0    0  503  501  0.00000000000E+00  0.00000000000E+00  0.51878137991E+02  0.51878137991E+02  0.00000000000E+00 0.  1.
         21   -1    0    0  504  502 -0.00000000000E+00 -0.00000000000E+00 -0.12352879225E+02  0.12352879225E+02  0.00000000000E+00 0.  1.
         21    1    1    2  503  502  0.24034629597E+02 -0.74105524579E+01  0.23409758637E+02  0.34359809473E+02  0.00000000000E+00 0.  1.
         21    1    1    2  504  501 -0.24034629597E+02  0.74105524579E+01  0.16115500129E+02  0.29871207743E+02  0.00000000000E+00 0.  1.
<mgrwt>
<rscale>  2 0.25151137E+02</rscale>
<asrwt>0</asrwt>
<pdfrwt beam="1">  1       21 0.79812519E-02 0.25151137E+02</pdfrwt>
<pdfrwt beam="2">  1       21 0.19004430E-02 0.25151137E+02</pdfrwt>
<totfact> 0.11198597E+08</totfact>
</mgrwt>
</event>
<event>
 4    1  0.4556894E+006  0.2803827E+02  0.7546771E-02  0.1620843E+00
         21   -1    0    0  504  501  0.00000000000E+00  0.00000000000E+00  0.31414883085E+03  0.31414883085E+03  0.00000000000E+00 0.  1.
         21   -1    0    0  503  502 -0.00000000000E+00 -0.00000000000E+00 -0.12788243756E+02  0.12788243756E+02  0.00000000000E+00 0.  1.
         21    1    1    2  503  501 -0.15625326931E+02 -0.23280764012E+02  0.29728483476E+03  0.29860411550E+03  0.00000000000E+00 0.  1.
         21    1    1    2  504  502  0.15625326931E+02  0.23280764012E+02  0.40757523343E+01  0.28332959107E+02  0.00000000000E+00 0.  1.
<mgrwt>
<rscale>  2 0.28038274E+02</rscale>
<asrwt>0</asrwt>
<pdfrwt beam="1">  1       21 0.48330583E-01 0.28038274E+02</pdfrwt>
<pdfrwt beam="2">  1       21 0.19674224E-02 0.28038274E+02</pdfrwt>
<totfact> 0.45101519E+06</totfact>
</mgrwt>
</event>
<event>
 4    1  0.4556894E+006  0.2646299E+02  0.7546771E-02  0.1640836E+00
         21   -1    0    0  504  501  0.00000000000E+00  0.00000000000E+00  0.21717529694E+01  0.21717529694E+01  0.00000000000E+00 0.  1.
         21   -1    0    0  501  502 -0.00000000000E+00 -0.00000000000E+00 -0.57840477160E+03  0.57840477160E+03  0.00000000000E+00 0.  1.
         21    1    1    2  503  502 -0.34438484327E+01 -0.26237949039E+02 -0.48122079313E+03  0.48194786212E+03  0.00000000000E+00 0.  1.
         21    1    1    2  504  503  0.34438484327E+01  0.26237949039E+02 -0.95012225492E+02  0.98628662440E+02  0.00000000000E+00 0.  1.
<mgrwt>
<rscale>  2 0.26462994E+02</rscale>
<asrwt>0</asrwt>
<pdfrwt beam="1">  1       21 0.33411624E-03 0.26462994E+02</pdfrwt>
<pdfrwt beam="2">  1       21 0.88985242E-01 0.26462994E+02</pdfrwt>
<totfact> 0.18433573E+07</totfact>
</mgrwt>
</event>
<event>
 4    1  0.4556894E+006  0.2977574E+02  0.7546771E-02  0.1600581E+00
         21   -1    0    0  503  501  0.00000000000E+00  0.00000000000E+00  0.90607166559E+01  0.90607166559E+01  0.00000000000E+00 0. -1.
         21   -1    0    0  501  502 -0.00000000000E+00 -0.00000000000E+00 -0.15894042483E+03  0.15894042483E+03  0.00000000000E+00 0. -1.
         21    1    1    2  503  504 -0.29228555135E+02  0.56821210868E+01 -0.22862353811E+02  0.37540406992E+02  0.00000000000E+00 0. -1.
         21    1    1    2  504  502  0.29228555135E+02 -0.56821210868E+01 -0.12701735436E+03  0.13046073449E+03  0.00000000000E+00 0. -1.
<mgrwt>
<rscale>  2 0.29775744E+02</rscale>
<asrwt>0</asrwt>
<pdfrwt beam="1">  1       21 0.13939565E-02 0.29775744E+02</pdfrwt>
<pdfrwt beam="2">  1       21 0.24452371E-01 0.29775744E+02</pdfrwt>
<totfact> 0.27641040E+07</totfact>
</mgrwt>
</event>
<event>
 4    1  0.4556894E+006  0.2263904E+02  0.7546771E-02  0.1697429E+00
         21   -1    0    0  503  501  0.00000000000E+00  0.00000000000E+00  0.13681105544E+04  0.13681105544E+04  0.00000000000E+00 0.  1.
         21   -1    0    0  504  502 -0.00000000000E+00 -0.00000000000E+00 -0.23212147561E+01  0.23212147561E+01  0.00000000000E+00 0. -1.
         21    1    1    2  503  502 -0.12948213397E+02 -0.18570667374E+02  0.13103852077E+04  0.13105807562E+04  0.00000000000E+00 0.  1.
         21    1    1    2  504  501  0.12948213397E+02  0.18570667374E+02  0.55404131872E+02  0.59851012902E+02  0.00000000000E+00 0. -1.
<mgrwt>
<rscale>  2 0.22639035E+02</rscale>
<asrwt>0</asrwt>
<pdfrwt beam="1">  1       21 0.21047790E+00 0.22639035E+02</pdfrwt>
<pdfrwt beam="2">  1       21 0.35711106E-03 0.22639035E+02</pdfrwt>
<totfact> 0.21683292E+06</totfact>
</mgrwt>
</event>
<event>
 4    1  0.4556894E+006  0.2006161E+02  0.7546771E-02  0.1744106E+00
         21   -1    0    0  503  501  0.00000000000E+00  0.00000000000E+00  0.21659222123E+01  0.21659222123E+01  0.00000000000E+00 0. -1.
         21   -1    0    0  504  502 -0.00000000000E+00 -0.00000000000E+00 -0.60642571283E+03  0.60642571283E+03  0.00000000000E+00 0. -1.
         21    1    1    2  503  502  0.58757497572E+00  0.20053000024E+02 -0.55555265957E+03  0.55591476470E+03  0.00000000000E+00 0. -1.
         21    1    1    2  504  501 -0.58757497572E+00 -0.20053000024E+02 -0.48707131047E+02  0.52676870343E+02  0.00000000000E+00 0. -1.
<mgrwt>
<rscale>  2 0.20061606E+02</rscale>
<asrwt>0</asrwt>
<pdfrwt beam="1">  1       21 0.33321805E-03 0.20061606E+02</pdfrwt>
<pdfrwt beam="2">  1       21 0.93296473E-01 0.20061606E+02</pdfrwt>
<totfact> 0.15885121E+07</totfact>
</mgrwt>
</event>
<event>
 4    1  0.4556894E+006  0.2672512E+02  0.7546771E-02  0.1637392E+00
         21   -1    0    0  502  501  0.00000000000E+00  0.00000000000E+00  0.20978143394E+03  0.20978143394E+03  0.00000000000E+00 0. -1.
         21   -1    0    0  503  502 -0.00000000000E+00 -0.00000000000E+00 -0.47144813581E+01  0.47144813581E+01  0.00000000000E+00 0. -1.
         21    1    1    2  503  504  0.26688805913E+02 -0.13926825439E+01  0.46003330783E+02  0.53202804145E+02  0.00000000000E+00 0. -1.
         21    1    1    2  504  501 -0.26688805913E+02  0.13926825439E+01  0.15906362180E+03  0.16129311115E+03  0.00000000000E+00 0. -1.
<mgrwt>
<rscale>  2 0.26725118E+02</rscale>
<asrwt>0</asrwt>
<pdfrwt beam="1">  1       21 0.32274060E-01 0.26725118E+02</pdfrwt>
<pdfrwt beam="2">  1       21 0.72530499E-03 0.26725118E+02</pdfrwt>
<totfact> 0.43801008E+07</totfact>
</mgrwt>
</event>
<event>
 4    1  0.4556894E+006  0.2485934E+02  0.7546771E-02  0.1663031E+00
         21   -1    0    0  504  501  0.00000000000E+00  0.00000000000E+00  0.21729739642E+01  0.21729739642E+01  0.00000000000E+00 0.  1.
         21   -1    0    0  503  502 -0.00000000000E+00 -0.00000000000E+00 -0.32446441077E+03  0.32446441077E+03  0.00000000000E+00 0.  1.
         21    1    1    2  503  501 -0.20574465966E+02  0.13952703093E+02 -0.10375393068E+03  0.10669050897E+03  0.00000000000E+00 0.  1.
         21    1    1    2  504  502  0.20574465966E+02 -0.13952703093E+02 -0.21853750612E+03  0.21994687576E+03  0.00000000000E+00 0.  1.
<mgrwt>
<rscale>  2 0.24859336E+02</rscale>
<asrwt>0</asrwt>
<pdfrwt beam="1">  1       21 0.33430385E-03 0.24859336E+02</pdfrwt>
<pdfrwt beam="2">  1       21 0.49917577E-01 0.24859336E+02</pdfrwt>
<totfact> 0.59344308E+07</totfact>
</mgrwt>
</event>
<event>
 4    1  0.4556894E+006  0.2163281E+02  0.7546771E-02  0.1714681E+00
         21   -1    0    0  502  501  0.00000000000E+00  0.00000000000E+00  0.21861092492E+03  0.21861092492E+03  0.00000000000E+00 0.  1.
         21   -1    0    0  504  502 -0.00000000000E+00 -0.00000000000E+00 -0.26136854408E+01  0.26136854408E+01  0.00000000000E+00 0. -1.
         21    1    1    2  503  501  0.20297595742E+02 -0.74823795423E+01  0.15505352379E+03  0.15655533730E+03  0.00000000000E+00 0.  1.
         21    1    1    2  504  503 -0.20297595742E+02  0.74823795423E+01  0.60943715684E+02  0.64669273059E+02  0.00000000000E+00 0. -1.
<mgrwt>
<rscale>  2 0.21632808E+02</rscale>
<asrwt>0</asrwt>
<pdfrwt beam="1">  1       21 0.33632436E-01 0.21632808E+02</pdfrwt>
<pdfrwt beam="2">  1       21 0.40210562E-03 0.21632808E+02</pdfrwt>
<totfact> 0.92305409E+07</totfact>
</mgrwt>
</event>
<event>
 4    1  0.4556894E+006  0.2069216E+02  0.7546771E-02  0.1731904E+00
         21   -1    0    0  504  501  0.00000000000E+00  0.00000000000E+00  0.17063006615E+04  0.17063006615E+04  0.00000000000E+00 0.  1.
         21   -1    0    0  503  502 -0.00000000000E+00 -0.00000000000E+00 -0.40205858696E+00  0.40205858696E+00  0.00000000000E+00 0.  1.
         21    1    1    2  503  501 -0.83355281179E+01  0.18938963635E+02  0.13761324004E+04  0.13762879600E+04  0.00000000000E+00 0.  1.
         21    1    1    2  504  502  0.83355281179E+01 -0.18938963635E+02  0.32976620256E+03  0.33041476015E+03  0.00000000000E+00 0.  1.
<mgrwt>
<rscale>  2 0.20692157E+02</rscale>
<asrwt>0</asrwt>
<pdfrwt beam="1">  1       21 0.26250200E+00 0.20692157E+02</pdfrwt>
<pdfrwt beam="2">  1       21 0.61856533E-04 0.20692157E+02</pdfrwt>
<totfact> 0.14460326E+07</totfact>
</mgrwt>
</event>
<event>
 4    1  0.4556894E+006  0.2595020E+02  0.7546771E-02  0.1647717E+00
         21   -1    0    0  504  501  0.00000000000E+00  0.00000000000E+00  0.94266551961E+02  0.94266551961E+02  0.00000000000E+00 0.  1.
         21   -1    0    0  503  502 -0.00000000000E+00 -0.00000000000E+00 -0.21209128100E+02  0.21209128100E+02  0.00000000000E+00 0.  1.
         21    1    1    2  503  501 -0.11265875572E+01  0.25925736875E+02 -0.10490508946E+02  0.27990423541E+02  0.00000000000E+00 0.  1.
         21    1    1    2  504  502  0.11265875572E+01 -0.25925736875E+02  0.83547932807E+02  0.87485256520E+02  0.00000000000E+00 0.  1.
<mgrwt>
<rscale>  2 0.25950203E+02</rscale>
<asrwt>0</asrwt>
<pdfrwt beam="1">  1       21 0.14502546E-01 0.25950203E+02</pdfrwt>
<pdfrwt beam="2">  1       21 0.32629428E-02 0.25950203E+02</pdfrwt>
<totfact> 0.17973761E+07</totfact>
</mgrwt>
</event>
<event>
 4    1  0.4556894E+006  0.2064037E+02  0.7546771E-02  0.1732885E+00
         21   -1    0    0  502  501  0.00000000000E+00  0.00000000000E+00  0.30782295302E+02  0.30782295302E+02  0.00000000000E+00 0. -1.
         21   -1    0    0  504  502 -0.00000000000E+00 -0.00000000000E+00 -0.26703927026E+02  0.26703927026E+02  0.00000000000E+00 0. -1.
         21    1    1    2  503  501 -0.17988407665E+02 -0.10121358123E+02  0.21988786099E+02  0.30158438532E+02  0.00000000000E+00 0. -1.
         21    1    1    2  504  503  0.17988407665E+02  0.10121358123E+02 -0.17910417823E+02  0.27327783795E+02  0.00000000000E+00 0. -1.
<mgrwt>
<rscale>  2 0.20640366E+02</rscale>
<asrwt>0</asrwt>
<pdfrwt beam="1">  1       21 0.47357377E-02 0.20640366E+02</pdfrwt>
<pdfrwt beam="2">  1       21 0.41082965E-02 0.20640366E+02</pdfrwt>
<totfact> 0.74059207E+07</totfact>
</mgrwt>
</event>
<event>
 4    1  0.4556894E+006  0.2730425E+02  0.7546771E-02  0.1629953E+00
         21   -1    0    0  503  501  0.00000000000E+00  0.00000000000E+00  0.62183489944E+01  0.62183489944E+01  0.00000000000E+00 0.  1.
         21   -1    0    0  501  502 -0.00000000000E+00 -0.00000000000E+00 -0.28088615237E+03  0.28088615237E+03  0.00000000000E+00 0.  1.
         21    1    1    2  503  504 -0.22272391503E+02  0.15794382550E+02 -0.28653382510E+02  0.39579518348E+02  0.00000000000E+00 0.  1.
         21    1    1    2  504  502  0.22272391503E+02 -0.15794382550E+02 -0.24601442087E+03  0.24752498302E+03  0.00000000000E+00 0.  1.
<mgrwt>
<rscale>  2 0.27304248E+02</rscale>
<asrwt>0</asrwt>
<pdfrwt beam="1">  1       21 0.95666902E-03 0.27304248E+02</pdfrwt>
<pdfrwt beam="2">  1       21 0.43213257E-01 0.27304248E+02</pdfrwt>
<totfact> 0.16759261E+07</totfact>
</mgrwt>
</event>
<event>
 4    1  0.4556894E+006  0.2139980E+02  0.7546771E-02  0.1718844E+00
         21   -1    0    0  502  501  0.00000000000E+00  0.00000000000E+00  0.46348497929E+02  0.46348497929E+02  0.00000000000E+00 0.  1.
         21   -1    0    0  503  502 -0.00000000000E+00 -0.00000000000E+00 -0.42733891010E+02  0.42733891010E+02  0.00000000000E+00 0.  1.
         21    1    1    2  503  504  0.20169083595E+02  0.71525769000E+01 -0.37246652751E+02  0.42956541184E+02  0.00000000000E+00 0.  1.
         21    1    1    2  504  501 -0.20169083595E+02 -0.71525769000E+01  0.40861259670E+02  0.46125847756E+02  0.00000000000E+00 0.  1.
<mgrwt>
<rscale>  2 0.21399796E+02</rscale>
<asrwt>0</asrwt>
<pdfrwt beam="1">  1       21 0.71305382E-02 0.21399796E+02</pdfrwt>
<pdfrwt beam="2">  1       21 0.65744448E-02 0.21399796E+02</pdfrwt>
<totfact> 0.18406424E+07</totfact>
</mgrwt>
</event>
<event>
 4    1  0.4556894E+006  0.2075108E+02  0.7546771E-02  0.1730792E+00
         21   -1    0    0  504  501  0.00000000000E+00  0.00000000000E+00  0.14074686455E+03  0.14074686455E+03  0.00000000000E+00 0. -1.
         21   -1    0    0  503  502 -0.00000000000E+00 -0.00000000000E+00 -0.60223911504E+01  0.60223911504E+01  0.00000000000E+00 0. -1.
         21    1    1    2  503  501 -0.52515422528E+01  0.20075572671E+02  0.11883559260E+03  0.12063376552E+03  0.00000000000E+00 0. -1.
         21    1    1    2  504  502  0.52515422528E+01 -0.20075572671E+02  0.15888880800E+02  0.26135490185E+02  0.00000000000E+00 0. -1.
<mgrwt>
<rscale>  2 0.20751080E+02</rscale>
<asrwt>0</asrwt>
<pdfrwt beam="1">  1       21 0.21653361E-01 0.20751080E+02</pdfrwt>
<pdfrwt beam="2">  1       21 0.92652182E-03 0.20751080E+02</pdfrwt>
<totfact> 0.58510480E+07</totfact>
</mgrwt>
</event>
<event>
 4    1  0.4556894E+006  0.2048535E+02  0.7546771E-02  0.1735845E+00
         21   -1    0    0  502  501  0.00000000000E+00  0.00000000000E+00  0.16362373880E+02  0.16362373880E+02  0.00000000000E+00 0. -1.
         21   -1    0    0  503  502 -0.00000000000E+00 -0.00000000000E+00 -0.15076644232E+03  0.15076644232E+03  0.00000000000E+00 0. -1.
         21    1    1    2  503  504  0.98273789252E+01  0.17974204016E+02 -0.14332768491E+03  0.14478423481E+03  0.00000000000E+00 0. -1.
         21    1    1    2  504  501 -0.98273789252E+01 -0.17974204016E+02  0.89236164730E+01  0.22344581391E+02  0.00000000000E+00 0. -1.
<mgrwt>
<rscale>  2 0.20485346E+02</rscale>
<asrwt>0</asrwt>
<pdfrwt beam="1">  1       21 0.25172884E-02 0.20485346E+02</pdfrwt>
<pdfrwt beam="2">  1       21 0.23194836E-01 0.20485346E+02</pdfrwt>
<totfact> 0.11369395E+07</totfact>
</mgrwt>
</event>
<event>
 4    1  0.4556894E+006  0.2450173E+02  0.7546771E-02  0.1668264E+00
         21   -1    0    0  504  501  0.00000000000E+00  0.00000000000E+00  0.69552583172E+03  0.69552583172E+03  0.00000000000E+00 0.  1.
         21   -1    0    0  503  502 -0.00000000000E+00 -0.00000000000E+00 -0.25489524956E+01  0.25489524956E+01  0.00000000000E+00 0.  1.
         21    1    1    2  503  501 -0.18676980203E+02  0.15858914100E+02  0.62633810174E+02  0.67255698069E+02  0.00000000000E+00 0.  1.
         21    1    1    2  504  502  0.18676980203E+02 -0.15858914100E+02  0.63034306905E+03  0.63081908614E+03  0.00000000000E+00 0.  1.
<mgrwt>
<rscale>  2 0.24501729E+02</rscale>
<asrwt>0</asrwt>
<pdfrwt beam="1">  1       21 0.10700382E+00 0.24501729E+02</pdfrwt>
<pdfrwt beam="2">  1       21 0.39214709E-03 0.24501729E+02</pdfrwt>
<totfact> 0.96135320E+06</totfact>
</mgrwt>
</event>
<event>
 4    1  0.4556894E+006  0.2464273E+02  0.7546771E-02  0.1666187E+00
         21   -1    0    0  504  501  0.00000000000E+00  0.00000000000E+00  0.56844208146E+01  0.56844208146E+01  0.00000000000E+00 0. -1.
         21   -1    0    0  503  502 -0.00000000000E+00 -0.00000000000E+00 -0.87586477093E+03  0.87586477093E+03  0.00000000000E+00 0. -1.
         21    1    1    2  503  501  0.21552812453E+02 -0.11947408302E+02 -0.84811022356E+03  0.84846815826E+03  0.00000000000E+00 0. -1.
         21    1    1    2  504  502 -0.21552812453E+02  0.11947408302E+02 -0.22070126562E+02  0.33081033482E+02  0.00000000000E+00 0. -1.
<mgrwt>
<rscale>  2 0.24642733E+02</rscale>
<asrwt>0</asrwt>
<pdfrwt beam="1">  1       21 0.87452703E-03 0.24642733E+02</pdfrwt>
<pdfrwt beam="2">  1       21 0.13474831E+00 0.24642733E+02</pdfrwt>
<totfact> 0.17324397E+06</totfact>
</mgrwt>
</event>
<event>
 4    1  0.4556894E+006  0.2308404E+02  0.7546771E-02  0.1690152E+00
         21   -1    0    0  503  501  0.00000000000E+00  0.00000000000E+00  0.24718982463E+03  0.24718982463E+03  0.00000000000E+00 0. -1.
         21   -1    0    0  504  502 -0.00000000000E+00 -0.00000000000E+00 -0.21902956576E+01  0.21902956576E+01  0.00000000000E+00 0. -1.
         21    1    1    2  503  502 -0.23078107311E+02  0.52318654046E+00  0.10683414457E+03  0.10929962126E+03  0.00000000000E+00 0. -1.
         21    1    1    2  504  501  0.23078107311E+02 -0.52318654046E+00  0.13816538439E+03  0.14008049902E+03  0.00000000000E+00 0. -1.
<mgrwt>
<rscale>  2 0.23084037E+02</rscale>
<asrwt>0</asrwt>
<pdfrwt beam="1">  1       21 0.38029182E-01 0.23084037E+02</pdfrwt>
<pdfrwt beam="2">  1       21 0.33696876E-03 0.23084037E+02</pdfrwt>
<totfact> 0.96834773E+07</totfact>
</mgrwt>
</event>
<event>
 4    1  0.4556894E+006  0.2102691E+02  0.7546771E-02  0.1725646E+00
         21   -1    0    0  504  501  0.00000000000E+00  0.00000000000E+00  0.64579291400E+00  0.64579291400E+00  0.00000000000E+00 0. -1.
         21   -1    0    0  503  502 -0.00000000000E+00 -0.00000000000E+00 -0.71531808150E+03  0.71531808150E+03  0.00000000000E+00 0. -1.
         21    1    1    2  503  501  0.10657694532E+02  0.18125796104E+02 -0.43148037727E+03  0.43199241533E+03  0.00000000000E+00 0. -1.
         21    1    1    2  504  502 -0.10657694532E+02 -0.18125796104E+02 -0.28319191131E+03  0.28397145908E+03  0.00000000000E+00 0. -1.
<mgrwt>
<rscale>  2 0.21026910E+02</rscale>
<asrwt>0</asrwt>
<pdfrwt beam="1">  1       21 0.99353115E-04 0.21026910E+02</pdfrwt>
<pdfrwt beam="2">  1       21 0.11004854E+00 0.21026910E+02</pdfrwt>
<totfact> 0.63607532E+07</totfact>
</mgrwt>
</event>
<event>
 4    1  0.4556894E+006  0.2661791E+02  0.7546771E-02  0.1638795E+00
         21   -1    0    0  502  501  0.00000000000E+00  0.00000000000E+00  0.89565610904E+03  0.89565610904E+03  0.00000000000E+00 0. -1.
         21   -1    0    0  504  502 -0.00000000000E+00 -0.00000000000E+00 -0.69135023876E+02  0.69135023876E+02  0.00000000000E+00 0. -1.
         21    1    1    2  503  501  0.21071696414E+02  0.16263358002E+02  0.89288834200E+03  0.89328500742E+03  0.00000000000E+00 0. -1.
         21    1    1    2  504  503 -0.21071696414E+02 -0.16263358002E+02 -0.66367256837E+02  0.71506125495E+02  0.00000000000E+00 0. -1.
<mgrwt>
<rscale>  2 0.26617911E+02</rscale>
<asrwt>0</asrwt>
<pdfrwt beam="1">  1       21 0.13779324E+00 0.26617911E+02</pdfrwt>
<pdfrwt beam="2">  1       21 0.10636158E-01 0.26617911E+02</pdfrwt>
<totfact> 0.32469037E+04</totfact>
</mgrwt>
</event>
<event>
 4    1  0.4556894E+006  0.5459168E+02  0.7546771E-02  0.1422040E+00
         21   -1    0    0  502  501  0.00000000000E+00  0.00000000000E+00  0.14243495496E+02  0.14243495496E+02  0.00000000000E+00 0. -1.
         21   -1    0    0  504  502 -0.00000000000E+00 -0.00000000000E+00 -0.50171591248E+03  0.50171591248E+03  0.00000000000E+00 0. -1.
         21    1    1    2  503  501 -0.41663374202E+02  0.35276264871E+02 -0.46764139912E+02  0.71882796237E+02  0.00000000000E+00 0. -1.
         21    1    1    2  504  503  0.41663374202E+02 -0.35276264871E+02 -0.44070827707E+03  0.44407661174E+03  0.00000000000E+00 0. -1.
<mgrwt>
<rscale>  2 0.54591681E+02</rscale>
<asrwt>0</asrwt>
<pdfrwt beam="1">  1       21 0.21913069E-02 0.54591681E+02</pdfrwt>
<pdfrwt beam="2">  1       21 0.77187066E-01 0.54591681E+02</pdfrwt>
<totfact> 0.15442790E+06</totfact>
</mgrwt>
</event>
<event>
 4    1  0.4556894E+006  0.2733832E+02  0.7546771E-02  0.1629522E+00
         21   -1    0    0  504  501  0.00000000000E+00  0.00000000000E+00  0.49235698715E+01  0.49235698715E+01  0.00000000000E+00 0.  1.
         21   -1    0    0  503  502 -0.00000000000E+00 -0.00000000000E+00 -0.18761444671E+04  0.18761444671E+04  0.00000000000E+00 0.  1.
         21    1    1    2  503  501  0.76562574161E+01  0.26244344375E+02 -0.33927738098E+02  0.43571496437E+02  0.00000000000E+00 0.  1.
         21    1    1    2  504  502 -0.76562574161E+01 -0.26244344375E+02 -0.18372931592E+04  0.18374965406E+04  0.00000000000E+00 0.  1.
<mgrwt>
<rscale>  2 0.27338323E+02</rscale>
<asrwt>0</asrwt>
<pdfrwt beam="1">  1       21 0.75747100E-03 0.27338323E+02</pdfrwt>
<pdfrwt beam="2">  1       21 0.28863810E+00 0.27338323E+02</pdfrwt>
<totfact> 0.28575429E+05</totfact>
</mgrwt>
</event>
<event>
 4    1  0.4556894E+006  0.2317442E+02  0.7546771E-02  0.1688698E+00
         21   -1    0    0  503  501  0.00000000000E+00  0.00000000000E+00  0.67613021051E+02  0.67613021051E+02  0.00000000000E+00 0. -1.
         21   -1    0    0  501  502 -0.00000000000E+00 -0.00000000000E+00 -0.26629950652E+02  0.26629950652E+02  0.00000000000E+00 0. -1.
         21    1    1    2  503  504  0.61874842226E+01 -0.22333128709E+02  0.59964744302E+02  0.64287045026E+02  0.00000000000E+00 0. -1.
         21    1    1    2  504  502 -0.61874842226E+01  0.22333128709E+02 -0.18981673903E+02  0.29955926677E+02  0.00000000000E+00 0. -1.
<mgrwt>
<rscale>  2 0.23174417E+02</rscale>
<asrwt>0</asrwt>
<pdfrwt beam="1">  1       21 0.10402003E-01 0.23174417E+02</pdfrwt>
<pdfrwt beam="2">  1       21 0.40969155E-02 0.23174417E+02</pdfrwt>
<totfact> 0.21454147E+07</totfact>
</mgrwt>
</event>
<event>
 4    1  0.4556894E+006  0.5156183E+02  0.7546771E-02  0.1437095E+00
         21   -1    0    0  503  501  0.00000000000E+00  0.00000000000E+00  0.93429314737E+03  0.93429314737E+03  0.00000000000E+00 0. -1.
         21   -1    0    0  504  502 -0.00000000000E+00 -0.00000000000E+00 -0.41390013877E+01  0.41390013877E+01  0.00000000000E+00 0. -1.
         21    1    1    2  503  502 -0.40405418365E+02  0.32031615591E+02  0.72737338195E+03  0.72919864166E+03  0.00000000000E+00 0. -1.
         21    1    1    2  504  501  0.40405418365E+02 -0.32031615591E+02  0.20278076403E+03  0.20923350710E+03  0.00000000000E+00 0. -1.
<mgrwt>
<rscale>  2 0.51561829E+02</rscale>
<asrwt>0</asrwt>
<pdfrwt beam="1">  1       21 0.14373724E+00 0.51561829E+02</pdfrwt>
<pdfrwt beam="2">  1       21 0.63677019E-03 0.51561829E+02</pdfrwt>
<totfact> 0.25110802E+06</totfact>
</mgrwt>
</event>
<event>
 4    1  0.4556894E+006  0.2260823E+02  0.7546771E-02  0.1697940E+00
         21   -1    0    0  503  501  0.00000000000E+00  0.00000000000E+00  0.12191512251E+03  0.12191512251E+03  0.00000000000E+00 0. -1.
         21   -1    0    0  504  502 -0.00000000000E+00 -0.00000000000E+00 -0.45774652938E+01  0.45774652938E+01  0.00000000000E+00 0. -1.
         21    1    1    2  503  502 -0.19369516674E+02 -0.11659924692E+02  0.40327952946E+02  0.46232843400E+02  0.00000000000E+00 0. -1.
         21    1    1    2  504  501  0.19369516674E+02  0.11659924692E+02  0.77009704271E+02  0.80259744405E+02  0.00000000000E+00 0. -1.
<mgrwt>
<rscale>  2 0.22608229E+02</rscale>
<asrwt>0</asrwt>
<pdfrwt beam="1">  1       21 0.18756170E-01 0.22608229E+02</pdfrwt>
<pdfrwt beam="2">  1       21 0.70422552E-03 0.22608229E+02</pdfrwt>
<totfact> 0.11576740E+08</totfact>
</mgrwt>
</event>
<event>
 4    1  0.4556894E+006  0.2599024E+02  0.7546771E-02  0.1647173E+00
         21   -1    0    0  502  501  0.00000000000E+00  0.00000000000E+00  0.20199165112E+04  0.20199165112E+04  0.00000000000E+00 0. -1.
         21   -1    0    0  503  502 -0.00000000000E+00 -0.00000000000E+00 -0.16598981793E+01  0.16598981793E+01  0.00000000000E+00 0. -1.
         21    1    1    2  503  504 -0.23585395199E+02  0.10918862080E+02  0.10588160074E+03  0.10902479439E+03  0.00000000000E+00 0. -1.
         21    1    1    2  504  501  0.23585395199E+02 -0.10918862080E+02  0.19123750123E+04  0.19125516150E+04  0.00000000000E+00 0. -1.
<mgrwt>
<rscale>  2 0.25990237E+02</rscale>
<asrwt>0</asrwt>
<pdfrwt beam="1">  1       21 0.31075442E+00 0.25990237E+02</pdfrwt>
<pdfrwt beam="2">  1       21 0.25537057E-03 0.25990237E+02</pdfrwt>
<totfact> 0.11135972E+06</totfact>
</mgrwt>
</event>
<event>
 4    1  0.4556894E+006  0.3512136E+02  0.7546771E-02  0.1547526E+00
         21   -1    0    0  502  501  0.00000000000E+00  0.00000000000E+00  0.48363434143E+01  0.48363434143E+01  0.00000000000E+00 0. -1.
         21   -1    0    0  504  502 -0.00000000000E+00 -0.00000000000E+00 -0.25906093225E+03  0.25906093225E+03  0.00000000000E+00 0.  1.
         21    1    1    2  503  501 -0.18204520272E+02 -0.30035066311E+02 -0.11069421426E+03  0.11613233329E+03  0.00000000000E+00 0. -1.
         21    1    1    2  504  503  0.18204520272E+02  0.30035066311E+02 -0.14353037458E+03  0.14776494237E+03  0.00000000000E+00 0.  1.
<mgrwt>
<rscale>  2 0.35121358E+02</rscale>
<asrwt>0</asrwt>
<pdfrwt beam="1">  1       21 0.74405264E-03 0.35121358E+02</pdfrwt>
<pdfrwt beam="2">  1       21 0.39855538E-01 0.35121358E+02</pdfrwt>
<totfact> 0.29905872E+07</totfact>
</mgrwt>
</event>
<event>
 4    1  0.4556894E+006  0.2592660E+02  0.7546771E-02  0.1648039E+00
         21   -1    0    0  504  501  0.00000000000E+00  0.00000000000E+00  0.67065080984E+02  0.67065080984E+02  0.00000000000E+00 0.  1.
         21   -1    0    0  503  502 -0.00000000000E+00 -0.00000000000E+00 -0.76313829963E+02  0.76313829963E+02  0.00000000000E+00 0. -1.
         21    1    1    2  503  501  0.18475121066E+02  0.18189520945E+02  0.62191646089E+02  0.67379445040E+02  0.00000000000E+00 0.  1.
         21    1    1    2  504  502 -0.18475121066E+02 -0.18189520945E+02 -0.71440395069E+02  0.75999465907E+02  0.00000000000E+00 0. -1.
<mgrwt>
<rscale>  2 0.25926604E+02</rscale>
<asrwt>0</asrwt>
<pdfrwt beam="1">  1       21 0.10317705E-01 0.25926604E+02</pdfrwt>
<pdfrwt beam="2">  1       21 0.11740589E-01 0.25926604E+02</pdfrwt>
<totfact> 0.40115235E+06</totfact>
</mgrwt>
</event>
<event>
 4    1  0.4556894E+006  0.2869831E+02  0.7546771E-02  0.1612939E+00
         21   -1    0    0  504  501  0.00000000000E+00  0.00000000000E+00  0.19955292349E+03  0.19955292349E+03  0.00000000000E+00 0.  1.
         21   -1    0    0  503  502 -0.00000000000E+00 -0.00000000000E+00 -0.41610687127E+01  0.41610687127E+01  0.00000000000E+00 0.  1.
         21    1    1    2  503  501  0.16934819705E+02 -0.23169048215E+02  0.88505214627E+02  0.93041742943E+02  0.00000000000E+00 0.  1.
         21    1    1    2  504  502 -0.16934819705E+02  0.23169048215E+02  0.10688664015E+03  0.11067224926E+03  0.00000000000E+00 0.  1.
<mgrwt>
<rscale>  2 0.28698309E+02</rscale>
<asrwt>0</asrwt>
<pdfrwt beam="1">  1       21 0.30700442E-01 0.28698309E+02</pdfrwt>
<pdfrwt beam="2">  1       21 0.64016457E-03 0.28698309E+02</pdfrwt>
<totfact> 0.58811240E+07</totfact>
</mgrwt>
</event>
<event>
 4    1  0.4556894E+006  0.4691954E+02  0.7546771E-02  0.1462702E+00
         21   -1    0    0  503  501  0.00000000000E+00  0.00000000000E+00  0.65140638206E+03  0.65140638206E+03  0.00000000000E+00 0. -1.
         21   -1    0    0  504  502 -0.00000000000E+00 -0.00000000000E+00 -0.78854522908E+01  0.78854522908E+01  0.00000000000E+00 0.  1.
         21    1    1    2  503  502  0.49806451875E+01 -0.46654432956E+02  0.72572779342E+02  0.86419044443E+02  0.00000000000E+00 0.  1.
         21    1    1    2  504  501 -0.49806451875E+01  0.46654432956E+02  0.57094815043E+03  0.57287278991E+03  0.00000000000E+00 0. -1.
<mgrwt>
<rscale>  2 0.46919537E+02</rscale>
<asrwt>0</asrwt>
<pdfrwt beam="1">  1       21 0.10021632E+00 0.46919537E+02</pdfrwt>
<pdfrwt beam="2">  1       21 0.12131470E-02 0.46919537E+02</pdfrwt>
<totfact> 0.21723068E+06</totfact>
</mgrwt>
</event>
<event>
 4    1  0.4556894E+006  0.2106454E+02  0.7546771E-02  0.1724951E+00
         21   -1    0    0  503  501  0.00000000000E+00  0.00000000000E+00  0.24213707894E+02  0.24213707894E+02  0.00000000000E+00 0. -1.
         21   -1    0    0  504  502 -0.00000000000E+00 -0.00000000000E+00 -0.27593580495E+02  0.27593580495E+02  0.00000000000E+00 0. -1.
         21    1    1    2  503  502 -0.43282802236E+01 -0.20615067200E+02 -0.16702836706E+02  0.26883075705E+02  0.00000000000E+00 0. -1.
         21    1    1    2  504  501  0.43282802236E+01  0.20615067200E+02  0.13322964105E+02  0.24924212683E+02  0.00000000000E+00 0. -1.
<mgrwt>
<rscale>  2 0.21064544E+02</rscale>
<asrwt>0</asrwt>
<pdfrwt beam="1">  1       21 0.37251858E-02 0.21064544E+02</pdfrwt>
<pdfrwt beam="2">  1       21 0.42451662E-02 0.21064544E+02</pdfrwt>
<totfact> 0.10321144E+08</totfact>
</mgrwt>
</event>
<event>
 4    1  0.4556894E+006  0.2085442E+02  0.7546771E-02  0.1728852E+00
         21   -1    0    0  502  501  0.00000000000E+00  0.00000000000E+00  0.22130340907E+02  0.22130340907E+02  0.00000000000E+00 0. -1.
         21   -1    0    0  503  502 -0.00000000000E+00 -0.00000000000E+00 -0.31494963194E+02  0.31494963194E+02  0.00000000000E+00 0. -1.
         21    1    1    2  503  504  0.16547070191E+02 -0.12692561805E+02 -0.21124075415E+02  0.29683888209E+02  0.00000000000E+00 0. -1.
         21    1    1    2  504  501 -0.16547070191E+02  0.12692561805E+02  0.11759453128E+02  0.23941415893E+02  0.00000000000E+00 0. -1.
<mgrwt>
<rscale>  2 0.20854416E+02</rscale>
<asrwt>0</asrwt>
<pdfrwt beam="1">  1       21 0.34046678E-02 0.20854416E+02</pdfrwt>
<pdfrwt beam="2">  1       21 0.48453790E-02 0.20854416E+02</pdfrwt>
<totfact> 0.96119446E+07</totfact>
</mgrwt>
</event>
<event>
 4    1  0.4556894E+006  0.2732778E+02  0.7546771E-02  0.1629655E+00
         21   -1    0    0  502  501  0.00000000000E+00  0.00000000000E+00  0.20779221014E+03  0.20779221014E+03  0.00000000000E+00 0. -1.
         21   -1    0    0  503  502 -0.00000000000E+00 -0.00000000000E+00 -0.25428620290E+02  0.25428620290E+02  0.00000000000E+00 0.  1.
         21    1    1    2  503  504 -0.24449324432E+02  0.12208116083E+02 -0.16874146715E+02  0.32117664779E+02  0.00000000000E+00 0.  1.
         21    1    1    2  504  501  0.24449324432E+02 -0.12208116083E+02  0.19923773657E+03  0.20110316566E+03  0.00000000000E+00 0. -1.
<mgrwt>
<rscale>  2 0.27327780E+02</rscale>
<asrwt>0</asrwt>
<pdfrwt beam="1">  1       21 0.31968031E-01 0.27327780E+02</pdfrwt>
<pdfrwt beam="2">  1       21 0.39120956E-02 0.27327780E+02</pdfrwt>
<totfact> 0.33593432E+06</totfact>
</mgrwt>
</event>
<event>
 4    1  0.4556894E+006  0.3393966E+02  0.7546771E-02  0.1558223E+00
         21   -1    0    0  503  501  0.00000000000E+00  0.00000000000E+00  0.14803952750E+02  0.14803952750E+02  0.00000000000E+00 0. -1.
         21   -1    0    0  504  502 -0.00000000000E+00 -0.00000000000E+00 -0.14832513499E+03  0.14832513499E+03  0.00000000000E+00 0. -1.
         21    1    1    2  503  502  0.32405433856E+02  0.10089029888E+02 -0.12299914502E+03  0.12759580848E+03  0.00000000000E+00 0. -1.
         21    1    1    2  504  501 -0.32405433856E+02 -0.10089029888E+02 -0.10522037224E+02  0.35533279258E+02  0.00000000000E+00 0. -1.
<mgrwt>
<rscale>  2 0.33939662E+02</rscale>
<asrwt>0</asrwt>
<pdfrwt beam="1">  1       21 0.22775313E-02 0.33939662E+02</pdfrwt>
<pdfrwt beam="2">  1       21 0.22819250E-01 0.33939662E+02</pdfrwt>
<totfact> 0.14991655E+07</totfact>
</mgrwt>
</event>
<event>
 4    1  0.4556894E+006  0.2515006E+02  0.7546771E-02  0.1658856E+00
         21   -1    0    0  502  501  0.00000000000E+00  0.00000000000E+00  0.78176819438E+03  0.78176819438E+03  0.00000000000E+00 0. -1.
         21   -1    0    0  503  502 -0.00000000000E+00 -0.00000000000E+00 -0.70696370107E+01  0.70696370107E+01  0.00000000000E+00 0.  1.
         21    1    1    2  503  504  0.30301279364E+01  0.24966858564E+02  0.16185915475E+02  0.29908352707E+02  0.00000000000E+00 0.  1.
         21    1    1    2  504  501 -0.30301279364E+01 -0.24966858564E+02  0.75851264189E+03  0.75892947868E+03  0.00000000000E+00 0. -1.
<mgrwt>
<rscale>  2 0.25150064E+02</rscale>
<asrwt>0</asrwt>
<pdfrwt beam="1">  1       21 0.12027196E+00 0.25150064E+02</pdfrwt>
<pdfrwt beam="2">  1       21 0.10876371E-02 0.25150064E+02</pdfrwt>
<totfact> 0.16236061E+06</totfact>
</mgrwt>
</event>
<event>
 4    1  0.4556894E+006  0.2391029E+02  0.7546771E-02  0.1677166E+00
         21   -1    0    0  503  501  0.00000000000E+00  0.00000000000E+00  0.35775421903E+03  0.35775421903E+03  0.00000000000E+00 0. -1.
         21   -1    0    0  504  502 -0.00000000000E+00 -0.00000000000E+00 -0.22482444647E+02  0.22482444647E+02  0.00000000000E+00 0.  1.
         21    1    1    2  503  502 -0.22436165636E+02 -0.82656117437E+01  0.35087297689E+03  0.35168671823E+03  0.00000000000E+00 0. -1.
         21    1    1    2  504  501  0.22436165636E+02  0.82656117437E+01 -0.15601202502E+02  0.28549945454E+02  0.00000000000E+00 0.  1.
<mgrwt>
<rscale>  2 0.23910288E+02</rscale>
<asrwt>0</asrwt>
<pdfrwt beam="1">  1       21 0.55039107E-01 0.23910288E+02</pdfrwt>
<pdfrwt beam="2">  1       21 0.34588379E-02 0.23910288E+02</pdfrwt>
<totfact> 0.14259905E+06</totfact>
</mgrwt>
</event>
<event>
 4    1  0.4556894E+006  0.2268645E+02  0.7546771E-02  0.1696644E+00
         21   -1    0    0  502  501  0.00000000000E+00  0.00000000000E+00  0.33173414595E+02  0.33173414595E+02  0.00000000000E+00 0.  1.
         21   -1    0    0  503  502 -0.00000000000E+00 -0.00000000000E+00 -0.68140218997E+02  0.68140218997E+02  0.00000000000E+00 0. -1.
         21    1    1    2  503  504 -0.22662071645E+02 -0.10515445602E+01 -0.62001271631E+02  0.66021458035E+02  0.00000000000E+00 0. -1.
         21    1    1    2  504  501  0.22662071645E+02  0.10515445602E+01  0.27034467229E+02  0.35292175557E+02  0.00000000000E+00 0.  1.
<mgrwt>
<rscale>  2 0.22686455E+02</rscale>
<asrwt>0</asrwt>
<pdfrwt beam="1">  1       21 0.51036023E-02 0.22686455E+02</pdfrwt>
<pdfrwt beam="2">  1       21 0.10483111E-01 0.22686455E+02</pdfrwt>
<totfact> 0.14880930E+07</totfact>
</mgrwt>
</event>
<event>
 4    1  0.4556894E+006  0.2597288E+02  0.7546771E-02  0.1647409E+00
         21   -1    0    0  504  501  0.00000000000E+00  0.00000000000E+00  0.66449218779E+02  0.66449218779E+02  0.00000000000E+00 0.  1.
         21   -1    0    0  503  502 -0.00000000000E+00 -0.00000000000E+00 -0.12611620148E+02  0.12611620148E+02  0.00000000000E+00 0.  1.
         21    1    1    2  503  501 -0.20953661619E+02  0.15347136404E+02  0.44376320499E+02  0.51418365902E+02  0.00000000000E+00 0.  1.
         21    1    1    2  504  502  0.20953661619E+02 -0.15347136404E+02  0.94612781313E+01  0.27642473025E+02  0.00000000000E+00 0.  1.
<mgrwt>
<rscale>  2 0.25972881E+02</rscale>
<asrwt>0</asrwt>
<pdfrwt beam="1">  1       21 0.10222957E-01 0.25972881E+02</pdfrwt>
<pdfrwt beam="2">  1       21 0.19402493E-02 0.25972881E+02</pdfrwt>
<totfact> 0.72688107E+07</totfact>
</mgrwt>
</event>
<event>
 4    1  0.4556894E+006  0.2384714E+02  0.7546771E-02  0.1678135E+00
         21   -1    0    0  503  501  0.00000000000E+00  0.00000000000E+00  0.38437170352E+03  0.38437170352E+03  0.00000000000E+00 0.  1.
         21   -1    0    0  504  502 -0.00000000000E+00 -0.00000000000E+00 -0.17323131065E+01  0.17323131065E+01  0.00000000000E+00 0.  1.
         21    1    1    2  503  502 -0.23208704792E+02  0.54810563110E+01  0.11757292647E+03  0.11996699127E+03  0.00000000000E+00 0.  1.
         21    1    1    2  504  501  0.23208704792E+02 -0.54810563110E+01  0.26506646394E+03  0.26613702535E+03  0.00000000000E+00 0.  1.
<mgrwt>
<rscale>  2 0.23847137E+02</rscale>
<asrwt>0</asrwt>
<pdfrwt beam="1">  1       21 0.59134040E-01 0.23847137E+02</pdfrwt>
<pdfrwt beam="2">  1       21 0.26651001E-03 0.23847137E+02</pdfrwt>
<totfact> 0.58572060E+07</totfact>
</mgrwt>
</event>
<event>
 4    1  0.4556894E+006  0.2100924E+02  0.7546771E-02  0.1725972E+00
         21   -1    0    0  504  501  0.00000000000E+00  0.00000000000E+00  0.20084868261E+02  0.20084868261E+02  0.00000000000E+00 0.  1.
         21   -1    0    0  503  502 -0.00000000000E+00 -0.00000000000E+00 -0.22074425956E+02  0.22074425956E+02  0.00000000000E+00 0.  1.
         21    1    1    2  503  501 -0.11117166231E+02 -0.17826855815E+02 -0.24012529682E+01  0.21146020644E+02  0.00000000000E+00 0.  1.
         21    1    1    2  504  502  0.11117166231E+02  0.17826855815E+02  0.41169527354E+00  0.21013273573E+02  0.00000000000E+00 0.  1.
<mgrwt>
<rscale>  2 0.21009240E+02</rscale>
<asrwt>0</asrwt>
<pdfrwt beam="1">  1       21 0.30899797E-02 0.21009240E+02</pdfrwt>
<pdfrwt beam="2">  1       21 0.33960655E-02 0.21009240E+02</pdfrwt>
<totfact> 0.19581277E+08</totfact>
</mgrwt>
</event>
<event>
 4    1  0.4556894E+006  0.2442331E+02  0.7546771E-02  0.1669426E+00
         21   -1    0    0  502  501  0.00000000000E+00  0.00000000000E+00  0.43074756760E+03  0.43074756760E+03  0.00000000000E+00 0. -1.
         21   -1    0    0  504  502 -0.00000000000E+00 -0.00000000000E+00 -0.30931893343E+03  0.30931893343E+03  0.00000000000E+00 0. -1.
         21    1    1    2  503  501  0.30270874210E+01  0.24234993189E+02  0.42991833300E+03  0.43061150845E+03  0.00000000000E+00 0. -1.
         21    1    1    2  504  503 -0.30270874210E+01 -0.24234993189E+02 -0.30848969883E+03  0.30945499259E+03  0.00000000000E+00 0. -1.
<mgrwt>
<rscale>  2 0.24423312E+02</rscale>
<asrwt>0</asrwt>
<pdfrwt beam="1">  1       21 0.66268856E-01 0.24423312E+02</pdfrwt>
<pdfrwt beam="2">  1       21 0.47587528E-01 0.24423312E+02</pdfrwt>
<totfact> 0.11182285E+04</totfact>
</mgrwt>
</event>
<event>
 4    1  0.4556894E+006  0.2155704E+02  0.7546771E-02  0.1716027E+00
         21   -1    0    0  504  501  0.00000000000E+00  0.00000000000E+00  0.44329987538E+01  0.44329987538E+01  0.00000000000E+00 0. -1.
         21   -1    0    0  501  502 -0.00000000000E+00 -0.00000000000E+00 -0.29783416062E+03  0.29783416062E+03  0.00000000000E+00 0.  1.
         21    1    1    2  503  502 -0.12928855343E+02 -0.17249654133E+02 -0.26836355221E+03  0.26922797407E+03  0.00000000000E+00 0.  1.
         21    1    1    2  504  503  0.12928855343E+02  0.17249654133E+02 -0.25037609661E+02  0.33039185307E+02  0.00000000000E+00 0. -1.
<mgrwt>
<rscale>  2 0.21557038E+02</rscale>
<asrwt>0</asrwt>
<pdfrwt beam="1">  1       21 0.68199972E-03 0.21557038E+02</pdfrwt>
<pdfrwt beam="2">  1       21 0.45820646E-01 0.21557038E+02</pdfrwt>
<totfact> 0.23712308E+07</totfact>
</mgrwt>
</event>
<event>
 4    1  0.4556894E+006  0.2799036E+02  0.7546771E-02  0.1621428E+00
         21   -1    0    0  502  501  0.00000000000E+00  0.00000000000E+00  0.14135401217E+03  0.14135401217E+03  0.00000000000E+00 0. -1.
         21   -1    0    0  503  502 -0.00000000000E+00 -0.00000000000E+00 -0.86862008157E+01  0.86862008157E+01  0.00000000000E+00 0. -1.
         21    1    1    2  503  504  0.26822128909E+02  0.80021002874E+01  0.21202317874E+02  0.35114078252E+02  0.00000000000E+00 0. -1.
         21    1    1    2  504  501 -0.26822128909E+02 -0.80021002874E+01  0.11146549348E+03  0.11492613474E+03  0.00000000000E+00 0. -1.
<mgrwt>
<rscale>  2 0.27990359E+02</rscale>
<asrwt>0</asrwt>
<pdfrwt beam="1">  1       21 0.21746769E-01 0.27990359E+02</pdfrwt>
<pdfrwt beam="2">  1       21 0.13363387E-02 0.27990359E+02</pdfrwt>
<totfact> 0.35888639E+07</totfact>
</mgrwt>
</event>
<event>
 4    1  0.4556894E+006  0.2408301E+02  0.7546771E-02  0.1674533E+00
         21   -1    0    0  504  501  0.00000000000E+00  0.00000000000E+00  0.16855510724E+03  0.16855510724E+03  0.00000000000E+00 0. -1.
         21   -1    0    0  503  502 -0.00000000000E+00 -0.00000000000E+00 -0.12309180409E+02  0.12309180409E+02  0.00000000000E+00 0. -1.
         21    1    1    2  503  501 -0.19986603517E+02 -0.13436041495E+02  0.15488146277E+03  0.15674265227E+03  0.00000000000E+00 0. -1.
         21    1    1    2  504  502  0.19986603517E+02  0.13436041495E+02  0.13644640636E+01  0.24121635380E+02  0.00000000000E+00 0. -1.
<mgrwt>
<rscale>  2 0.24083013E+02</rscale>
<asrwt>0</asrwt>
<pdfrwt beam="1">  1       21 0.25931553E-01 0.24083013E+02</pdfrwt>
<pdfrwt beam="2">  1       21 0.18937202E-02 0.24083013E+02</pdfrwt>
<totfact> 0.14923180E+07</totfact>
</mgrwt>
</event>
<event>
 4    1  0.4556894E+006  0.2943501E+02  0.7546771E-02  0.1604419E+00
         21   -1    0    0  503  501  0.00000000000E+00  0.00000000000E+00  0.80091388623E+01  0.80091388623E+01  0.00000000000E+00 0.  1.
         21   -1    0    0  501  502 -0.00000000000E+00 -0.00000000000E+00 -0.50827982009E+03  0.50827982009E+03  0.00000000000E+00 0. -1.
         21    1    1    2  503  504 -0.24012101450E+02 -0.17024645667E+02 -0.21103322149E+02  0.36218362495E+02  0.00000000000E+00 0.  1.
         21    1    1    2  504  502  0.24012101450E+02  0.17024645667E+02 -0.47916735908E+03  0.48007059646E+03  0.00000000000E+00 0. -1.
<mgrwt>
<rscale>  2 0.29435006E+02</rscale>
<asrwt>0</asrwt>
<pdfrwt beam="1">  1       21 0.12321754E-02 0.29435006E+02</pdfrwt>
<pdfrwt beam="2">  1       21 0.78196882E-01 0.29435006E+02</pdfrwt>
<totfact> 0.35062332E+06</totfact>
</mgrwt>
</event>
<event>
 4    1  0.4556894E+006  0.2691065E+02  0.7546771E-02  0.1634984E+00
         21   -1    0    0  504  501  0.00000000000E+00  0.00000000000E+00  0.63353188602E+02  0.63353188602E+02  0.00000000000E+00 0. -1.
         21   -1    0    0  503  502 -0.00000000000E+00 -0.00000000000E+00 -0.20299158296E+02  0.20299158296E+02  0.00000000000E+00 0.  1.
         21    1    1    2  503  501 -0.26799459169E+02 -0.24437533024E+01  0.49172784527E+02  0.56054845287E+02  0.00000000000E+00 0. -1.
         21    1    1    2  504  502  0.26799459169E+02  0.24437533024E+01 -0.61187542205E+01  0.27597501611E+02  0.00000000000E+00 0.  1.
<mgrwt>
<rscale>  2 0.26910647E+02</rscale>
<asrwt>0</asrwt>
<pdfrwt beam="1">  1       21 0.97466443E-02 0.26910647E+02</pdfrwt>
<pdfrwt beam="2">  1       21 0.31229475E-02 0.26910647E+02</pdfrwt>
<totfact> 0.37878938E+07</totfact>
</mgrwt>
</event>
<event>
 4    1  0.4556894E+006  0.2788187E+02  0.7546771E-02  0.1622756E+00
         21   -1    0    0  502  501  0.00000000000E+00  0.00000000000E+00  0.22237481641E+03  0.22237481641E+03  0.00000000000E+00 0.  1.
         21   -1    0    0  503  502 -0.00000000000E+00 -0.00000000000E+00 -0.90543612485E+01  0.90543612485E+01  0.00000000000E+00 0.  1.
         21    1    1    2  503  504 -0.27544266000E+02  0.43257273622E+01  0.15995829579E+02  0.32144440742E+02  0.00000000000E+00 0.  1.
         21    1    1    2  504  501  0.27544266000E+02 -0.43257273622E+01  0.19732462559E+03  0.19928473692E+03  0.00000000000E+00 0.  1.
<mgrwt>
<rscale>  2 0.27881867E+02</rscale>
<asrwt>0</asrwt>
<pdfrwt beam="1">  1       21 0.34211506E-01 0.27881867E+02</pdfrwt>
<pdfrwt beam="2">  1       21 0.13929788E-02 0.27881867E+02</pdfrwt>
<totfact> 0.14786769E+07</totfact>
</mgrwt>
</event>
<event>
 4    1  0.4556894E+006  0.2401541E+02  0.7546771E-02  0.1675560E+00
         21   -1    0    0  504  501  0.00000000000E+00  0.00000000000E+00  0.38880114865E+03  0.38880114865E+03  0.00000000000E+00 0. -1.
         21   -1    0    0  503  502 -0.00000000000E+00 -0.00000000000E+00 -0.27959248114E+03  0.27959248114E+03  0.00000000000E+00 0. -1.
         21    1    1    2  503  501 -0.99450811645E+01  0.21859445287E+02 -0.27870476006E+03  0.27973752567E+03  0.00000000000E+00 0. -1.
         21    1    1    2  504  502  0.99450811645E+01 -0.21859445287E+02  0.38791342756E+03  0.38865610412E+03  0.00000000000E+00 0. -1.
<mgrwt>
<rscale>  2 0.24015411E+02</rscale>
<asrwt>0</asrwt>
<pdfrwt beam="1">  1       21 0.59815562E-01 0.24015411E+02</pdfrwt>
<pdfrwt beam="2">  1       21 0.43014228E-01 0.24015411E+02</pdfrwt>
<totfact> 0.16723289E+04</totfact>
</mgrwt>
</event>
<event>
 4    1  0.4556894E+006  0.2456758E+02  0.7546771E-02  0.1667292E+00
         21   -1    0    0  504  501  0.00000000000E+00  0.00000000000E+00  0.15025943286E+03  0.15025943286E+03  0.00000000000E+00 0. -1.
         21   -1    0    0  501  502 -0.00000000000E+00 -0.00000000000E+00 -0.13245631162E+02  0.13245631162E+02  0.00000000000E+00 0. -1.
         21    1    1    2  503  502 -0.24136684792E+02  0.45811157145E+01  0.26712454821E+00  0.24569035989E+02  0.00000000000E+00 0. -1.
         21    1    1    2  504  503  0.24136684792E+02 -0.45811157145E+01  0.13674667715E+03  0.13893602803E+03  0.00000000000E+00 0. -1.
<mgrwt>
<rscale>  2 0.24567584E+02</rscale>
<asrwt>0</asrwt>
<pdfrwt beam="1">  1       21 0.23116835E-01 0.24567584E+02</pdfrwt>
<pdfrwt beam="2">  1       21 0.20377895E-02 0.24567584E+02</pdfrwt>
<totfact> 0.16430931E+07</totfact>
</mgrwt>
</event>
<event>
 4    1  0.4556894E+006  0.2207671E+02  0.7546771E-02  0.1706929E+00
         21   -1    0    0  504  501  0.00000000000E+00  0.00000000000E+00  0.50253761046E+01  0.50253761046E+01  0.00000000000E+00 0.  1.
         21   -1    0    0  503  502 -0.00000000000E+00 -0.00000000000E+00 -0.13479417719E+03  0.13479417719E+03  0.00000000000E+00 0.  1.
         21    1    1    2  503  501  0.21964419464E+02 -0.22238237924E+01 -0.27858412133E+02  0.35545354706E+02  0.00000000000E+00 0.  1.
         21    1    1    2  504  502 -0.21964419464E+02  0.22238237924E+01 -0.10191038895E+03  0.10427419858E+03  0.00000000000E+00 0.  1.
<mgrwt>
<rscale>  2 0.22076710E+02</rscale>
<asrwt>0</asrwt>
<pdfrwt beam="1">  1       21 0.77313483E-03 0.22076710E+02</pdfrwt>
<pdfrwt beam="2">  1       21 0.20737565E-01 0.22076710E+02</pdfrwt>
<totfact> 0.84036387E+07</totfact>
</mgrwt>
</event>
<event>
 4    1  0.4556894E+006  0.2301442E+02  0.7546771E-02  0.1691276E+00
         21   -1    0    0  502  501  0.00000000000E+00  0.00000000000E+00  0.46048061258E+03  0.46048061258E+03  0.00000000000E+00 0. -1.
         21   -1    0    0  504  502 -0.00000000000E+00 -0.00000000000E+00 -0.61847249043E+01  0.61847249043E+01  0.00000000000E+00 0. -1.
         21    1    1    2  503  501 -0.22743944367E+02 -0.35180259706E+01  0.43766769544E+03  0.43827237552E+03  0.00000000000E+00 0. -1.
         21    1    1    2  504  503  0.22743944367E+02  0.35180259706E+01  0.16628192237E+02  0.28392961965E+02  0.00000000000E+00 0. -1.
<mgrwt>
<rscale>  2 0.23014420E+02</rscale>
<asrwt>0</asrwt>
<pdfrwt beam="1">  1       21 0.70843144E-01 0.23014420E+02</pdfrwt>
<pdfrwt beam="2">  1       21 0.95149650E-03 0.23014420E+02</pdfrwt>
<totfact> 0.61613476E+06</totfact>
</mgrwt>
</event>
<event>
 4    1  0.4556894E+006  0.2019461E+02  0.7546771E-02  0.1741485E+00
         21   -1    0    0  504  501  0.00000000000E+00  0.00000000000E+00  0.37960616864E+01  0.37960616864E+01  0.00000000000E+00 0. -1.
         21   -1    0    0  503  502 -0.00000000000E+00 -0.00000000000E+00 -0.12199692541E+03  0.12199692541E+03  0.00000000000E+00 0. -1.
         21    1    1    2  503  501 -0.22696874511E+01 -0.20066662858E+02 -0.37368884630E+02  0.42476534438E+02  0.00000000000E+00 0. -1.
         21    1    1    2  504  502  0.22696874511E+01  0.20066662858E+02 -0.80831979097E+02  0.83316452662E+02  0.00000000000E+00 0. -1.
<mgrwt>
<rscale>  2 0.20194614E+02</rscale>
<asrwt>0</asrwt>
<pdfrwt beam="1">  1       21 0.58400945E-03 0.20194614E+02</pdfrwt>
<pdfrwt beam="2">  1       21 0.18768759E-01 0.20194614E+02</pdfrwt>
<totfact> 0.14759879E+08</totfact>
</mgrwt>
</event>
<event>
 4    1  0.4556894E+006  0.2075368E+02  0.7546771E-02  0.1730743E+00
         21   -1    0    0  503  501  0.00000000000E+00  0.00000000000E+00  0.27021914533E+03  0.27021914533E+03  0.00000000000E+00 0.  1.
         21   -1    0    0  504  502 -0.00000000000E+00 -0.00000000000E+00 -0.17249219747E+01  0.17249219747E+01  0.00000000000E+00 0.  1.
         21    1    1    2  503  502 -0.13585197121E+02  0.15689415098E+02  0.17171480846E+03  0.17296442054E+03  0.00000000000E+00 0.  1.
         21    1    1    2  504  501  0.13585197121E+02 -0.15689415098E+02  0.96779414896E+02  0.98979646769E+02  0.00000000000E+00 0.  1.
<mgrwt>
<rscale>  2 0.20753682E+02</rscale>
<asrwt>0</asrwt>
<pdfrwt beam="1">  1       21 0.41572143E-01 0.20753682E+02</pdfrwt>
<pdfrwt beam="2">  1       21 0.26537283E-03 0.20753682E+02</pdfrwt>
<totfact> 0.11265852E+08</totfact>
</mgrwt>
</event>
<event>
 4    1  0.4556894E+006  0.2680390E+02  0.7546771E-02  0.1636367E+00
         21   -1    0    0  503  501  0.00000000000E+00  0.00000000000E+00  0.20949836628E+02  0.20949836628E+02  0.00000000000E+00 0. -1.
         21   -1    0    0  504  502 -0.00000000000E+00 -0.00000000000E+00 -0.76689082175E+02  0.76689082175E+02  0.00000000000E+00 0.  1.
         21    1    1    2  503  502 -0.26199751858E+02 -0.56588121303E+01 -0.64167819315E+02  0.69541053974E+02  0.00000000000E+00 0.  1.
         21    1    1    2  504  501  0.26199751858E+02  0.56588121303E+01  0.84285737682E+01  0.28097864828E+02  0.00000000000E+00 0. -1.
<mgrwt>
<rscale>  2 0.26803902E+02</rscale>
<asrwt>0</asrwt>
<pdfrwt beam="1">  1       21 0.32230518E-02 0.26803902E+02</pdfrwt>
<pdfrwt beam="2">  1       21 0.11798320E-01 0.26803902E+02</pdfrwt>
<totfact> 0.26167788E+07</totfact>
</mgrwt>
</event>
<event>
 4    1  0.4556894E+006  0.2262469E+02  0.7546771E-02  0.1697667E+00
         21   -1    0    0  504  501  0.00000000000E+00  0.00000000000E+00  0.38983742648E+02  0.38983742648E+02  0.00000000000E+00 0.  1.
         21   -1    0    0  503  502 -0.00000000000E+00 -0.00000000000E+00 -0.17631129073E+03  0.17631129073E+03  0.00000000000E+00 0. -1.
         21    1    1    2  503  501  0.21019667705E+02 -0.83695842974E+01  0.34897756015E+02  0.41590019796E+02  0.00000000000E+00 0.  1.
         21    1    1    2  504  502 -0.21019667705E+02  0.83695842974E+01 -0.17222530410E+03  0.17370501358E+03  0.00000000000E+00 0. -1.
<mgrwt>
<rscale>  2 0.22624685E+02</rscale>
<asrwt>0</asrwt>
<pdfrwt beam="1">  1       21 0.59974990E-02 0.22624685E+02</pdfrwt>
<pdfrwt beam="2">  1       21 0.27124813E-01 0.22624685E+02</pdfrwt>
<totfact> 0.22377171E+06</totfact>
</mgrwt>
</event>
<event>
 4    1  0.4556894E+006  0.4671243E+02  0.7546771E-02  0.1463926E+00
         21   -1    0    0  503  501  0.00000000000E+00  0.00000000000E+00  0.42415757992E+02  0.42415757992E+02  0.00000000000E+00 0.  1.
         21   -1    0    0  504  502 -0.00000000000E+00 -0.00000000000E+00 -0.52881911066E+02  0.52881911066E+02  0.00000000000E+00 0.  1.
         21    1    1    2  503  502  0.25596992242E+02 -0.39074863848E+02  0.26231180177E+01  0.46786020825E+02  0.00000000000E+00 0.  1.
         21    1    1    2  504  501 -0.25596992242E+02  0.39074863848E+02 -0.13089271092E+02  0.48511648233E+02  0.00000000000E+00 0.  1.
<mgrwt>
<rscale>  2 0.46712429E+02</rscale>
<asrwt>0</asrwt>
<pdfrwt beam="1">  1       21 0.65255012E-02 0.46712429E+02</pdfrwt>
<pdfrwt beam="2">  1       21 0.81356786E-02 0.46712429E+02</pdfrwt>
<totfact> 0.17276205E+07</totfact>
</mgrwt>
</event>
<event>
 4    1  0.4556894E+006  0.4158568E+02  0.7546771E-02  0.1496856E+00
         21   -1    0    0  503  501  0.00000000000E+00  0.00000000000E+00  0.14683015607E+03  0.14683015607E+03  0.00000000000E+00 0.  1.
         21   -1    0    0  501  502 -0.00000000000E+00 -0.00000000000E+00 -0.11791172148E+02  0.11791172148E+02  0.00000000000E+00 0.  1.
         21    1    1    2  503  504  0.40966694089E+02 -0.71483449194E+01  0.70168069247E+02  0.81565475549E+02  0.00000000000E+00 0.  1.
         21    1    1    2  504  502 -0.40966694089E+02  0.71483449194E+01  0.64870914670E+02  0.77055852664E+02  0.00000000000E+00 0.  1.
<mgrwt>
<rscale>  2 0.41585681E+02</rscale>
<asrwt>0</asrwt>
<pdfrwt beam="1">  1       21 0.22589253E-01 0.41585681E+02</pdfrwt>
<pdfrwt beam="2">  1       21 0.18140266E-02 0.41585681E+02</pdfrwt>
<totfact> 0.22494301E+07</totfact>
</mgrwt>
</event>
<event>
 4    1  0.4556894E+006  0.3074317E+02  0.7546771E-02  0.1590016E+00
         21   -1    0    0  503  501  0.00000000000E+00  0.00000000000E+00  0.24838768413E+02  0.24838768413E+02  0.00000000000E+00 0.  1.
         21   -1    0    0  504  502 -0.00000000000E+00 -0.00000000000E+00 -0.37130019194E+03  0.37130019194E+03  0.00000000000E+00 0.  1.
         21    1    1    2  503  502 -0.23498091697E+02  0.19823773610E+02 -0.36087677875E+03  0.36218391979E+03  0.00000000000E+00 0.  1.
         21    1    1    2  504  501  0.23498091697E+02 -0.19823773610E+02  0.14415355221E+02  0.33955040564E+02  0.00000000000E+00 0.  1.
<mgrwt>
<rscale>  2 0.30743167E+02</rscale>
<asrwt>0</asrwt>
<pdfrwt beam="1">  1       21 0.38213490E-02 0.30743167E+02</pdfrwt>
<pdfrwt beam="2">  1       21 0.57123106E-01 0.30743167E+02</pdfrwt>
<totfact> 0.11563414E+06</totfact>
</mgrwt>
</event>
<event>
 4    1  0.4556894E+006  0.2277519E+02  0.7546771E-02  0.1695180E+00
         21   -1    0    0  503  501  0.00000000000E+00  0.00000000000E+00  0.49940836964E+01  0.49940836964E+01  0.00000000000E+00 0.  1.
         21   -1    0    0  504  502 -0.00000000000E+00 -0.00000000000E+00 -0.12248096549E+03  0.12248096549E+03  0.00000000000E+00 0.  1.
         21    1    1    2  503  502 -0.17663933982E+02 -0.14376886510E+02 -0.33894597311E+02  0.40835684839E+02  0.00000000000E+00 0.  1.
         21    1    1    2  504  501  0.17663933982E+02  0.14376886510E+02 -0.83592284482E+02  0.86639364347E+02  0.00000000000E+00 0.  1.
<mgrwt>
<rscale>  2 0.22775193E+02</rscale>
<asrwt>0</asrwt>
<pdfrwt beam="1">  1       21 0.76832064E-03 0.22775193E+02</pdfrwt>
<pdfrwt beam="2">  1       21 0.18843224E-01 0.22775193E+02</pdfrwt>
<totfact> 0.10108224E+08</totfact>
</mgrwt>
</event>
<event>
 4    1  0.4556894E+006  0.2114750E+02  0.7546771E-02  0.1723427E+00
         21   -1    0    0  502  501  0.00000000000E+00  0.00000000000E+00  0.22454134474E+03  0.22454134474E+03  0.00000000000E+00 0.  1.
         21   -1    0    0  504  502 -0.00000000000E+00 -0.00000000000E+00 -0.18076521430E+02  0.18076521430E+02  0.00000000000E+00 0.  1.
         21    1    1    2  503  501  0.74531062839E+01  0.19790602439E+02  0.21766338989E+03  0.21868828966E+03  0.00000000000E+00 0.  1.
         21    1    1    2  504  503 -0.74531062839E+01 -0.19790602439E+02 -0.11198566581E+02  0.23929576504E+02  0.00000000000E+00 0.  1.
<mgrwt>
<rscale>  2 0.21147500E+02</rscale>
<asrwt>0</asrwt>
<pdfrwt beam="1">  1       21 0.34544820E-01 0.21147500E+02</pdfrwt>
<pdfrwt beam="2">  1       21 0.27810035E-02 0.21147500E+02</pdfrwt>
<totfact> 0.47872187E+06</totfact>
</mgrwt>
</event>
<event>
 4    1  0.4556894E+006  0.3053014E+02  0.7546771E-02  0.1592301E+00
         21   -1    0    0  502  501  0.00000000000E+00  0.00000000000E+00  0.74737448446E+01  0.74737448446E+01  0.00000000000E+00 0. -1.
         21   -1    0    0  504  502 -0.00000000000E+00 -0.00000000000E+00 -0.12610003569E+03  0.12610003569E+03  0.00000000000E+00 0. -1.
         21    1    1    2  503  501  0.21373972563E+02  0.21800066631E+02 -0.52314206351E+02  0.60571163060E+02  0.00000000000E+00 0. -1.
         21    1    1    2  504  503 -0.21373972563E+02 -0.21800066631E+02 -0.66312084495E+02  0.73002617476E+02  0.00000000000E+00 0. -1.
<mgrwt>
<rscale>  2 0.30530143E+02</rscale>
<asrwt>0</asrwt>
<pdfrwt beam="1">  1       21 0.11498069E-02 0.30530143E+02</pdfrwt>
<pdfrwt beam="2">  1       21 0.19400006E-01 0.30530143E+02</pdfrwt>
<totfact> 0.56258215E+07</totfact>
</mgrwt>
</event>
<event>
 4    1  0.4556894E+006  0.2680685E+02  0.7546771E-02  0.1636328E+00
         21   -1    0    0  504  501  0.00000000000E+00  0.00000000000E+00  0.57161429234E+02  0.57161429234E+02  0.00000000000E+00 0. -1.
         21   -1    0    0  503  502 -0.00000000000E+00 -0.00000000000E+00 -0.51170085538E+02  0.51170085538E+02  0.00000000000E+00 0. -1.
         21    1    1    2  503  501 -0.33996075911E+01 -0.26590412565E+02 -0.44048107157E+02  0.51563971107E+02  0.00000000000E+00 0. -1.
         21    1    1    2  504  502  0.33996075911E+01  0.26590412565E+02  0.50039450853E+02  0.56767543665E+02  0.00000000000E+00 0. -1.
<mgrwt>
<rscale>  2 0.26806853E+02</rscale>
<asrwt>0</asrwt>
<pdfrwt beam="1">  1       21 0.87940660E-02 0.26806853E+02</pdfrwt>
<pdfrwt beam="2">  1       21 0.78723209E-02 0.26806853E+02</pdfrwt>
<totfact> 0.10203237E+07</totfact>
</mgrwt>
</event>
<event>
 4    1  0.4556894E+006  0.2046036E+02  0.7546771E-02  0.1736325E+00
         21   -1    0    0  503  501  0.00000000000E+00  0.00000000000E+00  0.23713412919E+02  0.23713412919E+02  0.00000000000E+00 0.  1.
         21   -1    0    0  504  502 -0.00000000000E+00 -0.00000000000E+00 -0.28854782650E+02  0.28854782650E+02  0.00000000000E+00 0.  1.
         21    1    1    2  503  502 -0.14061953633E+02 -0.14862288766E+02  0.13805656314E+02  0.24682429248E+02  0.00000000000E+00 0.  1.
         21    1    1    2  504  501  0.14061953633E+02  0.14862288766E+02 -0.18947026045E+02  0.27885766320E+02  0.00000000000E+00 0.  1.
<mgrwt>
<rscale>  2 0.20460356E+02</rscale>
<asrwt>0</asrwt>
<pdfrwt beam="1">  1       21 0.36482174E-02 0.20460356E+02</pdfrwt>
<pdfrwt beam="2">  1       21 0.44391974E-02 0.20460356E+02</pdfrwt>
<totfact> 0.98539031E+07</totfact>
</mgrwt>
</event>
<event>
 4    1  0.4556894E+006  0.3672664E+02  0.7546771E-02  0.1533781E+00
         21   -1    0    0  502  501  0.00000000000E+00  0.00000000000E+00  0.38834960579E+03  0.38834960579E+03  0.00000000000E+00 0.  1.
         21   -1    0    0  503  502 -0.00000000000E+00 -0.00000000000E+00 -0.11098962853E+02  0.11098962853E+02  0.00000000000E+00 0.  1.
         21    1    1    2  503  504  0.23314113516E+02  0.28377773710E+02  0.23075347479E+02  0.43374158102E+02  0.00000000000E+00 0.  1.
         21    1    1    2  504  501 -0.23314113516E+02 -0.28377773710E+02  0.35417529545E+03  0.35607441054E+03  0.00000000000E+00 0.  1.
<mgrwt>
<rscale>  2 0.36726638E+02</rscale>
<asrwt>0</asrwt>
<pdfrwt beam="1">  1       21 0.59746083E-01 0.36726638E+02</pdfrwt>
<pdfrwt beam="2">  1       21 0.17075330E-02 0.36726638E+02</pdfrwt>
<totfact> 0.37967613E+06</totfact>
</mgrwt>
</event>
<event>
 4    1  0.4556894E+006  0.3396445E+02  0.7546771E-02  0.1557994E+00
         21   -1    0    0  504  501  0.00000000000E+00  0.00000000000E+00  0.25856754248E+02  0.25856754248E+02  0.00000000000E+00 0.  1.
         21   -1    0    0  501  502 -0.00000000000E+00 -0.00000000000E+00 -0.12592589834E+04  0.12592589834E+04  0.00000000000E+00 0.  1.
         21    1    1    2  503  502 -0.15686524999E+01 -0.33928211081E+02 -0.12477737116E+04  0.12482358830E+04  0.00000000000E+00 0.  1.
         21    1    1    2  504  503  0.15686524999E+01  0.33928211081E+02  0.14371482404E+02  0.36879854721E+02  0.00000000000E+00 0.  1.
<mgrwt>
<rscale>  2 0.33964455E+02</rscale>
<asrwt>0</asrwt>
<pdfrwt beam="1">  1       21 0.39779615E-02 0.33964455E+02</pdfrwt>
<pdfrwt beam="2">  1       21 0.19373219E+00 0.33964455E+02</pdfrwt>
<totfact> 0.68459794E+04</totfact>
</mgrwt>
</event>
<event>
 4    1  0.4556894E+006  0.2117416E+02  0.7546771E-02  0.1722939E+00
         21   -1    0    0  502  501  0.00000000000E+00  0.00000000000E+00  0.88745516807E+01  0.88745516807E+01  0.00000000000E+00 0. -1.
         21   -1    0    0  503  502 -0.00000000000E+00 -0.00000000000E+00 -0.93066241462E+02  0.93066241462E+02  0.00000000000E+00 0. -1.
         21    1    1    2  503  504  0.20565274039E+01 -0.21074056206E+02 -0.76558673135E+02  0.79432836926E+02  0.00000000000E+00 0. -1.
         21    1    1    2  504  501 -0.20565274039E+01  0.21074056206E+02 -0.76330166457E+01  0.22507956216E+02  0.00000000000E+00 0. -1.
<mgrwt>
<rscale>  2 0.21174162E+02</rscale>
<asrwt>0</asrwt>
<pdfrwt beam="1">  1       21 0.13653156E-02 0.21174162E+02</pdfrwt>
<pdfrwt beam="2">  1       21 0.14317884E-01 0.21174162E+02</pdfrwt>
<totfact> 0.66905846E+07</totfact>
</mgrwt>
</event>
<event>
 4    1  0.4556894E+006  0.2102443E+02  0.7546771E-02  0.1725691E+00
         21   -1    0    0  504  501  0.00000000000E+00  0.00000000000E+00  0.46337421968E+02  0.46337421968E+02  0.00000000000E+00 0.  1.
         21   -1    0    0  503  502 -0.00000000000E+00 -0.00000000000E+00 -0.10768118653E+03  0.10768118653E+03  0.00000000000E+00 0. -1.
         21    1    1    2  503  501 -0.16580691720E+02  0.12927002870E+02 -0.10419103212E+03  0.10629109988E+03  0.00000000000E+00 0. -1.
         21    1    1    2  504  502  0.16580691720E+02 -0.12927002870E+02  0.42847267557E+02  0.47727508611E+02  0.00000000000E+00 0.  1.
<mgrwt>
<rscale>  2 0.21024432E+02</rscale>
<asrwt>0</asrwt>
<pdfrwt beam="1">  1       21 0.71288342E-02 0.21024432E+02</pdfrwt>
<pdfrwt beam="2">  1       21 0.16566336E-01 0.21024432E+02</pdfrwt>
<totfact> 0.39750340E+06</totfact>
</mgrwt>
</event>
<event>
 4    1  0.4556894E+006  0.4321626E+02  0.7546771E-02  0.1485795E+00
         21   -1    0    0  503  501  0.00000000000E+00  0.00000000000E+00  0.17319955909E+02  0.17319955909E+02  0.00000000000E+00 0.  1.
         21   -1    0    0  501  502 -0.00000000000E+00 -0.00000000000E+00 -0.19264599371E+03  0.19264599371E+03  0.00000000000E+00 0.  1.
         21    1    1    2  503  504 -0.14429984622E+02 -0.40735991111E+02 -0.18004754520E+02  0.46816841129E+02  0.00000000000E+00 0.  1.
         21    1    1    2  504  502  0.14429984622E+02  0.40735991111E+02 -0.15732128328E+03  0.16314910849E+03  0.00000000000E+00 0.  1.
<mgrwt>
<rscale>  2 0.43216263E+02</rscale>
<asrwt>0</asrwt>
<pdfrwt beam="1">  1       21 0.26646087E-02 0.43216263E+02</pdfrwt>
<pdfrwt beam="2">  1       21 0.29637844E-01 0.43216263E+02</pdfrwt>
<totfact> 0.75102057E+06</totfact>
</mgrwt>
</event>
<event>
 4    1  0.4556894E+006  0.3092321E+02  0.7546771E-02  0.1588102E+00
         21   -1    0    0  504  501  0.00000000000E+00  0.00000000000E+00  0.38454938014E+02  0.38454938014E+02  0.00000000000E+00 0. -1.
         21   -1    0    0  503  502 -0.00000000000E+00 -0.00000000000E+00 -0.28080547816E+02  0.28080547816E+02  0.00000000000E+00 0.  1.
         21    1    1    2  503  501 -0.24217149351E+02 -0.19229530877E+02  0.16441977816E+02  0.35022618619E+02  0.00000000000E+00 0. -1.
         21    1    1    2  504  502  0.24217149351E+02  0.19229530877E+02 -0.60675876181E+01  0.31512867212E+02  0.00000000000E+00 0.  1.
<mgrwt>
<rscale>  2 0.30923214E+02</rscale>
<asrwt>0</asrwt>
<pdfrwt beam="1">  1       21 0.59161443E-02 0.30923214E+02</pdfrwt>
<pdfrwt beam="2">  1       21 0.43200843E-02 0.30923214E+02</pdfrwt>
<totfact> 0.53055055E+07</totfact>
</mgrwt>
</event>
<event>
 4    1  0.4556894E+006  0.2114221E+02  0.7546771E-02  0.1723524E+00
         21   -1    0    0  504  501  0.00000000000E+00  0.00000000000E+00  0.56965610898E+03  0.56965610898E+03  0.00000000000E+00 0.  1.
         21   -1    0    0  503  502 -0.00000000000E+00 -0.00000000000E+00 -0.23779055227E+01  0.23779055227E+01  0.00000000000E+00 0.  1.
         21    1    1    2  503  501 -0.19011395105E+02 -0.92498667603E+01  0.49521383454E+02  0.53845711046E+02  0.00000000000E+00 0.  1.
         21    1    1    2  504  502  0.19011395105E+02  0.92498667603E+01  0.51775682001E+03  0.51818830346E+03  0.00000000000E+00 0.  1.
<mgrwt>
<rscale>  2 0.21142213E+02</rscale>
<asrwt>0</asrwt>
<pdfrwt beam="1">  1       21 0.87639293E-01 0.21142213E+02</pdfrwt>
<pdfrwt beam="2">  1       21 0.36583207E-03 0.21142213E+02</pdfrwt>
<totfact> 0.16006711E+07</totfact>
</mgrwt>
</event>
<event>
 4    1  0.4556894E+006  0.2219676E+02  0.7546771E-02  0.1704871E+00
         21   -1    0    0  504  501  0.00000000000E+00  0.00000000000E+00  0.13132707739E+02  0.13132707739E+02  0.00000000000E+00 0. -1.
         21   -1    0    0  501  502 -0.00000000000E+00 -0.00000000000E+00 -0.17402725060E+03  0.17402725060E+03  0.00000000000E+00 0. -1.
         21    1    1    2  503  502  0.18909267240E+02 -0.11624786231E+02 -0.16332873307E+03  0.16483012797E+03  0.00000000000E+00 0. -1.
         21    1    1    2  504  503 -0.18909267240E+02  0.11624786231E+02  0.24341901994E+01  0.22329830371E+02  0.00000000000E+00 0. -1.
<mgrwt>
<rscale>  2 0.22196757E+02</rscale>
<asrwt>0</asrwt>
<pdfrwt beam="1">  1       21 0.20204166E-02 0.22196757E+02</pdfrwt>
<pdfrwt beam="2">  1       21 0.26773422E-01 0.22196757E+02</pdfrwt>
<totfact> 0.12552423E+07</totfact>
</mgrwt>
</event>
<event>
 4    1  0.4556894E+006  0.2040425E+02  0.7546771E-02  0.1737406E+00
         21   -1    0    0  503  501  0.00000000000E+00  0.00000000000E+00  0.31714595914E+03  0.31714595914E+03  0.00000000000E+00 0. -1.
         21   -1    0    0  504  502 -0.00000000000E+00 -0.00000000000E+00 -0.62136548821E+02  0.62136548821E+02  0.00000000000E+00 0.  1.
         21    1    1    2  503  502  0.49413901165E+01 -0.19796872945E+02 -0.60122592280E+02  0.63490626215E+02  0.00000000000E+00 0.  1.
         21    1    1    2  504  501 -0.49413901165E+01  0.19796872945E+02  0.31513200260E+03  0.31579188174E+03  0.00000000000E+00 0. -1.
<mgrwt>
<rscale>  2 0.20404252E+02</rscale>
<asrwt>0</asrwt>
<pdfrwt beam="1">  1       21 0.48791685E-01 0.20404252E+02</pdfrwt>
<pdfrwt beam="2">  1       21 0.95594692E-02 0.20404252E+02</pdfrwt>
<totfact> 0.34951918E+05</totfact>
</mgrwt>
</event>
<event>
 4    1  0.4556894E+006  0.2059615E+02  0.7546771E-02  0.1733726E+00
         21   -1    0    0  504  501  0.00000000000E+00  0.00000000000E+00  0.49785279390E+01  0.49785279390E+01  0.00000000000E+00 0. -1.
         21   -1    0    0  503  502 -0.00000000000E+00 -0.00000000000E+00 -0.15371790016E+03  0.15371790016E+03  0.00000000000E+00 0. -1.
         21    1    1    2  503  501  0.16453613170E+02 -0.12388699809E+02 -0.21396338299E+02  0.29698561614E+02  0.00000000000E+00 0. -1.
         21    1    1    2  504  502 -0.16453613170E+02  0.12388699809E+02 -0.12734303392E+03  0.12899786649E+03  0.00000000000E+00 0. -1.
<mgrwt>
<rscale>  2 0.20596147E+02</rscale>
<asrwt>0</asrwt>
<pdfrwt beam="1">  1       21 0.76592738E-03 0.20596147E+02</pdfrwt>
<pdfrwt beam="2">  1       21 0.23648908E-01 0.20596147E+02</pdfrwt>
<totfact> 0.66405460E+07</totfact>
</mgrwt>
</event>
<event>
 4    1  0.4556894E+006  0.2159776E+02  0.7546771E-02  0.1715303E+00
         21   -1    0    0  503  501  0.00000000000E+00  0.00000000000E+00  0.32343397039E+02  0.32343397039E+02  0.00000000000E+00 0. -1.
         21   -1    0    0  504  502 -0.00000000000E+00 -0.00000000000E+00 -0.14834046564E+02  0.14834046564E+02  0.00000000000E+00 0. -1.
         21    1    1    2  503  502 -0.34434861519E+01 -0.21321481768E+02  0.12685090031E+02  0.25047448788E+02  0.00000000000E+00 0. -1.
         21    1    1    2  504  501  0.34434861519E+01  0.21321481768E+02  0.48242604439E+01  0.22129994815E+02  0.00000000000E+00 0. -1.
<mgrwt>
<rscale>  2 0.21597759E+02</rscale>
<asrwt>0</asrwt>
<pdfrwt beam="1">  1       21 0.49759072E-02 0.21597759E+02</pdfrwt>
<pdfrwt beam="2">  1       21 0.22821610E-02 0.21597759E+02</pdfrwt>
<totfact> 0.17301099E+08</totfact>
</mgrwt>
</event>
<event>
 4    1  0.4556894E+006  0.4228030E+02  0.7546771E-02  0.1492071E+00
         21   -1    0    0  504  501  0.00000000000E+00  0.00000000000E+00  0.19321700976E+02  0.19321700976E+02  0.00000000000E+00 0.  1.
         21   -1    0    0  503  502 -0.00000000000E+00 -0.00000000000E+00 -0.10577112502E+03  0.10577112502E+03  0.00000000000E+00 0. -1.
         21    1    1    2  503  501 -0.38903672035E+02  0.16556801870E+02 -0.65363942064E+02  0.77846440562E+02  0.00000000000E+00 0.  1.
         21    1    1    2  504  502  0.38903672035E+02 -0.16556801870E+02 -0.21085481977E+02  0.47246385430E+02  0.00000000000E+00 0. -1.
<mgrwt>
<rscale>  2 0.42280295E+02</rscale>
<asrwt>0</asrwt>
<pdfrwt beam="1">  1       21 0.29725694E-02 0.42280295E+02</pdfrwt>
<pdfrwt beam="2">  1       21 0.16272481E-01 0.42280295E+02</pdfrwt>
<totfact> 0.18577310E+07</totfact>
</mgrwt>
</event>
<event>
 4    1  0.4556894E+006  0.3805560E+02  0.7546771E-02  0.1523028E+00
         21   -1    0    0  503  501  0.00000000000E+00  0.00000000000E+00  0.67617369526E+03  0.67617369526E+03  0.00000000000E+00 0. -1.
         21   -1    0    0  504  502 -0.00000000000E+00 -0.00000000000E+00 -0.42420420781E+01  0.42420420781E+01  0.00000000000E+00 0. -1.
         21    1    1    2  503  502  0.20470043931E+02  0.32081239989E+02  0.57534787043E+03  0.57660506473E+03  0.00000000000E+00 0. -1.
         21    1    1    2  504  501 -0.20470043931E+02 -0.32081239989E+02  0.96583782751E+02  0.10381067261E+03  0.00000000000E+00 0. -1.
<mgrwt>
<rscale>  2 0.38055600E+02</rscale>
<asrwt>0</asrwt>
<pdfrwt beam="1">  1       21 0.10402664E+00 0.38055600E+02</pdfrwt>
<pdfrwt beam="2">  1       21 0.65262240E-03 0.38055600E+02</pdfrwt>
<totfact> 0.50634058E+06</totfact>
</mgrwt>
</event>
<event>
 4    1  0.4556894E+006  0.2450003E+02  0.7546771E-02  0.1668289E+00
         21   -1    0    0  503  501  0.00000000000E+00  0.00000000000E+00  0.35059034485E+03  0.35059034485E+03  0.00000000000E+00 0. -1.
         21   -1    0    0  501  502 -0.00000000000E+00 -0.00000000000E+00 -0.65347515719E+01  0.65347515719E+01  0.00000000000E+00 0. -1.
         21    1    1    2  503  504  0.18038358933E+02 -0.16579180079E+02  0.32542520506E+03  0.32634615930E+03  0.00000000000E+00 0. -1.
         21    1    1    2  504  502 -0.18038358933E+02  0.16579180079E+02  0.18630388227E+02  0.30778937125E+02  0.00000000000E+00 0. -1.
<mgrwt>
<rscale>  2 0.24500033E+02</rscale>
<asrwt>0</asrwt>
<pdfrwt beam="1">  1       21 0.53936962E-01 0.24500033E+02</pdfrwt>
<pdfrwt beam="2">  1       21 0.10053467E-02 0.24500033E+02</pdfrwt>
<totfact> 0.99196279E+06</totfact>
</mgrwt>
</event>
<event>
 4    1  0.4556894E+006  0.2923938E+02  0.7546771E-02  0.1606652E+00
         21   -1    0    0  503  501  0.00000000000E+00  0.00000000000E+00  0.18611477806E+02  0.18611477806E+02  0.00000000000E+00 0.  1.
         21   -1    0    0  501  502 -0.00000000000E+00 -0.00000000000E+00 -0.45956738610E+02  0.45956738610E+02  0.00000000000E+00 0.  1.
         21    1    1    2  503  504 -0.24367185609E+02 -0.16161114902E+02 -0.14354408882E+02  0.32572847953E+02  0.00000000000E+00 0.  1.
         21    1    1    2  504  502  0.24367185609E+02  0.16161114902E+02 -0.12990851923E+02  0.31995368463E+02  0.00000000000E+00 0.  1.
<mgrwt>
<rscale>  2 0.29239380E+02</rscale>
<asrwt>0</asrwt>
<pdfrwt beam="1">  1       21 0.28633043E-02 0.29239380E+02</pdfrwt>
<pdfrwt beam="2">  1       21 0.70702674E-02 0.29239380E+02</pdfrwt>
<totfact> 0.75140871E+07</totfact>
</mgrwt>
</event>
<event>
 4    1  0.4556894E+006  0.2027762E+02  0.7546771E-02  0.1739863E+00
         21   -1    0    0  503  501  0.00000000000E+00  0.00000000000E+00  0.23363521713E+03  0.23363521713E+03  0.00000000000E+00 0.  1.
         21   -1    0    0  501  502 -0.00000000000E+00 -0.00000000000E+00 -0.30549941642E+01  0.30549941642E+01  0.00000000000E+00 0.  1.
         21    1    1    2  503  504  0.82596363232E+01  0.18519187422E+02  0.19234329035E+03  0.19340921188E+03  0.00000000000E+00 0.  1.
         21    1    1    2  504  502 -0.82596363232E+01 -0.18519187422E+02  0.38236932613E+02  0.43280999418E+02  0.00000000000E+00 0.  1.
<mgrwt>
<rscale>  2 0.20277621E+02</rscale>
<asrwt>0</asrwt>
<pdfrwt beam="1">  1       21 0.35943865E-01 0.20277621E+02</pdfrwt>
<pdfrwt beam="2">  1       21 0.46999929E-03 0.20277621E+02</pdfrwt>
<totfact> 0.63869875E+07</totfact>
</mgrwt>
</event>
<event>
 4    1  0.4556894E+006  0.2038313E+02  0.7546771E-02  0.1737815E+00
         21   -1    0    0  503  501  0.00000000000E+00  0.00000000000E+00  0.95422500764E+00  0.95422500764E+00  0.00000000000E+00 0. -1.
         21   -1    0    0  504  502 -0.00000000000E+00 -0.00000000000E+00 -0.52307776069E+03  0.52307776069E+03  0.00000000000E+00 0.  1.
         21    1    1    2  503  502 -0.31503726278E+01 -0.20138202620E+02 -0.15379061461E+03  0.15513550591E+03  0.00000000000E+00 0. -1.
         21    1    1    2  504  501  0.31503726278E+01  0.20138202620E+02 -0.36833292107E+03  0.36889647979E+03  0.00000000000E+00 0.  1.
<mgrwt>
<rscale>  2 0.20383132E+02</rscale>
<asrwt>0</asrwt>
<pdfrwt beam="1">  1       21 0.14680407E-03 0.20383132E+02</pdfrwt>
<pdfrwt beam="2">  1       21 0.80473379E-01 0.20383132E+02</pdfrwt>
<totfact> 0.71003795E+07</totfact>
</mgrwt>
</event>
<event>
 4    1  0.4556894E+006  0.2063725E+02  0.7546771E-02  0.1732945E+00
         21   -1    0    0  502  501  0.00000000000E+00  0.00000000000E+00  0.24595066295E+02  0.24595066295E+02  0.00000000000E+00 0.  1.
         21   -1    0    0  504  502 -0.00000000000E+00 -0.00000000000E+00 -0.38777720739E+02  0.38777720739E+02  0.00000000000E+00 0.  1.
         21    1    1    2  503  501 -0.98777830095E+01 -0.18119757523E+02  0.16481443579E+02  0.26410872615E+02  0.00000000000E+00 0.  1.
         21    1    1    2  504  503  0.98777830095E+01  0.18119757523E+02 -0.30664098023E+02  0.36961914418E+02  0.00000000000E+00 0.  1.
<mgrwt>
<rscale>  2 0.20637253E+02</rscale>
<asrwt>0</asrwt>
<pdfrwt beam="1">  1       21 0.37838564E-02 0.20637253E+02</pdfrwt>
<pdfrwt beam="2">  1       21 0.59658032E-02 0.20637253E+02</pdfrwt>
<totfact> 0.58367351E+07</totfact>
</mgrwt>
</event>
<event>
 4    1  0.4556894E+006  0.4158988E+02  0.7546771E-02  0.1496827E+00
         21   -1    0    0  503  501  0.00000000000E+00  0.00000000000E+00  0.32957152163E+03  0.32957152163E+03  0.00000000000E+00 0.  1.
         21   -1    0    0  504  502 -0.00000000000E+00 -0.00000000000E+00 -0.10246374391E+02  0.10246374391E+02  0.00000000000E+00 0.  1.
         21    1    1    2  503  502  0.72091695013E+01  0.40960298980E+02  0.27832925782E+03  0.28141942715E+03  0.00000000000E+00 0.  1.
         21    1    1    2  504  501 -0.72091695013E+01 -0.40960298980E+02  0.40995889417E+02  0.58398468871E+02  0.00000000000E+00 0.  1.
<mgrwt>
<rscale>  2 0.41589881E+02</rscale>
<asrwt>0</asrwt>
<pdfrwt beam="1">  1       21 0.50703303E-01 0.41589881E+02</pdfrwt>
<pdfrwt beam="2">  1       21 0.15763655E-02 0.41589881E+02</pdfrwt>
<totfact> 0.60599118E+06</totfact>
</mgrwt>
</event>
<event>
 4    1  0.4556894E+006  0.2248600E+02  0.7546771E-02  0.1699980E+00
         21   -1    0    0  504  501  0.00000000000E+00  0.00000000000E+00  0.12789657822E+02  0.12789657822E+02  0.00000000000E+00 0.  1.
         21   -1    0    0  503  502 -0.00000000000E+00 -0.00000000000E+00 -0.10139964059E+03  0.10139964059E+03  0.00000000000E+00 0.  1.
         21    1    1    2  503  501  0.18411860347E+02 -0.12908274086E+02  0.29180449120E+00  0.22487892101E+02  0.00000000000E+00 0.  1.
         21    1    1    2  504  502 -0.18411860347E+02  0.12908274086E+02 -0.88901787263E+02  0.91701406313E+02  0.00000000000E+00 0.  1.
<mgrwt>
<rscale>  2 0.22485999E+02</rscale>
<asrwt>0</asrwt>
<pdfrwt beam="1">  1       21 0.19676396E-02 0.22485999E+02</pdfrwt>
<pdfrwt beam="2">  1       21 0.15599945E-01 0.22485999E+02</pdfrwt>
<totfact> 0.33685184E+07</totfact>
</mgrwt>
</event>
<event>
 4    1  0.4556894E+006  0.2312611E+02  0.7546771E-02  0.1689474E+00
         21   -1    0    0  504  501  0.00000000000E+00  0.00000000000E+00  0.28477524271E+01  0.28477524271E+01  0.00000000000E+00 0. -1.
         21   -1    0    0  503  502 -0.00000000000E+00 -0.00000000000E+00 -0.21151167731E+03  0.21151167731E+03  0.00000000000E+00 0. -1.
         21    1    1    2  503  501 -0.17575228809E+02  0.15030917025E+02 -0.14021563473E+03  0.14210996220E+03  0.00000000000E+00 0. -1.
         21    1    1    2  504  502  0.17575228809E+02 -0.15030917025E+02 -0.68448290160E+02  0.72249467542E+02  0.00000000000E+00 0. -1.
<mgrwt>
<rscale>  2 0.23126114E+02</rscale>
<asrwt>0</asrwt>
<pdfrwt beam="1">  1       21 0.43811583E-03 0.23126114E+02</pdfrwt>
<pdfrwt beam="2">  1       21 0.32540253E-01 0.23126114E+02</pdfrwt>
<totfact> 0.88032195E+07</totfact>
</mgrwt>
</event>
<event>
 4    1  0.4556894E+006  0.4703085E+02  0.7546771E-02  0.1462048E+00
         21   -1    0    0  503  501  0.00000000000E+00  0.00000000000E+00  0.28775355204E+03  0.28775355204E+03  0.00000000000E+00 0. -1.
         21   -1    0    0  504  502 -0.00000000000E+00 -0.00000000000E+00 -0.15859451993E+02  0.15859451993E+02  0.00000000000E+00 0. -1.
         21    1    1    2  503  502  0.10408453671E+02 -0.45864639413E+02  0.24492234673E+03  0.24939698672E+03  0.00000000000E+00 0. -1.
         21    1    1    2  504  501 -0.10408453671E+02  0.45864639413E+02  0.26971753313E+02  0.54216017311E+02  0.00000000000E+00 0. -1.
<mgrwt>
<rscale>  2 0.47030852E+02</rscale>
<asrwt>0</asrwt>
<pdfrwt beam="1">  1       21 0.44269773E-01 0.47030852E+02</pdfrwt>
<pdfrwt beam="2">  1       21 0.24399159E-02 0.47030852E+02</pdfrwt>
<totfact> 0.40446000E+06</totfact>
</mgrwt>
</event>
<event>
 4    1  0.4556894E+006  0.2481942E+02  0.7546771E-02  0.1663609E+00
         21   -1    0    0  503  501  0.00000000000E+00  0.00000000000E+00  0.24155623716E+02  0.24155623716E+02  0.00000000000E+00 0. -1.
         21   -1    0    0  504  502 -0.00000000000E+00 -0.00000000000E+00 -0.40345059720E+02  0.40345059720E+02  0.00000000000E+00 0.  1.
         21    1    1    2  503  502  0.23464025700E+02 -0.80896882553E+01 -0.27656518505E+02  0.37160282210E+02  0.00000000000E+00 0.  1.
         21    1    1    2  504  501 -0.23464025700E+02  0.80896882553E+01  0.11467082500E+02  0.27340401226E+02  0.00000000000E+00 0. -1.
<mgrwt>
<rscale>  2 0.24819419E+02</rscale>
<asrwt>0</asrwt>
<pdfrwt beam="1">  1       21 0.37162498E-02 0.24819419E+02</pdfrwt>
<pdfrwt beam="2">  1       21 0.62069322E-02 0.24819419E+02</pdfrwt>
<totfact> 0.59184102E+07</totfact>
</mgrwt>
</event>
<event>
 4    1  0.4556894E+006  0.3442576E+02  0.7546771E-02  0.1553760E+00
         21   -1    0    0  504  501  0.00000000000E+00  0.00000000000E+00  0.86922064988E+02  0.86922064988E+02  0.00000000000E+00 0.  1.
         21   -1    0    0  501  502 -0.00000000000E+00 -0.00000000000E+00 -0.14087526356E+04  0.14087526356E+04  0.00000000000E+00 0. -1.
         21    1    1    2  503  502  0.32467477594E+02 -0.11445343783E+02 -0.14051249126E+04  0.14055465674E+04  0.00000000000E+00 0. -1.
         21    1    1    2  504  503 -0.32467477594E+02  0.11445343783E+02  0.83294341979E+02  0.90128133240E+02  0.00000000000E+00 0.  1.
<mgrwt>
<rscale>  2 0.34425761E+02</rscale>
<asrwt>0</asrwt>
<pdfrwt beam="1">  1       21 0.13372625E-01 0.34425761E+02</pdfrwt>
<pdfrwt beam="2">  1       21 0.21673119E+00 0.34425761E+02</pdfrwt>
<totfact> 0.68335885E+03</totfact>
</mgrwt>
</event>
<event>
 4    1  0.4556894E+006  0.3415680E+02  0.7546771E-02  0.1556218E+00
         21   -1    0    0  504  501  0.00000000000E+00  0.00000000000E+00  0.12962817782E+02  0.12962817782E+02  0.00000000000E+00 0.  1.
         21   -1    0    0  503  502 -0.00000000000E+00 -0.00000000000E+00 -0.99415215878E+02  0.99415215878E+02  0.00000000000E+00 0.  1.
         21    1    1    2  503  501  0.95216532124E+01  0.32802822462E+02 -0.60515627548E+02  0.69489770606E+02  0.00000000000E+00 0.  1.
         21    1    1    2  504  502 -0.95216532124E+01 -0.32802822462E+02 -0.25936770548E+02  0.42888263054E+02  0.00000000000E+00 0.  1.
<mgrwt>
<rscale>  2 0.34156801E+02</rscale>
<asrwt>0</asrwt>
<pdfrwt beam="1">  1       21 0.19942796E-02 0.34156801E+02</pdfrwt>
<pdfrwt beam="2">  1       21 0.15294649E-01 0.34156801E+02</pdfrwt>
<totfact> 0.37368366E+07</totfact>
</mgrwt>
</event>
<event>
 4    1  0.4556894E+006  0.2064621E+02  0.7546771E-02  0.1732775E+00
         21   -1    0    0  504  501  0.00000000000E+00  0.00000000000E+00  0.19585219273E+03  0.19585219273E+03  0.00000000000E+00 0.  1.
         21   -1    0    0  501  502 -0.00000000000E+00 -0.00000000000E+00 -0.30057781375E+02  0.30057781375E+02  0.00000000000E+00 0. -1.
         21    1    1    2  503  502  0.20221781488E+02  0.41647988089E+01 -0.25891438628E+02  0.33115443375E+02  0.00000000000E+00 0. -1.
         21    1    1    2  504  503 -0.20221781488E+02 -0.41647988089E+01  0.19168584999E+03  0.19279453073E+03  0.00000000000E+00 0.  1.
<mgrwt>
<rscale>  2 0.20646210E+02</rscale>
<asrwt>0</asrwt>
<pdfrwt beam="1">  1       21 0.30131106E-01 0.20646210E+02</pdfrwt>
<pdfrwt beam="2">  1       21 0.46242742E-02 0.20646210E+02</pdfrwt>
<totfact> 0.27656821E+06</totfact>
</mgrwt>
</event>
<event>
 4    1  0.4556894E+006  0.3070870E+02  0.7546771E-02  0.1590385E+00
         21   -1    0    0  504  501  0.00000000000E+00  0.00000000000E+00  0.69821501860E+01  0.69821501860E+01  0.00000000000E+00 0. -1.
         21   -1    0    0  503  502 -0.00000000000E+00 -0.00000000000E+00 -0.61997932742E+03  0.61997932742E+03  0.00000000000E+00 0.  1.
         21    1    1    2  503  501  0.29997807232E+02 -0.65692893619E+01 -0.29258483175E+02  0.42415596650E+02  0.00000000000E+00 0. -1.
         21    1    1    2  504  502 -0.29997807232E+02  0.65692893619E+01 -0.58373869406E+03  0.58454588096E+03  0.00000000000E+00 0.  1.
<mgrwt>
<rscale>  2 0.30708696E+02</rscale>
<asrwt>0</asrwt>
<pdfrwt beam="1">  1       21 0.10741771E-02 0.30708696E+02</pdfrwt>
<pdfrwt beam="2">  1       21 0.95381422E-01 0.30708696E+02</pdfrwt>
<totfact> 0.28298014E+06</totfact>
</mgrwt>
</event>
<event>
 4    1  0.4556894E+006  0.2158499E+02  0.7546771E-02  0.1715530E+00
         21   -1    0    0  503  501  0.00000000000E+00  0.00000000000E+00  0.18941998889E+02  0.18941998889E+02  0.00000000000E+00 0. -1.
         21   -1    0    0  504  502 -0.00000000000E+00 -0.00000000000E+00 -0.11135948298E+03  0.11135948298E+03  0.00000000000E+00 0. -1.
         21    1    1    2  503  502 -0.64073419938E+01  0.20612080318E+02  0.11298472401E+02  0.24363237983E+02  0.00000000000E+00 0. -1.
         21    1    1    2  504  501  0.64073419938E+01 -0.20612080318E+02 -0.10371595649E+03  0.10593824389E+03  0.00000000000E+00 0. -1.
<mgrwt>
<rscale>  2 0.21584992E+02</rscale>
<asrwt>0</asrwt>
<pdfrwt beam="1">  1       21 0.29141537E-02 0.21584992E+02</pdfrwt>
<pdfrwt beam="2">  1       21 0.17132228E-01 0.21584992E+02</pdfrwt>
<totfact> 0.15517149E+07</totfact>
</mgrwt>
</event>
<event>
 4    1  0.4556894E+006  0.2340863E+02  0.7546771E-02  0.1684971E+00
         21   -1    0    0  503  501  0.00000000000E+00  0.00000000000E+00  0.25637025086E+02  0.25637025086E+02  0.00000000000E+00 0. -1.
         21   -1    0    0  504  502 -0.00000000000E+00 -0.00000000000E+00 -0.31002444433E+02  0.31002444433E+02  0.00000000000E+00 0.  1.
         21    1    1    2  503  502 -0.19510671772E+02 -0.12934355316E+02 -0.18465033869E+02  0.29814783853E+02  0.00000000000E+00 0.  1.
         21    1    1    2  504  501  0.19510671772E+02  0.12934355316E+02  0.13099614523E+02  0.26824685666E+02  0.00000000000E+00 0. -1.
<mgrwt>
<rscale>  2 0.23408628E+02</rscale>
<asrwt>0</asrwt>
<pdfrwt beam="1">  1       21 0.39441577E-02 0.23408628E+02</pdfrwt>
<pdfrwt beam="2">  1       21 0.47696068E-02 0.23408628E+02</pdfrwt>
<totfact> 0.80889938E+07</totfact>
</mgrwt>
</event>
<event>
 4    1  0.4556894E+006  0.2022013E+02  0.7546771E-02  0.1740986E+00
         21   -1    0    0  504  501  0.00000000000E+00  0.00000000000E+00  0.11619178528E+02  0.11619178528E+02  0.00000000000E+00 0.  1.
         21   -1    0    0  503  502 -0.00000000000E+00 -0.00000000000E+00 -0.37813481738E+02  0.37813481738E+02  0.00000000000E+00 0. -1.
         21    1    1    2  503  501  0.17894994407E+02 -0.94139699585E+01 -0.19610126171E+02  0.28167546993E+02  0.00000000000E+00 0. -1.
         21    1    1    2  504  502 -0.17894994407E+02  0.94139699585E+01 -0.65841770393E+01  0.21265113272E+02  0.00000000000E+00 0.  1.
<mgrwt>
<rscale>  2 0.20220130E+02</rscale>
<asrwt>0</asrwt>
<pdfrwt beam="1">  1       21 0.17875659E-02 0.20220130E+02</pdfrwt>
<pdfrwt beam="2">  1       21 0.58174588E-02 0.20220130E+02</pdfrwt>
<totfact> 0.19197064E+08</totfact>
</mgrwt>
</event>
<event>
 4    1  0.4556894E+006  0.2572889E+02  0.7546771E-02  0.1650748E+00
         21   -1    0    0  503  501  0.00000000000E+00  0.00000000000E+00  0.61238039999E+03  0.61238039999E+03  0.00000000000E+00 0. -1.
         21   -1    0    0  504  502 -0.00000000000E+00 -0.00000000000E+00 -0.10338199066E+03  0.10338199066E+03  0.00000000000E+00 0. -1.
         21    1    1    2  503  502 -0.25653237268E+02 -0.19715734637E+01 -0.10150602666E+03  0.10471604048E+03  0.00000000000E+00 0. -1.
         21    1    1    2  504  501  0.25653237268E+02  0.19715734637E+01  0.61050443599E+03  0.61104635017E+03  0.00000000000E+00 0. -1.
<mgrwt>
<rscale>  2 0.25728888E+02</rscale>
<asrwt>0</asrwt>
<pdfrwt beam="1">  1       21 0.94212368E-01 0.25728888E+02</pdfrwt>
<pdfrwt beam="2">  1       21 0.15904922E-01 0.25728888E+02</pdfrwt>
<totfact> 0.38827018E+04</totfact>
</mgrwt>
</event>
<event>
 4    1  0.4556894E+006  0.2942141E+02  0.7546771E-02  0.1604574E+00
         21   -1    0    0  504  501  0.00000000000E+00  0.00000000000E+00  0.41868768367E+03  0.41868768367E+03  0.00000000000E+00 0. -1.
         21   -1    0    0  503  502 -0.00000000000E+00 -0.00000000000E+00 -0.78052796523E+01  0.78052796523E+01  0.00000000000E+00 0. -1.
         21    1    1    2  503  501  0.21703281690E+02  0.19864210612E+02  0.22605436594E+02  0.37102898309E+02  0.00000000000E+00 0. -1.
         21    1    1    2  504  502 -0.21703281690E+02 -0.19864210612E+02  0.38827696742E+03  0.38939006501E+03  0.00000000000E+00 0. -1.
<mgrwt>
<rscale>  2 0.29421409E+02</rscale>
<asrwt>0</asrwt>
<pdfrwt beam="1">  1       21 0.64413472E-01 0.29421409E+02</pdfrwt>
<pdfrwt beam="2">  1       21 0.12008126E-02 0.29421409E+02</pdfrwt>
<totfact> 0.54550295E+06</totfact>
</mgrwt>
</event>
<event>
 4    1  0.4556894E+006  0.2155740E+02  0.7546771E-02  0.1716021E+00
         21   -1    0    0  502  501  0.00000000000E+00  0.00000000000E+00  0.13971969779E+03  0.13971969779E+03  0.00000000000E+00 0. -1.
         21   -1    0    0  504  502 -0.00000000000E+00 -0.00000000000E+00 -0.11022417312E+03  0.11022417312E+03  0.00000000000E+00 0.  1.
         21    1    1    2  503  501  0.14974694607E+02  0.15507424256E+02  0.13781969187E+03  0.13949548077E+03  0.00000000000E+00 0. -1.
         21    1    1    2  504  503 -0.14974694607E+02 -0.15507424256E+02 -0.10832416720E+03  0.11044839015E+03  0.00000000000E+00 0.  1.
<mgrwt>
<rscale>  2 0.21557404E+02</rscale>
<asrwt>0</asrwt>
<pdfrwt beam="1">  1       21 0.21495338E-01 0.21557404E+02</pdfrwt>
<pdfrwt beam="2">  1       21 0.16957565E-01 0.21557404E+02</pdfrwt>
<totfact> 0.60232185E+05</totfact>
</mgrwt>
</event>
<event>
 4    1  0.4556894E+006  0.2558903E+02  0.7546771E-02  0.1652683E+00
         21   -1    0    0  502  501  0.00000000000E+00  0.00000000000E+00  0.82093516502E+02  0.82093516502E+02  0.00000000000E+00 0.  1.
         21   -1    0    0  503  502 -0.00000000000E+00 -0.00000000000E+00 -0.17161803238E+02  0.17161803238E+02  0.00000000000E+00 0.  1.
         21    1    1    2  503  504  0.68690187093E+01  0.24649846410E+02 -0.38415321644E+01  0.25875774683E+02  0.00000000000E+00 0.  1.
         21    1    1    2  504  501 -0.68690187093E+01 -0.24649846410E+02  0.68773245428E+02  0.73379545057E+02  0.00000000000E+00 0.  1.
<mgrwt>
<rscale>  2 0.25589028E+02</rscale>
<asrwt>0</asrwt>
<pdfrwt beam="1">  1       21 0.12629772E-01 0.25589028E+02</pdfrwt>
<pdfrwt beam="2">  1       21 0.26402775E-02 0.25589028E+02</pdfrwt>
<totfact> 0.31549969E+07</totfact>
</mgrwt>
</event>
<event>
 4    1  0.4556894E+006  0.2306844E+02  0.7546771E-02  0.1690403E+00
         21   -1    0    0  504  501  0.00000000000E+00  0.00000000000E+00  0.11326692659E+02  0.11326692659E+02  0.00000000000E+00 0.  1.
         21   -1    0    0  503  502 -0.00000000000E+00 -0.00000000000E+00 -0.50595841829E+02  0.50595841829E+02  0.00000000000E+00 0. -1.
         21    1    1    2  503  501 -0.71977996255E+01  0.21916767503E+02 -0.11360232788E+02  0.25713963254E+02  0.00000000000E+00 0.  1.
         21    1    1    2  504  502  0.71977996255E+01 -0.21916767503E+02 -0.27908916381E+02  0.36208571234E+02  0.00000000000E+00 0. -1.
<mgrwt>
<rscale>  2 0.23068442E+02</rscale>
<asrwt>0</asrwt>
<pdfrwt beam="1">  1       21 0.17425681E-02 0.23068442E+02</pdfrwt>
<pdfrwt beam="2">  1       21 0.77839755E-02 0.23068442E+02</pdfrwt>
<totfact> 0.12999293E+08</totfact>
</mgrwt>
</event>
<event>
 4    1  0.4556894E+006  0.5340409E+02  0.7546771E-02  0.1427800E+00
         21   -1    0    0  502  501  0.00000000000E+00  0.00000000000E+00  0.64217508972E+01  0.64217508972E+01  0.00000000000E+00 0.  1.
         21   -1    0    0  504  502 -0.00000000000E+00 -0.00000000000E+00 -0.57525952684E+03  0.57525952684E+03  0.00000000000E+00 0. -1.
         21    1    1    2  503  501  0.20407236672E+02 -0.49351205512E+02 -0.14555221367E+03  0.15504013576E+03  0.00000000000E+00 0.  1.
         21    1    1    2  504  503 -0.20407236672E+02  0.49351205512E+02 -0.42328556228E+03  0.42664114198E+03  0.00000000000E+00 0. -1.
<mgrwt>
<rscale>  2 0.53404090E+02</rscale>
<asrwt>0</asrwt>
<pdfrwt beam="1">  1       21 0.98796151E-03 0.53404090E+02</pdfrwt>
<pdfrwt beam="2">  1       21 0.88501480E-01 0.53404090E+02</pdfrwt>
<totfact> 0.39691027E+06</totfact>
</mgrwt>
</event>
<event>
 4    1  0.4556894E+006  0.2096299E+02  0.7546771E-02  0.1726829E+00
         21   -1    0    0  503  501  0.00000000000E+00  0.00000000000E+00  0.12320359533E+03  0.12320359533E+03  0.00000000000E+00 0.  1.
         21   -1    0    0  504  502 -0.00000000000E+00 -0.00000000000E+00 -0.41809572260E+01  0.41809572260E+01  0.00000000000E+00 0.  1.
         21    1    1    2  503  502 -0.40916721434E+01  0.20559791278E+02  0.83921814605E+02  0.86500391704E+02  0.00000000000E+00 0.  1.
         21    1    1    2  504  501  0.40916721434E+01 -0.20559791278E+02  0.35100823503E+02  0.40884160856E+02  0.00000000000E+00 0.  1.
<mgrwt>
<rscale>  2 0.20962986E+02</rscale>
<asrwt>0</asrwt>
<pdfrwt beam="1">  1       21 0.18954397E-01 0.20962986E+02</pdfrwt>
<pdfrwt beam="2">  1       21 0.64322428E-03 0.20962986E+02</pdfrwt>
<totfact> 0.12723073E+08</totfact>
</mgrwt>
</event>
<event>
 4    1  0.4556894E+006  0.3107352E+02  0.7546771E-02  0.1586517E+00
         21   -1    0    0  503  501  0.00000000000E+00  0.00000000000E+00  0.11211125291E+04  0.11211125291E+04  0.00000000000E+00 0.  1.
         21   -1    0    0  504  502 -0.00000000000E+00 -0.00000000000E+00 -0.33595439198E+02  0.33595439198E+02  0.00000000000E+00 0.  1.
         21    1    1    2  503  502 -0.30322672880E+02 -0.67896521490E+01  0.11136639369E+04  0.11140973603E+04  0.00000000000E+00 0.  1.
         21    1    1    2  504  501  0.30322672880E+02  0.67896521490E+01 -0.26146847053E+02  0.40610607946E+02  0.00000000000E+00 0.  1.
<mgrwt>
<rscale>  2 0.31073524E+02</rscale>
<asrwt>0</asrwt>
<pdfrwt beam="1">  1       21 0.17247882E+00 0.31073524E+02</pdfrwt>
<pdfrwt beam="2">  1       21 0.51685300E-02 0.31073524E+02</pdfrwt>
<totfact> 0.60947407E+04</totfact>
</mgrwt>
</event>
<event>
 4    1  0.4556894E+006  0.2925408E+02  0.7546771E-02  0.1606483E+00
         21   -1    0    0  502  501  0.00000000000E+00  0.00000000000E+00  0.64095108501E+02  0.64095108501E+02  0.00000000000E+00 0. -1.
         21   -1    0    0  504  502 -0.00000000000E+00 -0.00000000000E+00 -0.21374592345E+02  0.21374592345E+02  0.00000000000E+00 0. -1.
         21    1    1    2  503  501  0.81765867964E+01  0.28088159504E+02  0.47541437073E+02  0.55821049031E+02  0.00000000000E+00 0. -1.
         21    1    1    2  504  503 -0.81765867964E+01 -0.28088159504E+02 -0.48209209174E+01  0.29648651815E+02  0.00000000000E+00 0. -1.
<mgrwt>
<rscale>  2 0.29254081E+02</rscale>
<asrwt>0</asrwt>
<pdfrwt beam="1">  1       21 0.98607858E-02 0.29254081E+02</pdfrwt>
<pdfrwt beam="2">  1       21 0.32883989E-02 0.29254081E+02</pdfrwt>
<totfact> 0.34894495E+07</totfact>
</mgrwt>
</event>
<event>
 4    1  0.4556894E+006  0.2018816E+02  0.7546771E-02  0.1741612E+00
         21   -1    0    0  504  501  0.00000000000E+00  0.00000000000E+00  0.90889385981E+01  0.90889385981E+01  0.00000000000E+00 0. -1.
         21   -1    0    0  501  502 -0.00000000000E+00 -0.00000000000E+00 -0.25101273042E+03  0.25101273042E+03  0.00000000000E+00 0. -1.
         21    1    1    2  503  502 -0.17498180179E+02 -0.10068548319E+02 -0.23882537651E+03  0.23967712123E+03  0.00000000000E+00 0. -1.
         21    1    1    2  504  503  0.17498180179E+02  0.10068548319E+02 -0.30984153066E+01  0.20424547785E+02  0.00000000000E+00 0. -1.
<mgrwt>
<rscale>  2 0.20188164E+02</rscale>
<asrwt>0</asrwt>
<pdfrwt beam="1">  1       21 0.13982983E-02 0.20188164E+02</pdfrwt>
<pdfrwt beam="2">  1       21 0.38617341E-01 0.20188164E+02</pdfrwt>
<totfact> 0.11039955E+07</totfact>
</mgrwt>
</event>
<event>
 4    1  0.4556894E+006  0.2416612E+02  0.7546771E-02  0.1673276E+00
         21   -1    0    0  503  501  0.00000000000E+00  0.00000000000E+00  0.24993116155E+02  0.24993116155E+02  0.00000000000E+00 0. -1.
         21   -1    0    0  504  502 -0.00000000000E+00 -0.00000000000E+00 -0.53604886346E+02  0.53604886346E+02  0.00000000000E+00 0. -1.
         21    1    1    2  503  502  0.18745239835E+02 -0.15251799357E+02  0.15210196396E+02  0.28554359991E+02  0.00000000000E+00 0. -1.
         21    1    1    2  504  501 -0.18745239835E+02  0.15251799357E+02 -0.43821966587E+02  0.50043642510E+02  0.00000000000E+00 0. -1.
<mgrwt>
<rscale>  2 0.24166121E+02</rscale>
<asrwt>0</asrwt>
<pdfrwt beam="1">  1       21 0.38450948E-02 0.24166121E+02</pdfrwt>
<pdfrwt beam="2">  1       21 0.82469055E-02 0.24166121E+02</pdfrwt>
<totfact> 0.35109205E+07</totfact>
</mgrwt>
</event>
<event>
 4    1  0.4556894E+006  0.2070546E+02  0.7546771E-02  0.1731652E+00
         21   -1    0    0  503  501  0.00000000000E+00  0.00000000000E+00  0.63459351547E+01  0.63459351547E+01  0.00000000000E+00 0.  1.
         21   -1    0    0  501  502 -0.00000000000E+00 -0.00000000000E+00 -0.22921783231E+03  0.22921783231E+03  0.00000000000E+00 0. -1.
         21    1    1    2  503  504  0.14919344288E+01 -0.20651639288E+02 -0.12522370890E+02  0.24197641338E+02  0.00000000000E+00 0.  1.
         21    1    1    2  504  502 -0.14919344288E+01  0.20651639288E+02 -0.21034952626E+03  0.21136612612E+03  0.00000000000E+00 0. -1.
<mgrwt>
<rscale>  2 0.20705460E+02</rscale>
<asrwt>0</asrwt>
<pdfrwt beam="1">  1       21 0.97629783E-03 0.20705460E+02</pdfrwt>
<pdfrwt beam="2">  1       21 0.35264278E-01 0.20705460E+02</pdfrwt>
<totfact> 0.22532333E+07</totfact>
</mgrwt>
</event>
<event>
 4    1  0.4556894E+006  0.2218822E+02  0.7546771E-02  0.1705017E+00
         21   -1    0    0  504  501  0.00000000000E+00  0.00000000000E+00  0.38470046185E+02  0.38470046185E+02  0.00000000000E+00 0. -1.
         21   -1    0    0  503  502 -0.00000000000E+00 -0.00000000000E+00 -0.72048619218E+02  0.72048619218E+02  0.00000000000E+00 0. -1.
         21    1    1    2  503  501 -0.91433183101E+01 -0.20216750289E+02 -0.66901245980E+02  0.70484707388E+02  0.00000000000E+00 0. -1.
         21    1    1    2  504  502  0.91433183101E+01  0.20216750289E+02  0.33322672947E+02  0.40033958014E+02  0.00000000000E+00 0. -1.
<mgrwt>
<rscale>  2 0.22188223E+02</rscale>
<asrwt>0</asrwt>
<pdfrwt beam="1">  1       21 0.59184687E-02 0.22188223E+02</pdfrwt>
<pdfrwt beam="2">  1       21 0.11084403E-01 0.22188223E+02</pdfrwt>
<totfact> 0.10657312E+07</totfact>
</mgrwt>
</event>
<event>
 4    1  0.4556894E+006  0.2078829E+02  0.7546771E-02  0.1730092E+00
         21   -1    0    0  504  501  0.00000000000E+00  0.00000000000E+00  0.11307430849E+03  0.11307430849E+03  0.00000000000E+00 0. -1.
         21   -1    0    0  503  502 -0.00000000000E+00 -0.00000000000E+00 -0.61431820978E+01  0.61431820978E+01  0.00000000000E+00 0. -1.
         21    1    1    2  503  501 -0.19757984290E+02  0.64633602259E+01  0.16823325454E+02  0.26742798058E+02  0.00000000000E+00 0. -1.
         21    1    1    2  504  502  0.19757984290E+02 -0.64633602259E+01  0.90107800938E+02  0.92474692530E+02  0.00000000000E+00 0. -1.
<mgrwt>
<rscale>  2 0.20788289E+02</rscale>
<asrwt>0</asrwt>
<pdfrwt beam="1">  1       21 0.17396046E-01 0.20788289E+02</pdfrwt>
<pdfrwt beam="2">  1       21 0.94510502E-03 0.20788289E+02</pdfrwt>
<totfact> 0.83038189E+07</totfact>
</mgrwt>
</event>
<event>
 4    1  0.4556894E+006  0.7799207E+02  0.7546771E-02  0.1334848E+00
         21   -1    0    0  504  501  0.00000000000E+00  0.00000000000E+00  0.49538424461E+02  0.49538424461E+02  0.00000000000E+00 0. -1.
         21   -1    0    0  501  502 -0.00000000000E+00 -0.00000000000E+00 -0.30021166223E+03  0.30021166223E+03  0.00000000000E+00 0. -1.
         21    1    1    2  503  502 -0.65991518760E+02  0.41567809518E+02 -0.25977363202E+03  0.27122887610E+03  0.00000000000E+00 0. -1.
         21    1    1    2  504  503  0.65991518760E+02 -0.41567809518E+02  0.91003942580E+01  0.78521210587E+02  0.00000000000E+00 0. -1.
<mgrwt>
<rscale>  2 0.77992072E+02</rscale>
<asrwt>0</asrwt>
<pdfrwt beam="1">  1       21 0.76212962E-02 0.77992072E+02</pdfrwt>
<pdfrwt beam="2">  1       21 0.46186409E-01 0.77992072E+02</pdfrwt>
<totfact> 0.59064299E+05</totfact>
</mgrwt>
</event>
<event>
 4    1  0.4556894E+006  0.4520174E+02  0.7546771E-02  0.1473086E+00
         21   -1    0    0  502  501  0.00000000000E+00  0.00000000000E+00  0.12026616335E+03  0.12026616335E+03  0.00000000000E+00 0.  1.
         21   -1    0    0  504  502 -0.00000000000E+00 -0.00000000000E+00 -0.19931444083E+02  0.19931444083E+02  0.00000000000E+00 0.  1.
         21    1    1    2  503  501  0.30722018348E+02 -0.33156523453E+02  0.77101184190E+02  0.89374437410E+02  0.00000000000E+00 0.  1.
         21    1    1    2  504  503 -0.30722018348E+02  0.33156523453E+02  0.23233535076E+02  0.50823170021E+02  0.00000000000E+00 0.  1.
<mgrwt>
<rscale>  2 0.45201742E+02</rscale>
<asrwt>0</asrwt>
<pdfrwt beam="1">  1       21 0.18502486E-01 0.45201742E+02</pdfrwt>
<pdfrwt beam="2">  1       21 0.30663761E-02 0.45201742E+02</pdfrwt>
<totfact> 0.14226197E+07</totfact>
</mgrwt>
</event>
<event>
 4    1  0.4556894E+006  0.3270096E+02  0.7546771E-02  0.1570019E+00
         21   -1    0    0  503  501  0.00000000000E+00  0.00000000000E+00  0.11660128457E+03  0.11660128457E+03  0.00000000000E+00 0.  1.
         21   -1    0    0  501  502 -0.00000000000E+00 -0.00000000000E+00 -0.67264421765E+02  0.67264421765E+02  0.00000000000E+00 0. -1.
         21    1    1    2  503  504  0.11025092414E+02  0.30786358984E+02  0.11010453647E+03  0.11485800587E+03  0.00000000000E+00 0.  1.
         21    1    1    2  504  502 -0.11025092414E+02 -0.30786358984E+02 -0.60767673657E+02  0.69007700468E+02  0.00000000000E+00 0. -1.
<mgrwt>
<rscale>  2 0.32700957E+02</rscale>
<asrwt>0</asrwt>
<pdfrwt beam="1">  1       21 0.17938659E-01 0.32700957E+02</pdfrwt>
<pdfrwt beam="2">  1       21 0.10348373E-01 0.32700957E+02</pdfrwt>
<totfact> 0.19826649E+06</totfact>
</mgrwt>
</event>
<event>
 4    1  0.4556894E+006  0.2235206E+02  0.7546771E-02  0.1702233E+00
         21   -1    0    0  504  501  0.00000000000E+00  0.00000000000E+00  0.19489763168E+01  0.19489763168E+01  0.00000000000E+00 0. -1.
         21   -1    0    0  503  502 -0.00000000000E+00 -0.00000000000E+00 -0.25849683029E+03  0.25849683029E+03  0.00000000000E+00 0. -1.
         21    1    1    2  503  501 -0.10256507040E+02  0.19859978668E+02 -0.11639880333E+03  0.11852550825E+03  0.00000000000E+00 0. -1.
         21    1    1    2  504  502  0.10256507040E+02 -0.19859978668E+02 -0.14014905065E+03  0.14192029837E+03  0.00000000000E+00 0. -1.
<mgrwt>
<rscale>  2 0.22352062E+02</rscale>
<asrwt>0</asrwt>
<pdfrwt beam="1">  1       21 0.29984248E-03 0.22352062E+02</pdfrwt>
<pdfrwt beam="2">  1       21 0.39768748E-01 0.22352062E+02</pdfrwt>
<totfact> 0.10466743E+08</totfact>
</mgrwt>
</event>
<event>
 4    1  0.4556894E+006  0.2633750E+02  0.7546771E-02  0.1642502E+00
         21   -1    0    0  504  501  0.00000000000E+00  0.00000000000E+00  0.33962969605E+01  0.33962969605E+01  0.00000000000E+00 0.  1.
         21   -1    0    0  503  502 -0.00000000000E+00 -0.00000000000E+00 -0.62095898016E+03  0.62095898016E+03  0.00000000000E+00 0. -1.
         21    1    1    2  503  501 -0.13234812612E+02  0.22770674219E+02 -0.56451702760E+03  0.56513108066E+03  0.00000000000E+00 0. -1.
         21    1    1    2  504  502  0.13234812612E+02 -0.22770674219E+02 -0.53045655598E+02  0.59224196467E+02  0.00000000000E+00 0.  1.
<mgrwt>
<rscale>  2 0.26337499E+02</rscale>
<asrwt>0</asrwt>
<pdfrwt beam="1">  1       21 0.52250722E-03 0.26337499E+02</pdfrwt>
<pdfrwt beam="2">  1       21 0.95532151E-01 0.26337499E+02</pdfrwt>
<totfact> 0.81668259E+06</totfact>
</mgrwt>
</event>
<event>
 4    1  0.4556894E+006  0.3045235E+02  0.7546771E-02  0.1593142E+00
         21   -1    0    0  504  501  0.00000000000E+00  0.00000000000E+00  0.60162299323E+02  0.60162299323E+02  0.00000000000E+00 0.  1.
         21   -1    0    0  503  502 -0.00000000000E+00 -0.00000000000E+00 -0.18054204033E+02  0.18054204033E+02  0.00000000000E+00 0.  1.
         21    1    1    2  503  501 -0.95492465771E+01  0.28916388567E+02  0.36009259337E+02  0.47159435916E+02  0.00000000000E+00 0.  1.
         21    1    1    2  504  502  0.95492465771E+01 -0.28916388567E+02  0.60988359525E+01  0.31057067440E+02  0.00000000000E+00 0.  1.
<mgrwt>
<rscale>  2 0.30452350E+02</rscale>
<asrwt>0</asrwt>
<pdfrwt beam="1">  1       21 0.92557383E-02 0.30452350E+02</pdfrwt>
<pdfrwt beam="2">  1       21 0.27775699E-02 0.30452350E+02</pdfrwt>
<totfact> 0.51004197E+07</totfact>
</mgrwt>
</event>
<event>
 4    1  0.4556894E+006  0.2438280E+02  0.7546771E-02  0.1670028E+00
         21   -1    0    0  503  501  0.00000000000E+00  0.00000000000E+00  0.79241145934E+00  0.79241145934E+00  0.00000000000E+00 0. -1.
         21   -1    0    0  504  502 -0.00000000000E+00 -0.00000000000E+00 -0.81791037224E+03  0.81791037224E+03  0.00000000000E+00 0. -1.
         21    1    1    2  503  502 -0.23951615235E+02  0.45652223286E+01 -0.29083846520E+03  0.29185875688E+03  0.00000000000E+00 0. -1.
         21    1    1    2  504  501  0.23951615235E+02 -0.45652223286E+01 -0.52627949558E+03  0.52684402682E+03  0.00000000000E+00 0. -1.
<mgrwt>
<rscale>  2 0.24382804E+02</rscale>
<asrwt>0</asrwt>
<pdfrwt beam="1">  1       21 0.12190956E-03 0.24382804E+02</pdfrwt>
<pdfrwt beam="2">  1       21 0.12583225E+00 0.24382804E+02</pdfrwt>
<totfact> 0.36251703E+07</totfact>
</mgrwt>
</event>
<event>
 4    1  0.4556894E+006  0.2208609E+02  0.7546771E-02  0.1706767E+00
         21   -1    0    0  504  501  0.00000000000E+00  0.00000000000E+00  0.13035525717E+01  0.13035525717E+01  0.00000000000E+00 0. -1.
         21   -1    0    0  503  502 -0.00000000000E+00 -0.00000000000E+00 -0.40635858722E+03  0.40635858722E+03  0.00000000000E+00 0.  1.
         21    1    1    2  503  501 -0.21994100825E+02  0.20136774462E+01 -0.25986426890E+03  0.26080113807E+03  0.00000000000E+00 0.  1.
         21    1    1    2  504  502  0.21994100825E+02 -0.20136774462E+01 -0.14519076575E+03  0.14686100172E+03  0.00000000000E+00 0. -1.
<mgrwt>
<rscale>  2 0.22086090E+02</rscale>
<asrwt>0</asrwt>
<pdfrwt beam="1">  1       21 0.20054644E-03 0.22086090E+02</pdfrwt>
<pdfrwt beam="2">  1       21 0.62516740E-01 0.22086090E+02</pdfrwt>
<totfact> 0.77644568E+07</totfact>
</mgrwt>
</event>
<event>
 4    1  0.4556894E+006  0.2311550E+02  0.7546771E-02  0.1689645E+00
         21   -1    0    0  502  501  0.00000000000E+00  0.00000000000E+00  0.22655742154E+01  0.22655742154E+01  0.00000000000E+00 0.  1.
         21   -1    0    0  503  502 -0.00000000000E+00 -0.00000000000E+00 -0.23879627970E+03  0.23879627970E+03  0.00000000000E+00 0.  1.
         21    1    1    2  503  504  0.16552295257E+01  0.23056161475E+02 -0.13166287307E+03  0.13367661916E+03  0.00000000000E+00 0.  1.
         21    1    1    2  504  501 -0.16552295257E+01 -0.23056161475E+02 -0.10486783242E+03  0.10738523476E+03  0.00000000000E+00 0.  1.
<mgrwt>
<rscale>  2 0.23115501E+02</rscale>
<asrwt>0</asrwt>
<pdfrwt beam="1">  1       21 0.34855016E-03 0.23115501E+02</pdfrwt>
<pdfrwt beam="2">  1       21 0.36737859E-01 0.23115501E+02</pdfrwt>
<totfact> 0.98345720E+07</totfact>
</mgrwt>
</event>
<event>
 4    1  0.4556894E+006  0.2013399E+02  0.7546771E-02  0.1742677E+00
         21   -1    0    0  502  501  0.00000000000E+00  0.00000000000E+00  0.16875331204E+03  0.16875331204E+03  0.00000000000E+00 0.  1.
         21   -1    0    0  503  502 -0.00000000000E+00 -0.00000000000E+00 -0.15918458653E+02  0.15918458653E+02  0.00000000000E+00 0.  1.
         21    1    1    2  503  504 -0.16935621742E+02 -0.10888628537E+02 -0.86666751662E+01  0.21920054143E+02  0.00000000000E+00 0.  1.
         21    1    1    2  504  501  0.16935621742E+02  0.10888628537E+02  0.16150152855E+03  0.16275171655E+03  0.00000000000E+00 0.  1.
<mgrwt>
<rscale>  2 0.20133989E+02</rscale>
<asrwt>0</asrwt>
<pdfrwt beam="1">  1       21 0.25962047E-01 0.20133989E+02</pdfrwt>
<pdfrwt beam="2">  1       21 0.24489937E-02 0.20133989E+02</pdfrwt>
<totfact> 0.96821092E+06</totfact>
</mgrwt>
</event>
<event>
 4    1  0.4556894E+006  0.3376362E+02  0.7546771E-02  0.1559862E+00
         21   -1    0    0  503  501  0.00000000000E+00  0.00000000000E+00  0.20653725613E+01  0.20653725613E+01  0.00000000000E+00 0. -1.
         21   -1    0    0  504  502 -0.00000000000E+00 -0.00000000000E+00 -0.14605108177E+04  0.14605108177E+04  0.00000000000E+00 0. -1.
         21    1    1    2  503  502  0.30994497138E+02  0.13391164189E+02 -0.13060066444E+04  0.13064430096E+04  0.00000000000E+00 0. -1.
         21    1    1    2  504  501 -0.30994497138E+02 -0.13391164189E+02 -0.15243880078E+03  0.15613318069E+03  0.00000000000E+00 0. -1.
<mgrwt>
<rscale>  2 0.33763621E+02</rscale>
<asrwt>0</asrwt>
<pdfrwt beam="1">  1       21 0.31774819E-03 0.33763621E+02</pdfrwt>
<pdfrwt beam="2">  1       21 0.22469499E+00 0.33763621E+02</pdfrwt>
<totfact> 0.21919910E+06</totfact>
</mgrwt>
</event>
<event>
 4    1  0.4556894E+006  0.5301191E+02  0.7546771E-02  0.1429742E+00
         21   -1    0    0  503  501  0.00000000000E+00  0.00000000000E+00  0.22399941390E+03  0.22399941390E+03  0.00000000000E+00 0. -1.
         21   -1    0    0  504  502 -0.00000000000E+00 -0.00000000000E+00 -0.32189069234E+03  0.32189069234E+03  0.00000000000E+00 0. -1.
         21    1    1    2  503  502 -0.22043546959E+02 -0.48211453140E+02  0.21862746710E+03  0.22496273368E+03  0.00000000000E+00 0. -1.
         21    1    1    2  504  501  0.22043546959E+02  0.48211453140E+02 -0.31651874554E+03  0.32092737256E+03  0.00000000000E+00 0. -1.
<mgrwt>
<rscale>  2 0.53011906E+02</rscale>
<asrwt>0</asrwt>
<pdfrwt beam="1">  1       21 0.34461448E-01 0.53011906E+02</pdfrwt>
<pdfrwt beam="2">  1       21 0.49521645E-01 0.53011906E+02</pdfrwt>
<totfact> 0.35061848E+04</totfact>
</mgrwt>
</event>
<event>
 4    1  0.4556894E+006  0.3229477E+02  0.7546771E-02  0.1574025E+00
         21   -1    0    0  504  501  0.00000000000E+00  0.00000000000E+00  0.13007335092E+03  0.13007335092E+03  0.00000000000E+00 0. -1.
         21   -1    0    0  503  502 -0.00000000000E+00 -0.00000000000E+00 -0.30707196169E+02  0.30707196169E+02  0.00000000000E+00 0.  1.
         21    1    1    2  503  501  0.82070686998E-01  0.32294668315E+02 -0.19419015105E+02  0.37683557221E+02  0.00000000000E+00 0.  1.
         21    1    1    2  504  502 -0.82070686998E-01 -0.32294668315E+02  0.11878516986E+03  0.12309698987E+03  0.00000000000E+00 0. -1.
<mgrwt>
<rscale>  2 0.32294773E+02</rscale>
<asrwt>0</asrwt>
<pdfrwt beam="1">  1       21 0.20011284E-01 0.32294773E+02</pdfrwt>
<pdfrwt beam="2">  1       21 0.47241841E-02 0.32294773E+02</pdfrwt>
<totfact> 0.59190934E+06</totfact>
</mgrwt>
</event>
<event>
 4    1  0.4556894E+006  0.2021004E+02  0.7546771E-02  0.1741183E+00
         21   -1    0    0  504  501  0.00000000000E+00  0.00000000000E+00  0.76997427865E+01  0.76997427865E+01  0.00000000000E+00 0.  1.
         21   -1    0    0  503  502 -0.00000000000E+00 -0.00000000000E+00 -0.72954218919E+03  0.72954218919E+03  0.00000000000E+00 0.  1.
         21    1    1    2  503  501 -0.32872559661E+01 -0.19940902330E+02 -0.71588766095E+03  0.71617287630E+03  0.00000000000E+00 0.  1.
         21    1    1    2  504  502  0.32872559661E+01  0.19940902330E+02 -0.59547854505E+01  0.21069055680E+02  0.00000000000E+00 0.  1.
<mgrwt>
<rscale>  2 0.20210038E+02</rscale>
<asrwt>0</asrwt>
<pdfrwt beam="1">  1       21 0.11845752E-02 0.20210038E+02</pdfrwt>
<pdfrwt beam="2">  1       21 0.11223731E+00 0.20210038E+02</pdfrwt>
<totfact> 0.16319485E+06</totfact>
</mgrwt>
</event>
<event>
 4    1  0.4556894E+006  0.2000889E+02  0.7546771E-02  0.1745151E+00
         21   -1    0    0  504  501  0.00000000000E+00  0.00000000000E+00  0.36170784651E+03  0.36170784651E+03  0.00000000000E+00 0. -1.
         21   -1    0    0  503  502 -0.00000000000E+00 -0.00000000000E+00 -0.19081107749E+01  0.19081107749E+01  0.00000000000E+00 0. -1.
         21    1    1    2  503  501 -0.18740817016E+02  0.70098228415E+01  0.62085446195E+02  0.65230042679E+02  0.00000000000E+00 0. -1.
         21    1    1    2  504  502  0.18740817016E+02 -0.70098228415E+01  0.29771428954E+03  0.29838591461E+03  0.00000000000E+00 0. -1.
<mgrwt>
<rscale>  2 0.20008894E+02</rscale>
<asrwt>0</asrwt>
<pdfrwt beam="1">  1       21 0.55647307E-01 0.20008894E+02</pdfrwt>
<pdfrwt beam="2">  1       21 0.29355579E-03 0.20008894E+02</pdfrwt>
<totfact> 0.55016373E+07</totfact>
</mgrwt>
</event>
<event>
 4    1  0.4556894E+006  0.2262853E+02  0.7546771E-02  0.1697603E+00
         21   -1    0    0  503  501  0.00000000000E+00  0.00000000000E+00  0.10724507964E+04  0.10724507964E+04  0.00000000000E+00 0.  1.
         21   -1    0    0  504  502 -0.00000000000E+00 -0.00000000000E+00 -0.48353152978E+00  0.48353152978E+00  0.00000000000E+00 0.  1.
         21    1    1    2  503  502 -0.62412489117E+01 -0.21750799517E+02  0.47586033132E+03  0.47639805352E+03  0.00000000000E+00 0.  1.
         21    1    1    2  504  501  0.62412489117E+01  0.21750799517E+02  0.59610693357E+03  0.59653627443E+03  0.00000000000E+00 0.  1.
<mgrwt>
<rscale>  2 0.22628532E+02</rscale>
<asrwt>0</asrwt>
<pdfrwt beam="1">  1       21 0.16499053E+00 0.22628532E+02</pdfrwt>
<pdfrwt beam="2">  1       21 0.74390325E-04 0.22628532E+02</pdfrwt>
<totfact> 0.38152027E+07</totfact>
</mgrwt>
</event>
<event>
 4    1  0.4556894E+006  0.2548820E+02  0.7546771E-02  0.1654087E+00
         21   -1    0    0  503  501  0.00000000000E+00  0.00000000000E+00  0.11080015317E+01  0.11080015317E+01  0.00000000000E+00 0.  1.
         21   -1    0    0  504  502 -0.00000000000E+00 -0.00000000000E+00 -0.62933362145E+03  0.62933362145E+03  0.00000000000E+00 0.  1.
         21    1    1    2  503  502 -0.39726570551E+01  0.25176699863E+02 -0.39651821948E+03  0.39733656590E+03  0.00000000000E+00 0.  1.
         21    1    1    2  504  501  0.39726570551E+01 -0.25176699863E+02 -0.23170740044E+03  0.23310505708E+03  0.00000000000E+00 0.  1.
<mgrwt>
<rscale>  2 0.25488198E+02</rscale>
<asrwt>0</asrwt>
<pdfrwt beam="1">  1       21 0.17046103E-03 0.25488198E+02</pdfrwt>
<pdfrwt beam="2">  1       21 0.96820977E-01 0.25488198E+02</pdfrwt>
<totfact> 0.40603920E+07</totfact>
</mgrwt>
</event>
<event>
 4    1  0.4556894E+006  0.2546885E+02  0.7546771E-02  0.1654358E+00
         21   -1    0    0  502  501  0.00000000000E+00  0.00000000000E+00  0.18598832040E+02  0.18598832040E+02  0.00000000000E+00 0.  1.
         21   -1    0    0  503  502 -0.00000000000E+00 -0.00000000000E+00 -0.57909843727E+02  0.57909843727E+02  0.00000000000E+00 0. -1.
         21    1    1    2  503  504  0.25364302053E+02 -0.23052676817E+01 -0.43781378540E+02  0.50650480596E+02  0.00000000000E+00 0. -1.
         21    1    1    2  504  501 -0.25364302053E+02  0.23052676817E+01  0.44703668528E+01  0.25858195171E+02  0.00000000000E+00 0.  1.
<mgrwt>
<rscale>  2 0.25468845E+02</rscale>
<asrwt>0</asrwt>
<pdfrwt beam="1">  1       21 0.28613588E-02 0.25468845E+02</pdfrwt>
<pdfrwt beam="2">  1       21 0.89092066E-02 0.25468845E+02</pdfrwt>
<totfact> 0.49763495E+07</totfact>
</mgrwt>
</event>
<event>
 4    1  0.4556894E+006  0.2175272E+02  0.7546771E-02  0.1712564E+00
         21   -1    0    0  502  501  0.00000000000E+00  0.00000000000E+00  0.18853089969E+02  0.18853089969E+02  0.00000000000E+00 0.  1.
         21   -1    0    0  504  502 -0.00000000000E+00 -0.00000000000E+00 -0.49436100688E+02  0.49436100688E+02  0.00000000000E+00 0. -1.
         21    1    1    2  503  501  0.14630352200E+02  0.16097622605E+02  0.86659374180E+01  0.23415360991E+02  0.00000000000E+00 0.  1.
         21    1    1    2  504  503 -0.14630352200E+02 -0.16097622605E+02 -0.39248948137E+02  0.44873829665E+02  0.00000000000E+00 0. -1.
<mgrwt>
<rscale>  2 0.21752716E+02</rscale>
<asrwt>0</asrwt>
<pdfrwt beam="1">  1       21 0.29004754E-02 0.21752716E+02</pdfrwt>
<pdfrwt beam="2">  1       21 0.76055539E-02 0.21752716E+02</pdfrwt>
<totfact> 0.60597426E+07</totfact>
</mgrwt>
</event>
<event>
 4    1  0.4556894E+006  0.2296394E+02  0.7546771E-02  0.1692095E+00
         21   -1    0    0  502  501  0.00000000000E+00  0.00000000000E+00  0.14167072281E+03  0.14167072281E+03  0.00000000000E+00 0.  1.
         21   -1    0    0  504  502 -0.00000000000E+00 -0.00000000000E+00 -0.18969464122E+02  0.18969464122E+02  0.00000000000E+00 0.  1.
         21    1    1    2  503  501 -0.20155055754E+02 -0.11005284719E+02  0.13336033693E+03  0.13532302846E+03  0.00000000000E+00 0.  1.
         21    1    1    2  504  503  0.20155055754E+02  0.11005284719E+02 -0.10659078244E+02  0.25317158474E+02  0.00000000000E+00 0.  1.
<mgrwt>
<rscale>  2 0.22963941E+02</rscale>
<asrwt>0</asrwt>
<pdfrwt beam="1">  1       21 0.21795495E-01 0.22963941E+02</pdfrwt>
<pdfrwt beam="2">  1       21 0.29183792E-02 0.22963941E+02</pdfrwt>
<totfact> 0.10319841E+07</totfact>
</mgrwt>
</event>
<event>
 4    1  0.4556894E+006  0.3175242E+02  0.7546771E-02  0.1579488E+00
         21   -1    0    0  504  501  0.00000000000E+00  0.00000000000E+00  0.66181436894E+02  0.66181436894E+02  0.00000000000E+00 0.  1.
         21   -1    0    0  503  502 -0.00000000000E+00 -0.00000000000E+00 -0.17012963791E+02  0.17012963791E+02  0.00000000000E+00 0.  1.
         21    1    1    2  503  501  0.27623263436E+02  0.15657961914E+02  0.11133623101E+02  0.33647793650E+02  0.00000000000E+00 0.  1.
         21    1    1    2  504  502 -0.27623263436E+02 -0.15657961914E+02  0.38034850002E+02  0.49546607036E+02  0.00000000000E+00 0.  1.
<mgrwt>
<rscale>  2 0.31752424E+02</rscale>
<asrwt>0</asrwt>
<pdfrwt beam="1">  1       21 0.10181759E-01 0.31752424E+02</pdfrwt>
<pdfrwt beam="2">  1       21 0.26173791E-02 0.31752424E+02</pdfrwt>
<totfact> 0.48165126E+07</totfact>
</mgrwt>
</event>
<event>
 4    1  0.4556894E+006  0.3610337E+02  0.7546771E-02  0.1539015E+00
         21   -1    0    0  503  501  0.00000000000E+00  0.00000000000E+00  0.21732855740E+02  0.21732855740E+02  0.00000000000E+00 0.  1.
         21   -1    0    0  504  502 -0.00000000000E+00 -0.00000000000E+00 -0.10742174714E+03  0.10742174714E+03  0.00000000000E+00 0. -1.
         21    1    1    2  503  502  0.34582402917E+02  0.10368732291E+02  0.72786556962E-01  0.36103441647E+02  0.00000000000E+00 0.  1.
         21    1    1    2  504  501 -0.34582402917E+02 -0.10368732291E+02 -0.85761677957E+02  0.93051161234E+02  0.00000000000E+00 0. -1.
<mgrwt>
<rscale>  2 0.36103368E+02</rscale>
<asrwt>0</asrwt>
<pdfrwt beam="1">  1       21 0.33435163E-02 0.36103368E+02</pdfrwt>
<pdfrwt beam="2">  1       21 0.16526422E-01 0.36103368E+02</pdfrwt>
<totfact> 0.14637358E+07</totfact>
</mgrwt>
</event>
<event>
 4    1  0.4556894E+006  0.2132419E+02  0.7546771E-02  0.1720209E+00
         21   -1    0    0  502  501  0.00000000000E+00  0.00000000000E+00  0.72426019669E+02  0.72426019669E+02  0.00000000000E+00 0. -1.
         21   -1    0    0  503  502 -0.00000000000E+00 -0.00000000000E+00 -0.68332437874E+01  0.68332437874E+01  0.00000000000E+00 0.  1.
         21    1    1    2  503  504 -0.19973538006E+02  0.74685328029E+01  0.21504076177E+02  0.30284426608E+02  0.00000000000E+00 0.  1.
         21    1    1    2  504  501  0.19973538006E+02 -0.74685328029E+01  0.44088699705E+02  0.48974836849E+02  0.00000000000E+00 0. -1.
<mgrwt>
<rscale>  2 0.21324193E+02</rscale>
<asrwt>0</asrwt>
<pdfrwt beam="1">  1       21 0.11142464E-01 0.21324193E+02</pdfrwt>
<pdfrwt beam="2">  1       21 0.10512683E-02 0.21324193E+02</pdfrwt>
<totfact> 0.15123622E+08</totfact>
</mgrwt>
</event>
<event>
 4    1  0.4556894E+006  0.2332774E+02  0.7546771E-02  0.1686252E+00
         21   -1    0    0  504  501  0.00000000000E+00  0.00000000000E+00  0.38974132274E+01  0.38974132274E+01  0.00000000000E+00 0.  1.
         21   -1    0    0  501  502 -0.00000000000E+00 -0.00000000000E+00 -0.15530870898E+03  0.15530870898E+03  0.00000000000E+00 0.  1.
         21    1    1    2  503  502 -0.20175608156E+02 -0.11710171253E+02 -0.10100046527E+03  0.10365942919E+03  0.00000000000E+00 0.  1.
         21    1    1    2  504  503  0.20175608156E+02  0.11710171253E+02 -0.50410830481E+02  0.55546693016E+02  0.00000000000E+00 0.  1.
<mgrwt>
<rscale>  2 0.23327736E+02</rscale>
<asrwt>0</asrwt>
<pdfrwt beam="1">  1       21 0.59960200E-03 0.23327736E+02</pdfrwt>
<pdfrwt beam="2">  1       21 0.23893649E-01 0.23327736E+02</pdfrwt>
<totfact> 0.96965910E+07</totfact>
</mgrwt>
</event>
<event>
 4    1  0.4556894E+006  0.2100818E+02  0.7546771E-02  0.1725992E+00
         21   -1    0    0  504  501  0.00000000000E+00  0.00000000000E+00  0.14837966281E+03  0.14837966281E+03  0.00000000000E+00 0.  1.
         21   -1    0    0  503  502 -0.00000000000E+00 -0.00000000000E+00 -0.11450025906E+02  0.11450025906E+02  0.00000000000E+00 0.  1.
         21    1    1    2  503  501 -0.20997576727E+02 -0.66731402297E+00  0.13722065707E+03  0.13881949526E+03  0.00000000000E+00 0.  1.
         21    1    1    2  504  502  0.20997576727E+02  0.66731402297E+00 -0.29102016786E+00  0.21010193458E+02  0.00000000000E+00 0.  1.
<mgrwt>
<rscale>  2 0.21008178E+02</rscale>
<asrwt>0</asrwt>
<pdfrwt beam="1">  1       21 0.22827639E-01 0.21008178E+02</pdfrwt>
<pdfrwt beam="2">  1       21 0.17615426E-02 0.21008178E+02</pdfrwt>
<totfact> 0.20306564E+07</totfact>
</mgrwt>
</event>
<event>
 4    1  0.4556894E+006  0.2298908E+02  0.7546771E-02  0.1691687E+00
         21   -1    0    0  502  501  0.00000000000E+00  0.00000000000E+00  0.47139731070E+01  0.47139731070E+01  0.00000000000E+00 0. -1.
         21   -1    0    0  503  502 -0.00000000000E+00 -0.00000000000E+00 -0.16525076462E+03  0.16525076462E+03  0.00000000000E+00 0.  1.
         21    1    1    2  503  504  0.19108378469E+02 -0.12781542587E+02 -0.12845856832E+03  0.13049943193E+03  0.00000000000E+00 0.  1.
         21    1    1    2  504  501 -0.19108378469E+02  0.12781542587E+02 -0.32078223194E+02  0.39465305800E+02  0.00000000000E+00 0. -1.
<mgrwt>
<rscale>  2 0.22989083E+02</rscale>
<asrwt>0</asrwt>
<pdfrwt beam="1">  1       21 0.72522668E-03 0.22989083E+02</pdfrwt>
<pdfrwt beam="2">  1       21 0.25423193E-01 0.22989083E+02</pdfrwt>
<totfact> 0.65196799E+07</totfact>
</mgrwt>
</event>
<event>
 4    1  0.4556894E+006  0.2580046E+02  0.7546771E-02  0.1649764E+00
         21   -1    0    0  503  501  0.00000000000E+00  0.00000000000E+00  0.63945294932E+01  0.63945294932E+01  0.00000000000E+00 0.  1.
         21   -1    0    0  504  502 -0.00000000000E+00 -0.00000000000E+00 -0.13813248524E+03  0.13813248524E+03  0.00000000000E+00 0.  1.
         21    1    1    2  503  502  0.24857704359E+02  0.69107301577E+01 -0.29999520725E+02  0.39568104592E+02  0.00000000000E+00 0.  1.
         21    1    1    2  504  501 -0.24857704359E+02 -0.69107301577E+01 -0.10173843502E+03  0.10495891014E+03  0.00000000000E+00 0.  1.
<mgrwt>
<rscale>  2 0.25800458E+02</rscale>
<asrwt>0</asrwt>
<pdfrwt beam="1">  1       21 0.98377385E-03 0.25800458E+02</pdfrwt>
<pdfrwt beam="2">  1       21 0.21251150E-01 0.25800458E+02</pdfrwt>
<totfact> 0.58394498E+07</totfact>
</mgrwt>
</event>
<event>
 4    1  0.4556894E+006  0.2943450E+02  0.7546771E-02  0.1604425E+00
         21   -1    0    0  504  501  0.00000000000E+00  0.00000000000E+00  0.18483303770E+01  0.18483303770E+01  0.00000000000E+00 0. -1.
         21   -1    0    0  503  502 -0.00000000000E+00 -0.00000000000E+00 -0.50103050292E+03  0.50103050292E+03  0.00000000000E+00 0. -1.
         21    1    1    2  503  501  0.25648436547E+02  0.14441181340E+02 -0.18576099632E+03  0.18807854149E+03  0.00000000000E+00 0. -1.
         21    1    1    2  504  502 -0.25648436547E+02 -0.14441181340E+02 -0.31342117622E+03  0.31480029180E+03  0.00000000000E+00 0. -1.
<mgrwt>
<rscale>  2 0.29434504E+02</rscale>
<asrwt>0</asrwt>
<pdfrwt beam="1">  1       21 0.28435856E-03 0.29434504E+02</pdfrwt>
<pdfrwt beam="2">  1       21 0.77081605E-01 0.29434504E+02</pdfrwt>
<totfact> 0.32308845E+07</totfact>
</mgrwt>
</event>
<event>
 4    1  0.4556894E+006  0.2201428E+02  0.7546771E-02  0.1708005E+00
         21   -1    0    0  503  501  0.00000000000E+00  0.00000000000E+00  0.61885426900E+00  0.61885426900E+00  0.00000000000E+00 0.  1.
         21   -1    0    0  504  502 -0.00000000000E+00 -0.00000000000E+00 -0.89292199058E+03  0.89292199058E+03  0.00000000000E+00 0.  1.
         21    1    1    2  503  502 -0.14149036974E+02 -0.16865148629E+02 -0.60283045020E+03  0.60323227713E+03  0.00000000000E+00 0.  1.
         21    1    1    2  504  501  0.14149036974E+02  0.16865148629E+02 -0.28947268611E+03  0.29030856772E+03  0.00000000000E+00 0.  1.
<mgrwt>
<rscale>  2 0.22014279E+02</rscale>
<asrwt>0</asrwt>
<pdfrwt beam="1">  1       21 0.95207649E-04 0.22014279E+02</pdfrwt>
<pdfrwt beam="2">  1       21 0.13737362E+00 0.22014279E+02</pdfrwt>
<totfact> 0.41288111E+07</totfact>
</mgrwt>
</event>
<event>
 4    1  0.4556894E+006  0.2188717E+02  0.7546771E-02  0.1710211E+00
         21   -1    0    0  503  501  0.00000000000E+00  0.00000000000E+00  0.20153082786E+02  0.20153082786E+02  0.00000000000E+00 0.  1.
         21   -1    0    0  504  502 -0.00000000000E+00 -0.00000000000E+00 -0.37165596622E+02  0.37165596622E+02  0.00000000000E+00 0.  1.
         21    1    1    2  503  502 -0.16682918168E+02 -0.14167869676E+02 -0.25711824557E+02  0.33766051173E+02  0.00000000000E+00 0.  1.
         21    1    1    2  504  501  0.16682918168E+02  0.14167869676E+02  0.86993107218E+01  0.23552628235E+02  0.00000000000E+00 0.  1.
<mgrwt>
<rscale>  2 0.21887172E+02</rscale>
<asrwt>0</asrwt>
<pdfrwt beam="1">  1       21 0.31004743E-02 0.21887172E+02</pdfrwt>
<pdfrwt beam="2">  1       21 0.57177841E-02 0.21887172E+02</pdfrwt>
<totfact> 0.86654942E+07</totfact>
</mgrwt>
</event>
<event>
 4    1  0.4556894E+006  0.3083365E+02  0.7546771E-02  0.1589052E+00
         21   -1    0    0  503  501  0.00000000000E+00  0.00000000000E+00  0.17074206450E+03  0.17074206450E+03  0.00000000000E+00 0. -1.
         21   -1    0    0  504  502 -0.00000000000E+00 -0.00000000000E+00 -0.86999165097E+01  0.86999165097E+01  0.00000000000E+00 0.  1.
         21    1    1    2  503  502 -0.12976568636E+02 -0.27970026643E+02  0.13485210631E+03  0.13833222438E+03  0.00000000000E+00 0. -1.
         21    1    1    2  504  501  0.12976568636E+02  0.27970026643E+02  0.27190041675E+02  0.41109756631E+02  0.00000000000E+00 0.  1.
<mgrwt>
<rscale>  2 0.30833646E+02</rscale>
<asrwt>0</asrwt>
<pdfrwt beam="1">  1       21 0.26268008E-01 0.30833646E+02</pdfrwt>
<pdfrwt beam="2">  1       21 0.13384488E-02 0.30833646E+02</pdfrwt>
<totfact> 0.26014142E+07</totfact>
</mgrwt>
</event>
<event>
 4    1  0.4556894E+006  0.2050877E+02  0.7546771E-02  0.1735396E+00
         21   -1    0    0  502  501  0.00000000000E+00  0.00000000000E+00  0.96143425351E+01  0.96143425351E+01  0.00000000000E+00 0. -1.
         21   -1    0    0  503  502 -0.00000000000E+00 -0.00000000000E+00 -0.32250988863E+03  0.32250988863E+03  0.00000000000E+00 0. -1.
         21    1    1    2  503  504  0.20497689452E+02 -0.67410924210E+00 -0.31083651605E+03  0.31151235836E+03  0.00000000000E+00 0. -1.
         21    1    1    2  504  501 -0.20497689452E+02  0.67410924210E+00 -0.20590300449E+01  0.20611872813E+02  0.00000000000E+00 0. -1.
<mgrwt>
<rscale>  2 0.20508771E+02</rscale>
<asrwt>0</asrwt>
<pdfrwt beam="1">  1       21 0.14791299E-02 0.20508771E+02</pdfrwt>
<pdfrwt beam="2">  1       21 0.49616897E-01 0.20508771E+02</pdfrwt>
<totfact> 0.63212937E+06</totfact>
</mgrwt>
</event>
<event>
 4    1  0.4556894E+006  0.2283230E+02  0.7546771E-02  0.1694243E+00
         21   -1    0    0  503  501  0.00000000000E+00  0.00000000000E+00  0.68455761995E+01  0.68455761995E+01  0.00000000000E+00 0. -1.
         21   -1    0    0  504  502 -0.00000000000E+00 -0.00000000000E+00 -0.10016424772E+03  0.10016424772E+03  0.00000000000E+00 0. -1.
         21    1    1    2  503  502  0.22774828383E+02 -0.16189357406E+01 -0.20462959419E+02  0.30660177250E+02  0.00000000000E+00 0. -1.
         21    1    1    2  504  501 -0.22774828383E+02  0.16189357406E+01 -0.72855712102E+02  0.76349646671E+02  0.00000000000E+00 0. -1.
<mgrwt>
<rscale>  2 0.22832296E+02</rscale>
<asrwt>0</asrwt>
<pdfrwt beam="1">  1       21 0.10531656E-02 0.22832296E+02</pdfrwt>
<pdfrwt beam="2">  1       21 0.15409884E-01 0.22832296E+02</pdfrwt>
<totfact> 0.89159444E+07</totfact>
</mgrwt>
</event>
<event>
 4    1  0.4556894E+006  0.2294114E+02  0.7546771E-02  0.1692466E+00
         21   -1    0    0  504  501  0.00000000000E+00  0.00000000000E+00  0.58183067896E+01  0.58183067896E+01  0.00000000000E+00 0.  1.
         21   -1    0    0  503  502 -0.00000000000E+00 -0.00000000000E+00 -0.11057996381E+03  0.11057996381E+03  0.00000000000E+00 0.  1.
         21    1    1    2  503  501 -0.11728128459E+02 -0.19716661424E+02 -0.77208980292E+02  0.80545157351E+02  0.00000000000E+00 0.  1.
         21    1    1    2  504  502  0.11728128459E+02  0.19716661424E+02 -0.27552676733E+02  0.35853113254E+02  0.00000000000E+00 0.  1.
<mgrwt>
<rscale>  2 0.22941136E+02</rscale>
<asrwt>0</asrwt>
<pdfrwt beam="1">  1       21 0.89512410E-03 0.22941136E+02</pdfrwt>
<pdfrwt beam="2">  1       21 0.17012302E-01 0.22941136E+02</pdfrwt>
<totfact> 0.96185582E+07</totfact>
</mgrwt>
</event>
<event>
 4    1  0.4556894E+006  0.2647565E+02  0.7546771E-02  0.1640669E+00
         21   -1    0    0  503  501  0.00000000000E+00  0.00000000000E+00  0.11312213652E+04  0.11312213652E+04  0.00000000000E+00 0. -1.
         21   -1    0    0  501  502 -0.00000000000E+00 -0.00000000000E+00 -0.45979433272E+01  0.45979433272E+01  0.00000000000E+00 0. -1.
         21    1    1    2  503  504  0.23777477819E+02 -0.11644377427E+02  0.10915695008E+04  0.10918905325E+04  0.00000000000E+00 0. -1.
         21    1    1    2  504  502 -0.23777477819E+02  0.11644377427E+02  0.35053921077E+02  0.43928775989E+02  0.00000000000E+00 0. -1.
<mgrwt>
<rscale>  2 0.26475649E+02</rscale>
<asrwt>0</asrwt>
<pdfrwt beam="1">  1       21 0.17403383E+00 0.26475649E+02</pdfrwt>
<pdfrwt beam="2">  1       21 0.70737680E-03 0.26475649E+02</pdfrwt>
<totfact> 0.12941182E+06</totfact>
</mgrwt>
</event>
<event>
 4    1  0.4556894E+006  0.2001558E+02  0.7546771E-02  0.1745019E+00
         21   -1    0    0  504  501  0.00000000000E+00  0.00000000000E+00  0.39053316052E+02  0.39053316052E+02  0.00000000000E+00 0. -1.
         21   -1    0    0  503  502 -0.00000000000E+00 -0.00000000000E+00 -0.10335320880E+03  0.10335320880E+03  0.00000000000E+00 0. -1.
         21    1    1    2  503  501 -0.11688975410E+02  0.16247804130E+02  0.35427335193E+02  0.40690531627E+02  0.00000000000E+00 0. -1.
         21    1    1    2  504  502  0.11688975410E+02 -0.16247804130E+02 -0.99727227945E+02  0.10171599323E+03  0.00000000000E+00 0. -1.
<mgrwt>
<rscale>  2 0.20015576E+02</rscale>
<asrwt>0</asrwt>
<pdfrwt beam="1">  1       21 0.60082024E-02 0.20015576E+02</pdfrwt>
<pdfrwt beam="2">  1       21 0.15900494E-01 0.20015576E+02</pdfrwt>
<totfact> 0.55637775E+06</totfact>
</mgrwt>
</event>
<event>
 4    1  0.4556894E+006  0.2623213E+02  0.7546771E-02  0.1643910E+00
         21   -1    0    0  504  501  0.00000000000E+00  0.00000000000E+00  0.92538575716E+03  0.92538575716E+03  0.00000000000E+00 0. -1.
         21   -1    0    0  503  502 -0.00000000000E+00 -0.00000000000E+00 -0.92055136417E+00  0.92055136417E+00  0.00000000000E+00 0. -1.
         21    1    1    2  503  501  0.76917333205E+01 -0.25079110780E+02  0.66528931334E+03  0.66580627438E+03  0.00000000000E+00 0. -1.
         21    1    1    2  504  502 -0.76917333205E+01  0.25079110780E+02  0.25917589245E+03  0.26050003414E+03  0.00000000000E+00 0. -1.
<mgrwt>
<rscale>  2 0.26232128E+02</rscale>
<asrwt>0</asrwt>
<pdfrwt beam="1">  1       21 0.14236630E+00 0.26232128E+02</pdfrwt>
<pdfrwt beam="2">  1       21 0.14162403E-03 0.26232128E+02</pdfrwt>
<totfact> 0.22219506E+07</totfact>
</mgrwt>
</event>
<event>
 4    1  0.4556894E+006  0.2003330E+02  0.7546771E-02  0.1744667E+00
         21   -1    0    0  504  501  0.00000000000E+00  0.00000000000E+00  0.37721618837E+02  0.37721618837E+02  0.00000000000E+00 0. -1.
         21   -1    0    0  503  502 -0.00000000000E+00 -0.00000000000E+00 -0.16002700068E+02  0.16002700068E+02  0.00000000000E+00 0. -1.
         21    1    1    2  503  501 -0.55346389965E+01  0.19253594700E+02 -0.46916994394E+01  0.20575353735E+02  0.00000000000E+00 0. -1.
         21    1    1    2  504  502  0.55346389965E+01 -0.19253594700E+02  0.26410618209E+02  0.33148965170E+02  0.00000000000E+00 0. -1.
<mgrwt>
<rscale>  2 0.20033301E+02</rscale>
<asrwt>0</asrwt>
<pdfrwt beam="1">  1       21 0.58033259E-02 0.20033301E+02</pdfrwt>
<pdfrwt beam="2">  1       21 0.24619539E-02 0.20033301E+02</pdfrwt>
<totfact> 0.11776215E+08</totfact>
</mgrwt>
</event>
<event>
 4    1  0.4556894E+006  0.2637340E+02  0.7546771E-02  0.1642024E+00
         21   -1    0    0  502  501  0.00000000000E+00  0.00000000000E+00  0.28963931183E+01  0.28963931183E+01  0.00000000000E+00 0.  1.
         21   -1    0    0  503  502 -0.00000000000E+00 -0.00000000000E+00 -0.24626407433E+03  0.24626407433E+03  0.00000000000E+00 0.  1.
         21    1    1    2  503  504  0.16199618095E+02  0.20811747829E+02 -0.14132038878E+03  0.14376024749E+03  0.00000000000E+00 0.  1.
         21    1    1    2  504  501 -0.16199618095E+02 -0.20811747829E+02 -0.10204729243E+03  0.10540021995E+03  0.00000000000E+00 0.  1.
<mgrwt>
<rscale>  2 0.26373405E+02</rscale>
<asrwt>0</asrwt>
<pdfrwt beam="1">  1       21 0.44559884E-03 0.26373405E+02</pdfrwt>
<pdfrwt beam="2">  1       21 0.37886789E-01 0.26373405E+02</pdfrwt>
<totfact> 0.66835804E+07</totfact>
</mgrwt>
</event>
<event>
 4    1  0.4556894E+006  0.3299741E+02  0.7546771E-02  0.1567139E+00
         21   -1    0    0  503  501  0.00000000000E+00  0.00000000000E+00  0.66568863346E+01  0.66568863346E+01  0.00000000000E+00 0.  1.
         21   -1    0    0  504  502 -0.00000000000E+00 -0.00000000000E+00 -0.91705073140E+03  0.91705073140E+03  0.00000000000E+00 0.  1.
         21    1    1    2  503  502  0.31857170979E+02 -0.85994040995E+01 -0.87384158713E+03  0.87446437806E+03  0.00000000000E+00 0.  1.
         21    1    1    2  504  501 -0.31857170979E+02  0.85994040995E+01 -0.36552257933E+02  0.49243239675E+02  0.00000000000E+00 0.  1.
<mgrwt>
<rscale>  2 0.32997410E+02</rscale>
<asrwt>0</asrwt>
<pdfrwt beam="1">  1       21 0.10241360E-02 0.32997410E+02</pdfrwt>
<pdfrwt beam="2">  1       21 0.14108478E+00 0.32997410E+02</pdfrwt>
<totfact> 0.12490922E+06</totfact>
</mgrwt>
</event>
<event>
 4    1  0.4556894E+006  0.3713814E+02  0.7546771E-02  0.1530394E+00
         21   -1    0    0  503  501  0.00000000000E+00  0.00000000000E+00  0.64694895204E+01  0.64694895204E+01  0.00000000000E+00 0.  1.
         21   -1    0    0  504  502 -0.00000000000E+00 -0.00000000000E+00 -0.44815804107E+03  0.44815804107E+03  0.00000000000E+00 0.  1.
         21    1    1    2  503  502  0.36220485406E+02  0.82047331328E+01 -0.38543789820E+03  0.38722295203E+03  0.00000000000E+00 0.  1.
         21    1    1    2  504  501 -0.36220485406E+02 -0.82047331328E+01 -0.56250653346E+02  0.67404578559E+02  0.00000000000E+00 0.  1.
<mgrwt>
<rscale>  2 0.37138137E+02</rscale>
<asrwt>0</asrwt>
<pdfrwt beam="1">  1       21 0.99530627E-03 0.37138137E+02</pdfrwt>
<pdfrwt beam="2">  1       21 0.68947378E-01 0.37138137E+02</pdfrwt>
<totfact> 0.64895288E+06</totfact>
</mgrwt>
</event>
<event>
 4    1  0.4556894E+006  0.2236648E+02  0.7546771E-02  0.1701990E+00
         21   -1    0    0  503  501  0.00000000000E+00  0.00000000000E+00  0.71095606597E+02  0.71095606597E+02  0.00000000000E+00 0.  1.
         21   -1    0    0  504  502 -0.00000000000E+00 -0.00000000000E+00 -0.19892363816E+02  0.19892363816E+02  0.00000000000E+00 0.  1.
         21    1    1    2  503  502  0.63526756306E+01 -0.21445342934E+02 -0.10971548911E+02  0.24912529111E+02  0.00000000000E+00 0.  1.
         21    1    1    2  504  501 -0.63526756306E+01  0.21445342934E+02  0.62174791692E+02  0.66075441301E+02  0.00000000000E+00 0.  1.
<mgrwt>
<rscale>  2 0.22366475E+02</rscale>
<asrwt>0</asrwt>
<pdfrwt beam="1">  1       21 0.10937786E-01 0.22366475E+02</pdfrwt>
<pdfrwt beam="2">  1       21 0.30603637E-02 0.22366475E+02</pdfrwt>
<totfact> 0.30918961E+07</totfact>
</mgrwt>
</event>
<event>
 4    1  0.4556894E+006  0.4190165E+02  0.7546771E-02  0.1494666E+00
         21   -1    0    0  503  501  0.00000000000E+00  0.00000000000E+00  0.66219651613E+02  0.66219651613E+02  0.00000000000E+00 0.  1.
         21   -1    0    0  504  502 -0.00000000000E+00 -0.00000000000E+00 -0.36184192516E+02  0.36184192516E+02  0.00000000000E+00 0.  1.
         21    1    1    2  503  502  0.41742120302E+02  0.36528443362E+01 -0.11451687054E+02  0.43438335781E+02  0.00000000000E+00 0.  1.
         21    1    1    2  504  501 -0.41742120302E+02 -0.36528443362E+01  0.41487146151E+02  0.58965508349E+02  0.00000000000E+00 0.  1.
<mgrwt>
<rscale>  2 0.41901645E+02</rscale>
<asrwt>0</asrwt>
<pdfrwt beam="1">  1       21 0.10187639E-01 0.41901645E+02</pdfrwt>
<pdfrwt beam="2">  1       21 0.55667988E-02 0.41901645E+02</pdfrwt>
<totfact> 0.15122644E+07</totfact>
</mgrwt>
</event>
<event>
 4    1  0.4556894E+006  0.2086709E+02  0.7546771E-02  0.1728615E+00
         21   -1    0    0  503  501  0.00000000000E+00  0.00000000000E+00  0.22194550252E+02  0.22194550252E+02  0.00000000000E+00 0.  1.
         21   -1    0    0  504  502 -0.00000000000E+00 -0.00000000000E+00 -0.35136832687E+02  0.35136832687E+02  0.00000000000E+00 0.  1.
         21    1    1    2  503  502 -0.71179596589E+00  0.20854947831E+02 -0.25521197266E+02  0.32966149494E+02  0.00000000000E+00 0.  1.
         21    1    1    2  504  501  0.71179596589E+00 -0.20854947831E+02  0.12578914831E+02  0.24365233446E+02  0.00000000000E+00 0.  1.
<mgrwt>
<rscale>  2 0.20867091E+02</rscale>
<asrwt>0</asrwt>
<pdfrwt beam="1">  1       21 0.34145462E-02 0.20867091E+02</pdfrwt>
<pdfrwt beam="2">  1       21 0.54056666E-02 0.20867091E+02</pdfrwt>
<totfact> 0.80443211E+07</totfact>
</mgrwt>
</event>
<event>
 4    1  0.4556894E+006  0.2198852E+02  0.7546771E-02  0.1708451E+00
         21   -1    0    0  504  501  0.00000000000E+00  0.00000000000E+00  0.57260236469E+01  0.57260236469E+01  0.00000000000E+00 0.  1.
         21   -1    0    0  503  502 -0.00000000000E+00 -0.00000000000E+00 -0.10217171869E+03  0.10217171869E+03  0.00000000000E+00 0. -1.
         21    1    1    2  503  501 -0.18778493341E+02  0.11439553202E+02 -0.70698605313E+02  0.74039097664E+02  0.00000000000E+00 0. -1.
         21    1    1    2  504  502  0.18778493341E+02 -0.11439553202E+02 -0.25747089735E+02  0.33858644678E+02  0.00000000000E+00 0.  1.
<mgrwt>
<rscale>  2 0.21988524E+02</rscale>
<asrwt>0</asrwt>
<pdfrwt beam="1">  1       21 0.88092673E-03 0.21988524E+02</pdfrwt>
<pdfrwt beam="2">  1       21 0.15718726E-01 0.21988524E+02</pdfrwt>
<totfact> 0.11146010E+08</totfact>
</mgrwt>
</event>
<event>
 4    1  0.4556894E+006  0.2260503E+02  0.7546771E-02  0.1697994E+00
         21   -1    0    0  503  501  0.00000000000E+00  0.00000000000E+00  0.22900065851E+03  0.22900065851E+03  0.00000000000E+00 0. -1.
         21   -1    0    0  504  502 -0.00000000000E+00 -0.00000000000E+00 -0.33054971252E+01  0.33054971252E+01  0.00000000000E+00 0. -1.
         21    1    1    2  503  502 -0.20842012838E+02  0.87520166899E+01  0.17905982702E+03  0.18048104872E+03  0.00000000000E+00 0. -1.
         21    1    1    2  504  501  0.20842012838E+02 -0.87520166899E+01  0.46635334366E+02  0.51825106914E+02  0.00000000000E+00 0. -1.
<mgrwt>
<rscale>  2 0.22605028E+02</rscale>
<asrwt>0</asrwt>
<pdfrwt beam="1">  1       21 0.35230858E-01 0.22605028E+02</pdfrwt>
<pdfrwt beam="2">  1       21 0.50853820E-03 0.22605028E+02</pdfrwt>
<totfact> 0.60693209E+07</totfact>
</mgrwt>
</event>
<event>
 4    1  0.4556894E+006  0.2436873E+02  0.7546771E-02  0.1670238E+00
         21   -1    0    0  504  501  0.00000000000E+00  0.00000000000E+00  0.99504818446E+03  0.99504818446E+03  0.00000000000E+00 0. -1.
         21   -1    0    0  503  502 -0.00000000000E+00 -0.00000000000E+00 -0.61764079126E+00  0.61764079126E+00  0.00000000000E+00 0. -1.
         21    1    1    2  503  501  0.20314723381E+02  0.13459079086E+02  0.58868491739E+03  0.58918907556E+03  0.00000000000E+00 0. -1.
         21    1    1    2  504  502 -0.20314723381E+02 -0.13459079086E+02  0.40574562628E+03  0.40647674970E+03  0.00000000000E+00 0. -1.
<mgrwt>
<rscale>  2 0.24368726E+02</rscale>
<asrwt>0</asrwt>
<pdfrwt beam="1">  1       21 0.15308305E+00 0.24368726E+02</pdfrwt>
<pdfrwt beam="2">  1       21 0.95022457E-04 0.24368726E+02</pdfrwt>
<totfact> 0.32707570E+07</totfact>
</mgrwt>
</event>
<event>
 4    1  0.4556894E+006  0.3651789E+02  0.7546771E-02  0.1535520E+00
         21   -1    0    0  504  501  0.00000000000E+00  0.00000000000E+00  0.14592371313E+02  0.14592371313E+02  0.00000000000E+00 0. -1.
         21   -1    0    0  503  502 -0.00000000000E+00 -0.00000000000E+00 -0.21049636157E+03  0.21049636157E+03  0.00000000000E+00 0.  1.
         21    1    1    2  503  501  0.32860921974E+02 -0.15928470343E+02 -0.18261116335E+03  0.18622672563E+03  0.00000000000E+00 0.  1.
         21    1    1    2  504  502 -0.32860921974E+02  0.15928470343E+02 -0.13292826912E+02  0.38862007253E+02  0.00000000000E+00 0. -1.
<mgrwt>
<rscale>  2 0.36517891E+02</rscale>
<asrwt>0</asrwt>
<pdfrwt beam="1">  1       21 0.22449802E-02 0.36517891E+02</pdfrwt>
<pdfrwt beam="2">  1       21 0.32384056E-01 0.36517891E+02</pdfrwt>
<totfact> 0.81650566E+06</totfact>
</mgrwt>
</event>
<event>
 4    1  0.4556894E+006  0.2932577E+02  0.7546771E-02  0.1605663E+00
         21   -1    0    0  503  501  0.00000000000E+00  0.00000000000E+00  0.40161839066E+02  0.40161839066E+02  0.00000000000E+00 0. -1.
         21   -1    0    0  504  502 -0.00000000000E+00 -0.00000000000E+00 -0.21426961181E+02  0.21426961181E+02  0.00000000000E+00 0. -1.
         21    1    1    2  503  502  0.19629765286E+02  0.21786987437E+02  0.10142874408E+02  0.31030282113E+02  0.00000000000E+00 0. -1.
         21    1    1    2  504  501 -0.19629765286E+02 -0.21786987437E+02  0.85920034778E+01  0.30558518134E+02  0.00000000000E+00 0. -1.
<mgrwt>
<rscale>  2 0.29325765E+02</rscale>
<asrwt>0</asrwt>
<pdfrwt beam="1">  1       21 0.61787445E-02 0.29325765E+02</pdfrwt>
<pdfrwt beam="2">  1       21 0.32964556E-02 0.29325765E+02</pdfrwt>
<totfact> 0.75055062E+07</totfact>
</mgrwt>
</event>
<event>
 4    1  0.4556894E+006  0.3044180E+02  0.7546771E-02  0.1593256E+00
         21   -1    0    0  503  501  0.00000000000E+00  0.00000000000E+00  0.31358752241E+02  0.31358752241E+02  0.00000000000E+00 0.  1.
         21   -1    0    0  504  502 -0.00000000000E+00 -0.00000000000E+00 -0.29971205750E+03  0.29971205750E+03  0.00000000000E+00 0. -1.
         21    1    1    2  503  502  0.97749700427E+01 -0.28829730210E+02  0.22986099771E+02  0.38145303328E+02  0.00000000000E+00 0.  1.
         21    1    1    2  504  501 -0.97749700427E+01  0.28829730210E+02 -0.29133940503E+03  0.29292550642E+03  0.00000000000E+00 0. -1.
<mgrwt>
<rscale>  2 0.30441803E+02</rscale>
<asrwt>0</asrwt>
<pdfrwt beam="1">  1       21 0.48244233E-02 0.30441803E+02</pdfrwt>
<pdfrwt beam="2">  1       21 0.46109548E-01 0.30441803E+02</pdfrwt>
<totfact> 0.12154065E+06</totfact>
</mgrwt>
</event>
<event>
 4    1  0.4556894E+006  0.2137693E+02  0.7546771E-02  0.1719256E+00
         21   -1    0    0  503  501  0.00000000000E+00  0.00000000000E+00  0.13525676112E+04  0.13525676112E+04  0.00000000000E+00 0.  1.
         21   -1    0    0  504  502 -0.00000000000E+00 -0.00000000000E+00 -0.36881178051E+00  0.36881178051E+00  0.00000000000E+00 0.  1.
         21    1    1    2  503  502  0.23081855586E+01  0.21251955225E+02  0.87208070342E+03  0.87234266582E+03  0.00000000000E+00 0.  1.
         21    1    1    2  504  501 -0.23081855586E+01 -0.21251955225E+02  0.48011809595E+03  0.48059375712E+03  0.00000000000E+00 0.  1.
<mgrwt>
<rscale>  2 0.21376934E+02</rscale>
<asrwt>0</asrwt>
<pdfrwt beam="1">  1       21 0.20808335E+00 0.21376934E+02</pdfrwt>
<pdfrwt beam="2">  1       21 0.56741357E-04 0.21376934E+02</pdfrwt>
<totfact> 0.30959936E+07</totfact>
</mgrwt>
</event>
<event>
 4    1  0.4556894E+006  0.2074581E+02  0.7546771E-02  0.1730891E+00
         21   -1    0    0  503  501  0.00000000000E+00  0.00000000000E+00  0.32626250804E+02  0.32626250804E+02  0.00000000000E+00 0. -1.
         21   -1    0    0  501  502 -0.00000000000E+00 -0.00000000000E+00 -0.17922552033E+02  0.17922552033E+02  0.00000000000E+00 0.  1.
         21    1    1    2  503  504  0.16020618356E+02 -0.13180606513E+02  0.20337408148E+02  0.29051656936E+02  0.00000000000E+00 0. -1.
         21    1    1    2  504  502 -0.16020618356E+02  0.13180606513E+02 -0.56337093765E+01  0.21497145901E+02  0.00000000000E+00 0.  1.
<mgrwt>
<rscale>  2 0.20745809E+02</rscale>
<asrwt>0</asrwt>
<pdfrwt beam="1">  1       21 0.50194232E-02 0.20745809E+02</pdfrwt>
<pdfrwt beam="2">  1       21 0.27573157E-02 0.20745809E+02</pdfrwt>
<totfact> 0.12590412E+08</totfact>
</mgrwt>
</event>
<event>
 4    1  0.4556894E+006  0.2475803E+02  0.7546771E-02  0.1664502E+00
         21   -1    0    0  503  501  0.00000000000E+00  0.00000000000E+00  0.33253054148E+03  0.33253054148E+03  0.00000000000E+00 0. -1.
         21   -1    0    0  501  502 -0.00000000000E+00 -0.00000000000E+00 -0.16991353992E+02  0.16991353992E+02  0.00000000000E+00 0. -1.
         21    1    1    2  503  504  0.23982120828E+02 -0.61496451353E+01  0.32277893493E+03  0.32372704720E+03  0.00000000000E+00 0. -1.
         21    1    1    2  504  502 -0.23982120828E+02  0.61496451353E+01 -0.72397474364E+01  0.25794848277E+02  0.00000000000E+00 0. -1.
<mgrwt>
<rscale>  2 0.24758034E+02</rscale>
<asrwt>0</asrwt>
<pdfrwt beam="1">  1       21 0.51158540E-01 0.24758034E+02</pdfrwt>
<pdfrwt beam="2">  1       21 0.26140547E-02 0.24758034E+02</pdfrwt>
<totfact> 0.25588891E+06</totfact>
</mgrwt>
</event>
<event>
 4    1  0.4556894E+006  0.2430667E+02  0.7546771E-02  0.1671165E+00
         21   -1    0    0  503  501  0.00000000000E+00  0.00000000000E+00  0.22525603887E+03  0.22525603887E+03  0.00000000000E+00 0. -1.
         21   -1    0    0  504  502 -0.00000000000E+00 -0.00000000000E+00 -0.65547643609E+01  0.65547643609E+01  0.00000000000E+00 0. -1.
         21    1    1    2  503  502 -0.88290847026E+01  0.22646443032E+02  0.19581544424E+02  0.31212994101E+02  0.00000000000E+00 0. -1.
         21    1    1    2  504  501  0.88290847026E+01 -0.22646443032E+02  0.19911973009E+03  0.20059780913E+03  0.00000000000E+00 0. -1.
<mgrwt>
<rscale>  2 0.24306668E+02</rscale>
<asrwt>0</asrwt>
<pdfrwt beam="1">  1       21 0.34654769E-01 0.24306668E+02</pdfrwt>
<pdfrwt beam="2">  1       21 0.10084255E-02 0.24306668E+02</pdfrwt>
<totfact> 0.22953693E+07</totfact>
</mgrwt>
</event>
<event>
 4    1  0.4556894E+006  0.2300993E+02  0.7546771E-02  0.1691349E+00
         21   -1    0    0  504  501  0.00000000000E+00  0.00000000000E+00  0.17997792893E+01  0.17997792893E+01  0.00000000000E+00 0.  1.
         21   -1    0    0  503  502 -0.00000000000E+00 -0.00000000000E+00 -0.12629954909E+04  0.12629954909E+04  0.00000000000E+00 0. -1.
         21    1    1    2  503  501  0.10471333143E+02  0.20489218159E+02 -0.76724916285E+02  0.80100996607E+02  0.00000000000E+00 0.  1.
         21    1    1    2  504  502 -0.10471333143E+02 -0.20489218159E+02 -0.11844707954E+04  0.11846942736E+04  0.00000000000E+00 0. -1.
<mgrwt>
<rscale>  2 0.23009930E+02</rscale>
<asrwt>0</asrwt>
<pdfrwt beam="1">  1       21 0.27688801E-03 0.23009930E+02</pdfrwt>
<pdfrwt beam="2">  1       21 0.19430778E+00 0.23009930E+02</pdfrwt>
<totfact> 0.38683615E+06</totfact>
</mgrwt>
</event>
<event>
 4    1  0.4556894E+006  0.2044515E+02  0.7546771E-02  0.1736618E+00
         21   -1    0    0  502  501  0.00000000000E+00  0.00000000000E+00  0.73143509053E+02  0.73143509053E+02  0.00000000000E+00 0.  1.
         21   -1    0    0  503  502 -0.00000000000E+00 -0.00000000000E+00 -0.72719160999E+01  0.72719160999E+01  0.00000000000E+00 0.  1.
         21    1    1    2  503  504  0.62354196832E+01 -0.19471102967E+02  0.14330430374E+02  0.24967289482E+02  0.00000000000E+00 0.  1.
         21    1    1    2  504  501 -0.62354196832E+01  0.19471102967E+02  0.51541162580E+02  0.55448135671E+02  0.00000000000E+00 0.  1.
<mgrwt>
<rscale>  2 0.20445154E+02</rscale>
<asrwt>0</asrwt>
<pdfrwt beam="1">  1       21 0.11252847E-01 0.20445154E+02</pdfrwt>
<pdfrwt beam="2">  1       21 0.11187564E-02 0.20445154E+02</pdfrwt>
<totfact> 0.13380617E+08</totfact>
</mgrwt>
</event>
<event>
 4    1  0.4556894E+006  0.2092666E+02  0.7546771E-02  0.1727504E+00
         21   -1    0    0  502  501  0.00000000000E+00  0.00000000000E+00  0.23245269411E+03  0.23245269411E+03  0.00000000000E+00 0.  1.
         21   -1    0    0  504  502 -0.00000000000E+00 -0.00000000000E+00 -0.32625658616E+01  0.32625658616E+01  0.00000000000E+00 0.  1.
         21    1    1    2  503  501 -0.19354829893E+02 -0.79571103918E+01  0.19120807776E+03  0.19234982206E+03  0.00000000000E+00 0.  1.
         21    1    1    2  504  503  0.19354829893E+02  0.79571103918E+01  0.37982050493E+02  0.43365437916E+02  0.00000000000E+00 0.  1.
<mgrwt>
<rscale>  2 0.20926659E+02</rscale>
<asrwt>0</asrwt>
<pdfrwt beam="1">  1       21 0.35761940E-01 0.20926659E+02</pdfrwt>
<pdfrwt beam="2">  1       21 0.50193339E-03 0.20926659E+02</pdfrwt>
<totfact> 0.59018549E+07</totfact>
</mgrwt>
</event>
<event>
 4    1  0.4556894E+006  0.2449746E+02  0.7546771E-02  0.1668327E+00
         21   -1    0    0  502  501  0.00000000000E+00  0.00000000000E+00  0.88998974696E+01  0.88998974696E+01  0.00000000000E+00 0.  1.
         21   -1    0    0  504  502 -0.00000000000E+00 -0.00000000000E+00 -0.44392038004E+03  0.44392038004E+03  0.00000000000E+00 0.  1.
         21    1    1    2  503  501  0.57832822627E+01  0.23805025955E+02 -0.90035903306E+01  0.26099621708E+02  0.00000000000E+00 0.  1.
         21    1    1    2  504  503 -0.57832822627E+01 -0.23805025955E+02 -0.42601689224E+03  0.42672065580E+03  0.00000000000E+00 0.  1.
<mgrwt>
<rscale>  2 0.24497461E+02</rscale>
<asrwt>0</asrwt>
<pdfrwt beam="1">  1       21 0.13692148E-02 0.24497461E+02</pdfrwt>
<pdfrwt beam="2">  1       21 0.68295455E-01 0.24497461E+02</pdfrwt>
<totfact> 0.38700335E+06</totfact>
</mgrwt>
</event>
<event>
 4    1  0.4556894E+006  0.2066032E+02  0.7546771E-02  0.1732507E+00
         21   -1    0    0  504  501  0.00000000000E+00  0.00000000000E+00  0.53067173456E+02  0.53067173456E+02  0.00000000000E+00 0. -1.
         21   -1    0    0  503  502 -0.00000000000E+00 -0.00000000000E+00 -0.20677150875E+02  0.20677150875E+02  0.00000000000E+00 0. -1.
         21    1    1    2  503  501 -0.15042143382E+02  0.14162726614E+02  0.45016518653E+02  0.49531160438E+02  0.00000000000E+00 0. -1.
         21    1    1    2  504  502  0.15042143382E+02 -0.14162726614E+02 -0.12626496072E+02  0.24213163893E+02  0.00000000000E+00 0. -1.
<mgrwt>
<rscale>  2 0.20660322E+02</rscale>
<asrwt>0</asrwt>
<pdfrwt beam="1">  1       21 0.81641805E-02 0.20660322E+02</pdfrwt>
<pdfrwt beam="2">  1       21 0.31811001E-02 0.20660322E+02</pdfrwt>
<totfact> 0.46151621E+07</totfact>
</mgrwt>
</event>
<event>
 4    1  0.4556894E+006  0.2207728E+02  0.7546771E-02  0.1706919E+00
         21   -1    0    0  503  501  0.00000000000E+00  0.00000000000E+00  0.34819417887E+01  0.34819417887E+01  0.00000000000E+00 0. -1.
         21   -1    0    0  504  502 -0.00000000000E+00 -0.00000000000E+00 -0.18740459151E+03  0.18740459151E+03  0.00000000000E+00 0. -1.
         21    1    1    2  503  502 -0.20532858140E+02 -0.81122111482E+01 -0.13997353437E+03  0.14170390453E+03  0.00000000000E+00 0. -1.
         21    1    1    2  504  501  0.20532858140E+02  0.81122111482E+01 -0.43949115355E+02  0.49182628779E+02  0.00000000000E+00 0. -1.
<mgrwt>
<rscale>  2 0.22077279E+02</rscale>
<asrwt>0</asrwt>
<pdfrwt beam="1">  1       21 0.53568349E-03 0.22077279E+02</pdfrwt>
<pdfrwt beam="2">  1       21 0.28831468E-01 0.22077279E+02</pdfrwt>
<totfact> 0.80621003E+07</totfact>
</mgrwt>
</event>
<event>
 4    1  0.4556894E+006  0.2405903E+02  0.7546771E-02  0.1674897E+00
         21   -1    0    0  504  501  0.00000000000E+00  0.00000000000E+00  0.48354133004E+02  0.48354133004E+02  0.00000000000E+00 0. -1.
         21   -1    0    0  503  502 -0.00000000000E+00 -0.00000000000E+00 -0.52522513628E+02  0.52522513628E+02  0.00000000000E+00 0.  1.
         21    1    1    2  503  501  0.18666174380E+02  0.15179290872E+02  0.42235077321E+02  0.48606981944E+02  0.00000000000E+00 0. -1.
         21    1    1    2  504  502 -0.18666174380E+02 -0.15179290872E+02 -0.46403457945E+02  0.52269664688E+02  0.00000000000E+00 0.  1.
<mgrwt>
<rscale>  2 0.24059030E+02</rscale>
<asrwt>0</asrwt>
<pdfrwt beam="1">  1       21 0.74390974E-02 0.24059030E+02</pdfrwt>
<pdfrwt beam="2">  1       21 0.80803867E-02 0.24059030E+02</pdfrwt>
<totfact> 0.12609150E+07</totfact>
</mgrwt>
</event>
<event>
 4    1  0.4556894E+006  0.2630335E+02  0.7546771E-02  0.1642958E+00
         21   -1    0    0  504  501  0.00000000000E+00  0.00000000000E+00  0.65894750083E+03  0.65894750083E+03  0.00000000000E+00 0.  1.
         21   -1    0    0  503  502 -0.00000000000E+00 -0.00000000000E+00 -0.10579863415E+01  0.10579863415E+01  0.00000000000E+00 0.  1.
         21    1    1    2  503  501  0.21780315532E+02  0.14747332488E+02  0.35769498744E+03  0.35866080076E+03  0.00000000000E+00 0.  1.
         21    1    1    2  504  502 -0.21780315532E+02 -0.14747332488E+02  0.30019452705E+03  0.30134468641E+03  0.00000000000E+00 0.  1.
<mgrwt>
<rscale>  2 0.26303345E+02</rscale>
<asrwt>0</asrwt>
<pdfrwt beam="1">  1       21 0.10137621E+00 0.26303345E+02</pdfrwt>
<pdfrwt beam="2">  1       21 0.16276766E-03 0.26303345E+02</pdfrwt>
<totfact> 0.39478581E+07</totfact>
</mgrwt>
</event>
<event>
 4    1  0.4556894E+006  0.2324842E+02  0.7546771E-02  0.1687515E+00
         21   -1    0    0  504  501  0.00000000000E+00  0.00000000000E+00  0.95273361342E+03  0.95273361342E+03  0.00000000000E+00 0.  1.
         21   -1    0    0  503  502 -0.00000000000E+00 -0.00000000000E+00 -0.16995703417E+02  0.16995703417E+02  0.00000000000E+00 0.  1.
         21    1    1    2  503  501 -0.60705823718E+01 -0.22441854819E+02 -0.88348243649E+01  0.24870523509E+02  0.00000000000E+00 0.  1.
         21    1    1    2  504  502  0.60705823718E+01  0.22441854819E+02  0.94457273437E+03  0.94485879333E+03  0.00000000000E+00 0.  1.
<mgrwt>
<rscale>  2 0.23248415E+02</rscale>
<asrwt>0</asrwt>
<pdfrwt beam="1">  1       21 0.14657436E+00 0.23248415E+02</pdfrwt>
<pdfrwt beam="2">  1       21 0.26147243E-02 0.23248415E+02</pdfrwt>
<totfact> 0.26732449E+05</totfact>
</mgrwt>
</event>
<event>
 4    1  0.4556894E+006  0.5752940E+02  0.7546771E-02  0.1408502E+00
         21   -1    0    0  503  501  0.00000000000E+00  0.00000000000E+00  0.19920365099E+03  0.19920365099E+03  0.00000000000E+00 0.  1.
         21   -1    0    0  504  502 -0.00000000000E+00 -0.00000000000E+00 -0.83028194141E+02  0.83028194141E+02  0.00000000000E+00 0. -1.
         21    1    1    2  503  502 -0.46627037389E+02 -0.33697947240E+02 -0.68121945912E+02  0.89164072241E+02  0.00000000000E+00 0. -1.
         21    1    1    2  504  501  0.46627037389E+02  0.33697947240E+02  0.18429740276E+03  0.19306777289E+03  0.00000000000E+00 0.  1.
<mgrwt>
<rscale>  2 0.57529403E+02</rscale>
<asrwt>0</asrwt>
<pdfrwt beam="1">  1       21 0.30646715E-01 0.57529403E+02</pdfrwt>
<pdfrwt beam="2">  1       21 0.12773568E-01 0.57529403E+02</pdfrwt>
<totfact> 0.53870592E+05</totfact>
</mgrwt>
</event>
<event>
 4    1  0.4556894E+006  0.4070794E+02  0.7546771E-02  0.1503065E+00
         21   -1    0    0  504  501  0.00000000000E+00  0.00000000000E+00  0.28399032386E+03  0.28399032386E+03  0.00000000000E+00 0. -1.
         21   -1    0    0  503  502 -0.00000000000E+00 -0.00000000000E+00 -0.77786101025E+02  0.77786101025E+02  0.00000000000E+00 0. -1.
         21    1    1    2  503  501 -0.33972575541E+02 -0.22427678494E+02  0.27707333701E+03  0.28004780080E+03  0.00000000000E+00 0. -1.
         21    1    1    2  504  502  0.33972575541E+02  0.22427678494E+02 -0.70869114172E+02  0.81728624086E+02  0.00000000000E+00 0. -1.
<mgrwt>
<rscale>  2 0.40707943E+02</rscale>
<asrwt>0</asrwt>
<pdfrwt beam="1">  1       21 0.43690819E-01 0.40707943E+02</pdfrwt>
<pdfrwt beam="2">  1       21 0.11967093E-01 0.40707943E+02</pdfrwt>
<totfact> 0.30390536E+05</totfact>
</mgrwt>
</event>
<event>
 4    1  0.4556894E+006  0.4815067E+02  0.7546771E-02  0.1455579E+00
         21   -1    0    0  504  501  0.00000000000E+00  0.00000000000E+00  0.23934403849E+03  0.23934403849E+03  0.00000000000E+00 0.  1.
         21   -1    0    0  503  502 -0.00000000000E+00 -0.00000000000E+00 -0.18217751183E+02  0.18217751183E+02  0.00000000000E+00 0.  1.
         21    1    1    2  503  501 -0.38890822248E+02  0.28389986536E+02  0.19868867878E+03  0.20443991408E+03  0.00000000000E+00 0.  1.
         21    1    1    2  504  502  0.38890822248E+02 -0.28389986536E+02  0.22437608523E+02  0.53121875596E+02  0.00000000000E+00 0.  1.
<mgrwt>
<rscale>  2 0.48150674E+02</rscale>
<asrwt>0</asrwt>
<pdfrwt beam="1">  1       21 0.36822158E-01 0.48150674E+02</pdfrwt>
<pdfrwt beam="2">  1       21 0.28027311E-02 0.48150674E+02</pdfrwt>
<totfact> 0.46503647E+06</totfact>
</mgrwt>
</event>
<event>
 4    1  0.4556894E+006  0.2438230E+02  0.7546771E-02  0.1670036E+00
         21   -1    0    0  504  501  0.00000000000E+00  0.00000000000E+00  0.46593825877E+02  0.46593825877E+02  0.00000000000E+00 0.  1.
         21   -1    0    0  503  502 -0.00000000000E+00 -0.00000000000E+00 -0.20687720574E+02  0.20687720574E+02  0.00000000000E+00 0.  1.
         21    1    1    2  503  501  0.18322112939E+02  0.16087157264E+02  0.33779144518E+02  0.41659657413E+02  0.00000000000E+00 0.  1.
         21    1    1    2  504  502 -0.18322112939E+02 -0.16087157264E+02 -0.78730392151E+01  0.25621889038E+02  0.00000000000E+00 0.  1.
<mgrwt>
<rscale>  2 0.24382298E+02</rscale>
<asrwt>0</asrwt>
<pdfrwt beam="1">  1       21 0.71682809E-02 0.24382298E+02</pdfrwt>
<pdfrwt beam="2">  1       21 0.31827263E-02 0.24382298E+02</pdfrwt>
<totfact> 0.59518976E+07</totfact>
</mgrwt>
</event>
<event>
 4    1  0.4556894E+006  0.2977708E+02  0.7546771E-02  0.1600566E+00
         21   -1    0    0  503  501  0.00000000000E+00  0.00000000000E+00  0.27088418876E+01  0.27088418876E+01  0.00000000000E+00 0.  1.
         21   -1    0    0  501  502 -0.00000000000E+00 -0.00000000000E+00 -0.32732702416E+03  0.32732702416E+03  0.00000000000E+00 0.  1.
         21    1    1    2  503  504 -0.29643716755E+02  0.28150765746E+01 -0.16258920163E+03  0.16529344538E+03  0.00000000000E+00 0.  1.
         21    1    1    2  504  502  0.29643716755E+02 -0.28150765746E+01 -0.16202898065E+03  0.16474242067E+03  0.00000000000E+00 0.  1.
<mgrwt>
<rscale>  2 0.29777082E+02</rscale>
<asrwt>0</asrwt>
<pdfrwt beam="1">  1       21 0.41674485E-03 0.29777082E+02</pdfrwt>
<pdfrwt beam="2">  1       21 0.50358011E-01 0.29777082E+02</pdfrwt>
<totfact> 0.43823282E+07</totfact>
</mgrwt>
</event>
<event>
 4    1  0.4556894E+006  0.2045244E+02  0.7546771E-02  0.1736478E+00
         21   -1    0    0  504  501  0.00000000000E+00  0.00000000000E+00  0.17198210492E+02  0.17198210492E+02  0.00000000000E+00 0. -1.
         21   -1    0    0  501  502 -0.00000000000E+00 -0.00000000000E+00 -0.30345341301E+03  0.30345341301E+03  0.00000000000E+00 0. -1.
         21    1    1    2  503  502 -0.24688939693E+01  0.20302879844E+02 -0.29689400327E+03  0.29759763364E+03  0.00000000000E+00 0. -1.
         21    1    1    2  504  503  0.24688939693E+01 -0.20302879844E+02  0.10638800751E+02  0.23053989868E+02  0.00000000000E+00 0. -1.
<mgrwt>
<rscale>  2 0.20452442E+02</rscale>
<asrwt>0</asrwt>
<pdfrwt beam="1">  1       21 0.26458787E-02 0.20452442E+02</pdfrwt>
<pdfrwt beam="2">  1       21 0.46685137E-01 0.20452442E+02</pdfrwt>
<totfact> 0.29224704E+06</totfact>
</mgrwt>
</event>
<event>
 4    1  0.4556894E+006  0.2780553E+02  0.7546771E-02  0.1623694E+00
         21   -1    0    0  504  501  0.00000000000E+00  0.00000000000E+00  0.22491768872E+01  0.22491768872E+01  0.00000000000E+00 0. -1.
         21   -1    0    0  503  502 -0.00000000000E+00 -0.00000000000E+00 -0.34514867554E+03  0.34514867554E+03  0.00000000000E+00 0. -1.
         21    1    1    2  503  501 -0.72455104110E+01  0.26844925342E+02 -0.18251963760E+03  0.18462547373E+03  0.00000000000E+00 0. -1.
         21    1    1    2  504  502  0.72455104110E+01 -0.26844925342E+02 -0.16037986105E+03  0.16277237870E+03  0.00000000000E+00 0. -1.
<mgrwt>
<rscale>  2 0.27805529E+02</rscale>
<asrwt>0</asrwt>
<pdfrwt beam="1">  1       21 0.34602703E-03 0.27805529E+02</pdfrwt>
<pdfrwt beam="2">  1       21 0.53099824E-01 0.27805529E+02</pdfrwt>
<totfact> 0.51210869E+07</totfact>
</mgrwt>
</event>
<event>
 4    1  0.4556894E+006  0.2014890E+02  0.7546771E-02  0.1742383E+00
         21   -1    0    0  503  501  0.00000000000E+00  0.00000000000E+00  0.78431847291E+01  0.78431847291E+01  0.00000000000E+00 0.  1.
         21   -1    0    0  504  502 -0.00000000000E+00 -0.00000000000E+00 -0.59541808152E+02  0.59541808152E+02  0.00000000000E+00 0.  1.
         21    1    1    2  503  502 -0.19229634794E+02 -0.60165893206E+01 -0.13670379557E+02  0.24348664821E+02  0.00000000000E+00 0.  1.
         21    1    1    2  504  501  0.19229634794E+02  0.60165893206E+01 -0.38028243866E+02  0.43036328060E+02  0.00000000000E+00 0.  1.
<mgrwt>
<rscale>  2 0.20148901E+02</rscale>
<asrwt>0</asrwt>
<pdfrwt beam="1">  1       21 0.12066438E-02 0.20148901E+02</pdfrwt>
<pdfrwt beam="2">  1       21 0.91602785E-02 0.20148901E+02</pdfrwt>
<totfact> 0.16686046E+08</totfact>
</mgrwt>
</event>
<event>
 4    1  0.4556894E+006  0.2448155E+02  0.7546771E-02  0.1668562E+00
         21   -1    0    0  503  501  0.00000000000E+00  0.00000000000E+00  0.65542740022E+02  0.65542740022E+02  0.00000000000E+00 0. -1.
         21   -1    0    0  501  502 -0.00000000000E+00 -0.00000000000E+00 -0.16667697031E+02  0.16667697031E+02  0.00000000000E+00 0. -1.
         21    1    1    2  503  504  0.21106725701E+02  0.12403718592E+02  0.52053761981E+02  0.57523388644E+02  0.00000000000E+00 0. -1.
         21    1    1    2  504  502 -0.21106725701E+02 -0.12403718592E+02 -0.31787189896E+01  0.24687048409E+02  0.00000000000E+00 0. -1.
<mgrwt>
<rscale>  2 0.24481546E+02</rscale>
<asrwt>0</asrwt>
<pdfrwt beam="1">  1       21 0.10083498E-01 0.24481546E+02</pdfrwt>
<pdfrwt beam="2">  1       21 0.25642611E-02 0.24481546E+02</pdfrwt>
<totfact> 0.47638792E+07</totfact>
</mgrwt>
</event>
<event>
 4    1  0.4556894E+006  0.3947954E+02  0.7546771E-02  0.1512077E+00
         21   -1    0    0  504  501  0.00000000000E+00  0.00000000000E+00  0.85776300513E+02  0.85776300513E+02  0.00000000000E+00 0.  1.
         21   -1    0    0  503  502 -0.00000000000E+00 -0.00000000000E+00 -0.45618371072E+02  0.45618371072E+02  0.00000000000E+00 0.  1.
         21    1    1    2  503  501 -0.39312963199E+02  0.36228183020E+01 -0.30880976524E+02  0.50122535839E+02  0.00000000000E+00 0.  1.
         21    1    1    2  504  502  0.39312963199E+02 -0.36228183020E+01  0.71038905965E+02  0.81272135745E+02  0.00000000000E+00 0.  1.
<mgrwt>
<rscale>  2 0.39479538E+02</rscale>
<asrwt>0</asrwt>
<pdfrwt beam="1">  1       21 0.13196354E-01 0.39479538E+02</pdfrwt>
<pdfrwt beam="2">  1       21 0.70182109E-02 0.39479538E+02</pdfrwt>
<totfact> 0.65880176E+06</totfact>
</mgrwt>
</event>
<event>
 4    1  0.4556894E+006  0.2235376E+02  0.7546771E-02  0.1702205E+00
         21   -1    0    0  502  501  0.00000000000E+00  0.00000000000E+00  0.18290919353E+03  0.18290919353E+03  0.00000000000E+00 0. -1.
         21   -1    0    0  504  502 -0.00000000000E+00 -0.00000000000E+00 -0.22577598186E+02  0.22577598186E+02  0.00000000000E+00 0. -1.
         21    1    1    2  503  501  0.21354885118E+02  0.66075438080E+01  0.17649282758E+03  0.17790280757E+03  0.00000000000E+00 0. -1.
         21    1    1    2  504  503 -0.21354885118E+02 -0.66075438080E+01 -0.16161232242E+02  0.27583984142E+02  0.00000000000E+00 0. -1.
<mgrwt>
<rscale>  2 0.22353764E+02</rscale>
<asrwt>0</asrwt>
<pdfrwt beam="1">  1       21 0.28139875E-01 0.22353764E+02</pdfrwt>
<pdfrwt beam="2">  1       21 0.34734768E-02 0.22353764E+02</pdfrwt>
<totfact> 0.49666916E+06</totfact>
</mgrwt>
</event>
<event>
 4    1  0.4556894E+006  0.2266602E+02  0.7546771E-02  0.1696982E+00
         21   -1    0    0  502  501  0.00000000000E+00  0.00000000000E+00  0.18943357717E+03  0.18943357717E+03  0.00000000000E+00 0.  1.
         21   -1    0    0  503  502 -0.00000000000E+00 -0.00000000000E+00 -0.40280853177E+01  0.40280853177E+01  0.00000000000E+00 0.  1.
         21    1    1    2  503  504  0.21171426927E+02 -0.80943785835E+01  0.37411833036E+02  0.43742354005E+02  0.00000000000E+00 0.  1.
         21    1    1    2  504  501 -0.21171426927E+02  0.80943785835E+01  0.14799365881E+03  0.14971930848E+03  0.00000000000E+00 0.  1.
<mgrwt>
<rscale>  2 0.22666016E+02</rscale>
<asrwt>0</asrwt>
<pdfrwt beam="1">  1       21 0.29143620E-01 0.22666016E+02</pdfrwt>
<pdfrwt beam="2">  1       21 0.61970558E-03 0.22666016E+02</pdfrwt>
<totfact> 0.64180062E+07</totfact>
</mgrwt>
</event>
<event>
 4    1  0.4556894E+006  0.2110829E+02  0.7546771E-02  0.1724146E+00
         21   -1    0    0  503  501  0.00000000000E+00  0.00000000000E+00  0.58480835146E+02  0.58480835146E+02  0.00000000000E+00 0. -1.
         21   -1    0    0  501  502 -0.00000000000E+00 -0.00000000000E+00 -0.84944062109E+01  0.84944062109E+01  0.00000000000E+00 0. -1.
         21    1    1    2  503  504 -0.13042470828E+00 -0.21107889633E+02  0.35744138202E+02  0.41511485532E+02  0.00000000000E+00 0. -1.
         21    1    1    2  504  502  0.13042470828E+00  0.21107889633E+02  0.14242290734E+02  0.25463755825E+02  0.00000000000E+00 0. -1.
<mgrwt>
<rscale>  2 0.21108293E+02</rscale>
<asrwt>0</asrwt>
<pdfrwt beam="1">  1       21 0.89970513E-02 0.21108293E+02</pdfrwt>
<pdfrwt beam="2">  1       21 0.13068318E-02 0.21108293E+02</pdfrwt>
<totfact> 0.15462354E+08</totfact>
</mgrwt>
</event>
<event>
 4    1  0.4556894E+006  0.2289559E+02  0.7546771E-02  0.1693208E+00
         21   -1    0    0  503  501  0.00000000000E+00  0.00000000000E+00  0.16965527924E+02  0.16965527924E+02  0.00000000000E+00 0. -1.
         21   -1    0    0  504  502 -0.00000000000E+00 -0.00000000000E+00 -0.66571523899E+02  0.66571523899E+02  0.00000000000E+00 0.  1.
         21    1    1    2  503  502 -0.22264296137E+02 -0.53394062165E+01  0.57726240020E+01  0.23612101328E+02  0.00000000000E+00 0. -1.
         21    1    1    2  504  501  0.22264296137E+02  0.53394062165E+01 -0.55378619978E+02  0.59924950496E+02  0.00000000000E+00 0.  1.
<mgrwt>
<rscale>  2 0.22895592E+02</rscale>
<asrwt>0</asrwt>
<pdfrwt beam="1">  1       21 0.26100812E-02 0.22895592E+02</pdfrwt>
<pdfrwt beam="2">  1       21 0.10241773E-01 0.22895592E+02</pdfrwt>
<totfact> 0.44405629E+07</totfact>
</mgrwt>
</event>
<event>
 4    1  0.4556894E+006  0.3199744E+02  0.7546771E-02  0.1577004E+00
         21   -1    0    0  504  501  0.00000000000E+00  0.00000000000E+00  0.12097084451E+03  0.12097084451E+03  0.00000000000E+00 0.  1.
         21   -1    0    0  503  502 -0.00000000000E+00 -0.00000000000E+00 -0.75404135621E+02  0.75404135621E+02  0.00000000000E+00 0. -1.
         21    1    1    2  503  501  0.31792681421E+02  0.36141142051E+01 -0.69729802294E+02  0.76720803837E+02  0.00000000000E+00 0. -1.
         21    1    1    2  504  502 -0.31792681421E+02 -0.36141142051E+01  0.11529651119E+03  0.11965417630E+03  0.00000000000E+00 0.  1.
<mgrwt>
<rscale>  2 0.31997444E+02</rscale>
<asrwt>0</asrwt>
<pdfrwt beam="1">  1       21 0.18610899E-01 0.31997444E+02</pdfrwt>
<pdfrwt beam="2">  1       21 0.11600636E-01 0.31997444E+02</pdfrwt>
<totfact> 0.15299968E+06</totfact>
</mgrwt>
</event>
<event>
 4    1  0.4556894E+006  0.2819598E+02  0.7546771E-02  0.1618931E+00
         21   -1    0    0  504  501  0.00000000000E+00  0.00000000000E+00  0.27722562669E+03  0.27722562669E+03  0.00000000000E+00 0.  1.
         21   -1    0    0  503  502 -0.00000000000E+00 -0.00000000000E+00 -0.12999646554E+03  0.12999646554E+03  0.00000000000E+00 0.  1.
         21    1    1    2  503  501  0.98351594766E+01 -0.26425044558E+02 -0.12773809055E+03  0.13081297000E+03  0.00000000000E+00 0.  1.
         21    1    1    2  504  502 -0.98351594766E+01  0.26425044558E+02  0.27496725171E+03  0.27640912223E+03  0.00000000000E+00 0.  1.
<mgrwt>
<rscale>  2 0.28195981E+02</rscale>
<asrwt>0</asrwt>
<pdfrwt beam="1">  1       21 0.42650096E-01 0.28195981E+02</pdfrwt>
<pdfrwt beam="2">  1       21 0.19999456E-01 0.28195981E+02</pdfrwt>
<totfact> 0.13047945E+05</totfact>
</mgrwt>
</event>
<event>
 4    1  0.4556894E+006  0.2041225E+02  0.7546771E-02  0.1737252E+00
         21   -1    0    0  503  501  0.00000000000E+00  0.00000000000E+00  0.26463421583E+02  0.26463421583E+02  0.00000000000E+00 0.  1.
         21   -1    0    0  501  502 -0.00000000000E+00 -0.00000000000E+00 -0.16536962033E+02  0.16536962033E+02  0.00000000000E+00 0.  1.
         21    1    1    2  503  504 -0.20078265607E+02  0.36773981845E+01  0.96690427922E+01  0.22586509153E+02  0.00000000000E+00 0.  1.
         21    1    1    2  504  502  0.20078265607E+02 -0.36773981845E+01  0.25741675836E+00  0.20413874463E+02  0.00000000000E+00 0.  1.
<mgrwt>
<rscale>  2 0.20412251E+02</rscale>
<asrwt>0</asrwt>
<pdfrwt beam="1">  1       21 0.40712956E-02 0.20412251E+02</pdfrwt>
<pdfrwt beam="2">  1       21 0.25441480E-02 0.20412251E+02</pdfrwt>
<totfact> 0.19732514E+08</totfact>
</mgrwt>
</event>
<event>
 4    1  0.4556894E+006  0.2025339E+02  0.7546771E-02  0.1740336E+00
         21   -1    0    0  503  501  0.00000000000E+00  0.00000000000E+00  0.39295093517E+02  0.39295093517E+02  0.00000000000E+00 0.  1.
         21   -1    0    0  504  502 -0.00000000000E+00 -0.00000000000E+00 -0.45975124482E+02  0.45975124482E+02  0.00000000000E+00 0. -1.
         21    1    1    2  503  502 -0.18525892668E+02 -0.81848010452E+01  0.34143579282E+02  0.39698660852E+02  0.00000000000E+00 0.  1.
         21    1    1    2  504  501  0.18525892668E+02  0.81848010452E+01 -0.40823610246E+02  0.45571557147E+02  0.00000000000E+00 0. -1.
<mgrwt>
<rscale>  2 0.20253387E+02</rscale>
<asrwt>0</asrwt>
<pdfrwt beam="1">  1       21 0.60453990E-02 0.20253387E+02</pdfrwt>
<pdfrwt beam="2">  1       21 0.70730961E-02 0.20253387E+02</pdfrwt>
<totfact> 0.21068976E+07</totfact>
</mgrwt>
</event>
<event>
 4    1  0.4556894E+006  0.3696600E+02  0.7546771E-02  0.1531804E+00
         21   -1    0    0  503  501  0.00000000000E+00  0.00000000000E+00  0.20689984101E+02  0.20689984101E+02  0.00000000000E+00 0. -1.
         21   -1    0    0  504  502 -0.00000000000E+00 -0.00000000000E+00 -0.97328957666E+02  0.97328957666E+02  0.00000000000E+00 0.  1.
         21    1    1    2  503  502 -0.10973487964E+02 -0.35299681080E+02 -0.71774139252E+02  0.80734205810E+02  0.00000000000E+00 0.  1.
         21    1    1    2  504  501  0.10973487964E+02  0.35299681080E+02 -0.48648343126E+01  0.37284735957E+02  0.00000000000E+00 0. -1.
<mgrwt>
<rscale>  2 0.36965997E+02</rscale>
<asrwt>0</asrwt>
<pdfrwt beam="1">  1       21 0.31830746E-02 0.36965997E+02</pdfrwt>
<pdfrwt beam="2">  1       21 0.14973685E-01 0.36965997E+02</pdfrwt>
<totfact> 0.18861379E+07</totfact>
</mgrwt>
</event>
<event>
 4    1  0.4556894E+006  0.2340503E+02  0.7546771E-02  0.1685028E+00
         21   -1    0    0  504  501  0.00000000000E+00  0.00000000000E+00  0.15288762161E+01  0.15288762161E+01  0.00000000000E+00 0.  1.
         21   -1    0    0  501  502 -0.00000000000E+00 -0.00000000000E+00 -0.12667378758E+04  0.12667378758E+04  0.00000000000E+00 0. -1.
         21    1    1    2  503  502  0.14972944333E+02  0.17989067623E+02 -0.11696177044E+04  0.11698518582E+04  0.00000000000E+00 0. -1.
         21    1    1    2  504  503 -0.14972944333E+02 -0.17989067623E+02 -0.95591295177E+02  0.98414893840E+02  0.00000000000E+00 0.  1.
<mgrwt>
<rscale>  2 0.23405034E+02</rscale>
<asrwt>0</asrwt>
<pdfrwt beam="1">  1       21 0.23521174E-03 0.23405034E+02</pdfrwt>
<pdfrwt beam="2">  1       21 0.19488274E+00 0.23405034E+02</pdfrwt>
<totfact> 0.48731172E+06</totfact>
</mgrwt>
</event>
<event>
 4    1  0.4556894E+006  0.3351080E+02  0.7546771E-02  0.1562237E+00
         21   -1    0    0  504  501  0.00000000000E+00  0.00000000000E+00  0.10230112677E+02  0.10230112677E+02  0.00000000000E+00 0.  1.
         21   -1    0    0  503  502 -0.00000000000E+00 -0.00000000000E+00 -0.11039583831E+03  0.11039583831E+03  0.00000000000E+00 0.  1.
         21    1    1    2  503  501 -0.16210028919E+02 -0.29329312049E+02 -0.54619000608E+02  0.64079706696E+02  0.00000000000E+00 0.  1.
         21    1    1    2  504  502  0.16210028919E+02  0.29329312049E+02 -0.45546725024E+02  0.56546244290E+02  0.00000000000E+00 0.  1.
<mgrwt>
<rscale>  2 0.33510798E+02</rscale>
<asrwt>0</asrwt>
<pdfrwt beam="1">  1       21 0.15738635E-02 0.33510798E+02</pdfrwt>
<pdfrwt beam="2">  1       21 0.16983975E-01 0.33510798E+02</pdfrwt>
<totfact> 0.44766720E+07</totfact>
</mgrwt>
</event>
<event>
 4    1  0.4556894E+006  0.2507083E+02  0.7546771E-02  0.1659987E+00
         21   -1    0    0  504  501  0.00000000000E+00  0.00000000000E+00  0.71572261678E+02  0.71572261678E+02  0.00000000000E+00 0. -1.
         21   -1    0    0  503  502 -0.00000000000E+00 -0.00000000000E+00 -0.70299725054E+02  0.70299725054E+02  0.00000000000E+00 0. -1.
         21    1    1    2  503  501  0.23674609209E+02  0.82498077776E+01  0.66993770767E+02  0.71531194392E+02  0.00000000000E+00 0. -1.
         21    1    1    2  504  502 -0.23674609209E+02 -0.82498077776E+01 -0.65721234144E+02  0.70340792339E+02  0.00000000000E+00 0. -1.
<mgrwt>
<rscale>  2 0.25070829E+02</rscale>
<asrwt>0</asrwt>
<pdfrwt beam="1">  1       21 0.11011117E-01 0.25070829E+02</pdfrwt>
<pdfrwt beam="2">  1       21 0.10815342E-01 0.25070829E+02</pdfrwt>
<totfact> 0.41099282E+06</totfact>
</mgrwt>
</event>
<event>
 4    1  0.4556894E+006  0.4999625E+02  0.7546771E-02  0.1445362E+00
         21   -1    0    0  504  501  0.00000000000E+00  0.00000000000E+00  0.27663545260E+03  0.27663545260E+03  0.00000000000E+00 0.  1.
         21   -1    0    0  503  502 -0.00000000000E+00 -0.00000000000E+00 -0.77386603752E+02  0.77386603752E+02  0.00000000000E+00 0.  1.
         21    1    1    2  503  501  0.23717783295E+02  0.44012401561E+02  0.26598071189E+03  0.27063880696E+03  0.00000000000E+00 0.  1.
         21    1    1    2  504  502 -0.23717783295E+02 -0.44012401561E+02 -0.66731863037E+02  0.83383249397E+02  0.00000000000E+00 0.  1.
<mgrwt>
<rscale>  2 0.49996247E+02</rscale>
<asrwt>0</asrwt>
<pdfrwt beam="1">  1       21 0.42559300E-01 0.49996247E+02</pdfrwt>
<pdfrwt beam="2">  1       21 0.11905631E-01 0.49996247E+02</pdfrwt>
<totfact> 0.32328547E+05</totfact>
</mgrwt>
</event>
<event>
 4    1  0.4556894E+006  0.2424271E+02  0.7546771E-02  0.1672124E+00
         21   -1    0    0  504  501  0.00000000000E+00  0.00000000000E+00  0.37962149034E+02  0.37962149034E+02  0.00000000000E+00 0. -1.
         21   -1    0    0  501  502 -0.00000000000E+00 -0.00000000000E+00 -0.69589932182E+02  0.69589932182E+02  0.00000000000E+00 0. -1.
         21    1    1    2  503  502 -0.20088019448E+02 -0.13571305574E+02 -0.63232446943E+02  0.67720389889E+02  0.00000000000E+00 0. -1.
         21    1    1    2  504  503  0.20088019448E+02  0.13571305574E+02  0.31604663795E+02  0.39831691327E+02  0.00000000000E+00 0. -1.
<mgrwt>
<rscale>  2 0.24242707E+02</rscale>
<asrwt>0</asrwt>
<pdfrwt beam="1">  1       21 0.58403307E-02 0.24242707E+02</pdfrwt>
<pdfrwt beam="2">  1       21 0.10706143E-01 0.24242707E+02</pdfrwt>
<totfact> 0.11740623E+07</totfact>
</mgrwt>
</event>
<event>
 4    1  0.4556894E+006  0.2651129E+02  0.7546771E-02  0.1640198E+00
         21   -1    0    0  504  501  0.00000000000E+00  0.00000000000E+00  0.20873474765E+03  0.20873474765E+03  0.00000000000E+00 0. -1.
         21   -1    0    0  501  502 -0.00000000000E+00 -0.00000000000E+00 -0.34141726705E+01  0.34141726705E+01  0.00000000000E+00 0. -1.
         21    1    1    2  503  502  0.26355907594E+02 -0.28660940378E+01  0.11510438463E+03  0.11811802454E+03  0.00000000000E+00 0. -1.
         21    1    1    2  504  503 -0.26355907594E+02  0.28660940378E+01  0.90216190344E+02  0.94030895775E+02  0.00000000000E+00 0. -1.
<mgrwt>
<rscale>  2 0.26511287E+02</rscale>
<asrwt>0</asrwt>
<pdfrwt beam="1">  1       21 0.32113028E-01 0.26511287E+02</pdfrwt>
<pdfrwt beam="2">  1       21 0.52525750E-03 0.26511287E+02</pdfrwt>
<totfact> 0.71371653E+07</totfact>
</mgrwt>
</event>
<event>
 4    1  0.4556894E+006  0.3366851E+02  0.7546771E-02  0.1560753E+00
         21   -1    0    0  502  501  0.00000000000E+00  0.00000000000E+00  0.23965650206E+02  0.23965650206E+02  0.00000000000E+00 0. -1.
         21   -1    0    0  503  502 -0.00000000000E+00 -0.00000000000E+00 -0.50546471477E+03  0.50546471477E+03  0.00000000000E+00 0. -1.
         21    1    1    2  503  504  0.18098837814E+02  0.28390145456E+02 -0.49277497480E+03  0.49392382416E+03  0.00000000000E+00 0. -1.
         21    1    1    2  504  501 -0.18098837814E+02 -0.28390145456E+02  0.11275910230E+02  0.35506540816E+02  0.00000000000E+00 0. -1.
<mgrwt>
<rscale>  2 0.33668506E+02</rscale>
<asrwt>0</asrwt>
<pdfrwt beam="1">  1       21 0.36870235E-02 0.33668506E+02</pdfrwt>
<pdfrwt beam="2">  1       21 0.77763795E-01 0.33668506E+02</pdfrwt>
<totfact> 0.65119247E+05</totfact>
</mgrwt>
</event>
<event>
 4    1  0.4556894E+006  0.2517954E+02  0.7546771E-02  0.1658436E+00
         21   -1    0    0  504  501  0.00000000000E+00  0.00000000000E+00  0.26817062862E+02  0.26817062862E+02  0.00000000000E+00 0. -1.
         21   -1    0    0  503  502 -0.00000000000E+00 -0.00000000000E+00 -0.20103255980E+03  0.20103255980E+03  0.00000000000E+00 0.  1.
         21    1    1    2  503  501  0.17214562863E+02  0.18375752757E+02 -0.19412415101E+03  0.19575033964E+03  0.00000000000E+00 0.  1.
         21    1    1    2  504  502 -0.17214562863E+02 -0.18375752757E+02  0.19908654069E+02  0.32099283026E+02  0.00000000000E+00 0. -1.
<mgrwt>
<rscale>  2 0.25179545E+02</rscale>
<asrwt>0</asrwt>
<pdfrwt beam="1">  1       21 0.41257021E-02 0.25179545E+02</pdfrwt>
<pdfrwt beam="2">  1       21 0.30928085E-01 0.25179545E+02</pdfrwt>
<totfact> 0.32474938E+06</totfact>
</mgrwt>
</event>
<event>
 4    1  0.4556894E+006  0.2305503E+02  0.7546771E-02  0.1690620E+00
         21   -1    0    0  503  501  0.00000000000E+00  0.00000000000E+00  0.70154632900E+01  0.70154632900E+01  0.00000000000E+00 0.  1.
         21   -1    0    0  504  502 -0.00000000000E+00 -0.00000000000E+00 -0.80611021424E+02  0.80611021424E+02  0.00000000000E+00 0. -1.
         21    1    1    2  503  502 -0.18332731756E+02  0.13980184677E+02 -0.47538896885E+02  0.52834471080E+02  0.00000000000E+00 0. -1.
         21    1    1    2  504  501  0.18332731756E+02 -0.13980184677E+02 -0.26056661250E+02  0.34792013634E+02  0.00000000000E+00 0.  1.
<mgrwt>
<rscale>  2 0.23055035E+02</rscale>
<asrwt>0</asrwt>
<pdfrwt beam="1">  1       21 0.10793020E-02 0.23055035E+02</pdfrwt>
<pdfrwt beam="2">  1       21 0.12401696E-01 0.23055035E+02</pdfrwt>
<totfact> 0.12442940E+08</totfact>
</mgrwt>
</event>
<event>
 4    1  0.4556894E+006  0.2034588E+02  0.7546771E-02  0.1738536E+00
         21   -1    0    0  504  501  0.00000000000E+00  0.00000000000E+00  0.43730544490E+01  0.43730544490E+01  0.00000000000E+00 0. -1.
         21   -1    0    0  503  502 -0.00000000000E+00 -0.00000000000E+00 -0.94746706437E+02  0.94746706437E+02  0.00000000000E+00 0. -1.
         21    1    1    2  503  501 -0.39046636175E+01 -0.19967684099E+02 -0.43690489842E+02  0.48195577690E+02  0.00000000000E+00 0. -1.
         21    1    1    2  504  502  0.39046636175E+01  0.19967684099E+02 -0.46683162145E+02  0.50924183195E+02  0.00000000000E+00 0. -1.
<mgrwt>
<rscale>  2 0.20345879E+02</rscale>
<asrwt>0</asrwt>
<pdfrwt beam="1">  1       21 0.67277761E-03 0.20345879E+02</pdfrwt>
<pdfrwt beam="2">  1       21 0.14576416E-01 0.20345879E+02</pdfrwt>
<totfact> 0.18481048E+08</totfact>
</mgrwt>
</event>
<event>
 4    1  0.4556894E+006  0.2088721E+02  0.7546771E-02  0.1728239E+00
         21   -1    0    0  504  501  0.00000000000E+00  0.00000000000E+00  0.33875598897E+02  0.33875598897E+02  0.00000000000E+00 0. -1.
         21   -1    0    0  503  502 -0.00000000000E+00 -0.00000000000E+00 -0.13092145888E+02  0.13092145888E+02  0.00000000000E+00 0. -1.
         21    1    1    2  503  501 -0.17641045993E+02 -0.11183421789E+02  0.73935610567E+01  0.22157169759E+02  0.00000000000E+00 0. -1.
         21    1    1    2  504  502  0.17641045993E+02  0.11183421789E+02  0.13389891951E+02  0.24810575026E+02  0.00000000000E+00 0. -1.
<mgrwt>
<rscale>  2 0.20887207E+02</rscale>
<asrwt>0</asrwt>
<pdfrwt beam="1">  1       21 0.52116306E-02 0.20887207E+02</pdfrwt>
<pdfrwt beam="2">  1       21 0.20141763E-02 0.20887207E+02</pdfrwt>
<totfact> 0.19263680E+08</totfact>
</mgrwt>
</event>
<event>
 4    1  0.4556894E+006  0.2131932E+02  0.7546771E-02  0.1720297E+00
         21   -1    0    0  502  501  0.00000000000E+00  0.00000000000E+00  0.12365605316E+01  0.12365605316E+01  0.00000000000E+00 0.  1.
         21   -1    0    0  504  502 -0.00000000000E+00 -0.00000000000E+00 -0.45357096323E+03  0.45357096323E+03  0.00000000000E+00 0.  1.
         21    1    1    2  503  501 -0.21205061296E+02 -0.22042366112E+01 -0.12714202826E+03  0.12891706107E+03  0.00000000000E+00 0.  1.
         21    1    1    2  504  503  0.21205061296E+02  0.22042366112E+01 -0.32519237443E+03  0.32589046269E+03  0.00000000000E+00 0.  1.
<mgrwt>
<rscale>  2 0.21319317E+02</rscale>
<asrwt>0</asrwt>
<pdfrwt beam="1">  1       21 0.19023980E-03 0.21319317E+02</pdfrwt>
<pdfrwt beam="2">  1       21 0.69780250E-01 0.21319317E+02</pdfrwt>
<totfact> 0.66469865E+07</totfact>
</mgrwt>
</event>
<event>
 4    1  0.4556894E+006  0.2029214E+02  0.7546771E-02  0.1739580E+00
         21   -1    0    0  504  501  0.00000000000E+00  0.00000000000E+00  0.38682438682E+03  0.38682438682E+03  0.00000000000E+00 0. -1.
         21   -1    0    0  503  502 -0.00000000000E+00 -0.00000000000E+00 -0.44339979427E+01  0.44339979427E+01  0.00000000000E+00 0. -1.
         21    1    1    2  503  501 -0.20120118228E+02 -0.26366042974E+01  0.36173239749E+03  0.36230111542E+03  0.00000000000E+00 0. -1.
         21    1    1    2  504  502  0.20120118228E+02  0.26366042974E+01  0.20657991389E+02  0.28957269345E+02  0.00000000000E+00 0. -1.
<mgrwt>
<rscale>  2 0.20292137E+02</rscale>
<asrwt>0</asrwt>
<pdfrwt beam="1">  1       21 0.59511417E-01 0.20292137E+02</pdfrwt>
<pdfrwt beam="2">  1       21 0.68215383E-03 0.20292137E+02</pdfrwt>
<totfact> 0.14064859E+07</totfact>
</mgrwt>
</event>
<event>
 4    1  0.4556894E+006  0.2248476E+02  0.7546771E-02  0.1700001E+00
         21   -1    0    0  502  501  0.00000000000E+00  0.00000000000E+00  0.23252097542E+02  0.23252097542E+02  0.00000000000E+00 0.  1.
         21   -1    0    0  503  502 -0.00000000000E+00 -0.00000000000E+00 -0.11754849057E+04  0.11754849057E+04  0.00000000000E+00 0. -1.
         21    1    1    2  503  504 -0.21652146629E+02  0.60621049084E+01 -0.11699158226E+04  0.11701318714E+04  0.00000000000E+00 0. -1.
         21    1    1    2  504  501  0.21652146629E+02 -0.60621049084E+01  0.17683014405E+02  0.28605131848E+02  0.00000000000E+00 0.  1.
<mgrwt>
<rscale>  2 0.22484763E+02</rscale>
<asrwt>0</asrwt>
<pdfrwt beam="1">  1       21 0.35772463E-02 0.22484763E+02</pdfrwt>
<pdfrwt beam="2">  1       21 0.18084381E+00 0.22484763E+02</pdfrwt>
<totfact> 0.98670527E+04</totfact>
</mgrwt>
</event>
<event>
 4    1  0.4556894E+006  0.5073350E+02  0.7546771E-02  0.1441425E+00
         21   -1    0    0  502  501  0.00000000000E+00  0.00000000000E+00  0.21772994578E+03  0.21772994578E+03  0.00000000000E+00 0. -1.
         21   -1    0    0  503  502 -0.00000000000E+00 -0.00000000000E+00 -0.32953955664E+02  0.32953955664E+02  0.00000000000E+00 0. -1.
         21    1    1    2  503  504 -0.30830859269E+02  0.40290765873E+02 -0.79852533808E+01  0.51358075990E+02  0.00000000000E+00 0. -1.
         21    1    1    2  504  501  0.30830859269E+02 -0.40290765873E+02  0.19276124350E+03  0.19932582545E+03  0.00000000000E+00 0. -1.
<mgrwt>
<rscale>  2 0.50733497E+02</rscale>
<asrwt>0</asrwt>
<pdfrwt beam="1">  1       21 0.33496914E-01 0.50733497E+02</pdfrwt>
<pdfrwt beam="2">  1       21 0.50698394E-02 0.50733497E+02</pdfrwt>
<totfact> 0.21488055E+06</totfact>
</mgrwt>
</event>
<event>
 4    1  0.4556894E+006  0.2432887E+02  0.7546771E-02  0.1670833E+00
         21   -1    0    0  503  501  0.00000000000E+00  0.00000000000E+00  0.96033131773E+02  0.96033131773E+02  0.00000000000E+00 0. -1.
         21   -1    0    0  504  502 -0.00000000000E+00 -0.00000000000E+00 -0.10619380530E+04  0.10619380530E+04  0.00000000000E+00 0.  1.
         21    1    1    2  503  502  0.22658645552E+01 -0.24223122598E+02  0.94350485546E+02  0.97436686794E+02  0.00000000000E+00 0. -1.
         21    1    1    2  504  501 -0.22658645552E+01  0.24223122598E+02 -0.10602554067E+04  0.10605344979E+04  0.00000000000E+00 0.  1.
<mgrwt>
<rscale>  2 0.24328868E+02</rscale>
<asrwt>0</asrwt>
<pdfrwt beam="1">  1       21 0.14774328E-01 0.24328868E+02</pdfrwt>
<pdfrwt beam="2">  1       21 0.16337508E+00 0.24328868E+02</pdfrwt>
<totfact> 0.12518849E+04</totfact>
</mgrwt>
</event>
<event>
 4    1  0.4556894E+006  0.2648420E+02  0.7546771E-02  0.1640556E+00
         21   -1    0    0  503  501  0.00000000000E+00  0.00000000000E+00  0.37136748209E+02  0.37136748209E+02  0.00000000000E+00 0.  1.
         21   -1    0    0  504  502 -0.00000000000E+00 -0.00000000000E+00 -0.19537050482E+02  0.19537050482E+02  0.00000000000E+00 0.  1.
         21    1    1    2  503  502  0.17566580682E+02  0.19819884851E+02  0.13967568474E+02  0.29941702714E+02  0.00000000000E+00 0.  1.
         21    1    1    2  504  501 -0.17566580682E+02 -0.19819884851E+02  0.36321292541E+01  0.26732095976E+02  0.00000000000E+00 0.  1.
<mgrwt>
<rscale>  2 0.26484195E+02</rscale>
<asrwt>0</asrwt>
<pdfrwt beam="1">  1       21 0.57133459E-02 0.26484195E+02</pdfrwt>
<pdfrwt beam="2">  1       21 0.30057001E-02 0.26484195E+02</pdfrwt>
<totfact> 0.95969041E+07</totfact>
</mgrwt>
</event>
<event>
 4    1  0.4556894E+006  0.3797142E+02  0.7546771E-02  0.1523693E+00
         21   -1    0    0  503  501  0.00000000000E+00  0.00000000000E+00  0.32726773686E+03  0.32726773686E+03  0.00000000000E+00 0. -1.
         21   -1    0    0  501  502 -0.00000000000E+00 -0.00000000000E+00 -0.11029396982E+02  0.11029396982E+02  0.00000000000E+00 0.  1.
         21    1    1    2  503  504  0.27465114806E+02  0.26220141762E+02  0.28920150809E+03  0.29168363109E+03  0.00000000000E+00 0. -1.
         21    1    1    2  504  502 -0.27465114806E+02 -0.26220141762E+02  0.27036831784E+02  0.46613502746E+02  0.00000000000E+00 0.  1.
<mgrwt>
<rscale>  2 0.37971415E+02</rscale>
<asrwt>0</asrwt>
<pdfrwt beam="1">  1       21 0.50348875E-01 0.37971415E+02</pdfrwt>
<pdfrwt beam="2">  1       21 0.16968306E-02 0.37971415E+02</pdfrwt>
<totfact> 0.54268211E+06</totfact>
</mgrwt>
</event>
<event>
 4    1  0.4556894E+006  0.2300260E+02  0.7546771E-02  0.1691468E+00
         21   -1    0    0  504  501  0.00000000000E+00  0.00000000000E+00  0.11215576845E+02  0.11215576845E+02  0.00000000000E+00 0.  1.
         21   -1    0    0  503  502 -0.00000000000E+00 -0.00000000000E+00 -0.48024847605E+02  0.48024847605E+02  0.00000000000E+00 0.  1.
         21    1    1    2  503  501 -0.10686261338E+02  0.20369669723E+02 -0.22339775779E+02  0.32065327191E+02  0.00000000000E+00 0.  1.
         21    1    1    2  504  502  0.10686261338E+02 -0.20369669723E+02 -0.14469494982E+02  0.27175097259E+02  0.00000000000E+00 0.  1.
<mgrwt>
<rscale>  2 0.23002600E+02</rscale>
<asrwt>0</asrwt>
<pdfrwt beam="1">  1       21 0.17254734E-02 0.23002600E+02</pdfrwt>
<pdfrwt beam="2">  1       21 0.73884380E-02 0.23002600E+02</pdfrwt>
<totfact> 0.14352671E+08</totfact>
</mgrwt>
</event>
<event>
 4    1  0.4556894E+006  0.2142867E+02  0.7546771E-02  0.1718324E+00
         21   -1    0    0  503  501  0.00000000000E+00  0.00000000000E+00  0.13387851511E+03  0.13387851511E+03  0.00000000000E+00 0. -1.
         21   -1    0    0  504  502 -0.00000000000E+00 -0.00000000000E+00 -0.12460694166E+02  0.12460694166E+02  0.00000000000E+00 0. -1.
         21    1    1    2  503  502 -0.21286057157E+02 -0.24681605783E+01 -0.15817446195E+01  0.21486971913E+02  0.00000000000E+00 0. -1.
         21    1    1    2  504  501  0.21286057157E+02  0.24681605783E+01  0.12299956556E+03  0.12485223736E+03  0.00000000000E+00 0. -1.
<mgrwt>
<rscale>  2 0.21428673E+02</rscale>
<asrwt>0</asrwt>
<pdfrwt beam="1">  1       21 0.20596694E-01 0.21428673E+02</pdfrwt>
<pdfrwt beam="2">  1       21 0.19170300E-02 0.21428673E+02</pdfrwt>
<totfact> 0.21466977E+07</totfact>
</mgrwt>
</event>
<event>
 4    1  0.4556894E+006  0.2022223E+02  0.7546771E-02  0.1740945E+00
         21   -1    0    0  504  501  0.00000000000E+00  0.00000000000E+00  0.11420078204E+03  0.11420078204E+03  0.00000000000E+00 0.  1.
         21   -1    0    0  501  502 -0.00000000000E+00 -0.00000000000E+00 -0.38921501507E+02  0.38921501507E+02  0.00000000000E+00 0. -1.
         21    1    1    2  503  502  0.19208041594E+02 -0.63237320453E+01 -0.35314634670E+02  0.40694740086E+02  0.00000000000E+00 0. -1.
         21    1    1    2  504  503 -0.19208041594E+02  0.63237320453E+01  0.11059391520E+03  0.11242754346E+03  0.00000000000E+00 0.  1.
<mgrwt>
<rscale>  2 0.20222227E+02</rscale>
<asrwt>0</asrwt>
<pdfrwt beam="1">  1       21 0.17569351E-01 0.20222227E+02</pdfrwt>
<pdfrwt beam="2">  1       21 0.59879234E-02 0.20222227E+02</pdfrwt>
<totfact> 0.47265647E+06</totfact>
</mgrwt>
</event>
<event>
 4    1  0.4556894E+006  0.2362255E+02  0.7546771E-02  0.1681613E+00
         21   -1    0    0  503  501  0.00000000000E+00  0.00000000000E+00  0.17082694368E+02  0.17082694368E+02  0.00000000000E+00 0.  1.
         21   -1    0    0  504  502 -0.00000000000E+00 -0.00000000000E+00 -0.36143010030E+02  0.36143010030E+02  0.00000000000E+00 0.  1.
         21    1    1    2  503  502 -0.15184210299E+02 -0.18095983368E+02 -0.12759286475E+01  0.23656983121E+02  0.00000000000E+00 0.  1.
         21    1    1    2  504  501  0.15184210299E+02  0.18095983368E+02 -0.17784387014E+02  0.29568721277E+02  0.00000000000E+00 0.  1.
<mgrwt>
<rscale>  2 0.23622550E+02</rscale>
<asrwt>0</asrwt>
<pdfrwt beam="1">  1       21 0.26281069E-02 0.23622550E+02</pdfrwt>
<pdfrwt beam="2">  1       21 0.55604630E-02 0.23622550E+02</pdfrwt>
<totfact> 0.11975853E+08</totfact>
</mgrwt>
</event>
<event>
 4    1  0.4556894E+006  0.2104886E+02  0.7546771E-02  0.1725240E+00
         21   -1    0    0  504  501  0.00000000000E+00  0.00000000000E+00  0.26653299069E+01  0.26653299069E+01  0.00000000000E+00 0. -1.
         21   -1    0    0  503  502 -0.00000000000E+00 -0.00000000000E+00 -0.16807460785E+03  0.16807460785E+03  0.00000000000E+00 0. -1.
         21    1    1    2  503  501 -0.13249711817E+02  0.16355418295E+02 -0.91651037669E+02  0.94037052679E+02  0.00000000000E+00 0. -1.
         21    1    1    2  504  502  0.13249711817E+02 -0.16355418295E+02 -0.73758240270E+02  0.76702885073E+02  0.00000000000E+00 0. -1.
<mgrwt>
<rscale>  2 0.21048862E+02</rscale>
<asrwt>0</asrwt>
<pdfrwt beam="1">  1       21 0.41005081E-03 0.21048862E+02</pdfrwt>
<pdfrwt beam="2">  1       21 0.25857629E-01 0.21048862E+02</pdfrwt>
<totfact> 0.14324143E+08</totfact>
</mgrwt>
</event>
<event>
 4    1  0.4556894E+006  0.2480100E+02  0.7546771E-02  0.1663877E+00
         21   -1    0    0  504  501  0.00000000000E+00  0.00000000000E+00  0.58564751313E+02  0.58564751313E+02  0.00000000000E+00 0. -1.
         21   -1    0    0  501  502 -0.00000000000E+00 -0.00000000000E+00 -0.14562197194E+02  0.14562197194E+02  0.00000000000E+00 0. -1.
         21    1    1    2  503  502 -0.18479568862E+02  0.16540707418E+02  0.26963219175E+01  0.24947136491E+02  0.00000000000E+00 0. -1.
         21    1    1    2  504  503  0.18479568862E+02 -0.16540707418E+02  0.41306232202E+02  0.48179812016E+02  0.00000000000E+00 0. -1.
<mgrwt>
<rscale>  2 0.24800997E+02</rscale>
<asrwt>0</asrwt>
<pdfrwt beam="1">  1       21 0.90099616E-02 0.24800997E+02</pdfrwt>
<pdfrwt beam="2">  1       21 0.22403381E-02 0.24800997E+02</pdfrwt>
<totfact> 0.70956241E+07</totfact>
</mgrwt>
</event>
<event>
 4    1  0.4556894E+006  0.4253707E+02  0.7546771E-02  0.1490330E+00
         21   -1    0    0  503  501  0.00000000000E+00  0.00000000000E+00  0.12310507293E+02  0.12310507293E+02  0.00000000000E+00 0.  1.
         21   -1    0    0  504  502 -0.00000000000E+00 -0.00000000000E+00 -0.21437277905E+03  0.21437277905E+03  0.00000000000E+00 0.  1.
         21    1    1    2  503  502  0.42085790375E+02 -0.61796639782E+01 -0.16458038399E+03  0.16998854312E+03  0.00000000000E+00 0.  1.
         21    1    1    2  504  501 -0.42085790375E+02  0.61796639782E+01 -0.37481887765E+02  0.56694743220E+02  0.00000000000E+00 0.  1.
<mgrwt>
<rscale>  2 0.42537066E+02</rscale>
<asrwt>0</asrwt>
<pdfrwt beam="1">  1       21 0.18939243E-02 0.42537066E+02</pdfrwt>
<pdfrwt beam="2">  1       21 0.32980426E-01 0.42537066E+02</pdfrwt>
<totfact> 0.10500663E+07</totfact>
</mgrwt>
</event>
<event>
 4    1  0.4556894E+006  0.2048020E+02  0.7546771E-02  0.1735944E+00
         21   -1    0    0  504  501  0.00000000000E+00  0.00000000000E+00  0.82948461622E+01  0.82948461622E+01  0.00000000000E+00 0.  1.
         21   -1    0    0  503  502 -0.00000000000E+00 -0.00000000000E+00 -0.54105945813E+02  0.54105945813E+02  0.00000000000E+00 0.  1.
         21    1    1    2  503  501 -0.35463630147E+01 -0.20170818608E+02 -0.30885963304E+02  0.37059160044E+02  0.00000000000E+00 0.  1.
         21    1    1    2  504  502  0.35463630147E+01  0.20170818608E+02 -0.14925136347E+02  0.25341631931E+02  0.00000000000E+00 0.  1.
<mgrwt>
<rscale>  2 0.20480201E+02</rscale>
<asrwt>0</asrwt>
<pdfrwt beam="1">  1       21 0.12761302E-02 0.20480201E+02</pdfrwt>
<pdfrwt beam="2">  1       21 0.83239917E-02 0.20480201E+02</pdfrwt>
<totfact> 0.18024876E+08</totfact>
</mgrwt>
</event>
<event>
 4    1  0.4556894E+006  0.2343460E+02  0.7546771E-02  0.1684561E+00
         21   -1    0    0  503  501  0.00000000000E+00  0.00000000000E+00  0.28729787320E+03  0.28729787320E+03  0.00000000000E+00 0.  1.
         21   -1    0    0  504  502 -0.00000000000E+00 -0.00000000000E+00 -0.40105348965E+01  0.40105348965E+01  0.00000000000E+00 0.  1.
         21    1    1    2  503  502  0.12685056711E+02 -0.19704566409E+02  0.36271033022E+02  0.43182964669E+02  0.00000000000E+00 0.  1.
         21    1    1    2  504  501 -0.12685056711E+02  0.19704566409E+02  0.24701630528E+03  0.24812544342E+03  0.00000000000E+00 0.  1.
<mgrwt>
<rscale>  2 0.23434603E+02</rscale>
<asrwt>0</asrwt>
<pdfrwt beam="1">  1       21 0.44199657E-01 0.23434603E+02</pdfrwt>
<pdfrwt beam="2">  1       21 0.61700559E-03 0.23434603E+02</pdfrwt>
<totfact> 0.30015209E+07</totfact>
</mgrwt>
</event>
<event>
 4    1  0.4556894E+006  0.2364606E+02  0.7546771E-02  0.1681247E+00
         21   -1    0    0  503  501  0.00000000000E+00  0.00000000000E+00  0.95079364677E+02  0.95079364677E+02  0.00000000000E+00 0. -1.
         21   -1    0    0  504  502 -0.00000000000E+00 -0.00000000000E+00 -0.14471584295E+02  0.14471584295E+02  0.00000000000E+00 0. -1.
         21    1    1    2  503  502  0.11566750892E+02  0.20623931196E+02 -0.18993926569E+01  0.23722224952E+02  0.00000000000E+00 0. -1.
         21    1    1    2  504  501 -0.11566750892E+02 -0.20623931196E+02  0.82507173039E+02  0.85828724021E+02  0.00000000000E+00 0. -1.
<mgrwt>
<rscale>  2 0.23646062E+02</rscale>
<asrwt>0</asrwt>
<pdfrwt beam="1">  1       21 0.14627594E-01 0.23646062E+02</pdfrwt>
<pdfrwt beam="2">  1       21 0.22263976E-02 0.23646062E+02</pdfrwt>
<totfact> 0.31464729E+07</totfact>
</mgrwt>
</event>
<event>
 4    1  0.4556894E+006  0.2573018E+02  0.7546771E-02  0.1650730E+00
         21   -1    0    0  504  501  0.00000000000E+00  0.00000000000E+00  0.60568144182E+02  0.60568144182E+02  0.00000000000E+00 0. -1.
         21   -1    0    0  503  502 -0.00000000000E+00 -0.00000000000E+00 -0.78253658818E+02  0.78253658818E+02  0.00000000000E+00 0.  1.
         21    1    1    2  503  501  0.25714497894E+02  0.89815378163E+00  0.55538209710E+02  0.61208943954E+02  0.00000000000E+00 0. -1.
         21    1    1    2  504  502 -0.25714497894E+02 -0.89815378163E+00 -0.73223724346E+02  0.77612859046E+02  0.00000000000E+00 0.  1.
<mgrwt>
<rscale>  2 0.25730178E+02</rscale>
<asrwt>0</asrwt>
<pdfrwt beam="1">  1       21 0.93181761E-02 0.25730178E+02</pdfrwt>
<pdfrwt beam="2">  1       21 0.12039024E-01 0.25730178E+02</pdfrwt>
<totfact> 0.45495794E+06</totfact>
</mgrwt>
</event>
<event>
 4    1  0.4556894E+006  0.2414962E+02  0.7546771E-02  0.1673525E+00
         21   -1    0    0  504  501  0.00000000000E+00  0.00000000000E+00  0.18680584697E+03  0.18680584697E+03  0.00000000000E+00 0. -1.
         21   -1    0    0  503  502 -0.00000000000E+00 -0.00000000000E+00 -0.28423955333E+02  0.28423955333E+02  0.00000000000E+00 0. -1.
         21    1    1    2  503  501 -0.11252359128E+02 -0.21367929620E+02 -0.22342090638E+02  0.32899437933E+02  0.00000000000E+00 0. -1.
         21    1    1    2  504  502  0.11252359128E+02  0.21367929620E+02  0.18072398228E+03  0.18233036437E+03  0.00000000000E+00 0. -1.
<mgrwt>
<rscale>  2 0.24149617E+02</rscale>
<asrwt>0</asrwt>
<pdfrwt beam="1">  1       21 0.28739360E-01 0.24149617E+02</pdfrwt>
<pdfrwt beam="2">  1       21 0.43729163E-02 0.24149617E+02</pdfrwt>
<totfact> 0.33666886E+06</totfact>
</mgrwt>
</event>
<event>
 4    1  0.4556894E+006  0.2335273E+02  0.7546771E-02  0.1685855E+00
         21   -1    0    0  503  501  0.00000000000E+00  0.00000000000E+00  0.47354946539E+02  0.47354946539E+02  0.00000000000E+00 0. -1.
         21   -1    0    0  504  502 -0.00000000000E+00 -0.00000000000E+00 -0.48629509546E+03  0.48629509546E+03  0.00000000000E+00 0. -1.
         21    1    1    2  503  502 -0.13169811459E+02  0.19284864213E+02 -0.48311675145E+03  0.48368083015E+03  0.00000000000E+00 0. -1.
         21    1    1    2  504  501  0.13169811459E+02 -0.19284864213E+02  0.44176602531E+02  0.49969211848E+02  0.00000000000E+00 0. -1.
<mgrwt>
<rscale>  2 0.23352728E+02</rscale>
<asrwt>0</asrwt>
<pdfrwt beam="1">  1       21 0.72853766E-02 0.23352728E+02</pdfrwt>
<pdfrwt beam="2">  1       21 0.74814628E-01 0.23352728E+02</pdfrwt>
<totfact> 0.23316130E+05</totfact>
</mgrwt>
</event>
<event>
 4    1  0.4556894E+006  0.2020678E+02  0.7546771E-02  0.1741247E+00
         21   -1    0    0  503  501  0.00000000000E+00  0.00000000000E+00  0.27001481849E+02  0.27001481849E+02  0.00000000000E+00 0. -1.
         21   -1    0    0  504  502 -0.00000000000E+00 -0.00000000000E+00 -0.22693044043E+02  0.22693044043E+02  0.00000000000E+00 0. -1.
         21    1    1    2  503  502  0.26663997292E+01  0.20030087934E+02 -0.12197783736E+02  0.23602966725E+02  0.00000000000E+00 0. -1.
         21    1    1    2  504  501 -0.26663997292E+01 -0.20030087934E+02  0.16506221542E+02  0.26091559167E+02  0.00000000000E+00 0. -1.
<mgrwt>
<rscale>  2 0.20206784E+02</rscale>
<asrwt>0</asrwt>
<pdfrwt beam="1">  1       21 0.41540741E-02 0.20206784E+02</pdfrwt>
<pdfrwt beam="2">  1       21 0.34912376E-02 0.20206784E+02</pdfrwt>
<totfact> 0.11671782E+08</totfact>
</mgrwt>
</event>
<event>
 4    1  0.4556894E+006  0.2778457E+02  0.7546771E-02  0.1623953E+00
         21   -1    0    0  503  501  0.00000000000E+00  0.00000000000E+00  0.95554594876E+02  0.95554594876E+02  0.00000000000E+00 0.  1.
         21   -1    0    0  504  502 -0.00000000000E+00 -0.00000000000E+00 -0.37007196475E+02  0.37007196475E+02  0.00000000000E+00 0. -1.
         21    1    1    2  503  502 -0.15053831454E+02 -0.23353036748E+02  0.87874860478E+02  0.92162754249E+02  0.00000000000E+00 0.  1.
         21    1    1    2  504  501  0.15053831454E+02  0.23353036748E+02 -0.29327462077E+02  0.40399037101E+02  0.00000000000E+00 0. -1.
<mgrwt>
<rscale>  2 0.27784567E+02</rscale>
<asrwt>0</asrwt>
<pdfrwt beam="1">  1       21 0.14700707E-01 0.27784567E+02</pdfrwt>
<pdfrwt beam="2">  1       21 0.56934149E-02 0.27784567E+02</pdfrwt>
<totfact> 0.73323693E+06</totfact>
</mgrwt>
</event>
<event>
 4    1  0.4556894E+006  0.2814856E+02  0.7546771E-02  0.1619504E+00
         21   -1    0    0  504  501  0.00000000000E+00  0.00000000000E+00  0.15991629964E+03  0.15991629964E+03  0.00000000000E+00 0.  1.
         21   -1    0    0  503  502 -0.00000000000E+00 -0.00000000000E+00 -0.66341745783E+01  0.66341745783E+01  0.00000000000E+00 0.  1.
         21    1    1    2  503  501 -0.11357348241E+01 -0.28125636389E+02  0.11854027809E+03  0.12183652509E+03  0.00000000000E+00 0.  1.
         21    1    1    2  504  502  0.11357348241E+01  0.28125636389E+02  0.34741846973E+02  0.44713949132E+02  0.00000000000E+00 0.  1.
<mgrwt>
<rscale>  2 0.28148558E+02</rscale>
<asrwt>0</asrwt>
<pdfrwt beam="1">  1       21 0.24602505E-01 0.28148558E+02</pdfrwt>
<pdfrwt beam="2">  1       21 0.10206424E-02 0.28148558E+02</pdfrwt>
<totfact> 0.43420572E+07</totfact>
</mgrwt>
</event>
<event>
 4    1  0.4556894E+006  0.2821499E+02  0.7546771E-02  0.1618701E+00
         21   -1    0    0  504  501  0.00000000000E+00  0.00000000000E+00  0.32344698679E+02  0.32344698679E+02  0.00000000000E+00 0.  1.
         21   -1    0    0  503  502 -0.00000000000E+00 -0.00000000000E+00 -0.25898428097E+02  0.25898428097E+02  0.00000000000E+00 0.  1.
         21    1    1    2  503  501 -0.27017364533E+02 -0.81331095631E+01  0.97121412845E+01  0.29839757804E+02  0.00000000000E+00 0.  1.
         21    1    1    2  504  502  0.27017364533E+02  0.81331095631E+01 -0.32658707031E+01  0.28403368972E+02  0.00000000000E+00 0.  1.
<mgrwt>
<rscale>  2 0.28214986E+02</rscale>
<asrwt>0</asrwt>
<pdfrwt beam="1">  1       21 0.49761075E-02 0.28214986E+02</pdfrwt>
<pdfrwt beam="2">  1       21 0.39843735E-02 0.28214986E+02</pdfrwt>
<totfact> 0.78100053E+07</totfact>
</mgrwt>
</event>
<event>
 4    1  0.4556894E+006  0.2326905E+02  0.7546771E-02  0.1687186E+00
         21   -1    0    0  503  501  0.00000000000E+00  0.00000000000E+00  0.15102150330E+03  0.15102150330E+03  0.00000000000E+00 0. -1.
         21   -1    0    0  504  502 -0.00000000000E+00 -0.00000000000E+00 -0.53659774250E+01  0.53659774250E+01  0.00000000000E+00 0. -1.
         21    1    1    2  503  502 -0.23235130420E+02  0.12558588673E+01  0.11787284716E+03  0.12014764486E+03  0.00000000000E+00 0. -1.
         21    1    1    2  504  501  0.23235130420E+02 -0.12558588673E+01  0.27782678714E+02  0.36239835866E+02  0.00000000000E+00 0. -1.
<mgrwt>
<rscale>  2 0.23269045E+02</rscale>
<asrwt>0</asrwt>
<pdfrwt beam="1">  1       21 0.23234074E-01 0.23269045E+02</pdfrwt>
<pdfrwt beam="2">  1       21 0.82553510E-03 0.23269045E+02</pdfrwt>
<totfact> 0.63268754E+07</totfact>
</mgrwt>
</event>
<event>
 4    1  0.4556894E+006  0.2693977E+02  0.7546771E-02  0.1634608E+00
         21   -1    0    0  503  501  0.00000000000E+00  0.00000000000E+00  0.77558527730E+02  0.77558527730E+02  0.00000000000E+00 0.  1.
         21   -1    0    0  504  502 -0.00000000000E+00 -0.00000000000E+00 -0.93862577047E+01  0.93862577047E+01  0.00000000000E+00 0.  1.
         21    1    1    2  503  502  0.26215843134E+02 -0.62032858952E+01  0.36493880813E+02  0.45360274734E+02  0.00000000000E+00 0.  1.
         21    1    1    2  504  501 -0.26215843134E+02  0.62032858952E+01  0.31678389212E+02  0.41584510701E+02  0.00000000000E+00 0.  1.
<mgrwt>
<rscale>  2 0.26939770E+02</rscale>
<asrwt>0</asrwt>
<pdfrwt beam="1">  1       21 0.11932081E-01 0.26939770E+02</pdfrwt>
<pdfrwt beam="2">  1       21 0.14440397E-02 0.26939770E+02</pdfrwt>
<totfact> 0.89062195E+07</totfact>
</mgrwt>
</event>
<event>
 4    1  0.4556894E+006  0.2052409E+02  0.7546771E-02  0.1735102E+00
         21   -1    0    0  503  501  0.00000000000E+00  0.00000000000E+00  0.10466276280E+04  0.10466276280E+04  0.00000000000E+00 0.  1.
         21   -1    0    0  501  502 -0.00000000000E+00 -0.00000000000E+00 -0.79591792923E+01  0.79591792923E+01  0.00000000000E+00 0.  1.
         21    1    1    2  503  504 -0.90175917452E+01  0.18436959350E+02  0.10331228569E+04  0.10333267033E+04  0.00000000000E+00 0.  1.
         21    1    1    2  504  502  0.90175917452E+01 -0.18436959350E+02  0.55455918182E+01  0.21260103941E+02  0.00000000000E+00 0.  1.
<mgrwt>
<rscale>  2 0.20524094E+02</rscale>
<asrwt>0</asrwt>
<pdfrwt beam="1">  1       21 0.16101953E+00 0.20524094E+02</pdfrwt>
<pdfrwt beam="2">  1       21 0.12244900E-02 0.20524094E+02</pdfrwt>
<totfact> 0.67727345E+05</totfact>
</mgrwt>
</event>
<event>
 4    1  0.4556894E+006  0.3905968E+02  0.7546771E-02  0.1515247E+00
         21   -1    0    0  504  501  0.00000000000E+00  0.00000000000E+00  0.44212566251E+02  0.44212566251E+02  0.00000000000E+00 0.  1.
         21   -1    0    0  501  502 -0.00000000000E+00 -0.00000000000E+00 -0.77070657747E+02  0.77070657747E+02  0.00000000000E+00 0.  1.
         21    1    1    2  503  502 -0.94230965954E+01  0.37905983243E+02 -0.61494516427E+02  0.72850764346E+02  0.00000000000E+00 0.  1.
         21    1    1    2  504  503  0.94230965954E+01 -0.37905983243E+02  0.28636424932E+02  0.48432459653E+02  0.00000000000E+00 0.  1.
<mgrwt>
<rscale>  2 0.39059676E+02</rscale>
<asrwt>0</asrwt>
<pdfrwt beam="1">  1       21 0.68019333E-02 0.39059676E+02</pdfrwt>
<pdfrwt beam="2">  1       21 0.11857024E-01 0.39059676E+02</pdfrwt>
<totfact> 0.83231763E+06</totfact>
</mgrwt>
</event>
<event>
 4    1  0.4556894E+006  0.2809287E+02  0.7546771E-02  0.1620180E+00
         21   -1    0    0  503  501  0.00000000000E+00  0.00000000000E+00  0.43510224368E+02  0.43510224368E+02  0.00000000000E+00 0.  1.
         21   -1    0    0  504  502 -0.00000000000E+00 -0.00000000000E+00 -0.26761469071E+02  0.26761469071E+02  0.00000000000E+00 0.  1.
         21    1    1    2  503  502  0.19654673895E+02 -0.20072443403E+02 -0.11570181907E+02  0.30382203664E+02  0.00000000000E+00 0.  1.
         21    1    1    2  504  501 -0.19654673895E+02  0.20072443403E+02  0.28318937205E+02  0.39889489775E+02  0.00000000000E+00 0.  1.
<mgrwt>
<rscale>  2 0.28092867E+02</rscale>
<asrwt>0</asrwt>
<pdfrwt beam="1">  1       21 0.66938807E-02 0.28092867E+02</pdfrwt>
<pdfrwt beam="2">  1       21 0.41171491E-02 0.28092867E+02</pdfrwt>
<totfact> 0.45863290E+07</totfact>
</mgrwt>
</event>
<event>
 4    1  0.4556894E+006  0.3584139E+02  0.7546771E-02  0.1541253E+00
         21   -1    0    0  503  501  0.00000000000E+00  0.00000000000E+00  0.95108410338E+03  0.95108410338E+03  0.00000000000E+00 0.  1.
         21   -1    0    0  501  502 -0.00000000000E+00 -0.00000000000E+00 -0.34654391628E+02  0.34654391628E+02  0.00000000000E+00 0. -1.
         21    1    1    2  503  504 -0.29145009024E+02  0.20860814482E+02  0.94138371507E+03  0.94206576423E+03  0.00000000000E+00 0.  1.
         21    1    1    2  504  502  0.29145009024E+02 -0.20860814482E+02 -0.24954003321E+02  0.43672730777E+02  0.00000000000E+00 0. -1.
<mgrwt>
<rscale>  2 0.35841389E+02</rscale>
<asrwt>0</asrwt>
<pdfrwt beam="1">  1       21 0.14632061E+00 0.35841389E+02</pdfrwt>
<pdfrwt beam="2">  1       21 0.53314456E-02 0.35841389E+02</pdfrwt>
<totfact> 0.86244631E+04</totfact>
</mgrwt>
</event>
<event>
 4    1  0.4556894E+006  0.5170782E+02  0.7546771E-02  0.1436342E+00
         21   -1    0    0  504  501  0.00000000000E+00  0.00000000000E+00  0.20693268106E+02  0.20693268106E+02  0.00000000000E+00 0.  1.
         21   -1    0    0  503  502 -0.00000000000E+00 -0.00000000000E+00 -0.11873488840E+04  0.11873488840E+04  0.00000000000E+00 0.  1.
         21    1    1    2  503  501  0.11926269414E+02 -0.50313646955E+02 -0.13117543340E+02  0.53345748803E+02  0.00000000000E+00 0.  1.
         21    1    1    2  504  502 -0.11926269414E+02  0.50313646955E+02 -0.11535380726E+04  0.11546964033E+04  0.00000000000E+00 0.  1.
<mgrwt>
<rscale>  2 0.51707823E+02</rscale>
<asrwt>0</asrwt>
<pdfrwt beam="1">  1       21 0.31835793E-02 0.51707823E+02</pdfrwt>
<pdfrwt beam="2">  1       21 0.18266908E+00 0.51707823E+02</pdfrwt>
<totfact> 0.11101391E+05</totfact>
</mgrwt>
</event>
<event>
 4    1  0.4556894E+006  0.2107495E+02  0.7546771E-02  0.1724759E+00
         21   -1    0    0  503  501  0.00000000000E+00  0.00000000000E+00  0.53575545503E+01  0.53575545503E+01  0.00000000000E+00 0.  1.
         21   -1    0    0  501  502 -0.00000000000E+00 -0.00000000000E+00 -0.46772343276E+03  0.46772343276E+03  0.00000000000E+00 0.  1.
         21    1    1    2  503  504 -0.13902443579E+02 -0.15839056876E+02 -0.16627077151E+02  0.26844242488E+02  0.00000000000E+00 0.  1.
         21    1    1    2  504  502  0.13902443579E+02  0.15839056876E+02 -0.44573880106E+03  0.44623674482E+03  0.00000000000E+00 0.  1.
<mgrwt>
<rscale>  2 0.21074953E+02</rscale>
<asrwt>0</asrwt>
<pdfrwt beam="1">  1       21 0.82423885E-03 0.21074953E+02</pdfrwt>
<pdfrwt beam="2">  1       21 0.71957479E-01 0.21074953E+02</pdfrwt>
<totfact> 0.72898267E+06</totfact>
</mgrwt>
</event>
<event>
 4    1  0.4556894E+006  0.2704098E+02  0.7546771E-02  0.1633306E+00
         21   -1    0    0  504  501  0.00000000000E+00  0.00000000000E+00  0.13701430163E+03  0.13701430163E+03  0.00000000000E+00 0.  1.
         21   -1    0    0  501  502 -0.00000000000E+00 -0.00000000000E+00 -0.15701870759E+03  0.15701870759E+03  0.00000000000E+00 0. -1.
         21    1    1    2  503  502 -0.21648389162E+02 -0.16203766116E+02 -0.15449869956E+03  0.15684725995E+03  0.00000000000E+00 0. -1.
         21    1    1    2  504  503  0.21648389162E+02  0.16203766116E+02  0.13449429361E+03  0.13718574927E+03  0.00000000000E+00 0.  1.
<mgrwt>
<rscale>  2 0.27040984E+02</rscale>
<asrwt>0</asrwt>
<pdfrwt beam="1">  1       21 0.21079123E-01 0.27040984E+02</pdfrwt>
<pdfrwt beam="2">  1       21 0.24156724E-01 0.27040984E+02</pdfrwt>
<totfact> 0.33998655E+05</totfact>
</mgrwt>
</event>
<event>
 4    1  0.4556894E+006  0.2157111E+02  0.7546771E-02  0.1715777E+00
         21   -1    0    0  504  501  0.00000000000E+00  0.00000000000E+00  0.23211583327E+02  0.23211583327E+02  0.00000000000E+00 0.  1.
         21   -1    0    0  503  502 -0.00000000000E+00 -0.00000000000E+00 -0.20058596606E+02  0.20058596606E+02  0.00000000000E+00 0.  1.
         21    1    1    2  503  501  0.18529283176E+02  0.11044377175E+02  0.10467060247E+01  0.21596485726E+02  0.00000000000E+00 0.  1.
         21    1    1    2  504  502 -0.18529283176E+02 -0.11044377175E+02  0.21062806963E+01  0.21673694207E+02  0.00000000000E+00 0.  1.
<mgrwt>
<rscale>  2 0.21571106E+02</rscale>
<asrwt>0</asrwt>
<pdfrwt beam="1">  1       21 0.35710128E-02 0.21571106E+02</pdfrwt>
<pdfrwt beam="2">  1       21 0.30859380E-02 0.21571106E+02</pdfrwt>
<totfact> 0.18293828E+08</totfact>
</mgrwt>
</event>
<event>
 4    1  0.4556894E+006  0.3126582E+02  0.7546771E-02  0.1584504E+00
         21   -1    0    0  502  501  0.00000000000E+00  0.00000000000E+00  0.15221692188E+04  0.15221692188E+04  0.00000000000E+00 0. -1.
         21   -1    0    0  504  502 -0.00000000000E+00 -0.00000000000E+00 -0.11878626639E+01  0.11878626639E+01  0.00000000000E+00 0.  1.
         21    1    1    2  503  501  0.30840249638E+02  0.51410455727E+01  0.12767251380E+04  0.12771079161E+04  0.00000000000E+00 0. -1.
         21    1    1    2  504  503 -0.30840249638E+02 -0.51410455727E+01  0.24425621809E+03  0.24624916533E+03  0.00000000000E+00 0.  1.
<mgrwt>
<rscale>  2 0.31265818E+02</rscale>
<asrwt>0</asrwt>
<pdfrwt beam="1">  1       21 0.23417832E+00 0.31265818E+02</pdfrwt>
<pdfrwt beam="2">  1       21 0.18274932E-03 0.31265818E+02</pdfrwt>
<totfact> 0.43796784E+06</totfact>
</mgrwt>
</event>
<event>
 4    1  0.4556894E+006  0.2193073E+02  0.7546771E-02  0.1709453E+00
         21   -1    0    0  504  501  0.00000000000E+00  0.00000000000E+00  0.63892620095E+02  0.63892620095E+02  0.00000000000E+00 0. -1.
         21   -1    0    0  503  502 -0.00000000000E+00 -0.00000000000E+00 -0.17235052491E+02  0.17235052491E+02  0.00000000000E+00 0. -1.
         21    1    1    2  503  501 -0.21199684587E+02  0.56151884080E+01  0.53771664445E+02  0.58071928371E+02  0.00000000000E+00 0. -1.
         21    1    1    2  504  502  0.21199684587E+02 -0.56151884080E+01 -0.71140968409E+01  0.23055744215E+02  0.00000000000E+00 0. -1.
<mgrwt>
<rscale>  2 0.21930731E+02</rscale>
<asrwt>0</asrwt>
<pdfrwt beam="1">  1       21 0.98296337E-02 0.21930731E+02</pdfrwt>
<pdfrwt beam="2">  1       21 0.26515466E-02 0.21930731E+02</pdfrwt>
<totfact> 0.45869963E+07</totfact>
</mgrwt>
</event>
<event>
 4    1  0.4556894E+006  0.2454275E+02  0.7546771E-02  0.1667658E+00
         21   -1    0    0  504  501  0.00000000000E+00  0.00000000000E+00  0.27241579213E+03  0.27241579213E+03  0.00000000000E+00 0. -1.
         21   -1    0    0  503  502 -0.00000000000E+00 -0.00000000000E+00 -0.30647377208E+01  0.30647377208E+01  0.00000000000E+00 0. -1.
         21    1    1    2  503  501  0.13441614218E+02  0.20534600240E+02  0.20736865564E+03  0.20881596237E+03  0.00000000000E+00 0. -1.
         21    1    1    2  504  502 -0.13441614218E+02 -0.20534600240E+02  0.61982398767E+02  0.66664567476E+02  0.00000000000E+00 0. -1.
<mgrwt>
<rscale>  2 0.24542755E+02</rscale>
<asrwt>0</asrwt>
<pdfrwt beam="1">  1       21 0.41910103E-01 0.24542755E+02</pdfrwt>
<pdfrwt beam="2">  1       21 0.47149833E-03 0.24542755E+02</pdfrwt>
<totfact> 0.49977314E+07</totfact>
</mgrwt>
</event>
<event>
 4    1  0.4556894E+006  0.2099402E+02  0.7546771E-02  0.1726254E+00
         21   -1    0    0  504  501  0.00000000000E+00  0.00000000000E+00  0.51804346751E+01  0.51804346751E+01  0.00000000000E+00 0.  1.
         21   -1    0    0  501  502 -0.00000000000E+00 -0.00000000000E+00 -0.49867314625E+03  0.49867314625E+03  0.00000000000E+00 0.  1.
         21    1    1    2  503  502 -0.16788068230E+02  0.12605929977E+02 -0.47617799119E+03  0.47664056478E+03  0.00000000000E+00 0.  1.
         21    1    1    2  504  503  0.16788068230E+02 -0.12605929977E+02 -0.17314720388E+02  0.27213016143E+02  0.00000000000E+00 0.  1.
<mgrwt>
<rscale>  2 0.20994016E+02</rscale>
<asrwt>0</asrwt>
<pdfrwt beam="1">  1       21 0.79698965E-03 0.20994016E+02</pdfrwt>
<pdfrwt beam="2">  1       21 0.76718975E-01 0.20994016E+02</pdfrwt>
<totfact> 0.67107705E+06</totfact>
</mgrwt>
</event>
<event>
 4    1  0.4556894E+006  0.2164234E+02  0.7546771E-02  0.1714512E+00
         21   -1    0    0  503  501  0.00000000000E+00  0.00000000000E+00  0.18243937180E+02  0.18243937180E+02  0.00000000000E+00 0.  1.
         21   -1    0    0  501  502 -0.00000000000E+00 -0.00000000000E+00 -0.84200915956E+02  0.84200915956E+02  0.00000000000E+00 0.  1.
         21    1    1    2  503  504 -0.21241756480E+02 -0.41447366192E+01  0.97266683014E+01  0.23727602834E+02  0.00000000000E+00 0.  1.
         21    1    1    2  504  502  0.21241756480E+02  0.41447366192E+01 -0.75683647078E+02  0.78717250302E+02  0.00000000000E+00 0.  1.
<mgrwt>
<rscale>  2 0.21642344E+02</rscale>
<asrwt>0</asrwt>
<pdfrwt beam="1">  1       21 0.28067596E-02 0.21642344E+02</pdfrwt>
<pdfrwt beam="2">  1       21 0.12953987E-01 0.21642344E+02</pdfrwt>
<totfact> 0.26450663E+07</totfact>
</mgrwt>
</event>
<event>
 4    1  0.4556894E+006  0.2072324E+02  0.7546771E-02  0.1731317E+00
         21   -1    0    0  503  501  0.00000000000E+00  0.00000000000E+00  0.26551189937E+02  0.26551189937E+02  0.00000000000E+00 0.  1.
         21   -1    0    0  504  502 -0.00000000000E+00 -0.00000000000E+00 -0.55540205764E+02  0.55540205764E+02  0.00000000000E+00 0.  1.
         21    1    1    2  503  502 -0.20723235669E+02  0.16918258966E-01 -0.49050455459E+02  0.53248473814E+02  0.00000000000E+00 0.  1.
         21    1    1    2  504  501  0.20723235669E+02 -0.16918258966E-01  0.20061439632E+02  0.28842921886E+02  0.00000000000E+00 0.  1.
<mgrwt>
<rscale>  2 0.20723243E+02</rscale>
<asrwt>0</asrwt>
<pdfrwt beam="1">  1       21 0.40847985E-02 0.20723243E+02</pdfrwt>
<pdfrwt beam="2">  1       21 0.85446470E-02 0.20723243E+02</pdfrwt>
<totfact> 0.29016763E+07</totfact>
</mgrwt>
</event>
<event>
 4    1  0.4556894E+006  0.2229193E+02  0.7546771E-02  0.1703252E+00
         21   -1    0    0  503  501  0.00000000000E+00  0.00000000000E+00  0.56413111671E+02  0.56413111671E+02  0.00000000000E+00 0.  1.
         21   -1    0    0  504  502 -0.00000000000E+00 -0.00000000000E+00 -0.11702855807E+02  0.11702855807E+02  0.00000000000E+00 0.  1.
         21    1    1    2  503  502 -0.14860793043E+02 -0.16615861969E+02  0.54184267966E+01  0.22940997968E+02  0.00000000000E+00 0.  1.
         21    1    1    2  504  501  0.14860793043E+02  0.16615861969E+02  0.39291829068E+02  0.45174969511E+02  0.00000000000E+00 0.  1.
<mgrwt>
<rscale>  2 0.22291928E+02</rscale>
<asrwt>0</asrwt>
<pdfrwt beam="1">  1       21 0.86789401E-02 0.22291928E+02</pdfrwt>
<pdfrwt beam="2">  1       21 0.18004394E-02 0.22291928E+02</pdfrwt>
<totfact> 0.10249503E+08</totfact>
</mgrwt>
</event>
<event>
 4    1  0.4556894E+006  0.2055367E+02  0.7546771E-02  0.1734537E+00
         21   -1    0    0  504  501  0.00000000000E+00  0.00000000000E+00  0.97692287451E+01  0.97692287451E+01  0.00000000000E+00 0.  1.
         21   -1    0    0  503  502 -0.00000000000E+00 -0.00000000000E+00 -0.15892903372E+03  0.15892903372E+03  0.00000000000E+00 0.  1.
         21    1    1    2  503  501  0.55087311325E+01  0.19801694811E+02 -0.14654451349E+03  0.14797887576E+03  0.00000000000E+00 0.  1.
         21    1    1    2  504  502 -0.55087311325E+01 -0.19801694811E+02 -0.26152914856E+01  0.20719386710E+02  0.00000000000E+00 0.  1.
<mgrwt>
<rscale>  2 0.20553667E+02</rscale>
<asrwt>0</asrwt>
<pdfrwt beam="1">  1       21 0.15029583E-02 0.20553667E+02</pdfrwt>
<pdfrwt beam="2">  1       21 0.24450620E-01 0.20553667E+02</pdfrwt>
<totfact> 0.22779039E+07</totfact>
</mgrwt>
</event>
<event>
 4    1  0.4556894E+006  0.2082544E+02  0.7546771E-02  0.1729395E+00
         21   -1    0    0  503  501  0.00000000000E+00  0.00000000000E+00  0.20273174889E+02  0.20273174889E+02  0.00000000000E+00 0.  1.
         21   -1    0    0  504  502 -0.00000000000E+00 -0.00000000000E+00 -0.71399440966E+02  0.71399440966E+02  0.00000000000E+00 0. -1.
         21    1    1    2  503  502  0.17355845671E+02  0.11509708729E+02  0.12796665855E+02  0.24442860532E+02  0.00000000000E+00 0.  1.
         21    1    1    2  504  501 -0.17355845671E+02 -0.11509708729E+02 -0.63922931932E+02  0.67229755323E+02  0.00000000000E+00 0. -1.
<mgrwt>
<rscale>  2 0.20825436E+02</rscale>
<asrwt>0</asrwt>
<pdfrwt beam="1">  1       21 0.31189500E-02 0.20825436E+02</pdfrwt>
<pdfrwt beam="2">  1       21 0.10984529E-01 0.20825436E+02</pdfrwt>
<totfact> 0.29298435E+07</totfact>
</mgrwt>
</event>
<event>
 4    1  0.4556894E+006  0.2014555E+02  0.7546771E-02  0.1742449E+00
         21   -1    0    0  504  501  0.00000000000E+00  0.00000000000E+00  0.46385393412E+02  0.46385393412E+02  0.00000000000E+00 0. -1.
         21   -1    0    0  503  502 -0.00000000000E+00 -0.00000000000E+00 -0.94994038405E+01  0.94994038405E+01  0.00000000000E+00 0. -1.
         21    1    1    2  503  501  0.16649725844E+02  0.11341505061E+02  0.10591450664E+02  0.22760095230E+02  0.00000000000E+00 0. -1.
         21    1    1    2  504  502 -0.16649725844E+02 -0.11341505061E+02  0.26294538907E+02  0.33124702022E+02  0.00000000000E+00 0. -1.
<mgrwt>
<rscale>  2 0.20145548E+02</rscale>
<asrwt>0</asrwt>
<pdfrwt beam="1">  1       21 0.71362142E-02 0.20145548E+02</pdfrwt>
<pdfrwt beam="2">  1       21 0.14614468E-02 0.20145548E+02</pdfrwt>
<totfact> 0.18750932E+08</totfact>
</mgrwt>
</event>
<event>
 4    1  0.4556894E+006  0.2071299E+02  0.7546771E-02  0.1731510E+00
         21   -1    0    0  503  501  0.00000000000E+00  0.00000000000E+00  0.10344585429E+03  0.10344585429E+03  0.00000000000E+00 0. -1.
         21   -1    0    0  501  502 -0.00000000000E+00 -0.00000000000E+00 -0.47441318222E+01  0.47441318222E+01  0.00000000000E+00 0. -1.
         21    1    1    2  503  504  0.17148265722E+02 -0.11617445515E+02  0.68536657442E+02  0.71598194606E+02  0.00000000000E+00 0. -1.
         21    1    1    2  504  502 -0.17148265722E+02  0.11617445515E+02  0.30165065024E+02  0.36591791504E+02  0.00000000000E+00 0. -1.
<mgrwt>
<rscale>  2 0.20712992E+02</rscale>
<asrwt>0</asrwt>
<pdfrwt beam="1">  1       21 0.15914745E-01 0.20712992E+02</pdfrwt>
<pdfrwt beam="2">  1       21 0.72986651E-03 0.20712992E+02</pdfrwt>
<totfact> 0.14189921E+08</totfact>
</mgrwt>
</event>
<event>
 4    1  0.4556894E+006  0.2090188E+02  0.7546771E-02  0.1727966E+00
         21   -1    0    0  504  501  0.00000000000E+00  0.00000000000E+00  0.22230687330E+02  0.22230687330E+02  0.00000000000E+00 0. -1.
         21   -1    0    0  503  502 -0.00000000000E+00 -0.00000000000E+00 -0.24212004333E+02  0.24212004333E+02  0.00000000000E+00 0. -1.
         21    1    1    2  503  501 -0.66199479884E+01  0.19825860084E+02  0.90863387082E+01  0.22791445557E+02  0.00000000000E+00 0. -1.
         21    1    1    2  504  502  0.66199479884E+01 -0.19825860084E+02 -0.11067655711E+02  0.23651246106E+02  0.00000000000E+00 0. -1.
<mgrwt>
<rscale>  2 0.20901876E+02</rscale>
<asrwt>0</asrwt>
<pdfrwt beam="1">  1       21 0.34201058E-02 0.20901876E+02</pdfrwt>
<pdfrwt beam="2">  1       21 0.37249237E-02 0.20901876E+02</pdfrwt>
<totfact> 0.14448117E+08</totfact>
</mgrwt>
</event>
<event>
 4    1  0.4556894E+006  0.2794688E+02  0.7546771E-02  0.1621959E+00
         21   -1    0    0  504  501  0.00000000000E+00  0.00000000000E+00  0.40577034937E+03  0.40577034937E+03  0.00000000000E+00 0. -1.
         21   -1    0    0  501  502 -0.00000000000E+00 -0.00000000000E+00 -0.18541907784E+02  0.18541907784E+02  0.00000000000E+00 0.  1.
         21    1    1    2  503  502 -0.80540766484E+01 -0.26761163359E+02 -0.72284794574E+01  0.28866571156E+02  0.00000000000E+00 0.  1.
         21    1    1    2  504  503  0.80540766484E+01  0.26761163359E+02  0.39445692104E+03  0.39544568599E+03  0.00000000000E+00 0. -1.
<mgrwt>
<rscale>  2 0.27946878E+02</rscale>
<asrwt>0</asrwt>
<pdfrwt beam="1">  1       21 0.62426201E-01 0.27946878E+02</pdfrwt>
<pdfrwt beam="2">  1       21 0.28526015E-02 0.27946878E+02</pdfrwt>
<totfact> 0.15212081E+06</totfact>
</mgrwt>
</event>
<event>
 4    1  0.4556894E+006  0.2660804E+02  0.7546771E-02  0.1638924E+00
         21   -1    0    0  503  501  0.00000000000E+00  0.00000000000E+00  0.11324238442E+03  0.11324238442E+03  0.00000000000E+00 0. -1.
         21   -1    0    0  504  502 -0.00000000000E+00 -0.00000000000E+00 -0.20735660870E+02  0.20735660870E+02  0.00000000000E+00 0. -1.
         21    1    1    2  503  502 -0.26306688639E+02 -0.39932634082E+01  0.10223999095E+03  0.10564565192E+03  0.00000000000E+00 0. -1.
         21    1    1    2  504  501  0.26306688639E+02  0.39932634082E+01 -0.97332674005E+01  0.28332393371E+02  0.00000000000E+00 0. -1.
<mgrwt>
<rscale>  2 0.26608044E+02</rscale>
<asrwt>0</asrwt>
<pdfrwt beam="1">  1       21 0.17421905E-01 0.26608044E+02</pdfrwt>
<pdfrwt beam="2">  1       21 0.31901017E-02 0.26608044E+02</pdfrwt>
<totfact> 0.13648797E+07</totfact>
</mgrwt>
</event>
<event>
 4    1  0.4556894E+006  0.2053610E+02  0.7546771E-02  0.1734872E+00
         21   -1    0    0  504  501  0.00000000000E+00  0.00000000000E+00  0.19188353385E+03  0.19188353385E+03  0.00000000000E+00 0.  1.
         21   -1    0    0  503  502 -0.00000000000E+00 -0.00000000000E+00 -0.24054211219E+01  0.24054211219E+01  0.00000000000E+00 0. -1.
         21    1    1    2  503  501  0.19684677479E+02 -0.58519168482E+01  0.66202290600E+02  0.69314318427E+02  0.00000000000E+00 0. -1.
         21    1    1    2  504  502 -0.19684677479E+02  0.58519168482E+01  0.12327582213E+03  0.12497463655E+03  0.00000000000E+00 0.  1.
<mgrwt>
<rscale>  2 0.20536101E+02</rscale>
<asrwt>0</asrwt>
<pdfrwt beam="1">  1       21 0.29520532E-01 0.20536101E+02</pdfrwt>
<pdfrwt beam="2">  1       21 0.37006494E-03 0.20536101E+02</pdfrwt>
<totfact> 0.13026389E+08</totfact>
</mgrwt>
</event>
<event>
 4    1  0.4556894E+006  0.2674620E+02  0.7546771E-02  0.1637117E+00
         21   -1    0    0  504  501  0.00000000000E+00  0.00000000000E+00  0.44923172377E+03  0.44923172377E+03  0.00000000000E+00 0.  1.
         21   -1    0    0  501  502 -0.00000000000E+00 -0.00000000000E+00 -0.63082186683E+01  0.63082186683E+01  0.00000000000E+00 0.  1.
         21    1    1    2  503  502  0.23292430293E+02  0.13146180969E+02  0.24527454066E+02  0.36289879939E+02  0.00000000000E+00 0.  1.
         21    1    1    2  504  503 -0.23292430293E+02 -0.13146180969E+02  0.41839605103E+03  0.41925006250E+03  0.00000000000E+00 0.  1.
<mgrwt>
<rscale>  2 0.26746203E+02</rscale>
<asrwt>0</asrwt>
<pdfrwt beam="1">  1       21 0.69112548E-01 0.26746203E+02</pdfrwt>
<pdfrwt beam="2">  1       21 0.97049553E-03 0.26746203E+02</pdfrwt>
<totfact> 0.64349900E+06</totfact>
</mgrwt>
</event>
<event>
 4    1  0.4556894E+006  0.2123668E+02  0.7546771E-02  0.1721798E+00
         21   -1    0    0  503  501  0.00000000000E+00  0.00000000000E+00  0.39237739212E+02  0.39237739212E+02  0.00000000000E+00 0.  1.
         21   -1    0    0  504  502 -0.00000000000E+00 -0.00000000000E+00 -0.11773456753E+02  0.11773456753E+02  0.00000000000E+00 0.  1.
         21    1    1    2  503  502  0.55565155743E+01  0.20496871313E+02  0.98022553715E+01  0.23389758642E+02  0.00000000000E+00 0.  1.
         21    1    1    2  504  501 -0.55565155743E+01 -0.20496871313E+02  0.17662027088E+02  0.27621437323E+02  0.00000000000E+00 0.  1.
<mgrwt>
<rscale>  2 0.21236681E+02</rscale>
<asrwt>0</asrwt>
<pdfrwt beam="1">  1       21 0.60365752E-02 0.21236681E+02</pdfrwt>
<pdfrwt beam="2">  1       21 0.18113011E-02 0.21236681E+02</pdfrwt>
<totfact> 0.18014929E+08</totfact>
</mgrwt>
</event>
<event>
 4    1  0.4556894E+006  0.2334274E+02  0.7546771E-02  0.1686014E+00
         21   -1    0    0  502  501  0.00000000000E+00  0.00000000000E+00  0.43627215029E+03  0.43627215029E+03  0.00000000000E+00 0. -1.
         21   -1    0    0  504  502 -0.00000000000E+00 -0.00000000000E+00 -0.37816246016E+03  0.37816246016E+03  0.00000000000E+00 0.  1.
         21    1    1    2  503  501 -0.81096922691E+01 -0.21888731539E+02  0.43559913775E+03  0.43622413102E+03  0.00000000000E+00 0. -1.
         21    1    1    2  504  503  0.81096922691E+01  0.21888731539E+02 -0.37748944762E+03  0.37821047942E+03  0.00000000000E+00 0.  1.
<mgrwt>
<rscale>  2 0.23342744E+02</rscale>
<asrwt>0</asrwt>
<pdfrwt beam="1">  1       21 0.67118792E-01 0.23342744E+02</pdfrwt>
<pdfrwt beam="2">  1       21 0.58178840E-01 0.23342744E+02</pdfrwt>
<totfact> 0.73816301E+03</totfact>
</mgrwt>
</event>
<event>
 4    1  0.4556894E+006  0.2504316E+02  0.7546771E-02  0.1660383E+00
         21   -1    0    0  502  501  0.00000000000E+00  0.00000000000E+00  0.57064531259E+00  0.57064531259E+00  0.00000000000E+00 0. -1.
         21   -1    0    0  503  502 -0.00000000000E+00 -0.00000000000E+00 -0.15211028713E+04  0.15211028713E+04  0.00000000000E+00 0. -1.
         21    1    1    2  503  504 -0.69992084761E+01  0.24045187847E+02 -0.11610429497E+04  0.11613130030E+04  0.00000000000E+00 0. -1.
         21    1    1    2  504  501  0.69992084761E+01 -0.24045187847E+02 -0.35948927633E+03  0.36036051362E+03  0.00000000000E+00 0. -1.
<mgrwt>
<rscale>  2 0.25043162E+02</rscale>
<asrwt>0</asrwt>
<pdfrwt beam="1">  1       21 0.87793442E-04 0.25043162E+02</pdfrwt>
<pdfrwt beam="2">  1       21 0.23401088E+00 0.25043162E+02</pdfrwt>
<totfact> 0.12425350E+07</totfact>
</mgrwt>
</event>
<event>
 4    1  0.4556894E+006  0.2776005E+02  0.7546771E-02  0.1624256E+00
         21   -1    0    0  503  501  0.00000000000E+00  0.00000000000E+00  0.29162557923E+03  0.29162557923E+03  0.00000000000E+00 0. -1.
         21   -1    0    0  501  502 -0.00000000000E+00 -0.00000000000E+00 -0.32297181084E+01  0.32297181084E+01  0.00000000000E+00 0. -1.
         21    1    1    2  503  504  0.53991077429E+01 -0.27229944255E+02  0.20706117793E+03  0.20891374209E+03  0.00000000000E+00 0. -1.
         21    1    1    2  504  502 -0.53991077429E+01  0.27229944255E+02  0.81334683194E+02  0.85941555250E+02  0.00000000000E+00 0. -1.
<mgrwt>
<rscale>  2 0.27760047E+02</rscale>
<asrwt>0</asrwt>
<pdfrwt beam="1">  1       21 0.44865453E-01 0.27760047E+02</pdfrwt>
<pdfrwt beam="2">  1       21 0.49687994E-03 0.27760047E+02</pdfrwt>
<totfact> 0.41682859E+07</totfact>
</mgrwt>
</event>
<event>
 4    1  0.4556894E+006  0.2953572E+02  0.7546771E-02  0.1603278E+00
         21   -1    0    0  504  501  0.00000000000E+00  0.00000000000E+00  0.13456250114E+01  0.13456250114E+01  0.00000000000E+00 0.  1.
         21   -1    0    0  503  502 -0.00000000000E+00 -0.00000000000E+00 -0.70641358854E+03  0.70641358854E+03  0.00000000000E+00 0.  1.
         21    1    1    2  503  501 -0.29398908653E+02 -0.28395795732E+01 -0.45403996991E+03  0.45499961903E+03  0.00000000000E+00 0.  1.
         21    1    1    2  504  502  0.29398908653E+02  0.28395795732E+01 -0.25102799362E+03  0.25275959452E+03  0.00000000000E+00 0.  1.
<mgrwt>
<rscale>  2 0.29535725E+02</rscale>
<asrwt>0</asrwt>
<pdfrwt beam="1">  1       21 0.20701969E-03 0.29535725E+02</pdfrwt>
<pdfrwt beam="2">  1       21 0.10867877E+00 0.29535725E+02</pdfrwt>
<totfact> 0.24348906E+07</totfact>
</mgrwt>
</event>
<event>
 4    1  0.4556894E+006  0.2330526E+02  0.7546771E-02  0.1686609E+00
         21   -1    0    0  503  501  0.00000000000E+00  0.00000000000E+00  0.10278539973E+02  0.10278539973E+02  0.00000000000E+00 0.  1.
         21   -1    0    0  504  502 -0.00000000000E+00 -0.00000000000E+00 -0.23158507405E+03  0.23158507405E+03  0.00000000000E+00 0. -1.
         21    1    1    2  503  502  0.57043167207E+01  0.22596366482E+02 -0.44102740355E+01  0.23718885398E+02  0.00000000000E+00 0.  1.
         21    1    1    2  504  501 -0.57043167207E+01 -0.22596366482E+02 -0.21689626005E+03  0.21814472863E+03  0.00000000000E+00 0. -1.
<mgrwt>
<rscale>  2 0.23305257E+02</rscale>
<asrwt>0</asrwt>
<pdfrwt beam="1">  1       21 0.15813138E-02 0.23305257E+02</pdfrwt>
<pdfrwt beam="2">  1       21 0.35628474E-01 0.23305257E+02</pdfrwt>
<totfact> 0.10940545E+07</totfact>
</mgrwt>
</event>
<event>
 4    1  0.4556894E+006  0.2023085E+02  0.7546771E-02  0.1740776E+00
         21   -1    0    0  503  501  0.00000000000E+00  0.00000000000E+00  0.63992377235E+02  0.63992377235E+02  0.00000000000E+00 0.  1.
         21   -1    0    0  504  502 -0.00000000000E+00 -0.00000000000E+00 -0.64142140115E+01  0.64142140115E+01  0.00000000000E+00 0.  1.
         21    1    1    2  503  502 -0.16957998432E+02  0.11032396200E+02  0.26906920427E+02  0.33664073485E+02  0.00000000000E+00 0.  1.
         21    1    1    2  504  501  0.16957998432E+02 -0.11032396200E+02  0.30671242797E+02  0.36742517762E+02  0.00000000000E+00 0.  1.
<mgrwt>
<rscale>  2 0.20230855E+02</rscale>
<asrwt>0</asrwt>
<pdfrwt beam="1">  1       21 0.98449807E-02 0.20230855E+02</pdfrwt>
<pdfrwt beam="2">  1       21 0.98680220E-03 0.20230855E+02</pdfrwt>
<totfact> 0.20068041E+08</totfact>
</mgrwt>
</event>
<event>
 4    1  0.4556894E+006  0.2550386E+02  0.7546771E-02  0.1653868E+00
         21   -1    0    0  502  501  0.00000000000E+00  0.00000000000E+00  0.12710044022E+03  0.12710044022E+03  0.00000000000E+00 0. -1.
         21   -1    0    0  504  502 -0.00000000000E+00 -0.00000000000E+00 -0.21241985093E+02  0.21241985093E+02  0.00000000000E+00 0. -1.
         21    1    1    2  503  501 -0.23623037140E+02 -0.96124505138E+01  0.11755111457E+03  0.12028595773E+03  0.00000000000E+00 0. -1.
         21    1    1    2  504  503  0.23623037140E+02  0.96124505138E+01 -0.11692659446E+02  0.28056467588E+02  0.00000000000E+00 0. -1.
<mgrwt>
<rscale>  2 0.25503864E+02</rscale>
<asrwt>0</asrwt>
<pdfrwt beam="1">  1       21 0.19553913E-01 0.25503864E+02</pdfrwt>
<pdfrwt beam="2">  1       21 0.32679978E-02 0.25503864E+02</pdfrwt>
<totfact> 0.10666802E+07</totfact>
</mgrwt>
</event>
<event>
 4    1  0.4556894E+006  0.2068507E+02  0.7546771E-02  0.1732038E+00
         21   -1    0    0  503  501  0.00000000000E+00  0.00000000000E+00  0.30183098322E+03  0.30183098322E+03  0.00000000000E+00 0.  1.
         21   -1    0    0  504  502 -0.00000000000E+00 -0.00000000000E+00 -0.28774376593E+01  0.28774376593E+01  0.00000000000E+00 0. -1.
         21    1    1    2  503  502  0.14367770986E+02  0.14880829077E+02  0.40957819401E+02  0.45884800176E+02  0.00000000000E+00 0. -1.
         21    1    1    2  504  501 -0.14367770986E+02 -0.14880829077E+02  0.25799572616E+03  0.25882362070E+03  0.00000000000E+00 0.  1.
<mgrwt>
<rscale>  2 0.20685065E+02</rscale>
<asrwt>0</asrwt>
<pdfrwt beam="1">  1       21 0.46435511E-01 0.20685065E+02</pdfrwt>
<pdfrwt beam="2">  1       21 0.44268296E-03 0.20685065E+02</pdfrwt>
<totfact> 0.43295403E+07</totfact>
</mgrwt>
</event>
<event>
 4    1  0.4556894E+006  0.2154180E+02  0.7546771E-02  0.1716299E+00
         21   -1    0    0  503  501  0.00000000000E+00  0.00000000000E+00  0.28262153432E+02  0.28262153432E+02  0.00000000000E+00 0.  1.
         21   -1    0    0  504  502 -0.00000000000E+00 -0.00000000000E+00 -0.37002279093E+02  0.37002279093E+02  0.00000000000E+00 0.  1.
         21    1    1    2  503  502  0.20380075875E+02  0.69786706472E+01  0.19967929348E+02  0.29372904847E+02  0.00000000000E+00 0.  1.
         21    1    1    2  504  501 -0.20380075875E+02 -0.69786706472E+01 -0.28708055009E+02  0.35891527678E+02  0.00000000000E+00 0.  1.
<mgrwt>
<rscale>  2 0.21541804E+02</rscale>
<asrwt>0</asrwt>
<pdfrwt beam="1">  1       21 0.43480236E-02 0.21541804E+02</pdfrwt>
<pdfrwt beam="2">  1       21 0.56926583E-02 0.21541804E+02</pdfrwt>
<totfact> 0.51152626E+07</totfact>
</mgrwt>
</event>
<event>
 4    1  0.4556894E+006  0.2123455E+02  0.7546771E-02  0.1721836E+00
         21   -1    0    0  504  501  0.00000000000E+00  0.00000000000E+00  0.91528044157E+02  0.91528044157E+02  0.00000000000E+00 0. -1.
         21   -1    0    0  501  502 -0.00000000000E+00 -0.00000000000E+00 -0.68483113632E+01  0.68483113632E+01  0.00000000000E+00 0. -1.
         21    1    1    2  503  502 -0.21090769042E+02 -0.24669090115E+01  0.16282370843E+02  0.26758583280E+02  0.00000000000E+00 0. -1.
         21    1    1    2  504  503  0.21090769042E+02  0.24669090115E+01  0.68397361951E+02  0.71617772240E+02  0.00000000000E+00 0. -1.
<mgrwt>
<rscale>  2 0.21234552E+02</rscale>
<asrwt>0</asrwt>
<pdfrwt beam="1">  1       21 0.14081237E-01 0.21234552E+02</pdfrwt>
<pdfrwt beam="2">  1       21 0.10535864E-02 0.21234552E+02</pdfrwt>
<totfact> 0.10173814E+08</totfact>
</mgrwt>
</event>
<event>
 4    1  0.4556894E+006  0.2488699E+02  0.7546771E-02  0.1662630E+00
         21   -1    0    0  503  501  0.00000000000E+00  0.00000000000E+00  0.66894025294E+01  0.66894025294E+01  0.00000000000E+00 0. -1.
         21   -1    0    0  504  502 -0.00000000000E+00 -0.00000000000E+00 -0.12500796967E+03  0.12500796967E+03  0.00000000000E+00 0. -1.
         21    1    1    2  503  502 -0.89676122325E+01 -0.23215169733E+02 -0.25625636695E+02  0.35721638133E+02  0.00000000000E+00 0. -1.
         21    1    1    2  504  501  0.89676122325E+01  0.23215169733E+02 -0.92692930443E+02  0.95975734063E+02  0.00000000000E+00 0. -1.
<mgrwt>
<rscale>  2 0.24886988E+02</rscale>
<asrwt>0</asrwt>
<pdfrwt beam="1">  1       21 0.10291388E-02 0.24886988E+02</pdfrwt>
<pdfrwt beam="2">  1       21 0.19231995E-01 0.24886988E+02</pdfrwt>
<totfact> 0.64442329E+07</totfact>
</mgrwt>
</event>
<event>
 4    1  0.4556894E+006  0.3722958E+02  0.7546771E-02  0.1529648E+00
         21   -1    0    0  503  501  0.00000000000E+00  0.00000000000E+00  0.60565303371E+02  0.60565303371E+02  0.00000000000E+00 0. -1.
         21   -1    0    0  504  502 -0.00000000000E+00 -0.00000000000E+00 -0.87663735000E+02  0.87663735000E+02  0.00000000000E+00 0.  1.
         21    1    1    2  503  502 -0.32716075213E+02  0.17767956710E+02  0.50161028549E+02  0.62467356660E+02  0.00000000000E+00 0. -1.
         21    1    1    2  504  501  0.32716075213E+02 -0.17767956710E+02 -0.77259460178E+02  0.85761681711E+02  0.00000000000E+00 0.  1.
<mgrwt>
<rscale>  2 0.37229583E+02</rscale>
<asrwt>0</asrwt>
<pdfrwt beam="1">  1       21 0.93177389E-02 0.37229583E+02</pdfrwt>
<pdfrwt beam="2">  1       21 0.13486729E-01 0.37229583E+02</pdfrwt>
<totfact> 0.39322964E+06</totfact>
</mgrwt>
</event>
<event>
 4    1  0.4556894E+006  0.2301459E+02  0.7546771E-02  0.1691274E+00
         21   -1    0    0  503  501  0.00000000000E+00  0.00000000000E+00  0.42129567515E+03  0.42129567515E+03  0.00000000000E+00 0. -1.
         21   -1    0    0  504  502 -0.00000000000E+00 -0.00000000000E+00 -0.12965568912E+01  0.12965568912E+01  0.00000000000E+00 0. -1.
         21    1    1    2  503  502 -0.11874856362E+02 -0.19714434918E+02  0.17320639163E+03  0.17472871905E+03  0.00000000000E+00 0. -1.
         21    1    1    2  504  501  0.11874856362E+02  0.19714434918E+02  0.24679272663E+03  0.24786351300E+03  0.00000000000E+00 0. -1.
<mgrwt>
<rscale>  2 0.23014586E+02</rscale>
<asrwt>0</asrwt>
<pdfrwt beam="1">  1       21 0.64814610E-01 0.23014586E+02</pdfrwt>
<pdfrwt beam="2">  1       21 0.19947063E-03 0.23014586E+02</pdfrwt>
<totfact> 0.73498047E+07</totfact>
</mgrwt>
</event>
<event>
 4    1  0.4556894E+006  0.2159601E+02  0.7546771E-02  0.1715334E+00
         21   -1    0    0  504  501  0.00000000000E+00  0.00000000000E+00  0.18419448332E+02  0.18419448332E+02  0.00000000000E+00 0.  1.
         21   -1    0    0  503  502 -0.00000000000E+00 -0.00000000000E+00 -0.50685812112E+03  0.50685812112E+03  0.00000000000E+00 0.  1.
         21    1    1    2  503  501  0.17787809122E+02 -0.12246696164E+02  0.11775269313E+02  0.24597656142E+02  0.00000000000E+00 0.  1.
         21    1    1    2  504  502 -0.17787809122E+02  0.12246696164E+02 -0.50021394210E+03  0.50067991331E+03  0.00000000000E+00 0.  1.
<mgrwt>
<rscale>  2 0.21596012E+02</rscale>
<asrwt>0</asrwt>
<pdfrwt beam="1">  1       21 0.28337612E-02 0.21596012E+02</pdfrwt>
<pdfrwt beam="2">  1       21 0.77978176E-01 0.21596012E+02</pdfrwt>
<totfact> 0.95063801E+05</totfact>
</mgrwt>
</event>
<event>
 4    1  0.4556894E+006  0.2154090E+02  0.7546771E-02  0.1716315E+00
         21   -1    0    0  503  501  0.00000000000E+00  0.00000000000E+00  0.27129492137E+01  0.27129492137E+01  0.00000000000E+00 0.  1.
         21   -1    0    0  504  502 -0.00000000000E+00 -0.00000000000E+00 -0.18021481641E+03  0.18021481641E+03  0.00000000000E+00 0.  1.
         21    1    1    2  503  502  0.19970803219E+02  0.80732449072E+01 -0.68108414151E+02  0.71433649932E+02  0.00000000000E+00 0.  1.
         21    1    1    2  504  501 -0.19970803219E+02 -0.80732449072E+01 -0.10939345304E+03  0.11149411569E+03  0.00000000000E+00 0.  1.
<mgrwt>
<rscale>  2 0.21540897E+02</rscale>
<asrwt>0</asrwt>
<pdfrwt beam="1">  1       21 0.41737690E-03 0.21540897E+02</pdfrwt>
<pdfrwt beam="2">  1       21 0.27725350E-01 0.21540897E+02</pdfrwt>
<totfact> 0.12401776E+08</totfact>
</mgrwt>
</event>
<event>
 4    1  0.4556894E+006  0.2435905E+02  0.7546771E-02  0.1670382E+00
         21   -1    0    0  503  501  0.00000000000E+00  0.00000000000E+00  0.56810548668E+03  0.56810548668E+03  0.00000000000E+00 0. -1.
         21   -1    0    0  504  502 -0.00000000000E+00 -0.00000000000E+00 -0.10530138999E+01  0.10530138999E+01  0.00000000000E+00 0.  1.
         21    1    1    2  503  502 -0.11571413269E+02 -0.21435153726E+02  0.30917520376E+03  0.31013331011E+03  0.00000000000E+00 0. -1.
         21    1    1    2  504  501  0.11571413269E+02  0.21435153726E+02  0.25787726902E+03  0.25902519047E+03  0.00000000000E+00 0.  1.
<mgrwt>
<rscale>  2 0.24359052E+02</rscale>
<asrwt>0</asrwt>
<pdfrwt beam="1">  1       21 0.87400599E-01 0.24359052E+02</pdfrwt>
<pdfrwt beam="2">  1       21 0.16200259E-03 0.24359052E+02</pdfrwt>
<totfact> 0.53991987E+07</totfact>
</mgrwt>
</event>
<event>
 4    1  0.4556894E+006  0.2116641E+02  0.7546771E-02  0.1723080E+00
         21   -1    0    0  503  501  0.00000000000E+00  0.00000000000E+00  0.73428077426E+02  0.73428077426E+02  0.00000000000E+00 0. -1.
         21   -1    0    0  504  502 -0.00000000000E+00 -0.00000000000E+00 -0.61515082877E+01  0.61515082877E+01  0.00000000000E+00 0.  1.
         21    1    1    2  503  502  0.92884960827E+01  0.19019481428E+02  0.30048465131E+02  0.36754960073E+02  0.00000000000E+00 0. -1.
         21    1    1    2  504  501 -0.92884960827E+01 -0.19019481428E+02  0.37228104008E+02  0.42824625641E+02  0.00000000000E+00 0.  1.
<mgrwt>
<rscale>  2 0.21166408E+02</rscale>
<asrwt>0</asrwt>
<pdfrwt beam="1">  1       21 0.11296627E-01 0.21166408E+02</pdfrwt>
<pdfrwt beam="2">  1       21 0.94638594E-03 0.21166408E+02</pdfrwt>
<totfact> 0.17262879E+08</totfact>
</mgrwt>
</event>
<event>
 4    1  0.4556894E+006  0.7682498E+02  0.7546771E-02  0.1338311E+00
         21   -1    0    0  502  501  0.00000000000E+00  0.00000000000E+00  0.20231475136E+03  0.20231475136E+03  0.00000000000E+00 0. -1.
         21   -1    0    0  504  502 -0.00000000000E+00 -0.00000000000E+00 -0.15086249017E+03  0.15086249017E+03  0.00000000000E+00 0. -1.
         21    1    1    2  503  501 -0.73373202543E+02 -0.22769495952E+02  0.18432462788E+03  0.19969387882E+03  0.00000000000E+00 0. -1.
         21    1    1    2  504  503  0.73373202543E+02  0.22769495952E+02 -0.13287236669E+03  0.15348336271E+03  0.00000000000E+00 0. -1.
<mgrwt>
<rscale>  2 0.76824975E+02</rscale>
<asrwt>0</asrwt>
<pdfrwt beam="1">  1       21 0.31125347E-01 0.76824975E+02</pdfrwt>
<pdfrwt beam="2">  1       21 0.23209614E-01 0.76824975E+02</pdfrwt>
<totfact> 0.17924293E+05</totfact>
</mgrwt>
</event>
<event>
 4    1  0.4556894E+006  0.3591114E+02  0.7546771E-02  0.1540655E+00
         21   -1    0    0  504  501  0.00000000000E+00  0.00000000000E+00  0.88431462309E+03  0.88431462309E+03  0.00000000000E+00 0.  1.
         21   -1    0    0  503  502 -0.00000000000E+00 -0.00000000000E+00 -0.17616968349E+01  0.17616968349E+01  0.00000000000E+00 0.  1.
         21    1    1    2  503  501 -0.33323227107E+02  0.13385532344E+02  0.62512907295E+03  0.62615969831E+03  0.00000000000E+00 0.  1.
         21    1    1    2  504  502  0.33323227107E+02 -0.13385532344E+02  0.25742385331E+03  0.25991662162E+03  0.00000000000E+00 0.  1.
<mgrwt>
<rscale>  2 0.35911140E+02</rscale>
<asrwt>0</asrwt>
<pdfrwt beam="1">  1       21 0.13604805E+00 0.35911140E+02</pdfrwt>
<pdfrwt beam="2">  1       21 0.27103099E-03 0.35911140E+02</pdfrwt>
<totfact> 0.10027655E+07</totfact>
</mgrwt>
</event>
<event>
 4    1  0.4556894E+006  0.2770050E+02  0.7546771E-02  0.1624992E+00
         21   -1    0    0  503  501  0.00000000000E+00  0.00000000000E+00  0.31333813124E+01  0.31333813124E+01  0.00000000000E+00 0.  1.
         21   -1    0    0  504  502 -0.00000000000E+00 -0.00000000000E+00 -0.93410975249E+03  0.93410975249E+03  0.00000000000E+00 0. -1.
         21    1    1    2  503  502  0.26756652861E+02 -0.71693132113E+01 -0.86802333395E+03  0.86846521278E+03  0.00000000000E+00 0. -1.
         21    1    1    2  504  501 -0.26756652861E+02  0.71693132113E+01 -0.62953037228E+02  0.68777921024E+02  0.00000000000E+00 0.  1.
<mgrwt>
<rscale>  2 0.27700497E+02</rscale>
<asrwt>0</asrwt>
<pdfrwt beam="1">  1       21 0.48205827E-03 0.27700497E+02</pdfrwt>
<pdfrwt beam="2">  1       21 0.14370931E+00 0.27700497E+02</pdfrwt>
<totfact> 0.36583325E+06</totfact>
</mgrwt>
</event>
<event>
 4    1  0.4556894E+006  0.2522056E+02  0.7546771E-02  0.1657854E+00
         21   -1    0    0  503  501  0.00000000000E+00  0.00000000000E+00  0.35686255068E+03  0.35686255068E+03  0.00000000000E+00 0. -1.
         21   -1    0    0  504  502 -0.00000000000E+00 -0.00000000000E+00 -0.52576317893E+01  0.52576317893E+01  0.00000000000E+00 0. -1.
         21    1    1    2  503  502 -0.13807724246E+02 -0.21105052513E+02  0.28598761654E+02  0.38130901623E+02  0.00000000000E+00 0. -1.
         21    1    1    2  504  501  0.13807724246E+02  0.21105052513E+02  0.32300615724E+03  0.32398928085E+03  0.00000000000E+00 0. -1.
<mgrwt>
<rscale>  2 0.25220557E+02</rscale>
<asrwt>0</asrwt>
<pdfrwt beam="1">  1       21 0.54901912E-01 0.25220557E+02</pdfrwt>
<pdfrwt beam="2">  1       21 0.80886671E-03 0.25220557E+02</pdfrwt>
<totfact> 0.13342331E+07</totfact>
</mgrwt>
</event>
<event>
 4    1  0.4556894E+006  0.2219909E+02  0.7546771E-02  0.1704831E+00
         21   -1    0    0  502  501  0.00000000000E+00  0.00000000000E+00  0.12827222461E+02  0.12827222461E+02  0.00000000000E+00 0. -1.
         21   -1    0    0  503  502 -0.00000000000E+00 -0.00000000000E+00 -0.50304993902E+02  0.50304993902E+02  0.00000000000E+00 0. -1.
         21    1    1    2  503  504  0.93535159936E+01 -0.20132350839E+02 -0.34083162116E+02  0.40675075311E+02  0.00000000000E+00 0. -1.
         21    1    1    2  504  501 -0.93535159936E+01  0.20132350839E+02 -0.33946093244E+01  0.22457141052E+02  0.00000000000E+00 0. -1.
<mgrwt>
<rscale>  2 0.22199095E+02</rscale>
<asrwt>0</asrwt>
<pdfrwt beam="1">  1       21 0.19734188E-02 0.22199095E+02</pdfrwt>
<pdfrwt beam="2">  1       21 0.77392299E-02 0.22199095E+02</pdfrwt>
<totfact> 0.10726382E+08</totfact>
</mgrwt>
</event>
<event>
 4    1  0.4556894E+006  0.2098987E+02  0.7546771E-02  0.1726331E+00
         21   -1    0    0  503  501  0.00000000000E+00  0.00000000000E+00  0.52776681266E+02  0.52776681266E+02  0.00000000000E+00 0.  1.
         21   -1    0    0  504  502 -0.00000000000E+00 -0.00000000000E+00 -0.10124041777E+02  0.10124041777E+02  0.00000000000E+00 0.  1.
         21    1    1    2  503  502 -0.65711377426E+01 -0.19934767341E+02  0.81532588703E+01  0.22517780316E+02  0.00000000000E+00 0.  1.
         21    1    1    2  504  501  0.65711377426E+01  0.19934767341E+02  0.34499380619E+02  0.40382942727E+02  0.00000000000E+00 0.  1.
<mgrwt>
<rscale>  2 0.20989874E+02</rscale>
<asrwt>0</asrwt>
<pdfrwt beam="1">  1       21 0.81194893E-02 0.20989874E+02</pdfrwt>
<pdfrwt beam="2">  1       21 0.15575449E-02 0.20989874E+02</pdfrwt>
<totfact> 0.13994591E+08</totfact>
</mgrwt>
</event>
<event>
 4    1  0.4556894E+006  0.2059694E+02  0.7546771E-02  0.1733711E+00
         21   -1    0    0  504  501  0.00000000000E+00  0.00000000000E+00  0.10261048610E+04  0.10261048610E+04  0.00000000000E+00 0. -1.
         21   -1    0    0  501  502 -0.00000000000E+00 -0.00000000000E+00 -0.12604015043E+03  0.12604015043E+03  0.00000000000E+00 0. -1.
         21    1    1    2  503  502 -0.77312228395E+01  0.19090891171E+02 -0.12509454822E+03  0.12677886230E+03  0.00000000000E+00 0. -1.
         21    1    1    2  504  503  0.77312228395E+01 -0.19090891171E+02  0.10251592587E+04  0.10253661491E+04  0.00000000000E+00 0. -1.
<mgrwt>
<rscale>  2 0.20596940E+02</rscale>
<asrwt>0</asrwt>
<pdfrwt beam="1">  1       21 0.15786228E+00 0.20596940E+02</pdfrwt>
<pdfrwt beam="2">  1       21 0.19390793E-01 0.20596940E+02</pdfrwt>
<totfact> 0.86902237E+03</totfact>
</mgrwt>
</event>
<event>
 4    1  0.4556894E+006  0.5472083E+02  0.7546771E-02  0.1421424E+00
         21   -1    0    0  503  501  0.00000000000E+00  0.00000000000E+00  0.22175581126E+01  0.22175581126E+01  0.00000000000E+00 0.  1.
         21   -1    0    0  504  502 -0.00000000000E+00 -0.00000000000E+00 -0.14437225411E+04  0.14437225411E+04  0.00000000000E+00 0.  1.
         21    1    1    2  503  502 -0.25338219525E+02 -0.48500970953E+02 -0.53684331367E+03  0.53962497439E+03  0.00000000000E+00 0.  1.
         21    1    1    2  504  501  0.25338219525E+02  0.48500970953E+02 -0.90466166931E+03  0.90631512481E+03  0.00000000000E+00 0.  1.
<mgrwt>
<rscale>  2 0.54720833E+02</rscale>
<asrwt>0</asrwt>
<pdfrwt beam="1">  1       21 0.34116266E-03 0.54720833E+02</pdfrwt>
<pdfrwt beam="2">  1       21 0.22211124E+00 0.54720833E+02</pdfrwt>
<totfact> 0.20437998E+06</totfact>
</mgrwt>
</event>
<event>
 4    1  0.4556894E+006  0.2021816E+02  0.7546771E-02  0.1741024E+00
         21   -1    0    0  502  501  0.00000000000E+00  0.00000000000E+00  0.15501349519E+03  0.15501349519E+03  0.00000000000E+00 0.  1.
         21   -1    0    0  504  502 -0.00000000000E+00 -0.00000000000E+00 -0.29275681038E+01  0.29275681038E+01  0.00000000000E+00 0.  1.
         21    1    1    2  503  501  0.17830310510E+02  0.95317297272E+01  0.10092121323E+03  0.10292650350E+03  0.00000000000E+00 0.  1.
         21    1    1    2  504  503 -0.17830310510E+02 -0.95317297272E+01  0.51164713857E+02  0.55014559787E+02  0.00000000000E+00 0.  1.
<mgrwt>
<rscale>  2 0.20218156E+02</rscale>
<asrwt>0</asrwt>
<pdfrwt beam="1">  1       21 0.23848224E-01 0.20218156E+02</pdfrwt>
<pdfrwt beam="2">  1       21 0.45039522E-03 0.20218156E+02</pdfrwt>
<totfact> 0.14241506E+08</totfact>
</mgrwt>
</event>
<event>
 4    1  0.4556894E+006  0.1032204E+03  0.7546771E-02  0.1273666E+00
         21   -1    0    0  503  501  0.00000000000E+00  0.00000000000E+00  0.20707270066E+03  0.20707270066E+03  0.00000000000E+00 0.  1.
         21   -1    0    0  504  502 -0.00000000000E+00 -0.00000000000E+00 -0.10903510781E+03  0.10903510781E+03  0.00000000000E+00 0. -1.
         21    1    1    2  503  502 -0.10297923890E+03 -0.70520464846E+01  0.16387828035E+03  0.19367639447E+03  0.00000000000E+00 0.  1.
         21    1    1    2  504  501  0.10297923890E+03  0.70520464846E+01 -0.65840687495E+02  0.12243141400E+03  0.00000000000E+00 0. -1.
<mgrwt>
<rscale>  2 0.10322042E+03</rscale>
<asrwt>0</asrwt>
<pdfrwt beam="1">  1       21 0.31857339E-01 0.10322042E+03</pdfrwt>
<pdfrwt beam="2">  1       21 0.16774632E-01 0.10322042E+03</pdfrwt>
<totfact> 0.30829142E+05</totfact>
</mgrwt>
</event>
<event>
 4    1  0.4556894E+006  0.2201346E+02  0.7546771E-02  0.1708019E+00
         21   -1    0    0  504  501  0.00000000000E+00  0.00000000000E+00  0.15611654633E+02  0.15611654633E+02  0.00000000000E+00 0.  1.
         21   -1    0    0  501  502 -0.00000000000E+00 -0.00000000000E+00 -0.52569494058E+03  0.52569494058E+03  0.00000000000E+00 0.  1.
         21    1    1    2  503  502  0.15550543627E+01  0.21958465209E+02 -0.51758281120E+03  0.51805072999E+03  0.00000000000E+00 0.  1.
         21    1    1    2  504  503 -0.15550543627E+01 -0.21958465209E+02  0.74995252546E+01  0.23255865227E+02  0.00000000000E+00 0.  1.
<mgrwt>
<rscale>  2 0.22013459E+02</rscale>
<asrwt>0</asrwt>
<pdfrwt beam="1">  1       21 0.24017931E-02 0.22013459E+02</pdfrwt>
<pdfrwt beam="2">  1       21 0.80876142E-01 0.22013459E+02</pdfrwt>
<totfact> 0.11394408E+06</totfact>
</mgrwt>
</event>
<event>
 4    1  0.4556894E+006  0.2108961E+02  0.7546771E-02  0.1724490E+00
         21   -1    0    0  503  501  0.00000000000E+00  0.00000000000E+00  0.36911241653E+01  0.36911241653E+01  0.00000000000E+00 0. -1.
         21   -1    0    0  504  502 -0.00000000000E+00 -0.00000000000E+00 -0.18624190770E+03  0.18624190770E+03  0.00000000000E+00 0. -1.
         21    1    1    2  503  502 -0.16698036010E+02  0.12882049211E+02 -0.34851780086E+02  0.40735956766E+02  0.00000000000E+00 0. -1.
         21    1    1    2  504  501  0.16698036010E+02 -0.12882049211E+02 -0.14769900345E+03  0.14919707510E+03  0.00000000000E+00 0. -1.
<mgrwt>
<rscale>  2 0.21089609E+02</rscale>
<asrwt>0</asrwt>
<pdfrwt beam="1">  1       21 0.56786521E-03 0.21089609E+02</pdfrwt>
<pdfrwt beam="2">  1       21 0.28652604E-01 0.21089609E+02</pdfrwt>
<totfact> 0.73902213E+07</totfact>
</mgrwt>
</event>
<event>
 4    1  0.4556894E+006  0.2196340E+02  0.7546771E-02  0.1708886E+00
         21   -1    0    0  504  501  0.00000000000E+00  0.00000000000E+00  0.57728895672E+01  0.57728895672E+01  0.00000000000E+00 0. -1.
         21   -1    0    0  503  502 -0.00000000000E+00 -0.00000000000E+00 -0.88089009182E+02  0.88089009182E+02  0.00000000000E+00 0. -1.
         21    1    1    2  503  501 -0.17182748044E+02  0.13680059836E+02 -0.30518299684E+02  0.37599966530E+02  0.00000000000E+00 0. -1.
         21    1    1    2  504  502  0.17182748044E+02 -0.13680059836E+02 -0.51797819930E+02  0.56261932219E+02  0.00000000000E+00 0. -1.
<mgrwt>
<rscale>  2 0.21963398E+02</rscale>
<asrwt>0</asrwt>
<pdfrwt beam="1">  1       21 0.88813678E-03 0.21963398E+02</pdfrwt>
<pdfrwt beam="2">  1       21 0.13552156E-01 0.21963398E+02</pdfrwt>
<totfact> 0.14154899E+08</totfact>
</mgrwt>
</event>
<event>
 4    1  0.4556894E+006  0.2042027E+02  0.7546771E-02  0.1737097E+00
         21   -1    0    0  504  501  0.00000000000E+00  0.00000000000E+00  0.25708633084E+03  0.25708633084E+03  0.00000000000E+00 0. -1.
         21   -1    0    0  503  502 -0.00000000000E+00 -0.00000000000E+00 -0.87920946184E+02  0.87920946184E+02  0.00000000000E+00 0.  1.
         21    1    1    2  503  501  0.56331951582E+01  0.19627897494E+02  0.25548774237E+03  0.25630250438E+03  0.00000000000E+00 0. -1.
         21    1    1    2  504  502 -0.56331951582E+01 -0.19627897494E+02 -0.86322357719E+02  0.88704772645E+02  0.00000000000E+00 0.  1.
<mgrwt>
<rscale>  2 0.20420266E+02</rscale>
<asrwt>0</asrwt>
<pdfrwt beam="1">  1       21 0.39551743E-01 0.20420266E+02</pdfrwt>
<pdfrwt beam="2">  1       21 0.13526300E-01 0.20420266E+02</pdfrwt>
<totfact> 0.29265704E+05</totfact>
</mgrwt>
</event>
<event>
 4    1  0.4556894E+006  0.3826869E+02  0.7546771E-02  0.1521353E+00
         21   -1    0    0  504  501  0.00000000000E+00  0.00000000000E+00  0.57303717761E+01  0.57303717761E+01  0.00000000000E+00 0.  1.
         21   -1    0    0  501  502 -0.00000000000E+00 -0.00000000000E+00 -0.27705791347E+03  0.27705791347E+03  0.00000000000E+00 0.  1.
         21    1    1    2  503  502  0.27134201343E+02 -0.26985694036E+02 -0.17504379448E+03  0.17917818659E+03  0.00000000000E+00 0.  1.
         21    1    1    2  504  503 -0.27134201343E+02  0.26985694036E+02 -0.96283747214E+02  0.10361009865E+03  0.00000000000E+00 0.  1.
<mgrwt>
<rscale>  2 0.38268689E+02</rscale>
<asrwt>0</asrwt>
<pdfrwt beam="1">  1       21 0.88159589E-03 0.38268689E+02</pdfrwt>
<pdfrwt beam="2">  1       21 0.42624283E-01 0.38268689E+02</pdfrwt>
<totfact> 0.20599059E+07</totfact>
</mgrwt>
</event>
<event>
 4    1  0.4556894E+006  0.2630081E+02  0.7546771E-02  0.1642991E+00
         21   -1    0    0  504  501  0.00000000000E+00  0.00000000000E+00  0.40708818458E+02  0.40708818458E+02  0.00000000000E+00 0.  1.
         21   -1    0    0  503  502 -0.00000000000E+00 -0.00000000000E+00 -0.13600205341E+03  0.13600205341E+03  0.00000000000E+00 0.  1.
         21    1    1    2  503  501 -0.38918685581E+01  0.26011265567E+02 -0.13029835593E+03  0.13292627330E+03  0.00000000000E+00 0.  1.
         21    1    1    2  504  502  0.38918685581E+01 -0.26011265567E+02  0.35005120972E+02  0.43784598566E+02  0.00000000000E+00 0.  1.
<mgrwt>
<rscale>  2 0.26300809E+02</rscale>
<asrwt>0</asrwt>
<pdfrwt beam="1">  1       21 0.62628952E-02 0.26300809E+02</pdfrwt>
<pdfrwt beam="2">  1       21 0.20923393E-01 0.26300809E+02</pdfrwt>
<totfact> 0.33778057E+06</totfact>
</mgrwt>
</event>
<event>
 4    1  0.4556894E+006  0.2099969E+02  0.7546771E-02  0.1726149E+00
         21   -1    0    0  502  501  0.00000000000E+00  0.00000000000E+00  0.85527778690E+02  0.85527778690E+02  0.00000000000E+00 0. -1.
         21   -1    0    0  504  502 -0.00000000000E+00 -0.00000000000E+00 -0.12494884456E+04  0.12494884456E+04  0.00000000000E+00 0. -1.
         21    1    1    2  503  501 -0.12145269972E+01  0.20964539622E+02  0.84149104555E+02  0.86729803382E+02  0.00000000000E+00 0. -1.
         21    1    1    2  504  503  0.12145269972E+01 -0.20964539622E+02 -0.12481097715E+04  0.12482864209E+04  0.00000000000E+00 0. -1.
<mgrwt>
<rscale>  2 0.20999690E+02</rscale>
<asrwt>0</asrwt>
<pdfrwt beam="1">  1       21 0.13158120E-01 0.20999690E+02</pdfrwt>
<pdfrwt beam="2">  1       21 0.19222899E+00 0.20999690E+02</pdfrwt>
<totfact> 0.10363313E+04</totfact>
</mgrwt>
</event>
<event>
 4    1  0.4556894E+006  0.2307156E+02  0.7546771E-02  0.1690353E+00
         21   -1    0    0  503  501  0.00000000000E+00  0.00000000000E+00  0.28792360225E+03  0.28792360225E+03  0.00000000000E+00 0. -1.
         21   -1    0    0  501  502 -0.00000000000E+00 -0.00000000000E+00 -0.25145751218E+01  0.25145751218E+01  0.00000000000E+00 0.  1.
         21    1    1    2  503  504  0.17513262487E+02  0.15019397427E+02  0.21743087985E+03  0.21865151309E+03  0.00000000000E+00 0. -1.
         21    1    1    2  504  502 -0.17513262487E+02 -0.15019397427E+02  0.67978147277E+02  0.71786664285E+02  0.00000000000E+00 0.  1.
<mgrwt>
<rscale>  2 0.23071555E+02</rscale>
<asrwt>0</asrwt>
<pdfrwt beam="1">  1       21 0.44295913E-01 0.23071555E+02</pdfrwt>
<pdfrwt beam="2">  1       21 0.38685794E-03 0.23071555E+02</pdfrwt>
<totfact> 0.59282630E+07</totfact>
</mgrwt>
</event>
<event>
 4    1  0.4556894E+006  0.2563961E+02  0.7546771E-02  0.1651981E+00
         21   -1    0    0  503  501  0.00000000000E+00  0.00000000000E+00  0.28694585413E+02  0.28694585413E+02  0.00000000000E+00 0.  1.
         21   -1    0    0  504  502 -0.00000000000E+00 -0.00000000000E+00 -0.23186468741E+02  0.23186468741E+02  0.00000000000E+00 0.  1.
         21    1    1    2  503  502 -0.84197904661E+01 -0.24217698007E+02 -0.79105120997E-01  0.25639735293E+02  0.00000000000E+00 0.  1.
         21    1    1    2  504  501  0.84197904661E+01  0.24217698007E+02  0.55872217927E+01  0.26241318862E+02  0.00000000000E+00 0.  1.
<mgrwt>
<rscale>  2 0.25639613E+02</rscale>
<asrwt>0</asrwt>
<pdfrwt beam="1">  1       21 0.44145516E-02 0.25639613E+02</pdfrwt>
<pdfrwt beam="2">  1       21 0.35671490E-02 0.25639613E+02</pdfrwt>
<totfact> 0.10986051E+08</totfact>
</mgrwt>
</event>
<event>
 4    1  0.4556894E+006  0.2005092E+02  0.7546771E-02  0.1744317E+00
         21   -1    0    0  504  501  0.00000000000E+00  0.00000000000E+00  0.90536696079E+01  0.90536696079E+01  0.00000000000E+00 0.  1.
         21   -1    0    0  503  502 -0.00000000000E+00 -0.00000000000E+00 -0.14731588835E+03  0.14731588835E+03  0.00000000000E+00 0.  1.
         21    1    1    2  503  501 -0.98455727975E+01  0.17467226225E+02 -0.37841332688E+01  0.20404875896E+02  0.00000000000E+00 0.  1.
         21    1    1    2  504  502  0.98455727975E+01 -0.17467226225E+02 -0.13447808547E+03  0.13596468206E+03  0.00000000000E+00 0.  1.
<mgrwt>
<rscale>  2 0.20050918E+02</rscale>
<asrwt>0</asrwt>
<pdfrwt beam="1">  1       21 0.13928723E-02 0.20050918E+02</pdfrwt>
<pdfrwt beam="2">  1       21 0.22663982E-01 0.20050918E+02</pdfrwt>
<totfact> 0.29038618E+07</totfact>
</mgrwt>
</event>
<event>
 4    1  0.4556894E+006  0.3671596E+02  0.7546771E-02  0.1533870E+00
         21   -1    0    0  502  501  0.00000000000E+00  0.00000000000E+00  0.44845156324E+03  0.44845156324E+03  0.00000000000E+00 0.  1.
         21   -1    0    0  504  502 -0.00000000000E+00 -0.00000000000E+00 -0.19291865269E+02  0.19291865269E+02  0.00000000000E+00 0.  1.
         21    1    1    2  503  501  0.19277951728E+02  0.31247762212E+02  0.42945960991E+03  0.43102623889E+03  0.00000000000E+00 0.  1.
         21    1    1    2  504  503 -0.19277951728E+02 -0.31247762212E+02 -0.29991194416E+00  0.36717189615E+02  0.00000000000E+00 0.  1.
<mgrwt>
<rscale>  2 0.36715965E+02</rscale>
<asrwt>0</asrwt>
<pdfrwt beam="1">  1       21 0.68992540E-01 0.36715965E+02</pdfrwt>
<pdfrwt beam="2">  1       21 0.29679796E-02 0.36715965E+02</pdfrwt>
<totfact> 0.11873493E+06</totfact>
</mgrwt>
</event>
<event>
 4    1  0.4556894E+006  0.3916758E+02  0.7546771E-02  0.1514428E+00
         21   -1    0    0  503  501  0.00000000000E+00  0.00000000000E+00  0.21085968563E+03  0.21085968563E+03  0.00000000000E+00 0. -1.
         21   -1    0    0  501  502 -0.00000000000E+00 -0.00000000000E+00 -0.17925324585E+02  0.17925324585E+02  0.00000000000E+00 0. -1.
         21    1    1    2  503  504  0.39131862188E+02 -0.16724083441E+01  0.18464031018E+03  0.18874889068E+03  0.00000000000E+00 0. -1.
         21    1    1    2  504  502 -0.39131862188E+02  0.16724083441E+01  0.82940508647E+01  0.40036119539E+02  0.00000000000E+00 0. -1.
<mgrwt>
<rscale>  2 0.39167583E+02</rscale>
<asrwt>0</asrwt>
<pdfrwt beam="1">  1       21 0.32439950E-01 0.39167583E+02</pdfrwt>
<pdfrwt beam="2">  1       21 0.27577424E-02 0.39167583E+02</pdfrwt>
<totfact> 0.59386243E+06</totfact>
</mgrwt>
</event>
<event>
 4    1  0.4556894E+006  0.2705285E+02  0.7546771E-02  0.1633154E+00
         21   -1    0    0  503  501  0.00000000000E+00  0.00000000000E+00  0.12598622227E+03  0.12598622227E+03  0.00000000000E+00 0.  1.
         21   -1    0    0  504  502 -0.00000000000E+00 -0.00000000000E+00 -0.39101815311E+02  0.39101815311E+02  0.00000000000E+00 0.  1.
         21    1    1    2  503  502 -0.19612984837E+02 -0.18632974471E+02  0.11960839801E+03  0.12262962850E+03  0.00000000000E+00 0.  1.
         21    1    1    2  504  501  0.19612984837E+02  0.18632974471E+02 -0.32723991047E+02  0.42458409083E+02  0.00000000000E+00 0.  1.
<mgrwt>
<rscale>  2 0.27052854E+02</rscale>
<asrwt>0</asrwt>
<pdfrwt beam="1">  1       21 0.19382496E-01 0.27052854E+02</pdfrwt>
<pdfrwt beam="2">  1       21 0.60156639E-02 0.27052854E+02</pdfrwt>
<totfact> 0.41395363E+06</totfact>
</mgrwt>
</event>
<event>
 4    1  0.4556894E+006  0.2414685E+02  0.7546771E-02  0.1673567E+00
         21   -1    0    0  504  501  0.00000000000E+00  0.00000000000E+00  0.53325013377E+02  0.53325013377E+02  0.00000000000E+00 0. -1.
         21   -1    0    0  501  502 -0.00000000000E+00 -0.00000000000E+00 -0.15091004298E+03  0.15091004298E+03  0.00000000000E+00 0.  1.
         21    1    1    2  503  502  0.13599368074E+02  0.19953133190E+02 -0.14714099491E+03  0.14910916376E+03  0.00000000000E+00 0.  1.
         21    1    1    2  504  503 -0.13599368074E+02 -0.19953133190E+02  0.49555965308E+02  0.55125892589E+02  0.00000000000E+00 0. -1.
<mgrwt>
<rscale>  2 0.24146849E+02</rscale>
<asrwt>0</asrwt>
<pdfrwt beam="1">  1       21 0.82038483E-02 0.24146849E+02</pdfrwt>
<pdfrwt beam="2">  1       21 0.23216929E-01 0.24146849E+02</pdfrwt>
<totfact> 0.17924637E+06</totfact>
</mgrwt>
</event>
<event>
 4    1  0.4556894E+006  0.3030841E+02  0.7546771E-02  0.1594704E+00
         21   -1    0    0  504  501  0.00000000000E+00  0.00000000000E+00  0.40521196457E+03  0.40521196457E+03  0.00000000000E+00 0. -1.
         21   -1    0    0  501  502 -0.00000000000E+00 -0.00000000000E+00 -0.96704922398E+01  0.96704922398E+01  0.00000000000E+00 0. -1.
         21    1    1    2  503  502  0.28825752929E+02  0.93635411426E+01  0.16265053670E+02  0.34396975238E+02  0.00000000000E+00 0. -1.
         21    1    1    2  504  503 -0.28825752929E+02 -0.93635411426E+01  0.37927641866E+03  0.38048548157E+03  0.00000000000E+00 0. -1.
<mgrwt>
<rscale>  2 0.30308414E+02</rscale>
<asrwt>0</asrwt>
<pdfrwt beam="1">  1       21 0.62340289E-01 0.30308414E+02</pdfrwt>
<pdfrwt beam="2">  1       21 0.14877683E-02 0.30308414E+02</pdfrwt>
<totfact> 0.42177767E+06</totfact>
</mgrwt>
</event>
<event>
 4    1  0.4556894E+006  0.2169297E+02  0.7546771E-02  0.1713617E+00
         21   -1    0    0  504  501  0.00000000000E+00  0.00000000000E+00  0.47254333500E+01  0.47254333500E+01  0.00000000000E+00 0. -1.
         21   -1    0    0  501  502 -0.00000000000E+00 -0.00000000000E+00 -0.14455601645E+03  0.14455601645E+03  0.00000000000E+00 0. -1.
         21    1    1    2  503  502 -0.20807226806E+02 -0.61354930592E+01 -0.11154672586E+03  0.11363651267E+03  0.00000000000E+00 0. -1.
         21    1    1    2  504  503  0.20807226806E+02  0.61354930592E+01 -0.28283857240E+02  0.35644937127E+02  0.00000000000E+00 0. -1.
<mgrwt>
<rscale>  2 0.21692970E+02</rscale>
<asrwt>0</asrwt>
<pdfrwt beam="1">  1       21 0.72698988E-03 0.21692970E+02</pdfrwt>
<pdfrwt beam="2">  1       21 0.22239383E-01 0.21692970E+02</pdfrwt>
<totfact> 0.81083875E+07</totfact>
</mgrwt>
</event>
<event>
 4    1  0.4556894E+006  0.2126589E+02  0.7546771E-02  0.1721266E+00
         21   -1    0    0  504  501  0.00000000000E+00  0.00000000000E+00  0.18759344332E+01  0.18759344332E+01  0.00000000000E+00 0.  1.
         21   -1    0    0  501  502 -0.00000000000E+00 -0.00000000000E+00 -0.49559895892E+03  0.49559895892E+03  0.00000000000E+00 0.  1.
         21    1    1    2  503  502 -0.19508095439E+02 -0.84659534890E+01 -0.42511644594E+03  0.42564801276E+03  0.00000000000E+00 0.  1.
         21    1    1    2  504  503  0.19508095439E+02  0.84659534890E+01 -0.68606578549E+02  0.71826880597E+02  0.00000000000E+00 0.  1.
<mgrwt>
<rscale>  2 0.21265892E+02</rscale>
<asrwt>0</asrwt>
<pdfrwt beam="1">  1       21 0.28860476E-03 0.21265892E+02</pdfrwt>
<pdfrwt beam="2">  1       21 0.76246136E-01 0.21265892E+02</pdfrwt>
<totfact> 0.30311328E+07</totfact>
</mgrwt>
</event>
<event>
 4    1  0.4556894E+006  0.2017621E+02  0.7546771E-02  0.1741846E+00
         21   -1    0    0  504  501  0.00000000000E+00  0.00000000000E+00  0.31118069241E+02  0.31118069241E+02  0.00000000000E+00 0. -1.
         21   -1    0    0  503  502 -0.00000000000E+00 -0.00000000000E+00 -0.29258269366E+03  0.29258269366E+03  0.00000000000E+00 0.  1.
         21    1    1    2  503  501 -0.18752547512E+02  0.74445643644E+01  0.27458417811E+02  0.34074099922E+02  0.00000000000E+00 0. -1.
         21    1    1    2  504  502  0.18752547512E+02 -0.74445643644E+01 -0.28892304223E+03  0.28962666298E+03  0.00000000000E+00 0.  1.
<mgrwt>
<rscale>  2 0.20176213E+02</rscale>
<asrwt>0</asrwt>
<pdfrwt beam="1">  1       21 0.47873954E-02 0.20176213E+02</pdfrwt>
<pdfrwt beam="2">  1       21 0.45012721E-01 0.20176213E+02</pdfrwt>
<totfact> 0.12397309E+06</totfact>
</mgrwt>
</event>
<event>
 4    1  0.4556894E+006  0.3349867E+02  0.7546771E-02  0.1562352E+00
         21   -1    0    0  502  501  0.00000000000E+00  0.00000000000E+00  0.18310279970E+03  0.18310279970E+03  0.00000000000E+00 0. -1.
         21   -1    0    0  504  502 -0.00000000000E+00 -0.00000000000E+00 -0.10068000968E+02  0.10068000968E+02  0.00000000000E+00 0. -1.
         21    1    1    2  503  501 -0.26709176700E+01 -0.33392023106E+02  0.14693393233E+03  0.15070415216E+03  0.00000000000E+00 0. -1.
         21    1    1    2  504  503  0.26709176700E+01  0.33392023106E+02  0.26100866395E+02  0.42466648501E+02  0.00000000000E+00 0. -1.
<mgrwt>
<rscale>  2 0.33498672E+02</rscale>
<asrwt>0</asrwt>
<pdfrwt beam="1">  1       21 0.28169659E-01 0.33498672E+02</pdfrwt>
<pdfrwt beam="2">  1       21 0.15489234E-02 0.33498672E+02</pdfrwt>
<totfact> 0.18569502E+07</totfact>
</mgrwt>
</event>
<event>
 4    1  0.4556894E+006  0.5366279E+02  0.7546771E-02  0.1426531E+00
         21   -1    0    0  504  501  0.00000000000E+00  0.00000000000E+00  0.30783576131E+03  0.30783576131E+03  0.00000000000E+00 0. -1.
         21   -1    0    0  501  502 -0.00000000000E+00 -0.00000000000E+00 -0.46875816801E+03  0.46875816801E+03  0.00000000000E+00 0. -1.
         21    1    1    2  503  502 -0.33053612600E+02  0.42274736516E+02 -0.46486417078E+03  0.46795127089E+03  0.00000000000E+00 0. -1.
         21    1    1    2  504  503  0.33053612600E+02 -0.42274736516E+02  0.30394176408E+03  0.30864265844E+03  0.00000000000E+00 0. -1.
<mgrwt>
<rscale>  2 0.53662786E+02</rscale>
<asrwt>0</asrwt>
<pdfrwt beam="1">  1       21 0.47359348E-01 0.53662786E+02</pdfrwt>
<pdfrwt beam="2">  1       21 0.72116641E-01 0.53662786E+02</pdfrwt>
<totfact> 0.86702552E+03</totfact>
</mgrwt>
</event>
<event>
 4    1  0.4556894E+006  0.2205488E+02  0.7546771E-02  0.1707305E+00
         21   -1    0    0  502  501  0.00000000000E+00  0.00000000000E+00  0.12994442224E+04  0.12994442224E+04  0.00000000000E+00 0. -1.
         21   -1    0    0  503  502 -0.00000000000E+00 -0.00000000000E+00 -0.43682992035E+00  0.43682992035E+00  0.00000000000E+00 0.  1.
         21    1    1    2  503  504 -0.12685605983E+02  0.18041423394E+02  0.40365594086E+03  0.40425800691E+03  0.00000000000E+00 0.  1.
         21    1    1    2  504  501  0.12685605983E+02 -0.18041423394E+02  0.89535145162E+03  0.89562304541E+03  0.00000000000E+00 0. -1.
<mgrwt>
<rscale>  2 0.22054876E+02</rscale>
<asrwt>0</asrwt>
<pdfrwt beam="1">  1       21 0.19991140E+00 0.22054876E+02</pdfrwt>
<pdfrwt beam="2">  1       21 0.67205643E-04 0.22054876E+02</pdfrwt>
<totfact> 0.27176984E+07</totfact>
</mgrwt>
</event>
<event>
 4    1  0.4556894E+006  0.2613483E+02  0.7546771E-02  0.1645217E+00
         21   -1    0    0  503  501  0.00000000000E+00  0.00000000000E+00  0.14242951369E+01  0.14242951369E+01  0.00000000000E+00 0.  1.
         21   -1    0    0  504  502 -0.00000000000E+00 -0.00000000000E+00 -0.78052039829E+03  0.78052039829E+03  0.00000000000E+00 0.  1.
         21    1    1    2  503  502  0.12856356885E+02  0.22753972668E+02 -0.14676882560E+03  0.14907755482E+03  0.00000000000E+00 0.  1.
         21    1    1    2  504  501 -0.12856356885E+02 -0.22753972668E+02 -0.63232727755E+03  0.63286713860E+03  0.00000000000E+00 0.  1.
<mgrwt>
<rscale>  2 0.26134827E+02</rscale>
<asrwt>0</asrwt>
<pdfrwt beam="1">  1       21 0.21912240E-03 0.26134827E+02</pdfrwt>
<pdfrwt beam="2">  1       21 0.12008002E+00 0.26134827E+02</pdfrwt>
<totfact> 0.17537876E+07</totfact>
</mgrwt>
</event>
<event>
 4    1  0.4556894E+006  0.2429437E+02  0.7546771E-02  0.1671349E+00
         21   -1    0    0  504  501  0.00000000000E+00  0.00000000000E+00  0.16946294774E+02  0.16946294774E+02  0.00000000000E+00 0. -1.
         21   -1    0    0  503  502 -0.00000000000E+00 -0.00000000000E+00 -0.11441794021E+03  0.11441794021E+03  0.00000000000E+00 0.  1.
         21    1    1    2  503  501 -0.18110365947E+02  0.16193553215E+02 -0.10351650115E+03  0.10632912362E+03  0.00000000000E+00 0.  1.
         21    1    1    2  504  502  0.18110365947E+02 -0.16193553215E+02  0.60448557098E+01  0.25035111364E+02  0.00000000000E+00 0. -1.
<mgrwt>
<rscale>  2 0.24294372E+02</rscale>
<asrwt>0</asrwt>
<pdfrwt beam="1">  1       21 0.26071223E-02 0.24294372E+02</pdfrwt>
<pdfrwt beam="2">  1       21 0.17602760E-01 0.24294372E+02</pdfrwt>
<totfact> 0.18052457E+07</totfact>
</mgrwt>
</event>
<event>
 4    1  0.4556894E+006  0.2579869E+02  0.7546771E-02  0.1649788E+00
         21   -1    0    0  503  501  0.00000000000E+00  0.00000000000E+00  0.35160676340E+02  0.35160676340E+02  0.00000000000E+00 0.  1.
         21   -1    0    0  501  502 -0.00000000000E+00 -0.00000000000E+00 -0.17736758167E+03  0.17736758167E+03  0.00000000000E+00 0.  1.
         21    1    1    2  503  504 -0.33800716791E+01 -0.25576304782E+02  0.29330237816E+02  0.39061939292E+02  0.00000000000E+00 0.  1.
         21    1    1    2  504  502  0.33800716791E+01  0.25576304782E+02 -0.17153714315E+03  0.17346631872E+03  0.00000000000E+00 0.  1.
<mgrwt>
<rscale>  2 0.25798687E+02</rscale>
<asrwt>0</asrwt>
<pdfrwt beam="1">  1       21 0.54093348E-02 0.25798687E+02</pdfrwt>
<pdfrwt beam="2">  1       21 0.27287320E-01 0.25798687E+02</pdfrwt>
<totfact> 0.26566417E+06</totfact>
</mgrwt>
</event>
<event>
 4    1  0.4556894E+006  0.2588602E+02  0.7546771E-02  0.1648592E+00
         21   -1    0    0  503  501  0.00000000000E+00  0.00000000000E+00  0.86342970689E+02  0.86342970689E+02  0.00000000000E+00 0.  1.
         21   -1    0    0  504  502 -0.00000000000E+00 -0.00000000000E+00 -0.11280424205E+02  0.11280424205E+02  0.00000000000E+00 0. -1.
         21    1    1    2  503  502 -0.25283386827E+02  0.55530671625E+01  0.64796708267E+02  0.69776067578E+02  0.00000000000E+00 0.  1.
         21    1    1    2  504  501  0.25283386827E+02 -0.55530671625E+01  0.10265838216E+02  0.27847327316E+02  0.00000000000E+00 0. -1.
<mgrwt>
<rscale>  2 0.25886023E+02</rscale>
<asrwt>0</asrwt>
<pdfrwt beam="1">  1       21 0.13283534E-01 0.25886023E+02</pdfrwt>
<pdfrwt beam="2">  1       21 0.17354499E-02 0.25886023E+02</pdfrwt>
<totfact> 0.55529926E+07</totfact>
</mgrwt>
</event>
<event>
 4    1  0.4556894E+006  0.2903740E+02  0.7546771E-02  0.1608979E+00
         21   -1    0    0  502  501  0.00000000000E+00  0.00000000000E+00  0.88660736892E+01  0.88660736892E+01  0.00000000000E+00 0. -1.
         21   -1    0    0  503  502 -0.00000000000E+00 -0.00000000000E+00 -0.21291510842E+04  0.21291510842E+04  0.00000000000E+00 0. -1.
         21    1    1    2  503  504 -0.15811857918E+02  0.24354784588E+02 -0.21050041732E+04  0.21052044413E+04  0.00000000000E+00 0. -1.
         21    1    1    2  504  501  0.15811857918E+02 -0.24354784588E+02 -0.15280837328E+02  0.32812716630E+02  0.00000000000E+00 0. -1.
<mgrwt>
<rscale>  2 0.29037396E+02</rscale>
<asrwt>0</asrwt>
<pdfrwt beam="1">  1       21 0.13640092E-02 0.29037396E+02</pdfrwt>
<pdfrwt beam="2">  1       21 0.32756223E+00 0.29037396E+02</pdfrwt>
<totfact> 0.74673709E+04</totfact>
</mgrwt>
</event>
<event>
 4    1  0.4556894E+006  0.2413151E+02  0.7546771E-02  0.1673799E+00
         21   -1    0    0  503  501  0.00000000000E+00  0.00000000000E+00  0.15133031701E+02  0.15133031701E+02  0.00000000000E+00 0.  1.
         21   -1    0    0  504  502 -0.00000000000E+00 -0.00000000000E+00 -0.49423161917E+02  0.49423161917E+02  0.00000000000E+00 0.  1.
         21    1    1    2  503  502  0.22078220709E+02 -0.97407253450E+01 -0.19570751791E+01  0.24210735287E+02  0.00000000000E+00 0.  1.
         21    1    1    2  504  501 -0.22078220709E+02  0.97407253450E+01 -0.32333055037E+02  0.40345458331E+02  0.00000000000E+00 0.  1.
<mgrwt>
<rscale>  2 0.24131506E+02</rscale>
<asrwt>0</asrwt>
<pdfrwt beam="1">  1       21 0.23281587E-02 0.24131506E+02</pdfrwt>
<pdfrwt beam="2">  1       21 0.76035633E-02 0.24131506E+02</pdfrwt>
<totfact> 0.87670904E+07</totfact>
</mgrwt>
</event>
<event>
 4    1  0.4556894E+006  0.3511254E+02  0.7546771E-02  0.1547603E+00
         21   -1    0    0  502  501  0.00000000000E+00  0.00000000000E+00  0.41900523562E+03  0.41900523562E+03  0.00000000000E+00 0. -1.
         21   -1    0    0  503  502 -0.00000000000E+00 -0.00000000000E+00 -0.50722693910E+01  0.50722693910E+01  0.00000000000E+00 0. -1.
         21    1    1    2  503  504  0.33135449185E+02 -0.11616044906E+02  0.69565999067E+02  0.77925084011E+02  0.00000000000E+00 0. -1.
         21    1    1    2  504  501 -0.33135449185E+02  0.11616044906E+02  0.34436696716E+03  0.34615242100E+03  0.00000000000E+00 0. -1.
<mgrwt>
<rscale>  2 0.35112540E+02</rscale>
<asrwt>0</asrwt>
<pdfrwt beam="1">  1       21 0.64462317E-01 0.35112540E+02</pdfrwt>
<pdfrwt beam="2">  1       21 0.78034947E-03 0.35112540E+02</pdfrwt>
<totfact> 0.10721577E+07</totfact>
</mgrwt>
</event>
<event>
 4    1  0.4556894E+006  0.2354748E+02  0.7546771E-02  0.1682786E+00
         21   -1    0    0  503  501  0.00000000000E+00  0.00000000000E+00  0.19066033440E+03  0.19066033440E+03  0.00000000000E+00 0. -1.
         21   -1    0    0  504  502 -0.00000000000E+00 -0.00000000000E+00 -0.47261424194E+01  0.47261424194E+01  0.00000000000E+00 0.  1.
         21    1    1    2  503  502  0.14670255384E+02 -0.18419217567E+02  0.32377554356E+02  0.40034859746E+02  0.00000000000E+00 0.  1.
         21    1    1    2  504  501 -0.14670255384E+02  0.18419217567E+02  0.15355663763E+03  0.15535161708E+03  0.00000000000E+00 0. -1.
<mgrwt>
<rscale>  2 0.23547483E+02</rscale>
<asrwt>0</asrwt>
<pdfrwt beam="1">  1       21 0.29332353E-01 0.23547483E+02</pdfrwt>
<pdfrwt beam="2">  1       21 0.72709898E-03 0.23547483E+02</pdfrwt>
<totfact> 0.50502704E+07</totfact>
</mgrwt>
</event>
<event>
 4    1  0.4556894E+006  0.2030828E+02  0.7546771E-02  0.1739266E+00
         21   -1    0    0  503  501  0.00000000000E+00  0.00000000000E+00  0.35075217443E+02  0.35075217443E+02  0.00000000000E+00 0.  1.
         21   -1    0    0  504  502 -0.00000000000E+00 -0.00000000000E+00 -0.12410043678E+02  0.12410043678E+02  0.00000000000E+00 0.  1.
         21    1    1    2  503  502  0.19588378488E+02  0.53592577211E+01  0.16773457254E+02  0.26339610539E+02  0.00000000000E+00 0.  1.
         21    1    1    2  504  501 -0.19588378488E+02 -0.53592577211E+01  0.58917165113E+01  0.21145650582E+02  0.00000000000E+00 0.  1.
<mgrwt>
<rscale>  2 0.20308279E+02</rscale>
<asrwt>0</asrwt>
<pdfrwt beam="1">  1       21 0.53961873E-02 0.20308279E+02</pdfrwt>
<pdfrwt beam="2">  1       21 0.19092375E-02 0.20308279E+02</pdfrwt>
<totfact> 0.19601254E+08</totfact>
</mgrwt>
</event>
<event>
 4    1  0.4556894E+006  0.2131184E+02  0.7546771E-02  0.1720432E+00
         21   -1    0    0  503  501  0.00000000000E+00  0.00000000000E+00  0.10702647175E+01  0.10702647175E+01  0.00000000000E+00 0. -1.
         21   -1    0    0  504  502 -0.00000000000E+00 -0.00000000000E+00 -0.42762714324E+03  0.42762714324E+03  0.00000000000E+00 0. -1.
         21    1    1    2  503  502 -0.20603828509E+02  0.54476543986E+01 -0.23196823434E+03  0.23294517903E+03  0.00000000000E+00 0. -1.
         21    1    1    2  504  501  0.20603828509E+02 -0.54476543986E+01 -0.19458864418E+03  0.19575222893E+03  0.00000000000E+00 0. -1.
<mgrwt>
<rscale>  2 0.21311844E+02</rscale>
<asrwt>0</asrwt>
<pdfrwt beam="1">  1       21 0.16465604E-03 0.21311844E+02</pdfrwt>
<pdfrwt beam="2">  1       21 0.65788820E-01 0.21311844E+02</pdfrwt>
<totfact> 0.92186375E+07</totfact>
</mgrwt>
</event>
<event>
 4    1  0.4556894E+006  0.2121223E+02  0.7546771E-02  0.1722243E+00
         21   -1    0    0  502  501  0.00000000000E+00  0.00000000000E+00  0.16966363078E+02  0.16966363078E+02  0.00000000000E+00 0. -1.
         21   -1    0    0  504  502 -0.00000000000E+00 -0.00000000000E+00 -0.54928784591E+02  0.54928784591E+02  0.00000000000E+00 0. -1.
         21    1    1    2  503  501 -0.19590205149E+02 -0.81352759877E+01  0.68706021300E+01  0.22297175310E+02  0.00000000000E+00 0. -1.
         21    1    1    2  504  503  0.19590205149E+02  0.81352759877E+01 -0.44833023642E+02  0.49597972359E+02  0.00000000000E+00 0. -1.
<mgrwt>
<rscale>  2 0.21212234E+02</rscale>
<asrwt>0</asrwt>
<pdfrwt beam="1">  1       21 0.26102097E-02 0.21212234E+02</pdfrwt>
<pdfrwt beam="2">  1       21 0.84505823E-02 0.21212234E+02</pdfrwt>
<totfact> 0.59693016E+07</totfact>
</mgrwt>
</event>
<event>
 4    1  0.4556894E+006  0.2374438E+02  0.7546771E-02  0.1679721E+00
         21   -1    0    0  503  501  0.00000000000E+00  0.00000000000E+00  0.75912335301E+03  0.75912335301E+03  0.00000000000E+00 0. -1.
         21   -1    0    0  501  502 -0.00000000000E+00 -0.00000000000E+00 -0.99579653779E+00  0.99579653779E+00  0.00000000000E+00 0. -1.
         21    1    1    2  503  504 -0.39024593784E+00  0.23741167904E+02  0.57067271818E+03  0.57116647890E+03  0.00000000000E+00 0. -1.
         21    1    1    2  504  502  0.39024593784E+00 -0.23741167904E+02  0.18745483829E+03  0.18895267064E+03  0.00000000000E+00 0. -1.
<mgrwt>
<rscale>  2 0.23744375E+02</rscale>
<asrwt>0</asrwt>
<pdfrwt beam="1">  1       21 0.11678775E+00 0.23744375E+02</pdfrwt>
<pdfrwt beam="2">  1       21 0.15320007E-03 0.23744375E+02</pdfrwt>
<totfact> 0.30800435E+07</totfact>
</mgrwt>
</event>
<event>
 4    1  0.4556894E+006  0.2357526E+02  0.7546771E-02  0.1682351E+00
         21   -1    0    0  504  501  0.00000000000E+00  0.00000000000E+00  0.13713874591E+02  0.13713874591E+02  0.00000000000E+00 0. -1.
         21   -1    0    0  501  502 -0.00000000000E+00 -0.00000000000E+00 -0.59484985837E+02  0.59484985837E+02  0.00000000000E+00 0.  1.
         21    1    1    2  503  502 -0.50384917778E+01  0.23030560468E+02 -0.43546854498E+02  0.49518901962E+02  0.00000000000E+00 0.  1.
         21    1    1    2  504  503  0.50384917778E+01 -0.23030560468E+02 -0.22242567477E+01  0.23679958466E+02  0.00000000000E+00 0. -1.
<mgrwt>
<rscale>  2 0.23575265E+02</rscale>
<asrwt>0</asrwt>
<pdfrwt beam="1">  1       21 0.21098268E-02 0.23575265E+02</pdfrwt>
<pdfrwt beam="2">  1       21 0.91515365E-02 0.23575265E+02</pdfrwt>
<totfact> 0.74845387E+07</totfact>
</mgrwt>
</event>
<event>
 4    1  0.4556894E+006  0.2556119E+02  0.7546771E-02  0.1653070E+00
         21   -1    0    0  502  501  0.00000000000E+00  0.00000000000E+00  0.19485609577E+03  0.19485609577E+03  0.00000000000E+00 0.  1.
         21   -1    0    0  503  502 -0.00000000000E+00 -0.00000000000E+00 -0.49820460532E+01  0.49820460532E+01  0.00000000000E+00 0.  1.
         21    1    1    2  503  504 -0.87874693846E+01  0.24003229733E+02  0.37802840092E+02  0.45633643015E+02  0.00000000000E+00 0.  1.
         21    1    1    2  504  501  0.87874693846E+01 -0.24003229733E+02  0.15207120962E+03  0.15420449880E+03  0.00000000000E+00 0.  1.
<mgrwt>
<rscale>  2 0.25561194E+02</rscale>
<asrwt>0</asrwt>
<pdfrwt beam="1">  1       21 0.29977855E-01 0.25561194E+02</pdfrwt>
<pdfrwt beam="2">  1       21 0.76646877E-03 0.25561194E+02</pdfrwt>
<totfact> 0.45730586E+07</totfact>
</mgrwt>
</event>
<event>
 4    1  0.4556894E+006  0.2458674E+02  0.7546771E-02  0.1667010E+00
         21   -1    0    0  504  501  0.00000000000E+00  0.00000000000E+00  0.23619374162E+01  0.23619374162E+01  0.00000000000E+00 0.  1.
         21   -1    0    0  501  502 -0.00000000000E+00 -0.00000000000E+00 -0.14096564366E+04  0.14096564366E+04  0.00000000000E+00 0.  1.
         21    1    1    2  503  502 -0.17138737334E+02  0.17628710470E+02 -0.13423573322E+04  0.13425824798E+04  0.00000000000E+00 0.  1.
         21    1    1    2  504  503  0.17138737334E+02 -0.17628710470E+02 -0.64937167013E+02  0.69435894247E+02  0.00000000000E+00 0.  1.
<mgrwt>
<rscale>  2 0.24586739E+02</rscale>
<asrwt>0</asrwt>
<pdfrwt beam="1">  1       21 0.36337449E-03 0.24586739E+02</pdfrwt>
<pdfrwt beam="2">  1       21 0.21687052E+00 0.24586739E+02</pdfrwt>
<totfact> 0.19613433E+06</totfact>
</mgrwt>
</event>
<event>
 4    1  0.4556894E+006  0.2028941E+02  0.7546771E-02  0.1739633E+00
         21   -1    0    0  503  501  0.00000000000E+00  0.00000000000E+00  0.53148756433E+02  0.53148756433E+02  0.00000000000E+00 0. -1.
         21   -1    0    0  504  502 -0.00000000000E+00 -0.00000000000E+00 -0.78903044825E+01  0.78903044825E+01  0.00000000000E+00 0. -1.
         21    1    1    2  503  502 -0.19913582188E+02 -0.38870960703E+01  0.26764635145E+02  0.33585800063E+02  0.00000000000E+00 0. -1.
         21    1    1    2  504  501  0.19913582188E+02  0.38870960703E+01  0.18493816805E+02  0.27453260853E+02  0.00000000000E+00 0. -1.
<mgrwt>
<rscale>  2 0.20289413E+02</rscale>
<asrwt>0</asrwt>
<pdfrwt beam="1">  1       21 0.81767315E-02 0.20289413E+02</pdfrwt>
<pdfrwt beam="2">  1       21 0.12138930E-02 0.20289413E+02</pdfrwt>
<totfact> 0.19946195E+08</totfact>
</mgrwt>
</event>
<event>
 4    1  0.4556894E+006  0.2661699E+02  0.7546771E-02  0.1638807E+00
         21   -1    0    0  503  501  0.00000000000E+00  0.00000000000E+00  0.75068608700E+03  0.75068608700E+03  0.00000000000E+00 0. -1.
         21   -1    0    0  504  502 -0.00000000000E+00 -0.00000000000E+00 -0.28804783319E+01  0.28804783319E+01  0.00000000000E+00 0. -1.
         21    1    1    2  503  502  0.18331524820E+01  0.26553784429E+02  0.64949327835E+02  0.70191731007E+02  0.00000000000E+00 0. -1.
         21    1    1    2  504  501 -0.18331524820E+01 -0.26553784429E+02  0.68285628083E+03  0.68337483433E+03  0.00000000000E+00 0. -1.
<mgrwt>
<rscale>  2 0.26616985E+02</rscale>
<asrwt>0</asrwt>
<pdfrwt beam="1">  1       21 0.11549001E+00 0.26616985E+02</pdfrwt>
<pdfrwt beam="2">  1       21 0.44315111E-03 0.26616985E+02</pdfrwt>
<totfact> 0.68461929E+06</totfact>
</mgrwt>
</event>
<event>
 4    1  0.4556894E+006  0.2175225E+02  0.7546771E-02  0.1712572E+00
         21   -1    0    0  504  501  0.00000000000E+00  0.00000000000E+00  0.26363709485E+01  0.26363709485E+01  0.00000000000E+00 0.  1.
         21   -1    0    0  501  502 -0.00000000000E+00 -0.00000000000E+00 -0.18585065970E+03  0.18585065970E+03  0.00000000000E+00 0.  1.
         21    1    1    2  503  502  0.12717758091E+02  0.17647069047E+02 -0.10906380513E+03  0.11121184292E+03  0.00000000000E+00 0.  1.
         21    1    1    2  504  503 -0.12717758091E+02 -0.17647069047E+02 -0.74150483627E+02  0.77275187731E+02  0.00000000000E+00 0.  1.
<mgrwt>
<rscale>  2 0.21752251E+02</rscale>
<asrwt>0</asrwt>
<pdfrwt beam="1">  1       21 0.40559553E-03 0.21752251E+02</pdfrwt>
<pdfrwt beam="2">  1       21 0.28592409E-01 0.21752251E+02</pdfrwt>
<totfact> 0.12268943E+08</totfact>
</mgrwt>
</event>
<event>
 4    1  0.4556894E+006  0.2104814E+02  0.7546771E-02  0.1725253E+00
         21   -1    0    0  504  501  0.00000000000E+00  0.00000000000E+00  0.34721965286E+01  0.34721965286E+01  0.00000000000E+00 0.  1.
         21   -1    0    0  503  502 -0.00000000000E+00 -0.00000000000E+00 -0.13492834846E+03  0.13492834846E+03  0.00000000000E+00 0. -1.
         21    1    1    2  503  501  0.14860753887E+02 -0.14905781391E+02 -0.49592009817E+02  0.53873850453E+02  0.00000000000E+00 0.  1.
         21    1    1    2  504  502 -0.14860753887E+02  0.14905781391E+02 -0.81864142114E+02  0.84526694535E+02  0.00000000000E+00 0. -1.
<mgrwt>
<rscale>  2 0.21048143E+02</rscale>
<asrwt>0</asrwt>
<pdfrwt beam="1">  1       21 0.53418410E-03 0.21048143E+02</pdfrwt>
<pdfrwt beam="2">  1       21 0.20758207E-01 0.21048143E+02</pdfrwt>
<totfact> 0.14309223E+08</totfact>
</mgrwt>
</event>
<event>
 4    1  0.4556894E+006  0.2708695E+02  0.7546771E-02  0.1632717E+00
         21   -1    0    0  503  501  0.00000000000E+00  0.00000000000E+00  0.37531188033E+03  0.37531188033E+03  0.00000000000E+00 0. -1.
         21   -1    0    0  504  502 -0.00000000000E+00 -0.00000000000E+00 -0.22931915271E+01  0.22931915271E+01  0.00000000000E+00 0. -1.
         21    1    1    2  503  502 -0.26901610445E+02  0.31632525411E+01  0.11399505197E+03  0.11716900053E+03  0.00000000000E+00 0. -1.
         21    1    1    2  504  501  0.26901610445E+02 -0.31632525411E+01  0.25902363683E+03  0.26043607133E+03  0.00000000000E+00 0. -1.
<mgrwt>
<rscale>  2 0.27086949E+02</rscale>
<asrwt>0</asrwt>
<pdfrwt beam="1">  1       21 0.57740241E-01 0.27086949E+02</pdfrwt>
<pdfrwt beam="2">  1       21 0.35279899E-03 0.27086949E+02</pdfrwt>
<totfact> 0.41904460E+07</totfact>
</mgrwt>
</event>
<event>
 4    1  0.4556894E+006  0.2823890E+02  0.7546771E-02  0.1618413E+00
         21   -1    0    0  504  501  0.00000000000E+00  0.00000000000E+00  0.94823359861E+01  0.94823359861E+01  0.00000000000E+00 0.  1.
         21   -1    0    0  503  502 -0.00000000000E+00 -0.00000000000E+00 -0.31850723759E+03  0.31850723759E+03  0.00000000000E+00 0.  1.
         21    1    1    2  503  501 -0.21065000577E+01  0.28160219259E+02 -0.13823902789E+02  0.31440985664E+02  0.00000000000E+00 0.  1.
         21    1    1    2  504  502  0.21065000577E+01 -0.28160219259E+02 -0.29520099882E+03  0.29654858792E+03  0.00000000000E+00 0.  1.
<mgrwt>
<rscale>  2 0.28238897E+02</rscale>
<asrwt>0</asrwt>
<pdfrwt beam="1">  1       21 0.14588210E-02 0.28238897E+02</pdfrwt>
<pdfrwt beam="2">  1       21 0.49001111E-01 0.28238897E+02</pdfrwt>
<totfact> 0.69596660E+06</totfact>
</mgrwt>
</event>
<event>
 4    1  0.4556894E+006  0.3330752E+02  0.7546771E-02  0.1564165E+00
         21   -1    0    0  504  501  0.00000000000E+00  0.00000000000E+00  0.15059613240E+03  0.15059613240E+03  0.00000000000E+00 0. -1.
         21   -1    0    0  503  502 -0.00000000000E+00 -0.00000000000E+00 -0.83251365310E+02  0.83251365310E+02  0.00000000000E+00 0. -1.
         21    1    1    2  503  501 -0.10107907798E+01  0.33292174795E+02 -0.77958451452E+02  0.84775649531E+02  0.00000000000E+00 0. -1.
         21    1    1    2  504  502  0.10107907798E+01 -0.33292174795E+02  0.14530321854E+03  0.14907184818E+03  0.00000000000E+00 0. -1.
<mgrwt>
<rscale>  2 0.33307516E+02</rscale>
<asrwt>0</asrwt>
<pdfrwt beam="1">  1       21 0.23168636E-01 0.33307516E+02</pdfrwt>
<pdfrwt beam="2">  1       21 0.12807902E-01 0.33307516E+02</pdfrwt>
<totfact> 0.87887529E+05</totfact>
</mgrwt>
</event>
<event>
 4    1  0.4556894E+006  0.2059572E+02  0.7546771E-02  0.1733734E+00
         21   -1    0    0  502  501  0.00000000000E+00  0.00000000000E+00  0.15899640177E+01  0.15899640177E+01  0.00000000000E+00 0. -1.
         21   -1    0    0  503  502 -0.00000000000E+00 -0.00000000000E+00 -0.26786291579E+03  0.26786291579E+03  0.00000000000E+00 0.  1.
         21    1    1    2  503  504  0.11125425026E+02  0.17332303179E+02 -0.12460310064E+03  0.12629377065E+03  0.00000000000E+00 0. -1.
         21    1    1    2  504  501 -0.11125425026E+02 -0.17332303179E+02 -0.14166985113E+03  0.14315910916E+03  0.00000000000E+00 0.  1.
<mgrwt>
<rscale>  2 0.20595723E+02</rscale>
<asrwt>0</asrwt>
<pdfrwt beam="1">  1       21 0.24460991E-03 0.20595723E+02</pdfrwt>
<pdfrwt beam="2">  1       21 0.41209669E-01 0.20595723E+02</pdfrwt>
<totfact> 0.12858225E+08</totfact>
</mgrwt>
</event>
<event>
 4    1  0.4556894E+006  0.2035910E+02  0.7546771E-02  0.1738280E+00
         21   -1    0    0  503  501  0.00000000000E+00  0.00000000000E+00  0.88446994458E+02  0.88446994458E+02  0.00000000000E+00 0.  1.
         21   -1    0    0  504  502 -0.00000000000E+00 -0.00000000000E+00 -0.90407738833E+01  0.90407738833E+01  0.00000000000E+00 0.  1.
         21    1    1    2  503  502 -0.41796013163E+01  0.19925457849E+02  0.58745870739E+01  0.21189707665E+02  0.00000000000E+00 0.  1.
         21    1    1    2  504  501  0.41796013163E+01 -0.19925457849E+02  0.73531633501E+02  0.76298060676E+02  0.00000000000E+00 0.  1.
<mgrwt>
<rscale>  2 0.20359100E+02</rscale>
<asrwt>0</asrwt>
<pdfrwt beam="1">  1       21 0.13607229E-01 0.20359100E+02</pdfrwt>
<pdfrwt beam="2">  1       21 0.13908884E-02 0.20359100E+02</pdfrwt>
<totfact> 0.70128925E+07</totfact>
</mgrwt>
</event>
<event>
 4    1  0.4556894E+006  0.3212481E+02  0.7546771E-02  0.1575723E+00
         21   -1    0    0  504  501  0.00000000000E+00  0.00000000000E+00  0.16434517274E+04  0.16434517274E+04  0.00000000000E+00 0. -1.
         21   -1    0    0  503  502 -0.00000000000E+00 -0.00000000000E+00 -0.13459770554E+01  0.13459770554E+01  0.00000000000E+00 0. -1.
         21    1    1    2  503  501 -0.25208124373E+02 -0.19913655974E+02  0.14217208696E+04  0.14220837648E+04  0.00000000000E+00 0. -1.
         21    1    1    2  504  502  0.25208124373E+02  0.19913655974E+02  0.22038488081E+03  0.22271393966E+03  0.00000000000E+00 0. -1.
<mgrwt>
<rscale>  2 0.32124807E+02</rscale>
<asrwt>0</asrwt>
<pdfrwt beam="1">  1       21 0.25283712E+00 0.32124807E+02</pdfrwt>
<pdfrwt beam="2">  1       21 0.20707471E-03 0.32124807E+02</pdfrwt>
<totfact> 0.29233644E+06</totfact>
</mgrwt>
</event>
<event>
 4    1  0.4556894E+006  0.3219922E+02  0.7546771E-02  0.1574978E+00
         21   -1    0    0  502  501  0.00000000000E+00  0.00000000000E+00  0.43072869631E+02  0.43072869631E+02  0.00000000000E+00 0.  1.
         21   -1    0    0  503  502 -0.00000000000E+00 -0.00000000000E+00 -0.60332182689E+02  0.60332182689E+02  0.00000000000E+00 0.  1.
         21    1    1    2  503  504  0.32137020696E+02  0.20003815047E+01 -0.48712696202E+02  0.58392776922E+02  0.00000000000E+00 0.  1.
         21    1    1    2  504  501 -0.32137020696E+02 -0.20003815047E+01  0.31453383144E+02  0.45012275398E+02  0.00000000000E+00 0.  1.
<mgrwt>
<rscale>  2 0.32199218E+02</rscale>
<asrwt>0</asrwt>
<pdfrwt beam="1">  1       21 0.66265954E-02 0.32199218E+02</pdfrwt>
<pdfrwt beam="2">  1       21 0.92818742E-02 0.32199218E+02</pdfrwt>
<totfact> 0.12762343E+07</totfact>
</mgrwt>
</event>
<event>
 4    1  0.4556894E+006  0.2731869E+02  0.7546771E-02  0.1629770E+00
         21   -1    0    0  503  501  0.00000000000E+00  0.00000000000E+00  0.24381288278E+01  0.24381288278E+01  0.00000000000E+00 0. -1.
         21   -1    0    0  504  502 -0.00000000000E+00 -0.00000000000E+00 -0.67618330333E+03  0.67618330333E+03  0.00000000000E+00 0. -1.
         21    1    1    2  503  502 -0.22242581644E+02  0.15861218530E+02 -0.58789657873E+03  0.58853096603E+03  0.00000000000E+00 0. -1.
         21    1    1    2  504  501  0.22242581644E+02 -0.15861218530E+02 -0.85848595775E+02  0.90090466133E+02  0.00000000000E+00 0. -1.
<mgrwt>
<rscale>  2 0.27318688E+02</rscale>
<asrwt>0</asrwt>
<pdfrwt beam="1">  1       21 0.37509655E-03 0.27318688E+02</pdfrwt>
<pdfrwt beam="2">  1       21 0.10402825E+00 0.27318688E+02</pdfrwt>
<totfact> 0.11107747E+07</totfact>
</mgrwt>
</event>
<event>
 4    1  0.4556894E+006  0.2913943E+02  0.7546771E-02  0.1607801E+00
         21   -1    0    0  504  501  0.00000000000E+00  0.00000000000E+00  0.82549498762E+03  0.82549498762E+03  0.00000000000E+00 0. -1.
         21   -1    0    0  503  502 -0.00000000000E+00 -0.00000000000E+00 -0.11144192207E+01  0.11144192207E+01  0.00000000000E+00 0. -1.
         21    1    1    2  503  501  0.64257497484E+01 -0.28422110035E+02  0.52688167273E+03  0.52768684242E+03  0.00000000000E+00 0. -1.
         21    1    1    2  504  502 -0.64257497484E+01  0.28422110035E+02  0.29749889566E+03  0.29892256442E+03  0.00000000000E+00 0. -1.
<mgrwt>
<rscale>  2 0.29139434E+02</rscale>
<asrwt>0</asrwt>
<pdfrwt beam="1">  1       21 0.12699874E+00 0.29139434E+02</pdfrwt>
<pdfrwt beam="2">  1       21 0.17144977E-03 0.29139434E+02</pdfrwt>
<totfact> 0.22392177E+07</totfact>
</mgrwt>
</event>
<event>
 4    1  0.4556894E+006  0.2299107E+02  0.7546771E-02  0.1691655E+00
         21   -1    0    0  502  501  0.00000000000E+00  0.00000000000E+00  0.42462591429E+01  0.42462591429E+01  0.00000000000E+00 0.  1.
         21   -1    0    0  504  502 -0.00000000000E+00 -0.00000000000E+00 -0.14025016592E+03  0.14025016592E+03  0.00000000000E+00 0.  1.
         21    1    1    2  503  501  0.92195420572E+01  0.21061560538E+02 -0.43777997767E+02  0.49447976465E+02  0.00000000000E+00 0.  1.
         21    1    1    2  504  503 -0.92195420572E+01 -0.21061560538E+02 -0.92225909008E+02  0.95048448595E+02  0.00000000000E+00 0.  1.
<mgrwt>
<rscale>  2 0.22991070E+02</rscale>
<asrwt>0</asrwt>
<pdfrwt beam="1">  1       21 0.65327066E-03 0.22991070E+02</pdfrwt>
<pdfrwt beam="2">  1       21 0.21576948E-01 0.22991070E+02</pdfrwt>
<totfact> 0.10183572E+08</totfact>
</mgrwt>
</event>
<event>
 4    1  0.4556894E+006  0.3663329E+02  0.7546771E-02  0.1534557E+00
         21   -1    0    0  503  501  0.00000000000E+00  0.00000000000E+00  0.13334593663E+04  0.13334593663E+04  0.00000000000E+00 0.  1.
         21   -1    0    0  501  502 -0.00000000000E+00 -0.00000000000E+00 -0.16442895624E+02  0.16442895624E+02  0.00000000000E+00 0. -1.
         21    1    1    2  503  504 -0.27687629320E+01  0.36528507678E+02  0.13124777291E+04  0.13129888755E+04  0.00000000000E+00 0.  1.
         21    1    1    2  504  502  0.27687629320E+01 -0.36528507678E+02  0.45387416136E+01  0.36913386417E+02  0.00000000000E+00 0. -1.
<mgrwt>
<rscale>  2 0.36633290E+02</rscale>
<asrwt>0</asrwt>
<pdfrwt beam="1">  1       21 0.20514751E+00 0.36633290E+02</pdfrwt>
<pdfrwt beam="2">  1       21 0.25296773E-02 0.36633290E+02</pdfrwt>
<totfact> 0.11985928E+05</totfact>
</mgrwt>
</event>
<event>
 4    1  0.4556894E+006  0.2614681E+02  0.7546771E-02  0.1645056E+00
         21   -1    0    0  502  501  0.00000000000E+00  0.00000000000E+00  0.30582754761E+03  0.30582754761E+03  0.00000000000E+00 0. -1.
         21   -1    0    0  504  502 -0.00000000000E+00 -0.00000000000E+00 -0.15429434332E+03  0.15429434332E+03  0.00000000000E+00 0. -1.
         21    1    1    2  503  501  0.68048909917E+01  0.25245772270E+02  0.30415489680E+03  0.30527668893E+03  0.00000000000E+00 0. -1.
         21    1    1    2  504  503 -0.68048909917E+01 -0.25245772270E+02 -0.15262169250E+03  0.15484520200E+03  0.00000000000E+00 0. -1.
<mgrwt>
<rscale>  2 0.26146808E+02</rscale>
<asrwt>0</asrwt>
<pdfrwt beam="1">  1       21 0.47050392E-01 0.26146808E+02</pdfrwt>
<pdfrwt beam="2">  1       21 0.23737591E-01 0.26146808E+02</pdfrwt>
<totfact> 0.79780843E+04</totfact>
</mgrwt>
</event>
<event>
 4    1  0.4556894E+006  0.2129745E+02  0.7546771E-02  0.1720693E+00
         21   -1    0    0  503  501  0.00000000000E+00  0.00000000000E+00  0.66836495237E+01  0.66836495237E+01  0.00000000000E+00 0.  1.
         21   -1    0    0  501  502 -0.00000000000E+00 -0.00000000000E+00 -0.68193513577E+02  0.68193513577E+02  0.00000000000E+00 0.  1.
         21    1    1    2  503  504  0.20427452571E+02 -0.60250087341E+01 -0.28153862628E+02  0.35301862977E+02  0.00000000000E+00 0.  1.
         21    1    1    2  504  502 -0.20427452571E+02  0.60250087341E+01 -0.33356001426E+02  0.39575300124E+02  0.00000000000E+00 0.  1.
<mgrwt>
<rscale>  2 0.21297454E+02</rscale>
<asrwt>0</asrwt>
<pdfrwt beam="1">  1       21 0.10282538E-02 0.21297454E+02</pdfrwt>
<pdfrwt beam="2">  1       21 0.10491310E-01 0.21297454E+02</pdfrwt>
<totfact> 0.17268033E+08</totfact>
</mgrwt>
</event>
<event>
 4    1  0.4556894E+006  0.2297015E+02  0.7546771E-02  0.1691995E+00
         21   -1    0    0  504  501  0.00000000000E+00  0.00000000000E+00  0.18642471365E+02  0.18642471365E+02  0.00000000000E+00 0. -1.
         21   -1    0    0  503  502 -0.00000000000E+00 -0.00000000000E+00 -0.28975362997E+02  0.28975362997E+02  0.00000000000E+00 0. -1.
         21    1    1    2  503  501  0.21629195325E+02  0.77334001638E+01 -0.87947646384E+01  0.24596248770E+02  0.00000000000E+00 0. -1.
         21    1    1    2  504  502 -0.21629195325E+02 -0.77334001638E+01 -0.15381269943E+01  0.23021585592E+02  0.00000000000E+00 0. -1.
<mgrwt>
<rscale>  2 0.22970145E+02</rscale>
<asrwt>0</asrwt>
<pdfrwt beam="1">  1       21 0.28680725E-02 0.22970145E+02</pdfrwt>
<pdfrwt beam="2">  1       21 0.44577481E-02 0.22970145E+02</pdfrwt>
<totfact> 0.14744440E+08</totfact>
</mgrwt>
</event>
<event>
 4    1  0.4556894E+006  0.2951133E+02  0.7546771E-02  0.1603554E+00
         21   -1    0    0  503  501  0.00000000000E+00  0.00000000000E+00  0.41854515606E+02  0.41854515606E+02  0.00000000000E+00 0. -1.
         21   -1    0    0  504  502 -0.00000000000E+00 -0.00000000000E+00 -0.15613914316E+03  0.15613914316E+03  0.00000000000E+00 0.  1.
         21    1    1    2  503  502 -0.26226798936E+02 -0.13530467216E+02  0.35022232714E+02  0.45798202037E+02  0.00000000000E+00 0. -1.
         21    1    1    2  504  501  0.26226798936E+02  0.13530467216E+02 -0.14930686027E+03  0.15219545673E+03  0.00000000000E+00 0.  1.
<mgrwt>
<rscale>  2 0.29511329E+02</rscale>
<asrwt>0</asrwt>
<pdfrwt beam="1">  1       21 0.64391562E-02 0.29511329E+02</pdfrwt>
<pdfrwt beam="2">  1       21 0.24021407E-01 0.29511329E+02</pdfrwt>
<totfact> 0.25625103E+06</totfact>
</mgrwt>
</event>
<event>
 4    1  0.4556894E+006  0.2676367E+02  0.7546771E-02  0.1636890E+00
         21   -1    0    0  503  501  0.00000000000E+00  0.00000000000E+00  0.44415672393E+02  0.44415672393E+02  0.00000000000E+00 0. -1.
         21   -1    0    0  504  502 -0.00000000000E+00 -0.00000000000E+00 -0.20477523177E+02  0.20477523177E+02  0.00000000000E+00 0. -1.
         21    1    1    2  503  502 -0.19260151401E+02  0.18583340998E+02  0.26924488847E+02  0.37963431014E+02  0.00000000000E+00 0. -1.
         21    1    1    2  504  501  0.19260151401E+02 -0.18583340998E+02 -0.29863396319E+01  0.26929764556E+02  0.00000000000E+00 0. -1.
<mgrwt>
<rscale>  2 0.26763669E+02</rscale>
<asrwt>0</asrwt>
<pdfrwt beam="1">  1       21 0.68331803E-02 0.26763669E+02</pdfrwt>
<pdfrwt beam="2">  1       21 0.31503882E-02 0.26763669E+02</pdfrwt>
<totfact> 0.66900700E+07</totfact>
</mgrwt>
</event>
<event>
 4    1  0.4556894E+006  0.2174051E+02  0.7546771E-02  0.1712779E+00
         21   -1    0    0  504  501  0.00000000000E+00  0.00000000000E+00  0.56687066871E+02  0.56687066871E+02  0.00000000000E+00 0.  1.
         21   -1    0    0  503  502 -0.00000000000E+00 -0.00000000000E+00 -0.42340234954E+02  0.42340234954E+02  0.00000000000E+00 0.  1.
         21    1    1    2  503  501 -0.48442999572E+01  0.21193927180E+02  0.51544785749E+02  0.55942065830E+02  0.00000000000E+00 0.  1.
         21    1    1    2  504  502  0.48442999572E+01 -0.21193927180E+02 -0.37197953833E+02  0.43085235995E+02  0.00000000000E+00 0.  1.
<mgrwt>
<rscale>  2 0.21740510E+02</rscale>
<asrwt>0</asrwt>
<pdfrwt beam="1">  1       21 0.87210872E-02 0.21740510E+02</pdfrwt>
<pdfrwt beam="2">  1       21 0.65138823E-02 0.21740510E+02</pdfrwt>
<totfact> 0.13512413E+07</totfact>
</mgrwt>
</event>
<event>
 4    1  0.4556894E+006  0.2577475E+02  0.7546771E-02  0.1650117E+00
         21   -1    0    0  503  501  0.00000000000E+00  0.00000000000E+00  0.33165009281E+03  0.33165009281E+03  0.00000000000E+00 0. -1.
         21   -1    0    0  504  502 -0.00000000000E+00 -0.00000000000E+00 -0.94520351883E+01  0.94520351883E+01  0.00000000000E+00 0. -1.
         21    1    1    2  503  502  0.24006469358E+02 -0.93822754777E+01  0.31250327073E+03  0.31356439830E+03  0.00000000000E+00 0. -1.
         21    1    1    2  504  501 -0.24006469358E+02  0.93822754777E+01  0.96947868940E+01  0.27537729701E+02  0.00000000000E+00 0. -1.
<mgrwt>
<rscale>  2 0.25774749E+02</rscale>
<asrwt>0</asrwt>
<pdfrwt beam="1">  1       21 0.51023082E-01 0.25774749E+02</pdfrwt>
<pdfrwt beam="2">  1       21 0.14541595E-02 0.25774749E+02</pdfrwt>
<totfact> 0.63752030E+06</totfact>
</mgrwt>
</event>
<event>
 4    1  0.4556894E+006  0.2232605E+02  0.7546771E-02  0.1702673E+00
         21   -1    0    0  504  501  0.00000000000E+00  0.00000000000E+00  0.89267533884E+01  0.89267533884E+01  0.00000000000E+00 0. -1.
         21   -1    0    0  503  502 -0.00000000000E+00 -0.00000000000E+00 -0.57554505770E+02  0.57554505770E+02  0.00000000000E+00 0. -1.
         21    1    1    2  503  501  0.14809677315E+02 -0.16707056773E+02 -0.18573386843E+02  0.29041745592E+02  0.00000000000E+00 0. -1.
         21    1    1    2  504  502 -0.14809677315E+02  0.16707056773E+02 -0.30054365539E+02  0.37439513567E+02  0.00000000000E+00 0. -1.
<mgrwt>
<rscale>  2 0.22326045E+02</rscale>
<asrwt>0</asrwt>
<pdfrwt beam="1">  1       21 0.13733467E-02 0.22326045E+02</pdfrwt>
<pdfrwt beam="2">  1       21 0.88545392E-02 0.22326045E+02</pdfrwt>
<totfact> 0.14978754E+08</totfact>
</mgrwt>
</event>
<event>
 4    1  0.4556894E+006  0.2164113E+02  0.7546771E-02  0.1714533E+00
         21   -1    0    0  504  501  0.00000000000E+00  0.00000000000E+00  0.50137589666E+01  0.50137589666E+01  0.00000000000E+00 0. -1.
         21   -1    0    0  503  502 -0.00000000000E+00 -0.00000000000E+00 -0.11840137722E+03  0.11840137722E+03  0.00000000000E+00 0. -1.
         21    1    1    2  503  501 -0.11876165087E+02  0.18091307078E+02 -0.28344064835E+02  0.35661249281E+02  0.00000000000E+00 0. -1.
         21    1    1    2  504  502  0.11876165087E+02 -0.18091307078E+02 -0.85043553420E+02  0.87753886907E+02  0.00000000000E+00 0. -1.
<mgrwt>
<rscale>  2 0.21641134E+02</rscale>
<asrwt>0</asrwt>
<pdfrwt beam="1">  1       21 0.77134751E-03 0.21641134E+02</pdfrwt>
<pdfrwt beam="2">  1       21 0.18215597E-01 0.21641134E+02</pdfrwt>
<totfact> 0.10503827E+08</totfact>
</mgrwt>
</event>
<event>
 4    1  0.4556894E+006  0.2107309E+02  0.7546771E-02  0.1724794E+00
         21   -1    0    0  502  501  0.00000000000E+00  0.00000000000E+00  0.10178202248E+01  0.10178202248E+01  0.00000000000E+00 0.  1.
         21   -1    0    0  504  502 -0.00000000000E+00 -0.00000000000E+00 -0.69575201745E+03  0.69575201745E+03  0.00000000000E+00 0.  1.
         21    1    1    2  503  501 -0.21071384790E+02 -0.26806536858E+00 -0.13462153594E+03  0.13626090068E+03  0.00000000000E+00 0.  1.
         21    1    1    2  504  503  0.21071384790E+02  0.26806536858E+00 -0.56011266129E+03  0.56050893700E+03  0.00000000000E+00 0.  1.
<mgrwt>
<rscale>  2 0.21073090E+02</rscale>
<asrwt>0</asrwt>
<pdfrwt beam="1">  1       21 0.15658742E-03 0.21073090E+02</pdfrwt>
<pdfrwt beam="2">  1       21 0.10703898E+00 0.21073090E+02</pdfrwt>
<totfact> 0.35376139E+07</totfact>
</mgrwt>
</event>
<event>
 4    1  0.4556894E+006  0.2396862E+02  0.7546771E-02  0.1676274E+00
         21   -1    0    0  503  501  0.00000000000E+00  0.00000000000E+00  0.46734802782E+02  0.46734802782E+02  0.00000000000E+00 0. -1.
         21   -1    0    0  501  502 -0.00000000000E+00 -0.00000000000E+00 -0.21121557767E+02  0.21121557767E+02  0.00000000000E+00 0. -1.
         21    1    1    2  503  504 -0.15818861277E+02  0.18007176308E+02  0.34742296373E+02  0.42208078942E+02  0.00000000000E+00 0. -1.
         21    1    1    2  504  502  0.15818861277E+02 -0.18007176308E+02 -0.91290513576E+01  0.25648281607E+02  0.00000000000E+00 0. -1.
<mgrwt>
<rscale>  2 0.23968621E+02</rscale>
<asrwt>0</asrwt>
<pdfrwt beam="1">  1       21 0.71899696E-02 0.23968621E+02</pdfrwt>
<pdfrwt beam="2">  1       21 0.32494704E-02 0.23968621E+02</pdfrwt>
<totfact> 0.57076301E+07</totfact>
</mgrwt>
</event>
<event>
 4    1  0.4556894E+006  0.3106104E+02  0.7546771E-02  0.1586648E+00
         21   -1    0    0  504  501  0.00000000000E+00  0.00000000000E+00  0.85022699677E+01  0.85022699677E+01  0.00000000000E+00 0.  1.
         21   -1    0    0  503  502 -0.00000000000E+00 -0.00000000000E+00 -0.11663324015E+03  0.11663324015E+03  0.00000000000E+00 0.  1.
         21    1    1    2  503  501 -0.18544513882E+02  0.24917654335E+02 -0.64362593323E+02  0.71465599500E+02  0.00000000000E+00 0.  1.
         21    1    1    2  504  502  0.18544513882E+02 -0.24917654335E+02 -0.43768376857E+02  0.53669910615E+02  0.00000000000E+00 0.  1.
<mgrwt>
<rscale>  2 0.31061045E+02</rscale>
<asrwt>0</asrwt>
<pdfrwt beam="1">  1       21 0.13080416E-02 0.31061045E+02</pdfrwt>
<pdfrwt beam="2">  1       21 0.17943575E-01 0.31061045E+02</pdfrwt>
<totfact> 0.53186282E+07</totfact>
</mgrwt>
</event>
<event>
 4    1  0.4556894E+006  0.3457398E+02  0.7546771E-02  0.1552417E+00
         21   -1    0    0  503  501  0.00000000000E+00  0.00000000000E+00  0.15190022781E+01  0.15190022781E+01  0.00000000000E+00 0. -1.
         21   -1    0    0  501  502 -0.00000000000E+00 -0.00000000000E+00 -0.11539975848E+04  0.11539975848E+04  0.00000000000E+00 0.  1.
         21    1    1    2  503  504  0.34191236967E+02  0.51302774898E+01 -0.25039351647E+03  0.25276920999E+03  0.00000000000E+00 0. -1.
         21    1    1    2  504  502 -0.34191236967E+02 -0.51302774898E+01 -0.90208506601E+03  0.90274737704E+03  0.00000000000E+00 0.  1.
<mgrwt>
<rscale>  2 0.34573985E+02</rscale>
<asrwt>0</asrwt>
<pdfrwt beam="1">  1       21 0.23369303E-03 0.34573985E+02</pdfrwt>
<pdfrwt beam="2">  1       21 0.17753780E+00 0.34573985E+02</pdfrwt>
<totfact> 0.64580879E+06</totfact>
</mgrwt>
</event>
<event>
 4    1  0.4556894E+006  0.2407862E+02  0.7546771E-02  0.1674600E+00
         21   -1    0    0  503  501  0.00000000000E+00  0.00000000000E+00  0.63310833424E+02  0.63310833424E+02  0.00000000000E+00 0. -1.
         21   -1    0    0  501  502 -0.00000000000E+00 -0.00000000000E+00 -0.17872483771E+02  0.17872483771E+02  0.00000000000E+00 0. -1.
         21    1    1    2  503  504 -0.24078496522E+02  0.77936575747E-01  0.51063965865E+02  0.56456254558E+02  0.00000000000E+00 0. -1.
         21    1    1    2  504  502  0.24078496522E+02 -0.77936575747E-01 -0.56256162120E+01  0.24727062637E+02  0.00000000000E+00 0. -1.
<mgrwt>
<rscale>  2 0.24078623E+02</rscale>
<asrwt>0</asrwt>
<pdfrwt beam="1">  1       21 0.97401281E-02 0.24078623E+02</pdfrwt>
<pdfrwt beam="2">  1       21 0.27496129E-02 0.24078623E+02</pdfrwt>
<totfact> 0.45082689E+07</totfact>
</mgrwt>
</event>
<event>
 4    1  0.4556894E+006  0.2570319E+02  0.7546771E-02  0.1651102E+00
         21   -1    0    0  503  501  0.00000000000E+00  0.00000000000E+00  0.46839961048E+02  0.46839961048E+02  0.00000000000E+00 0. -1.
         21   -1    0    0  501  502 -0.00000000000E+00 -0.00000000000E+00 -0.48324646902E+02  0.48324646902E+02  0.00000000000E+00 0.  1.
         21    1    1    2  503  504  0.24205526029E+02  0.86455912991E+01  0.39298399710E+02  0.46957618754E+02  0.00000000000E+00 0. -1.
         21    1    1    2  504  502 -0.24205526029E+02 -0.86455912991E+01 -0.40783085564E+02  0.48206989196E+02  0.00000000000E+00 0.  1.
<mgrwt>
<rscale>  2 0.25703185E+02</rscale>
<asrwt>0</asrwt>
<pdfrwt beam="1">  1       21 0.72061479E-02 0.25703185E+02</pdfrwt>
<pdfrwt beam="2">  1       21 0.74345610E-02 0.25703185E+02</pdfrwt>
<totfact> 0.15411961E+07</totfact>
</mgrwt>
</event>
<event>
 4    1  0.4556894E+006  0.3627204E+02  0.7546771E-02  0.1537586E+00
         21   -1    0    0  503  501  0.00000000000E+00  0.00000000000E+00  0.76714198689E+03  0.76714198689E+03  0.00000000000E+00 0. -1.
         21   -1    0    0  504  502 -0.00000000000E+00 -0.00000000000E+00 -0.14434395714E+02  0.14434395714E+02  0.00000000000E+00 0. -1.
         21    1    1    2  503  502 -0.35902983203E+02  0.51610903091E+01  0.95151439247E+01  0.37499320260E+02  0.00000000000E+00 0. -1.
         21    1    1    2  504  501  0.35902983203E+02 -0.51610903091E+01  0.74319244725E+03  0.74407706234E+03  0.00000000000E+00 0. -1.
<mgrwt>
<rscale>  2 0.36272042E+02</rscale>
<asrwt>0</asrwt>
<pdfrwt beam="1">  1       21 0.11802181E+00 0.36272042E+02</pdfrwt>
<pdfrwt beam="2">  1       21 0.22206769E-02 0.36272042E+02</pdfrwt>
<totfact> 0.57793352E+05</totfact>
</mgrwt>
</event>
<event>
 4    1  0.4556894E+006  0.2116726E+02  0.7546771E-02  0.1723065E+00
         21   -1    0    0  503  501  0.00000000000E+00  0.00000000000E+00  0.96084381508E+01  0.96084381508E+01  0.00000000000E+00 0. -1.
         21   -1    0    0  504  502 -0.00000000000E+00 -0.00000000000E+00 -0.70271281947E+02  0.70271281947E+02  0.00000000000E+00 0. -1.
         21    1    1    2  503  502  0.17343583152E+02  0.12134793250E+02 -0.53496939606E+02  0.57532387670E+02  0.00000000000E+00 0. -1.
         21    1    1    2  504  501 -0.17343583152E+02 -0.12134793250E+02 -0.71659041907E+01  0.22347332428E+02  0.00000000000E+00 0. -1.
<mgrwt>
<rscale>  2 0.21167264E+02</rscale>
<asrwt>0</asrwt>
<pdfrwt beam="1">  1       21 0.14782212E-02 0.21167264E+02</pdfrwt>
<pdfrwt beam="2">  1       21 0.10810967E-01 0.21167264E+02</pdfrwt>
<totfact> 0.94920369E+07</totfact>
</mgrwt>
</event>
<event>
 4    1  0.4556894E+006  0.2987901E+02  0.7546771E-02  0.1599430E+00
         21   -1    0    0  503  501  0.00000000000E+00  0.00000000000E+00  0.10436283390E+02  0.10436283390E+02  0.00000000000E+00 0.  1.
         21   -1    0    0  504  502 -0.00000000000E+00 -0.00000000000E+00 -0.45112267792E+03  0.45112267792E+03  0.00000000000E+00 0.  1.
         21    1    1    2  503  502 -0.29704378091E+02  0.32257417679E+01 -0.12593390343E+02  0.32424511840E+02  0.00000000000E+00 0.  1.
         21    1    1    2  504  501  0.29704378091E+02 -0.32257417679E+01 -0.42809300419E+03  0.42913444947E+03  0.00000000000E+00 0.  1.
<mgrwt>
<rscale>  2 0.29879014E+02</rscale>
<asrwt>0</asrwt>
<pdfrwt beam="1">  1       21 0.16055821E-02 0.29879014E+02</pdfrwt>
<pdfrwt beam="2">  1       21 0.69403487E-01 0.29879014E+02</pdfrwt>
<totfact> 0.30053874E+06</totfact>
</mgrwt>
</event>
<event>
 4    1  0.4556894E+006  0.2111279E+02  0.7546771E-02  0.1724063E+00
         21   -1    0    0  503  501  0.00000000000E+00  0.00000000000E+00  0.35855348055E+01  0.35855348055E+01  0.00000000000E+00 0.  1.
         21   -1    0    0  501  502 -0.00000000000E+00 -0.00000000000E+00 -0.12567937160E+03  0.12567937160E+03  0.00000000000E+00 0.  1.
         21    1    1    2  503  504  0.20395679363E+02  0.54558538218E+01 -0.54322596712E+02  0.58281168410E+02  0.00000000000E+00 0.  1.
         21    1    1    2  504  502 -0.20395679363E+02 -0.54558538218E+01 -0.67771240081E+02  0.70983737995E+02  0.00000000000E+00 0.  1.
<mgrwt>
<rscale>  2 0.21112794E+02</rscale>
<asrwt>0</asrwt>
<pdfrwt beam="1">  1       21 0.55162076E-03 0.21112794E+02</pdfrwt>
<pdfrwt beam="2">  1       21 0.19335287E-01 0.21112794E+02</pdfrwt>
<totfact> 0.15455212E+08</totfact>
</mgrwt>
</event>
<event>
 4    1  0.4556894E+006  0.2874429E+02  0.7546771E-02  0.1612398E+00
         21   -1    0    0  503  501  0.00000000000E+00  0.00000000000E+00  0.10657794500E+03  0.10657794500E+03  0.00000000000E+00 0. -1.
         21   -1    0    0  504  502 -0.00000000000E+00 -0.00000000000E+00 -0.10406078864E+02  0.10406078864E+02  0.00000000000E+00 0. -1.
         21    1    1    2  503  502  0.77580004557E+01 -0.27677570202E+02  0.77623688574E+02  0.82774824017E+02  0.00000000000E+00 0. -1.
         21    1    1    2  504  501 -0.77580004557E+01  0.27677570202E+02  0.18548177564E+02  0.34209199849E+02  0.00000000000E+00 0. -1.
<mgrwt>
<rscale>  2 0.28744294E+02</rscale>
<asrwt>0</asrwt>
<pdfrwt beam="1">  1       21 0.16396606E-01 0.28744294E+02</pdfrwt>
<pdfrwt beam="2">  1       21 0.16009353E-02 0.28744294E+02</pdfrwt>
<totfact> 0.44895910E+07</totfact>
</mgrwt>
</event>
<event>
 4    1  0.4556894E+006  0.2339325E+02  0.7546771E-02  0.1685214E+00
         21   -1    0    0  503  501  0.00000000000E+00  0.00000000000E+00  0.85627661646E+03  0.85627661646E+03  0.00000000000E+00 0.  1.
         21   -1    0    0  504  502 -0.00000000000E+00 -0.00000000000E+00 -0.13427751092E+01  0.13427751092E+01  0.00000000000E+00 0.  1.
         21    1    1    2  503  502  0.58652280146E+01  0.22646038314E+02  0.73788708715E+03  0.73825781224E+03  0.00000000000E+00 0.  1.
         21    1    1    2  504  501 -0.58652280146E+01 -0.22646038314E+02  0.11704675420E+03  0.11936157933E+03  0.00000000000E+00 0.  1.
<mgrwt>
<rscale>  2 0.23393246E+02</rscale>
<asrwt>0</asrwt>
<pdfrwt beam="1">  1       21 0.13173443E+00 0.23393246E+02</pdfrwt>
<pdfrwt beam="2">  1       21 0.20658147E-03 0.23393246E+02</pdfrwt>
<totfact> 0.15164018E+07</totfact>
</mgrwt>
</event>
<event>
 4    1  0.4556894E+006  0.2109160E+02  0.7546771E-02  0.1724453E+00
         21   -1    0    0  504  501  0.00000000000E+00  0.00000000000E+00  0.15116547544E+03  0.15116547544E+03  0.00000000000E+00 0.  1.
         21   -1    0    0  503  502 -0.00000000000E+00 -0.00000000000E+00 -0.33437443277E+01  0.33437443277E+01  0.00000000000E+00 0.  1.
         21    1    1    2  503  501 -0.19453987710E+02 -0.81485044577E+01  0.47160581016E+02  0.51662134726E+02  0.00000000000E+00 0.  1.
         21    1    1    2  504  502  0.19453987710E+02  0.81485044577E+01  0.10066115010E+03  0.10284708504E+03  0.00000000000E+00 0.  1.
<mgrwt>
<rscale>  2 0.21091604E+02</rscale>
<asrwt>0</asrwt>
<pdfrwt beam="1">  1       21 0.23256222E-01 0.21091604E+02</pdfrwt>
<pdfrwt beam="2">  1       21 0.51442232E-03 0.21091604E+02</pdfrwt>
<totfact> 0.12400481E+08</totfact>
</mgrwt>
</event>
<event>
 4    1  0.4556894E+006  0.2866739E+02  0.7546771E-02  0.1613304E+00
         21   -1    0    0  503  501  0.00000000000E+00  0.00000000000E+00  0.78113330853E+01  0.78113330853E+01  0.00000000000E+00 0.  1.
         21   -1    0    0  501  502 -0.00000000000E+00 -0.00000000000E+00 -0.35779471039E+03  0.35779471039E+03  0.00000000000E+00 0.  1.
         21    1    1    2  503  504 -0.63805883104E+00  0.28660287882E+02 -0.21398779311E+02  0.35773271817E+02  0.00000000000E+00 0.  1.
         21    1    1    2  504  502  0.63805883104E+00 -0.28660287882E+02 -0.32858459799E+03  0.32983277165E+03  0.00000000000E+00 0.  1.
<mgrwt>
<rscale>  2 0.28667389E+02</rscale>
<asrwt>0</asrwt>
<pdfrwt beam="1">  1       21 0.12017435E-02 0.28667389E+02</pdfrwt>
<pdfrwt beam="2">  1       21 0.55045340E-01 0.28667389E+02</pdfrwt>
<totfact> 0.74534484E+06</totfact>
</mgrwt>
</event>
<event>
 4    1  0.4556894E+006  0.2460049E+02  0.7546771E-02  0.1666807E+00
         21   -1    0    0  502  501  0.00000000000E+00  0.00000000000E+00  0.87607884336E+03  0.87607884336E+03  0.00000000000E+00 0.  1.
         21   -1    0    0  503  502 -0.00000000000E+00 -0.00000000000E+00 -0.32613083692E+02  0.32613083692E+02  0.00000000000E+00 0.  1.
         21    1    1    2  503  504 -0.52073168302E+01  0.24043041790E+02 -0.27775513524E+02  0.37103411685E+02  0.00000000000E+00 0.  1.
         21    1    1    2  504  501  0.52073168302E+01 -0.24043041790E+02  0.87124127320E+03  0.87158851537E+03  0.00000000000E+00 0.  1.
<mgrwt>
<rscale>  2 0.24600488E+02</rscale>
<asrwt>0</asrwt>
<pdfrwt beam="1">  1       21 0.13478134E+00 0.24600488E+02</pdfrwt>
<pdfrwt beam="2">  1       21 0.50173981E-02 0.24600488E+02</pdfrwt>
<totfact> 0.11683823E+05</totfact>
</mgrwt>
</event>
<event>
 4    1  0.4556894E+006  0.2924086E+02  0.7546771E-02  0.1606635E+00
         21   -1    0    0  503  501  0.00000000000E+00  0.00000000000E+00  0.70258978012E+00  0.70258978012E+00  0.00000000000E+00 0.  1.
         21   -1    0    0  504  502 -0.00000000000E+00 -0.00000000000E+00 -0.14288964944E+04  0.14288964944E+04  0.00000000000E+00 0.  1.
         21    1    1    2  503  502  0.27115945312E+02  0.10943186539E+02 -0.98938077003E+03  0.98981277822E+03  0.00000000000E+00 0.  1.
         21    1    1    2  504  501 -0.27115945312E+02 -0.10943186539E+02 -0.43881313461E+03  0.43978630598E+03  0.00000000000E+00 0.  1.
<mgrwt>
<rscale>  2 0.29240859E+02</rscale>
<asrwt>0</asrwt>
<pdfrwt beam="1">  1       21 0.10809162E-03 0.29240859E+02</pdfrwt>
<pdfrwt beam="2">  1       21 0.21982843E+00 0.29240859E+02</pdfrwt>
<totfact> 0.11107781E+07</totfact>
</mgrwt>
</event>
<event>
 4    1  0.4556894E+006  0.2184753E+02  0.7546771E-02  0.1710902E+00
         21   -1    0    0  502  501  0.00000000000E+00  0.00000000000E+00  0.12603082366E+02  0.12603082366E+02  0.00000000000E+00 0.  1.
         21   -1    0    0  504  502 -0.00000000000E+00 -0.00000000000E+00 -0.24225443486E+03  0.24225443486E+03  0.00000000000E+00 0.  1.
         21    1    1    2  503  501  0.21791597445E+02 -0.15623746840E+01  0.22192138588E+01  0.21959955465E+02  0.00000000000E+00 0.  1.
         21    1    1    2  504  503 -0.21791597445E+02  0.15623746840E+01 -0.23187056636E+03  0.23289756177E+03  0.00000000000E+00 0.  1.
<mgrwt>
<rscale>  2 0.21847534E+02</rscale>
<asrwt>0</asrwt>
<pdfrwt beam="1">  1       21 0.19389358E-02 0.21847534E+02</pdfrwt>
<pdfrwt beam="2">  1       21 0.37269913E-01 0.21847534E+02</pdfrwt>
<totfact> 0.72841582E+06</totfact>
</mgrwt>
</event>
<event>
 4    1  0.4556894E+006  0.3938474E+02  0.7546771E-02  0.1512789E+00
         21   -1    0    0  502  501  0.00000000000E+00  0.00000000000E+00  0.22523512973E+02  0.22523512973E+02  0.00000000000E+00 0. -1.
         21   -1    0    0  504  502 -0.00000000000E+00 -0.00000000000E+00 -0.13017621300E+03  0.13017621300E+03  0.00000000000E+00 0.  1.
         21    1    1    2  503  501  0.29616667668E+02 -0.25961722221E+02 -0.14300764523E+01  0.39410698333E+02  0.00000000000E+00 0. -1.
         21    1    1    2  504  503 -0.29616667668E+02  0.25961722221E+02 -0.10622262358E+03  0.11328902764E+03  0.00000000000E+00 0.  1.
<mgrwt>
<rscale>  2 0.39384744E+02</rscale>
<asrwt>0</asrwt>
<pdfrwt beam="1">  1       21 0.34651559E-02 0.39384744E+02</pdfrwt>
<pdfrwt beam="2">  1       21 0.20027109E-01 0.39384744E+02</pdfrwt>
<totfact> 0.99760117E+06</totfact>
</mgrwt>
</event>
<event>
 4    1  0.4556894E+006  0.2239782E+02  0.7546771E-02  0.1701461E+00
         21   -1    0    0  502  501  0.00000000000E+00  0.00000000000E+00  0.75443260494E+01  0.75443260494E+01  0.00000000000E+00 0.  1.
         21   -1    0    0  503  502 -0.00000000000E+00 -0.00000000000E+00 -0.34313990560E+03  0.34313990560E+03  0.00000000000E+00 0.  1.
         21    1    1    2  503  504  0.18224363853E+02 -0.13020559149E+02 -0.32523656915E+03  0.32600688384E+03  0.00000000000E+00 0.  1.
         21    1    1    2  504  501 -0.18224363853E+02  0.13020559149E+02 -0.10359010399E+02  0.24677347808E+02  0.00000000000E+00 0.  1.
<mgrwt>
<rscale>  2 0.22397821E+02</rscale>
<asrwt>0</asrwt>
<pdfrwt beam="1">  1       21 0.11606657E-02 0.22397821E+02</pdfrwt>
<pdfrwt beam="2">  1       21 0.52790747E-01 0.22397821E+02</pdfrwt>
<totfact> 0.82042006E+06</totfact>
</mgrwt>
</event>
<event>
 4    1  0.4556894E+006  0.2707809E+02  0.7546771E-02  0.1632831E+00
         21   -1    0    0  503  501  0.00000000000E+00  0.00000000000E+00  0.10042565347E+03  0.10042565347E+03  0.00000000000E+00 0.  1.
         21   -1    0    0  504  502 -0.00000000000E+00 -0.00000000000E+00 -0.90561353572E+01  0.90561353572E+01  0.00000000000E+00 0.  1.
         21    1    1    2  503  502  0.17511944245E+02 -0.20653199970E+02  0.21586977597E+02  0.34629762662E+02  0.00000000000E+00 0.  1.
         21    1    1    2  504  501 -0.17511944245E+02  0.20653199970E+02  0.69782540520E+02  0.74852026169E+02  0.00000000000E+00 0.  1.
<mgrwt>
<rscale>  2 0.27078088E+02</rscale>
<asrwt>0</asrwt>
<pdfrwt beam="1">  1       21 0.15450100E-01 0.27078088E+02</pdfrwt>
<pdfrwt beam="2">  1       21 0.13932517E-02 0.27078088E+02</pdfrwt>
<totfact> 0.60685870E+07</totfact>
</mgrwt>
</event>
<event>
 4    1  0.4556894E+006  0.2843568E+02  0.7546771E-02  0.1616053E+00
         21   -1    0    0  504  501  0.00000000000E+00  0.00000000000E+00  0.41889720641E+02  0.41889720641E+02  0.00000000000E+00 0.  1.
         21   -1    0    0  503  502 -0.00000000000E+00 -0.00000000000E+00 -0.21476542417E+02  0.21476542417E+02  0.00000000000E+00 0.  1.
         21    1    1    2  503  501  0.19942762148E+02  0.20270027058E+02  0.12677140422E+00  0.28435960157E+02  0.00000000000E+00 0.  1.
         21    1    1    2  504  502 -0.19942762148E+02 -0.20270027058E+02  0.20286406820E+02  0.34930302901E+02  0.00000000000E+00 0.  1.
<mgrwt>
<rscale>  2 0.28435678E+02</rscale>
<asrwt>0</asrwt>
<pdfrwt beam="1">  1       21 0.64445724E-02 0.28435678E+02</pdfrwt>
<pdfrwt beam="2">  1       21 0.33040835E-02 0.28435678E+02</pdfrwt>
<totfact> 0.69304137E+07</totfact>
</mgrwt>
</event>
<event>
 4    1  0.4556894E+006  0.3338939E+02  0.7546771E-02  0.1563387E+00
         21   -1    0    0  504  501  0.00000000000E+00  0.00000000000E+00  0.13772333353E+02  0.13772333353E+02  0.00000000000E+00 0. -1.
         21   -1    0    0  503  502 -0.00000000000E+00 -0.00000000000E+00 -0.11739508759E+03  0.11739508759E+03  0.00000000000E+00 0. -1.
         21    1    1    2  503  501 -0.31108832004E+02  0.12128134871E+02 -0.88353928857E+02  0.94452463327E+02  0.00000000000E+00 0. -1.
         21    1    1    2  504  502  0.31108832004E+02 -0.12128134871E+02 -0.15268825376E+02  0.36714957612E+02  0.00000000000E+00 0. -1.
<mgrwt>
<rscale>  2 0.33389386E+02</rscale>
<asrwt>0</asrwt>
<pdfrwt beam="1">  1       21 0.21188206E-02 0.33389386E+02</pdfrwt>
<pdfrwt beam="2">  1       21 0.18060782E-01 0.33389386E+02</pdfrwt>
<totfact> 0.25339380E+07</totfact>
</mgrwt>
</event>
<event>
 4    1  0.4556894E+006  0.3495986E+02  0.7546771E-02  0.1548957E+00
         21   -1    0    0  504  501  0.00000000000E+00  0.00000000000E+00  0.16914670235E+03  0.16914670235E+03  0.00000000000E+00 0.  1.
         21   -1    0    0  501  502 -0.00000000000E+00 -0.00000000000E+00 -0.13457765845E+02  0.13457765845E+02  0.00000000000E+00 0. -1.
         21    1    1    2  503  502  0.23237773654E+02  0.26118912127E+02  0.15712754395E+02  0.38328610016E+02  0.00000000000E+00 0. -1.
         21    1    1    2  504  503 -0.23237773654E+02 -0.26118912127E+02  0.13997618211E+03  0.14427585818E+03  0.00000000000E+00 0.  1.
<mgrwt>
<rscale>  2 0.34959858E+02</rscale>
<asrwt>0</asrwt>
<pdfrwt beam="1">  1       21 0.26022568E-01 0.34959858E+02</pdfrwt>
<pdfrwt beam="2">  1       21 0.20704256E-02 0.34959858E+02</pdfrwt>
<totfact> 0.13785791E+07</totfact>
</mgrwt>
</event>
<event>
 4    1  0.4556894E+006  0.2684903E+02  0.7546771E-02  0.1635781E+00
         21   -1    0    0  504  501  0.00000000000E+00  0.00000000000E+00  0.23912705586E+03  0.23912705586E+03  0.00000000000E+00 0.  1.
         21   -1    0    0  503  502 -0.00000000000E+00 -0.00000000000E+00 -0.26126082240E+02  0.26126082240E+02  0.00000000000E+00 0.  1.
         21    1    1    2  503  501 -0.26762795398E+02  0.21501189103E+01  0.23124095681E+03  0.23279443794E+03  0.00000000000E+00 0.  1.
         21    1    1    2  504  502  0.26762795398E+02 -0.21501189103E+01 -0.18239983195E+02  0.32458700155E+02  0.00000000000E+00 0.  1.
<mgrwt>
<rscale>  2 0.26849027E+02</rscale>
<asrwt>0</asrwt>
<pdfrwt beam="1">  1       21 0.36788776E-01 0.26849027E+02</pdfrwt>
<pdfrwt beam="2">  1       21 0.40193974E-02 0.26849027E+02</pdfrwt>
<totfact> 0.24728806E+06</totfact>
</mgrwt>
</event>
<event>
 4    1  0.4556894E+006  0.2764751E+02  0.7546771E-02  0.1625650E+00
         21   -1    0    0  502  501  0.00000000000E+00  0.00000000000E+00  0.13030148644E+03  0.13030148644E+03  0.00000000000E+00 0.  1.
         21   -1    0    0  503  502 -0.00000000000E+00 -0.00000000000E+00 -0.29189199629E+02  0.29189199629E+02  0.00000000000E+00 0.  1.
         21    1    1    2  503  504  0.11863493947E+02  0.24972834637E+02 -0.20726812155E+02  0.34554098173E+02  0.00000000000E+00 0.  1.
         21    1    1    2  504  501 -0.11863493947E+02 -0.24972834637E+02  0.12183909897E+03  0.12493658790E+03  0.00000000000E+00 0.  1.
<mgrwt>
<rscale>  2 0.27647513E+02</rscale>
<asrwt>0</asrwt>
<pdfrwt beam="1">  1       21 0.20046382E-01 0.27647513E+02</pdfrwt>
<pdfrwt beam="2">  1       21 0.44906462E-02 0.27647513E+02</pdfrwt>
<totfact> 0.62596129E+06</totfact>
</mgrwt>
</event>
<event>
 4    1  0.4556894E+006  0.2219329E+02  0.7546771E-02  0.1704930E+00
         21   -1    0    0  503  501  0.00000000000E+00  0.00000000000E+00  0.16846813310E+02  0.16846813310E+02  0.00000000000E+00 0.  1.
         21   -1    0    0  504  502 -0.00000000000E+00 -0.00000000000E+00 -0.92451720292E+02  0.92451720292E+02  0.00000000000E+00 0. -1.
         21    1    1    2  503  502  0.18774462380E+02 -0.11834774395E+02  0.73870504806E+01  0.23390400541E+02  0.00000000000E+00 0.  1.
         21    1    1    2  504  501 -0.18774462380E+02  0.11834774395E+02 -0.82991957462E+02  0.85908133061E+02  0.00000000000E+00 0. -1.
<mgrwt>
<rscale>  2 0.22193295E+02</rscale>
<asrwt>0</asrwt>
<pdfrwt beam="1">  1       21 0.25918175E-02 0.22193295E+02</pdfrwt>
<pdfrwt beam="2">  1       21 0.14223341E-01 0.22193295E+02</pdfrwt>
<totfact> 0.25709527E+07</totfact>
</mgrwt>
</event>
<event>
 4    1  0.4556894E+006  0.3013649E+02  0.7546771E-02  0.1596585E+00
         21   -1    0    0  504  501  0.00000000000E+00  0.00000000000E+00  0.95207803741E+01  0.95207803741E+01  0.00000000000E+00 0. -1.
         21   -1    0    0  503  502 -0.00000000000E+00 -0.00000000000E+00 -0.28527895412E+03  0.28527895412E+03  0.00000000000E+00 0.  1.
         21    1    1    2  503  501  0.33484709400E+00  0.30134627634E+02 -0.17622300317E+02  0.34910648428E+02  0.00000000000E+00 0. -1.
         21    1    1    2  504  502 -0.33484709400E+00 -0.30134627634E+02 -0.25813587343E+03  0.25988908607E+03  0.00000000000E+00 0.  1.
<mgrwt>
<rscale>  2 0.30136488E+02</rscale>
<asrwt>0</asrwt>
<pdfrwt beam="1">  1       21 0.14647354E-02 0.30136488E+02</pdfrwt>
<pdfrwt beam="2">  1       21 0.43889071E-01 0.30136488E+02</pdfrwt>
<totfact> 0.86493717E+06</totfact>
</mgrwt>
</event>
<event>
 4    1  0.4556894E+006  0.3491673E+02  0.7546771E-02  0.1549341E+00
         21   -1    0    0  503  501  0.00000000000E+00  0.00000000000E+00  0.12869086532E+03  0.12869086532E+03  0.00000000000E+00 0. -1.
         21   -1    0    0  501  502 -0.00000000000E+00 -0.00000000000E+00 -0.16291010638E+02  0.16291010638E+02  0.00000000000E+00 0. -1.
         21    1    1    2  503  504  0.34724361626E+02  0.36601877868E+01  0.10309382625E+03  0.10884629197E+03  0.00000000000E+00 0. -1.
         21    1    1    2  504  502 -0.34724361626E+02 -0.36601877868E+01  0.93060284328E+01  0.36135583988E+02  0.00000000000E+00 0. -1.
<mgrwt>
<rscale>  2 0.34916733E+02</rscale>
<asrwt>0</asrwt>
<pdfrwt beam="1">  1       21 0.19798594E-01 0.34916733E+02</pdfrwt>
<pdfrwt beam="2">  1       21 0.25063094E-02 0.34916733E+02</pdfrwt>
<totfact> 0.16702843E+07</totfact>
</mgrwt>
</event>
<event>
 4    1  0.4556894E+006  0.2240763E+02  0.7546771E-02  0.1701296E+00
         21   -1    0    0  502  501  0.00000000000E+00  0.00000000000E+00  0.18391942555E+03  0.18391942555E+03  0.00000000000E+00 0. -1.
         21   -1    0    0  504  502 -0.00000000000E+00 -0.00000000000E+00 -0.65986821351E+01  0.65986821351E+01  0.00000000000E+00 0. -1.
         21    1    1    2  503  501  0.16450287906E+02  0.15214786096E+02  0.16159918243E+03  0.16314532617E+03  0.00000000000E+00 0. -1.
         21    1    1    2  504  503 -0.16450287906E+02 -0.15214786096E+02  0.15721560982E+02  0.27372781515E+02  0.00000000000E+00 0. -1.
<mgrwt>
<rscale>  2 0.22407626E+02</rscale>
<asrwt>0</asrwt>
<pdfrwt beam="1">  1       21 0.28295292E-01 0.22407626E+02</pdfrwt>
<pdfrwt beam="2">  1       21 0.10151820E-02 0.22407626E+02</pdfrwt>
<totfact> 0.32335396E+07</totfact>
</mgrwt>
</event>
<event>
 4    1  0.4556894E+006  0.2012016E+02  0.7546771E-02  0.1742949E+00
         21   -1    0    0  504  501  0.00000000000E+00  0.00000000000E+00  0.64067078415E+03  0.64067078415E+03  0.00000000000E+00 0.  1.
         21   -1    0    0  503  502 -0.00000000000E+00 -0.00000000000E+00 -0.88132924854E+00  0.88132924854E+00  0.00000000000E+00 0.  1.
         21    1    1    2  503  501 -0.19858953906E+02 -0.32315241391E+01  0.49055500735E+03  0.49096744906E+03  0.00000000000E+00 0.  1.
         21    1    1    2  504  502  0.19858953906E+02  0.32315241391E+01  0.14923444755E+03  0.15058466434E+03  0.00000000000E+00 0.  1.
<mgrwt>
<rscale>  2 0.20120159E+02</rscale>
<asrwt>0</asrwt>
<pdfrwt beam="1">  1       21 0.98564364E-01 0.20120159E+02</pdfrwt>
<pdfrwt beam="2">  1       21 0.13558963E-03 0.20120159E+02</pdfrwt>
<totfact> 0.51516865E+07</totfact>
</mgrwt>
</event>
<event>
 4    1  0.4556894E+006  0.3116075E+02  0.7546771E-02  0.1585601E+00
         21   -1    0    0  503  501  0.00000000000E+00  0.00000000000E+00  0.58259752483E+03  0.58259752483E+03  0.00000000000E+00 0.  1.
         21   -1    0    0  504  502 -0.00000000000E+00 -0.00000000000E+00 -0.23439807096E+02  0.23439807096E+02  0.00000000000E+00 0. -1.
         21    1    1    2  503  502  0.70983166420E+01  0.30341495683E+02  0.57162600087E+03  0.57247469580E+03  0.00000000000E+00 0.  1.
         21    1    1    2  504  501 -0.70983166420E+01 -0.30341495683E+02 -0.12468283137E+02  0.33562636127E+02  0.00000000000E+00 0. -1.
<mgrwt>
<rscale>  2 0.31160752E+02</rscale>
<asrwt>0</asrwt>
<pdfrwt beam="1">  1       21 0.89630377E-01 0.31160752E+02</pdfrwt>
<pdfrwt beam="2">  1       21 0.36061246E-02 0.31160752E+02</pdfrwt>
<totfact> 0.49587199E+05</totfact>
</mgrwt>
</event>
<event>
 4    1  0.4556894E+006  0.2542440E+02  0.7546771E-02  0.1654980E+00
         21   -1    0    0  503  501  0.00000000000E+00  0.00000000000E+00  0.18219670624E+02  0.18219670624E+02  0.00000000000E+00 0.  1.
         21   -1    0    0  504  502 -0.00000000000E+00 -0.00000000000E+00 -0.59658579126E+02  0.59658579126E+02  0.00000000000E+00 0. -1.
         21    1    1    2  503  502  0.23724993202E+02  0.91391822045E+01 -0.45509758737E+02  0.52130011453E+02  0.00000000000E+00 0. -1.
         21    1    1    2  504  501 -0.23724993202E+02 -0.91391822045E+01  0.40708502348E+01  0.25748238297E+02  0.00000000000E+00 0.  1.
<mgrwt>
<rscale>  2 0.25424397E+02</rscale>
<asrwt>0</asrwt>
<pdfrwt beam="1">  1       21 0.28030262E-02 0.25424397E+02</pdfrwt>
<pdfrwt beam="2">  1       21 0.91782430E-02 0.25424397E+02</pdfrwt>
<totfact> 0.48905094E+07</totfact>
</mgrwt>
</event>
<event>
 4    1  0.4556894E+006  0.2155421E+02  0.7546771E-02  0.1716078E+00
         21   -1    0    0  504  501  0.00000000000E+00  0.00000000000E+00  0.36568628721E+01  0.36568628721E+01  0.00000000000E+00 0.  1.
         21   -1    0    0  503  502 -0.00000000000E+00 -0.00000000000E+00 -0.18481531702E+03  0.18481531702E+03  0.00000000000E+00 0. -1.
         21    1    1    2  503  501 -0.10052490511E+02  0.19066504801E+02 -0.14326613121E+03  0.14487846122E+03  0.00000000000E+00 0. -1.
         21    1    1    2  504  502  0.10052490511E+02 -0.19066504801E+02 -0.37892322930E+02  0.43593718674E+02  0.00000000000E+00 0.  1.
<mgrwt>
<rscale>  2 0.21554215E+02</rscale>
<asrwt>0</asrwt>
<pdfrwt beam="1">  1       21 0.56259418E-03 0.21554215E+02</pdfrwt>
<pdfrwt beam="2">  1       21 0.28433131E-01 0.21554215E+02</pdfrwt>
<totfact> 0.76414235E+07</totfact>
</mgrwt>
</event>
<event>
 4    1  0.4556894E+006  0.2776888E+02  0.7546771E-02  0.1624146E+00
         21   -1    0    0  504  501  0.00000000000E+00  0.00000000000E+00  0.18369977314E+02  0.18369977314E+02  0.00000000000E+00 0. -1.
         21   -1    0    0  503  502 -0.00000000000E+00 -0.00000000000E+00 -0.56575068244E+02  0.56575068244E+02  0.00000000000E+00 0. -1.
         21    1    1    2  503  501 -0.27732284519E+02  0.14251630673E+01 -0.67548348024E-01  0.27768962119E+02  0.00000000000E+00 0. -1.
         21    1    1    2  504  502  0.27732284519E+02 -0.14251630673E+01 -0.38137542582E+02  0.47176083438E+02  0.00000000000E+00 0. -1.
<mgrwt>
<rscale>  2 0.27768880E+02</rscale>
<asrwt>0</asrwt>
<pdfrwt beam="1">  1       21 0.28261504E-02 0.27768880E+02</pdfrwt>
<pdfrwt beam="2">  1       21 0.87038566E-02 0.27768880E+02</pdfrwt>
<totfact> 0.53818879E+07</totfact>
</mgrwt>
</event>
<event>
 4    1  0.4556894E+006  0.2585910E+02  0.7546771E-02  0.1648960E+00
         21   -1    0    0  504  501  0.00000000000E+00  0.00000000000E+00  0.56503919123E+03  0.56503919123E+03  0.00000000000E+00 0.  1.
         21   -1    0    0  501  502 -0.00000000000E+00 -0.00000000000E+00 -0.53083680775E+03  0.53083680775E+03  0.00000000000E+00 0. -1.
         21    1    1    2  503  502 -0.14857528044E+02 -0.21164758361E+02 -0.53022568150E+03  0.53085588106E+03  0.00000000000E+00 0. -1.
         21    1    1    2  504  503  0.14857528044E+02  0.21164758361E+02  0.56442806497E+03  0.56502011792E+03  0.00000000000E+00 0.  1.
<mgrwt>
<rscale>  2 0.25859102E+02</rscale>
<asrwt>0</asrwt>
<pdfrwt beam="1">  1       21 0.86929107E-01 0.25859102E+02</pdfrwt>
<pdfrwt beam="2">  1       21 0.81667201E-01 0.25859102E+02</pdfrwt>
<totfact> 0.21137368E+03</totfact>
</mgrwt>
</event>
<event>
 4    1  0.4556894E+006  0.2594128E+02  0.7546771E-02  0.1647839E+00
         21   -1    0    0  503  501  0.00000000000E+00  0.00000000000E+00  0.69465055270E+03  0.69465055270E+03  0.00000000000E+00 0. -1.
         21   -1    0    0  501  502 -0.00000000000E+00 -0.00000000000E+00 -0.10906629144E+03  0.10906629144E+03  0.00000000000E+00 0. -1.
         21    1    1    2  503  504  0.23273250729E+02  0.11458873768E+02  0.69286185665E+03  0.69334731728E+03  0.00000000000E+00 0. -1.
         21    1    1    2  504  502 -0.23273250729E+02 -0.11458873768E+02 -0.10727759539E+03  0.11036952686E+03  0.00000000000E+00 0. -1.
<mgrwt>
<rscale>  2 0.25941280E+02</rscale>
<asrwt>0</asrwt>
<pdfrwt beam="1">  1       21 0.10686931E+00 0.25941280E+02</pdfrwt>
<pdfrwt beam="2">  1       21 0.16779430E-01 0.25941280E+02</pdfrwt>
<totfact> 0.26812304E+04</totfact>
</mgrwt>
</event>
<event>
 4    1  0.4556894E+006  0.3688534E+02  0.7546771E-02  0.1532468E+00
         21   -1    0    0  504  501  0.00000000000E+00  0.00000000000E+00  0.67223137387E+02  0.67223137387E+02  0.00000000000E+00 0.  1.
         21   -1    0    0  503  502 -0.00000000000E+00 -0.00000000000E+00 -0.13160898195E+03  0.13160898195E+03  0.00000000000E+00 0. -1.
         21    1    1    2  503  501  0.20610669711E+02 -0.30589680121E+02 -0.12364590621E+03  0.12903037766E+03  0.00000000000E+00 0. -1.
         21    1    1    2  504  502 -0.20610669711E+02  0.30589680121E+02  0.59260061644E+02  0.69801741683E+02  0.00000000000E+00 0.  1.
<mgrwt>
<rscale>  2 0.36885339E+02</rscale>
<asrwt>0</asrwt>
<pdfrwt beam="1">  1       21 0.10342021E-01 0.36885339E+02</pdfrwt>
<pdfrwt beam="2">  1       21 0.20247536E-01 0.36885339E+02</pdfrwt>
<totfact> 0.16194816E+06</totfact>
</mgrwt>
</event>
<event>
 4    1  0.4556894E+006  0.5998121E+02  0.7546771E-02  0.1397911E+00
         21   -1    0    0  503  501  0.00000000000E+00  0.00000000000E+00  0.11223532798E+02  0.11223532798E+02  0.00000000000E+00 0.  1.
         21   -1    0    0  504  502 -0.00000000000E+00 -0.00000000000E+00 -0.32576551368E+03  0.32576551368E+03  0.00000000000E+00 0.  1.
         21    1    1    2  503  502 -0.45309148542E+02  0.39304279397E+02 -0.13595888489E+03  0.14860203128E+03  0.00000000000E+00 0.  1.
         21    1    1    2  504  501  0.45309148542E+02 -0.39304279397E+02 -0.17858309600E+03  0.18838701520E+03  0.00000000000E+00 0.  1.
<mgrwt>
<rscale>  2 0.59981208E+02</rscale>
<asrwt>0</asrwt>
<pdfrwt beam="1">  1       21 0.17266974E-02 0.59981208E+02</pdfrwt>
<pdfrwt beam="2">  1       21 0.50117770E-01 0.59981208E+02</pdfrwt>
<totfact> 0.55668224E+06</totfact>
</mgrwt>
</event>
<event>
 4    1  0.4556894E+006  0.2106343E+02  0.7546771E-02  0.1724972E+00
         21   -1    0    0  502  501  0.00000000000E+00  0.00000000000E+00  0.82161369993E+02  0.82161369993E+02  0.00000000000E+00 0.  1.
         21   -1    0    0  504  502 -0.00000000000E+00 -0.00000000000E+00 -0.87719171860E+01  0.87719171860E+01  0.00000000000E+00 0.  1.
         21    1    1    2  503  501  0.21052146266E+02  0.68948265803E+00  0.64884173125E+02  0.68217477020E+02  0.00000000000E+00 0.  1.
         21    1    1    2  504  503 -0.21052146266E+02 -0.68948265803E+00  0.85052796815E+01  0.22715810159E+02  0.00000000000E+00 0.  1.
<mgrwt>
<rscale>  2 0.21063434E+02</rscale>
<asrwt>0</asrwt>
<pdfrwt beam="1">  1       21 0.12640210E-01 0.21063434E+02</pdfrwt>
<pdfrwt beam="2">  1       21 0.13495258E-02 0.21063434E+02</pdfrwt>
<totfact> 0.83854182E+07</totfact>
</mgrwt>
</event>
<event>
 4    1  0.4556894E+006  0.3169470E+02  0.7546771E-02  0.1580078E+00
         21   -1    0    0  503  501  0.00000000000E+00  0.00000000000E+00  0.10400711089E+03  0.10400711089E+03  0.00000000000E+00 0.  1.
         21   -1    0    0  501  502 -0.00000000000E+00 -0.00000000000E+00 -0.29835888255E+02  0.29835888255E+02  0.00000000000E+00 0.  1.
         21    1    1    2  503  504  0.30544753167E+02 -0.84600271098E+01  0.92119286529E+02  0.97419284310E+02  0.00000000000E+00 0.  1.
         21    1    1    2  504  502 -0.30544753167E+02  0.84600271098E+01 -0.17948063896E+02  0.36423714834E+02  0.00000000000E+00 0.  1.
<mgrwt>
<rscale>  2 0.31694700E+02</rscale>
<asrwt>0</asrwt>
<pdfrwt beam="1">  1       21 0.16001094E-01 0.31694700E+02</pdfrwt>
<pdfrwt beam="2">  1       21 0.45901367E-02 0.31694700E+02</pdfrwt>
<totfact> 0.91460926E+06</totfact>
</mgrwt>
</event>
<event>
 4    1  0.4556894E+006  0.2933094E+02  0.7546771E-02  0.1605604E+00
         21   -1    0    0  503  501  0.00000000000E+00  0.00000000000E+00  0.18164739877E+03  0.18164739877E+03  0.00000000000E+00 0.  1.
         21   -1    0    0  504  502 -0.00000000000E+00 -0.00000000000E+00 -0.56201682639E+01  0.56201682639E+01  0.00000000000E+00 0.  1.
         21    1    1    2  503  502 -0.26992166323E+02  0.11477233589E+02  0.12514967538E+03  0.12854083080E+03  0.00000000000E+00 0.  1.
         21    1    1    2  504  501  0.26992166323E+02 -0.11477233589E+02  0.50877555123E+02  0.58726736236E+02  0.00000000000E+00 0.  1.
<mgrwt>
<rscale>  2 0.29330938E+02</rscale>
<asrwt>0</asrwt>
<pdfrwt beam="1">  1       21 0.27945749E-01 0.29330938E+02</pdfrwt>
<pdfrwt beam="2">  1       21 0.86464141E-03 0.29330938E+02</pdfrwt>
<totfact> 0.44701455E+07</totfact>
</mgrwt>
</event>
<event>
 4    1  0.4556894E+006  0.2711960E+02  0.7546771E-02  0.1632300E+00
         21   -1    0    0  502  501  0.00000000000E+00  0.00000000000E+00  0.31010067025E+02  0.31010067025E+02  0.00000000000E+00 0. -1.
         21   -1    0    0  504  502 -0.00000000000E+00 -0.00000000000E+00 -0.57384376837E+02  0.57384376837E+02  0.00000000000E+00 0.  1.
         21    1    1    2  503  501  0.10610174621E+02  0.24957902914E+02  0.20666169959E+02  0.34096382566E+02  0.00000000000E+00 0. -1.
         21    1    1    2  504  503 -0.10610174621E+02 -0.24957902914E+02 -0.47040479771E+02  0.54298061295E+02  0.00000000000E+00 0.  1.
<mgrwt>
<rscale>  2 0.27119600E+02</rscale>
<asrwt>0</asrwt>
<pdfrwt beam="1">  1       21 0.47707795E-02 0.27119600E+02</pdfrwt>
<pdfrwt beam="2">  1       21 0.88283657E-02 0.27119600E+02</pdfrwt>
<totfact> 0.22854337E+07</totfact>
</mgrwt>
</event>
<event>
 4    1  0.4556894E+006  0.2431397E+02  0.7546771E-02  0.1671056E+00
         21   -1    0    0  504  501  0.00000000000E+00  0.00000000000E+00  0.25877063404E+02  0.25877063404E+02  0.00000000000E+00 0. -1.
         21   -1    0    0  501  502 -0.00000000000E+00 -0.00000000000E+00 -0.18339565996E+03  0.18339565996E+03  0.00000000000E+00 0. -1.
         21    1    1    2  503  502  0.85923714712E+01  0.22745116924E+02 -0.17666179101E+03  0.17832710841E+03  0.00000000000E+00 0. -1.
         21    1    1    2  504  503 -0.85923714712E+01 -0.22745116924E+02  0.19143194449E+02  0.30945614957E+02  0.00000000000E+00 0. -1.
<mgrwt>
<rscale>  2 0.24313971E+02</rscale>
<asrwt>0</asrwt>
<pdfrwt beam="1">  1       21 0.39810866E-02 0.24313971E+02</pdfrwt>
<pdfrwt beam="2">  1       21 0.28214717E-01 0.24313971E+02</pdfrwt>
<totfact> 0.40424165E+06</totfact>
</mgrwt>
</event>
<event>
 4    1  0.4556894E+006  0.2505470E+02  0.7546771E-02  0.1660217E+00
         21   -1    0    0  502  501  0.00000000000E+00  0.00000000000E+00  0.46352639500E+01  0.46352639500E+01  0.00000000000E+00 0.  1.
         21   -1    0    0  503  502 -0.00000000000E+00 -0.00000000000E+00 -0.24289547956E+03  0.24289547956E+03  0.00000000000E+00 0.  1.
         21    1    1    2  503  504 -0.24287272494E+02 -0.61535871864E+01 -0.20145491196E+03  0.20300694519E+03  0.00000000000E+00 0.  1.
         21    1    1    2  504  501  0.24287272494E+02  0.61535871864E+01 -0.36805303646E+02  0.44523798321E+02  0.00000000000E+00 0.  1.
<mgrwt>
<rscale>  2 0.25054705E+02</rscale>
<asrwt>0</asrwt>
<pdfrwt beam="1">  1       21 0.71311767E-03 0.25054705E+02</pdfrwt>
<pdfrwt beam="2">  1       21 0.37368528E-01 0.25054705E+02</pdfrwt>
<totfact> 0.33735344E+07</totfact>
</mgrwt>
</event>
<event>
 4    1  0.4556894E+006  0.2302610E+02  0.7546771E-02  0.1691087E+00
         21   -1    0    0  504  501  0.00000000000E+00  0.00000000000E+00  0.30727779843E+03  0.30727779843E+03  0.00000000000E+00 0.  1.
         21   -1    0    0  503  502 -0.00000000000E+00 -0.00000000000E+00 -0.87221337358E+01  0.87221337358E+01  0.00000000000E+00 0. -1.
         21    1    1    2  503  501 -0.13314425389E+02  0.18786355321E+02  0.77666117818E+01  0.24300644605E+02  0.00000000000E+00 0. -1.
         21    1    1    2  504  502  0.13314425389E+02 -0.18786355321E+02  0.29078905291E+03  0.29169928756E+03  0.00000000000E+00 0.  1.
<mgrwt>
<rscale>  2 0.23026095E+02</rscale>
<asrwt>0</asrwt>
<pdfrwt beam="1">  1       21 0.47273499E-01 0.23026095E+02</pdfrwt>
<pdfrwt beam="2">  1       21 0.13418670E-02 0.23026095E+02</pdfrwt>
<totfact> 0.82047324E+06</totfact>
</mgrwt>
</event>
<event>
 4    1  0.4556894E+006  0.2490838E+02  0.7546771E-02  0.1662321E+00
         21   -1    0    0  504  501  0.00000000000E+00  0.00000000000E+00  0.36937961222E+01  0.36937961222E+01  0.00000000000E+00 0.  1.
         21   -1    0    0  503  502 -0.00000000000E+00 -0.00000000000E+00 -0.19093312708E+03  0.19093312708E+03  0.00000000000E+00 0.  1.
         21    1    1    2  503  501 -0.22078185977E+02 -0.11531753377E+02 -0.12737148605E+03  0.12978414037E+03  0.00000000000E+00 0.  1.
         21    1    1    2  504  502  0.22078185977E+02  0.11531753377E+02 -0.59867844904E+02  0.64842782832E+02  0.00000000000E+00 0.  1.
<mgrwt>
<rscale>  2 0.24908385E+02</rscale>
<asrwt>0</asrwt>
<pdfrwt beam="1">  1       21 0.56827616E-03 0.24908385E+02</pdfrwt>
<pdfrwt beam="2">  1       21 0.29374336E-01 0.24908385E+02</pdfrwt>
<totfact> 0.73672366E+07</totfact>
</mgrwt>
</event>
<event>
 4    1  0.4556894E+006  0.2453459E+02  0.7546771E-02  0.1667778E+00
         21   -1    0    0  503  501  0.00000000000E+00  0.00000000000E+00  0.44705076598E+02  0.44705076598E+02  0.00000000000E+00 0.  1.
         21   -1    0    0  504  502 -0.00000000000E+00 -0.00000000000E+00 -0.48988720681E+02  0.48988720681E+02  0.00000000000E+00 0.  1.
         21    1    1    2  503  502  0.23138866944E+02  0.81571531784E+01  0.37750843036E+02  0.45023021460E+02  0.00000000000E+00 0.  1.
         21    1    1    2  504  501 -0.23138866944E+02 -0.81571531784E+01 -0.42034487119E+02  0.48670775819E+02  0.00000000000E+00 0.  1.
<mgrwt>
<rscale>  2 0.24534594E+02</rscale>
<asrwt>0</asrwt>
<pdfrwt beam="1">  1       21 0.68777041E-02 0.24534594E+02</pdfrwt>
<pdfrwt beam="2">  1       21 0.75367263E-02 0.24534594E+02</pdfrwt>
<totfact> 0.16113851E+07</totfact>
</mgrwt>
</event>
<event>
 4    1  0.4556894E+006  0.2615668E+02  0.7546771E-02  0.1644923E+00
         21   -1    0    0  503  501  0.00000000000E+00  0.00000000000E+00  0.17746969186E+03  0.17746969186E+03  0.00000000000E+00 0.  1.
         21   -1    0    0  501  502 -0.00000000000E+00 -0.00000000000E+00 -0.76669217419E+01  0.76669217419E+01  0.00000000000E+00 0.  1.
         21    1    1    2  503  504  0.26138879380E+02  0.96475881136E+00  0.15017165531E+03  0.15243260095E+03  0.00000000000E+00 0.  1.
         21    1    1    2  504  502 -0.26138879380E+02 -0.96475881136E+00  0.19631114812E+02  0.32704012652E+02  0.00000000000E+00 0.  1.
<mgrwt>
<rscale>  2 0.26156677E+02</rscale>
<asrwt>0</asrwt>
<pdfrwt beam="1">  1       21 0.27303026E-01 0.26156677E+02</pdfrwt>
<pdfrwt beam="2">  1       21 0.11795266E-02 0.26156677E+02</pdfrwt>
<totfact> 0.28459555E+07</totfact>
</mgrwt>
</event>
<event>
 4    1  0.4556894E+006  0.2004963E+02  0.7546771E-02  0.1744343E+00
         21   -1    0    0  502  501  0.00000000000E+00  0.00000000000E+00  0.16007272303E+03  0.16007272303E+03  0.00000000000E+00 0. -1.
         21   -1    0    0  503  502 -0.00000000000E+00 -0.00000000000E+00 -0.10631542128E+02  0.10631542128E+02  0.00000000000E+00 0. -1.
         21    1    1    2  503  504  0.27789001824E+01  0.19856115525E+02  0.12704693944E+00  0.20050031194E+02  0.00000000000E+00 0. -1.
         21    1    1    2  504  501 -0.27789001824E+01 -0.19856115525E+02  0.14931413396E+03  0.15065423396E+03  0.00000000000E+00 0. -1.
<mgrwt>
<rscale>  2 0.20049629E+02</rscale>
<asrwt>0</asrwt>
<pdfrwt beam="1">  1       21 0.24626571E-01 0.20049629E+02</pdfrwt>
<pdfrwt beam="2">  1       21 0.16356220E-02 0.20049629E+02</pdfrwt>
<totfact> 0.19673304E+07</totfact>
</mgrwt>
</event>
<event>
 4    1  0.4556894E+006  0.2660474E+02  0.7546771E-02  0.1638968E+00
         21   -1    0    0  502  501  0.00000000000E+00  0.00000000000E+00  0.10534728311E+03  0.10534728311E+03  0.00000000000E+00 0. -1.
         21   -1    0    0  503  502 -0.00000000000E+00 -0.00000000000E+00 -0.13896325787E+02  0.13896325787E+02  0.00000000000E+00 0. -1.
         21    1    1    2  503  504  0.59879476820E+01  0.25922122144E+02  0.28764304514E+01  0.26759779260E+02  0.00000000000E+00 0. -1.
         21    1    1    2  504  501 -0.59879476820E+01 -0.25922122144E+02  0.88574526870E+02  0.92483829636E+02  0.00000000000E+00 0. -1.
<mgrwt>
<rscale>  2 0.26604735E+02</rscale>
<asrwt>0</asrwt>
<pdfrwt beam="1">  1       21 0.16207274E-01 0.26604735E+02</pdfrwt>
<pdfrwt beam="2">  1       21 0.21378963E-02 0.26604735E+02</pdfrwt>
<totfact> 0.28845078E+07</totfact>
</mgrwt>
</event>
<event>
 4    1  0.4556894E+006  0.4062103E+02  0.7546771E-02  0.1503690E+00
         21   -1    0    0  503  501  0.00000000000E+00  0.00000000000E+00  0.17512759807E+01  0.17512759807E+01  0.00000000000E+00 0. -1.
         21   -1    0    0  504  502 -0.00000000000E+00 -0.00000000000E+00 -0.96127632420E+03  0.96127632420E+03  0.00000000000E+00 0. -1.
         21    1    1    2  503  502  0.39886598254E+02 -0.76894280986E+01 -0.41194697722E+03  0.41394489979E+03  0.00000000000E+00 0. -1.
         21    1    1    2  504  501 -0.39886598254E+02  0.76894280986E+01 -0.54757807100E+03  0.54908270039E+03  0.00000000000E+00 0. -1.
<mgrwt>
<rscale>  2 0.40621029E+02</rscale>
<asrwt>0</asrwt>
<pdfrwt beam="1">  1       21 0.26942682E-03 0.40621029E+02</pdfrwt>
<pdfrwt beam="2">  1       21 0.14788880E+00 0.40621029E+02</pdfrwt>
<totfact> 0.83732144E+06</totfact>
</mgrwt>
</event>
<event>
 4    1  0.4556894E+006  0.2176667E+02  0.7546771E-02  0.1712319E+00
         21   -1    0    0  504  501  0.00000000000E+00  0.00000000000E+00  0.21611065704E+00  0.21611065704E+00  0.00000000000E+00 0.  1.
         21   -1    0    0  503  502 -0.00000000000E+00 -0.00000000000E+00 -0.22613526101E+04  0.22613526101E+04  0.00000000000E+00 0.  1.
         21    1    1    2  503  501  0.21576147660E+02  0.28736207738E+01 -0.13281117278E+04  0.13282900848E+04  0.00000000000E+00 0.  1.
         21    1    1    2  504  502 -0.21576147660E+02 -0.28736207738E+01 -0.93302477162E+03  0.93327863594E+03  0.00000000000E+00 0.  1.
<mgrwt>
<rscale>  2 0.21766668E+02</rscale>
<asrwt>0</asrwt>
<pdfrwt beam="1">  1       21 0.33247882E-04 0.21766668E+02</pdfrwt>
<pdfrwt beam="2">  1       21 0.34789948E+00 0.21766668E+02</pdfrwt>
<totfact> 0.13429145E+07</totfact>
</mgrwt>
</event>
<event>
 4    1  0.4556894E+006  0.2050098E+02  0.7546771E-02  0.1735545E+00
         21   -1    0    0  504  501  0.00000000000E+00  0.00000000000E+00  0.47214420589E+02  0.47214420589E+02  0.00000000000E+00 0.  1.
         21   -1    0    0  503  502 -0.00000000000E+00 -0.00000000000E+00 -0.12653156718E+03  0.12653156718E+03  0.00000000000E+00 0. -1.
         21    1    1    2  503  501  0.16729595132E+01  0.20432608917E+02  0.44102856551E+02  0.48634887238E+02  0.00000000000E+00 0.  1.
         21    1    1    2  504  502 -0.16729595132E+01 -0.20432608917E+02 -0.12342000314E+03  0.12511110053E+03  0.00000000000E+00 0. -1.
<mgrwt>
<rscale>  2 0.20500983E+02</rscale>
<asrwt>0</asrwt>
<pdfrwt beam="1">  1       21 0.72637570E-02 0.20500983E+02</pdfrwt>
<pdfrwt beam="2">  1       21 0.19466395E-01 0.20500983E+02</pdfrwt>
<totfact> 0.29107063E+06</totfact>
</mgrwt>
</event>
<event>
 4    1  0.4556894E+006  0.2727002E+02  0.7546771E-02  0.1630386E+00
         21   -1    0    0  504  501  0.00000000000E+00  0.00000000000E+00  0.67871312275E+01  0.67871312275E+01  0.00000000000E+00 0. -1.
         21   -1    0    0  503  502 -0.00000000000E+00 -0.00000000000E+00 -0.81489773199E+03  0.81489773199E+03  0.00000000000E+00 0. -1.
         21    1    1    2  503  501 -0.25001977357E+02  0.10888304189E+02 -0.78628088833E+03  0.78675363958E+03  0.00000000000E+00 0. -1.
         21    1    1    2  504  502  0.25001977357E+02 -0.10888304189E+02 -0.21829712431E+02  0.34931223636E+02  0.00000000000E+00 0. -1.
<mgrwt>
<rscale>  2 0.27270021E+02</rscale>
<asrwt>0</asrwt>
<pdfrwt beam="1">  1       21 0.10441738E-02 0.27270021E+02</pdfrwt>
<pdfrwt beam="2">  1       21 0.12536891E+00 0.27270021E+02</pdfrwt>
<totfact> 0.15804244E+06</totfact>
</mgrwt>
</event>
<event>
 4    1  0.4556894E+006  0.3085681E+02  0.7546771E-02  0.1588806E+00
         21   -1    0    0  502  501  0.00000000000E+00  0.00000000000E+00  0.18937398654E+03  0.18937398654E+03  0.00000000000E+00 0.  1.
         21   -1    0    0  504  502 -0.00000000000E+00 -0.00000000000E+00 -0.20709292078E+02  0.20709292078E+02  0.00000000000E+00 0. -1.
         21    1    1    2  503  501 -0.26980203411E+02 -0.14973683677E+02  0.17573777114E+03  0.17842619422E+03  0.00000000000E+00 0.  1.
         21    1    1    2  504  503  0.26980203411E+02  0.14973683677E+02 -0.70730766762E+01  0.31657084398E+02  0.00000000000E+00 0. -1.
<mgrwt>
<rscale>  2 0.30856808E+02</rscale>
<asrwt>0</asrwt>
<pdfrwt beam="1">  1       21 0.29134458E-01 0.30856808E+02</pdfrwt>
<pdfrwt beam="2">  1       21 0.31860451E-02 0.30856808E+02</pdfrwt>
<totfact> 0.56018294E+06</totfact>
</mgrwt>
</event>
<event>
 4    1  0.4556894E+006  0.2413292E+02  0.7546771E-02  0.1673778E+00
         21   -1    0    0  502  501  0.00000000000E+00  0.00000000000E+00  0.33991692147E+02  0.33991692147E+02  0.00000000000E+00 0. -1.
         21   -1    0    0  503  502 -0.00000000000E+00 -0.00000000000E+00 -0.34147493545E+02  0.34147493545E+02  0.00000000000E+00 0. -1.
         21    1    1    2  503  504  0.23794337698E+02  0.40283150782E+01 -0.24126524007E+02  0.34124580429E+02  0.00000000000E+00 0. -1.
         21    1    1    2  504  501 -0.23794337698E+02 -0.40283150782E+01  0.23970722609E+02  0.34014605263E+02  0.00000000000E+00 0. -1.
<mgrwt>
<rscale>  2 0.24132920E+02</rscale>
<asrwt>0</asrwt>
<pdfrwt beam="1">  1       21 0.52294911E-02 0.24132920E+02</pdfrwt>
<pdfrwt beam="2">  1       21 0.52534606E-02 0.24132920E+02</pdfrwt>
<totfact> 0.44680940E+07</totfact>
</mgrwt>
</event>
<event>
 4    1  0.4556894E+006  0.4450676E+02  0.7546771E-02  0.1477445E+00
         21   -1    0    0  504  501  0.00000000000E+00  0.00000000000E+00  0.27373191709E+03  0.27373191709E+03  0.00000000000E+00 0.  1.
         21   -1    0    0  503  502 -0.00000000000E+00 -0.00000000000E+00 -0.11329641487E+02  0.11329641487E+02  0.00000000000E+00 0.  1.
         21    1    1    2  503  501  0.38911345911E+02 -0.21604592886E+02  0.21687154732E+03  0.22139132619E+03  0.00000000000E+00 0.  1.
         21    1    1    2  504  502 -0.38911345911E+02  0.21604592886E+02  0.45530728282E+02  0.63670232387E+02  0.00000000000E+00 0.  1.
<mgrwt>
<rscale>  2 0.44506755E+02</rscale>
<asrwt>0</asrwt>
<pdfrwt beam="1">  1       21 0.42112598E-01 0.44506755E+02</pdfrwt>
<pdfrwt beam="2">  1       21 0.17430220E-02 0.44506755E+02</pdfrwt>
<totfact> 0.75262812E+06</totfact>
</mgrwt>
</event>
<event>
 4    1  0.4556894E+006  0.2128934E+02  0.7546771E-02  0.1720840E+00
         21   -1    0    0  503  501  0.00000000000E+00  0.00000000000E+00  0.17595472235E+01  0.17595472235E+01  0.00000000000E+00 0. -1.
         21   -1    0    0  504  502 -0.00000000000E+00 -0.00000000000E+00 -0.25762945778E+03  0.25762945778E+03  0.00000000000E+00 0. -1.
         21    1    1    2  503  502  0.20910288961E+02  0.39994581157E+01 -0.12626287297E+03  0.12804510510E+03  0.00000000000E+00 0. -1.
         21    1    1    2  504  501 -0.20910288961E+02 -0.39994581157E+01 -0.12960703759E+03  0.13134389990E+03  0.00000000000E+00 0. -1.
<mgrwt>
<rscale>  2 0.21289337E+02</rscale>
<asrwt>0</asrwt>
<pdfrwt beam="1">  1       21 0.27069965E-03 0.21289337E+02</pdfrwt>
<pdfrwt beam="2">  1       21 0.39635289E-01 0.21289337E+02</pdfrwt>
<totfact> 0.12058549E+08</totfact>
</mgrwt>
</event>
<event>
 4    1  0.4556894E+006  0.4926806E+02  0.7546771E-02  0.1449330E+00
         21   -1    0    0  503  501  0.00000000000E+00  0.00000000000E+00  0.11944167296E+02  0.11944167296E+02  0.00000000000E+00 0.  1.
         21   -1    0    0  504  502 -0.00000000000E+00 -0.00000000000E+00 -0.27329667066E+03  0.27329667066E+03  0.00000000000E+00 0.  1.
         21    1    1    2  503  502 -0.30683979999E+02 -0.38546530175E+02 -0.20289314974E+03  0.20878930008E+03  0.00000000000E+00 0.  1.
         21    1    1    2  504  501  0.30683979999E+02  0.38546530175E+02 -0.58459353617E+02  0.76451537869E+02  0.00000000000E+00 0.  1.
<mgrwt>
<rscale>  2 0.49268059E+02</rscale>
<asrwt>0</asrwt>
<pdfrwt beam="1">  1       21 0.18375642E-02 0.49268059E+02</pdfrwt>
<pdfrwt beam="2">  1       21 0.42045643E-01 0.49268059E+02</pdfrwt>
<totfact> 0.70259566E+06</totfact>
</mgrwt>
</event>
<event>
 4    1  0.4556894E+006  0.3045743E+02  0.7546771E-02  0.1593087E+00
         21   -1    0    0  503  501  0.00000000000E+00  0.00000000000E+00  0.39730870184E+01  0.39730870184E+01  0.00000000000E+00 0. -1.
         21   -1    0    0  504  502 -0.00000000000E+00 -0.00000000000E+00 -0.29649402235E+03  0.29649402235E+03  0.00000000000E+00 0.  1.
         21    1    1    2  503  502  0.23611940878E+02  0.19238801658E+02 -0.21551707196E+03  0.21765859401E+03  0.00000000000E+00 0.  1.
         21    1    1    2  504  501 -0.23611940878E+02 -0.19238801658E+02 -0.77003863370E+02  0.82808515354E+02  0.00000000000E+00 0. -1.
<mgrwt>
<rscale>  2 0.30457433E+02</rscale>
<asrwt>0</asrwt>
<pdfrwt beam="1">  1       21 0.61124426E-03 0.30457433E+02</pdfrwt>
<pdfrwt beam="2">  1       21 0.45614457E-01 0.30457433E+02</pdfrwt>
<totfact> 0.30195323E+07</totfact>
</mgrwt>
</event>
<event>
 4    1  0.4556894E+006  0.2123295E+02  0.7546771E-02  0.1721866E+00
         21   -1    0    0  503  501  0.00000000000E+00  0.00000000000E+00  0.12328878150E+02  0.12328878150E+02  0.00000000000E+00 0.  1.
         21   -1    0    0  504  502 -0.00000000000E+00 -0.00000000000E+00 -0.18246552049E+03  0.18246552049E+03  0.00000000000E+00 0. -1.
         21    1    1    2  503  502 -0.21228507507E+02 -0.43432124091E+00  0.20241337393E+01  0.21329211971E+02  0.00000000000E+00 0.  1.
         21    1    1    2  504  501  0.21228507507E+02  0.43432124091E+00 -0.17216077607E+03  0.17346518666E+03  0.00000000000E+00 0. -1.
<mgrwt>
<rscale>  2 0.21232950E+02</rscale>
<asrwt>0</asrwt>
<pdfrwt beam="1">  1       21 0.18967505E-02 0.21232950E+02</pdfrwt>
<pdfrwt beam="2">  1       21 0.28071618E-01 0.21232950E+02</pdfrwt>
<totfact> 0.12586203E+07</totfact>
</mgrwt>
</event>
<event>
 4    1  0.4556894E+006  0.2963766E+02  0.7546771E-02  0.1602129E+00
         21   -1    0    0  503  501  0.00000000000E+00  0.00000000000E+00  0.22276889960E+02  0.22276889960E+02  0.00000000000E+00 0.  1.
         21   -1    0    0  504  502 -0.00000000000E+00 -0.00000000000E+00 -0.28662256610E+03  0.28662256610E+03  0.00000000000E+00 0. -1.
         21    1    1    2  503  502  0.10300968305E+02  0.27789940604E+02  0.11260184114E+02  0.31704613120E+02  0.00000000000E+00 0.  1.
         21    1    1    2  504  501 -0.10300968305E+02 -0.27789940604E+02 -0.27560586026E+03  0.27719484294E+03  0.00000000000E+00 0. -1.
<mgrwt>
<rscale>  2 0.29637658E+02</rscale>
<asrwt>0</asrwt>
<pdfrwt beam="1">  1       21 0.34272140E-02 0.29637658E+02</pdfrwt>
<pdfrwt beam="2">  1       21 0.44095777E-01 0.29637658E+02</pdfrwt>
<totfact> 0.22796035E+06</totfact>
</mgrwt>
</event>
<event>
 4    1  0.4556894E+006  0.2448471E+02  0.7546771E-02  0.1668515E+00
         21   -1    0    0  502  501  0.00000000000E+00  0.00000000000E+00  0.94427073392E+02  0.94427073392E+02  0.00000000000E+00 0. -1.
         21   -1    0    0  503  502 -0.00000000000E+00 -0.00000000000E+00 -0.24017313788E+03  0.24017313788E+03  0.00000000000E+00 0.  1.
         21    1    1    2  503  504  0.20257965572E+02 -0.13751948226E+02 -0.23794709102E+03  0.23920351038E+03  0.00000000000E+00 0.  1.
         21    1    1    2  504  501 -0.20257965572E+02  0.13751948226E+02  0.92201026532E+02  0.95396700901E+02  0.00000000000E+00 0. -1.
<mgrwt>
<rscale>  2 0.24484715E+02</rscale>
<asrwt>0</asrwt>
<pdfrwt beam="1">  1       21 0.14527242E-01 0.24484715E+02</pdfrwt>
<pdfrwt beam="2">  1       21 0.36949713E-01 0.24484715E+02</pdfrwt>
<totfact> 0.29698487E+05</totfact>
</mgrwt>
</event>
<event>
 4    1  0.4556894E+006  0.2255994E+02  0.7546771E-02  0.1698744E+00
         21   -1    0    0  504  501  0.00000000000E+00  0.00000000000E+00  0.16455259601E+03  0.16455259601E+03  0.00000000000E+00 0.  1.
         21   -1    0    0  501  502 -0.00000000000E+00 -0.00000000000E+00 -0.96528180810E+02  0.96528180810E+02  0.00000000000E+00 0.  1.
         21    1    1    2  503  502  0.20319353323E+02 -0.98017747066E+01 -0.94419778931E+02  0.97077523456E+02  0.00000000000E+00 0.  1.
         21    1    1    2  504  503 -0.20319353323E+02  0.98017747066E+01  0.16244419413E+03  0.16400325336E+03  0.00000000000E+00 0.  1.
<mgrwt>
<rscale>  2 0.22559940E+02</rscale>
<asrwt>0</asrwt>
<pdfrwt beam="1">  1       21 0.25315784E-01 0.22559940E+02</pdfrwt>
<pdfrwt beam="2">  1       21 0.14850489E-01 0.22559940E+02</pdfrwt>
<totfact> 0.56770520E+05</totfact>
</mgrwt>
</event>
<event>
 4    1  0.4556894E+006  0.2025532E+02  0.7546771E-02  0.1740298E+00
         21   -1    0    0  503  501  0.00000000000E+00  0.00000000000E+00  0.48941930716E+01  0.48941930716E+01  0.00000000000E+00 0.  1.
         21   -1    0    0  504  502 -0.00000000000E+00 -0.00000000000E+00 -0.83954024369E+02  0.83954024369E+02  0.00000000000E+00 0. -1.
         21    1    1    2  503  502  0.19758778635E+02 -0.44574305550E+01 -0.41240449574E+02  0.45946193546E+02  0.00000000000E+00 0.  1.
         21    1    1    2  504  501 -0.19758778635E+02  0.44574305550E+01 -0.37819381723E+02  0.42902023894E+02  0.00000000000E+00 0. -1.
<mgrwt>
<rscale>  2 0.20255321E+02</rscale>
<asrwt>0</asrwt>
<pdfrwt beam="1">  1       21 0.75295277E-03 0.20255321E+02</pdfrwt>
<pdfrwt beam="2">  1       21 0.12916004E-01 0.20255321E+02</pdfrwt>
<totfact> 0.19143485E+08</totfact>
</mgrwt>
</event>
<event>
 4    1  0.4556894E+006  0.2230640E+02  0.7546771E-02  0.1703006E+00
         21   -1    0    0  504  501  0.00000000000E+00  0.00000000000E+00  0.20725334247E+03  0.20725334247E+03  0.00000000000E+00 0. -1.
         21   -1    0    0  503  502 -0.00000000000E+00 -0.00000000000E+00 -0.69401615551E+01  0.69401615551E+01  0.00000000000E+00 0. -1.
         21    1    1    2  503  501  0.17940401967E+02  0.13255844005E+02  0.13542504127E+02  0.26095494650E+02  0.00000000000E+00 0. -1.
         21    1    1    2  504  502 -0.17940401967E+02 -0.13255844005E+02  0.18677067679E+03  0.18809800938E+03  0.00000000000E+00 0. -1.
<mgrwt>
<rscale>  2 0.22306399E+02</rscale>
<asrwt>0</asrwt>
<pdfrwt beam="1">  1       21 0.31885125E-01 0.22306399E+02</pdfrwt>
<pdfrwt beam="2">  1       21 0.10677173E-02 0.22306399E+02</pdfrwt>
<totfact> 0.24102245E+07</totfact>
</mgrwt>
</event>
<event>
 4    1  0.4556894E+006  0.2285942E+02  0.7546771E-02  0.1693799E+00
         21   -1    0    0  504  501  0.00000000000E+00  0.00000000000E+00  0.33097770411E+02  0.33097770411E+02  0.00000000000E+00 0.  1.
         21   -1    0    0  503  502 -0.00000000000E+00 -0.00000000000E+00 -0.28462766236E+02  0.28462766236E+02  0.00000000000E+00 0. -1.
         21    1    1    2  503  501  0.22853794309E+02 -0.50728534301E+00  0.22857523934E+02  0.32326763728E+02  0.00000000000E+00 0.  1.
         21    1    1    2  504  502 -0.22853794309E+02  0.50728534301E+00 -0.18222519759E+02  0.29233772919E+02  0.00000000000E+00 0. -1.
<mgrwt>
<rscale>  2 0.22859424E+02</rscale>
<asrwt>0</asrwt>
<pdfrwt beam="1">  1       21 0.50919646E-02 0.22859424E+02</pdfrwt>
<pdfrwt beam="2">  1       21 0.43788871E-02 0.22859424E+02</pdfrwt>
<totfact> 0.61400618E+07</totfact>
</mgrwt>
</event>
<event>
 4    1  0.4556894E+006  0.2000226E+02  0.7546771E-02  0.1745283E+00
         21   -1    0    0  504  501  0.00000000000E+00  0.00000000000E+00  0.40303931927E+02  0.40303931927E+02  0.00000000000E+00 0.  1.
         21   -1    0    0  503  502 -0.00000000000E+00 -0.00000000000E+00 -0.20230148737E+02  0.20230148737E+02  0.00000000000E+00 0. -1.
         21    1    1    2  503  501 -0.65868918741E+01  0.18886585074E+02  0.31637152959E+02  0.37429930372E+02  0.00000000000E+00 0.  1.
         21    1    1    2  504  502  0.65868918741E+01 -0.18886585074E+02 -0.11563369769E+02  0.23104150292E+02  0.00000000000E+00 0. -1.
<mgrwt>
<rscale>  2 0.20002256E+02</rscale>
<asrwt>0</asrwt>
<pdfrwt beam="1">  1       21 0.62006049E-02 0.20002256E+02</pdfrwt>
<pdfrwt beam="2">  1       21 0.31123306E-02 0.20002256E+02</pdfrwt>
<totfact> 0.73736084E+07</totfact>
</mgrwt>
</event>
<event>
 4    1  0.4556894E+006  0.2098264E+02  0.7546771E-02  0.1726465E+00
         21   -1    0    0  504  501  0.00000000000E+00  0.00000000000E+00  0.14112636611E+03  0.14112636611E+03  0.00000000000E+00 0. -1.
         21   -1    0    0  501  502 -0.00000000000E+00 -0.00000000000E+00 -0.36569084147E+02  0.36569084147E+02  0.00000000000E+00 0.  1.
         21    1    1    2  503  502  0.43493981963E+01 -0.20526908369E+02 -0.32694831364E+02  0.38848722370E+02  0.00000000000E+00 0.  1.
         21    1    1    2  504  503 -0.43493981963E+01  0.20526908369E+02  0.13725211333E+03  0.13884672789E+03  0.00000000000E+00 0. -1.
<mgrwt>
<rscale>  2 0.20982641E+02</rscale>
<asrwt>0</asrwt>
<pdfrwt beam="1">  1       21 0.21711748E-01 0.20982641E+02</pdfrwt>
<pdfrwt beam="2">  1       21 0.56260130E-02 0.20982641E+02</pdfrwt>
<totfact> 0.36393399E+06</totfact>
</mgrwt>
</event>
<event>
 4    1  0.4556894E+006  0.2284029E+02  0.7546771E-02  0.1694112E+00
         21   -1    0    0  503  501  0.00000000000E+00  0.00000000000E+00  0.25415889398E+02  0.25415889398E+02  0.00000000000E+00 0.  1.
         21   -1    0    0  504  502 -0.00000000000E+00 -0.00000000000E+00 -0.57635051292E+02  0.57635051292E+02  0.00000000000E+00 0.  1.
         21    1    1    2  503  502  0.14382921232E+02  0.17742893110E+02 -0.49430191852E+02  0.54452020583E+02  0.00000000000E+00 0.  1.
         21    1    1    2  504  501 -0.14382921232E+02 -0.17742893110E+02  0.17211029957E+02  0.28598920107E+02  0.00000000000E+00 0.  1.
<mgrwt>
<rscale>  2 0.22840286E+02</rscale>
<asrwt>0</asrwt>
<pdfrwt beam="1">  1       21 0.39101368E-02 0.22840286E+02</pdfrwt>
<pdfrwt beam="2">  1       21 0.88669310E-02 0.22840286E+02</pdfrwt>
<totfact> 0.29949833E+07</totfact>
</mgrwt>
</event>
<event>
 4    1  0.4556894E+006  0.6286531E+02  0.7546771E-02  0.1386186E+00
         21   -1    0    0  504  501  0.00000000000E+00  0.00000000000E+00  0.22537434200E+03  0.22537434200E+03  0.00000000000E+00 0.  1.
         21   -1    0    0  503  502 -0.00000000000E+00 -0.00000000000E+00 -0.17774731370E+02  0.17774731370E+02  0.00000000000E+00 0. -1.
         21    1    1    2  503  501  0.62052287670E+02  0.10077730094E+02  0.89694931860E+02  0.10953185770E+03  0.00000000000E+00 0.  1.
         21    1    1    2  504  502 -0.62052287670E+02 -0.10077730094E+02  0.11790467877E+03  0.13361721568E+03  0.00000000000E+00 0. -1.
<mgrwt>
<rscale>  2 0.62865309E+02</rscale>
<asrwt>0</asrwt>
<pdfrwt beam="1">  1       21 0.34672974E-01 0.62865309E+02</pdfrwt>
<pdfrwt beam="2">  1       21 0.27345742E-02 0.62865309E+02</pdfrwt>
<totfact> 0.55570649E+06</totfact>
</mgrwt>
</event>
<event>
 4    1  0.4556894E+006  0.2076076E+02  0.7546771E-02  0.1730609E+00
         21   -1    0    0  504  501  0.00000000000E+00  0.00000000000E+00  0.80363322015E+02  0.80363322015E+02  0.00000000000E+00 0. -1.
         21   -1    0    0  501  502 -0.00000000000E+00 -0.00000000000E+00 -0.84078399170E+01  0.84078399170E+01  0.00000000000E+00 0. -1.
         21    1    1    2  503  502  0.19558481480E+02 -0.69624007024E+01  0.92683780292E+01  0.22735699960E+02  0.00000000000E+00 0. -1.
         21    1    1    2  504  503 -0.19558481480E+02  0.69624007024E+01  0.62687104069E+02  0.66035461972E+02  0.00000000000E+00 0. -1.
<mgrwt>
<rscale>  2 0.20760762E+02</rscale>
<asrwt>0</asrwt>
<pdfrwt beam="1">  1       21 0.12363587E-01 0.20760762E+02</pdfrwt>
<pdfrwt beam="2">  1       21 0.12935139E-02 0.20760762E+02</pdfrwt>
<totfact> 0.92382199E+07</totfact>
</mgrwt>
</event>
<event>
 4    1  0.4556894E+006  0.2624912E+02  0.7546771E-02  0.1643683E+00
         21   -1    0    0  504  501  0.00000000000E+00  0.00000000000E+00  0.83125467790E+01  0.83125467790E+01  0.00000000000E+00 0.  1.
         21   -1    0    0  503  502 -0.00000000000E+00 -0.00000000000E+00 -0.87161278723E+02  0.87161278723E+02  0.00000000000E+00 0. -1.
         21    1    1    2  503  501  0.16565272554E+02 -0.20361922027E+02 -0.49993466145E+02  0.56465589349E+02  0.00000000000E+00 0. -1.
         21    1    1    2  504  502 -0.16565272554E+02  0.20361922027E+02 -0.28855265799E+02  0.39008236153E+02  0.00000000000E+00 0.  1.
<mgrwt>
<rscale>  2 0.26249117E+02</rscale>
<asrwt>0</asrwt>
<pdfrwt beam="1">  1       21 0.12788534E-02 0.26249117E+02</pdfrwt>
<pdfrwt beam="2">  1       21 0.13409427E-01 0.26249117E+02</pdfrwt>
<totfact> 0.87393432E+07</totfact>
</mgrwt>
</event>
<event>
 4    1  0.4556894E+006  0.3893274E+02  0.7546771E-02  0.1516215E+00
         21   -1    0    0  504  501  0.00000000000E+00  0.00000000000E+00  0.13151804201E+04  0.13151804201E+04  0.00000000000E+00 0. -1.
         21   -1    0    0  503  502 -0.00000000000E+00 -0.00000000000E+00 -0.18299482337E+01  0.18299482337E+01  0.00000000000E+00 0. -1.
         21    1    1    2  503  501 -0.31605123749E+02 -0.22734873336E+02  0.10573340625E+04  0.10580506027E+04  0.00000000000E+00 0. -1.
         21    1    1    2  504  502  0.31605123749E+02  0.22734873336E+02  0.25601640938E+03  0.25895976557E+03  0.00000000000E+00 0. -1.
<mgrwt>
<rscale>  2 0.38932741E+02</rscale>
<asrwt>0</asrwt>
<pdfrwt beam="1">  1       21 0.20233469E+00 0.38932741E+02</pdfrwt>
<pdfrwt beam="2">  1       21 0.28153155E-03 0.38932741E+02</pdfrwt>
<totfact> 0.35092950E+06</totfact>
</mgrwt>
</event>
<event>
 4    1  0.4556894E+006  0.3252614E+02  0.7546771E-02  0.1571734E+00
         21   -1    0    0  502  501  0.00000000000E+00  0.00000000000E+00  0.47673915485E+02  0.47673915485E+02  0.00000000000E+00 0.  1.
         21   -1    0    0  504  502 -0.00000000000E+00 -0.00000000000E+00 -0.39315644360E+02  0.39315644360E+02  0.00000000000E+00 0. -1.
         21    1    1    2  503  501  0.26698571805E+02  0.18577837253E+02  0.32884327436E+02  0.46252878443E+02  0.00000000000E+00 0.  1.
         21    1    1    2  504  503 -0.26698571805E+02 -0.18577837253E+02 -0.24526056311E+02  0.40736681401E+02  0.00000000000E+00 0. -1.
<mgrwt>
<rscale>  2 0.32526140E+02</rscale>
<asrwt>0</asrwt>
<pdfrwt beam="1">  1       21 0.73344486E-02 0.32526140E+02</pdfrwt>
<pdfrwt beam="2">  1       21 0.60485606E-02 0.32526140E+02</pdfrwt>
<totfact> 0.21918147E+07</totfact>
</mgrwt>
</event>
<event>
 4    1  0.4556894E+006  0.2664961E+02  0.7546771E-02  0.1638379E+00
         21   -1    0    0  504  501  0.00000000000E+00  0.00000000000E+00  0.91103184501E+00  0.91103184501E+00  0.00000000000E+00 0. -1.
         21   -1    0    0  503  502 -0.00000000000E+00 -0.00000000000E+00 -0.94804101056E+03  0.94804101056E+03  0.00000000000E+00 0. -1.
         21    1    1    2  503  501 -0.20054060167E+02 -0.17550964218E+02 -0.27354221090E+03  0.27483730245E+03  0.00000000000E+00 0. -1.
         21    1    1    2  504  502  0.20054060167E+02  0.17550964218E+02 -0.67358776781E+03  0.67411473995E+03  0.00000000000E+00 0. -1.
<mgrwt>
<rscale>  2 0.26649609E+02</rscale>
<asrwt>0</asrwt>
<pdfrwt beam="1">  1       21 0.14015886E-03 0.26649609E+02</pdfrwt>
<pdfrwt beam="2">  1       21 0.14585234E+00 0.26649609E+02</pdfrwt>
<totfact> 0.21350799E+07</totfact>
</mgrwt>
</event>
<event>
 4    1  0.4556894E+006  0.2072825E+02  0.7546771E-02  0.1731222E+00
         21   -1    0    0  503  501  0.00000000000E+00  0.00000000000E+00  0.24567185594E+03  0.24567185594E+03  0.00000000000E+00 0.  1.
         21   -1    0    0  504  502 -0.00000000000E+00 -0.00000000000E+00 -0.10133490431E+02  0.10133490431E+02  0.00000000000E+00 0. -1.
         21    1    1    2  503  502 -0.63873111305E+01  0.19719603655E+02  0.23411224476E+03  0.23502809121E+03  0.00000000000E+00 0.  1.
         21    1    1    2  504  501  0.63873111305E+01 -0.19719603655E+02  0.14261207549E+01  0.20777255165E+02  0.00000000000E+00 0. -1.
<mgrwt>
<rscale>  2 0.20728254E+02</rscale>
<asrwt>0</asrwt>
<pdfrwt beam="1">  1       21 0.37795666E-01 0.20728254E+02</pdfrwt>
<pdfrwt beam="2">  1       21 0.15589987E-02 0.20728254E+02</pdfrwt>
<totfact> 0.97975147E+06</totfact>
</mgrwt>
</event>
<event>
 4    1  0.4556894E+006  0.3350727E+02  0.7546771E-02  0.1562270E+00
         21   -1    0    0  503  501  0.00000000000E+00  0.00000000000E+00  0.23584188501E+02  0.23584188501E+02  0.00000000000E+00 0. -1.
         21   -1    0    0  501  502 -0.00000000000E+00 -0.00000000000E+00 -0.50428007408E+02  0.50428007408E+02  0.00000000000E+00 0. -1.
         21    1    1    2  503  504  0.23980372210E+02 -0.23402543066E+02 -0.46669462875E+01  0.33830720668E+02  0.00000000000E+00 0. -1.
         21    1    1    2  504  502 -0.23980372210E+02  0.23402543066E+02 -0.22176872620E+02  0.40181475241E+02  0.00000000000E+00 0. -1.
<mgrwt>
<rscale>  2 0.33507272E+02</rscale>
<asrwt>0</asrwt>
<pdfrwt beam="1">  1       21 0.36283368E-02 0.33507272E+02</pdfrwt>
<pdfrwt beam="2">  1       21 0.77581548E-02 0.33507272E+02</pdfrwt>
<totfact> 0.45732702E+07</totfact>
</mgrwt>
</event>
<event>
 4    1  0.4556894E+006  0.2195599E+02  0.7546771E-02  0.1709014E+00
         21   -1    0    0  504  501  0.00000000000E+00  0.00000000000E+00  0.18676663235E+01  0.18676663235E+01  0.00000000000E+00 0.  1.
         21   -1    0    0  503  502 -0.00000000000E+00 -0.00000000000E+00 -0.26484774264E+03  0.26484774264E+03  0.00000000000E+00 0. -1.
         21    1    1    2  503  501  0.53094375847E+01  0.21304346805E+02 -0.15275885168E+03  0.15432864960E+03  0.00000000000E+00 0.  1.
         21    1    1    2  504  502 -0.53094375847E+01 -0.21304346805E+02 -0.11022122464E+03  0.11238675937E+03  0.00000000000E+00 0. -1.
<mgrwt>
<rscale>  2 0.21955986E+02</rscale>
<asrwt>0</asrwt>
<pdfrwt beam="1">  1       21 0.28733356E-03 0.21955986E+02</pdfrwt>
<pdfrwt beam="2">  1       21 0.40745767E-01 0.21955986E+02</pdfrwt>
<totfact> 0.10587537E+08</totfact>
</mgrwt>
</event>
<event>
 4    1  0.4556894E+006  0.2852373E+02  0.7546771E-02  0.1615004E+00
         21   -1    0    0  504  501  0.00000000000E+00  0.00000000000E+00  0.14537279074E+03  0.14537279074E+03  0.00000000000E+00 0.  1.
         21   -1    0    0  503  502 -0.00000000000E+00 -0.00000000000E+00 -0.21223894489E+02  0.21223894489E+02  0.00000000000E+00 0.  1.
         21    1    1    2  503  501  0.18408556394E+02  0.21788265413E+02 -0.94022948211E+01  0.30033424815E+02  0.00000000000E+00 0.  1.
         21    1    1    2  504  502 -0.18408556394E+02 -0.21788265413E+02  0.13355119107E+03  0.13656326042E+03  0.00000000000E+00 0.  1.
<mgrwt>
<rscale>  2 0.28523735E+02</rscale>
<asrwt>0</asrwt>
<pdfrwt beam="1">  1       21 0.22365044E-01 0.28523735E+02</pdfrwt>
<pdfrwt beam="2">  1       21 0.32652146E-02 0.28523735E+02</pdfrwt>
<totfact> 0.85893825E+06</totfact>
</mgrwt>
</event>
<event>
 4    1  0.4556894E+006  0.2881204E+02  0.7546771E-02  0.1611604E+00
         21   -1    0    0  503  501  0.00000000000E+00  0.00000000000E+00  0.73609394874E+03  0.73609394874E+03  0.00000000000E+00 0.  1.
         21   -1    0    0  504  502 -0.00000000000E+00 -0.00000000000E+00 -0.12476401764E+02  0.12476401764E+02  0.00000000000E+00 0.  1.
         21    1    1    2  503  502 -0.12246741854E+02  0.26079709345E+02  0.48402016580E+01  0.29215774466E+02  0.00000000000E+00 0.  1.
         21    1    1    2  504  501  0.12246741854E+02 -0.26079709345E+02  0.71877734532E+03  0.71935457604E+03  0.00000000000E+00 0.  1.
<mgrwt>
<rscale>  2 0.28812045E+02</rscale>
<asrwt>0</asrwt>
<pdfrwt beam="1">  1       21 0.11324519E+00 0.28812045E+02</pdfrwt>
<pdfrwt beam="2">  1       21 0.19194470E-02 0.28812045E+02</pdfrwt>
<totfact> 0.78922440E+05</totfact>
</mgrwt>
</event>
<event>
 4    1  0.4556894E+006  0.2082796E+02  0.7546771E-02  0.1729347E+00
         21   -1    0    0  502  501  0.00000000000E+00  0.00000000000E+00  0.91414902101E+01  0.91414902101E+01  0.00000000000E+00 0. -1.
         21   -1    0    0  504  502 -0.00000000000E+00 -0.00000000000E+00 -0.12282692867E+03  0.12282692867E+03  0.00000000000E+00 0.  1.
         21    1    1    2  503  501 -0.19074361534E+02 -0.83649676638E+01 -0.51535254339E+01  0.21456066190E+02  0.00000000000E+00 0. -1.
         21    1    1    2  504  503  0.19074361534E+02  0.83649676638E+01 -0.10853191302E+03  0.11051235269E+03  0.00000000000E+00 0.  1.
<mgrwt>
<rscale>  2 0.20827961E+02</rscale>
<asrwt>0</asrwt>
<pdfrwt beam="1">  1       21 0.14063831E-02 0.20827961E+02</pdfrwt>
<pdfrwt beam="2">  1       21 0.18896451E-01 0.20827961E+02</pdfrwt>
<totfact> 0.39650140E+07</totfact>
</mgrwt>
</event>
<event>
 4    1  0.4556894E+006  0.2456607E+02  0.7546771E-02  0.1667314E+00
         21   -1    0    0  504  501  0.00000000000E+00  0.00000000000E+00  0.10696340841E+03  0.10696340841E+03  0.00000000000E+00 0. -1.
         21   -1    0    0  501  502 -0.00000000000E+00 -0.00000000000E+00 -0.84001204472E+01  0.84001204472E+01  0.00000000000E+00 0. -1.
         21    1    1    2  503  502 -0.18463449620E+02 -0.16204708821E+02  0.16229514719E+02  0.29442973828E+02  0.00000000000E+00 0. -1.
         21    1    1    2  504  503  0.18463449620E+02  0.16204708821E+02  0.82333773241E+02  0.85920555026E+02  0.00000000000E+00 0. -1.
<mgrwt>
<rscale>  2 0.24566065E+02</rscale>
<asrwt>0</asrwt>
<pdfrwt beam="1">  1       21 0.16455908E-01 0.24566065E+02</pdfrwt>
<pdfrwt beam="2">  1       21 0.12923263E-02 0.24566065E+02</pdfrwt>
<totfact> 0.59640256E+07</totfact>
</mgrwt>
</event>
<event>
 4    1  0.4556894E+006  0.2705746E+02  0.7546771E-02  0.1633095E+00
         21   -1    0    0  504  501  0.00000000000E+00  0.00000000000E+00  0.12518004822E+02  0.12518004822E+02  0.00000000000E+00 0.  1.
         21   -1    0    0  501  502 -0.00000000000E+00 -0.00000000000E+00 -0.20809924486E+03  0.20809924486E+03  0.00000000000E+00 0. -1.
         21    1    1    2  503  502 -0.39871977020E-01 -0.27057433459E+02 -0.19132295136E+03  0.19322675284E+03  0.00000000000E+00 0. -1.
         21    1    1    2  504  503  0.39871977020E-01  0.27057433459E+02 -0.42582886839E+01  0.27390496850E+02  0.00000000000E+00 0.  1.
<mgrwt>
<rscale>  2 0.27057463E+02</rscale>
<asrwt>0</asrwt>
<pdfrwt beam="1">  1       21 0.19258469E-02 0.27057463E+02</pdfrwt>
<pdfrwt beam="2">  1       21 0.32015268E-01 0.27057463E+02</pdfrwt>
<totfact> 0.10121011E+07</totfact>
</mgrwt>
</event>
<event>
 4    1  0.4556894E+006  0.2241878E+02  0.7546771E-02  0.1701108E+00
         21   -1    0    0  503  501  0.00000000000E+00  0.00000000000E+00  0.85712572042E+02  0.85712572042E+02  0.00000000000E+00 0. -1.
         21   -1    0    0  504  502 -0.00000000000E+00 -0.00000000000E+00 -0.19300757824E+02  0.19300757824E+02  0.00000000000E+00 0.  1.
         21    1    1    2  503  502  0.22376817723E+02  0.13710642557E+01  0.77016350978E+02  0.80212967197E+02  0.00000000000E+00 0. -1.
         21    1    1    2  504  501 -0.22376817723E+02 -0.13710642557E+01 -0.10604536760E+02  0.24800362669E+02  0.00000000000E+00 0.  1.
<mgrwt>
<rscale>  2 0.22418782E+02</rscale>
<asrwt>0</asrwt>
<pdfrwt beam="1">  1       21 0.13186549E-01 0.22418782E+02</pdfrwt>
<pdfrwt beam="2">  1       21 0.29693474E-02 0.22418782E+02</pdfrwt>
<totfact> 0.23715936E+07</totfact>
</mgrwt>
</event>
<event>
 4    1  0.4556894E+006  0.2395176E+02  0.7546771E-02  0.1676531E+00
         21   -1    0    0  503  501  0.00000000000E+00  0.00000000000E+00  0.11750855612E+02  0.11750855612E+02  0.00000000000E+00 0. -1.
         21   -1    0    0  504  502 -0.00000000000E+00 -0.00000000000E+00 -0.17812882844E+03  0.17812882844E+03  0.00000000000E+00 0. -1.
         21    1    1    2  503  502  0.16563724343E+02  0.17301153878E+02 -0.16407883853E+03  0.16581782818E+03  0.00000000000E+00 0. -1.
         21    1    1    2  504  501 -0.16563724343E+02 -0.17301153878E+02 -0.22991343024E+01  0.24061855875E+02  0.00000000000E+00 0. -1.
<mgrwt>
<rscale>  2 0.23951762E+02</rscale>
<asrwt>0</asrwt>
<pdfrwt beam="1">  1       21 0.18078241E-02 0.23951762E+02</pdfrwt>
<pdfrwt beam="2">  1       21 0.27404433E-01 0.23951762E+02</pdfrwt>
<totfact> 0.14492220E+07</totfact>
</mgrwt>
</event>
<event>
 4    1  0.4556894E+006  0.3319799E+02  0.7546771E-02  0.1565211E+00
         21   -1    0    0  504  501  0.00000000000E+00  0.00000000000E+00  0.11058063344E+03  0.11058063344E+03  0.00000000000E+00 0. -1.
         21   -1    0    0  503  502 -0.00000000000E+00 -0.00000000000E+00 -0.34274754701E+02  0.34274754701E+02  0.00000000000E+00 0.  1.
         21    1    1    2  503  501 -0.26406443739E+02  0.20119801026E+02 -0.22842025249E+02  0.40297205632E+02  0.00000000000E+00 0.  1.
         21    1    1    2  504  502  0.26406443739E+02 -0.20119801026E+02  0.99147903987E+02  0.10455818251E+03  0.00000000000E+00 0. -1.
<mgrwt>
<rscale>  2 0.33197992E+02</rscale>
<asrwt>0</asrwt>
<pdfrwt beam="1">  1       21 0.17012405E-01 0.33197992E+02</pdfrwt>
<pdfrwt beam="2">  1       21 0.52730392E-02 0.33197992E+02</pdfrwt>
<totfact> 0.66189026E+06</totfact>
</mgrwt>
</event>
<event>
 4    1  0.4556894E+006  0.2584267E+02  0.7546771E-02  0.1649185E+00
         21   -1    0    0  504  501  0.00000000000E+00  0.00000000000E+00  0.25162504592E+02  0.25162504592E+02  0.00000000000E+00 0.  1.
         21   -1    0    0  503  502 -0.00000000000E+00 -0.00000000000E+00 -0.41441714832E+02  0.41441714832E+02  0.00000000000E+00 0.  1.
         21    1    1    2  503  501 -0.20654735829E+02 -0.15531433252E+02  0.11829254159E+02  0.28421379013E+02  0.00000000000E+00 0.  1.
         21    1    1    2  504  502  0.20654735829E+02  0.15531433252E+02 -0.28108464399E+02  0.38182840412E+02  0.00000000000E+00 0.  1.
<mgrwt>
<rscale>  2 0.25842669E+02</rscale>
<asrwt>0</asrwt>
<pdfrwt beam="1">  1       21 0.38711546E-02 0.25842669E+02</pdfrwt>
<pdfrwt beam="2">  1       21 0.63756484E-02 0.25842669E+02</pdfrwt>
<totfact> 0.53661174E+07</totfact>
</mgrwt>
</event>
<event>
 4    1  0.4556894E+006  0.2148308E+02  0.7546771E-02  0.1717348E+00
         21   -1    0    0  503  501  0.00000000000E+00  0.00000000000E+00  0.87657987810E+01  0.87657987810E+01  0.00000000000E+00 0. -1.
         21   -1    0    0  504  502 -0.00000000000E+00 -0.00000000000E+00 -0.12031665321E+03  0.12031665321E+03  0.00000000000E+00 0.  1.
         21    1    1    2  503  502 -0.18447628905E+02  0.11009446314E+02 -0.10417709924E+03  0.10636912582E+03  0.00000000000E+00 0.  1.
         21    1    1    2  504  501  0.18447628905E+02 -0.11009446314E+02 -0.73737551866E+01  0.22713326175E+02  0.00000000000E+00 0. -1.
<mgrwt>
<rscale>  2 0.21483085E+02</rscale>
<asrwt>0</asrwt>
<pdfrwt beam="1">  1       21 0.13485844E-02 0.21483085E+02</pdfrwt>
<pdfrwt beam="2">  1       21 0.18510255E-01 0.21483085E+02</pdfrwt>
<totfact> 0.44122772E+07</totfact>
</mgrwt>
</event>
<event>
 4    1  0.4556894E+006  0.2011973E+02  0.7546771E-02  0.1742958E+00
         21   -1    0    0  504  501  0.00000000000E+00  0.00000000000E+00  0.83938718071E+01  0.83938718071E+01  0.00000000000E+00 0.  1.
         21   -1    0    0  503  502 -0.00000000000E+00 -0.00000000000E+00 -0.10120035191E+03  0.10120035191E+03  0.00000000000E+00 0.  1.
         21    1    1    2  503  501  0.56922740012E+01 -0.19297705472E+02 -0.67572551368E+01  0.21224135242E+02  0.00000000000E+00 0.  1.
         21    1    1    2  504  502 -0.56922740012E+01  0.19297705472E+02 -0.86049224970E+02  0.88370088478E+02  0.00000000000E+00 0.  1.
<mgrwt>
<rscale>  2 0.20119727E+02</rscale>
<asrwt>0</asrwt>
<pdfrwt beam="1">  1       21 0.12913649E-02 0.20119727E+02</pdfrwt>
<pdfrwt beam="2">  1       21 0.15569285E-01 0.20119727E+02</pdfrwt>
<totfact> 0.62263186E+07</totfact>
</mgrwt>
</event>
<event>
 4    1  0.4556894E+006  0.5324007E+02  0.7546771E-02  0.1428610E+00
         21   -1    0    0  504  501  0.00000000000E+00  0.00000000000E+00  0.23595203555E+04  0.23595203555E+04  0.00000000000E+00 0.  1.
         21   -1    0    0  503  502 -0.00000000000E+00 -0.00000000000E+00 -0.88953089562E+01  0.88953089562E+01  0.00000000000E+00 0. -1.
         21    1    1    2  503  501 -0.21108886779E+02  0.48876580588E+02  0.22766580543E+04  0.22772804837E+04  0.00000000000E+00 0.  1.
         21    1    1    2  504  502  0.21108886779E+02 -0.48876580588E+02  0.73966992278E+02  0.91135180791E+02  0.00000000000E+00 0. -1.
<mgrwt>
<rscale>  2 0.53240072E+02</rscale>
<asrwt>0</asrwt>
<pdfrwt beam="1">  1       21 0.36300263E+00 0.53240072E+02</pdfrwt>
<pdfrwt beam="2">  1       21 0.13685109E-02 0.53240072E+02</pdfrwt>
<totfact> 0.43169373E+04</totfact>
</mgrwt>
</event>
<event>
 4    1  0.4556894E+006  0.2940172E+02  0.7546771E-02  0.1604798E+00
         21   -1    0    0  503  501  0.00000000000E+00  0.00000000000E+00  0.22090456530E+02  0.22090456530E+02  0.00000000000E+00 0.  1.
         21   -1    0    0  501  502 -0.00000000000E+00 -0.00000000000E+00 -0.40419942751E+02  0.40419942751E+02  0.00000000000E+00 0.  1.
         21    1    1    2  503  504  0.17587292957E+02 -0.23561584489E+02 -0.35872386395E+01  0.29619747100E+02  0.00000000000E+00 0.  1.
         21    1    1    2  504  502 -0.17587292957E+02  0.23561584489E+02 -0.14742247581E+02  0.32890652181E+02  0.00000000000E+00 0.  1.
<mgrwt>
<rscale>  2 0.29401720E+02</rscale>
<asrwt>0</asrwt>
<pdfrwt beam="1">  1       21 0.33985318E-02 0.29401720E+02</pdfrwt>
<pdfrwt beam="2">  1       21 0.62184527E-02 0.29401720E+02</pdfrwt>
<totfact> 0.70832645E+07</totfact>
</mgrwt>
</event>
<event>
 4    1  0.4556894E+006  0.3136700E+02  0.7546771E-02  0.1583452E+00
         21   -1    0    0  503  501  0.00000000000E+00  0.00000000000E+00  0.29862326677E+02  0.29862326677E+02  0.00000000000E+00 0.  1.
         21   -1    0    0  504  502 -0.00000000000E+00 -0.00000000000E+00 -0.64828030189E+02  0.64828030189E+02  0.00000000000E+00 0.  1.
         21    1    1    2  503  502 -0.29300654689E+02 -0.11196455643E+02  0.15718603364E+02  0.35085089082E+02  0.00000000000E+00 0.  1.
         21    1    1    2  504  501  0.29300654689E+02  0.11196455643E+02 -0.50684306875E+02  0.59605267784E+02  0.00000000000E+00 0.  1.
<mgrwt>
<rscale>  2 0.31367005E+02</rscale>
<asrwt>0</asrwt>
<pdfrwt beam="1">  1       21 0.45942042E-02 0.31367005E+02</pdfrwt>
<pdfrwt beam="2">  1       21 0.99735429E-02 0.31367005E+02</pdfrwt>
<totfact> 0.20390501E+07</totfact>
</mgrwt>
</event>
<event>
 4    1  0.4556894E+006  0.2735102E+02  0.7546771E-02  0.1629362E+00
         21   -1    0    0  502  501  0.00000000000E+00  0.00000000000E+00  0.46516270805E+02  0.46516270805E+02  0.00000000000E+00 0.  1.
         21   -1    0    0  504  502 -0.00000000000E+00 -0.00000000000E+00 -0.26662101365E+02  0.26662101365E+02  0.00000000000E+00 0. -1.
         21    1    1    2  503  501  0.24819814700E+02 -0.11491518357E+02  0.32975916515E+02  0.42842610400E+02  0.00000000000E+00 0.  1.
         21    1    1    2  504  503 -0.24819814700E+02  0.11491518357E+02 -0.13121747075E+02  0.30335761771E+02  0.00000000000E+00 0. -1.
<mgrwt>
<rscale>  2 0.27351018E+02</rscale>
<asrwt>0</asrwt>
<pdfrwt beam="1">  1       21 0.71563493E-02 0.27351018E+02</pdfrwt>
<pdfrwt beam="2">  1       21 0.41018618E-02 0.27351018E+02</pdfrwt>
<totfact> 0.41119710E+07</totfact>
</mgrwt>
</event>
<event>
 4    1  0.4556894E+006  0.3200436E+02  0.7546771E-02  0.1576934E+00
         21   -1    0    0  503  501  0.00000000000E+00  0.00000000000E+00  0.11437830497E+02  0.11437830497E+02  0.00000000000E+00 0.  1.
         21   -1    0    0  504  502 -0.00000000000E+00 -0.00000000000E+00 -0.12786145977E+03  0.12786145977E+03  0.00000000000E+00 0.  1.
         21    1    1    2  503  502 -0.29925137633E+02 -0.11347463963E+02 -0.20087417694E+02  0.37786017922E+02  0.00000000000E+00 0.  1.
         21    1    1    2  504  501  0.29925137633E+02  0.11347463963E+02 -0.96336211579E+02  0.10151327234E+03  0.00000000000E+00 0.  1.
<mgrwt>
<rscale>  2 0.32004356E+02</rscale>
<asrwt>0</asrwt>
<pdfrwt beam="1">  1       21 0.17596663E-02 0.32004356E+02</pdfrwt>
<pdfrwt beam="2">  1       21 0.19670993E-01 0.32004356E+02</pdfrwt>
<totfact> 0.28855119E+07</totfact>
</mgrwt>
</event>
<event>
 4    1  0.4556894E+006  0.3152947E+02  0.7546771E-02  0.1581773E+00
         21   -1    0    0  504  501  0.00000000000E+00  0.00000000000E+00  0.37482349831E+01  0.37482349831E+01  0.00000000000E+00 0. -1.
         21   -1    0    0  503  502 -0.00000000000E+00 -0.00000000000E+00 -0.33272236748E+03  0.33272236748E+03  0.00000000000E+00 0. -1.
         21    1    1    2  503  501 -0.83767311628E+01 -0.30396345980E+02 -0.24026366814E+03  0.24232362184E+03  0.00000000000E+00 0. -1.
         21    1    1    2  504  502  0.83767311628E+01  0.30396345980E+02 -0.88710464357E+02  0.94146980623E+02  0.00000000000E+00 0. -1.
<mgrwt>
<rscale>  2 0.31529470E+02</rscale>
<asrwt>0</asrwt>
<pdfrwt beam="1">  1       21 0.57665147E-03 0.31529470E+02</pdfrwt>
<pdfrwt beam="2">  1       21 0.51188063E-01 0.31529470E+02</pdfrwt>
<totfact> 0.26449959E+07</totfact>
</mgrwt>
</event>
<event>
 4    1  0.4556894E+006  0.3563537E+02  0.7546771E-02  0.1543030E+00
         21   -1    0    0  502  501  0.00000000000E+00  0.00000000000E+00  0.22075135758E+02  0.22075135758E+02  0.00000000000E+00 0. -1.
         21   -1    0    0  504  502 -0.00000000000E+00 -0.00000000000E+00 -0.75881200687E+02  0.75881200687E+02  0.00000000000E+00 0. -1.
         21    1    1    2  503  501 -0.61953379339E+01 -0.35092702010E+02 -0.28138156523E+01  0.35746293584E+02  0.00000000000E+00 0. -1.
         21    1    1    2  504  503  0.61953379339E+01  0.35092702010E+02 -0.50992249276E+02  0.62210042861E+02  0.00000000000E+00 0. -1.
<mgrwt>
<rscale>  2 0.35635375E+02</rscale>
<asrwt>0</asrwt>
<pdfrwt beam="1">  1       21 0.33961748E-02 0.35635375E+02</pdfrwt>
<pdfrwt beam="2">  1       21 0.11674031E-01 0.35635375E+02</pdfrwt>
<totfact> 0.25931570E+07</totfact>
</mgrwt>
</event>
<event>
 4    1  0.4556894E+006  0.2174509E+02  0.7546771E-02  0.1712698E+00
         21   -1    0    0  503  501  0.00000000000E+00  0.00000000000E+00  0.28229082419E+01  0.28229082419E+01  0.00000000000E+00 0.  1.
         21   -1    0    0  501  502 -0.00000000000E+00 -0.00000000000E+00 -0.20727623329E+03  0.20727623329E+03  0.00000000000E+00 0. -1.
         21    1    1    2  503  504 -0.98017283600E+01 -0.19410693854E+02 -0.56210694282E+02  0.60270150708E+02  0.00000000000E+00 0.  1.
         21    1    1    2  504  502  0.98017283600E+01  0.19410693854E+02 -0.14824263076E+03  0.14982899082E+03  0.00000000000E+00 0. -1.
<mgrwt>
<rscale>  2 0.21745089E+02</rscale>
<asrwt>0</asrwt>
<pdfrwt beam="1">  1       21 0.43429372E-03 0.21745089E+02</pdfrwt>
<pdfrwt beam="2">  1       21 0.31888641E-01 0.21745089E+02</pdfrwt>
<totfact> 0.91033183E+07</totfact>
</mgrwt>
</event>
<event>
 4    1  0.4556894E+006  0.2040601E+02  0.7546771E-02  0.1737373E+00
         21   -1    0    0  504  501  0.00000000000E+00  0.00000000000E+00  0.37922846560E+03  0.37922846560E+03  0.00000000000E+00 0. -1.
         21   -1    0    0  503  502 -0.00000000000E+00 -0.00000000000E+00 -0.12718817873E+01  0.12718817873E+01  0.00000000000E+00 0. -1.
         21    1    1    2  503  501  0.12249307132E+02 -0.16320526964E+02  0.25931601809E+03  0.26011767023E+03  0.00000000000E+00 0. -1.
         21    1    1    2  504  502 -0.12249307132E+02  0.16320526964E+02  0.11864056572E+03  0.12038267716E+03  0.00000000000E+00 0. -1.
<mgrwt>
<rscale>  2 0.20406007E+02</rscale>
<asrwt>0</asrwt>
<pdfrwt beam="1">  1       21 0.58342750E-01 0.20406007E+02</pdfrwt>
<pdfrwt beam="2">  1       21 0.19567442E-03 0.20406007E+02</pdfrwt>
<totfact> 0.90466104E+07</totfact>
</mgrwt>
</event>
<event>
 4    1  0.4556894E+006  0.2330479E+02  0.7546771E-02  0.1686617E+00
         21   -1    0    0  503  501  0.00000000000E+00  0.00000000000E+00  0.59047020835E+01  0.59047020835E+01  0.00000000000E+00 0. -1.
         21   -1    0    0  504  502 -0.00000000000E+00 -0.00000000000E+00 -0.15330248873E+03  0.15330248873E+03  0.00000000000E+00 0. -1.
         21    1    1    2  503  502 -0.13672025727E+02  0.18872963471E+02 -0.23352444553E+02  0.32991661132E+02  0.00000000000E+00 0. -1.
         21    1    1    2  504  501  0.13672025727E+02 -0.18872963471E+02 -0.12404534209E+03  0.12621552968E+03  0.00000000000E+00 0. -1.
<mgrwt>
<rscale>  2 0.23304786E+02</rscale>
<asrwt>0</asrwt>
<pdfrwt beam="1">  1       21 0.90841566E-03 0.23304786E+02</pdfrwt>
<pdfrwt beam="2">  1       21 0.23585000E-01 0.23304786E+02</pdfrwt>
<totfact> 0.53412207E+07</totfact>
</mgrwt>
</event>
<event>
 4    1  0.4556894E+006  0.2158658E+02  0.7546771E-02  0.1715501E+00
         21   -1    0    0  504  501  0.00000000000E+00  0.00000000000E+00  0.11846007440E+02  0.11846007440E+02  0.00000000000E+00 0. -1.
         21   -1    0    0  503  502 -0.00000000000E+00 -0.00000000000E+00 -0.63529734271E+03  0.63529734271E+03  0.00000000000E+00 0.  1.
         21    1    1    2  503  501  0.20190236654E+02 -0.76377234117E+01 -0.62511978521E+03  0.62549238712E+03  0.00000000000E+00 0.  1.
         21    1    1    2  504  502 -0.20190236654E+02  0.76377234117E+01  0.16684499448E+01  0.21650963033E+02  0.00000000000E+00 0. -1.
<mgrwt>
<rscale>  2 0.21586581E+02</rscale>
<asrwt>0</asrwt>
<pdfrwt beam="1">  1       21 0.18224625E-02 0.21586581E+02</pdfrwt>
<pdfrwt beam="2">  1       21 0.97738062E-01 0.21586581E+02</pdfrwt>
<totfact> 0.11598263E+06</totfact>
</mgrwt>
</event>
<event>
 4    1  0.4556894E+006  0.2337679E+02  0.7546771E-02  0.1685474E+00
         21   -1    0    0  504  501  0.00000000000E+00  0.00000000000E+00  0.23220614803E+03  0.23220614803E+03  0.00000000000E+00 0. -1.
         21   -1    0    0  503  502 -0.00000000000E+00 -0.00000000000E+00 -0.24402151586E+01  0.24402151586E+01  0.00000000000E+00 0. -1.
         21    1    1    2  503  501  0.52628712128E+01 -0.22776660627E+02  0.92753746263E+02  0.95654229016E+02  0.00000000000E+00 0. -1.
         21    1    1    2  504  502 -0.52628712128E+01  0.22776660627E+02  0.13701218661E+03  0.13899213417E+03  0.00000000000E+00 0. -1.
<mgrwt>
<rscale>  2 0.23376785E+02</rscale>
<asrwt>0</asrwt>
<pdfrwt beam="1">  1       21 0.35724005E-01 0.23376785E+02</pdfrwt>
<pdfrwt beam="2">  1       21 0.37541790E-03 0.23376785E+02</pdfrwt>
<totfact> 0.93206346E+07</totfact>
</mgrwt>
</event>
<event>
 4    1  0.4556894E+006  0.3612488E+02  0.7546771E-02  0.1538832E+00
         21   -1    0    0  502  501  0.00000000000E+00  0.00000000000E+00  0.10204530602E+03  0.10204530602E+03  0.00000000000E+00 0.  1.
         21   -1    0    0  503  502 -0.00000000000E+00 -0.00000000000E+00 -0.23351939399E+02  0.23351939399E+02  0.00000000000E+00 0.  1.
         21    1    1    2  503  504  0.32444694916E+02  0.15885483164E+02 -0.28228809908E+01  0.36235003251E+02  0.00000000000E+00 0.  1.
         21    1    1    2  504  501 -0.32444694916E+02 -0.15885483164E+02  0.81516247615E+02  0.89162242170E+02  0.00000000000E+00 0.  1.
<mgrwt>
<rscale>  2 0.36124878E+02</rscale>
<asrwt>0</asrwt>
<pdfrwt beam="1">  1       21 0.15699278E-01 0.36124878E+02</pdfrwt>
<pdfrwt beam="2">  1       21 0.35926061E-02 0.36124878E+02</pdfrwt>
<totfact> 0.14278814E+07</totfact>
</mgrwt>
</event>
<event>
 4    1  0.4556894E+006  0.3677256E+02  0.7546771E-02  0.1533401E+00
         21   -1    0    0  504  501  0.00000000000E+00  0.00000000000E+00  0.11389045295E+04  0.11389045295E+04  0.00000000000E+00 0. -1.
         21   -1    0    0  501  502 -0.00000000000E+00 -0.00000000000E+00 -0.17851943077E+01  0.17851943077E+01  0.00000000000E+00 0. -1.
         21    1    1    2  503  502 -0.74739949587E+00  0.36764963727E+02  0.23848890635E+03  0.24130723075E+03  0.00000000000E+00 0. -1.
         21    1    1    2  504  503  0.74739949587E+00 -0.36764963727E+02  0.89863042886E+03  0.89938249306E+03  0.00000000000E+00 0. -1.
<mgrwt>
<rscale>  2 0.36772560E+02</rscale>
<asrwt>0</asrwt>
<pdfrwt beam="1">  1       21 0.17521550E+00 0.36772560E+02</pdfrwt>
<pdfrwt beam="2">  1       21 0.27464619E-03 0.36772560E+02</pdfrwt>
<totfact> 0.52908647E+06</totfact>
</mgrwt>
</event>
<event>
 4    1  0.4556894E+006  0.2222260E+02  0.7546771E-02  0.1704430E+00
         21   -1    0    0  503  501  0.00000000000E+00  0.00000000000E+00  0.18860769374E+03  0.18860769374E+03  0.00000000000E+00 0. -1.
         21   -1    0    0  501  502 -0.00000000000E+00 -0.00000000000E+00 -0.39659881426E+01  0.39659881426E+01  0.00000000000E+00 0. -1.
         21    1    1    2  503  504 -0.15755858747E+02  0.15671529147E+02  0.14844830835E+03  0.15010244556E+03  0.00000000000E+00 0. -1.
         21    1    1    2  504  502  0.15755858747E+02 -0.15671529147E+02  0.36193397254E+02  0.42471236330E+02  0.00000000000E+00 0. -1.
<mgrwt>
<rscale>  2 0.22222599E+02</rscale>
<asrwt>0</asrwt>
<pdfrwt beam="1">  1       21 0.29016561E-01 0.22222599E+02</pdfrwt>
<pdfrwt beam="2">  1       21 0.61015217E-03 0.22222599E+02</pdfrwt>
<totfact> 0.65860348E+07</totfact>
</mgrwt>
</event>
<event>
 4    1  0.4556894E+006  0.2076575E+02  0.7546771E-02  0.1730515E+00
         21   -1    0    0  502  501  0.00000000000E+00  0.00000000000E+00  0.10262491020E+03  0.10262491020E+03  0.00000000000E+00 0.  1.
         21   -1    0    0  503  502 -0.00000000000E+00 -0.00000000000E+00 -0.12690328589E+03  0.12690328589E+03  0.00000000000E+00 0. -1.
         21    1    1    2  503  504  0.12271805088E+02  0.16751687306E+02 -0.12498732816E+03  0.12670062520E+03  0.00000000000E+00 0. -1.
         21    1    1    2  504  501 -0.12271805088E+02 -0.16751687306E+02  0.10070895246E+03  0.10282757088E+03  0.00000000000E+00 0.  1.
<mgrwt>
<rscale>  2 0.20765747E+02</rscale>
<asrwt>0</asrwt>
<pdfrwt beam="1">  1       21 0.15788448E-01 0.20765747E+02</pdfrwt>
<pdfrwt beam="2">  1       21 0.19523582E-01 0.20765747E+02</pdfrwt>
<totfact> 0.80219243E+05</totfact>
</mgrwt>
</event>
<event>
 4    1  0.4556894E+006  0.3733552E+02  0.7546771E-02  0.1528788E+00
         21   -1    0    0  502  501  0.00000000000E+00  0.00000000000E+00  0.11923921805E+02  0.11923921805E+02  0.00000000000E+00 0.  1.
         21   -1    0    0  503  502 -0.00000000000E+00 -0.00000000000E+00 -0.14162842140E+03  0.14162842140E+03  0.00000000000E+00 0.  1.
         21    1    1    2  503  504  0.90822772423E+00 -0.37324471104E+02 -0.96931483646E+02  0.10387325711E+03  0.00000000000E+00 0.  1.
         21    1    1    2  504  501 -0.90822772423E+00  0.37324471104E+02 -0.32773015946E+02  0.49679086093E+02  0.00000000000E+00 0.  1.
<mgrwt>
<rscale>  2 0.37335520E+02</rscale>
<asrwt>0</asrwt>
<pdfrwt beam="1">  1       21 0.18344495E-02 0.37335520E+02</pdfrwt>
<pdfrwt beam="2">  1       21 0.21788988E-01 0.37335520E+02</pdfrwt>
<totfact> 0.23180611E+07</totfact>
</mgrwt>
</event>
<event>
 4    1  0.4556894E+006  0.2472815E+02  0.7546771E-02  0.1664938E+00
         21   -1    0    0  503  501  0.00000000000E+00  0.00000000000E+00  0.11679705343E+04  0.11679705343E+04  0.00000000000E+00 0.  1.
         21   -1    0    0  504  502 -0.00000000000E+00 -0.00000000000E+00 -0.12072098558E+01  0.12072098558E+01  0.00000000000E+00 0. -1.
         21    1    1    2  503  502 -0.16430553177E+02  0.18480210597E+02  0.14345342497E+03  0.14556911210E+03  0.00000000000E+00 0. -1.
         21    1    1    2  504  501  0.16430553177E+02 -0.18480210597E+02  0.10233098995E+04  0.10236086321E+04  0.00000000000E+00 0.  1.
<mgrwt>
<rscale>  2 0.24728147E+02</rscale>
<asrwt>0</asrwt>
<pdfrwt beam="1">  1       21 0.17968687E+00 0.24728147E+02</pdfrwt>
<pdfrwt beam="2">  1       21 0.18572553E-03 0.24728147E+02</pdfrwt>
<totfact> 0.84716495E+06</totfact>
</mgrwt>
</event>
<event>
 4    1  0.4556894E+006  0.3157863E+02  0.7546771E-02  0.1581267E+00
         21   -1    0    0  503  501  0.00000000000E+00  0.00000000000E+00  0.36321046378E+03  0.36321046378E+03  0.00000000000E+00 0.  1.
         21   -1    0    0  504  502 -0.00000000000E+00 -0.00000000000E+00 -0.27793338053E+01  0.27793338053E+01  0.00000000000E+00 0.  1.
         21    1    1    2  503  502 -0.31390261762E+02 -0.34440556818E+01  0.16003812739E+03  0.16312391692E+03  0.00000000000E+00 0.  1.
         21    1    1    2  504  501  0.31390261762E+02  0.34440556818E+01  0.20039300259E+03  0.20286588067E+03  0.00000000000E+00 0.  1.
<mgrwt>
<rscale>  2 0.31578633E+02</rscale>
<asrwt>0</asrwt>
<pdfrwt beam="1">  1       21 0.55878495E-01 0.31578633E+02</pdfrwt>
<pdfrwt beam="2">  1       21 0.42759010E-03 0.31578633E+02</pdfrwt>
<totfact> 0.34698897E+07</totfact>
</mgrwt>
</event>
<event>
 4    1  0.4556894E+006  0.2075275E+02  0.7546771E-02  0.1730760E+00
         21   -1    0    0  503  501  0.00000000000E+00  0.00000000000E+00  0.54150265115E+03  0.54150265115E+03  0.00000000000E+00 0. -1.
         21   -1    0    0  501  502 -0.00000000000E+00 -0.00000000000E+00 -0.13781595253E+01  0.13781595253E+01  0.00000000000E+00 0. -1.
         21    1    1    2  503  504 -0.14882897324E+02  0.14462921641E+02  0.44658193769E+03  0.44706386994E+03  0.00000000000E+00 0. -1.
         21    1    1    2  504  502  0.14882897324E+02 -0.14462921641E+02  0.93542553935E+02  0.95816940735E+02  0.00000000000E+00 0. -1.
<mgrwt>
<rscale>  2 0.20752752E+02</rscale>
<asrwt>0</asrwt>
<pdfrwt beam="1">  1       21 0.83307930E-01 0.20752752E+02</pdfrwt>
<pdfrwt beam="2">  1       21 0.21202497E-03 0.20752752E+02</pdfrwt>
<totfact> 0.39140083E+07</totfact>
</mgrwt>
</event>
<event>
 4    1  0.4556894E+006  0.2937968E+02  0.7546771E-02  0.1605048E+00
         21   -1    0    0  504  501  0.00000000000E+00  0.00000000000E+00  0.10534748157E+02  0.10534748157E+02  0.00000000000E+00 0.  1.
         21   -1    0    0  503  502 -0.00000000000E+00 -0.00000000000E+00 -0.13575679566E+03  0.13575679566E+03  0.00000000000E+00 0.  1.
         21    1    1    2  503  501  0.24281172408E+02 -0.16540562824E+02 -0.16554923551E+02  0.33722856430E+02  0.00000000000E+00 0.  1.
         21    1    1    2  504  502 -0.24281172408E+02  0.16540562824E+02 -0.10866712395E+03  0.11256868738E+03  0.00000000000E+00 0.  1.
<mgrwt>
<rscale>  2 0.29379679E+02</rscale>
<asrwt>0</asrwt>
<pdfrwt beam="1">  1       21 0.16207305E-02 0.29379679E+02</pdfrwt>
<pdfrwt beam="2">  1       21 0.20885660E-01 0.29379679E+02</pdfrwt>
<totfact> 0.28984813E+07</totfact>
</mgrwt>
</event>
<event>
 4    1  0.4556894E+006  0.2193415E+02  0.7546771E-02  0.1709393E+00
         21   -1    0    0  503  501  0.00000000000E+00  0.00000000000E+00  0.32146269844E+02  0.32146269844E+02  0.00000000000E+00 0.  1.
         21   -1    0    0  501  502 -0.00000000000E+00 -0.00000000000E+00 -0.28026971044E+02  0.28026971044E+02  0.00000000000E+00 0. -1.
         21    1    1    2  503  504 -0.94208167800E+01 -0.19807954417E+02  0.22598213260E+02  0.31492635481E+02  0.00000000000E+00 0.  1.
         21    1    1    2  504  502  0.94208167800E+01  0.19807954417E+02 -0.18478914460E+02  0.28680605408E+02  0.00000000000E+00 0. -1.
<mgrwt>
<rscale>  2 0.21934148E+02</rscale>
<asrwt>0</asrwt>
<pdfrwt beam="1">  1       21 0.49455800E-02 0.21934148E+02</pdfrwt>
<pdfrwt beam="2">  1       21 0.43118417E-02 0.21934148E+02</pdfrwt>
<totfact> 0.65166979E+07</totfact>
</mgrwt>
</event>
<event>
 4    1  0.4556894E+006  0.2241160E+02  0.7546771E-02  0.1701229E+00
         21   -1    0    0  504  501  0.00000000000E+00  0.00000000000E+00  0.27209386906E+01  0.27209386906E+01  0.00000000000E+00 0. -1.
         21   -1    0    0  503  502 -0.00000000000E+00 -0.00000000000E+00 -0.33842433321E+03  0.33842433321E+03  0.00000000000E+00 0.  1.
         21    1    1    2  503  501 -0.21401904812E+02 -0.66511848497E+01 -0.52852729988E+02  0.57408107935E+02  0.00000000000E+00 0. -1.
         21    1    1    2  504  502  0.21401904812E+02  0.66511848497E+01 -0.28285066453E+03  0.28373716397E+03  0.00000000000E+00 0.  1.
<mgrwt>
<rscale>  2 0.22411599E+02</rscale>
<asrwt>0</asrwt>
<pdfrwt beam="1">  1       21 0.41860598E-03 0.22411599E+02</pdfrwt>
<pdfrwt beam="2">  1       21 0.52065279E-01 0.22411599E+02</pdfrwt>
<totfact> 0.38383756E+07</totfact>
</mgrwt>
</event>
<event>
 4    1  0.4556894E+006  0.2496251E+02  0.7546771E-02  0.1661541E+00
         21   -1    0    0  502  501  0.00000000000E+00  0.00000000000E+00  0.92435872538E+00  0.92435872538E+00  0.00000000000E+00 0. -1.
         21   -1    0    0  504  502 -0.00000000000E+00 -0.00000000000E+00 -0.71397898025E+03  0.71397898025E+03  0.00000000000E+00 0. -1.
         21    1    1    2  503  501  0.18440246311E+02  0.16825105030E+02 -0.27206777807E+03  0.27321054647E+03  0.00000000000E+00 0. -1.
         21    1    1    2  504  503 -0.18440246311E+02 -0.16825105030E+02 -0.44098684346E+03  0.44169279250E+03  0.00000000000E+00 0. -1.
<mgrwt>
<rscale>  2 0.24962509E+02</rscale>
<asrwt>0</asrwt>
<pdfrwt beam="1">  1       21 0.14220925E-03 0.24962509E+02</pdfrwt>
<pdfrwt beam="2">  1       21 0.10984275E+00 0.24962509E+02</pdfrwt>
<totfact> 0.39713521E+07</totfact>
</mgrwt>
</event>
<event>
 4    1  0.4556894E+006  0.2214649E+02  0.7546771E-02  0.1705731E+00
         21   -1    0    0  504  501  0.00000000000E+00  0.00000000000E+00  0.46701730738E+03  0.46701730738E+03  0.00000000000E+00 0. -1.
         21   -1    0    0  503  502 -0.00000000000E+00 -0.00000000000E+00 -0.10743779798E+01  0.10743779798E+01  0.00000000000E+00 0. -1.
         21    1    1    2  503  501 -0.12966928430E+01  0.22108492924E+02  0.26807335669E+03  0.26898660086E+03  0.00000000000E+00 0. -1.
         21    1    1    2  504  502  0.12966928430E+01 -0.22108492924E+02  0.19786957271E+03  0.19910508450E+03  0.00000000000E+00 0. -1.
<mgrwt>
<rscale>  2 0.22146487E+02</rscale>
<asrwt>0</asrwt>
<pdfrwt beam="1">  1       21 0.71848654E-01 0.22146487E+02</pdfrwt>
<pdfrwt beam="2">  1       21 0.16528929E-03 0.22146487E+02</pdfrwt>
<totfact> 0.77350861E+07</totfact>
</mgrwt>
</event>
<event>
 4    1  0.4556894E+006  0.2085512E+02  0.7546771E-02  0.1728839E+00
         21   -1    0    0  504  501  0.00000000000E+00  0.00000000000E+00  0.89167221225E+01  0.89167221225E+01  0.00000000000E+00 0. -1.
         21   -1    0    0  503  502 -0.00000000000E+00 -0.00000000000E+00 -0.15539279141E+03  0.15539279141E+03  0.00000000000E+00 0.  1.
         21    1    1    2  503  501 -0.25885476735E+01 -0.20693851892E+02 -0.14128783818E+03  0.14281872883E+03  0.00000000000E+00 0.  1.
         21    1    1    2  504  502  0.25885476735E+01  0.20693851892E+02 -0.51882311016E+01  0.21490784703E+02  0.00000000000E+00 0. -1.
<mgrwt>
<rscale>  2 0.20855121E+02</rscale>
<asrwt>0</asrwt>
<pdfrwt beam="1">  1       21 0.13718034E-02 0.20855121E+02</pdfrwt>
<pdfrwt beam="2">  1       21 0.23906583E-01 0.20855121E+02</pdfrwt>
<totfact> 0.27304703E+07</totfact>
</mgrwt>
</event>
<event>
 4    1  0.4556894E+006  0.2622490E+02  0.7546771E-02  0.1644007E+00
         21   -1    0    0  503  501  0.00000000000E+00  0.00000000000E+00  0.67444131082E+01  0.67444131082E+01  0.00000000000E+00 0. -1.
         21   -1    0    0  504  502 -0.00000000000E+00 -0.00000000000E+00 -0.15832479026E+03  0.15832479026E+03  0.00000000000E+00 0. -1.
         21    1    1    2  503  502  0.26209243524E+02 -0.90600305799E+00 -0.26550303654E+02  0.37318412503E+02  0.00000000000E+00 0. -1.
         21    1    1    2  504  501 -0.26209243524E+02  0.90600305799E+00 -0.12503007350E+03  0.12775079086E+03  0.00000000000E+00 0. -1.
<mgrwt>
<rscale>  2 0.26224898E+02</rscale>
<asrwt>0</asrwt>
<pdfrwt beam="1">  1       21 0.10376020E-02 0.26224898E+02</pdfrwt>
<pdfrwt beam="2">  1       21 0.24357661E-01 0.26224898E+02</pdfrwt>
<totfact> 0.42450136E+07</totfact>
</mgrwt>
</event>
<event>
 4    1  0.4556894E+006  0.2194455E+02  0.7546771E-02  0.1709213E+00
         21   -1    0    0  504  501  0.00000000000E+00  0.00000000000E+00  0.63725065668E+00  0.63725065668E+00  0.00000000000E+00 0. -1.
         21   -1    0    0  503  502 -0.00000000000E+00 -0.00000000000E+00 -0.10578499642E+04  0.10578499642E+04  0.00000000000E+00 0. -1.
         21    1    1    2  503  501 -0.21468843312E+02 -0.45444737746E+01 -0.81146052140E+03  0.81175719354E+03  0.00000000000E+00 0. -1.
         21    1    1    2  504  502  0.21468843312E+02  0.45444737746E+01 -0.24575219210E+03  0.24673002127E+03  0.00000000000E+00 0. -1.
<mgrwt>
<rscale>  2 0.21944555E+02</rscale>
<asrwt>0</asrwt>
<pdfrwt beam="1">  1       21 0.98037559E-04 0.21944555E+02</pdfrwt>
<pdfrwt beam="2">  1       21 0.16274781E+00 0.21944555E+02</pdfrwt>
<totfact> 0.26512363E+07</totfact>
</mgrwt>
</event>
<event>
 4    1  0.4556894E+006  0.3593327E+02  0.7546771E-02  0.1540466E+00
         21   -1    0    0  503  501  0.00000000000E+00  0.00000000000E+00  0.27369440828E+02  0.27369440828E+02  0.00000000000E+00 0. -1.
         21   -1    0    0  501  502 -0.00000000000E+00 -0.00000000000E+00 -0.65385767027E+02  0.65385767027E+02  0.00000000000E+00 0. -1.
         21    1    1    2  503  504 -0.23972379367E+02 -0.26767978803E+02  0.54661576075E+01  0.36346644146E+02  0.00000000000E+00 0. -1.
         21    1    1    2  504  502  0.23972379367E+02  0.26767978803E+02 -0.43482483807E+02  0.56408563709E+02  0.00000000000E+00 0. -1.
<mgrwt>
<rscale>  2 0.35933267E+02</rscale>
<asrwt>0</asrwt>
<pdfrwt beam="1">  1       21 0.42106832E-02 0.35933267E+02</pdfrwt>
<pdfrwt beam="2">  1       21 0.10059349E-01 0.35933267E+02</pdfrwt>
<totfact> 0.23696090E+07</totfact>
</mgrwt>
</event>
<event>
 4    1  0.4556894E+006  0.2033805E+02  0.7546771E-02  0.1738688E+00
         21   -1    0    0  503  501  0.00000000000E+00  0.00000000000E+00  0.57619861560E+02  0.57619861560E+02  0.00000000000E+00 0.  1.
         21   -1    0    0  501  502 -0.00000000000E+00 -0.00000000000E+00 -0.15343174703E+03  0.15343174703E+03  0.00000000000E+00 0.  1.
         21    1    1    2  503  504  0.20135036389E+02  0.28664724927E+01  0.55121637647E+02  0.58753989582E+02  0.00000000000E+00 0.  1.
         21    1    1    2  504  502 -0.20135036389E+02 -0.28664724927E+01 -0.15093352311E+03  0.15229761900E+03  0.00000000000E+00 0.  1.
<mgrwt>
<rscale>  2 0.20338052E+02</rscale>
<asrwt>0</asrwt>
<pdfrwt beam="1">  1       21 0.88645941E-02 0.20338052E+02</pdfrwt>
<pdfrwt beam="2">  1       21 0.23604884E-01 0.20338052E+02</pdfrwt>
<totfact> 0.15024986E+06</totfact>
</mgrwt>
</event>
<event>
 4    1  0.4556894E+006  0.2384132E+02  0.7546771E-02  0.1678225E+00
         21   -1    0    0  503  501  0.00000000000E+00  0.00000000000E+00  0.18223853210E+02  0.18223853210E+02  0.00000000000E+00 0.  1.
         21   -1    0    0  504  502 -0.00000000000E+00 -0.00000000000E+00 -0.53135709209E+02  0.53135709209E+02  0.00000000000E+00 0.  1.
         21    1    1    2  503  502  0.14561756610E+02 -0.18877599292E+02  0.54738688473E+01  0.24461638350E+02  0.00000000000E+00 0.  1.
         21    1    1    2  504  501 -0.14561756610E+02  0.18877599292E+02 -0.40385724846E+02  0.46897924069E+02  0.00000000000E+00 0.  1.
<mgrwt>
<rscale>  2 0.23841319E+02</rscale>
<asrwt>0</asrwt>
<pdfrwt beam="1">  1       21 0.28036697E-02 0.23841319E+02</pdfrwt>
<pdfrwt beam="2">  1       21 0.81747246E-02 0.23841319E+02</pdfrwt>
<totfact> 0.58201539E+07</totfact>
</mgrwt>
</event>
<event>
 4    1  0.4556894E+006  0.2224342E+02  0.7546771E-02  0.1704076E+00
         21   -1    0    0  502  501  0.00000000000E+00  0.00000000000E+00  0.17868673805E+03  0.17868673805E+03  0.00000000000E+00 0. -1.
         21   -1    0    0  503  502 -0.00000000000E+00 -0.00000000000E+00 -0.99793864820E+01  0.99793864820E+01  0.00000000000E+00 0. -1.
         21    1    1    2  503  504 -0.10874890564E+02  0.19403770322E+02  0.41685807518E+01  0.22630656486E+02  0.00000000000E+00 0. -1.
         21    1    1    2  504  501  0.10874890564E+02 -0.19403770322E+02  0.16453877082E+03  0.16603546805E+03  0.00000000000E+00 0. -1.
<mgrwt>
<rscale>  2 0.22243416E+02</rscale>
<asrwt>0</asrwt>
<pdfrwt beam="1">  1       21 0.27490265E-01 0.22243416E+02</pdfrwt>
<pdfrwt beam="2">  1       21 0.15352904E-02 0.22243416E+02</pdfrwt>
<totfact> 0.18208643E+07</totfact>
</mgrwt>
</event>
<event>
 4    1  0.4556894E+006  0.2256936E+02  0.7546771E-02  0.1698587E+00
         21   -1    0    0  504  501  0.00000000000E+00  0.00000000000E+00  0.68841339295E+01  0.68841339295E+01  0.00000000000E+00 0.  1.
         21   -1    0    0  503  502 -0.00000000000E+00 -0.00000000000E+00 -0.17055981491E+03  0.17055981491E+03  0.00000000000E+00 0. -1.
         21    1    1    2  503  501 -0.18709486191E+02  0.12622647302E+02 -0.15079224594E+02  0.27143306961E+02  0.00000000000E+00 0.  1.
         21    1    1    2  504  502  0.18709486191E+02 -0.12622647302E+02 -0.14859645639E+03  0.15030064188E+03  0.00000000000E+00 0. -1.
<mgrwt>
<rscale>  2 0.22569362E+02</rscale>
<asrwt>0</asrwt>
<pdfrwt beam="1">  1       21 0.10590976E-02 0.22569362E+02</pdfrwt>
<pdfrwt beam="2">  1       21 0.26239969E-01 0.22569362E+02</pdfrwt>
<totfact> 0.34806169E+07</totfact>
</mgrwt>
</event>
<event>
 4    1  0.4556894E+006  0.2282261E+02  0.7546771E-02  0.1694402E+00
         21   -1    0    0  504  501  0.00000000000E+00  0.00000000000E+00  0.30409841428E+01  0.30409841428E+01  0.00000000000E+00 0.  1.
         21   -1    0    0  503  502 -0.00000000000E+00 -0.00000000000E+00 -0.38349900602E+03  0.38349900602E+03  0.00000000000E+00 0. -1.
         21    1    1    2  503  501  0.14244109274E+02  0.17831911920E+02 -0.33399972357E+03  0.33477856424E+03  0.00000000000E+00 0. -1.
         21    1    1    2  504  502 -0.14244109274E+02 -0.17831911920E+02 -0.46458298315E+02  0.51761425928E+02  0.00000000000E+00 0.  1.
<mgrwt>
<rscale>  2 0.22822614E+02</rscale>
<asrwt>0</asrwt>
<pdfrwt beam="1">  1       21 0.46784356E-03 0.22822614E+02</pdfrwt>
<pdfrwt beam="2">  1       21 0.58999867E-01 0.22822614E+02</pdfrwt>
<totfact> 0.25573264E+07</totfact>
</mgrwt>
</event>
<event>
 4    1  0.4556894E+006  0.2041645E+02  0.7546771E-02  0.1737171E+00
         21   -1    0    0  502  501  0.00000000000E+00  0.00000000000E+00  0.12551528771E+02  0.12551528771E+02  0.00000000000E+00 0. -1.
         21   -1    0    0  504  502 -0.00000000000E+00 -0.00000000000E+00 -0.33318585694E+02  0.33318585694E+02  0.00000000000E+00 0. -1.
         21    1    1    2  503  501  0.42849310737E+01 -0.19961735963E+02 -0.90719456384E+01  0.22341256335E+02  0.00000000000E+00 0. -1.
         21    1    1    2  504  503 -0.42849310737E+01  0.19961735963E+02 -0.11695111284E+02  0.23528858130E+02  0.00000000000E+00 0. -1.
<mgrwt>
<rscale>  2 0.20416453E+02</rscale>
<asrwt>0</asrwt>
<pdfrwt beam="1">  1       21 0.19310044E-02 0.20416453E+02</pdfrwt>
<pdfrwt beam="2">  1       21 0.51259363E-02 0.20416453E+02</pdfrwt>
<totfact> 0.20938825E+08</totfact>
</mgrwt>
</event>
<event>
 4    1  0.4556894E+006  0.2209044E+02  0.7546771E-02  0.1706693E+00
         21   -1    0    0  504  501  0.00000000000E+00  0.00000000000E+00  0.71262176776E+01  0.71262176776E+01  0.00000000000E+00 0. -1.
         21   -1    0    0  501  502 -0.00000000000E+00 -0.00000000000E+00 -0.17044414497E+03  0.17044414497E+03  0.00000000000E+00 0. -1.
         21    1    1    2  503  502 -0.20619595735E+02 -0.79258812841E+01 -0.15033069294E+03  0.15194507087E+03  0.00000000000E+00 0. -1.
         21    1    1    2  504  503  0.20619595735E+02  0.79258812841E+01 -0.12987234349E+02  0.25625291773E+02  0.00000000000E+00 0. -1.
<mgrwt>
<rscale>  2 0.22090435E+02</rscale>
<asrwt>0</asrwt>
<pdfrwt beam="1">  1       21 0.10963412E-02 0.22090435E+02</pdfrwt>
<pdfrwt beam="2">  1       21 0.26222175E-01 0.22090435E+02</pdfrwt>
<totfact> 0.32916705E+07</totfact>
</mgrwt>
</event>
<event>
 4    1  0.4556894E+006  0.2049583E+02  0.7546771E-02  0.1735644E+00
         21   -1    0    0  504  501  0.00000000000E+00  0.00000000000E+00  0.91097562747E+03  0.91097562747E+03  0.00000000000E+00 0.  1.
         21   -1    0    0  503  502 -0.00000000000E+00 -0.00000000000E+00 -0.73984832341E+00  0.73984832341E+00  0.00000000000E+00 0. -1.
         21    1    1    2  503  501  0.19069372812E+02  0.75125214436E+01  0.17532279971E+03  0.17651675008E+03  0.00000000000E+00 0. -1.
         21    1    1    2  504  502 -0.19069372812E+02 -0.75125214436E+01  0.73491297944E+03  0.73519872572E+03  0.00000000000E+00 0.  1.
<mgrwt>
<rscale>  2 0.20495828E+02</rscale>
<asrwt>0</asrwt>
<pdfrwt beam="1">  1       21 0.14014920E+00 0.20495828E+02</pdfrwt>
<pdfrwt beam="2">  1       21 0.11382355E-03 0.20495828E+02</pdfrwt>
<totfact> 0.30136748E+07</totfact>
</mgrwt>
</event>
<event>
 4    1  0.4556894E+006  0.2349890E+02  0.7546771E-02  0.1683548E+00
         21   -1    0    0  504  501  0.00000000000E+00  0.00000000000E+00  0.40033187818E+02  0.40033187818E+02  0.00000000000E+00 0. -1.
         21   -1    0    0  503  502 -0.00000000000E+00 -0.00000000000E+00 -0.36747536941E+02  0.36747536941E+02  0.00000000000E+00 0. -1.
         21    1    1    2  503  501 -0.20373712437E+02  0.11709407055E+02  0.31984356459E+02  0.39688756974E+02  0.00000000000E+00 0. -1.
         21    1    1    2  504  502  0.20373712437E+02 -0.11709407055E+02 -0.28698705582E+02  0.37091967785E+02  0.00000000000E+00 0. -1.
<mgrwt>
<rscale>  2 0.23498902E+02</rscale>
<asrwt>0</asrwt>
<pdfrwt beam="1">  1       21 0.61589520E-02 0.23498902E+02</pdfrwt>
<pdfrwt beam="2">  1       21 0.56534672E-02 0.23498902E+02</pdfrwt>
<totfact> 0.30358886E+07</totfact>
</mgrwt>
</event>
<event>
 4    1  0.4556894E+006  0.2054715E+02  0.7546771E-02  0.1734661E+00
         21   -1    0    0  503  501  0.00000000000E+00  0.00000000000E+00  0.49402753292E+02  0.49402753292E+02  0.00000000000E+00 0. -1.
         21   -1    0    0  501  502 -0.00000000000E+00 -0.00000000000E+00 -0.38346898920E+02  0.38346898920E+02  0.00000000000E+00 0.  1.
         21    1    1    2  503  504 -0.20505976777E+02 -0.13000874221E+01  0.44206151900E+02  0.48748017156E+02  0.00000000000E+00 0. -1.
         21    1    1    2  504  502  0.20505976777E+02  0.13000874221E+01 -0.33150297528E+02  0.39001635056E+02  0.00000000000E+00 0.  1.
<mgrwt>
<rscale>  2 0.20547148E+02</rscale>
<asrwt>0</asrwt>
<pdfrwt beam="1">  1       21 0.76004236E-02 0.20547148E+02</pdfrwt>
<pdfrwt beam="2">  1       21 0.58995229E-02 0.20547148E+02</pdfrwt>
<totfact> 0.19569348E+07</totfact>
</mgrwt>
</event>
<event>
 4    1  0.4556894E+006  0.2293178E+02  0.7546771E-02  0.1692618E+00
         21   -1    0    0  504  501  0.00000000000E+00  0.00000000000E+00  0.30778384640E+03  0.30778384640E+03  0.00000000000E+00 0.  1.
         21   -1    0    0  503  502 -0.00000000000E+00 -0.00000000000E+00 -0.42569107633E+01  0.42569107633E+01  0.00000000000E+00 0.  1.
         21    1    1    2  503  501  0.22345128077E+02 -0.51538194942E+01  0.31047752203E+02  0.38598309821E+02  0.00000000000E+00 0.  1.
         21    1    1    2  504  502 -0.22345128077E+02  0.51538194942E+01  0.27247918343E+03  0.27344244734E+03  0.00000000000E+00 0.  1.
<mgrwt>
<rscale>  2 0.22931782E+02</rscale>
<asrwt>0</asrwt>
<pdfrwt beam="1">  1       21 0.47351344E-01 0.22931782E+02</pdfrwt>
<pdfrwt beam="2">  1       21 0.65490959E-03 0.22931782E+02</pdfrwt>
<totfact> 0.23957782E+07</totfact>
</mgrwt>
</event>
<event>
 4    1  0.4556894E+006  0.2147851E+02  0.7546771E-02  0.1717430E+00
         21   -1    0    0  504  501  0.00000000000E+00  0.00000000000E+00  0.10027014208E+04  0.10027014208E+04  0.00000000000E+00 0. -1.
         21   -1    0    0  503  502 -0.00000000000E+00 -0.00000000000E+00 -0.55675332532E+01  0.55675332532E+01  0.00000000000E+00 0.  1.
         21    1    1    2  503  501  0.21202514033E+02  0.34321878340E+01  0.98142227969E+03  0.98165728112E+03  0.00000000000E+00 0. -1.
         21    1    1    2  504  502 -0.21202514033E+02 -0.34321878340E+01  0.15711607861E+02  0.26611672932E+02  0.00000000000E+00 0.  1.
<mgrwt>
<rscale>  2 0.21478513E+02</rscale>
<asrwt>0</asrwt>
<pdfrwt beam="1">  1       21 0.15426161E+00 0.21478513E+02</pdfrwt>
<pdfrwt beam="2">  1       21 0.85654438E-03 0.21478513E+02</pdfrwt>
<totfact> 0.12855208E+06</totfact>
</mgrwt>
</event>
<event>
 4    1  0.4556894E+006  0.3295163E+02  0.7546771E-02  0.1567581E+00
         21   -1    0    0  502  501  0.00000000000E+00  0.00000000000E+00  0.70071831447E+01  0.70071831447E+01  0.00000000000E+00 0. -1.
         21   -1    0    0  503  502 -0.00000000000E+00 -0.00000000000E+00 -0.30310767712E+03  0.30310767712E+03  0.00000000000E+00 0. -1.
         21    1    1    2  503  504  0.32342063589E+02  0.63087738874E+01 -0.25645452730E+03  0.25856282462E+03  0.00000000000E+00 0. -1.
         21    1    1    2  504  501 -0.32342063589E+02 -0.63087738874E+01 -0.39645966681E+02  0.51552035646E+02  0.00000000000E+00 0. -1.
<mgrwt>
<rscale>  2 0.32951627E+02</rscale>
<asrwt>0</asrwt>
<pdfrwt beam="1">  1       21 0.10780285E-02 0.32951627E+02</pdfrwt>
<pdfrwt beam="2">  1       21 0.46631936E-01 0.32951627E+02</pdfrwt>
<totfact> 0.12446020E+07</totfact>
</mgrwt>
</event>
<event>
 4    1  0.4556894E+006  0.2226123E+02  0.7546771E-02  0.1703773E+00
         21   -1    0    0  502  501  0.00000000000E+00  0.00000000000E+00  0.10737768354E+02  0.10737768354E+02  0.00000000000E+00 0.  1.
         21   -1    0    0  503  502 -0.00000000000E+00 -0.00000000000E+00 -0.21321598553E+03  0.21321598553E+03  0.00000000000E+00 0.  1.
         21    1    1    2  503  504 -0.21967333483E+02  0.36053396702E+01 -0.20035898885E+03  0.20159188135E+03  0.00000000000E+00 0.  1.
         21    1    1    2  504  501  0.21967333483E+02 -0.36053396702E+01 -0.21192283284E+01  0.22361872533E+02  0.00000000000E+00 0.  1.
<mgrwt>
<rscale>  2 0.22261227E+02</rscale>
<asrwt>0</asrwt>
<pdfrwt beam="1">  1       21 0.16519645E-02 0.22261227E+02</pdfrwt>
<pdfrwt beam="2">  1       21 0.32802456E-01 0.22261227E+02</pdfrwt>
<totfact> 0.11818707E+07</totfact>
</mgrwt>
</event>
<event>
 4    1  0.4556894E+006  0.2543865E+02  0.7546771E-02  0.1654780E+00
         21   -1    0    0  504  501  0.00000000000E+00  0.00000000000E+00  0.71305510362E+02  0.71305510362E+02  0.00000000000E+00 0.  1.
         21   -1    0    0  503  502 -0.00000000000E+00 -0.00000000000E+00 -0.23490472298E+02  0.23490472298E+02  0.00000000000E+00 0.  1.
         21    1    1    2  503  501 -0.25218534015E+02 -0.33392453350E+01  0.61037325789E+02  0.66126244085E+02  0.00000000000E+00 0.  1.
         21    1    1    2  504  502  0.25218534015E+02  0.33392453350E+01 -0.13222287725E+02  0.28669738575E+02  0.00000000000E+00 0.  1.
<mgrwt>
<rscale>  2 0.25438652E+02</rscale>
<asrwt>0</asrwt>
<pdfrwt beam="1">  1       21 0.10970078E-01 0.25438652E+02</pdfrwt>
<pdfrwt beam="2">  1       21 0.36139188E-02 0.25438652E+02</pdfrwt>
<totfact> 0.24423725E+07</totfact>
</mgrwt>
</event>
<event>
 4    1  0.4556894E+006  0.2858657E+02  0.7546771E-02  0.1614259E+00
         21   -1    0    0  504  501  0.00000000000E+00  0.00000000000E+00  0.20446263389E+03  0.20446263389E+03  0.00000000000E+00 0.  1.
         21   -1    0    0  503  502 -0.00000000000E+00 -0.00000000000E+00 -0.84878336011E+01  0.84878336011E+01  0.00000000000E+00 0. -1.
         21    1    1    2  503  501  0.28035831066E+02 -0.55842938863E+01  0.20536887999E+02  0.35198805810E+02  0.00000000000E+00 0. -1.
         21    1    1    2  504  502 -0.28035831066E+02  0.55842938863E+01  0.17543791229E+03  0.17775166168E+03  0.00000000000E+00 0.  1.
<mgrwt>
<rscale>  2 0.28586573E+02</rscale>
<asrwt>0</asrwt>
<pdfrwt beam="1">  1       21 0.31455786E-01 0.28586573E+02</pdfrwt>
<pdfrwt beam="2">  1       21 0.13058207E-02 0.28586573E+02</pdfrwt>
<totfact> 0.19155310E+07</totfact>
</mgrwt>
</event>
<event>
 4    1  0.4556894E+006  0.2123527E+02  0.7546771E-02  0.1721823E+00
         21   -1    0    0  504  501  0.00000000000E+00  0.00000000000E+00  0.14428338684E+03  0.14428338684E+03  0.00000000000E+00 0.  1.
         21   -1    0    0  503  502 -0.00000000000E+00 -0.00000000000E+00 -0.52581824136E+01  0.52581824136E+01  0.00000000000E+00 0. -1.
         21    1    1    2  503  501  0.74240151153E+01  0.19895238297E+02  0.11713290809E+03  0.11904223899E+03  0.00000000000E+00 0.  1.
         21    1    1    2  504  502 -0.74240151153E+01 -0.19895238297E+02  0.21892296335E+02  0.30499330257E+02  0.00000000000E+00 0. -1.
<mgrwt>
<rscale>  2 0.21235266E+02</rscale>
<asrwt>0</asrwt>
<pdfrwt beam="1">  1       21 0.22197441E-01 0.21235266E+02</pdfrwt>
<pdfrwt beam="2">  1       21 0.80895125E-03 0.21235266E+02</pdfrwt>
<totfact> 0.69003346E+07</totfact>
</mgrwt>
</event>
<event>
 4    1  0.4556894E+006  0.2686540E+02  0.7546771E-02  0.1635569E+00
         21   -1    0    0  504  501  0.00000000000E+00  0.00000000000E+00  0.13979368566E+03  0.13979368566E+03  0.00000000000E+00 0. -1.
         21   -1    0    0  501  502 -0.00000000000E+00 -0.00000000000E+00 -0.12905212247E+02  0.12905212247E+02  0.00000000000E+00 0. -1.
         21    1    1    2  503  502  0.18863842206E+02  0.19128649381E+02  0.43075652134E+01  0.27208544393E+02  0.00000000000E+00 0. -1.
         21    1    1    2  504  503 -0.18863842206E+02 -0.19128649381E+02  0.12258090820E+03  0.12549035351E+03  0.00000000000E+00 0. -1.
<mgrwt>
<rscale>  2 0.26865401E+02</rscale>
<asrwt>0</asrwt>
<pdfrwt beam="1">  1       21 0.21506720E-01 0.26865401E+02</pdfrwt>
<pdfrwt beam="2">  1       21 0.19854174E-02 0.26865401E+02</pdfrwt>
<totfact> 0.19776114E+07</totfact>
</mgrwt>
</event>
<event>
 4    1  0.4556894E+006  0.2049750E+02  0.7546771E-02  0.1735612E+00
         21   -1    0    0  502  501  0.00000000000E+00  0.00000000000E+00  0.13189558669E+02  0.13189558669E+02  0.00000000000E+00 0. -1.
         21   -1    0    0  504  502 -0.00000000000E+00 -0.00000000000E+00 -0.90330047605E+02  0.90330047605E+02  0.00000000000E+00 0. -1.
         21    1    1    2  503  501  0.20473690661E+02  0.98762235690E+00  0.30748137149E+01  0.20726839763E+02  0.00000000000E+00 0. -1.
         21    1    1    2  504  503 -0.20473690661E+02 -0.98762235690E+00 -0.80215302651E+02  0.82792766511E+02  0.00000000000E+00 0. -1.
<mgrwt>
<rscale>  2 0.20497498E+02</rscale>
<asrwt>0</asrwt>
<pdfrwt beam="1">  1       21 0.20291629E-02 0.20497498E+02</pdfrwt>
<pdfrwt beam="2">  1       21 0.13896930E-01 0.20497498E+02</pdfrwt>
<totfact> 0.38207978E+07</totfact>
</mgrwt>
</event>
<event>
 4    1  0.4556894E+006  0.2071339E+02  0.7546771E-02  0.1731503E+00
         21   -1    0    0  503  501  0.00000000000E+00  0.00000000000E+00  0.36421440256E+03  0.36421440256E+03  0.00000000000E+00 0. -1.
         21   -1    0    0  504  502 -0.00000000000E+00 -0.00000000000E+00 -0.37864951535E+01  0.37864951535E+01  0.00000000000E+00 0. -1.
         21    1    1    2  503  502  0.22454324822E+01 -0.20591322852E+02  0.27494204567E+02  0.34423477868E+02  0.00000000000E+00 0. -1.
         21    1    1    2  504  501 -0.22454324822E+01  0.20591322852E+02  0.33293370284E+03  0.33357741984E+03  0.00000000000E+00 0. -1.
<mgrwt>
<rscale>  2 0.20713390E+02</rscale>
<asrwt>0</asrwt>
<pdfrwt beam="1">  1       21 0.56032957E-01 0.20713390E+02</pdfrwt>
<pdfrwt beam="2">  1       21 0.58253801E-03 0.20713390E+02</pdfrwt>
<totfact> 0.20089162E+07</totfact>
</mgrwt>
</event>
<event>
 4    1  0.4556894E+006  0.2448150E+02  0.7546771E-02  0.1668563E+00
         21   -1    0    0  502  501  0.00000000000E+00  0.00000000000E+00  0.64846659755E+02  0.64846659755E+02  0.00000000000E+00 0. -1.
         21   -1    0    0  503  502 -0.00000000000E+00 -0.00000000000E+00 -0.23048963161E+02  0.23048963161E+02  0.00000000000E+00 0. -1.
         21    1    1    2  503  504  0.24448269720E+02 -0.12751446443E+01 -0.13114791360E+02  0.27773037979E+02  0.00000000000E+00 0. -1.
         21    1    1    2  504  501 -0.24448269720E+02  0.12751446443E+01  0.54912487955E+02  0.60122584937E+02  0.00000000000E+00 0. -1.
<mgrwt>
<rscale>  2 0.24481501E+02</rscale>
<asrwt>0</asrwt>
<pdfrwt beam="1">  1       21 0.99764091E-02 0.24481501E+02</pdfrwt>
<pdfrwt beam="2">  1       21 0.35459944E-02 0.24481501E+02</pdfrwt>
<totfact> 0.29231460E+07</totfact>
</mgrwt>
</event>
<event>
 4    1  0.4556894E+006  0.2442481E+02  0.7546771E-02  0.1669404E+00
         21   -1    0    0  504  501  0.00000000000E+00  0.00000000000E+00  0.11063097371E+03  0.11063097371E+03  0.00000000000E+00 0. -1.
         21   -1    0    0  501  502 -0.00000000000E+00 -0.00000000000E+00 -0.69452017167E+01  0.69452017167E+01  0.00000000000E+00 0. -1.
         21    1    1    2  503  502  0.13387725888E+01 -0.24388096709E+02  0.24045852989E+02  0.34274985326E+02  0.00000000000E+00 0. -1.
         21    1    1    2  504  503 -0.13387725888E+01  0.24388096709E+02  0.79639919005E+02  0.83301190101E+02  0.00000000000E+00 0. -1.
<mgrwt>
<rscale>  2 0.24424815E+02</rscale>
<asrwt>0</asrwt>
<pdfrwt beam="1">  1       21 0.17020148E-01 0.24424815E+02</pdfrwt>
<pdfrwt beam="2">  1       21 0.10684927E-02 0.24424815E+02</pdfrwt>
<totfact> 0.74923982E+07</totfact>
</mgrwt>
</event>
<event>
 4    1  0.4556894E+006  0.3125923E+02  0.7546771E-02  0.1584573E+00
         21   -1    0    0  504  501  0.00000000000E+00  0.00000000000E+00  0.11145002903E+01  0.11145002903E+01  0.00000000000E+00 0. -1.
         21   -1    0    0  501  502 -0.00000000000E+00 -0.00000000000E+00 -0.13398515411E+04  0.13398515411E+04  0.00000000000E+00 0.  1.
         21    1    1    2  503  502  0.15241274529E+01 -0.31222047594E+02 -0.10635508015E+04  0.10640100782E+04  0.00000000000E+00 0.  1.
         21    1    1    2  504  503 -0.15241274529E+01  0.31222047594E+02 -0.27518623937E+03  0.27695596321E+03  0.00000000000E+00 0. -1.
<mgrwt>
<rscale>  2 0.31259226E+02</rscale>
<asrwt>0</asrwt>
<pdfrwt beam="1">  1       21 0.17146199E-03 0.31259226E+02</pdfrwt>
<pdfrwt beam="2">  1       21 0.20613052E+00 0.31259226E+02</pdfrwt>
<totfact> 0.68222006E+06</totfact>
</mgrwt>
</event>
<event>
 4    1  0.4556894E+006  0.2175155E+02  0.7546771E-02  0.1712585E+00
         21   -1    0    0  504  501  0.00000000000E+00  0.00000000000E+00  0.25365661521E+03  0.25365661521E+03  0.00000000000E+00 0.  1.
         21   -1    0    0  501  502 -0.00000000000E+00 -0.00000000000E+00 -0.19045701109E+01  0.19045701109E+01  0.00000000000E+00 0. -1.
         21    1    1    2  503  502  0.15851353077E+02 -0.14895118148E+02  0.14423888787E+03  0.14586975942E+03  0.00000000000E+00 0. -1.
         21    1    1    2  504  503 -0.15851353077E+02  0.14895118148E+02  0.10751315723E+03  0.10969142590E+03  0.00000000000E+00 0.  1.
<mgrwt>
<rscale>  2 0.21751550E+02</rscale>
<asrwt>0</asrwt>
<pdfrwt beam="1">  1       21 0.39024068E-01 0.21751550E+02</pdfrwt>
<pdfrwt beam="2">  1       21 0.29301099E-03 0.21751550E+02</pdfrwt>
<totfact> 0.11132165E+08</totfact>
</mgrwt>
</event>
<event>
 4    1  0.4556894E+006  0.2891155E+02  0.7546771E-02  0.1610441E+00
         21   -1    0    0  503  501  0.00000000000E+00  0.00000000000E+00  0.34192142569E+02  0.34192142569E+02  0.00000000000E+00 0.  1.
         21   -1    0    0  504  502 -0.00000000000E+00 -0.00000000000E+00 -0.36547306819E+02  0.36547306819E+02  0.00000000000E+00 0.  1.
         21    1    1    2  503  502  0.18002238388E+02 -0.22622939680E+02 -0.21529777948E+02  0.36047320639E+02  0.00000000000E+00 0.  1.
         21    1    1    2  504  501 -0.18002238388E+02  0.22622939680E+02  0.19174613698E+02  0.34692128750E+02  0.00000000000E+00 0.  1.
<mgrwt>
<rscale>  2 0.28911555E+02</rscale>
<asrwt>0</asrwt>
<pdfrwt beam="1">  1       21 0.52603296E-02 0.28911555E+02</pdfrwt>
<pdfrwt beam="2">  1       21 0.56226626E-02 0.28911555E+02</pdfrwt>
<totfact> 0.41390858E+07</totfact>
</mgrwt>
</event>
<event>
 4    1  0.4556894E+006  0.2874193E+02  0.7546771E-02  0.1612426E+00
         21   -1    0    0  502  501  0.00000000000E+00  0.00000000000E+00  0.12084625585E+03  0.12084625585E+03  0.00000000000E+00 0. -1.
         21   -1    0    0  503  502 -0.00000000000E+00 -0.00000000000E+00 -0.10307014015E+02  0.10307014015E+02  0.00000000000E+00 0. -1.
         21    1    1    2  503  504  0.28741330120E+02 -0.18544630895E+00  0.17214397839E+02  0.33502745266E+02  0.00000000000E+00 0. -1.
         21    1    1    2  504  501 -0.28741330120E+02  0.18544630895E+00  0.93324843993E+02  0.97650524596E+02  0.00000000000E+00 0. -1.
<mgrwt>
<rscale>  2 0.28741928E+02</rscale>
<asrwt>0</asrwt>
<pdfrwt beam="1">  1       21 0.18591731E-01 0.28741928E+02</pdfrwt>
<pdfrwt beam="2">  1       21 0.15856946E-02 0.28741928E+02</pdfrwt>
<totfact> 0.36614153E+07</totfact>
</mgrwt>
</event>
<event>
 4    1  0.4556894E+006  0.2059431E+02  0.7546771E-02  0.1733761E+00
         21   -1    0    0  503  501  0.00000000000E+00  0.00000000000E+00  0.22220657946E+02  0.22220657946E+02  0.00000000000E+00 0.  1.
         21   -1    0    0  504  502 -0.00000000000E+00 -0.00000000000E+00 -0.61171212680E+02  0.61171212680E+02  0.00000000000E+00 0.  1.
         21    1    1    2  503  502  0.10912497627E+02 -0.17465485451E+02  0.15109083809E+02  0.25542321744E+02  0.00000000000E+00 0.  1.
         21    1    1    2  504  501 -0.10912497627E+02  0.17465485451E+02 -0.54059638542E+02  0.57849548882E+02  0.00000000000E+00 0.  1.
<mgrwt>
<rscale>  2 0.20594314E+02</rscale>
<asrwt>0</asrwt>
<pdfrwt beam="1">  1       21 0.34185628E-02 0.20594314E+02</pdfrwt>
<pdfrwt beam="2">  1       21 0.94109557E-02 0.20594314E+02</pdfrwt>
<totfact> 0.32686785E+07</totfact>
</mgrwt>
</event>
<event>
 4    1  0.4556894E+006  0.4325978E+02  0.7546771E-02  0.1485507E+00
         21   -1    0    0  503  501  0.00000000000E+00  0.00000000000E+00  0.18818310631E+03  0.18818310631E+03  0.00000000000E+00 0. -1.
         21   -1    0    0  501  502 -0.00000000000E+00 -0.00000000000E+00 -0.14405859376E+02  0.14405859376E+02  0.00000000000E+00 0.  1.
         21    1    1    2  503  504 -0.32351486352E+02 -0.28719150846E+02  0.14325813567E+03  0.14964725767E+03  0.00000000000E+00 0.  1.
         21    1    1    2  504  502  0.32351486352E+02  0.28719150846E+02  0.30519111265E+02  0.52941708009E+02  0.00000000000E+00 0. -1.
<mgrwt>
<rscale>  2 0.43259777E+02</rscale>
<asrwt>0</asrwt>
<pdfrwt beam="1">  1       21 0.28951245E-01 0.43259777E+02</pdfrwt>
<pdfrwt beam="2">  1       21 0.22162862E-02 0.43259777E+02</pdfrwt>
<totfact> 0.10494024E+07</totfact>
</mgrwt>
</event>
<event>
 4    1  0.4556894E+006  0.2117213E+02  0.7546771E-02  0.1722976E+00
         21   -1    0    0  504  501  0.00000000000E+00  0.00000000000E+00  0.10140188733E+03  0.10140188733E+03  0.00000000000E+00 0.  1.
         21   -1    0    0  501  502 -0.00000000000E+00 -0.00000000000E+00 -0.10983360210E+02  0.10983360210E+02  0.00000000000E+00 0.  1.
         21    1    1    2  503  502  0.16911673268E+02  0.12737909717E+02  0.17728098667E+01  0.21246220641E+02  0.00000000000E+00 0.  1.
         21    1    1    2  504  503 -0.16911673268E+02 -0.12737909717E+02  0.88645717255E+02  0.91139026901E+02  0.00000000000E+00 0.  1.
<mgrwt>
<rscale>  2 0.21172129E+02</rscale>
<asrwt>0</asrwt>
<pdfrwt beam="1">  1       21 0.15600290E-01 0.21172129E+02</pdfrwt>
<pdfrwt beam="2">  1       21 0.16897478E-02 0.21172129E+02</pdfrwt>
<totfact> 0.41869501E+07</totfact>
</mgrwt>
</event>
<event>
 4    1  0.4556894E+006  0.2316317E+02  0.7546771E-02  0.1688879E+00
         21   -1    0    0  503  501  0.00000000000E+00  0.00000000000E+00  0.50675206893E+01  0.50675206893E+01  0.00000000000E+00 0. -1.
         21   -1    0    0  504  502 -0.00000000000E+00 -0.00000000000E+00 -0.13691396748E+03  0.13691396748E+03  0.00000000000E+00 0. -1.
         21    1    1    2  503  502 -0.90619741243E+01  0.21316971744E+02 -0.32123029834E+02  0.39603304219E+02  0.00000000000E+00 0. -1.
         21    1    1    2  504  501  0.90619741243E+01 -0.21316971744E+02 -0.99723416953E+02  0.10237818395E+03  0.00000000000E+00 0. -1.
<mgrwt>
<rscale>  2 0.23163175E+02</rscale>
<asrwt>0</asrwt>
<pdfrwt beam="1">  1       21 0.77961872E-03 0.23163175E+02</pdfrwt>
<pdfrwt beam="2">  1       21 0.21063683E-01 0.23163175E+02</pdfrwt>
<totfact> 0.81815891E+07</totfact>
</mgrwt>
</event>
<event>
 4    1  0.4556894E+006  0.2210041E+02  0.7546771E-02  0.1706521E+00
         21   -1    0    0  504  501  0.00000000000E+00  0.00000000000E+00  0.37386511562E+00  0.37386511562E+00  0.00000000000E+00 0. -1.
         21   -1    0    0  503  502 -0.00000000000E+00 -0.00000000000E+00 -0.14345508468E+04  0.14345508468E+04  0.00000000000E+00 0. -1.
         21    1    1    2  503  501  0.22088536149E+02  0.72443048450E+00 -0.93150229549E+03  0.93176443092E+03  0.00000000000E+00 0. -1.
         21    1    1    2  504  502 -0.22088536149E+02 -0.72443048450E+00 -0.50267468623E+03  0.50316028103E+03  0.00000000000E+00 0. -1.
<mgrwt>
<rscale>  2 0.22100412E+02</rscale>
<asrwt>0</asrwt>
<pdfrwt beam="1">  1       21 0.57516882E-04 0.22100412E+02</pdfrwt>
<pdfrwt beam="2">  1       21 0.22070331E+00 0.22100412E+02</pdfrwt>
<totfact> 0.26147794E+07</totfact>
</mgrwt>
</event>
<event>
 4    1  0.4556894E+006  0.2777292E+02  0.7546771E-02  0.1624097E+00
         21   -1    0    0  502  501  0.00000000000E+00  0.00000000000E+00  0.11878155745E+01  0.11878155745E+01  0.00000000000E+00 0. -1.
         21   -1    0    0  503  502 -0.00000000000E+00 -0.00000000000E+00 -0.87129277732E+03  0.87129277732E+03  0.00000000000E+00 0. -1.
         21    1    1    2  503  504  0.14773483294E+02  0.23517642067E+02 -0.65521418653E+03  0.65580253547E+03  0.00000000000E+00 0. -1.
         21    1    1    2  504  501 -0.14773483294E+02 -0.23517642067E+02 -0.21489077521E+03  0.21667805742E+03  0.00000000000E+00 0. -1.
<mgrwt>
<rscale>  2 0.27772924E+02</rscale>
<asrwt>0</asrwt>
<pdfrwt beam="1">  1       21 0.18274053E-03 0.27772924E+02</pdfrwt>
<pdfrwt beam="2">  1       21 0.13404529E+00 0.27772924E+02</pdfrwt>
<totfact> 0.17871978E+07</totfact>
</mgrwt>
</event>
<event>
 4    1  0.4556894E+006  0.2078434E+02  0.7546771E-02  0.1730166E+00
         21   -1    0    0  504  501  0.00000000000E+00  0.00000000000E+00  0.35734921639E+01  0.35734921639E+01  0.00000000000E+00 0. -1.
         21   -1    0    0  503  502 -0.00000000000E+00 -0.00000000000E+00 -0.13930892338E+03  0.13930892338E+03  0.00000000000E+00 0. -1.
         21    1    1    2  503  501 -0.13162428860E+02  0.16085368831E+02 -0.93847001699E+02  0.96121008899E+02  0.00000000000E+00 0. -1.
         21    1    1    2  504  502  0.13162428860E+02 -0.16085368831E+02 -0.41888429515E+02  0.46761406643E+02  0.00000000000E+00 0. -1.
<mgrwt>
<rscale>  2 0.20784336E+02</rscale>
<asrwt>0</asrwt>
<pdfrwt beam="1">  1       21 0.54976798E-03 0.20784336E+02</pdfrwt>
<pdfrwt beam="2">  1       21 0.21432144E-01 0.20784336E+02</pdfrwt>
<totfact> 0.12923583E+08</totfact>
</mgrwt>
</event>
<event>
 4    1  0.4556894E+006  0.2365021E+02  0.7546771E-02  0.1681182E+00
         21   -1    0    0  502  501  0.00000000000E+00  0.00000000000E+00  0.17263232546E+02  0.17263232546E+02  0.00000000000E+00 0. -1.
         21   -1    0    0  504  502 -0.00000000000E+00 -0.00000000000E+00 -0.78798442310E+02  0.78798442310E+02  0.00000000000E+00 0. -1.
         21    1    1    2  503  501  0.13331217252E+02 -0.19534864162E+02  0.60887247973E+01  0.24421401289E+02  0.00000000000E+00 0. -1.
         21    1    1    2  504  503 -0.13331217252E+02  0.19534864162E+02 -0.67623934561E+02  0.71640273567E+02  0.00000000000E+00 0. -1.
<mgrwt>
<rscale>  2 0.23650207E+02</rscale>
<asrwt>0</asrwt>
<pdfrwt beam="1">  1       21 0.26558819E-02 0.23650207E+02</pdfrwt>
<pdfrwt beam="2">  1       21 0.12122837E-01 0.23650207E+02</pdfrwt>
<totfact> 0.32897066E+07</totfact>
</mgrwt>
</event>
<event>
 4    1  0.4556894E+006  0.2014274E+02  0.7546771E-02  0.1742504E+00
         21   -1    0    0  503  501  0.00000000000E+00  0.00000000000E+00  0.12378588466E+03  0.12378588466E+03  0.00000000000E+00 0.  1.
         21   -1    0    0  504  502 -0.00000000000E+00 -0.00000000000E+00 -0.12481422400E+02  0.12481422400E+02  0.00000000000E+00 0.  1.
         21    1    1    2  503  502  0.18334010327E+02  0.83423057611E+01 -0.28553257455E+01  0.20344111807E+02  0.00000000000E+00 0.  1.
         21    1    1    2  504  501 -0.18334010327E+02 -0.83423057611E+01  0.11415978801E+03  0.11592319525E+03  0.00000000000E+00 0.  1.
<mgrwt>
<rscale>  2 0.20142741E+02</rscale>
<asrwt>0</asrwt>
<pdfrwt beam="1">  1       21 0.19043981E-01 0.20142741E+02</pdfrwt>
<pdfrwt beam="2">  1       21 0.19202189E-02 0.20142741E+02</pdfrwt>
<totfact> 0.24186812E+07</totfact>
</mgrwt>
</event>
<event>
 4    1  0.4556894E+006  0.2190448E+02  0.7546771E-02  0.1709909E+00
         21   -1    0    0  504  501  0.00000000000E+00  0.00000000000E+00  0.92514783464E+02  0.92514783464E+02  0.00000000000E+00 0.  1.
         21   -1    0    0  501  502 -0.00000000000E+00 -0.00000000000E+00 -0.73631193602E+01  0.73631193602E+01  0.00000000000E+00 0.  1.
         21    1    1    2  503  502 -0.19045615875E+01 -0.21821521689E+02  0.15422495214E+02  0.26789168003E+02  0.00000000000E+00 0.  1.
         21    1    1    2  504  503  0.19045615875E+01  0.21821521689E+02  0.69729168889E+02  0.73088734821E+02  0.00000000000E+00 0.  1.
<mgrwt>
<rscale>  2 0.21904478E+02</rscale>
<asrwt>0</asrwt>
<pdfrwt beam="1">  1       21 0.14233043E-01 0.21904478E+02</pdfrwt>
<pdfrwt beam="2">  1       21 0.11327877E-02 0.21904478E+02</pdfrwt>
<totfact> 0.90396567E+07</totfact>
</mgrwt>
</event>
<event>
 4    1  0.4556894E+006  0.2199288E+02  0.7546771E-02  0.1708375E+00
         21   -1    0    0  503  501  0.00000000000E+00  0.00000000000E+00  0.68368811874E+01  0.68368811874E+01  0.00000000000E+00 0.  1.
         21   -1    0    0  504  502 -0.00000000000E+00 -0.00000000000E+00 -0.23564720704E+03  0.23564720704E+03  0.00000000000E+00 0. -1.
         21    1    1    2  503  502  0.15418979032E+02  0.15682528008E+02 -0.21582738756E+03  0.21694503410E+03  0.00000000000E+00 0. -1.
         21    1    1    2  504  501 -0.15418979032E+02 -0.15682528008E+02 -0.12982938294E+02  0.25539054130E+02  0.00000000000E+00 0.  1.
<mgrwt>
<rscale>  2 0.21992876E+02</rscale>
<asrwt>0</asrwt>
<pdfrwt beam="1">  1       21 0.10518278E-02 0.21992876E+02</pdfrwt>
<pdfrwt beam="2">  1       21 0.36253420E-01 0.21992876E+02</pdfrwt>
<totfact> 0.19397992E+07</totfact>
</mgrwt>
</event>
<event>
 4    1  0.4556894E+006  0.2811696E+02  0.7546771E-02  0.1619887E+00
         21   -1    0    0  503  501  0.00000000000E+00  0.00000000000E+00  0.43262391416E+03  0.43262391416E+03  0.00000000000E+00 0. -1.
         21   -1    0    0  504  502 -0.00000000000E+00 -0.00000000000E+00 -0.29008538015E+02  0.29008538015E+02  0.00000000000E+00 0. -1.
         21    1    1    2  503  502 -0.10440997840E+02  0.26106491545E+02 -0.21620253390E+02  0.35468277281E+02  0.00000000000E+00 0. -1.
         21    1    1    2  504  501  0.10440997840E+02 -0.26106491545E+02  0.42523562954E+03  0.42616417489E+03  0.00000000000E+00 0. -1.
<mgrwt>
<rscale>  2 0.28116958E+02</rscale>
<asrwt>0</asrwt>
<pdfrwt beam="1">  1       21 0.66557520E-01 0.28116958E+02</pdfrwt>
<pdfrwt beam="2">  1       21 0.44628523E-02 0.28116958E+02</pdfrwt>
<totfact> 0.65839665E+05</totfact>
</mgrwt>
</event>
<event>
 4    1  0.4556894E+006  0.3527511E+02  0.7546771E-02  0.1546171E+00
         21   -1    0    0  503  501  0.00000000000E+00  0.00000000000E+00  0.26756759187E+03  0.26756759187E+03  0.00000000000E+00 0. -1.
         21   -1    0    0  501  502 -0.00000000000E+00 -0.00000000000E+00 -0.46609115617E+01  0.46609115617E+01  0.00000000000E+00 0. -1.
         21    1    1    2  503  504  0.15004770897E+02  0.31924759715E+02  0.13787456846E+03  0.14231560021E+03  0.00000000000E+00 0. -1.
         21    1    1    2  504  502 -0.15004770897E+02 -0.31924759715E+02  0.12503211184E+03  0.12991290322E+03  0.00000000000E+00 0. -1.
<mgrwt>
<rscale>  2 0.35275111E+02</rscale>
<asrwt>0</asrwt>
<pdfrwt beam="1">  1       21 0.41164233E-01 0.35275111E+02</pdfrwt>
<pdfrwt beam="2">  1       21 0.71706353E-03 0.35275111E+02</pdfrwt>
<totfact> 0.29741919E+07</totfact>
</mgrwt>
</event>
<event>
 4    1  0.4556894E+006  0.3388501E+02  0.7546771E-02  0.1558731E+00
         21   -1    0    0  503  501  0.00000000000E+00  0.00000000000E+00  0.15761925851E+02  0.15761925851E+02  0.00000000000E+00 0.  1.
         21   -1    0    0  504  502 -0.00000000000E+00 -0.00000000000E+00 -0.11408535261E+03  0.11408535261E+03  0.00000000000E+00 0. -1.
         21    1    1    2  503  502 -0.12302481763E+02 -0.31572822018E+02 -0.88195755918E+02  0.94481138380E+02  0.00000000000E+00 0. -1.
         21    1    1    2  504  501  0.12302481763E+02  0.31572822018E+02 -0.10127670843E+02  0.35366140083E+02  0.00000000000E+00 0.  1.
<mgrwt>
<rscale>  2 0.33885014E+02</rscale>
<asrwt>0</asrwt>
<pdfrwt beam="1">  1       21 0.24249116E-02 0.33885014E+02</pdfrwt>
<pdfrwt beam="2">  1       21 0.17551593E-01 0.33885014E+02</pdfrwt>
<totfact> 0.21636955E+07</totfact>
</mgrwt>
</event>
<event>
 4    1  0.4556894E+006  0.2033407E+02  0.7546771E-02  0.1738765E+00
         21   -1    0    0  502  501  0.00000000000E+00  0.00000000000E+00  0.55280631523E+01  0.55280631523E+01  0.00000000000E+00 0. -1.
         21   -1    0    0  504  502 -0.00000000000E+00 -0.00000000000E+00 -0.81398791874E+03  0.81398791874E+03  0.00000000000E+00 0.  1.
         21    1    1    2  503  501  0.15068068633E+02 -0.13653854824E+02 -0.13751367129E+02  0.24547393789E+02  0.00000000000E+00 0. -1.
         21    1    1    2  504  503 -0.15068068633E+02  0.13653854824E+02 -0.79470848846E+03  0.79496858811E+03  0.00000000000E+00 0.  1.
<mgrwt>
<rscale>  2 0.20334071E+02</rscale>
<asrwt>0</asrwt>
<pdfrwt beam="1">  1       21 0.85047108E-03 0.20334071E+02</pdfrwt>
<pdfrwt beam="2">  1       21 0.12522894E+00 0.20334071E+02</pdfrwt>
<totfact> 0.20961142E+06</totfact>
</mgrwt>
</event>
<event>
 4    1  0.4556894E+006  0.3125450E+02  0.7546771E-02  0.1584622E+00
         21   -1    0    0  504  501  0.00000000000E+00  0.00000000000E+00  0.42498380862E+01  0.42498380862E+01  0.00000000000E+00 0.  1.
         21   -1    0    0  503  502 -0.00000000000E+00 -0.00000000000E+00 -0.29818674158E+03  0.29818674158E+03  0.00000000000E+00 0. -1.
         21    1    1    2  503  501 -0.57117659411E+01 -0.30728155797E+02 -0.21935759301E+03  0.22157300702E+03  0.00000000000E+00 0. -1.
         21    1    1    2  504  502  0.57117659411E+01  0.30728155797E+02 -0.74579310485E+02  0.80863572647E+02  0.00000000000E+00 0.  1.
<mgrwt>
<rscale>  2 0.31254501E+02</rscale>
<asrwt>0</asrwt>
<pdfrwt beam="1">  1       21 0.65382137E-03 0.31254501E+02</pdfrwt>
<pdfrwt beam="2">  1       21 0.45874874E-01 0.31254501E+02</pdfrwt>
<totfact> 0.27124107E+07</totfact>
</mgrwt>
</event>
<event>
 4    1  0.4556894E+006  0.2295856E+02  0.7546771E-02  0.1692183E+00
         21   -1    0    0  503  501  0.00000000000E+00  0.00000000000E+00  0.73602363695E+03  0.73602363695E+03  0.00000000000E+00 0. -1.
         21   -1    0    0  504  502 -0.00000000000E+00 -0.00000000000E+00 -0.89123468311E+01  0.89123468311E+01  0.00000000000E+00 0. -1.
         21    1    1    2  503  502 -0.19111547643E+02 -0.12721792203E+02  0.72074573279E+03  0.72111129973E+03  0.00000000000E+00 0. -1.
         21    1    1    2  504  501  0.19111547643E+02  0.12721792203E+02  0.63655573200E+01  0.23824684051E+02  0.00000000000E+00 0. -1.
<mgrwt>
<rscale>  2 0.22958555E+02</rscale>
<asrwt>0</asrwt>
<pdfrwt beam="1">  1       21 0.11323436E+00 0.22958555E+02</pdfrwt>
<pdfrwt beam="2">  1       21 0.13711309E-02 0.22958555E+02</pdfrwt>
<totfact> 0.12995552E+06</totfact>
</mgrwt>
</event>
<event>
 4    1  0.4556894E+006  0.3106695E+02  0.7546771E-02  0.1586586E+00
         21   -1    0    0  504  501  0.00000000000E+00  0.00000000000E+00  0.50611169138E+02  0.50611169138E+02  0.00000000000E+00 0.  1.
         21   -1    0    0  501  502 -0.00000000000E+00 -0.00000000000E+00 -0.14322333878E+03  0.14322333878E+03  0.00000000000E+00 0. -1.
         21    1    1    2  503  502  0.16415428346E+02  0.26375918002E+02 -0.13654074629E+03  0.14003046360E+03  0.00000000000E+00 0. -1.
         21    1    1    2  504  503 -0.16415428346E+02 -0.26375918002E+02  0.43928576650E+02  0.53804044316E+02  0.00000000000E+00 0.  1.
<mgrwt>
<rscale>  2 0.31066949E+02</rscale>
<asrwt>0</asrwt>
<pdfrwt beam="1">  1       21 0.77863337E-02 0.31066949E+02</pdfrwt>
<pdfrwt beam="2">  1       21 0.22034360E-01 0.31066949E+02</pdfrwt>
<totfact> 0.22021551E+06</totfact>
</mgrwt>
</event>
<event>
 4    1  0.4556894E+006  0.2388566E+02  0.7546771E-02  0.1677543E+00
         21   -1    0    0  502  501  0.00000000000E+00  0.00000000000E+00  0.71144333738E+02  0.71144333738E+02  0.00000000000E+00 0. -1.
         21   -1    0    0  504  502 -0.00000000000E+00 -0.00000000000E+00 -0.21933451207E+03  0.21933451207E+03  0.00000000000E+00 0.  1.
         21    1    1    2  503  501  0.18058474826E+02  0.15633820778E+02  0.68464505185E+02  0.72511470371E+02  0.00000000000E+00 0. -1.
         21    1    1    2  504  503 -0.18058474826E+02 -0.15633820778E+02 -0.21665468351E+03  0.21796737543E+03  0.00000000000E+00 0.  1.
<mgrwt>
<rscale>  2 0.23885662E+02</rscale>
<asrwt>0</asrwt>
<pdfrwt beam="1">  1       21 0.10945282E-01 0.23885662E+02</pdfrwt>
<pdfrwt beam="2">  1       21 0.33743770E-01 0.23885662E+02</pdfrwt>
<totfact> 0.56552401E+05</totfact>
</mgrwt>
</event>
<event>
 4    1  0.4556894E+006  0.3518956E+02  0.7546771E-02  0.1546924E+00
         21   -1    0    0  502  501  0.00000000000E+00  0.00000000000E+00  0.53577954930E+02  0.53577954930E+02  0.00000000000E+00 0. -1.
         21   -1    0    0  503  502 -0.00000000000E+00 -0.00000000000E+00 -0.23355934217E+02  0.23355934217E+02  0.00000000000E+00 0. -1.
         21    1    1    2  503  504 -0.15662533837E+02  0.31511747864E+02  0.11181541450E+02  0.36923327164E+02  0.00000000000E+00 0. -1.
         21    1    1    2  504  501  0.15662533837E+02 -0.31511747864E+02  0.19040479262E+02  0.40010561983E+02  0.00000000000E+00 0. -1.
<mgrwt>
<rscale>  2 0.35189561E+02</rscale>
<asrwt>0</asrwt>
<pdfrwt beam="1">  1       21 0.82427623E-02 0.35189561E+02</pdfrwt>
<pdfrwt beam="2">  1       21 0.35932206E-02 0.35189561E+02</pdfrwt>
<totfact> 0.42438262E+07</totfact>
</mgrwt>
</event>
<event>
 4    1  0.4556894E+006  0.2308312E+02  0.7546771E-02  0.1690166E+00
         21   -1    0    0  504  501  0.00000000000E+00  0.00000000000E+00  0.54635113556E+03  0.54635113556E+03  0.00000000000E+00 0. -1.
         21   -1    0    0  501  502 -0.00000000000E+00 -0.00000000000E+00 -0.34247593951E+01  0.34247593951E+01  0.00000000000E+00 0. -1.
         21    1    1    2  503  502  0.14864627406E+02 -0.17659938291E+02  0.38986207151E+02  0.45307338438E+02  0.00000000000E+00 0. -1.
         21    1    1    2  504  503 -0.14864627406E+02  0.17659938291E+02  0.50394016901E+03  0.50446855652E+03  0.00000000000E+00 0. -1.
<mgrwt>
<rscale>  2 0.23083123E+02</rscale>
<asrwt>0</asrwt>
<pdfrwt beam="1">  1       21 0.84053952E-01 0.23083123E+02</pdfrwt>
<pdfrwt beam="2">  1       21 0.52688649E-03 0.23083123E+02</pdfrwt>
<totfact> 0.10400701E+07</totfact>
</mgrwt>
</event>
<event>
 4    1  0.4556894E+006  0.2317534E+02  0.7546771E-02  0.1688684E+00
         21   -1    0    0  503  501  0.00000000000E+00  0.00000000000E+00  0.20375424507E+03  0.20375424507E+03  0.00000000000E+00 0. -1.
         21   -1    0    0  504  502 -0.00000000000E+00 -0.00000000000E+00 -0.12962613343E+02  0.12962613343E+02  0.00000000000E+00 0. -1.
         21    1    1    2  503  502 -0.23135655169E+02  0.13557195693E+01 -0.13195194391E+01  0.23212876754E+02  0.00000000000E+00 0. -1.
         21    1    1    2  504  501  0.23135655169E+02 -0.13557195693E+01  0.19211115116E+03  0.19350398166E+03  0.00000000000E+00 0. -1.
<mgrwt>
<rscale>  2 0.23175343E+02</rscale>
<asrwt>0</asrwt>
<pdfrwt beam="1">  1       21 0.31346805E-01 0.23175343E+02</pdfrwt>
<pdfrwt beam="2">  1       21 0.19942484E-02 0.23175343E+02</pdfrwt>
<totfact> 0.97051631E+06</totfact>
</mgrwt>
</event>
<event>
 4    1  0.4556894E+006  0.2618690E+02  0.7546771E-02  0.1644517E+00
         21   -1    0    0  502  501  0.00000000000E+00  0.00000000000E+00  0.13377705189E+01  0.13377705189E+01  0.00000000000E+00 0.  1.
         21   -1    0    0  503  502 -0.00000000000E+00 -0.00000000000E+00 -0.10898481344E+04  0.10898481344E+04  0.00000000000E+00 0.  1.
         21    1    1    2  503  504 -0.32611603438E+01 -0.25983046656E+02 -0.94132187013E+03  0.94168605016E+03  0.00000000000E+00 0.  1.
         21    1    1    2  504  501  0.32611603438E+01  0.25983046656E+02 -0.14718849375E+03  0.14949985476E+03  0.00000000000E+00 0.  1.
<mgrwt>
<rscale>  2 0.26186903E+02</rscale>
<asrwt>0</asrwt>
<pdfrwt beam="1">  1       21 0.20581168E-03 0.26186903E+02</pdfrwt>
<pdfrwt beam="2">  1       21 0.16766827E+00 0.26186903E+02</pdfrwt>
<totfact> 0.87283978E+06</totfact>
</mgrwt>
</event>
<event>
 4    1  0.4556894E+006  0.2860207E+02  0.7546771E-02  0.1614076E+00
         21   -1    0    0  503  501  0.00000000000E+00  0.00000000000E+00  0.40516934091E+03  0.40516934091E+03  0.00000000000E+00 0.  1.
         21   -1    0    0  501  502 -0.00000000000E+00 -0.00000000000E+00 -0.10845649918E+02  0.10845649918E+02  0.00000000000E+00 0.  1.
         21    1    1    2  503  504  0.99846234262E+01 -0.26802720779E+02  0.38481100177E+03  0.38587249919E+03  0.00000000000E+00 0.  1.
         21    1    1    2  504  502 -0.99846234262E+01  0.26802720779E+02  0.95126892226E+01  0.30142491642E+02  0.00000000000E+00 0.  1.
<mgrwt>
<rscale>  2 0.28602072E+02</rscale>
<asrwt>0</asrwt>
<pdfrwt beam="1">  1       21 0.62333733E-01 0.28602072E+02</pdfrwt>
<pdfrwt beam="2">  1       21 0.16685618E-02 0.28602072E+02</pdfrwt>
<totfact> 0.35134167E+06</totfact>
</mgrwt>
</event>
<event>
 4    1  0.4556894E+006  0.4166142E+02  0.7546771E-02  0.1496329E+00
         21   -1    0    0  503  501  0.00000000000E+00  0.00000000000E+00  0.19001964054E+02  0.19001964054E+02  0.00000000000E+00 0. -1.
         21   -1    0    0  504  502 -0.00000000000E+00 -0.00000000000E+00 -0.14484042347E+03  0.14484042347E+03  0.00000000000E+00 0. -1.
         21    1    1    2  503  502 -0.41282933850E+02 -0.56029843725E+01 -0.11270698940E+03  0.12016047404E+03  0.00000000000E+00 0. -1.
         21    1    1    2  504  501  0.41282933850E+02  0.56029843725E+01 -0.13131470016E+02  0.43681913487E+02  0.00000000000E+00 0. -1.
<mgrwt>
<rscale>  2 0.41661422E+02</rscale>
<asrwt>0</asrwt>
<pdfrwt beam="1">  1       21 0.29233791E-02 0.41661422E+02</pdfrwt>
<pdfrwt beam="2">  1       21 0.22283142E-01 0.41661422E+02</pdfrwt>
<totfact> 0.10882643E+07</totfact>
</mgrwt>
</event>
<event>
 4    1  0.4556894E+006  0.2051658E+02  0.7546771E-02  0.1735246E+00
         21   -1    0    0  504  501  0.00000000000E+00  0.00000000000E+00  0.28610182134E+02  0.28610182134E+02  0.00000000000E+00 0. -1.
         21   -1    0    0  501  502 -0.00000000000E+00 -0.00000000000E+00 -0.17271693017E+02  0.17271693017E+02  0.00000000000E+00 0. -1.
         21    1    1    2  503  502  0.20489255946E+02  0.10585911961E+01 -0.31612813525E+01  0.20758707194E+02  0.00000000000E+00 0. -1.
         21    1    1    2  504  503 -0.20489255946E+02 -0.10585911961E+01  0.14499770470E+02  0.25123167958E+02  0.00000000000E+00 0. -1.
<mgrwt>
<rscale>  2 0.20516584E+02</rscale>
<asrwt>0</asrwt>
<pdfrwt beam="1">  1       21 0.44015665E-02 0.20516584E+02</pdfrwt>
<pdfrwt beam="2">  1       21 0.26571836E-02 0.20516584E+02</pdfrwt>
<totfact> 0.16350043E+08</totfact>
</mgrwt>
</event>
<event>
 4    1  0.4556894E+006  0.2282650E+02  0.7546771E-02  0.1694338E+00
         21   -1    0    0  503  501  0.00000000000E+00  0.00000000000E+00  0.19185636190E+03  0.19185636190E+03  0.00000000000E+00 0. -1.
         21   -1    0    0  501  502 -0.00000000000E+00 -0.00000000000E+00 -0.38859379706E+01  0.38859379706E+01  0.00000000000E+00 0. -1.
         21    1    1    2  503  504  0.22586345357E+02 -0.33024427509E+01  0.14769084773E+03  0.14944442321E+03  0.00000000000E+00 0. -1.
         21    1    1    2  504  502 -0.22586345357E+02  0.33024427509E+01  0.40279576199E+02  0.46297876663E+02  0.00000000000E+00 0. -1.
<mgrwt>
<rscale>  2 0.22826500E+02</rscale>
<asrwt>0</asrwt>
<pdfrwt beam="1">  1       21 0.29516356E-01 0.22826500E+02</pdfrwt>
<pdfrwt beam="2">  1       21 0.59783676E-03 0.22826500E+02</pdfrwt>
<totfact> 0.66266218E+07</totfact>
</mgrwt>
</event>
<event>
 4    1  0.4556894E+006  0.3072342E+02  0.7546771E-02  0.1590227E+00
         21   -1    0    0  503  501  0.00000000000E+00  0.00000000000E+00  0.19996805917E+02  0.19996805917E+02  0.00000000000E+00 0. -1.
         21   -1    0    0  504  502 -0.00000000000E+00 -0.00000000000E+00 -0.55693693275E+02  0.55693693275E+02  0.00000000000E+00 0. -1.
         21    1    1    2  503  502  0.10553690949E+02  0.28853914595E+02 -0.32624377435E+02  0.44813823572E+02  0.00000000000E+00 0. -1.
         21    1    1    2  504  501 -0.10553690949E+02 -0.28853914595E+02 -0.30725099229E+01  0.30876675620E+02  0.00000000000E+00 0. -1.
<mgrwt>
<rscale>  2 0.30723424E+02</rscale>
<asrwt>0</asrwt>
<pdfrwt beam="1">  1       21 0.30764317E-02 0.30723424E+02</pdfrwt>
<pdfrwt beam="2">  1       21 0.85682605E-02 0.30723424E+02</pdfrwt>
<totfact> 0.49468584E+07</totfact>
</mgrwt>
</event>
<event>
 4    1  0.4556894E+006  0.2718376E+02  0.7546771E-02  0.1631482E+00
         21   -1    0    0  504  501  0.00000000000E+00  0.00000000000E+00  0.44199554361E+02  0.44199554361E+02  0.00000000000E+00 0.  1.
         21   -1    0    0  503  502 -0.00000000000E+00 -0.00000000000E+00 -0.14749441751E+03  0.14749441751E+03  0.00000000000E+00 0. -1.
         21    1    1    2  503  501 -0.34050973437E+01  0.26969656108E+02  0.38604042008E+02  0.47214712726E+02  0.00000000000E+00 0.  1.
         21    1    1    2  504  502  0.34050973437E+01 -0.26969656108E+02 -0.14189890516E+03  0.14447925915E+03  0.00000000000E+00 0. -1.
<mgrwt>
<rscale>  2 0.27183764E+02</rscale>
<asrwt>0</asrwt>
<pdfrwt beam="1">  1       21 0.67999316E-02 0.27183764E+02</pdfrwt>
<pdfrwt beam="2">  1       21 0.22691448E-01 0.27183764E+02</pdfrwt>
<totfact> 0.25708454E+06</totfact>
</mgrwt>
</event>
<event>
 4    1  0.4556894E+006  0.4763144E+02  0.7546771E-02  0.1458552E+00
         21   -1    0    0  504  501  0.00000000000E+00  0.00000000000E+00  0.29852154725E+03  0.29852154725E+03  0.00000000000E+00 0.  1.
         21   -1    0    0  503  502 -0.00000000000E+00 -0.00000000000E+00 -0.18930438215E+02  0.18930438215E+02  0.00000000000E+00 0. -1.
         21    1    1    2  503  501  0.30833697301E+01  0.47531533686E+02  0.16997437604E+02  0.50573379841E+02  0.00000000000E+00 0. -1.
         21    1    1    2  504  502 -0.30833697301E+01 -0.47531533686E+02  0.26259367143E+03  0.26687860562E+03  0.00000000000E+00 0.  1.
<mgrwt>
<rscale>  2 0.47631438E+02</rscale>
<asrwt>0</asrwt>
<pdfrwt beam="1">  1       21 0.45926389E-01 0.47631438E+02</pdfrwt>
<pdfrwt beam="2">  1       21 0.29123753E-02 0.47631438E+02</pdfrwt>
<totfact> 0.28429625E+06</totfact>
</mgrwt>
</event>
<event>
 4    1  0.4556894E+006  0.2288667E+02  0.7546771E-02  0.1693354E+00
         21   -1    0    0  504  501  0.00000000000E+00  0.00000000000E+00  0.15407764904E+02  0.15407764904E+02  0.00000000000E+00 0. -1.
         21   -1    0    0  503  502 -0.00000000000E+00 -0.00000000000E+00 -0.22399999516E+03  0.22399999516E+03  0.00000000000E+00 0. -1.
         21    1    1    2  503  501  0.22860963541E+02 -0.10843829894E+01  0.59506359630E+01  0.23647613174E+02  0.00000000000E+00 0. -1.
         21    1    1    2  504  502 -0.22860963541E+02  0.10843829894E+01 -0.21454286622E+03  0.21576014689E+03  0.00000000000E+00 0. -1.
<mgrwt>
<rscale>  2 0.22886667E+02</rscale>
<asrwt>0</asrwt>
<pdfrwt beam="1">  1       21 0.23704253E-02 0.22886667E+02</pdfrwt>
<pdfrwt beam="2">  1       21 0.34461539E-01 0.22886667E+02</pdfrwt>
<totfact> 0.62359973E+06</totfact>
</mgrwt>
</event>
<event>
 4    1  0.4556894E+006  0.2410722E+02  0.7546771E-02  0.1674167E+00
         21   -1    0    0  502  501  0.00000000000E+00  0.00000000000E+00  0.59361665736E+01  0.59361665736E+01  0.00000000000E+00 0.  1.
         21   -1    0    0  504  502 -0.00000000000E+00 -0.00000000000E+00 -0.14229511502E+03  0.14229511502E+03  0.00000000000E+00 0.  1.
         21    1    1    2  503  501  0.11970468747E+02 -0.20925242925E+02 -0.26781744245E+02  0.36033591804E+02  0.00000000000E+00 0.  1.
         21    1    1    2  504  503 -0.11970468747E+02  0.20925242925E+02 -0.10957720421E+03  0.11219768979E+03  0.00000000000E+00 0.  1.
<mgrwt>
<rscale>  2 0.24107217E+02</rscale>
<asrwt>0</asrwt>
<pdfrwt beam="1">  1       21 0.91325650E-03 0.24107217E+02</pdfrwt>
<pdfrwt beam="2">  1       21 0.21891554E-01 0.24107217E+02</pdfrwt>
<totfact> 0.60970797E+07</totfact>
</mgrwt>
</event>
<event>
 4    1  0.4556894E+006  0.2312368E+02  0.7546771E-02  0.1689513E+00
         21   -1    0    0  502  501  0.00000000000E+00  0.00000000000E+00  0.47146524828E+02  0.47146524828E+02  0.00000000000E+00 0.  1.
         21   -1    0    0  503  502 -0.00000000000E+00 -0.00000000000E+00 -0.13091346872E+02  0.13091346872E+02  0.00000000000E+00 0.  1.
         21    1    1    2  503  504  0.23082319849E+02  0.13823578238E+01  0.60155358904E+01  0.23893326993E+02  0.00000000000E+00 0.  1.
         21    1    1    2  504  501 -0.23082319849E+02 -0.13823578238E+01  0.28039642066E+02  0.36344544706E+02  0.00000000000E+00 0.  1.
<mgrwt>
<rscale>  2 0.23123676E+02</rscale>
<asrwt>0</asrwt>
<pdfrwt beam="1">  1       21 0.72533115E-02 0.23123676E+02</pdfrwt>
<pdfrwt beam="2">  1       21 0.20140534E-02 0.23123676E+02</pdfrwt>
<totfact> 0.11689879E+08</totfact>
</mgrwt>
</event>
<event>
 4    1  0.4556894E+006  0.4733320E+02  0.7546771E-02  0.1460280E+00
         21   -1    0    0  504  501  0.00000000000E+00  0.00000000000E+00  0.35974043535E+03  0.35974043535E+03  0.00000000000E+00 0.  1.
         21   -1    0    0  503  502 -0.00000000000E+00 -0.00000000000E+00 -0.63810706406E+01  0.63810706406E+01  0.00000000000E+00 0.  1.
         21    1    1    2  503  501 -0.46725137509E+02 -0.75626450942E+01  0.14831891156E+03  0.15568857249E+03  0.00000000000E+00 0.  1.
         21    1    1    2  504  502  0.46725137509E+02  0.75626450942E+01  0.20504045315E+03  0.21043293351E+03  0.00000000000E+00 0.  1.
<mgrwt>
<rscale>  2 0.47333203E+02</rscale>
<asrwt>0</asrwt>
<pdfrwt beam="1">  1       21 0.55344666E-01 0.47333203E+02</pdfrwt>
<pdfrwt beam="2">  1       21 0.98170346E-03 0.47333203E+02</pdfrwt>
<totfact> 0.10707549E+07</totfact>
</mgrwt>
</event>
<event>
 4    1  0.4556894E+006  0.2557807E+02  0.7546771E-02  0.1652835E+00
         21   -1    0    0  503  501  0.00000000000E+00  0.00000000000E+00  0.17330754601E+03  0.17330754601E+03  0.00000000000E+00 0.  1.
         21   -1    0    0  504  502 -0.00000000000E+00 -0.00000000000E+00 -0.40089812020E+01  0.40089812020E+01  0.00000000000E+00 0.  1.
         21    1    1    2  503  502 -0.16802253272E+02  0.19285276099E+02  0.63231026123E+02  0.68208505729E+02  0.00000000000E+00 0.  1.
         21    1    1    2  504  501  0.16802253272E+02 -0.19285276099E+02  0.10606753868E+03  0.10910802148E+03  0.00000000000E+00 0.  1.
<mgrwt>
<rscale>  2 0.25578069E+02</rscale>
<asrwt>0</asrwt>
<pdfrwt beam="1">  1       21 0.26662694E-01 0.25578069E+02</pdfrwt>
<pdfrwt beam="2">  1       21 0.61676647E-03 0.25578069E+02</pdfrwt>
<totfact> 0.78249847E+07</totfact>
</mgrwt>
</event>
<event>
 4    1  0.4556894E+006  0.2246883E+02  0.7546771E-02  0.1700268E+00
         21   -1    0    0  502  501  0.00000000000E+00  0.00000000000E+00  0.88121191812E+02  0.88121191812E+02  0.00000000000E+00 0.  1.
         21   -1    0    0  504  502 -0.00000000000E+00 -0.00000000000E+00 -0.35474525033E+02  0.35474525033E+02  0.00000000000E+00 0. -1.
         21    1    1    2  503  501 -0.22468802225E+02 -0.38361470069E-01  0.82911518370E+02  0.85902086258E+02  0.00000000000E+00 0.  1.
         21    1    1    2  504  503  0.22468802225E+02  0.38361470069E-01 -0.30264851591E+02  0.37693630587E+02  0.00000000000E+00 0. -1.
<mgrwt>
<rscale>  2 0.22468835E+02</rscale>
<asrwt>0</asrwt>
<pdfrwt beam="1">  1       21 0.13557106E-01 0.22468835E+02</pdfrwt>
<pdfrwt beam="2">  1       21 0.54576193E-02 0.22468835E+02</pdfrwt>
<totfact> 0.86806107E+06</totfact>
</mgrwt>
</event>
<event>
 4    1  0.4556894E+006  0.2343774E+02  0.7546771E-02  0.1684511E+00
         21   -1    0    0  503  501  0.00000000000E+00  0.00000000000E+00  0.41277494534E+01  0.41277494534E+01  0.00000000000E+00 0. -1.
         21   -1    0    0  504  502 -0.00000000000E+00 -0.00000000000E+00 -0.16718195633E+03  0.16718195633E+03  0.00000000000E+00 0. -1.
         21    1    1    2  503  502 -0.18275999849E+02  0.14673638875E+02 -0.12021153289E+03  0.12247506068E+03  0.00000000000E+00 0. -1.
         21    1    1    2  504  501  0.18275999849E+02 -0.14673638875E+02 -0.42842673990E+02  0.48834645109E+02  0.00000000000E+00 0. -1.
<mgrwt>
<rscale>  2 0.23437744E+02</rscale>
<asrwt>0</asrwt>
<pdfrwt beam="1">  1       21 0.63503851E-03 0.23437744E+02</pdfrwt>
<pdfrwt beam="2">  1       21 0.25720296E-01 0.23437744E+02</pdfrwt>
<totfact> 0.78187836E+07</totfact>
</mgrwt>
</event>
<event>
 4    1  0.4556894E+006  0.2500081E+02  0.7546771E-02  0.1660990E+00
         21   -1    0    0  504  501  0.00000000000E+00  0.00000000000E+00  0.77271472737E+02  0.77271472737E+02  0.00000000000E+00 0.  1.
         21   -1    0    0  503  502 -0.00000000000E+00 -0.00000000000E+00 -0.90339420587E+01  0.90339420587E+01  0.00000000000E+00 0.  1.
         21    1    1    2  503  501 -0.24522854755E+02  0.48651847554E+01  0.48075933437E+02  0.54187967335E+02  0.00000000000E+00 0.  1.
         21    1    1    2  504  502  0.24522854755E+02 -0.48651847554E+01  0.20161597241E+02  0.32117447460E+02  0.00000000000E+00 0.  1.
<mgrwt>
<rscale>  2 0.25000809E+02</rscale>
<asrwt>0</asrwt>
<pdfrwt beam="1">  1       21 0.11887918E-01 0.25000809E+02</pdfrwt>
<pdfrwt beam="2">  1       21 0.13898373E-02 0.25000809E+02</pdfrwt>
<totfact> 0.93196833E+07</totfact>
</mgrwt>
</event>
<event>
 4    1  0.4556894E+006  0.2716555E+02  0.7546771E-02  0.1631714E+00
         21   -1    0    0  503  501  0.00000000000E+00  0.00000000000E+00  0.10093474524E+03  0.10093474524E+03  0.00000000000E+00 0.  1.
         21   -1    0    0  504  502 -0.00000000000E+00 -0.00000000000E+00 -0.11722230418E+02  0.11722230418E+02  0.00000000000E+00 0.  1.
         21    1    1    2  503  502 -0.82246156600E+01  0.25890589220E+02  0.79159335949E+02  0.83690903812E+02  0.00000000000E+00 0.  1.
         21    1    1    2  504  501  0.82246156600E+01 -0.25890589220E+02  0.10053178876E+02  0.28966071850E+02  0.00000000000E+00 0.  1.
<mgrwt>
<rscale>  2 0.27165546E+02</rscale>
<asrwt>0</asrwt>
<pdfrwt beam="1">  1       21 0.15528422E-01 0.27165546E+02</pdfrwt>
<pdfrwt beam="2">  1       21 0.18034201E-02 0.27165546E+02</pdfrwt>
<totfact> 0.40548837E+07</totfact>
</mgrwt>
</event>
<event>
 4    1  0.4556894E+006  0.2527686E+02  0.7546771E-02  0.1657057E+00
         21   -1    0    0  503  501  0.00000000000E+00  0.00000000000E+00  0.68608855871E+03  0.68608855871E+03  0.00000000000E+00 0.  1.
         21   -1    0    0  501  502 -0.00000000000E+00 -0.00000000000E+00 -0.35857582018E+02  0.35857582018E+02  0.00000000000E+00 0. -1.
         21    1    1    2  503  504 -0.22070593627E+02  0.12321053779E+02  0.68137034771E+03  0.68183903541E+03  0.00000000000E+00 0.  1.
         21    1    1    2  504  502  0.22070593627E+02 -0.12321053779E+02 -0.31139371021E+02  0.40107105316E+02  0.00000000000E+00 0. -1.
<mgrwt>
<rscale>  2 0.25276856E+02</rscale>
<asrwt>0</asrwt>
<pdfrwt beam="1">  1       21 0.10555208E+00 0.25276856E+02</pdfrwt>
<pdfrwt beam="2">  1       21 0.55165516E-02 0.25276856E+02</pdfrwt>
<totfact> 0.17488032E+05</totfact>
</mgrwt>
</event>
<event>
 4    1  0.4556894E+006  0.4078566E+02  0.7546771E-02  0.1502508E+00
         21   -1    0    0  503  501  0.00000000000E+00  0.00000000000E+00  0.14570314141E+01  0.14570314141E+01  0.00000000000E+00 0. -1.
         21   -1    0    0  504  502 -0.00000000000E+00 -0.00000000000E+00 -0.11577551405E+04  0.11577551405E+04  0.00000000000E+00 0. -1.
         21    1    1    2  503  502 -0.37156415302E+02 -0.16818777181E+02 -0.50986197304E+03  0.51149066660E+03  0.00000000000E+00 0. -1.
         21    1    1    2  504  501  0.37156415302E+02  0.16818777181E+02 -0.64643613609E+03  0.64772150536E+03  0.00000000000E+00 0. -1.
<mgrwt>
<rscale>  2 0.40785665E+02</rscale>
<asrwt>0</asrwt>
<pdfrwt beam="1">  1       21 0.22415814E-03 0.40785665E+02</pdfrwt>
<pdfrwt beam="2">  1       21 0.17811660E+00 0.40785665E+02</pdfrwt>
<totfact> 0.68926342E+06</totfact>
</mgrwt>
</event>
<event>
 4    1  0.4556894E+006  0.2430543E+02  0.7546771E-02  0.1671183E+00
         21   -1    0    0  503  501  0.00000000000E+00  0.00000000000E+00  0.15424903011E+02  0.15424903011E+02  0.00000000000E+00 0.  1.
         21   -1    0    0  501  502 -0.00000000000E+00 -0.00000000000E+00 -0.17056686944E+03  0.17056686944E+03  0.00000000000E+00 0.  1.
         21    1    1    2  503  504  0.15540397746E+02  0.18688230976E+02  0.43215014019E+01  0.24686622156E+02  0.00000000000E+00 0.  1.
         21    1    1    2  504  502 -0.15540397746E+02 -0.18688230976E+02 -0.15946346783E+03  0.16130515030E+03  0.00000000000E+00 0.  1.
<mgrwt>
<rscale>  2 0.24305430E+02</rscale>
<asrwt>0</asrwt>
<pdfrwt beam="1">  1       21 0.23730621E-02 0.24305430E+02</pdfrwt>
<pdfrwt beam="2">  1       21 0.26241056E-01 0.24305430E+02</pdfrwt>
<totfact> 0.10338277E+07</totfact>
</mgrwt>
</event>
<event>
 4    1  0.4556894E+006  0.2014280E+02  0.7546771E-02  0.1742503E+00
         21   -1    0    0  504  501  0.00000000000E+00  0.00000000000E+00  0.65200720576E+03  0.65200720576E+03  0.00000000000E+00 0. -1.
         21   -1    0    0  503  502 -0.00000000000E+00 -0.00000000000E+00 -0.15505024916E+03  0.15505024916E+03  0.00000000000E+00 0. -1.
         21    1    1    2  503  501  0.14352372888E+01  0.20091602342E+02 -0.15423966953E+03  0.15554937495E+03  0.00000000000E+00 0. -1.
         21    1    1    2  504  502 -0.14352372888E+01 -0.20091602342E+02  0.65119662613E+03  0.65150807997E+03  0.00000000000E+00 0. -1.
<mgrwt>
<rscale>  2 0.20142800E+02</rscale>
<asrwt>0</asrwt>
<pdfrwt beam="1">  1       21 0.10030880E+00 0.20142800E+02</pdfrwt>
<pdfrwt beam="2">  1       21 0.23853885E-01 0.20142800E+02</pdfrwt>
<totfact> 0.17002336E+04</totfact>
</mgrwt>
</event>
<event>
 4    1  0.4556894E+006  0.2055043E+02  0.7546771E-02  0.1734599E+00
         21   -1    0    0  502  501  0.00000000000E+00  0.00000000000E+00  0.64430052083E+02  0.64430052083E+02  0.00000000000E+00 0. -1.
         21   -1    0    0  503  502 -0.00000000000E+00 -0.00000000000E+00 -0.66275289203E+01  0.66275289203E+01  0.00000000000E+00 0. -1.
         21    1    1    2  503  504  0.17728528855E+02  0.10393236672E+02  0.25177034874E+02  0.32499279822E+02  0.00000000000E+00 0. -1.
         21    1    1    2  504  501 -0.17728528855E+02 -0.10393236672E+02  0.32625488289E+02  0.38558301181E+02  0.00000000000E+00 0. -1.
<mgrwt>
<rscale>  2 0.20550428E+02</rscale>
<asrwt>0</asrwt>
<pdfrwt beam="1">  1       21 0.99123153E-02 0.20550428E+02</pdfrwt>
<pdfrwt beam="2">  1       21 0.10196199E-02 0.20550428E+02</pdfrwt>
<totfact> 0.18991151E+08</totfact>
</mgrwt>
</event>
<event>
 4    1  0.4556894E+006  0.2585818E+02  0.7546771E-02  0.1648973E+00
         21   -1    0    0  504  501  0.00000000000E+00  0.00000000000E+00  0.15546415206E+03  0.15546415206E+03  0.00000000000E+00 0.  1.
         21   -1    0    0  501  502 -0.00000000000E+00 -0.00000000000E+00 -0.10030128030E+02  0.10030128030E+02  0.00000000000E+00 0.  1.
         21    1    1    2  503  502 -0.24754582321E+02  0.74736955124E+01  0.10178802447E+02  0.27789449252E+02  0.00000000000E+00 0.  1.
         21    1    1    2  504  503  0.24754582321E+02 -0.74736955124E+01  0.13525522158E+03  0.13770483084E+03  0.00000000000E+00 0.  1.
<mgrwt>
<rscale>  2 0.25858180E+02</rscale>
<asrwt>0</asrwt>
<pdfrwt beam="1">  1       21 0.23917560E-01 0.25858180E+02</pdfrwt>
<pdfrwt beam="2">  1       21 0.15430967E-02 0.25858180E+02</pdfrwt>
<totfact> 0.23928626E+07</totfact>
</mgrwt>
</event>
<event>
 4    1  0.4556894E+006  0.2082526E+02  0.7546771E-02  0.1729398E+00
         21   -1    0    0  503  501  0.00000000000E+00  0.00000000000E+00  0.30035336993E+02  0.30035336993E+02  0.00000000000E+00 0.  1.
         21   -1    0    0  504  502 -0.00000000000E+00 -0.00000000000E+00 -0.26140029381E+02  0.26140029381E+02  0.00000000000E+00 0.  1.
         21    1    1    2  503  502  0.20581563792E+02  0.31765860215E+01 -0.16844128583E+02  0.26784624966E+02  0.00000000000E+00 0.  1.
         21    1    1    2  504  501 -0.20581563792E+02 -0.31765860215E+01  0.20739436194E+02  0.29390741408E+02  0.00000000000E+00 0.  1.
<mgrwt>
<rscale>  2 0.20825260E+02</rscale>
<asrwt>0</asrwt>
<pdfrwt beam="1">  1       21 0.46208211E-02 0.20825260E+02</pdfrwt>
<pdfrwt beam="2">  1       21 0.40215430E-02 0.20825260E+02</pdfrwt>
<totfact> 0.79816701E+07</totfact>
</mgrwt>
</event>
<event>
 4    1  0.4556894E+006  0.2318858E+02  0.7546771E-02  0.1688471E+00
         21   -1    0    0  504  501  0.00000000000E+00  0.00000000000E+00  0.45702639300E+01  0.45702639300E+01  0.00000000000E+00 0. -1.
         21   -1    0    0  503  502 -0.00000000000E+00 -0.00000000000E+00 -0.13147997544E+03  0.13147997544E+03  0.00000000000E+00 0. -1.
         21    1    1    2  503  501  0.40560020971E+01 -0.22831098584E+02 -0.85513868989E+02  0.88602099327E+02  0.00000000000E+00 0. -1.
         21    1    1    2  504  502 -0.40560020971E+01  0.22831098584E+02 -0.41395842518E+02  0.47448140041E+02  0.00000000000E+00 0. -1.
<mgrwt>
<rscale>  2 0.23188579E+02</rscale>
<asrwt>0</asrwt>
<pdfrwt beam="1">  1       21 0.70311764E-03 0.23188579E+02</pdfrwt>
<pdfrwt beam="2">  1       21 0.20227685E-01 0.23188579E+02</pdfrwt>
<totfact> 0.10246970E+08</totfact>
</mgrwt>
</event>
<event>
 4    1  0.4556894E+006  0.3838353E+02  0.7546771E-02  0.1520455E+00
         21   -1    0    0  503  501  0.00000000000E+00  0.00000000000E+00  0.27528247785E+01  0.27528247785E+01  0.00000000000E+00 0. -1.
         21   -1    0    0  504  502 -0.00000000000E+00 -0.00000000000E+00 -0.67803300494E+03  0.67803300494E+03  0.00000000000E+00 0. -1.
         21    1    1    2  503  502  0.37216998560E+02 -0.93909724126E+01 -0.18140503662E+03  0.18542136515E+03  0.00000000000E+00 0. -1.
         21    1    1    2  504  501 -0.37216998560E+02  0.93909724126E+01 -0.49387514355E+03  0.49536446457E+03  0.00000000000E+00 0. -1.
<mgrwt>
<rscale>  2 0.38383530E+02</rscale>
<asrwt>0</asrwt>
<pdfrwt beam="1">  1       21 0.42351077E-03 0.38383530E+02</pdfrwt>
<pdfrwt beam="2">  1       21 0.10431295E+00 0.38383530E+02</pdfrwt>
<totfact> 0.96368587E+06</totfact>
</mgrwt>
</event>
<event>
 4    1  0.4556894E+006  0.2962826E+02  0.7546771E-02  0.1602234E+00
         21   -1    0    0  504  501  0.00000000000E+00  0.00000000000E+00  0.26557619515E+02  0.26557619515E+02  0.00000000000E+00 0. -1.
         21   -1    0    0  503  502 -0.00000000000E+00 -0.00000000000E+00 -0.33385947911E+02  0.33385947911E+02  0.00000000000E+00 0. -1.
         21    1    1    2  503  501  0.16263648522E+02  0.24765453326E+02 -0.64030233570E+01  0.30312252470E+02  0.00000000000E+00 0. -1.
         21    1    1    2  504  502 -0.16263648522E+02 -0.24765453326E+02 -0.42530503882E+00  0.29631314956E+02  0.00000000000E+00 0. -1.
<mgrwt>
<rscale>  2 0.29628263E+02</rscale>
<asrwt>0</asrwt>
<pdfrwt beam="1">  1       21 0.40857876E-02 0.29628263E+02</pdfrwt>
<pdfrwt beam="2">  1       21 0.51362997E-02 0.29628263E+02</pdfrwt>
<totfact> 0.72182853E+07</totfact>
</mgrwt>
</event>
<event>
 4    1  0.4556894E+006  0.3265288E+02  0.7546771E-02  0.1570489E+00
         21   -1    0    0  504  501  0.00000000000E+00  0.00000000000E+00  0.10724284952E+02  0.10724284952E+02  0.00000000000E+00 0.  1.
         21   -1    0    0  503  502 -0.00000000000E+00 -0.00000000000E+00 -0.19604799626E+04  0.19604799626E+04  0.00000000000E+00 0.  1.
         21    1    1    2  503  501 -0.45548781744E+01  0.32333629395E+02 -0.19351638160E+04  0.19354392796E+04  0.00000000000E+00 0.  1.
         21    1    1    2  504  502  0.45548781744E+01 -0.32333629395E+02 -0.14591861726E+02  0.35764967966E+02  0.00000000000E+00 0.  1.
<mgrwt>
<rscale>  2 0.32652879E+02</rscale>
<asrwt>0</asrwt>
<pdfrwt beam="1">  1       21 0.16498891E-02 0.32652879E+02</pdfrwt>
<pdfrwt beam="2">  1       21 0.30161246E+00 0.32652879E+02</pdfrwt>
<totfact> 0.73894792E+04</totfact>
</mgrwt>
</event>
<event>
 4    1  0.4556894E+006  0.2419545E+02  0.7546771E-02  0.1672834E+00
         21   -1    0    0  502  501  0.00000000000E+00  0.00000000000E+00  0.94100109435E+02  0.94100109435E+02  0.00000000000E+00 0. -1.
         21   -1    0    0  504  502 -0.00000000000E+00 -0.00000000000E+00 -0.28061133340E+02  0.28061133340E+02  0.00000000000E+00 0.  1.
         21    1    1    2  503  501  0.20927816215E+02  0.12142752092E+02  0.86905499708E+02  0.90210785383E+02  0.00000000000E+00 0. -1.
         21    1    1    2  504  503 -0.20927816215E+02 -0.12142752092E+02 -0.20866523613E+02  0.31950457393E+02  0.00000000000E+00 0.  1.
<mgrwt>
<rscale>  2 0.24195452E+02</rscale>
<asrwt>0</asrwt>
<pdfrwt beam="1">  1       21 0.14476940E-01 0.24195452E+02</pdfrwt>
<pdfrwt beam="2">  1       21 0.43170975E-02 0.24195452E+02</pdfrwt>
<totfact> 0.11439936E+07</totfact>
</mgrwt>
</event>
<event>
 4    1  0.4556894E+006  0.2107974E+02  0.7546771E-02  0.1724671E+00
         21   -1    0    0  504  501  0.00000000000E+00  0.00000000000E+00  0.72784766188E+02  0.72784766188E+02  0.00000000000E+00 0.  1.
         21   -1    0    0  503  502 -0.00000000000E+00 -0.00000000000E+00 -0.27449347668E+02  0.27449347668E+02  0.00000000000E+00 0.  1.
         21    1    1    2  503  501  0.38962284496E+01  0.20716531226E+02  0.66861412257E+02  0.70105661049E+02  0.00000000000E+00 0.  1.
         21    1    1    2  504  502 -0.38962284496E+01 -0.20716531226E+02 -0.21525993737E+02  0.30128452807E+02  0.00000000000E+00 0.  1.
<mgrwt>
<rscale>  2 0.21079736E+02</rscale>
<asrwt>0</asrwt>
<pdfrwt beam="1">  1       21 0.11197656E-01 0.21079736E+02</pdfrwt>
<pdfrwt beam="2">  1       21 0.42229766E-02 0.21079736E+02</pdfrwt>
<totfact> 0.17718999E+07</totfact>
</mgrwt>
</event>
<event>
 4    1  0.4556894E+006  0.2161808E+02  0.7546771E-02  0.1714942E+00
         21   -1    0    0  503  501  0.00000000000E+00  0.00000000000E+00  0.28410797535E+02  0.28410797535E+02  0.00000000000E+00 0. -1.
         21   -1    0    0  504  502 -0.00000000000E+00 -0.00000000000E+00 -0.16487311289E+02  0.16487311289E+02  0.00000000000E+00 0. -1.
         21    1    1    2  503  502  0.54751712548E+01 -0.20913251737E+02  0.70377141133E+01  0.22734797523E+02  0.00000000000E+00 0. -1.
         21    1    1    2  504  501 -0.54751712548E+01  0.20913251737E+02  0.48857721332E+01  0.22163311301E+02  0.00000000000E+00 0. -1.
<mgrwt>
<rscale>  2 0.21618085E+02</rscale>
<asrwt>0</asrwt>
<pdfrwt beam="1">  1       21 0.43708919E-02 0.21618085E+02</pdfrwt>
<pdfrwt beam="2">  1       21 0.25365094E-02 0.21618085E+02</pdfrwt>
<totfact> 0.18055896E+08</totfact>
</mgrwt>
</event>
<event>
 4    1  0.4556894E+006  0.2364959E+02  0.7546771E-02  0.1681192E+00
         21   -1    0    0  504  501  0.00000000000E+00  0.00000000000E+00  0.61945039751E+03  0.61945039751E+03  0.00000000000E+00 0. -1.
         21   -1    0    0  501  502 -0.00000000000E+00 -0.00000000000E+00 -0.68558720522E+01  0.68558720522E+01  0.00000000000E+00 0.  1.
         21    1    1    2  503  502 -0.22088396617E+02  0.84502082297E+01  0.14492588815E+02  0.27736950351E+02  0.00000000000E+00 0.  1.
         21    1    1    2  504  503  0.22088396617E+02 -0.84502082297E+01  0.59810193664E+03  0.59856931921E+03  0.00000000000E+00 0. -1.
<mgrwt>
<rscale>  2 0.23649594E+02</rscale>
<asrwt>0</asrwt>
<pdfrwt beam="1">  1       21 0.95300017E-01 0.23649594E+02</pdfrwt>
<pdfrwt beam="2">  1       21 0.10547500E-02 0.23649594E+02</pdfrwt>
<totfact> 0.28340548E+06</totfact>
</mgrwt>
</event>
<event>
 4    1  0.4556894E+006  0.4398812E+02  0.7546771E-02  0.1480759E+00
         21   -1    0    0  503  501  0.00000000000E+00  0.00000000000E+00  0.91008292870E+02  0.91008292870E+02  0.00000000000E+00 0.  1.
         21   -1    0    0  501  502 -0.00000000000E+00 -0.00000000000E+00 -0.46892165453E+02  0.46892165453E+02  0.00000000000E+00 0. -1.
         21    1    1    2  503  504  0.43312995269E+02  0.76772098125E+01  0.73034228627E+02  0.85258158911E+02  0.00000000000E+00 0.  1.
         21    1    1    2  504  502 -0.43312995269E+02 -0.76772098125E+01 -0.28918101210E+02  0.52642299411E+02  0.00000000000E+00 0. -1.
<mgrwt>
<rscale>  2 0.43988125E+02</rscale>
<asrwt>0</asrwt>
<pdfrwt beam="1">  1       21 0.14001276E-01 0.43988125E+02</pdfrwt>
<pdfrwt beam="2">  1       21 0.72141793E-02 0.43988125E+02</pdfrwt>
<totfact> 0.57546745E+06</totfact>
</mgrwt>
</event>
<event>
 4    1  0.4556894E+006  0.2865027E+02  0.7546771E-02  0.1613506E+00
         21   -1    0    0  504  501  0.00000000000E+00  0.00000000000E+00  0.11512209341E+02  0.11512209341E+02  0.00000000000E+00 0. -1.
         21   -1    0    0  503  502 -0.00000000000E+00 -0.00000000000E+00 -0.10965607156E+03  0.10965607156E+03  0.00000000000E+00 0.  1.
         21    1    1    2  503  501 -0.13096764733E+02 -0.25481620597E+02 -0.13241588545E+02  0.31562286070E+02  0.00000000000E+00 0. -1.
         21    1    1    2  504  502  0.13096764733E+02  0.25481620597E+02 -0.84902273678E+02  0.89605994836E+02  0.00000000000E+00 0.  1.
<mgrwt>
<rscale>  2 0.28650275E+02</rscale>
<asrwt>0</asrwt>
<pdfrwt beam="1">  1       21 0.17711091E-02 0.28650275E+02</pdfrwt>
<pdfrwt beam="2">  1       21 0.16870165E-01 0.28650275E+02</pdfrwt>
<totfact> 0.36560374E+07</totfact>
</mgrwt>
</event>
<event>
 4    1  0.4556894E+006  0.2049650E+02  0.7546771E-02  0.1735631E+00
         21   -1    0    0  504  501  0.00000000000E+00  0.00000000000E+00  0.10551368196E+02  0.10551368196E+02  0.00000000000E+00 0. -1.
         21   -1    0    0  503  502 -0.00000000000E+00 -0.00000000000E+00 -0.70125664491E+02  0.70125664491E+02  0.00000000000E+00 0.  1.
         21    1    1    2  503  501  0.13651521946E+02 -0.15288643843E+02 -0.56307328170E+02  0.59921798101E+02  0.00000000000E+00 0.  1.
         21    1    1    2  504  502 -0.13651521946E+02  0.15288643843E+02 -0.32669681259E+01  0.20755234586E+02  0.00000000000E+00 0. -1.
<mgrwt>
<rscale>  2 0.20496504E+02</rscale>
<asrwt>0</asrwt>
<pdfrwt beam="1">  1       21 0.16232874E-02 0.20496504E+02</pdfrwt>
<pdfrwt beam="2">  1       21 0.10788564E-01 0.20496504E+02</pdfrwt>
<totfact> 0.81888777E+07</totfact>
</mgrwt>
</event>
<event>
 4    1  0.4556894E+006  0.3152784E+02  0.7546771E-02  0.1581789E+00
         21   -1    0    0  504  501  0.00000000000E+00  0.00000000000E+00  0.45293537729E+02  0.45293537729E+02  0.00000000000E+00 0. -1.
         21   -1    0    0  503  502 -0.00000000000E+00 -0.00000000000E+00 -0.26233031355E+02  0.26233031355E+02  0.00000000000E+00 0. -1.
         21    1    1    2  503  501 -0.28587592078E+02 -0.13294893742E+02 -0.49274637587E+01  0.31910570655E+02  0.00000000000E+00 0. -1.
         21    1    1    2  504  502  0.28587592078E+02  0.13294893742E+02  0.23987970132E+02  0.39615998429E+02  0.00000000000E+00 0. -1.
<mgrwt>
<rscale>  2 0.31527839E+02</rscale>
<asrwt>0</asrwt>
<pdfrwt beam="1">  1       21 0.69682366E-02 0.31527839E+02</pdfrwt>
<pdfrwt beam="2">  1       21 0.40358510E-02 0.31527839E+02</pdfrwt>
<totfact> 0.45475556E+07</totfact>
</mgrwt>
</event>
<event>
 4    1  0.4556894E+006  0.2276905E+02  0.7546771E-02  0.1695281E+00
         21   -1    0    0  504  501  0.00000000000E+00  0.00000000000E+00  0.45142738701E+03  0.45142738701E+03  0.00000000000E+00 0. -1.
         21   -1    0    0  503  502 -0.00000000000E+00 -0.00000000000E+00 -0.16468105491E+02  0.16468105491E+02  0.00000000000E+00 0.  1.
         21    1    1    2  503  501 -0.30310395458E+01  0.22566398849E+02 -0.81633923557E+01  0.24188231281E+02  0.00000000000E+00 0.  1.
         21    1    1    2  504  502  0.30310395458E+01 -0.22566398849E+02  0.44312267387E+03  0.44370726122E+03  0.00000000000E+00 0. -1.
<mgrwt>
<rscale>  2 0.22769048E+02</rscale>
<asrwt>0</asrwt>
<pdfrwt beam="1">  1       21 0.69450358E-01 0.22769048E+02</pdfrwt>
<pdfrwt beam="2">  1       21 0.25335550E-02 0.22769048E+02</pdfrwt>
<totfact> 0.14433782E+06</totfact>
</mgrwt>
</event>
<event>
 4    1  0.4556894E+006  0.2110862E+02  0.7546771E-02  0.1724140E+00
         21   -1    0    0  504  501  0.00000000000E+00  0.00000000000E+00  0.13883322362E+02  0.13883322362E+02  0.00000000000E+00 0. -1.
         21   -1    0    0  501  502 -0.00000000000E+00 -0.00000000000E+00 -0.17328415259E+03  0.17328415259E+03  0.00000000000E+00 0. -1.
         21    1    1    2  503  502 -0.72080349678E+01  0.19839815014E+02 -0.16417437814E+03  0.16552583021E+03  0.00000000000E+00 0. -1.
         21    1    1    2  504  503  0.72080349678E+01 -0.19839815014E+02  0.47735479081E+01  0.21641644750E+02  0.00000000000E+00 0. -1.
<mgrwt>
<rscale>  2 0.21108624E+02</rscale>
<asrwt>0</asrwt>
<pdfrwt beam="1">  1       21 0.21358957E-02 0.21108624E+02</pdfrwt>
<pdfrwt beam="2">  1       21 0.26659101E-01 0.21108624E+02</pdfrwt>
<totfact> 0.11500250E+07</totfact>
</mgrwt>
</event>
<event>
 4    1  0.4556894E+006  0.3542755E+02  0.7546771E-02  0.1544836E+00
         21   -1    0    0  504  501  0.00000000000E+00  0.00000000000E+00  0.12333597349E+02  0.12333597349E+02  0.00000000000E+00 0. -1.
         21   -1    0    0  503  502 -0.00000000000E+00 -0.00000000000E+00 -0.10178978279E+03  0.10178978279E+03  0.00000000000E+00 0. -1.
         21    1    1    2  503  501  0.35385755591E+02 -0.17202568391E+01 -0.43812521901E+02  0.56344015278E+02  0.00000000000E+00 0. -1.
         21    1    1    2  504  502 -0.35385755591E+02  0.17202568391E+01 -0.45643663538E+02  0.57779364859E+02  0.00000000000E+00 0. -1.
<mgrwt>
<rscale>  2 0.35427546E+02</rscale>
<asrwt>0</asrwt>
<pdfrwt beam="1">  1       21 0.18974765E-02 0.35427546E+02</pdfrwt>
<pdfrwt beam="2">  1       21 0.15659967E-01 0.35427546E+02</pdfrwt>
<totfact> 0.39035447E+07</totfact>
</mgrwt>
</event>
<event>
 4    1  0.4556894E+006  0.2369558E+02  0.7546771E-02  0.1680477E+00
         21   -1    0    0  503  501  0.00000000000E+00  0.00000000000E+00  0.27344623123E+02  0.27344623123E+02  0.00000000000E+00 0.  1.
         21   -1    0    0  501  502 -0.00000000000E+00 -0.00000000000E+00 -0.29765661430E+03  0.29765661430E+03  0.00000000000E+00 0.  1.
         21    1    1    2  503  504 -0.21534245516E+02 -0.98871934571E+01  0.21639520793E+02  0.32089705273E+02  0.00000000000E+00 0.  1.
         21    1    1    2  504  502  0.21534245516E+02  0.98871934571E+01 -0.29195151197E+03  0.29291153215E+03  0.00000000000E+00 0.  1.
<mgrwt>
<rscale>  2 0.23695576E+02</rscale>
<asrwt>0</asrwt>
<pdfrwt beam="1">  1       21 0.42068650E-02 0.23695576E+02</pdfrwt>
<pdfrwt beam="2">  1       21 0.45793327E-01 0.23695576E+02</pdfrwt>
<totfact> 0.14975587E+06</totfact>
</mgrwt>
</event>
<event>
 4    1  0.4556894E+006  0.2973162E+02  0.7546771E-02  0.1601074E+00
         21   -1    0    0  503  501  0.00000000000E+00  0.00000000000E+00  0.76173257608E+02  0.76173257608E+02  0.00000000000E+00 0. -1.
         21   -1    0    0  504  502 -0.00000000000E+00 -0.00000000000E+00 -0.79970425430E+02  0.79970425430E+02  0.00000000000E+00 0.  1.
         21    1    1    2  503  502  0.27012768696E+02  0.12420924032E+02 -0.74083903304E+02  0.79827274507E+02  0.00000000000E+00 0.  1.
         21    1    1    2  504  501 -0.27012768696E+02 -0.12420924032E+02  0.70286735482E+02  0.76316408531E+02  0.00000000000E+00 0. -1.
<mgrwt>
<rscale>  2 0.29731617E+02</rscale>
<asrwt>0</asrwt>
<pdfrwt beam="1">  1       21 0.11718963E-01 0.29731617E+02</pdfrwt>
<pdfrwt beam="2">  1       21 0.12303142E-01 0.29731617E+02</pdfrwt>
<totfact> 0.30485870E+06</totfact>
</mgrwt>
</event>
<event>
 4    1  0.4556894E+006  0.3597386E+02  0.7546771E-02  0.1540119E+00
         21   -1    0    0  503  501  0.00000000000E+00  0.00000000000E+00  0.45946534651E+02  0.45946534651E+02  0.00000000000E+00 0. -1.
         21   -1    0    0  504  502 -0.00000000000E+00 -0.00000000000E+00 -0.36959483572E+02  0.36959483572E+02  0.00000000000E+00 0. -1.
         21    1    1    2  503  502 -0.81705763744E+01 -0.35033700813E+02 -0.15726412424E+02  0.39261158397E+02  0.00000000000E+00 0. -1.
         21    1    1    2  504  501  0.81705763744E+01  0.35033700813E+02  0.24713463503E+02  0.43644859826E+02  0.00000000000E+00 0. -1.
<mgrwt>
<rscale>  2 0.35973859E+02</rscale>
<asrwt>0</asrwt>
<pdfrwt beam="1">  1       21 0.70686977E-02 0.35973859E+02</pdfrwt>
<pdfrwt beam="2">  1       21 0.56860744E-02 0.35973859E+02</pdfrwt>
<totfact> 0.26241271E+07</totfact>
</mgrwt>
</event>
<event>
 4    1  0.4556894E+006  0.3151865E+02  0.7546771E-02  0.1581884E+00
         21   -1    0    0  504  501  0.00000000000E+00  0.00000000000E+00  0.18969712464E+02  0.18969712464E+02  0.00000000000E+00 0.  1.
         21   -1    0    0  503  502 -0.00000000000E+00 -0.00000000000E+00 -0.18425588054E+03  0.18425588054E+03  0.00000000000E+00 0. -1.
         21    1    1    2  503  501  0.92831858940E+01  0.30120554110E+02 -0.16861141286E+03  0.17153201995E+03  0.00000000000E+00 0. -1.
         21    1    1    2  504  502 -0.92831858940E+01 -0.30120554110E+02  0.33252447856E+01  0.31693573057E+02  0.00000000000E+00 0.  1.
<mgrwt>
<rscale>  2 0.31518650E+02</rscale>
<asrwt>0</asrwt>
<pdfrwt beam="1">  1       21 0.29184173E-02 0.31518650E+02</pdfrwt>
<pdfrwt beam="2">  1       21 0.28347059E-01 0.31518650E+02</pdfrwt>
<totfact> 0.67830898E+06</totfact>
</mgrwt>
</event>
<event>
 4    1  0.4556894E+006  0.3369626E+02  0.7546771E-02  0.1560492E+00
         21   -1    0    0  504  501  0.00000000000E+00  0.00000000000E+00  0.24103701774E+03  0.24103701774E+03  0.00000000000E+00 0. -1.
         21   -1    0    0  503  502 -0.00000000000E+00 -0.00000000000E+00 -0.63694750217E+01  0.63694750217E+01  0.00000000000E+00 0. -1.
         21    1    1    2  503  501  0.28551930766E+02  0.17894833250E+02  0.54204421714E+02  0.63824424329E+02  0.00000000000E+00 0. -1.
         21    1    1    2  504  502 -0.28551930766E+02 -0.17894833250E+02  0.18046312101E+03  0.18358206844E+03  0.00000000000E+00 0. -1.
<mgrwt>
<rscale>  2 0.33696258E+02</rscale>
<asrwt>0</asrwt>
<pdfrwt beam="1">  1       21 0.37082611E-01 0.33696258E+02</pdfrwt>
<pdfrwt beam="2">  1       21 0.97991942E-03 0.33696258E+02</pdfrwt>
<totfact> 0.22442635E+07</totfact>
</mgrwt>
</event>
<event>
 4    1  0.4556894E+006  0.2610057E+02  0.7546771E-02  0.1645679E+00
         21   -1    0    0  503  501  0.00000000000E+00  0.00000000000E+00  0.48486126219E+02  0.48486126219E+02  0.00000000000E+00 0.  1.
         21   -1    0    0  501  502 -0.00000000000E+00 -0.00000000000E+00 -0.39667015114E+02  0.39667015114E+02  0.00000000000E+00 0. -1.
         21    1    1    2  503  504 -0.21387437801E+02 -0.14960519741E+02  0.39830132023E+02  0.47620153964E+02  0.00000000000E+00 0.  1.
         21    1    1    2  504  502  0.21387437801E+02  0.14960519741E+02 -0.31011020919E+02  0.40532987369E+02  0.00000000000E+00 0. -1.
<mgrwt>
<rscale>  2 0.26100568E+02</rscale>
<asrwt>0</asrwt>
<pdfrwt beam="1">  1       21 0.74594040E-02 0.26100568E+02</pdfrwt>
<pdfrwt beam="2">  1       21 0.61026177E-02 0.26100568E+02</pdfrwt>
<totfact> 0.20134371E+07</totfact>
</mgrwt>
</event>
<event>
 4    1  0.4556894E+006  0.2261114E+02  0.7546771E-02  0.1697892E+00
         21   -1    0    0  503  501  0.00000000000E+00  0.00000000000E+00  0.40209789128E+01  0.40209789128E+01  0.00000000000E+00 0.  1.
         21   -1    0    0  504  502 -0.00000000000E+00 -0.00000000000E+00 -0.25401684048E+03  0.25401684048E+03  0.00000000000E+00 0.  1.
         21    1    1    2  503  502 -0.22595928860E+02 -0.82920709800E+00 -0.21617756123E+03  0.21735685305E+03  0.00000000000E+00 0.  1.
         21    1    1    2  504  501  0.22595928860E+02  0.82920709800E+00 -0.33818300336E+02  0.40680966349E+02  0.00000000000E+00 0.  1.
<mgrwt>
<rscale>  2 0.22611139E+02</rscale>
<asrwt>0</asrwt>
<pdfrwt beam="1">  1       21 0.61861234E-03 0.22611139E+02</pdfrwt>
<pdfrwt beam="2">  1       21 0.39079501E-01 0.22611139E+02</pdfrwt>
<totfact> 0.37448758E+07</totfact>
</mgrwt>
</event>
<event>
 4    1  0.4556894E+006  0.2197298E+02  0.7546771E-02  0.1708720E+00
         21   -1    0    0  502  501  0.00000000000E+00  0.00000000000E+00  0.22659892180E+01  0.22659892180E+01  0.00000000000E+00 0. -1.
         21   -1    0    0  504  502 -0.00000000000E+00 -0.00000000000E+00 -0.30197649899E+03  0.30197649899E+03  0.00000000000E+00 0. -1.
         21    1    1    2  503  501  0.15784005306E+02  0.15286503690E+02 -0.67313721315E+02  0.70809244424E+02  0.00000000000E+00 0. -1.
         21    1    1    2  504  503 -0.15784005306E+02 -0.15286503690E+02 -0.23239678845E+03  0.23343324378E+03  0.00000000000E+00 0. -1.
<mgrwt>
<rscale>  2 0.21972984E+02</rscale>
<asrwt>0</asrwt>
<pdfrwt beam="1">  1       21 0.34861395E-03 0.21972984E+02</pdfrwt>
<pdfrwt beam="2">  1       21 0.46457893E-01 0.21972984E+02</pdfrwt>
<totfact> 0.62259479E+07</totfact>
</mgrwt>
</event>
<event>
 4    1  0.4556894E+006  0.2225219E+02  0.7546771E-02  0.1703927E+00
         21   -1    0    0  502  501  0.00000000000E+00  0.00000000000E+00  0.27318385951E+03  0.27318385951E+03  0.00000000000E+00 0.  1.
         21   -1    0    0  504  502 -0.00000000000E+00 -0.00000000000E+00 -0.24777989196E+01  0.24777989196E+01  0.00000000000E+00 0.  1.
         21    1    1    2  503  501  0.21100108631E+02 -0.70672172018E+01  0.20677051422E+03  0.20796443372E+03  0.00000000000E+00 0.  1.
         21    1    1    2  504  503 -0.21100108631E+02  0.70672172018E+01  0.63935546373E+02  0.67697224709E+02  0.00000000000E+00 0.  1.
<mgrwt>
<rscale>  2 0.22252194E+02</rscale>
<asrwt>0</asrwt>
<pdfrwt beam="1">  1       21 0.42028262E-01 0.22252194E+02</pdfrwt>
<pdfrwt beam="2">  1       21 0.38120005E-03 0.22252194E+02</pdfrwt>
<totfact> 0.66347664E+07</totfact>
</mgrwt>
</event>
<event>
 4    1  0.4556894E+006  0.2957256E+02  0.7546771E-02  0.1602862E+00
         21   -1    0    0  504  501  0.00000000000E+00  0.00000000000E+00  0.75517770468E+02  0.75517770468E+02  0.00000000000E+00 0.  1.
         21   -1    0    0  503  502 -0.00000000000E+00 -0.00000000000E+00 -0.53114613442E+02  0.53114613442E+02  0.00000000000E+00 0. -1.
         21    1    1    2  503  501 -0.19230255587E+02 -0.22466280559E+02  0.68075814835E+02  0.74221648173E+02  0.00000000000E+00 0.  1.
         21    1    1    2  504  502  0.19230255587E+02  0.22466280559E+02 -0.45672657808E+02  0.54410735737E+02  0.00000000000E+00 0. -1.
<mgrwt>
<rscale>  2 0.29572563E+02</rscale>
<asrwt>0</asrwt>
<pdfrwt beam="1">  1       21 0.11618119E-01 0.29572563E+02</pdfrwt>
<pdfrwt beam="2">  1       21 0.81714790E-02 0.29572563E+02</pdfrwt>
<totfact> 0.61266942E+06</totfact>
</mgrwt>
</event>
<event>
 4    1  0.4556894E+006  0.2295496E+02  0.7546771E-02  0.1692241E+00
         21   -1    0    0  504  501  0.00000000000E+00  0.00000000000E+00  0.21265567152E+01  0.21265567152E+01  0.00000000000E+00 0. -1.
         21   -1    0    0  503  502 -0.00000000000E+00 -0.00000000000E+00 -0.25018097356E+03  0.25018097356E+03  0.00000000000E+00 0. -1.
         21    1    1    2  503  501  0.13254976731E+02 -0.18741286263E+02 -0.13637121035E+03  0.13828968592E+03  0.00000000000E+00 0. -1.
         21    1    1    2  504  502 -0.13254976731E+02  0.18741286263E+02 -0.11168320649E+03  0.11401784436E+03  0.00000000000E+00 0. -1.
<mgrwt>
<rscale>  2 0.22954961E+02</rscale>
<asrwt>0</asrwt>
<pdfrwt beam="1">  1       21 0.32716246E-03 0.22954961E+02</pdfrwt>
<pdfrwt beam="2">  1       21 0.38489393E-01 0.22954961E+02</pdfrwt>
<totfact> 0.98704805E+07</totfact>
</mgrwt>
</event>
<event>
 4    1  0.4556894E+006  0.2541023E+02  0.7546771E-02  0.1655179E+00
         21   -1    0    0  502  501  0.00000000000E+00  0.00000000000E+00  0.28849525848E+02  0.28849525848E+02  0.00000000000E+00 0. -1.
         21   -1    0    0  503  502 -0.00000000000E+00 -0.00000000000E+00 -0.28596741660E+03  0.28596741660E+03  0.00000000000E+00 0.  1.
         21    1    1    2  503  504 -0.24024263249E+02 -0.82773582847E+01 -0.27968222733E+03  0.28083416489E+03  0.00000000000E+00 0.  1.
         21    1    1    2  504  501  0.24024263249E+02  0.82773582847E+01  0.22564336583E+02  0.33982777554E+02  0.00000000000E+00 0. -1.
<mgrwt>
<rscale>  2 0.25410232E+02</rscale>
<asrwt>0</asrwt>
<pdfrwt beam="1">  1       21 0.44383885E-02 0.25410232E+02</pdfrwt>
<pdfrwt beam="2">  1       21 0.43994988E-01 0.25410232E+02</pdfrwt>
<totfact> 0.14962465E+06</totfact>
</mgrwt>
</event>
<event>
 4    1  0.4556894E+006  0.2442331E+02  0.7546771E-02  0.1669426E+00
         21   -1    0    0  503  501  0.00000000000E+00  0.00000000000E+00  0.32593556326E+03  0.32593556326E+03  0.00000000000E+00 0.  1.
         21   -1    0    0  504  502 -0.00000000000E+00 -0.00000000000E+00 -0.86275262180E+01  0.86275262180E+01  0.00000000000E+00 0.  1.
         21    1    1    2  503  502  0.23761916070E+02  0.56452979077E+01  0.30713704372E+03  0.30810657518E+03  0.00000000000E+00 0.  1.
         21    1    1    2  504  501 -0.23761916070E+02 -0.56452979077E+01  0.10170993325E+02  0.26456514302E+02  0.00000000000E+00 0.  1.
<mgrwt>
<rscale>  2 0.24423309E+02</rscale>
<asrwt>0</asrwt>
<pdfrwt beam="1">  1       21 0.50143923E-01 0.24423309E+02</pdfrwt>
<pdfrwt beam="2">  1       21 0.13273120E-02 0.24423309E+02</pdfrwt>
<totfact> 0.75160263E+06</totfact>
</mgrwt>
</event>
<event>
 4    1  0.4556894E+006  0.2010006E+02  0.7546771E-02  0.1743345E+00
         21   -1    0    0  502  501  0.00000000000E+00  0.00000000000E+00  0.26084613162E+02  0.26084613162E+02  0.00000000000E+00 0. -1.
         21   -1    0    0  504  502 -0.00000000000E+00 -0.00000000000E+00 -0.66848773866E+03  0.66848773866E+03  0.00000000000E+00 0.  1.
         21    1    1    2  503  501  0.20150383554E+01 -0.19998805283E+02  0.22037807984E+02  0.29827463403E+02  0.00000000000E+00 0. -1.
         21    1    1    2  504  503 -0.20150383554E+01  0.19998805283E+02 -0.66444093348E+03  0.66474488842E+03  0.00000000000E+00 0.  1.
<mgrwt>
<rscale>  2 0.20100064E+02</rscale>
<asrwt>0</asrwt>
<pdfrwt beam="1">  1       21 0.40130173E-02 0.20100064E+02</pdfrwt>
<pdfrwt beam="2">  1       21 0.10284427E+00 0.20100064E+02</pdfrwt>
<totfact> 0.30490596E+05</totfact>
</mgrwt>
</event>
<event>
 4    1  0.4556894E+006  0.2017073E+02  0.7546771E-02  0.1741954E+00
         21   -1    0    0  504  501  0.00000000000E+00  0.00000000000E+00  0.29470409240E+03  0.29470409240E+03  0.00000000000E+00 0.  1.
         21   -1    0    0  503  502 -0.00000000000E+00 -0.00000000000E+00 -0.22491880531E+02  0.22491880531E+02  0.00000000000E+00 0.  1.
         21    1    1    2  503  501 -0.20127482781E+02 -0.13202069153E+01 -0.17547381334E+02  0.26735166000E+02  0.00000000000E+00 0.  1.
         21    1    1    2  504  502  0.20127482781E+02  0.13202069153E+01  0.28975959320E+03  0.29046080693E+03  0.00000000000E+00 0.  1.
<mgrwt>
<rscale>  2 0.20170734E+02</rscale>
<asrwt>0</asrwt>
<pdfrwt beam="1">  1       21 0.45339088E-01 0.20170734E+02</pdfrwt>
<pdfrwt beam="2">  1       21 0.34602895E-02 0.20170734E+02</pdfrwt>
<totfact> 0.20348179E+06</totfact>
</mgrwt>
</event>
<event>
 4    1  0.4556894E+006  0.3430313E+02  0.7546771E-02  0.1554877E+00
         21   -1    0    0  502  501  0.00000000000E+00  0.00000000000E+00  0.16600253054E+02  0.16600253054E+02  0.00000000000E+00 0. -1.
         21   -1    0    0  503  502 -0.00000000000E+00 -0.00000000000E+00 -0.22175870096E+03  0.22175870096E+03  0.00000000000E+00 0.  1.
         21    1    1    2  503  504  0.13936793623E+02  0.31344382466E+02 -0.20088256874E+03  0.20379036030E+03  0.00000000000E+00 0.  1.
         21    1    1    2  504  501 -0.13936793623E+02 -0.31344382466E+02 -0.42758791687E+01  0.34568593714E+02  0.00000000000E+00 0. -1.
<mgrwt>
<rscale>  2 0.34303127E+02</rscale>
<asrwt>0</asrwt>
<pdfrwt beam="1">  1       21 0.25538853E-02 0.34303127E+02</pdfrwt>
<pdfrwt beam="2">  1       21 0.34116721E-01 0.34303127E+02</pdfrwt>
<totfact> 0.60015403E+06</totfact>
</mgrwt>
</event>
<event>
 4    1  0.4556894E+006  0.2066933E+02  0.7546771E-02  0.1732336E+00
         21   -1    0    0  504  501  0.00000000000E+00  0.00000000000E+00  0.41303499091E+02  0.41303499091E+02  0.00000000000E+00 0. -1.
         21   -1    0    0  501  502 -0.00000000000E+00 -0.00000000000E+00 -0.14830517529E+02  0.14830517529E+02  0.00000000000E+00 0. -1.
         21    1    1    2  503  502 -0.82314292652E+01  0.18959561131E+02 -0.22017724931E+01  0.20786274032E+02  0.00000000000E+00 0. -1.
         21    1    1    2  504  503  0.82314292652E+01 -0.18959561131E+02  0.28674754055E+02  0.35347742589E+02  0.00000000000E+00 0. -1.
<mgrwt>
<rscale>  2 0.20669334E+02</rscale>
<asrwt>0</asrwt>
<pdfrwt beam="1">  1       21 0.63543844E-02 0.20669334E+02</pdfrwt>
<pdfrwt beam="2">  1       21 0.22816181E-02 0.20669334E+02</pdfrwt>
<totfact> 0.11559294E+08</totfact>
</mgrwt>
</event>
<event>
 4    1  0.4556894E+006  0.2091018E+02  0.7546771E-02  0.1727811E+00
         21   -1    0    0  504  501  0.00000000000E+00  0.00000000000E+00  0.30734267811E+02  0.30734267811E+02  0.00000000000E+00 0.  1.
         21   -1    0    0  503  502 -0.00000000000E+00 -0.00000000000E+00 -0.11758720210E+03  0.11758720210E+03  0.00000000000E+00 0.  1.
         21    1    1    2  503  501 -0.19653548162E+02  0.71395818798E+01  0.26103511572E+02  0.33445910081E+02  0.00000000000E+00 0.  1.
         21    1    1    2  504  502  0.19653548162E+02 -0.71395818798E+01 -0.11295644586E+03  0.11487555983E+03  0.00000000000E+00 0.  1.
<mgrwt>
<rscale>  2 0.20910179E+02</rscale>
<asrwt>0</asrwt>
<pdfrwt beam="1">  1       21 0.47283489E-02 0.20910179E+02</pdfrwt>
<pdfrwt beam="2">  1       21 0.18090339E-01 0.20910179E+02</pdfrwt>
<totfact> 0.65808403E+06</totfact>
</mgrwt>
</event>
<event>
 4    1  0.4556894E+006  0.3682942E+02  0.7546771E-02  0.1532930E+00
         21   -1    0    0  502  501  0.00000000000E+00  0.00000000000E+00  0.46778622750E+02  0.46778622750E+02  0.00000000000E+00 0.  1.
         21   -1    0    0  503  502 -0.00000000000E+00 -0.00000000000E+00 -0.31312443784E+02  0.31312443784E+02  0.00000000000E+00 0.  1.
         21    1    1    2  503  504 -0.36164201141E+02 -0.69682660604E+01 -0.28862436271E+01  0.36942341267E+02  0.00000000000E+00 0.  1.
         21    1    1    2  504  501  0.36164201141E+02  0.69682660604E+01  0.18352422593E+02  0.41148725267E+02  0.00000000000E+00 0.  1.
<mgrwt>
<rscale>  2 0.36829420E+02</rscale>
<asrwt>0</asrwt>
<pdfrwt beam="1">  1       21 0.71967112E-02 0.36829420E+02</pdfrwt>
<pdfrwt beam="2">  1       21 0.48172990E-02 0.36829420E+02</pdfrwt>
<totfact> 0.33481035E+07</totfact>
</mgrwt>
</event>
<event>
 4    1  0.4556894E+006  0.2151831E+02  0.7546771E-02  0.1716718E+00
         21   -1    0    0  502  501  0.00000000000E+00  0.00000000000E+00  0.15578468429E+03  0.15578468429E+03  0.00000000000E+00 0.  1.
         21   -1    0    0  504  502 -0.00000000000E+00 -0.00000000000E+00 -0.49131308647E+01  0.49131308647E+01  0.00000000000E+00 0.  1.
         21    1    1    2  503  501  0.20451477835E+02  0.66914011378E+01  0.12593624319E+03  0.12776139927E+03  0.00000000000E+00 0.  1.
         21    1    1    2  504  503 -0.20451477835E+02 -0.66914011378E+01  0.24935310239E+02  0.32936415887E+02  0.00000000000E+00 0.  1.
<mgrwt>
<rscale>  2 0.21518313E+02</rscale>
<asrwt>0</asrwt>
<pdfrwt beam="1">  1       21 0.23966871E-01 0.21518313E+02</pdfrwt>
<pdfrwt beam="2">  1       21 0.75586641E-03 0.21518313E+02</pdfrwt>
<totfact> 0.66917600E+07</totfact>
</mgrwt>
</event>
<event>
 4    1  0.4556894E+006  0.2204899E+02  0.7546771E-02  0.1707406E+00
         21   -1    0    0  504  501  0.00000000000E+00  0.00000000000E+00  0.23581027712E+01  0.23581027712E+01  0.00000000000E+00 0. -1.
         21   -1    0    0  503  502 -0.00000000000E+00 -0.00000000000E+00 -0.12820965849E+04  0.12820965849E+04  0.00000000000E+00 0. -1.
         21    1    1    2  503  501  0.17313594903E+02 -0.13652748751E+02 -0.12281989251E+04  0.12283968242E+04  0.00000000000E+00 0. -1.
         21    1    1    2  504  502 -0.17313594903E+02  0.13652748751E+02 -0.51539557031E+02  0.56057863461E+02  0.00000000000E+00 0. -1.
<mgrwt>
<rscale>  2 0.22048994E+02</rscale>
<asrwt>0</asrwt>
<pdfrwt beam="1">  1       21 0.36278416E-03 0.22048994E+02</pdfrwt>
<pdfrwt beam="2">  1       21 0.19724611E+00 0.22048994E+02</pdfrwt>
<totfact> 0.25017601E+06</totfact>
</mgrwt>
</event>
<event>
 4    1  0.4556894E+006  0.2022412E+02  0.7546771E-02  0.1740908E+00
         21   -1    0    0  504  501  0.00000000000E+00  0.00000000000E+00  0.13920816704E+02  0.13920816704E+02  0.00000000000E+00 0.  1.
         21   -1    0    0  503  502 -0.00000000000E+00 -0.00000000000E+00 -0.36130426050E+02  0.36130426050E+02  0.00000000000E+00 0.  1.
         21    1    1    2  503  501  0.73881887098E+01  0.18826303537E+02 -0.28886227389E+00  0.20226182998E+02  0.00000000000E+00 0.  1.
         21    1    1    2  504  502 -0.73881887098E+01 -0.18826303537E+02 -0.21920747072E+02  0.29825059756E+02  0.00000000000E+00 0.  1.
<mgrwt>
<rscale>  2 0.20224120E+02</rscale>
<asrwt>0</asrwt>
<pdfrwt beam="1">  1       21 0.21416641E-02 0.20224120E+02</pdfrwt>
<pdfrwt beam="2">  1       21 0.55585271E-02 0.20224120E+02</pdfrwt>
<totfact> 0.15668174E+08</totfact>
</mgrwt>
</event>
<event>
 4    1  0.4556894E+006  0.2205860E+02  0.7546771E-02  0.1707241E+00
         21   -1    0    0  503  501  0.00000000000E+00  0.00000000000E+00  0.50892212217E+03  0.50892212217E+03  0.00000000000E+00 0.  1.
         21   -1    0    0  504  502 -0.00000000000E+00 -0.00000000000E+00 -0.24125959223E+01  0.24125959223E+01  0.00000000000E+00 0.  1.
         21    1    1    2  503  502  0.53806108101E+01  0.21392306643E+02  0.54605370335E+02  0.58892514173E+02  0.00000000000E+00 0.  1.
         21    1    1    2  504  501 -0.53806108101E+01 -0.21392306643E+02  0.45190415591E+03  0.45244220392E+03  0.00000000000E+00 0.  1.
<mgrwt>
<rscale>  2 0.22058598E+02</rscale>
<asrwt>0</asrwt>
<pdfrwt beam="1">  1       21 0.78295626E-01 0.22058598E+02</pdfrwt>
<pdfrwt beam="2">  1       21 0.37116901E-03 0.22058598E+02</pdfrwt>
<totfact> 0.20033096E+07</totfact>
</mgrwt>
</event>
<event>
 4    1  0.4556894E+006  0.2231925E+02  0.7546771E-02  0.1702789E+00
         21   -1    0    0  504  501  0.00000000000E+00  0.00000000000E+00  0.61948965355E+02  0.61948965355E+02  0.00000000000E+00 0. -1.
         21   -1    0    0  501  502 -0.00000000000E+00 -0.00000000000E+00 -0.54094045322E+02  0.54094045322E+02  0.00000000000E+00 0.  1.
         21    1    1    2  503  502 -0.22295840093E+02  0.10218791114E+01 -0.49608073845E+02  0.54397699519E+02  0.00000000000E+00 0.  1.
         21    1    1    2  504  503  0.22295840093E+02 -0.10218791114E+01  0.57462993878E+02  0.61645311158E+02  0.00000000000E+00 0. -1.
<mgrwt>
<rscale>  2 0.22319246E+02</rscale>
<asrwt>0</asrwt>
<pdfrwt beam="1">  1       21 0.95306101E-02 0.22319246E+02</pdfrwt>
<pdfrwt beam="2">  1       21 0.83221608E-02 0.22319246E+02</pdfrwt>
<totfact> 0.78925706E+06</totfact>
</mgrwt>
</event>
<event>
 4    1  0.4556894E+006  0.3082200E+02  0.7546771E-02  0.1589176E+00
         21   -1    0    0  502  501  0.00000000000E+00  0.00000000000E+00  0.45304400876E+02  0.45304400876E+02  0.00000000000E+00 0.  1.
         21   -1    0    0  504  502 -0.00000000000E+00 -0.00000000000E+00 -0.22191610029E+02  0.22191610029E+02  0.00000000000E+00 0.  1.
         21    1    1    2  503  501 -0.29227808512E+02 -0.97842242101E+01  0.19477156210E+02  0.36460327040E+02  0.00000000000E+00 0.  1.
         21    1    1    2  504  503  0.29227808512E+02  0.97842242101E+01  0.36356346363E+01  0.31035683866E+02  0.00000000000E+00 0.  1.
<mgrwt>
<rscale>  2 0.30822002E+02</rscale>
<asrwt>0</asrwt>
<pdfrwt beam="1">  1       21 0.69699078E-02 0.30822002E+02</pdfrwt>
<pdfrwt beam="2">  1       21 0.34140939E-02 0.30822002E+02</pdfrwt>
<totfact> 0.59007758E+07</totfact>
</mgrwt>
</event>
<event>
 4    1  0.4556894E+006  0.2148834E+02  0.7546771E-02  0.1717254E+00
         21   -1    0    0  502  501  0.00000000000E+00  0.00000000000E+00  0.46649153155E+03  0.46649153155E+03  0.00000000000E+00 0.  1.
         21   -1    0    0  503  502 -0.00000000000E+00 -0.00000000000E+00 -0.59461308292E+02  0.59461308292E+02  0.00000000000E+00 0. -1.
         21    1    1    2  503  504  0.59487563141E+01 -0.20648514057E+02 -0.57263280525E+02  0.61162342425E+02  0.00000000000E+00 0. -1.
         21    1    1    2  504  501 -0.59487563141E+01  0.20648514057E+02  0.46429350378E+03  0.46479049742E+03  0.00000000000E+00 0.  1.
<mgrwt>
<rscale>  2 0.21488342E+02</rscale>
<asrwt>0</asrwt>
<pdfrwt beam="1">  1       21 0.71767925E-01 0.21488342E+02</pdfrwt>
<pdfrwt beam="2">  1       21 0.91478939E-02 0.21488342E+02</pdfrwt>
<totfact> 0.17483033E+05</totfact>
</mgrwt>
</event>
<event>
 4    1  0.4556894E+006  0.3419896E+02  0.7546771E-02  0.1555831E+00
         21   -1    0    0  504  501  0.00000000000E+00  0.00000000000E+00  0.25414300000E+02  0.25414300000E+02  0.00000000000E+00 0.  1.
         21   -1    0    0  503  502 -0.00000000000E+00 -0.00000000000E+00 -0.46147316342E+02  0.46147316342E+02  0.00000000000E+00 0. -1.
         21    1    1    2  503  501 -0.68682622137E+01  0.33502178999E+02 -0.84879624540E+01  0.35236551053E+02  0.00000000000E+00 0.  1.
         21    1    1    2  504  502  0.68682622137E+01 -0.33502178999E+02 -0.12245053888E+02  0.36325065289E+02  0.00000000000E+00 0. -1.
<mgrwt>
<rscale>  2 0.34198962E+02</rscale>
<asrwt>0</asrwt>
<pdfrwt beam="1">  1       21 0.39098924E-02 0.34198962E+02</pdfrwt>
<pdfrwt beam="2">  1       21 0.70995870E-02 0.34198962E+02</pdfrwt>
<totfact> 0.47192763E+07</totfact>
</mgrwt>
</event>
<event>
 4    1  0.4556894E+006  0.2011032E+02  0.7546771E-02  0.1743143E+00
         21   -1    0    0  503  501  0.00000000000E+00  0.00000000000E+00  0.10484233736E+03  0.10484233736E+03  0.00000000000E+00 0. -1.
         21   -1    0    0  504  502 -0.00000000000E+00 -0.00000000000E+00 -0.69325313979E+01  0.69325313979E+01  0.00000000000E+00 0.  1.
         21    1    1    2  503  502  0.12378596481E+02  0.15849148481E+02  0.86176570726E+02  0.88491957265E+02  0.00000000000E+00 0. -1.
         21    1    1    2  504  501 -0.12378596481E+02 -0.15849148481E+02  0.11733235233E+02  0.23282911491E+02  0.00000000000E+00 0.  1.
<mgrwt>
<rscale>  2 0.20110325E+02</rscale>
<asrwt>0</asrwt>
<pdfrwt beam="1">  1       21 0.16129589E-01 0.20110325E+02</pdfrwt>
<pdfrwt beam="2">  1       21 0.10665434E-02 0.20110325E+02</pdfrwt>
<totfact> 0.78125236E+07</totfact>
</mgrwt>
</event>
<event>
 4    1  0.4556894E+006  0.3377328E+02  0.7546771E-02  0.1559772E+00
         21   -1    0    0  504  501  0.00000000000E+00  0.00000000000E+00  0.15135503847E+01  0.15135503847E+01  0.00000000000E+00 0.  1.
         21   -1    0    0  503  502 -0.00000000000E+00 -0.00000000000E+00 -0.75403951246E+03  0.75403951246E+03  0.00000000000E+00 0.  1.
         21    1    1    2  503  501  0.74766649659E+01 -0.32935297581E+02 -0.36729987349E+03  0.36884933430E+03  0.00000000000E+00 0.  1.
         21    1    1    2  504  502 -0.74766649659E+01  0.32935297581E+02 -0.38522608858E+03  0.38670372854E+03  0.00000000000E+00 0.  1.
<mgrwt>
<rscale>  2 0.33773279E+02</rscale>
<asrwt>0</asrwt>
<pdfrwt beam="1">  1       21 0.23285366E-03 0.33773279E+02</pdfrwt>
<pdfrwt beam="2">  1       21 0.11600620E+00 0.33773279E+02</pdfrwt>
<totfact> 0.18044950E+07</totfact>
</mgrwt>
</event>
<event>
 4    1  0.4556894E+006  0.2637522E+02  0.7546771E-02  0.1642000E+00
         21   -1    0    0  503  501  0.00000000000E+00  0.00000000000E+00  0.33651700688E+03  0.33651700688E+03  0.00000000000E+00 0.  1.
         21   -1    0    0  504  502 -0.00000000000E+00 -0.00000000000E+00 -0.40780036219E+01  0.40780036219E+01  0.00000000000E+00 0. -1.
         21    1    1    2  503  502 -0.19250271715E+02  0.18029961511E+02  0.46636937274E+02  0.53578506805E+02  0.00000000000E+00 0. -1.
         21    1    1    2  504  501  0.19250271715E+02 -0.18029961511E+02  0.28580206598E+03  0.28701650369E+03  0.00000000000E+00 0.  1.
<mgrwt>
<rscale>  2 0.26375225E+02</rscale>
<asrwt>0</asrwt>
<pdfrwt beam="1">  1       21 0.51771825E-01 0.26375225E+02</pdfrwt>
<pdfrwt beam="2">  1       21 0.62738544E-03 0.26375225E+02</pdfrwt>
<totfact> 0.22073874E+07</totfact>
</mgrwt>
</event>
<event>
 4    1  0.4556894E+006  0.3219189E+02  0.7546771E-02  0.1575052E+00
         21   -1    0    0  504  501  0.00000000000E+00  0.00000000000E+00  0.11483052835E+02  0.11483052835E+02  0.00000000000E+00 0. -1.
         21   -1    0    0  501  502 -0.00000000000E+00 -0.00000000000E+00 -0.17824061033E+03  0.17824061033E+03  0.00000000000E+00 0. -1.
         21    1    1    2  503  502 -0.14934355257E+02 -0.28518115609E+02 -0.15003063962E+03  0.15344546494E+03  0.00000000000E+00 0. -1.
         21    1    1    2  504  503  0.14934355257E+02  0.28518115609E+02 -0.16726917870E+02  0.36278198222E+02  0.00000000000E+00 0. -1.
<mgrwt>
<rscale>  2 0.32191892E+02</rscale>
<asrwt>0</asrwt>
<pdfrwt beam="1">  1       21 0.17666237E-02 0.32191892E+02</pdfrwt>
<pdfrwt beam="2">  1       21 0.27421630E-01 0.32191892E+02</pdfrwt>
<totfact> 0.15817021E+07</totfact>
</mgrwt>
</event>
<event>
 4    1  0.4556894E+006  0.3063561E+02  0.7546771E-02  0.1591167E+00
         21   -1    0    0  503  501  0.00000000000E+00  0.00000000000E+00  0.15212579358E+02  0.15212579358E+02  0.00000000000E+00 0. -1.
         21   -1    0    0  504  502 -0.00000000000E+00 -0.00000000000E+00 -0.62063680358E+02  0.62063680358E+02  0.00000000000E+00 0. -1.
         21    1    1    2  503  502 -0.25570420338E+02 -0.16872878110E+02 -0.20447653871E+02  0.36832688753E+02  0.00000000000E+00 0. -1.
         21    1    1    2  504  501  0.25570420338E+02  0.16872878110E+02 -0.26403447129E+02  0.40443570963E+02  0.00000000000E+00 0. -1.
<mgrwt>
<rscale>  2 0.30635607E+02</rscale>
<asrwt>0</asrwt>
<pdfrwt beam="1">  1       21 0.23403968E-02 0.30635607E+02</pdfrwt>
<pdfrwt beam="2">  1       21 0.95482585E-02 0.30635607E+02</pdfrwt>
<totfact> 0.63379907E+07</totfact>
</mgrwt>
</event>
<event>
 4    1  0.4556894E+006  0.2458946E+02  0.7546771E-02  0.1666970E+00
         21   -1    0    0  503  501  0.00000000000E+00  0.00000000000E+00  0.12617433836E+04  0.12617433836E+04  0.00000000000E+00 0.  1.
         21   -1    0    0  501  502 -0.00000000000E+00 -0.00000000000E+00 -0.11763335991E+01  0.11763335991E+01  0.00000000000E+00 0.  1.
         21    1    1    2  503  504  0.24260422215E+02 -0.40091927601E+01  0.11163939985E+04  0.11166647669E+04  0.00000000000E+00 0.  1.
         21    1    1    2  504  502 -0.24260422215E+02  0.40091927601E+01  0.14417305150E+03  0.14625495032E+03  0.00000000000E+00 0.  1.
<mgrwt>
<rscale>  2 0.24589463E+02</rscale>
<asrwt>0</asrwt>
<pdfrwt beam="1">  1       21 0.19411328E+00 0.24589463E+02</pdfrwt>
<pdfrwt beam="2">  1       21 0.18097541E-03 0.24589463E+02</pdfrwt>
<totfact> 0.72281123E+06</totfact>
</mgrwt>
</event>
<event>
 4    1  0.4556894E+006  0.2544718E+02  0.7546771E-02  0.1654661E+00
         21   -1    0    0  503  501  0.00000000000E+00  0.00000000000E+00  0.54236371408E+02  0.54236371408E+02  0.00000000000E+00 0. -1.
         21   -1    0    0  504  502 -0.00000000000E+00 -0.00000000000E+00 -0.74583087362E+02  0.74583087362E+02  0.00000000000E+00 0. -1.
         21    1    1    2  503  502  0.20294469248E+02 -0.15352309058E+02 -0.69202893828E+02  0.73733299056E+02  0.00000000000E+00 0. -1.
         21    1    1    2  504  501 -0.20294469248E+02  0.15352309058E+02  0.48856177875E+02  0.55086159714E+02  0.00000000000E+00 0. -1.
<mgrwt>
<rscale>  2 0.25447178E+02</rscale>
<asrwt>0</asrwt>
<pdfrwt beam="1">  1       21 0.83440572E-02 0.25447178E+02</pdfrwt>
<pdfrwt beam="2">  1       21 0.11474321E-01 0.25447178E+02</pdfrwt>
<totfact> 0.59065123E+06</totfact>
</mgrwt>
</event>
<event>
 4    1  0.4556894E+006  0.2189623E+02  0.7546771E-02  0.1710053E+00
         21   -1    0    0  503  501  0.00000000000E+00  0.00000000000E+00  0.61102471705E+02  0.61102471705E+02  0.00000000000E+00 0.  1.
         21   -1    0    0  504  502 -0.00000000000E+00 -0.00000000000E+00 -0.83994186522E+01  0.83994186522E+01  0.00000000000E+00 0.  1.
         21    1    1    2  503  502 -0.21536236023E+02  0.39541904667E+01  0.17436072909E+02  0.27990386256E+02  0.00000000000E+00 0.  1.
         21    1    1    2  504  501  0.21536236023E+02 -0.39541904667E+01  0.35266980144E+02  0.41511504102E+02  0.00000000000E+00 0.  1.
<mgrwt>
<rscale>  2 0.21896234E+02</rscale>
<asrwt>0</asrwt>
<pdfrwt beam="1">  1       21 0.94003800E-02 0.21896234E+02</pdfrwt>
<pdfrwt beam="2">  1       21 0.12922183E-02 0.21896234E+02</pdfrwt>
<totfact> 0.14799684E+08</totfact>
</mgrwt>
</event>
<event>
 4    1  0.4556894E+006  0.2109433E+02  0.7546771E-02  0.1724403E+00
         21   -1    0    0  503  501  0.00000000000E+00  0.00000000000E+00  0.27904956948E+01  0.27904956948E+01  0.00000000000E+00 0. -1.
         21   -1    0    0  504  502 -0.00000000000E+00 -0.00000000000E+00 -0.31275871488E+03  0.31275871488E+03  0.00000000000E+00 0.  1.
         21    1    1    2  503  502  0.20668744988E+02 -0.42158764860E+01 -0.44524738045E+02  0.49268884013E+02  0.00000000000E+00 0. -1.
         21    1    1    2  504  501 -0.20668744988E+02  0.42158764860E+01 -0.26544348114E+03  0.26628032656E+03  0.00000000000E+00 0.  1.
<mgrwt>
<rscale>  2 0.21094327E+02</rscale>
<asrwt>0</asrwt>
<pdfrwt beam="1">  1       21 0.42930736E-03 0.21094327E+02</pdfrwt>
<pdfrwt beam="2">  1       21 0.48116688E-01 0.21094327E+02</pdfrwt>
<totfact> 0.42496362E+07</totfact>
</mgrwt>
</event>
<event>
 4    1  0.4556894E+006  0.2132567E+02  0.7546771E-02  0.1720182E+00
         21   -1    0    0  502  501  0.00000000000E+00  0.00000000000E+00  0.17476457279E+01  0.17476457279E+01  0.00000000000E+00 0. -1.
         21   -1    0    0  504  502 -0.00000000000E+00 -0.00000000000E+00 -0.30338267087E+03  0.30338267087E+03  0.00000000000E+00 0. -1.
         21    1    1    2  503  501  0.18761990401E+02 -0.10137642681E+02 -0.93276113452E+02  0.95682900372E+02  0.00000000000E+00 0. -1.
         21    1    1    2  504  503 -0.18761990401E+02  0.10137642681E+02 -0.20835891169E+03  0.20944741623E+03  0.00000000000E+00 0. -1.
<mgrwt>
<rscale>  2 0.21325667E+02</rscale>
<asrwt>0</asrwt>
<pdfrwt beam="1">  1       21 0.26886862E-03 0.21325667E+02</pdfrwt>
<pdfrwt beam="2">  1       21 0.46674250E-01 0.21325667E+02</pdfrwt>
<totfact> 0.89353789E+07</totfact>
</mgrwt>
</event>
<event>
 4    1  0.4556894E+006  0.3305548E+02  0.7546771E-02  0.1566579E+00
         21   -1    0    0  504  501  0.00000000000E+00  0.00000000000E+00  0.32540068525E+03  0.32540068525E+03  0.00000000000E+00 0.  1.
         21   -1    0    0  501  502 -0.00000000000E+00 -0.00000000000E+00 -0.41716777812E+01  0.41716777812E+01  0.00000000000E+00 0. -1.
         21    1    1    2  503  502  0.35058985090E+01  0.32869038524E+02  0.87833734841E+02  0.93847908842E+02  0.00000000000E+00 0. -1.
         21    1    1    2  504  503 -0.35058985090E+01 -0.32869038524E+02  0.23339527263E+03  0.23572445419E+03  0.00000000000E+00 0.  1.
<mgrwt>
<rscale>  2 0.33055484E+02</rscale>
<asrwt>0</asrwt>
<pdfrwt beam="1">  1       21 0.50061624E-01 0.33055484E+02</pdfrwt>
<pdfrwt beam="2">  1       21 0.64179684E-03 0.33055484E+02</pdfrwt>
<totfact> 0.23734741E+07</totfact>
</mgrwt>
</event>
<event>
 4    1  0.4556894E+006  0.2071336E+02  0.7546771E-02  0.1731503E+00
         21   -1    0    0  503  501  0.00000000000E+00  0.00000000000E+00  0.13754111257E+02  0.13754111257E+02  0.00000000000E+00 0. -1.
         21   -1    0    0  504  502 -0.00000000000E+00 -0.00000000000E+00 -0.67073628431E+02  0.67073628431E+02  0.00000000000E+00 0. -1.
         21    1    1    2  503  502  0.19692630153E+02  0.64221181852E+01 -0.56218067932E+02  0.59912556667E+02  0.00000000000E+00 0. -1.
         21    1    1    2  504  501 -0.19692630153E+02 -0.64221181852E+01  0.28985507577E+01  0.20915183022E+02  0.00000000000E+00 0. -1.
<mgrwt>
<rscale>  2 0.20713360E+02</rscale>
<asrwt>0</asrwt>
<pdfrwt beam="1">  1       21 0.21160171E-02 0.20713360E+02</pdfrwt>
<pdfrwt beam="2">  1       21 0.10319020E-01 0.20713360E+02</pdfrwt>
<totfact> 0.59014433E+07</totfact>
</mgrwt>
</event>
<event>
 4    1  0.4556894E+006  0.4156926E+02  0.7546771E-02  0.1496971E+00
         21   -1    0    0  503  501  0.00000000000E+00  0.00000000000E+00  0.14276740626E+03  0.14276740626E+03  0.00000000000E+00 0.  1.
         21   -1    0    0  504  502 -0.00000000000E+00 -0.00000000000E+00 -0.56714626250E+02  0.56714626250E+02  0.00000000000E+00 0. -1.
         21    1    1    2  503  502 -0.41061110034E+02 -0.64798398483E+01  0.13148645197E+03  0.13790101571E+03  0.00000000000E+00 0.  1.
         21    1    1    2  504  501  0.41061110034E+02  0.64798398483E+01 -0.45433671964E+02  0.61581016797E+02  0.00000000000E+00 0. -1.
<mgrwt>
<rscale>  2 0.41569256E+02</rscale>
<asrwt>0</asrwt>
<pdfrwt beam="1">  1       21 0.21964216E-01 0.41569256E+02</pdfrwt>
<pdfrwt beam="2">  1       21 0.87253272E-02 0.41569256E+02</pdfrwt>
<totfact> 0.18805467E+06</totfact>
</mgrwt>
</event>
<event>
 4    1  0.4556894E+006  0.2236938E+02  0.7546771E-02  0.1701941E+00
         21   -1    0    0  504  501  0.00000000000E+00  0.00000000000E+00  0.30987397175E+03  0.30987397175E+03  0.00000000000E+00 0. -1.
         21   -1    0    0  501  502 -0.00000000000E+00 -0.00000000000E+00 -0.17064923982E+01  0.17064923982E+01  0.00000000000E+00 0.  1.
         21    1    1    2  503  502 -0.19061414892E+02 -0.11706912547E+02  0.11797455805E+03  0.12007658259E+03  0.00000000000E+00 0.  1.
         21    1    1    2  504  503  0.19061414892E+02  0.11706912547E+02  0.19019292130E+03  0.19150388156E+03  0.00000000000E+00 0. -1.
<mgrwt>
<rscale>  2 0.22369384E+02</rscale>
<asrwt>0</asrwt>
<pdfrwt beam="1">  1       21 0.47672874E-01 0.22369384E+02</pdfrwt>
<pdfrwt beam="2">  1       21 0.26253754E-03 0.22369384E+02</pdfrwt>
<totfact> 0.89923304E+07</totfact>
</mgrwt>
</event>
<event>
 4    1  0.4556894E+006  0.2575320E+02  0.7546771E-02  0.1650413E+00
         21   -1    0    0  504  501  0.00000000000E+00  0.00000000000E+00  0.21476811606E+01  0.21476811606E+01  0.00000000000E+00 0. -1.
         21   -1    0    0  501  502 -0.00000000000E+00 -0.00000000000E+00 -0.45558570692E+03  0.45558570692E+03  0.00000000000E+00 0. -1.
         21    1    1    2  503  502 -0.80185311463E+01 -0.24473059367E+02 -0.35662322232E+03  0.35755188459E+03  0.00000000000E+00 0. -1.
         21    1    1    2  504  503  0.80185311463E+01  0.24473059367E+02 -0.96814803446E+02  0.10018150350E+03  0.00000000000E+00 0. -1.
<mgrwt>
<rscale>  2 0.25753203E+02</rscale>
<asrwt>0</asrwt>
<pdfrwt beam="1">  1       21 0.33041246E-03 0.25753203E+02</pdfrwt>
<pdfrwt beam="2">  1       21 0.70090114E-01 0.25753203E+02</pdfrwt>
<totfact> 0.30813460E+07</totfact>
</mgrwt>
</event>
<event>
 4    1  0.4556894E+006  0.2951554E+02  0.7546771E-02  0.1603506E+00
         21   -1    0    0  503  501  0.00000000000E+00  0.00000000000E+00  0.36702273906E+02  0.36702273906E+02  0.00000000000E+00 0. -1.
         21   -1    0    0  501  502 -0.00000000000E+00 -0.00000000000E+00 -0.40476922040E+02  0.40476922040E+02  0.00000000000E+00 0.  1.
         21    1    1    2  503  504  0.13792776167E+02  0.26094563621E+02  0.22930036007E+02  0.37375840810E+02  0.00000000000E+00 0. -1.
         21    1    1    2  504  502 -0.13792776167E+02 -0.26094563621E+02 -0.26704684142E+02  0.39803355136E+02  0.00000000000E+00 0.  1.
<mgrwt>
<rscale>  2 0.29515537E+02</rscale>
<asrwt>0</asrwt>
<pdfrwt beam="1">  1       21 0.56465037E-02 0.29515537E+02</pdfrwt>
<pdfrwt beam="2">  1       21 0.62272188E-02 0.29515537E+02</pdfrwt>
<totfact> 0.31433717E+07</totfact>
</mgrwt>
</event>
<event>
 4    1  0.4556894E+006  0.3031467E+02  0.7546771E-02  0.1594636E+00
         21   -1    0    0  503  501  0.00000000000E+00  0.00000000000E+00  0.67194260244E+02  0.67194260244E+02  0.00000000000E+00 0.  1.
         21   -1    0    0  504  502 -0.00000000000E+00 -0.00000000000E+00 -0.13997256335E+02  0.13997256335E+02  0.00000000000E+00 0.  1.
         21    1    1    2  503  502  0.81628209502E+01  0.29194990611E+02  0.20452696152E+02  0.36569001935E+02  0.00000000000E+00 0.  1.
         21    1    1    2  504  501 -0.81628209502E+01 -0.29194990611E+02  0.32744307757E+02  0.44622514644E+02  0.00000000000E+00 0.  1.
<mgrwt>
<rscale>  2 0.30314668E+02</rscale>
<asrwt>0</asrwt>
<pdfrwt beam="1">  1       21 0.10337578E-01 0.30314668E+02</pdfrwt>
<pdfrwt beam="2">  1       21 0.21534241E-02 0.30314668E+02</pdfrwt>
<totfact> 0.63027155E+07</totfact>
</mgrwt>
</event>
<event>
 4    1  0.4556894E+006  0.2962693E+02  0.7546771E-02  0.1602249E+00
         21   -1    0    0  502  501  0.00000000000E+00  0.00000000000E+00  0.17087209637E+01  0.17087209637E+01  0.00000000000E+00 0.  1.
         21   -1    0    0  503  502 -0.00000000000E+00 -0.00000000000E+00 -0.14505985712E+04  0.14505985712E+04  0.00000000000E+00 0.  1.
         21    1    1    2  503  504 -0.86422961132E+01  0.28338409741E+02 -0.13080287568E+04  0.13083642395E+04  0.00000000000E+00 0.  1.
         21    1    1    2  504  501  0.86422961132E+01 -0.28338409741E+02 -0.14086109352E+03  0.14394305269E+03  0.00000000000E+00 0.  1.
<mgrwt>
<rscale>  2 0.29626926E+02</rscale>
<asrwt>0</asrwt>
<pdfrwt beam="1">  1       21 0.26288122E-03 0.29626926E+02</pdfrwt>
<pdfrwt beam="2">  1       21 0.22316810E+00 0.29626926E+02</pdfrwt>
<totfact> 0.29401430E+06</totfact>
</mgrwt>
</event>
<event>
 4    1  0.4556894E+006  0.2106456E+02  0.7546771E-02  0.1724951E+00
         21   -1    0    0  502  501  0.00000000000E+00  0.00000000000E+00  0.47709111791E+03  0.47709111791E+03  0.00000000000E+00 0.  1.
         21   -1    0    0  503  502 -0.00000000000E+00 -0.00000000000E+00 -0.44743663981E+03  0.44743663981E+03  0.00000000000E+00 0. -1.
         21    1    1    2  503  504  0.21058926056E+02  0.48736798619E+00 -0.44695595773E+03  0.44745205781E+03  0.00000000000E+00 0. -1.
         21    1    1    2  504  501 -0.21058926056E+02 -0.48736798619E+00  0.47661043583E+03  0.47707569991E+03  0.00000000000E+00 0.  1.
<mgrwt>
<rscale>  2 0.21064565E+02</rscale>
<asrwt>0</asrwt>
<pdfrwt beam="1">  1       21 0.73398633E-01 0.21064565E+02</pdfrwt>
<pdfrwt beam="2">  1       21 0.68836406E-01 0.21064565E+02</pdfrwt>
<totfact> 0.44385554E+03</totfact>
</mgrwt>
</event>
<event>
 4    1  0.4556894E+006  0.2071113E+02  0.7546771E-02  0.1731545E+00
         21   -1    0    0  504  501  0.00000000000E+00  0.00000000000E+00  0.13296903424E+02  0.13296903424E+02  0.00000000000E+00 0. -1.
         21   -1    0    0  503  502 -0.00000000000E+00 -0.00000000000E+00 -0.34017606857E+02  0.34017606857E+02  0.00000000000E+00 0. -1.
         21    1    1    2  503  501 -0.17736943909E+01  0.20635037431E+02 -0.49820946145E+01  0.21301925460E+02  0.00000000000E+00 0. -1.
         21    1    1    2  504  502  0.17736943909E+01 -0.20635037431E+02 -0.15738608818E+02  0.26012584822E+02  0.00000000000E+00 0. -1.
<mgrwt>
<rscale>  2 0.20711127E+02</rscale>
<asrwt>0</asrwt>
<pdfrwt beam="1">  1       21 0.20456775E-02 0.20711127E+02</pdfrwt>
<pdfrwt beam="2">  1       21 0.52334779E-02 0.20711127E+02</pdfrwt>
<totfact> 0.18636808E+08</totfact>
</mgrwt>
</event>
<event>
 4    1  0.4556894E+006  0.2052777E+02  0.7546771E-02  0.1735032E+00
         21   -1    0    0  503  501  0.00000000000E+00  0.00000000000E+00  0.11308156802E+01  0.11308156802E+01  0.00000000000E+00 0. -1.
         21   -1    0    0  504  502 -0.00000000000E+00 -0.00000000000E+00 -0.84314531822E+03  0.84314531822E+03  0.00000000000E+00 0. -1.
         21    1    1    2  503  502 -0.48022297082E+01 -0.19958153506E+02 -0.10566316353E+03  0.10763871714E+03  0.00000000000E+00 0. -1.
         21    1    1    2  504  501  0.48022297082E+01  0.19958153506E+02 -0.73635133901E+03  0.73663741676E+03  0.00000000000E+00 0. -1.
<mgrwt>
<rscale>  2 0.20527769E+02</rscale>
<asrwt>0</asrwt>
<pdfrwt beam="1">  1       21 0.17397191E-03 0.20527769E+02</pdfrwt>
<pdfrwt beam="2">  1       21 0.12971447E+00 0.20527769E+02</pdfrwt>
<totfact> 0.19657349E+07</totfact>
</mgrwt>
</event>
<event>
 4    1  0.4556894E+006  0.2199791E+02  0.7546771E-02  0.1708288E+00
         21   -1    0    0  503  501  0.00000000000E+00  0.00000000000E+00  0.14612278273E+03  0.14612278273E+03  0.00000000000E+00 0.  1.
         21   -1    0    0  501  502 -0.00000000000E+00 -0.00000000000E+00 -0.34309604490E+01  0.34309604490E+01  0.00000000000E+00 0.  1.
         21    1    1    2  503  504  0.16399883011E+02  0.14661237118E+02  0.85290064781E+02  0.88081230617E+02  0.00000000000E+00 0.  1.
         21    1    1    2  504  502 -0.16399883011E+02 -0.14661237118E+02  0.57401757497E+02  0.61472512559E+02  0.00000000000E+00 0.  1.
<mgrwt>
<rscale>  2 0.21997910E+02</rscale>
<asrwt>0</asrwt>
<pdfrwt beam="1">  1       21 0.22480423E-01 0.21997910E+02</pdfrwt>
<pdfrwt beam="2">  1       21 0.52784018E-03 0.21997910E+02</pdfrwt>
<totfact> 0.12828521E+08</totfact>
</mgrwt>
</event>
<event>
 4    1  0.4556894E+006  0.2837480E+02  0.7546771E-02  0.1616781E+00
         21   -1    0    0  502  501  0.00000000000E+00  0.00000000000E+00  0.71801960841E+02  0.71801960841E+02  0.00000000000E+00 0. -1.
         21   -1    0    0  504  502 -0.00000000000E+00 -0.00000000000E+00 -0.13133630512E+02  0.13133630512E+02  0.00000000000E+00 0. -1.
         21    1    1    2  503  501 -0.57886991601E+01  0.27778054878E+02  0.45573461759E+02  0.53684912103E+02  0.00000000000E+00 0. -1.
         21    1    1    2  504  503  0.57886991601E+01 -0.27778054878E+02  0.13094868570E+02  0.31250679251E+02  0.00000000000E+00 0. -1.
<mgrwt>
<rscale>  2 0.28374802E+02</rscale>
<asrwt>0</asrwt>
<pdfrwt beam="1">  1       21 0.11046455E-01 0.28374802E+02</pdfrwt>
<pdfrwt beam="2">  1       21 0.20205586E-02 0.28374802E+02</pdfrwt>
<totfact> 0.61294137E+07</totfact>
</mgrwt>
</event>
<event>
 4    1  0.4556894E+006  0.2096710E+02  0.7546771E-02  0.1726753E+00
         21   -1    0    0  502  501  0.00000000000E+00  0.00000000000E+00  0.45946598674E+01  0.45946598674E+01  0.00000000000E+00 0.  1.
         21   -1    0    0  503  502 -0.00000000000E+00 -0.00000000000E+00 -0.24272565406E+03  0.24272565406E+03  0.00000000000E+00 0.  1.
         21    1    1    2  503  504 -0.91141479397E+00 -0.20947284132E+02 -0.21531473516E+03  0.21633320265E+03  0.00000000000E+00 0.  1.
         21    1    1    2  504  501  0.91141479397E+00  0.20947284132E+02 -0.22816259033E+02  0.30987111284E+02  0.00000000000E+00 0.  1.
<mgrwt>
<rscale>  2 0.20967103E+02</rscale>
<asrwt>0</asrwt>
<pdfrwt beam="1">  1       21 0.70687092E-03 0.20967103E+02</pdfrwt>
<pdfrwt beam="2">  1       21 0.37342399E-01 0.20967103E+02</pdfrwt>
<totfact> 0.32870974E+07</totfact>
</mgrwt>
</event>
<event>
 4    1  0.4556894E+006  0.2359495E+02  0.7546771E-02  0.1682044E+00
         21   -1    0    0  503  501  0.00000000000E+00  0.00000000000E+00  0.15205572262E+02  0.15205572262E+02  0.00000000000E+00 0.  1.
         21   -1    0    0  504  502 -0.00000000000E+00 -0.00000000000E+00 -0.42789779808E+02  0.42789779808E+02  0.00000000000E+00 0. -1.
         21    1    1    2  503  502  0.23229968413E+02  0.41340330247E+01 -0.27748304150E+01  0.23757553438E+02  0.00000000000E+00 0.  1.
         21    1    1    2  504  501 -0.23229968413E+02 -0.41340330247E+01 -0.24809377132E+02  0.34237798632E+02  0.00000000000E+00 0. -1.
<mgrwt>
<rscale>  2 0.23594950E+02</rscale>
<asrwt>0</asrwt>
<pdfrwt beam="1">  1       21 0.23393188E-02 0.23594950E+02</pdfrwt>
<pdfrwt beam="2">  1       21 0.65830430E-02 0.23594950E+02</pdfrwt>
<totfact> 0.10925682E+08</totfact>
</mgrwt>
</event>
<event>
 4    1  0.4556894E+006  0.2232057E+02  0.7546771E-02  0.1702766E+00
         21   -1    0    0  503  501  0.00000000000E+00  0.00000000000E+00  0.21355934788E+02  0.21355934788E+02  0.00000000000E+00 0.  1.
         21   -1    0    0  504  502 -0.00000000000E+00 -0.00000000000E+00 -0.55340525277E+02  0.55340525277E+02  0.00000000000E+00 0.  1.
         21    1    1    2  503  502 -0.17125009722E+02  0.14315784509E+02  0.12173810378E+02  0.25424580690E+02  0.00000000000E+00 0.  1.
         21    1    1    2  504  501  0.17125009722E+02 -0.14315784509E+02 -0.46158400867E+02  0.51271879376E+02  0.00000000000E+00 0.  1.
<mgrwt>
<rscale>  2 0.22320565E+02</rscale>
<asrwt>0</asrwt>
<pdfrwt beam="1">  1       21 0.32855285E-02 0.22320565E+02</pdfrwt>
<pdfrwt beam="2">  1       21 0.85139268E-02 0.22320565E+02</pdfrwt>
<totfact> 0.41811640E+07</totfact>
</mgrwt>
</event>
<event>
 4    1  0.4556894E+006  0.2140123E+02  0.7546771E-02  0.1718818E+00
         21   -1    0    0  502  501  0.00000000000E+00  0.00000000000E+00  0.45383157181E+03  0.45383157181E+03  0.00000000000E+00 0.  1.
         21   -1    0    0  503  502 -0.00000000000E+00 -0.00000000000E+00 -0.51866797755E+01  0.51866797755E+01  0.00000000000E+00 0. -1.
         21    1    1    2  503  504 -0.56854152316E+01 -0.20632221328E+02  0.18348747075E+02  0.28190229203E+02  0.00000000000E+00 0. -1.
         21    1    1    2  504  501  0.56854152316E+01  0.20632221328E+02  0.43029614496E+03  0.43082802239E+03  0.00000000000E+00 0.  1.
<mgrwt>
<rscale>  2 0.21401227E+02</rscale>
<asrwt>0</asrwt>
<pdfrwt beam="1">  1       21 0.69820211E-01 0.21401227E+02</pdfrwt>
<pdfrwt beam="2">  1       21 0.79795109E-03 0.21401227E+02</pdfrwt>
<totfact> 0.81587698E+06</totfact>
</mgrwt>
</event>
<event>
 4    1  0.4556894E+006  0.2081093E+02  0.7546771E-02  0.1729667E+00
         21   -1    0    0  504  501  0.00000000000E+00  0.00000000000E+00  0.13549683114E+04  0.13549683114E+04  0.00000000000E+00 0. -1.
         21   -1    0    0  503  502 -0.00000000000E+00 -0.00000000000E+00 -0.70553553533E+00  0.70553553533E+00  0.00000000000E+00 0.  1.
         21    1    1    2  503  501  0.16736191713E+02  0.12369094275E+02  0.17582440626E+03  0.17705173380E+03  0.00000000000E+00 0.  1.
         21    1    1    2  504  502 -0.16736191713E+02 -0.12369094275E+02  0.11784383696E+04  0.11786221131E+04  0.00000000000E+00 0. -1.
<mgrwt>
<rscale>  2 0.20810925E+02</rscale>
<asrwt>0</asrwt>
<pdfrwt beam="1">  1       21 0.20845458E+00 0.20810925E+02</pdfrwt>
<pdfrwt beam="2">  1       21 0.10854501E-03 0.20810925E+02</pdfrwt>
<totfact> 0.12267208E+07</totfact>
</mgrwt>
</event>
<event>
 4    1  0.4556894E+006  0.2833006E+02  0.7546771E-02  0.1617317E+00
         21   -1    0    0  504  501  0.00000000000E+00  0.00000000000E+00  0.12455443265E+03  0.12455443265E+03  0.00000000000E+00 0. -1.
         21   -1    0    0  503  502 -0.00000000000E+00 -0.00000000000E+00 -0.12680333542E+02  0.12680333542E+02  0.00000000000E+00 0. -1.
         21    1    1    2  503  501 -0.26610474460E+02  0.97198149117E+01  0.78150445040E+01  0.29388213173E+02  0.00000000000E+00 0. -1.
         21    1    1    2  504  502  0.26610474460E+02 -0.97198149117E+01  0.10405905460E+03  0.10784655302E+03  0.00000000000E+00 0. -1.
<mgrwt>
<rscale>  2 0.28330057E+02</rscale>
<asrwt>0</asrwt>
<pdfrwt beam="1">  1       21 0.19162220E-01 0.28330057E+02</pdfrwt>
<pdfrwt beam="2">  1       21 0.19508206E-02 0.28330057E+02</pdfrwt>
<totfact> 0.25164498E+07</totfact>
</mgrwt>
</event>
<event>
 4    1  0.4556894E+006  0.2265469E+02  0.7546771E-02  0.1697169E+00
         21   -1    0    0  504  501  0.00000000000E+00  0.00000000000E+00  0.70529258651E+01  0.70529258651E+01  0.00000000000E+00 0. -1.
         21   -1    0    0  503  502 -0.00000000000E+00 -0.00000000000E+00 -0.94491038413E+02  0.94491038413E+02  0.00000000000E+00 0. -1.
         21    1    1    2  503  501 -0.10055099344E+02  0.20300987313E+02 -0.19375835464E+02  0.29810369147E+02  0.00000000000E+00 0. -1.
         21    1    1    2  504  502  0.10055099344E+02 -0.20300987313E+02 -0.68062277083E+02  0.71733595131E+02  0.00000000000E+00 0. -1.
<mgrwt>
<rscale>  2 0.22654693E+02</rscale>
<asrwt>0</asrwt>
<pdfrwt beam="1">  1       21 0.10850655E-02 0.22654693E+02</pdfrwt>
<pdfrwt beam="2">  1       21 0.14537083E-01 0.22654693E+02</pdfrwt>
<totfact> 0.93932702E+07</totfact>
</mgrwt>
</event>
<event>
 4    1  0.4556894E+006  0.2202296E+02  0.7546771E-02  0.1707855E+00
         21   -1    0    0  502  501  0.00000000000E+00  0.00000000000E+00  0.36617364389E+03  0.36617364389E+03  0.00000000000E+00 0. -1.
         21   -1    0    0  503  502 -0.00000000000E+00 -0.00000000000E+00 -0.85268046956E+02  0.85268046956E+02  0.00000000000E+00 0. -1.
         21    1    1    2  503  504  0.12063236064E+02 -0.18425225203E+02 -0.83508033590E+02  0.86363199698E+02  0.00000000000E+00 0. -1.
         21    1    1    2  504  501 -0.12063236064E+02  0.18425225203E+02  0.36441363053E+03  0.36507849115E+03  0.00000000000E+00 0. -1.
<mgrwt>
<rscale>  2 0.22022956E+02</rscale>
<asrwt>0</asrwt>
<pdfrwt beam="1">  1       21 0.56334406E-01 0.22022956E+02</pdfrwt>
<pdfrwt beam="2">  1       21 0.13118161E-01 0.22022956E+02</pdfrwt>
<totfact> 0.15652642E+05</totfact>
</mgrwt>
</event>
<event>
 4    1  0.4556894E+006  0.2330032E+02  0.7546771E-02  0.1686688E+00
         21   -1    0    0  502  501  0.00000000000E+00  0.00000000000E+00  0.18168701832E+02  0.18168701832E+02  0.00000000000E+00 0.  1.
         21   -1    0    0  504  502 -0.00000000000E+00 -0.00000000000E+00 -0.56937634585E+02  0.56937634585E+02  0.00000000000E+00 0. -1.
         21    1    1    2  503  501 -0.31981046960E+00 -0.23298128032E+02  0.65024952158E+01  0.24190648866E+02  0.00000000000E+00 0.  1.
         21    1    1    2  504  503  0.31981046960E+00  0.23298128032E+02 -0.45271427968E+02  0.50915687551E+02  0.00000000000E+00 0. -1.
<mgrwt>
<rscale>  2 0.23300323E+02</rscale>
<asrwt>0</asrwt>
<pdfrwt beam="1">  1       21 0.27951850E-02 0.23300323E+02</pdfrwt>
<pdfrwt beam="2">  1       21 0.87596359E-02 0.23300323E+02</pdfrwt>
<totfact> 0.51901894E+07</totfact>
</mgrwt>
</event>
<event>
 4    1  0.4556894E+006  0.2032480E+02  0.7546771E-02  0.1738945E+00
         21   -1    0    0  504  501  0.00000000000E+00  0.00000000000E+00  0.57705919831E+02  0.57705919831E+02  0.00000000000E+00 0. -1.
         21   -1    0    0  503  502 -0.00000000000E+00 -0.00000000000E+00 -0.11813357334E+02  0.11813357334E+02  0.00000000000E+00 0. -1.
         21    1    1    2  503  501  0.17705676236E+02 -0.99803034335E+01  0.44765239334E+02  0.49163239115E+02  0.00000000000E+00 0. -1.
         21    1    1    2  504  502 -0.17705676236E+02  0.99803034335E+01  0.11273231630E+01  0.20356038050E+02  0.00000000000E+00 0. -1.
<mgrwt>
<rscale>  2 0.20324798E+02</rscale>
<asrwt>0</asrwt>
<pdfrwt beam="1">  1       21 0.88778336E-02 0.20324798E+02</pdfrwt>
<pdfrwt beam="2">  1       21 0.18174396E-02 0.20324798E+02</pdfrwt>
<totfact> 0.94788731E+07</totfact>
</mgrwt>
</event>
<event>
 4    1  0.4556894E+006  0.2172632E+02  0.7546771E-02  0.1713029E+00
         21   -1    0    0  504  501  0.00000000000E+00  0.00000000000E+00  0.42840221336E+01  0.42840221336E+01  0.00000000000E+00 0. -1.
         21   -1    0    0  503  502 -0.00000000000E+00 -0.00000000000E+00 -0.71004271307E+03  0.71004271307E+03  0.00000000000E+00 0.  1.
         21    1    1    2  503  501 -0.10828655633E+02 -0.18835422157E+02 -0.24595909530E+02  0.32817551345E+02  0.00000000000E+00 0. -1.
         21    1    1    2  504  502  0.10828655633E+02  0.18835422157E+02 -0.68116278141E+03  0.68150918386E+03  0.00000000000E+00 0.  1.
<mgrwt>
<rscale>  2 0.21726318E+02</rscale>
<asrwt>0</asrwt>
<pdfrwt beam="1">  1       21 0.65908077E-03 0.21726318E+02</pdfrwt>
<pdfrwt beam="2">  1       21 0.10923727E+00 0.21726318E+02</pdfrwt>
<totfact> 0.41931788E+06</totfact>
</mgrwt>
</event>
<event>
 4    1  0.4556894E+006  0.2894199E+02  0.7546771E-02  0.1610087E+00
         21   -1    0    0  502  501  0.00000000000E+00  0.00000000000E+00  0.21779248969E+03  0.21779248969E+03  0.00000000000E+00 0. -1.
         21   -1    0    0  504  502 -0.00000000000E+00 -0.00000000000E+00 -0.42424087211E+01  0.42424087211E+01  0.00000000000E+00 0. -1.
         21    1    1    2  503  501  0.92799312589E+01 -0.27413892672E+02  0.14070900936E+03  0.14365466908E+03  0.00000000000E+00 0. -1.
         21    1    1    2  504  503 -0.92799312589E+01  0.27413892672E+02  0.72841071609E+02  0.78380229323E+02  0.00000000000E+00 0. -1.
<mgrwt>
<rscale>  2 0.28941987E+02</rscale>
<asrwt>0</asrwt>
<pdfrwt beam="1">  1       21 0.33506528E-01 0.28941987E+02</pdfrwt>
<pdfrwt beam="2">  1       21 0.65267843E-03 0.28941987E+02</pdfrwt>
<totfact> 0.48686032E+07</totfact>
</mgrwt>
</event>
<event>
 4    1  0.4556894E+006  0.2124134E+02  0.7546771E-02  0.1721713E+00
         21   -1    0    0  502  501  0.00000000000E+00  0.00000000000E+00  0.92982782584E+01  0.92982782584E+01  0.00000000000E+00 0.  1.
         21   -1    0    0  503  502 -0.00000000000E+00 -0.00000000000E+00 -0.43557862728E+03  0.43557862728E+03  0.00000000000E+00 0. -1.
         21    1    1    2  503  504  0.18544377250E+02  0.10358603449E+02 -0.42282278681E+03  0.42335600106E+03  0.00000000000E+00 0. -1.
         21    1    1    2  504  501 -0.18544377250E+02 -0.10358603449E+02 -0.34575622153E+01  0.21520904476E+02  0.00000000000E+00 0.  1.
<mgrwt>
<rscale>  2 0.21241342E+02</rscale>
<asrwt>0</asrwt>
<pdfrwt beam="1">  1       21 0.14305043E-02 0.21241342E+02</pdfrwt>
<pdfrwt beam="2">  1       21 0.67012097E-01 0.21241342E+02</pdfrwt>
<totfact> 0.36891587E+06</totfact>
</mgrwt>
</event>
<event>
 4    1  0.4556894E+006  0.3721186E+02  0.7546771E-02  0.1529792E+00
         21   -1    0    0  503  501  0.00000000000E+00  0.00000000000E+00  0.39930249049E+02  0.39930249049E+02  0.00000000000E+00 0. -1.
         21   -1    0    0  504  502 -0.00000000000E+00 -0.00000000000E+00 -0.12993824144E+03  0.12993824144E+03  0.00000000000E+00 0. -1.
         21    1    1    2  503  502  0.36982112474E+02 -0.41286599206E+01 -0.11772652335E+03  0.12346763453E+03  0.00000000000E+00 0. -1.
         21    1    1    2  504  501 -0.36982112474E+02  0.41286599206E+01  0.27718530956E+02  0.46400855963E+02  0.00000000000E+00 0. -1.
<mgrwt>
<rscale>  2 0.37211859E+02</rscale>
<asrwt>0</asrwt>
<pdfrwt beam="1">  1       21 0.61431154E-02 0.37211859E+02</pdfrwt>
<pdfrwt beam="2">  1       21 0.19990498E-01 0.37211859E+02</pdfrwt>
<totfact> 0.39402012E+06</totfact>
</mgrwt>
</event>
<event>
 4    1  0.4556894E+006  0.2077171E+02  0.7546771E-02  0.1730403E+00
         21   -1    0    0  502  501  0.00000000000E+00  0.00000000000E+00  0.12262854732E+02  0.12262854732E+02  0.00000000000E+00 0.  1.
         21   -1    0    0  504  502 -0.00000000000E+00 -0.00000000000E+00 -0.39684214838E+02  0.39684214838E+02  0.00000000000E+00 0.  1.
         21    1    1    2  503  501 -0.67345501790E+01 -0.19649674759E+02 -0.22456667806E+02  0.30590289525E+02  0.00000000000E+00 0.  1.
         21    1    1    2  504  503  0.67345501790E+01  0.19649674759E+02 -0.49646923004E+01  0.21356780045E+02  0.00000000000E+00 0.  1.
<mgrwt>
<rscale>  2 0.20771709E+02</rscale>
<asrwt>0</asrwt>
<pdfrwt beam="1">  1       21 0.18865931E-02 0.20771709E+02</pdfrwt>
<pdfrwt beam="2">  1       21 0.61052637E-02 0.20771709E+02</pdfrwt>
<totfact> 0.16510834E+08</totfact>
</mgrwt>
</event>
<event>
 4    1  0.4556894E+006  0.2288683E+02  0.7546771E-02  0.1693351E+00
         21   -1    0    0  504  501  0.00000000000E+00  0.00000000000E+00  0.82025307766E+02  0.82025307766E+02  0.00000000000E+00 0. -1.
         21   -1    0    0  501  502 -0.00000000000E+00 -0.00000000000E+00 -0.34572351565E+02  0.34572351565E+02  0.00000000000E+00 0. -1.
         21    1    1    2  503  502 -0.19479309447E+02 -0.12015139169E+02 -0.28913466503E+02  0.36875406588E+02  0.00000000000E+00 0. -1.
         21    1    1    2  504  503  0.19479309447E+02  0.12015139169E+02  0.76366422704E+02  0.79722252743E+02  0.00000000000E+00 0. -1.
<mgrwt>
<rscale>  2 0.22886832E+02</rscale>
<asrwt>0</asrwt>
<pdfrwt beam="1">  1       21 0.12619278E-01 0.22886832E+02</pdfrwt>
<pdfrwt beam="2">  1       21 0.53188233E-02 0.22886832E+02</pdfrwt>
<totfact> 0.10242013E+07</totfact>
</mgrwt>
</event>
<event>
 4    1  0.4556894E+006  0.2476035E+02  0.7546771E-02  0.1664468E+00
         21   -1    0    0  503  501  0.00000000000E+00  0.00000000000E+00  0.36291002694E+02  0.36291002694E+02  0.00000000000E+00 0. -1.
         21   -1    0    0  504  502 -0.00000000000E+00 -0.00000000000E+00 -0.18710371515E+02  0.18710371515E+02  0.00000000000E+00 0. -1.
         21    1    1    2  503  502  0.12842177400E+02  0.21169628631E+02  0.17360470569E+02  0.30240050184E+02  0.00000000000E+00 0. -1.
         21    1    1    2  504  501 -0.12842177400E+02 -0.21169628631E+02  0.22016061015E+00  0.24761324025E+02  0.00000000000E+00 0. -1.
<mgrwt>
<rscale>  2 0.24760345E+02</rscale>
<asrwt>0</asrwt>
<pdfrwt beam="1">  1       21 0.55832312E-02 0.24760345E+02</pdfrwt>
<pdfrwt beam="2">  1       21 0.28785187E-02 0.24760345E+02</pdfrwt>
<totfact> 0.10466895E+08</totfact>
</mgrwt>
</event>
<event>
 4    1  0.4556894E+006  0.3122678E+02  0.7546771E-02  0.1584911E+00
         21   -1    0    0  502  501  0.00000000000E+00  0.00000000000E+00  0.22492795144E+03  0.22492795144E+03  0.00000000000E+00 0.  1.
         21   -1    0    0  503  502 -0.00000000000E+00 -0.00000000000E+00 -0.12570197373E+02  0.12570197373E+02  0.00000000000E+00 0.  1.
         21    1    1    2  503  504  0.30338353998E+02  0.73956975839E+01  0.10064047478E+02  0.32808491548E+02  0.00000000000E+00 0.  1.
         21    1    1    2  504  501 -0.30338353998E+02 -0.73956975839E+01  0.20229370659E+03  0.20468965727E+03  0.00000000000E+00 0.  1.
<mgrwt>
<rscale>  2 0.31226784E+02</rscale>
<asrwt>0</asrwt>
<pdfrwt beam="1">  1       21 0.34604297E-01 0.31226784E+02</pdfrwt>
<pdfrwt beam="2">  1       21 0.19338767E-02 0.31226784E+02</pdfrwt>
<totfact> 0.89011275E+06</totfact>
</mgrwt>
</event>
<event>
 4    1  0.4556894E+006  0.2003068E+02  0.7546771E-02  0.1744719E+00
         21   -1    0    0  504  501  0.00000000000E+00  0.00000000000E+00  0.23615595612E+01  0.23615595612E+01  0.00000000000E+00 0. -1.
         21   -1    0    0  503  502 -0.00000000000E+00 -0.00000000000E+00 -0.38166280355E+03  0.38166280355E+03  0.00000000000E+00 0.  1.
         21    1    1    2  503  501  0.87923741945E+01 -0.17997845250E+02 -0.33267629607E+03  0.33327878157E+03  0.00000000000E+00 0.  1.
         21    1    1    2  504  502 -0.87923741945E+01  0.17997845250E+02 -0.46624947926E+02  0.50745581549E+02  0.00000000000E+00 0. -1.
<mgrwt>
<rscale>  2 0.20030683E+02</rscale>
<asrwt>0</asrwt>
<pdfrwt beam="1">  1       21 0.36331730E-03 0.20030683E+02</pdfrwt>
<pdfrwt beam="2">  1       21 0.58717283E-01 0.20030683E+02</pdfrwt>
<totfact> 0.36315508E+07</totfact>
</mgrwt>
</event>
<event>
 4    1  0.4556894E+006  0.2051173E+02  0.7546771E-02  0.1735339E+00
         21   -1    0    0  504  501  0.00000000000E+00  0.00000000000E+00  0.10908431984E+01  0.10908431984E+01  0.00000000000E+00 0. -1.
         21   -1    0    0  503  502 -0.00000000000E+00 -0.00000000000E+00 -0.42530526705E+03  0.42530526705E+03  0.00000000000E+00 0. -1.
         21    1    1    2  503  501 -0.14965705636E+02  0.14027068565E+02 -0.27717194265E+03  0.27792987747E+03  0.00000000000E+00 0. -1.
         21    1    1    2  504  502  0.14965705636E+02 -0.14027068565E+02 -0.14704248119E+03  0.14846623277E+03  0.00000000000E+00 0. -1.
<mgrwt>
<rscale>  2 0.20511728E+02</rscale>
<asrwt>0</asrwt>
<pdfrwt beam="1">  1       21 0.16782242E-03 0.20511728E+02</pdfrwt>
<pdfrwt beam="2">  1       21 0.65431427E-01 0.20511728E+02</pdfrwt>
<totfact> 0.89796054E+07</totfact>
</mgrwt>
</event>
<event>
 4    1  0.4556894E+006  0.2842000E+02  0.7546771E-02  0.1616240E+00
         21   -1    0    0  503  501  0.00000000000E+00  0.00000000000E+00  0.31930360225E+02  0.31930360225E+02  0.00000000000E+00 0.  1.
         21   -1    0    0  504  502 -0.00000000000E+00 -0.00000000000E+00 -0.28696961951E+02  0.28696961951E+02  0.00000000000E+00 0.  1.
         21    1    1    2  503  502  0.88632005757E+01 -0.27002591267E+02 -0.88196734337E+01  0.29757064692E+02  0.00000000000E+00 0.  1.
         21    1    1    2  504  501 -0.88632005757E+01  0.27002591267E+02  0.12053071708E+02  0.30870257485E+02  0.00000000000E+00 0.  1.
<mgrwt>
<rscale>  2 0.28419998E+02</rscale>
<asrwt>0</asrwt>
<pdfrwt beam="1">  1       21 0.49123631E-02 0.28419998E+02</pdfrwt>
<pdfrwt beam="2">  1       21 0.44149172E-02 0.28419998E+02</pdfrwt>
<totfact> 0.67840067E+07</totfact>
</mgrwt>
</event>
<event>
 4    1  0.4556894E+006  0.2561354E+02  0.7546771E-02  0.1652343E+00
         21   -1    0    0  502  501  0.00000000000E+00  0.00000000000E+00  0.66210963120E+01  0.66210963120E+01  0.00000000000E+00 0. -1.
         21   -1    0    0  504  502 -0.00000000000E+00 -0.00000000000E+00 -0.15360562666E+03  0.15360562666E+03  0.00000000000E+00 0. -1.
         21    1    1    2  503  501  0.15176638464E+02  0.20633060023E+02 -0.25763467654E+02  0.36329186428E+02  0.00000000000E+00 0. -1.
         21    1    1    2  504  503 -0.15176638464E+02 -0.20633060023E+02 -0.12122106269E+03  0.12389753654E+03  0.00000000000E+00 0. -1.
<mgrwt>
<rscale>  2 0.25613542E+02</rscale>
<asrwt>0</asrwt>
<pdfrwt beam="1">  1       21 0.10186304E-02 0.25613542E+02</pdfrwt>
<pdfrwt beam="2">  1       21 0.23631631E-01 0.25613542E+02</pdfrwt>
<totfact> 0.45828110E+07</totfact>
</mgrwt>
</event>
<event>
 4    1  0.4556894E+006  0.2270344E+02  0.7546771E-02  0.1696363E+00
         21   -1    0    0  503  501  0.00000000000E+00  0.00000000000E+00  0.79997826262E+02  0.79997826262E+02  0.00000000000E+00 0. -1.
         21   -1    0    0  504  502 -0.00000000000E+00 -0.00000000000E+00 -0.84681234691E+01  0.84681234691E+01  0.00000000000E+00 0. -1.
         21    1    1    2  503  502 -0.22291130544E+02  0.43071785163E+01  0.57394581943E+02  0.61721830207E+02  0.00000000000E+00 0. -1.
         21    1    1    2  504  501  0.22291130544E+02 -0.43071785163E+01  0.14135120850E+02  0.26744119525E+02  0.00000000000E+00 0. -1.
<mgrwt>
<rscale>  2 0.22703442E+02</rscale>
<asrwt>0</asrwt>
<pdfrwt beam="1">  1       21 0.12307357E-01 0.22703442E+02</pdfrwt>
<pdfrwt beam="2">  1       21 0.13027883E-02 0.22703442E+02</pdfrwt>
<totfact> 0.94459277E+07</totfact>
</mgrwt>
</event>
<event>
 4    1  0.4556894E+006  0.2694427E+02  0.7546771E-02  0.1634550E+00
         21   -1    0    0  504  501  0.00000000000E+00  0.00000000000E+00  0.11480961504E+02  0.11480961504E+02  0.00000000000E+00 0.  1.
         21   -1    0    0  503  502 -0.00000000000E+00 -0.00000000000E+00 -0.70588191328E+02  0.70588191328E+02  0.00000000000E+00 0.  1.
         21    1    1    2  503  501  0.68916828360E+01  0.26048005732E+02 -0.16309163806E+02  0.31495757158E+02  0.00000000000E+00 0.  1.
         21    1    1    2  504  502 -0.68916828360E+01 -0.26048005732E+02 -0.42798066019E+02  0.50573395673E+02  0.00000000000E+00 0.  1.
<mgrwt>
<rscale>  2 0.26944274E+02</rscale>
<asrwt>0</asrwt>
<pdfrwt beam="1">  1       21 0.17663017E-02 0.26944274E+02</pdfrwt>
<pdfrwt beam="2">  1       21 0.10859722E-01 0.26944274E+02</pdfrwt>
<totfact> 0.76626547E+07</totfact>
</mgrwt>
</event>
<event>
 4    1  0.4556894E+006  0.2761506E+02  0.7546771E-02  0.1626053E+00
         21   -1    0    0  503  501  0.00000000000E+00  0.00000000000E+00  0.43625934545E+02  0.43625934545E+02  0.00000000000E+00 0.  1.
         21   -1    0    0  501  502 -0.00000000000E+00 -0.00000000000E+00 -0.50725891696E+02  0.50725891696E+02  0.00000000000E+00 0.  1.
         21    1    1    2  503  504 -0.18066513283E+02  0.20885230125E+02  0.34642065704E+02  0.44301968983E+02  0.00000000000E+00 0.  1.
         21    1    1    2  504  502  0.18066513283E+02 -0.20885230125E+02 -0.41742022855E+02  0.50049857258E+02  0.00000000000E+00 0.  1.
<mgrwt>
<rscale>  2 0.27615064E+02</rscale>
<asrwt>0</asrwt>
<pdfrwt beam="1">  1       21 0.67116822E-02 0.27615064E+02</pdfrwt>
<pdfrwt beam="2">  1       21 0.78039834E-02 0.27615064E+02</pdfrwt>
<totfact> 0.16205844E+07</totfact>
</mgrwt>
</event>
<event>
 4    1  0.4556894E+006  0.2163130E+02  0.7546771E-02  0.1714708E+00
         21   -1    0    0  502  501  0.00000000000E+00  0.00000000000E+00  0.60111250560E+03  0.60111250560E+03  0.00000000000E+00 0.  1.
         21   -1    0    0  504  502 -0.00000000000E+00 -0.00000000000E+00 -0.75606252827E+01  0.75606252827E+01  0.00000000000E+00 0. -1.
         21    1    1    2  503  501 -0.21447285579E+02  0.28155265525E+01  0.58502041828E+03  0.58542019358E+03  0.00000000000E+00 0.  1.
         21    1    1    2  504  503  0.21447285579E+02 -0.28155265525E+01  0.85314620310E+01  0.23252937295E+02  0.00000000000E+00 0. -1.
<mgrwt>
<rscale>  2 0.21631303E+02</rscale>
<asrwt>0</asrwt>
<pdfrwt beam="1">  1       21 0.92478809E-01 0.21631303E+02</pdfrwt>
<pdfrwt beam="2">  1       21 0.11631736E-02 0.21631303E+02</pdfrwt>
<totfact> 0.25811822E+06</totfact>
</mgrwt>
</event>
<event>
 4    1  0.4556894E+006  0.2643029E+02  0.7546771E-02  0.1641269E+00
         21   -1    0    0  504  501  0.00000000000E+00  0.00000000000E+00  0.11594622802E+03  0.11594622802E+03  0.00000000000E+00 0.  1.
         21   -1    0    0  501  502 -0.00000000000E+00 -0.00000000000E+00 -0.10022384707E+02  0.10022384707E+02  0.00000000000E+00 0.  1.
         21    1    1    2  503  502  0.24221574457E+02  0.10577122108E+02  0.13183988649E+02  0.29536041338E+02  0.00000000000E+00 0.  1.
         21    1    1    2  504  503 -0.24221574457E+02 -0.10577122108E+02  0.92739854665E+02  0.96432571388E+02  0.00000000000E+00 0.  1.
<mgrwt>
<rscale>  2 0.26430289E+02</rscale>
<asrwt>0</asrwt>
<pdfrwt beam="1">  1       21 0.17837880E-01 0.26430289E+02</pdfrwt>
<pdfrwt beam="2">  1       21 0.15419054E-02 0.26430289E+02</pdfrwt>
<totfact> 0.40328603E+07</totfact>
</mgrwt>
</event>
<event>
 4    1  0.4556894E+006  0.3221608E+02  0.7546771E-02  0.1574810E+00
         21   -1    0    0  503  501  0.00000000000E+00  0.00000000000E+00  0.80657992035E+03  0.80657992035E+03  0.00000000000E+00 0.  1.
         21   -1    0    0  504  502 -0.00000000000E+00 -0.00000000000E+00 -0.12952880703E+01  0.12952880703E+01  0.00000000000E+00 0.  1.
         21    1    1    2  503  502 -0.32050602346E+02  0.32610963390E+01  0.36986885297E+03  0.37126923419E+03  0.00000000000E+00 0.  1.
         21    1    1    2  504  501  0.32050602346E+02 -0.32610963390E+01  0.43541577930E+03  0.43660597422E+03  0.00000000000E+00 0.  1.
<mgrwt>
<rscale>  2 0.32216081E+02</rscale>
<asrwt>0</asrwt>
<pdfrwt beam="1">  1       21 0.12408882E+00 0.32216081E+02</pdfrwt>
<pdfrwt beam="2">  1       21 0.19927573E-03 0.32216081E+02</pdfrwt>
<totfact> 0.19272180E+07</totfact>
</mgrwt>
</event>
<event>
 4    1  0.4556894E+006  0.2420382E+02  0.7546771E-02  0.1672708E+00
         21   -1    0    0  503  501  0.00000000000E+00  0.00000000000E+00  0.15421163793E+02  0.15421163793E+02  0.00000000000E+00 0.  1.
         21   -1    0    0  504  502 -0.00000000000E+00 -0.00000000000E+00 -0.15859436294E+03  0.15859436294E+03  0.00000000000E+00 0. -1.
         21    1    1    2  503  502 -0.24135982008E+02 -0.18109385138E+01 -0.14746157204E+03  0.14943473610E+03  0.00000000000E+00 0. -1.
         21    1    1    2  504  501  0.24135982008E+02  0.18109385138E+01  0.42883728954E+01  0.24580790627E+02  0.00000000000E+00 0.  1.
<mgrwt>
<rscale>  2 0.24203825E+02</rscale>
<asrwt>0</asrwt>
<pdfrwt beam="1">  1       21 0.23724868E-02 0.24203825E+02</pdfrwt>
<pdfrwt beam="2">  1       21 0.24399132E-01 0.24203825E+02</pdfrwt>
<totfact> 0.11771006E+07</totfact>
</mgrwt>
</event>
<event>
 4    1  0.4556894E+006  0.2008417E+02  0.7546771E-02  0.1743659E+00
         21   -1    0    0  503  501  0.00000000000E+00  0.00000000000E+00  0.14403142974E+01  0.14403142974E+01  0.00000000000E+00 0.  1.
         21   -1    0    0  504  502 -0.00000000000E+00 -0.00000000000E+00 -0.28010842203E+03  0.28010842203E+03  0.00000000000E+00 0.  1.
         21    1    1    2  503  502 -0.14561477243E+02  0.13832472433E+02 -0.13747641562E+03  0.13893573609E+03  0.00000000000E+00 0.  1.
         21    1    1    2  504  501  0.14561477243E+02 -0.13832472433E+02 -0.14119169212E+03  0.14261300024E+03  0.00000000000E+00 0.  1.
<mgrwt>
<rscale>  2 0.20084171E+02</rscale>
<asrwt>0</asrwt>
<pdfrwt beam="1">  1       21 0.22158695E-03 0.20084171E+02</pdfrwt>
<pdfrwt beam="2">  1       21 0.43093577E-01 0.20084171E+02</pdfrwt>
<totfact> 0.13531258E+08</totfact>
</mgrwt>
</event>
<event>
 4    1  0.4556894E+006  0.2146967E+02  0.7546771E-02  0.1717588E+00
         21   -1    0    0  502  501  0.00000000000E+00  0.00000000000E+00  0.39338307799E+02  0.39338307799E+02  0.00000000000E+00 0.  1.
         21   -1    0    0  504  502 -0.00000000000E+00 -0.00000000000E+00 -0.31281773384E+02  0.31281773384E+02  0.00000000000E+00 0. -1.
         21    1    1    2  503  501  0.11218022236E+02  0.18305811723E+02  0.31952699642E+02  0.38495737169E+02  0.00000000000E+00 0.  1.
         21    1    1    2  504  503 -0.11218022236E+02 -0.18305811723E+02 -0.23896165228E+02  0.32124344014E+02  0.00000000000E+00 0. -1.
<mgrwt>
<rscale>  2 0.21469671E+02</rscale>
<asrwt>0</asrwt>
<pdfrwt beam="1">  1       21 0.60520473E-02 0.21469671E+02</pdfrwt>
<pdfrwt beam="2">  1       21 0.48125805E-02 0.21469671E+02</pdfrwt>
<totfact> 0.39467724E+07</totfact>
</mgrwt>
</event>
<event>
 4    1  0.4556894E+006  0.2183010E+02  0.7546771E-02  0.1711207E+00
         21   -1    0    0  504  501  0.00000000000E+00  0.00000000000E+00  0.33518744529E+02  0.33518744529E+02  0.00000000000E+00 0.  1.
         21   -1    0    0  503  502 -0.00000000000E+00 -0.00000000000E+00 -0.22652638930E+02  0.22652638930E+02  0.00000000000E+00 0.  1.
         21    1    1    2  503  501  0.28367963737E+01  0.21644992489E+02 -0.11705398093E+02  0.24770334233E+02  0.00000000000E+00 0.  1.
         21    1    1    2  504  502 -0.28367963737E+01 -0.21644992489E+02  0.22571503692E+02  0.31401049225E+02  0.00000000000E+00 0.  1.
<mgrwt>
<rscale>  2 0.21830097E+02</rscale>
<asrwt>0</asrwt>
<pdfrwt beam="1">  1       21 0.51567299E-02 0.21830097E+02</pdfrwt>
<pdfrwt beam="2">  1       21 0.34850214E-02 0.21830097E+02</pdfrwt>
<totfact> 0.85075075E+07</totfact>
</mgrwt>
</event>
<event>
 4    1  0.4556894E+006  0.2016633E+02  0.7546771E-02  0.1742040E+00
         21   -1    0    0  503  501  0.00000000000E+00  0.00000000000E+00  0.18582159871E+03  0.18582159871E+03  0.00000000000E+00 0.  1.
         21   -1    0    0  504  502 -0.00000000000E+00 -0.00000000000E+00 -0.45506404616E+01  0.45506404616E+01  0.00000000000E+00 0.  1.
         21    1    1    2  503  502  0.17172201063E+02 -0.10573384424E+02  0.15921352178E+03  0.16048559581E+03  0.00000000000E+00 0.  1.
         21    1    1    2  504  501 -0.17172201063E+02  0.10573384424E+02  0.22057436478E+02  0.29886643363E+02  0.00000000000E+00 0.  1.
<mgrwt>
<rscale>  2 0.20166332E+02</rscale>
<asrwt>0</asrwt>
<pdfrwt beam="1">  1       21 0.28587932E-01 0.20166332E+02</pdfrwt>
<pdfrwt beam="2">  1       21 0.70009868E-03 0.20166332E+02</pdfrwt>
<totfact> 0.53820349E+07</totfact>
</mgrwt>
</event>
<event>
 4    1  0.4556894E+006  0.2221700E+02  0.7546771E-02  0.1704526E+00
         21   -1    0    0  503  501  0.00000000000E+00  0.00000000000E+00  0.42987227284E+03  0.42987227284E+03  0.00000000000E+00 0.  1.
         21   -1    0    0  501  502 -0.00000000000E+00 -0.00000000000E+00 -0.16272275136E+01  0.16272275136E+01  0.00000000000E+00 0.  1.
         21    1    1    2  503  504 -0.14490871034E+02 -0.16840714538E+02  0.33117749611E+03  0.33192187174E+03  0.00000000000E+00 0.  1.
         21    1    1    2  504  502  0.14490871034E+02  0.16840714538E+02  0.97067549210E+02  0.99577628608E+02  0.00000000000E+00 0.  1.
<mgrwt>
<rscale>  2 0.22216998E+02</rscale>
<asrwt>0</asrwt>
<pdfrwt beam="1">  1       21 0.66134105E-01 0.22216998E+02</pdfrwt>
<pdfrwt beam="2">  1       21 0.25034304E-03 0.22216998E+02</pdfrwt>
<totfact> 0.50370383E+07</totfact>
</mgrwt>
</event>
<event>
 4    1  0.4556894E+006  0.3063480E+02  0.7546771E-02  0.1591176E+00
         21   -1    0    0  504  501  0.00000000000E+00  0.00000000000E+00  0.30066950928E+02  0.30066950928E+02  0.00000000000E+00 0.  1.
         21   -1    0    0  501  502 -0.00000000000E+00 -0.00000000000E+00 -0.18598912441E+03  0.18598912441E+03  0.00000000000E+00 0. -1.
         21    1    1    2  503  502 -0.20788148840E+02  0.22502080367E+02 -0.17650826245E+03  0.17914702751E+03  0.00000000000E+00 0. -1.
         21    1    1    2  504  503  0.20788148840E+02 -0.22502080367E+02  0.20586088963E+02  0.36909047831E+02  0.00000000000E+00 0.  1.
<mgrwt>
<rscale>  2 0.30634796E+02</rscale>
<asrwt>0</asrwt>
<pdfrwt beam="1">  1       21 0.46256847E-02 0.30634796E+02</pdfrwt>
<pdfrwt beam="2">  1       21 0.28613712E-01 0.30634796E+02</pdfrwt>
<totfact> 0.31973833E+06</totfact>
</mgrwt>
</event>
<event>
 4    1  0.4556894E+006  0.2007991E+02  0.7546771E-02  0.1743744E+00
         21   -1    0    0  503  501  0.00000000000E+00  0.00000000000E+00  0.11997438849E+02  0.11997438849E+02  0.00000000000E+00 0.  1.
         21   -1    0    0  504  502 -0.00000000000E+00 -0.00000000000E+00 -0.33653517105E+02  0.33653517105E+02  0.00000000000E+00 0.  1.
         21    1    1    2  503  502 -0.14545663442E+01  0.20027158132E+02 -0.99831562110E+01  0.22424679129E+02  0.00000000000E+00 0.  1.
         21    1    1    2  504  501  0.14545663442E+01 -0.20027158132E+02 -0.11672922044E+02  0.23226276825E+02  0.00000000000E+00 0.  1.
<mgrwt>
<rscale>  2 0.20079911E+02</rscale>
<asrwt>0</asrwt>
<pdfrwt beam="1">  1       21 0.18457598E-02 0.20079911E+02</pdfrwt>
<pdfrwt beam="2">  1       21 0.51774642E-02 0.20079911E+02</pdfrwt>
<totfact> 0.21954486E+08</totfact>
</mgrwt>
</event>
<event>
 4    1  0.4556894E+006  0.2533255E+02  0.7546771E-02  0.1656271E+00
         21   -1    0    0  504  501  0.00000000000E+00  0.00000000000E+00  0.56273756163E+02  0.56273756163E+02  0.00000000000E+00 0.  1.
         21   -1    0    0  501  502 -0.00000000000E+00 -0.00000000000E+00 -0.71761206600E+02  0.71761206600E+02  0.00000000000E+00 0. -1.
         21    1    1    2  503  502 -0.25170677618E+02  0.28591968846E+01 -0.66454632058E+02  0.71119309196E+02  0.00000000000E+00 0. -1.
         21    1    1    2  504  503  0.25170677618E+02 -0.28591968846E+01  0.50967181621E+02  0.56915653567E+02  0.00000000000E+00 0.  1.
<mgrwt>
<rscale>  2 0.25332549E+02</rscale>
<asrwt>0</asrwt>
<pdfrwt beam="1">  1       21 0.86575010E-02 0.25332549E+02</pdfrwt>
<pdfrwt beam="2">  1       21 0.11040186E-01 0.25332549E+02</pdfrwt>
<totfact> 0.59256615E+06</totfact>
</mgrwt>
</event>
<event>
 4    1  0.4556894E+006  0.2574306E+02  0.7546771E-02  0.1650553E+00
         21   -1    0    0  504  501  0.00000000000E+00  0.00000000000E+00  0.13213788200E+02  0.13213788200E+02  0.00000000000E+00 0. -1.
         21   -1    0    0  503  502 -0.00000000000E+00 -0.00000000000E+00 -0.68058267924E+02  0.68058267924E+02  0.00000000000E+00 0. -1.
         21    1    1    2  503  501  0.13444542173E+02 -0.21953346744E+02 -0.48265550379E+02  0.54701631611E+02  0.00000000000E+00 0. -1.
         21    1    1    2  504  502 -0.13444542173E+02  0.21953346744E+02 -0.65789293454E+01  0.26570424513E+02  0.00000000000E+00 0. -1.
<mgrwt>
<rscale>  2 0.25743060E+02</rscale>
<asrwt>0</asrwt>
<pdfrwt beam="1">  1       21 0.20328905E-02 0.25743060E+02</pdfrwt>
<pdfrwt beam="2">  1       21 0.10470503E-01 0.25743060E+02</pdfrwt>
<totfact> 0.64862313E+07</totfact>
</mgrwt>
</event>
<event>
 4    1  0.4556894E+006  0.5079724E+02  0.7546771E-02  0.1441088E+00
         21   -1    0    0  502  501  0.00000000000E+00  0.00000000000E+00  0.10188530351E+03  0.10188530351E+03  0.00000000000E+00 0.  1.
         21   -1    0    0  503  502 -0.00000000000E+00 -0.00000000000E+00 -0.11950321078E+03  0.11950321078E+03  0.00000000000E+00 0.  1.
         21    1    1    2  503  504  0.36991456672E+01  0.50662370346E+02 -0.10707600799E+03  0.11851426469E+03  0.00000000000E+00 0.  1.
         21    1    1    2  504  501 -0.36991456672E+01 -0.50662370346E+02  0.89458100720E+02  0.10287424961E+03  0.00000000000E+00 0.  1.
<mgrwt>
<rscale>  2 0.50797239E+02</rscale>
<asrwt>0</asrwt>
<pdfrwt beam="1">  1       21 0.15674662E-01 0.50797239E+02</pdfrwt>
<pdfrwt beam="2">  1       21 0.18385109E-01 0.50797239E+02</pdfrwt>
<totfact> 0.95752411E+05</totfact>
</mgrwt>
</event>
<event>
 4    1  0.4556894E+006  0.2196857E+02  0.7546771E-02  0.1708796E+00
         21   -1    0    0  503  501  0.00000000000E+00  0.00000000000E+00  0.19018457974E+03  0.19018457974E+03  0.00000000000E+00 0.  1.
         21   -1    0    0  501  502 -0.00000000000E+00 -0.00000000000E+00 -0.18519173708E+02  0.18519173708E+02  0.00000000000E+00 0.  1.
         21    1    1    2  503  504 -0.17000612410E+02  0.13913927558E+02  0.18277176592E+03  0.18408730706E+03  0.00000000000E+00 0.  1.
         21    1    1    2  504  502  0.17000612410E+02 -0.13913927558E+02 -0.11106359896E+02  0.24616446383E+02  0.00000000000E+00 0.  1.
<mgrwt>
<rscale>  2 0.21968573E+02</rscale>
<asrwt>0</asrwt>
<pdfrwt beam="1">  1       21 0.29259165E-01 0.21968573E+02</pdfrwt>
<pdfrwt beam="2">  1       21 0.28491038E-02 0.21968573E+02</pdfrwt>
<totfact> 0.62844213E+06</totfact>
</mgrwt>
</event>
<event>
 4    1  0.4556894E+006  0.2163554E+02  0.7546771E-02  0.1714633E+00
         21   -1    0    0  504  501  0.00000000000E+00  0.00000000000E+00  0.10442128040E+03  0.10442128040E+03  0.00000000000E+00 0. -1.
         21   -1    0    0  503  502 -0.00000000000E+00 -0.00000000000E+00 -0.46070903948E+01  0.46070903948E+01  0.00000000000E+00 0. -1.
         21    1    1    2  503  501 -0.21013889423E+02 -0.51490618584E+01  0.58862199043E+02  0.62712477729E+02  0.00000000000E+00 0. -1.
         21    1    1    2  504  502  0.21013889423E+02  0.51490618584E+01  0.40951990960E+02  0.46315893064E+02  0.00000000000E+00 0. -1.
<mgrwt>
<rscale>  2 0.21635535E+02</rscale>
<asrwt>0</asrwt>
<pdfrwt beam="1">  1       21 0.16064811E-01 0.21635535E+02</pdfrwt>
<pdfrwt beam="2">  1       21 0.70878322E-03 0.21635535E+02</pdfrwt>
<totfact> 0.14776611E+08</totfact>
</mgrwt>
</event>
<event>
 4    1  0.4556894E+006  0.2421519E+02  0.7546771E-02  0.1672537E+00
         21   -1    0    0  503  501  0.00000000000E+00  0.00000000000E+00  0.66816641974E+02  0.66816641974E+02  0.00000000000E+00 0. -1.
         21   -1    0    0  501  502 -0.00000000000E+00 -0.00000000000E+00 -0.17752800609E+02  0.17752800609E+02  0.00000000000E+00 0.  1.
         21    1    1    2  503  504  0.70429222012E+01 -0.23168350546E+02  0.54600546898E+02  0.59729347408E+02  0.00000000000E+00 0. -1.
         21    1    1    2  504  502 -0.70429222012E+01  0.23168350546E+02 -0.55367055327E+01  0.24840095175E+02  0.00000000000E+00 0.  1.
<mgrwt>
<rscale>  2 0.24215186E+02</rscale>
<asrwt>0</asrwt>
<pdfrwt beam="1">  1       21 0.10279483E-01 0.24215186E+02</pdfrwt>
<pdfrwt beam="2">  1       21 0.27312001E-02 0.24215186E+02</pdfrwt>
<totfact> 0.41721932E+07</totfact>
</mgrwt>
</event>
<event>
 4    1  0.4556894E+006  0.2120050E+02  0.7546771E-02  0.1722457E+00
         21   -1    0    0  504  501  0.00000000000E+00  0.00000000000E+00  0.50908112867E+01  0.50908112867E+01  0.00000000000E+00 0.  1.
         21   -1    0    0  503  502 -0.00000000000E+00 -0.00000000000E+00 -0.17504131488E+03  0.17504131488E+03  0.00000000000E+00 0.  1.
         21    1    1    2  503  501  0.11607944150E+02  0.17740265742E+02 -0.14838149800E+03  0.14988839296E+03  0.00000000000E+00 0.  1.
         21    1    1    2  504  502 -0.11607944150E+02 -0.17740265742E+02 -0.21569005601E+02  0.30243733213E+02  0.00000000000E+00 0.  1.
<mgrwt>
<rscale>  2 0.21200505E+02</rscale>
<asrwt>0</asrwt>
<pdfrwt beam="1">  1       21 0.78320176E-03 0.21200505E+02</pdfrwt>
<pdfrwt beam="2">  1       21 0.26929432E-01 0.21200505E+02</pdfrwt>
<totfact> 0.51382962E+07</totfact>
</mgrwt>
</event>
<event>
 4    1  0.4556894E+006  0.2217442E+02  0.7546771E-02  0.1705253E+00
         21   -1    0    0  503  501  0.00000000000E+00  0.00000000000E+00  0.29732830774E+03  0.29732830774E+03  0.00000000000E+00 0.  1.
         21   -1    0    0  501  502 -0.00000000000E+00 -0.00000000000E+00 -0.61160301430E+02  0.61160301430E+02  0.00000000000E+00 0. -1.
         21    1    1    2  503  504 -0.17931813765E+02  0.13044353151E+02  0.29488836181E+03  0.29572090056E+03  0.00000000000E+00 0.  1.
         21    1    1    2  504  502  0.17931813765E+02 -0.13044353151E+02 -0.58720355503E+02  0.62767708613E+02  0.00000000000E+00 0. -1.
<mgrwt>
<rscale>  2 0.22174424E+02</rscale>
<asrwt>0</asrwt>
<pdfrwt beam="1">  1       21 0.45742816E-01 0.22174424E+02</pdfrwt>
<pdfrwt beam="2">  1       21 0.94092773E-02 0.22174424E+02</pdfrwt>
<totfact> 0.40796348E+05</totfact>
</mgrwt>
</event>
<event>
 4    1  0.4556894E+006  0.2072483E+02  0.7546771E-02  0.1731287E+00
         21   -1    0    0  504  501  0.00000000000E+00  0.00000000000E+00  0.68461005089E+03  0.68461005089E+03  0.00000000000E+00 0.  1.
         21   -1    0    0  501  502 -0.00000000000E+00 -0.00000000000E+00 -0.93665334173E+00  0.93665334173E+00  0.00000000000E+00 0. -1.
         21    1    1    2  503  502 -0.33547272638E+01 -0.20451510460E+02  0.14487543142E+03  0.14635029588E+03  0.00000000000E+00 0. -1.
         21    1    1    2  504  503  0.33547272638E+01  0.20451510460E+02  0.53879796613E+03  0.53919640835E+03  0.00000000000E+00 0.  1.
<mgrwt>
<rscale>  2 0.20724828E+02</rscale>
<asrwt>0</asrwt>
<pdfrwt beam="1">  1       21 0.10532422E+00 0.20724828E+02</pdfrwt>
<pdfrwt beam="2">  1       21 0.14410106E-03 0.20724828E+02</pdfrwt>
<totfact> 0.41135029E+07</totfact>
</mgrwt>
</event>
<event>
 4    1  0.4556894E+006  0.4381376E+02  0.7546771E-02  0.1481886E+00
         21   -1    0    0  502  501  0.00000000000E+00  0.00000000000E+00  0.13362615989E+03  0.13362615989E+03  0.00000000000E+00 0. -1.
         21   -1    0    0  503  502 -0.00000000000E+00 -0.00000000000E+00 -0.60290714272E+02  0.60290714272E+02  0.00000000000E+00 0.  1.
         21    1    1    2  503  504  0.26802043149E+02  0.34659715673E+02 -0.47954536097E+02  0.64956007726E+02  0.00000000000E+00 0.  1.
         21    1    1    2  504  501 -0.26802043149E+02 -0.34659715673E+02  0.12128998172E+03  0.12896086644E+03  0.00000000000E+00 0. -1.
<mgrwt>
<rscale>  2 0.43813758E+02</rscale>
<asrwt>0</asrwt>
<pdfrwt beam="1">  1       21 0.20557871E-01 0.43813758E+02</pdfrwt>
<pdfrwt beam="2">  1       21 0.92754945E-02 0.43813758E+02</pdfrwt>
<totfact> 0.19186662E+06</totfact>
</mgrwt>
</event>
<event>
 4    1  0.4556894E+006  0.2682784E+02  0.7546771E-02  0.1636056E+00
         21   -1    0    0  502  501  0.00000000000E+00  0.00000000000E+00  0.33613024796E+02  0.33613024796E+02  0.00000000000E+00 0. -1.
         21   -1    0    0  504  502 -0.00000000000E+00 -0.00000000000E+00 -0.42077548971E+02  0.42077548971E+02  0.00000000000E+00 0. -1.
         21    1    1    2  503  501 -0.23243218268E+02 -0.13397223700E+02  0.22289764707E+02  0.34879312049E+02  0.00000000000E+00 0. -1.
         21    1    1    2  504  503  0.23243218268E+02  0.13397223700E+02 -0.30754288882E+02  0.40811261718E+02  0.00000000000E+00 0. -1.
<mgrwt>
<rscale>  2 0.26827836E+02</rscale>
<asrwt>0</asrwt>
<pdfrwt beam="1">  1       21 0.51712346E-02 0.26827836E+02</pdfrwt>
<pdfrwt beam="2">  1       21 0.64734691E-02 0.26827836E+02</pdfrwt>
<totfact> 0.33302498E+07</totfact>
</mgrwt>
</event>
<event>
 4    1  0.4556894E+006  0.2552393E+02  0.7546771E-02  0.1653589E+00
         21   -1    0    0  502  501  0.00000000000E+00  0.00000000000E+00  0.16335287470E+03  0.16335287470E+03  0.00000000000E+00 0.  1.
         21   -1    0    0  504  502 -0.00000000000E+00 -0.00000000000E+00 -0.39832168722E+03  0.39832168722E+03  0.00000000000E+00 0.  1.
         21    1    1    2  503  501 -0.22444260884E+02  0.12154259429E+02  0.16194342297E+03  0.16394249941E+03  0.00000000000E+00 0.  1.
         21    1    1    2  504  503  0.22444260884E+02 -0.12154259429E+02 -0.39691223549E+03  0.39773206251E+03  0.00000000000E+00 0.  1.
<mgrwt>
<rscale>  2 0.25523927E+02</rscale>
<asrwt>0</asrwt>
<pdfrwt beam="1">  1       21 0.25131212E-01 0.25523927E+02</pdfrwt>
<pdfrwt beam="2">  1       21 0.61280258E-01 0.25523927E+02</pdfrwt>
<totfact> 0.42789210E+04</totfact>
</mgrwt>
</event>
<event>
 4    1  0.4556894E+006  0.2687456E+02  0.7546771E-02  0.1635450E+00
         21   -1    0    0  504  501  0.00000000000E+00  0.00000000000E+00  0.96865012757E+02  0.96865012757E+02  0.00000000000E+00 0. -1.
         21   -1    0    0  501  502 -0.00000000000E+00 -0.00000000000E+00 -0.11620583588E+03  0.11620583588E+03  0.00000000000E+00 0.  1.
         21    1    1    2  503  502  0.25867792517E+02  0.72869427974E+01 -0.11273133549E+03  0.11589044924E+03  0.00000000000E+00 0.  1.
         21    1    1    2  504  503 -0.25867792517E+02 -0.72869427974E+01  0.93390512369E+02  0.97180399389E+02  0.00000000000E+00 0. -1.
<mgrwt>
<rscale>  2 0.26874565E+02</rscale>
<asrwt>0</asrwt>
<pdfrwt beam="1">  1       21 0.14902310E-01 0.26874565E+02</pdfrwt>
<pdfrwt beam="2">  1       21 0.17877821E-01 0.26874565E+02</pdfrwt>
<totfact> 0.10556388E+06</totfact>
</mgrwt>
</event>
<event>
 4    1  0.4556894E+006  0.2173461E+02  0.7546771E-02  0.1712883E+00
         21   -1    0    0  504  501  0.00000000000E+00  0.00000000000E+00  0.15317560790E+03  0.15317560790E+03  0.00000000000E+00 0.  1.
         21   -1    0    0  501  502 -0.00000000000E+00 -0.00000000000E+00 -0.50922127703E+02  0.50922127703E+02  0.00000000000E+00 0. -1.
         21    1    1    2  503  502 -0.21577332271E+02 -0.26100194186E+01 -0.47783671684E+02  0.52494502082E+02  0.00000000000E+00 0. -1.
         21    1    1    2  504  503  0.21577332271E+02  0.26100194186E+01  0.15003715188E+03  0.15160323352E+03  0.00000000000E+00 0.  1.
<mgrwt>
<rscale>  2 0.21734615E+02</rscale>
<asrwt>0</asrwt>
<pdfrwt beam="1">  1       21 0.23565478E-01 0.21734615E+02</pdfrwt>
<pdfrwt beam="2">  1       21 0.78341736E-02 0.21734615E+02</pdfrwt>
<totfact> 0.18579091E+06</totfact>
</mgrwt>
</event>
<event>
 4    1  0.4556894E+006  0.2736653E+02  0.7546771E-02  0.1629166E+00
         21   -1    0    0  503  501  0.00000000000E+00  0.00000000000E+00  0.19227332760E+02  0.19227332760E+02  0.00000000000E+00 0. -1.
         21   -1    0    0  504  502 -0.00000000000E+00 -0.00000000000E+00 -0.10731604440E+04  0.10731604440E+04  0.00000000000E+00 0. -1.
         21    1    1    2  503  502 -0.68199969072E+01 -0.26503105036E+02  0.92234614218E+01  0.28879043872E+02  0.00000000000E+00 0. -1.
         21    1    1    2  504  501  0.68199969072E+01  0.26503105036E+02 -0.10631565727E+04  0.10635087329E+04  0.00000000000E+00 0. -1.
<mgrwt>
<rscale>  2 0.27366529E+02</rscale>
<asrwt>0</asrwt>
<pdfrwt beam="1">  1       21 0.29580505E-02 0.27366529E+02</pdfrwt>
<pdfrwt beam="2">  1       21 0.16510165E+00 0.27366529E+02</pdfrwt>
<totfact> 0.16568398E+05</totfact>
</mgrwt>
</event>
<event>
 4    1  0.4556894E+006  0.2133782E+02  0.7546771E-02  0.1719962E+00
         21   -1    0    0  504  501  0.00000000000E+00  0.00000000000E+00  0.44166419244E+02  0.44166419244E+02  0.00000000000E+00 0.  1.
         21   -1    0    0  503  502 -0.00000000000E+00 -0.00000000000E+00 -0.20947917137E+02  0.20947917137E+02  0.00000000000E+00 0. -1.
         21    1    1    2  503  501 -0.99567921684E+01  0.18872331775E+02 -0.11592943885E+02  0.24283718102E+02  0.00000000000E+00 0. -1.
         21    1    1    2  504  502  0.99567921684E+01 -0.18872331775E+02  0.34811445993E+02  0.40830618279E+02  0.00000000000E+00 0.  1.
<mgrwt>
<rscale>  2 0.21337821E+02</rscale>
<asrwt>0</asrwt>
<pdfrwt beam="1">  1       21 0.67948337E-02 0.21337821E+02</pdfrwt>
<pdfrwt beam="2">  1       21 0.32227565E-02 0.21337821E+02</pdfrwt>
<totfact> 0.61408779E+07</totfact>
</mgrwt>
</event>
<event>
 4    1  0.4556894E+006  0.2177340E+02  0.7546771E-02  0.1712201E+00
         21   -1    0    0  503  501  0.00000000000E+00  0.00000000000E+00  0.38870005704E+02  0.38870005704E+02  0.00000000000E+00 0.  1.
         21   -1    0    0  504  502 -0.00000000000E+00 -0.00000000000E+00 -0.30751289778E+02  0.30751289778E+02  0.00000000000E+00 0.  1.
         21    1    1    2  503  502  0.14808927337E+02 -0.15961725357E+02  0.31099412196E+02  0.37963857077E+02  0.00000000000E+00 0.  1.
         21    1    1    2  504  501 -0.14808927337E+02  0.15961725357E+02 -0.22980696270E+02  0.31657438404E+02  0.00000000000E+00 0.  1.
<mgrwt>
<rscale>  2 0.21773401E+02</rscale>
<asrwt>0</asrwt>
<pdfrwt beam="1">  1       21 0.59800009E-02 0.21773401E+02</pdfrwt>
<pdfrwt beam="2">  1       21 0.47309676E-02 0.21773401E+02</pdfrwt>
<totfact> 0.41486321E+07</totfact>
</mgrwt>
</event>
<event>
 4    1  0.4556894E+006  0.2126252E+02  0.7546771E-02  0.1721328E+00
         21   -1    0    0  502  501  0.00000000000E+00  0.00000000000E+00  0.22937802330E+02  0.22937802330E+02  0.00000000000E+00 0.  1.
         21   -1    0    0  503  502 -0.00000000000E+00 -0.00000000000E+00 -0.85884190073E+02  0.85884190073E+02  0.00000000000E+00 0.  1.
         21    1    1    2  503  504 -0.11502185393E+02  0.17882796463E+02 -0.79234448653E+02  0.82037750649E+02  0.00000000000E+00 0.  1.
         21    1    1    2  504  501  0.11502185393E+02 -0.17882796463E+02  0.16288060910E+02  0.26784241754E+02  0.00000000000E+00 0.  1.
<mgrwt>
<rscale>  2 0.21262518E+02</rscale>
<asrwt>0</asrwt>
<pdfrwt beam="1">  1       21 0.35288926E-02 0.21262518E+02</pdfrwt>
<pdfrwt beam="2">  1       21 0.13212952E-01 0.21262518E+02</pdfrwt>
<totfact> 0.17845028E+07</totfact>
</mgrwt>
</event>
<event>
 4    1  0.4556894E+006  0.2255177E+02  0.7546771E-02  0.1698880E+00
         21   -1    0    0  503  501  0.00000000000E+00  0.00000000000E+00  0.64147516531E+01  0.64147516531E+01  0.00000000000E+00 0. -1.
         21   -1    0    0  504  502 -0.00000000000E+00 -0.00000000000E+00 -0.15054184806E+03  0.15054184806E+03  0.00000000000E+00 0. -1.
         21    1    1    2  503  502 -0.10399979551E+02  0.20010571374E+02 -0.12605680380E+03  0.12805819117E+03  0.00000000000E+00 0. -1.
         21    1    1    2  504  501  0.10399979551E+02 -0.20010571374E+02 -0.18070292604E+02  0.28898408540E+02  0.00000000000E+00 0. -1.
<mgrwt>
<rscale>  2 0.22551775E+02</rscale>
<asrwt>0</asrwt>
<pdfrwt beam="1">  1       21 0.98688493E-03 0.22551775E+02</pdfrwt>
<pdfrwt beam="2">  1       21 0.23160283E-01 0.22551775E+02</pdfrwt>
<totfact> 0.48315438E+07</totfact>
</mgrwt>
</event>
<event>
 4    1  0.4556894E+006  0.2637804E+02  0.7546771E-02  0.1641963E+00
         21   -1    0    0  503  501  0.00000000000E+00  0.00000000000E+00  0.11145490976E+02  0.11145490976E+02  0.00000000000E+00 0. -1.
         21   -1    0    0  501  502 -0.00000000000E+00 -0.00000000000E+00 -0.19317181598E+04  0.19317181598E+04  0.00000000000E+00 0.  1.
         21    1    1    2  503  504 -0.18132315158E+02 -0.19157773626E+02 -0.46807097977E+01  0.26790113615E+02  0.00000000000E+00 0. -1.
         21    1    1    2  504  502  0.18132315158E+02  0.19157773626E+02 -0.19158919590E+04  0.19160735371E+04  0.00000000000E+00 0.  1.
<mgrwt>
<rscale>  2 0.26378043E+02</rscale>
<asrwt>0</asrwt>
<pdfrwt beam="1">  1       21 0.17146912E-02 0.26378043E+02</pdfrwt>
<pdfrwt beam="2">  1       21 0.29718736E+00 0.26378043E+02</pdfrwt>
<totfact> 0.75471317E+04</totfact>
</mgrwt>
</event>
<event>
 4    1  0.4556894E+006  0.3110875E+02  0.7546771E-02  0.1586147E+00
         21   -1    0    0  502  501  0.00000000000E+00  0.00000000000E+00  0.12643044207E+03  0.12643044207E+03  0.00000000000E+00 0.  1.
         21   -1    0    0  504  502 -0.00000000000E+00 -0.00000000000E+00 -0.42134936350E+03  0.42134936350E+03  0.00000000000E+00 0. -1.
         21    1    1    2  503  501  0.21971346665E+01  0.31031064937E+02  0.12393122974E+03  0.12777599186E+03  0.00000000000E+00 0.  1.
         21    1    1    2  504  503 -0.21971346665E+01 -0.31031064937E+02 -0.41885015117E+03  0.42000381370E+03  0.00000000000E+00 0. -1.
<mgrwt>
<rscale>  2 0.31108751E+02</rscale>
<asrwt>0</asrwt>
<pdfrwt beam="1">  1       21 0.19450837E-01 0.31108751E+02</pdfrwt>
<pdfrwt beam="2">  1       21 0.64822979E-01 0.31108751E+02</pdfrwt>
<totfact> 0.59676773E+04</totfact>
</mgrwt>
</event>
<event>
 4    1  0.4556894E+006  0.3533456E+02  0.7546771E-02  0.1545649E+00
         21   -1    0    0  502  501  0.00000000000E+00  0.00000000000E+00  0.54606870584E+03  0.54606870584E+03  0.00000000000E+00 0. -1.
         21   -1    0    0  503  502 -0.00000000000E+00 -0.00000000000E+00 -0.54522686934E+02  0.54522686934E+02  0.00000000000E+00 0.  1.
         21    1    1    2  503  504 -0.19710723204E+02 -0.29326073140E+02 -0.48158831655E+02  0.59731099450E+02  0.00000000000E+00 0.  1.
         21    1    1    2  504  501  0.19710723204E+02  0.29326073140E+02  0.53970485056E+03  0.54086029332E+03  0.00000000000E+00 0. -1.
<mgrwt>
<rscale>  2 0.35334561E+02</rscale>
<asrwt>0</asrwt>
<pdfrwt beam="1">  1       21 0.84010567E-01 0.35334561E+02</pdfrwt>
<pdfrwt beam="2">  1       21 0.83881060E-02 0.35334561E+02</pdfrwt>
<totfact> 0.14519672E+05</totfact>
</mgrwt>
</event>
<event>
 4    1  0.4556894E+006  0.4885387E+02  0.7546771E-02  0.1451623E+00
         21   -1    0    0  503  501  0.00000000000E+00  0.00000000000E+00  0.37620728250E+03  0.37620728250E+03  0.00000000000E+00 0.  1.
         21   -1    0    0  504  502 -0.00000000000E+00 -0.00000000000E+00 -0.23474698137E+02  0.23474698137E+02  0.00000000000E+00 0. -1.
         21    1    1    2  503  502  0.16421737646E+02 -0.46011167089E+02  0.34708089905E+03  0.35050228451E+03  0.00000000000E+00 0.  1.
         21    1    1    2  504  501 -0.16421737646E+02  0.46011167089E+02  0.56516853164E+01  0.49179696127E+02  0.00000000000E+00 0. -1.
<mgrwt>
<rscale>  2 0.48853874E+02</rscale>
<asrwt>0</asrwt>
<pdfrwt beam="1">  1       21 0.57878039E-01 0.48853874E+02</pdfrwt>
<pdfrwt beam="2">  1       21 0.36114923E-02 0.48853874E+02</pdfrwt>
<totfact> 0.12670359E+06</totfact>
</mgrwt>
</event>
<event>
 4    1  0.4556894E+006  0.2396896E+02  0.7546771E-02  0.1676269E+00
         21   -1    0    0  503  501  0.00000000000E+00  0.00000000000E+00  0.14061845852E+03  0.14061845852E+03  0.00000000000E+00 0. -1.
         21   -1    0    0  504  502 -0.00000000000E+00 -0.00000000000E+00 -0.65279495879E+01  0.65279495879E+01  0.00000000000E+00 0. -1.
         21    1    1    2  503  502 -0.16530844250E+02  0.17356325312E+02  0.22042909372E+02  0.32563794213E+02  0.00000000000E+00 0. -1.
         21    1    1    2  504  501  0.16530844250E+02 -0.17356325312E+02  0.11204759956E+03  0.11458261389E+03  0.00000000000E+00 0. -1.
<mgrwt>
<rscale>  2 0.23968956E+02</rscale>
<asrwt>0</asrwt>
<pdfrwt beam="1">  1       21 0.21633607E-01 0.23968956E+02</pdfrwt>
<pdfrwt beam="2">  1       21 0.10043000E-02 0.23968956E+02</pdfrwt>
<totfact> 0.53895707E+07</totfact>
</mgrwt>
</event>
<event>
 4    1  0.4556894E+006  0.2026466E+02  0.7546771E-02  0.1740116E+00
         21   -1    0    0  502  501  0.00000000000E+00  0.00000000000E+00  0.30100937369E+02  0.30100937369E+02  0.00000000000E+00 0.  1.
         21   -1    0    0  504  502 -0.00000000000E+00 -0.00000000000E+00 -0.23167924015E+02  0.23167924015E+02  0.00000000000E+00 0.  1.
         21    1    1    2  503  501  0.20249515490E+02  0.78318527415E+00  0.20544577949E+02  0.28857164445E+02  0.00000000000E+00 0.  1.
         21    1    1    2  504  503 -0.20249515490E+02 -0.78318527415E+00 -0.13611564595E+02  0.24411696939E+02  0.00000000000E+00 0.  1.
<mgrwt>
<rscale>  2 0.20264655E+02</rscale>
<asrwt>0</asrwt>
<pdfrwt beam="1">  1       21 0.46309134E-02 0.20264655E+02</pdfrwt>
<pdfrwt beam="2">  1       21 0.35642960E-02 0.20264655E+02</pdfrwt>
<totfact> 0.95324071E+07</totfact>
</mgrwt>
</event>
<event>
 4    1  0.4556894E+006  0.2024348E+02  0.7546771E-02  0.1740529E+00
         21   -1    0    0  503  501  0.00000000000E+00  0.00000000000E+00  0.76852628812E+02  0.76852628812E+02  0.00000000000E+00 0. -1.
         21   -1    0    0  504  502 -0.00000000000E+00 -0.00000000000E+00 -0.98493396526E+01  0.98493396526E+01  0.00000000000E+00 0. -1.
         21    1    1    2  503  502 -0.68416005896E+01 -0.19052318692E+02  0.41437986499E+01  0.20663238213E+02  0.00000000000E+00 0. -1.
         21    1    1    2  504  501  0.68416005896E+01  0.19052318692E+02  0.62859490509E+02  0.66038730252E+02  0.00000000000E+00 0. -1.
<mgrwt>
<rscale>  2 0.20243477E+02</rscale>
<asrwt>0</asrwt>
<pdfrwt beam="1">  1       21 0.11823481E-01 0.20243477E+02</pdfrwt>
<pdfrwt beam="2">  1       21 0.15152831E-02 0.20243477E+02</pdfrwt>
<totfact> 0.77807109E+07</totfact>
</mgrwt>
</event>
<event>
 4    1  0.4556894E+006  0.2081547E+02  0.7546771E-02  0.1729581E+00
         21   -1    0    0  502  501  0.00000000000E+00  0.00000000000E+00  0.88574540350E+01  0.88574540350E+01  0.00000000000E+00 0.  1.
         21   -1    0    0  503  502 -0.00000000000E+00 -0.00000000000E+00 -0.20442666073E+03  0.20442666073E+03  0.00000000000E+00 0.  1.
         21    1    1    2  503  504  0.26629461470E+01  0.20644430582E+02 -0.19079636044E+03  0.19192846311E+03  0.00000000000E+00 0.  1.
         21    1    1    2  504  501 -0.26629461470E+01 -0.20644430582E+02 -0.47728462605E+01  0.21355651656E+02  0.00000000000E+00 0.  1.
<mgrwt>
<rscale>  2 0.20815470E+02</rscale>
<asrwt>0</asrwt>
<pdfrwt beam="1">  1       21 0.13626852E-02 0.20815470E+02</pdfrwt>
<pdfrwt beam="2">  1       21 0.31450255E-01 0.20815470E+02</pdfrwt>
<totfact> 0.16859337E+07</totfact>
</mgrwt>
</event>
<event>
 4    1  0.4556894E+006  0.2290325E+02  0.7546771E-02  0.1693083E+00
         21   -1    0    0  504  501  0.00000000000E+00  0.00000000000E+00  0.10932368313E+03  0.10932368313E+03  0.00000000000E+00 0.  1.
         21   -1    0    0  503  502 -0.00000000000E+00 -0.00000000000E+00 -0.22040839620E+02  0.22040839620E+02  0.00000000000E+00 0. -1.
         21    1    1    2  503  501 -0.17007770908E+02  0.15339310180E+02 -0.14453168968E+02  0.27082333749E+02  0.00000000000E+00 0. -1.
         21    1    1    2  504  502  0.17007770908E+02 -0.15339310180E+02  0.10173601247E+03  0.10428218900E+03  0.00000000000E+00 0.  1.
<mgrwt>
<rscale>  2 0.22903247E+02</rscale>
<asrwt>0</asrwt>
<pdfrwt beam="1">  1       21 0.16819028E-01 0.22903247E+02</pdfrwt>
<pdfrwt beam="2">  1       21 0.33908985E-02 0.22903247E+02</pdfrwt>
<totfact> 0.12805560E+07</totfact>
</mgrwt>
</event>
<event>
 4    1  0.4556894E+006  0.5583482E+02  0.7546771E-02  0.1416192E+00
         21   -1    0    0  503  501  0.00000000000E+00  0.00000000000E+00  0.32208782721E+03  0.32208782721E+03  0.00000000000E+00 0. -1.
         21   -1    0    0  504  502 -0.00000000000E+00 -0.00000000000E+00 -0.96888695625E+01  0.96888695625E+01  0.00000000000E+00 0. -1.
         21    1    1    2  503  502 -0.14889198238E+02  0.53813000785E+02  0.15093768258E+03  0.16093387245E+03  0.00000000000E+00 0. -1.
         21    1    1    2  504  501  0.14889198238E+02 -0.53813000785E+02  0.16146127507E+03  0.17084282433E+03  0.00000000000E+00 0. -1.
<mgrwt>
<rscale>  2 0.55834821E+02</rscale>
<asrwt>0</asrwt>
<pdfrwt beam="1">  1       21 0.49551965E-01 0.55834821E+02</pdfrwt>
<pdfrwt beam="2">  1       21 0.14905956E-02 0.55834821E+02</pdfrwt>
<totfact> 0.71283598E+06</totfact>
</mgrwt>
</event>
<event>
 4    1  0.4556894E+006  0.2526329E+02  0.7546771E-02  0.1657249E+00
         21   -1    0    0  502  501  0.00000000000E+00  0.00000000000E+00  0.26657338920E+02  0.26657338920E+02  0.00000000000E+00 0. -1.
         21   -1    0    0  504  502 -0.00000000000E+00 -0.00000000000E+00 -0.17614311318E+03  0.17614311318E+03  0.00000000000E+00 0.  1.
         21    1    1    2  503  501 -0.35585956358E+01  0.25011398012E+02  0.19514372587E+02  0.31922474386E+02  0.00000000000E+00 0. -1.
         21    1    1    2  504  503  0.35585956358E+01 -0.25011398012E+02 -0.16900014685E+03  0.17087797772E+03  0.00000000000E+00 0.  1.
<mgrwt>
<rscale>  2 0.25263286E+02</rscale>
<asrwt>0</asrwt>
<pdfrwt beam="1">  1       21 0.41011291E-02 0.25263286E+02</pdfrwt>
<pdfrwt beam="2">  1       21 0.27098940E-01 0.25263286E+02</pdfrwt>
<totfact> 0.41712073E+06</totfact>
</mgrwt>
</event>
<event>
 4    1  0.4556894E+006  0.2569579E+02  0.7546771E-02  0.1651205E+00
         21   -1    0    0  502  501  0.00000000000E+00  0.00000000000E+00  0.45761150013E+02  0.45761150013E+02  0.00000000000E+00 0.  1.
         21   -1    0    0  503  502 -0.00000000000E+00 -0.00000000000E+00 -0.16901369011E+02  0.16901369011E+02  0.00000000000E+00 0.  1.
         21    1    1    2  503  504 -0.20732381975E+02  0.15180320109E+02  0.24459362271E+01  0.25811942681E+02  0.00000000000E+00 0.  1.
         21    1    1    2  504  501  0.20732381975E+02 -0.15180320109E+02  0.26413844776E+02  0.36850576343E+02  0.00000000000E+00 0.  1.
<mgrwt>
<rscale>  2 0.25695793E+02</rscale>
<asrwt>0</asrwt>
<pdfrwt beam="1">  1       21 0.70401769E-02 0.25695793E+02</pdfrwt>
<pdfrwt beam="2">  1       21 0.26002106E-02 0.25695793E+02</pdfrwt>
<totfact> 0.85129724E+07</totfact>
</mgrwt>
</event>
<event>
 4    1  0.4556894E+006  0.3000051E+02  0.7546771E-02  0.1598083E+00
         21   -1    0    0  504  501  0.00000000000E+00  0.00000000000E+00  0.13816393220E+02  0.13816393220E+02  0.00000000000E+00 0.  1.
         21   -1    0    0  503  502 -0.00000000000E+00 -0.00000000000E+00 -0.11720769524E+03  0.11720769524E+03  0.00000000000E+00 0. -1.
         21    1    1    2  503  501 -0.29664751331E+02  0.44758375149E+01 -0.80322071557E+01  0.31057156097E+02  0.00000000000E+00 0.  1.
         21    1    1    2  504  502  0.29664751331E+02 -0.44758375149E+01 -0.95359094866E+02  0.99966932366E+02  0.00000000000E+00 0. -1.
<mgrwt>
<rscale>  2 0.30000510E+02</rscale>
<asrwt>0</asrwt>
<pdfrwt beam="1">  1       21 0.21255989E-02 0.30000510E+02</pdfrwt>
<pdfrwt beam="2">  1       21 0.18031954E-01 0.30000510E+02</pdfrwt>
<totfact> 0.24786952E+07</totfact>
</mgrwt>
</event>
<event>
 4    1  0.4556894E+006  0.2917270E+02  0.7546771E-02  0.1607418E+00
         21   -1    0    0  504  501  0.00000000000E+00  0.00000000000E+00  0.21068161553E+03  0.21068161553E+03  0.00000000000E+00 0.  1.
         21   -1    0    0  501  502 -0.00000000000E+00 -0.00000000000E+00 -0.42005677037E+01  0.42005677037E+01  0.00000000000E+00 0. -1.
         21    1    1    2  503  502 -0.29155779036E+02  0.99345731404E+00  0.82201126177E+02  0.87224260120E+02  0.00000000000E+00 0. -1.
         21    1    1    2  504  503  0.29155779036E+02 -0.99345731404E+00  0.12427992165E+03  0.12765792311E+03  0.00000000000E+00 0.  1.
<mgrwt>
<rscale>  2 0.29172700E+02</rscale>
<asrwt>0</asrwt>
<pdfrwt beam="1">  1       21 0.32412548E-01 0.29172700E+02</pdfrwt>
<pdfrwt beam="2">  1       21 0.64624135E-03 0.29172700E+02</pdfrwt>
<totfact> 0.52646000E+07</totfact>
</mgrwt>
</event>
<event>
 4    1  0.4556894E+006  0.3231999E+02  0.7546771E-02  0.1573775E+00
         21   -1    0    0  504  501  0.00000000000E+00  0.00000000000E+00  0.78352844788E+00  0.78352844788E+00  0.00000000000E+00 0. -1.
         21   -1    0    0  503  502 -0.00000000000E+00 -0.00000000000E+00 -0.14426884978E+04  0.14426884978E+04  0.00000000000E+00 0. -1.
         21    1    1    2  503  501 -0.23105581803E+02 -0.22598983556E+02 -0.91980097524E+03  0.92036863050E+03  0.00000000000E+00 0. -1.
         21    1    1    2  504  502  0.23105581803E+02  0.22598983556E+02 -0.52210399414E+03  0.52310339577E+03  0.00000000000E+00 0. -1.
<mgrwt>
<rscale>  2 0.32319993E+02</rscale>
<asrwt>0</asrwt>
<pdfrwt beam="1">  1       21 0.12054372E-03 0.32319993E+02</pdfrwt>
<pdfrwt beam="2">  1       21 0.22195045E+00 0.32319993E+02</pdfrwt>
<totfact> 0.93182605E+06</totfact>
</mgrwt>
</event>
<event>
 4    1  0.4556894E+006  0.6010463E+02  0.7546771E-02  0.1397393E+00
         21   -1    0    0  502  501  0.00000000000E+00  0.00000000000E+00  0.35924232308E+02  0.35924232308E+02  0.00000000000E+00 0.  1.
         21   -1    0    0  504  502 -0.00000000000E+00 -0.00000000000E+00 -0.11225613703E+03  0.11225613703E+03  0.00000000000E+00 0.  1.
         21    1    1    2  503  501  0.74353356969E+01  0.59642955172E+02 -0.14251322329E+02  0.61771081476E+02  0.00000000000E+00 0.  1.
         21    1    1    2  504  503 -0.74353356969E+01 -0.59642955172E+02 -0.62080582390E+02  0.86409287860E+02  0.00000000000E+00 0.  1.
<mgrwt>
<rscale>  2 0.60104628E+02</rscale>
<asrwt>0</asrwt>
<pdfrwt beam="1">  1       21 0.55268051E-02 0.60104628E+02</pdfrwt>
<pdfrwt beam="2">  1       21 0.17270175E-01 0.60104628E+02</pdfrwt>
<totfact> 0.63843870E+06</totfact>
</mgrwt>
</event>
<event>
 4    1  0.4556894E+006  0.2107933E+02  0.7546771E-02  0.1724679E+00
         21   -1    0    0  503  501  0.00000000000E+00  0.00000000000E+00  0.48537916242E+03  0.48537916242E+03  0.00000000000E+00 0. -1.
         21   -1    0    0  504  502 -0.00000000000E+00 -0.00000000000E+00 -0.47141177158E+01  0.47141177158E+01  0.00000000000E+00 0.  1.
         21    1    1    2  503  502 -0.19123032982E+02  0.88683563745E+01  0.46030302886E+03  0.46078543435E+03  0.00000000000E+00 0. -1.
         21    1    1    2  504  501  0.19123032982E+02 -0.88683563745E+01  0.20362015849E+02  0.29307845786E+02  0.00000000000E+00 0.  1.
<mgrwt>
<rscale>  2 0.21079330E+02</rscale>
<asrwt>0</asrwt>
<pdfrwt beam="1">  1       21 0.74673678E-01 0.21079330E+02</pdfrwt>
<pdfrwt beam="2">  1       21 0.72524926E-03 0.21079330E+02</pdfrwt>
<totfact> 0.81701451E+06</totfact>
</mgrwt>
</event>
<event>
 4    1  0.4556894E+006  0.2106436E+02  0.7546771E-02  0.1724954E+00
         21   -1    0    0  503  501  0.00000000000E+00  0.00000000000E+00  0.10243310168E+02  0.10243310168E+02  0.00000000000E+00 0.  1.
         21   -1    0    0  504  502 -0.00000000000E+00 -0.00000000000E+00 -0.50654767624E+02  0.50654767624E+02  0.00000000000E+00 0.  1.
         21    1    1    2  503  502  0.19808789204E+00  0.21063431997E+02 -0.31794872600E+02  0.38139498292E+02  0.00000000000E+00 0.  1.
         21    1    1    2  504  501 -0.19808789204E+00 -0.21063431997E+02 -0.86165848557E+01  0.22758579501E+02  0.00000000000E+00 0.  1.
<mgrwt>
<rscale>  2 0.21064363E+02</rscale>
<asrwt>0</asrwt>
<pdfrwt beam="1">  1       21 0.15758939E-02 0.21064363E+02</pdfrwt>
<pdfrwt beam="2">  1       21 0.77930413E-02 0.21064363E+02</pdfrwt>
<totfact> 0.14712083E+08</totfact>
</mgrwt>
</event>
<event>
 4    1  0.4556894E+006  0.2855676E+02  0.7546771E-02  0.1614612E+00
         21   -1    0    0  502  501  0.00000000000E+00  0.00000000000E+00  0.59892022084E+03  0.59892022084E+03  0.00000000000E+00 0. -1.
         21   -1    0    0  503  502 -0.00000000000E+00 -0.00000000000E+00 -0.78210368692E+01  0.78210368692E+01  0.00000000000E+00 0.  1.
         21    1    1    2  503  504  0.21556621198E+02  0.18729668346E+02  0.19848318830E+02  0.34777063622E+02  0.00000000000E+00 0.  1.
         21    1    1    2  504  501 -0.21556621198E+02 -0.18729668346E+02  0.57125086514E+03  0.57196419409E+03  0.00000000000E+00 0. -1.
<mgrwt>
<rscale>  2 0.28556757E+02</rscale>
<asrwt>0</asrwt>
<pdfrwt beam="1">  1       21 0.92141536E-01 0.28556757E+02</pdfrwt>
<pdfrwt beam="2">  1       21 0.12032369E-02 0.28556757E+02</pdfrwt>
<totfact> 0.25498993E+06</totfact>
</mgrwt>
</event>
<event>
 4    1  0.4556894E+006  0.2665347E+02  0.7546771E-02  0.1638329E+00
         21   -1    0    0  504  501  0.00000000000E+00  0.00000000000E+00  0.71218816134E+02  0.71218816134E+02  0.00000000000E+00 0.  1.
         21   -1    0    0  503  502 -0.00000000000E+00 -0.00000000000E+00 -0.23010487661E+02  0.23010487661E+02  0.00000000000E+00 0.  1.
         21    1    1    2  503  501  0.45146585692E+01  0.26268328414E+02  0.59565641779E+02  0.65256975874E+02  0.00000000000E+00 0.  1.
         21    1    1    2  504  502 -0.45146585692E+01 -0.26268328414E+02 -0.11357313306E+02  0.28972327921E+02  0.00000000000E+00 0.  1.
<mgrwt>
<rscale>  2 0.26653465E+02</rscale>
<asrwt>0</asrwt>
<pdfrwt beam="1">  1       21 0.10956741E-01 0.26653465E+02</pdfrwt>
<pdfrwt beam="2">  1       21 0.35400751E-02 0.26653465E+02</pdfrwt>
<totfact> 0.25531719E+07</totfact>
</mgrwt>
</event>
<event>
 4    1  0.4556894E+006  0.2410006E+02  0.7546771E-02  0.1674275E+00
         21   -1    0    0  504  501  0.00000000000E+00  0.00000000000E+00  0.10039928315E+03  0.10039928315E+03  0.00000000000E+00 0. -1.
         21   -1    0    0  503  502 -0.00000000000E+00 -0.00000000000E+00 -0.67575029140E+02  0.67575029140E+02  0.00000000000E+00 0. -1.
         21    1    1    2  503  501  0.14504804269E+02  0.19246395596E+02 -0.63899577243E+02  0.68293257809E+02  0.00000000000E+00 0. -1.
         21    1    1    2  504  502 -0.14504804269E+02 -0.19246395596E+02  0.96723831251E+02  0.99681054480E+02  0.00000000000E+00 0. -1.
<mgrwt>
<rscale>  2 0.24100064E+02</rscale>
<asrwt>0</asrwt>
<pdfrwt beam="1">  1       21 0.15446044E-01 0.24100064E+02</pdfrwt>
<pdfrwt beam="2">  1       21 0.10396158E-01 0.24100064E+02</pdfrwt>
<totfact> 0.24645413E+06</totfact>
</mgrwt>
</event>
<event>
 4    1  0.4556894E+006  0.4462005E+02  0.7546771E-02  0.1476728E+00
         21   -1    0    0  504  501  0.00000000000E+00  0.00000000000E+00  0.49339312649E+01  0.49339312649E+01  0.00000000000E+00 0.  1.
         21   -1    0    0  503  502 -0.00000000000E+00 -0.00000000000E+00 -0.40849547617E+03  0.40849547617E+03  0.00000000000E+00 0.  1.
         21    1    1    2  503  501  0.29820751050E+02 -0.33191445642E+02 -0.17897143479E+03  0.18444978647E+03  0.00000000000E+00 0.  1.
         21    1    1    2  504  502 -0.29820751050E+02  0.33191445642E+02 -0.22459011011E+03  0.22897962096E+03  0.00000000000E+00 0.  1.
<mgrwt>
<rscale>  2 0.44620054E+02</rscale>
<asrwt>0</asrwt>
<pdfrwt beam="1">  1       21 0.75906636E-03 0.44620054E+02</pdfrwt>
<pdfrwt beam="2">  1       21 0.62845457E-01 0.44620054E+02</pdfrwt>
<totfact> 0.12144860E+07</totfact>
</mgrwt>
</event>
<event>
 4    1  0.4556894E+006  0.2055375E+02  0.7546771E-02  0.1734535E+00
         21   -1    0    0  503  501  0.00000000000E+00  0.00000000000E+00  0.62643317505E+02  0.62643317505E+02  0.00000000000E+00 0. -1.
         21   -1    0    0  504  502 -0.00000000000E+00 -0.00000000000E+00 -0.88880262884E+01  0.88880262884E+01  0.00000000000E+00 0. -1.
         21    1    1    2  503  502 -0.13869782251E+02 -0.15168584491E+02  0.44444519650E+02  0.48967051597E+02  0.00000000000E+00 0. -1.
         21    1    1    2  504  501  0.13869782251E+02  0.15168584491E+02  0.93107715658E+01  0.22564292196E+02  0.00000000000E+00 0. -1.
<mgrwt>
<rscale>  2 0.20553754E+02</rscale>
<asrwt>0</asrwt>
<pdfrwt beam="1">  1       21 0.96374331E-02 0.20553754E+02</pdfrwt>
<pdfrwt beam="2">  1       21 0.13673887E-02 0.20553754E+02</pdfrwt>
<totfact> 0.12796741E+08</totfact>
</mgrwt>
</event>
<event>
 4    1  0.4556894E+006  0.2206140E+02  0.7546771E-02  0.1707192E+00
         21   -1    0    0  504  501  0.00000000000E+00  0.00000000000E+00  0.39415060814E+03  0.39415060814E+03  0.00000000000E+00 0. -1.
         21   -1    0    0  501  502 -0.00000000000E+00 -0.00000000000E+00 -0.64020120944E+01  0.64020120944E+01  0.00000000000E+00 0. -1.
         21    1    1    2  503  502  0.17210747257E+02 -0.13802018392E+02  0.13946365897E+02  0.26099935911E+02  0.00000000000E+00 0. -1.
         21    1    1    2  504  503 -0.17210747257E+02  0.13802018392E+02  0.37380223014E+03  0.37445268432E+03  0.00000000000E+00 0. -1.
<mgrwt>
<rscale>  2 0.22061404E+02</rscale>
<asrwt>0</asrwt>
<pdfrwt beam="1">  1       21 0.60638536E-01 0.22061404E+02</pdfrwt>
<pdfrwt beam="2">  1       21 0.98492525E-03 0.22061404E+02</pdfrwt>
<totfact> 0.79622728E+06</totfact>
</mgrwt>
</event>
<event>
 4    1  0.4556894E+006  0.2739383E+02  0.7546771E-02  0.1628822E+00
         21   -1    0    0  503  501  0.00000000000E+00  0.00000000000E+00  0.72576511104E+03  0.72576511104E+03  0.00000000000E+00 0. -1.
         21   -1    0    0  504  502 -0.00000000000E+00 -0.00000000000E+00 -0.26608125205E+01  0.26608125205E+01  0.00000000000E+00 0. -1.
         21    1    1    2  503  502 -0.27317964948E+02 -0.20373276315E+01  0.76764896340E+02  0.81506264930E+02  0.00000000000E+00 0. -1.
         21    1    1    2  504  501  0.27317964948E+02  0.20373276315E+01  0.64633940218E+03  0.64691965863E+03  0.00000000000E+00 0. -1.
<mgrwt>
<rscale>  2 0.27393830E+02</rscale>
<asrwt>0</asrwt>
<pdfrwt beam="1">  1       21 0.11165601E+00 0.27393830E+02</pdfrwt>
<pdfrwt beam="2">  1       21 0.40935635E-03 0.27393830E+02</pdfrwt>
<totfact> 0.83376609E+06</totfact>
</mgrwt>
</event>
<event>
 4    1  0.4556894E+006  0.3025868E+02  0.7546771E-02  0.1595247E+00
         21   -1    0    0  503  501  0.00000000000E+00  0.00000000000E+00  0.12971319117E+01  0.12971319117E+01  0.00000000000E+00 0. -1.
         21   -1    0    0  501  502 -0.00000000000E+00 -0.00000000000E+00 -0.88895484528E+03  0.88895484528E+03  0.00000000000E+00 0. -1.
         21    1    1    2  503  504  0.29678314411E+02  0.58979283208E+01 -0.24181260738E+03  0.24369843043E+03  0.00000000000E+00 0. -1.
         21    1    1    2  504  502 -0.29678314411E+02 -0.58979283208E+01 -0.64584510598E+03  0.64655354676E+03  0.00000000000E+00 0. -1.
<mgrwt>
<rscale>  2 0.30258683E+02</rscale>
<asrwt>0</asrwt>
<pdfrwt beam="1">  1       21 0.19955892E-03 0.30258683E+02</pdfrwt>
<pdfrwt beam="2">  1       21 0.13676217E+00 0.30258683E+02</pdfrwt>
<totfact> 0.15188939E+07</totfact>
</mgrwt>
</event>
<event>
 4    1  0.4556894E+006  0.2409962E+02  0.7546771E-02  0.1674282E+00
         21   -1    0    0  504  501  0.00000000000E+00  0.00000000000E+00  0.11549393946E+01  0.11549393946E+01  0.00000000000E+00 0. -1.
         21   -1    0    0  503  502 -0.00000000000E+00 -0.00000000000E+00 -0.77646744450E+03  0.77646744450E+03  0.00000000000E+00 0. -1.
         21    1    1    2  503  501 -0.63515741129E+01 -0.23247562789E+02 -0.15686032764E+03  0.15870083194E+03  0.00000000000E+00 0. -1.
         21    1    1    2  504  502  0.63515741129E+01  0.23247562789E+02 -0.61845217746E+03  0.61892155195E+03  0.00000000000E+00 0. -1.
<mgrwt>
<rscale>  2 0.24099620E+02</rscale>
<asrwt>0</asrwt>
<pdfrwt beam="1">  1       21 0.17768270E-03 0.24099620E+02</pdfrwt>
<pdfrwt beam="2">  1       21 0.11945672E+00 0.24099620E+02</pdfrwt>
<totfact> 0.23707535E+07</totfact>
</mgrwt>
</event>
<event>
 4    1  0.4556894E+006  0.2830425E+02  0.7546771E-02  0.1617627E+00
         21   -1    0    0  503  501  0.00000000000E+00  0.00000000000E+00  0.13161489404E+02  0.13161489404E+02  0.00000000000E+00 0.  1.
         21   -1    0    0  504  502 -0.00000000000E+00 -0.00000000000E+00 -0.62930489131E+02  0.62930489131E+02  0.00000000000E+00 0.  1.
         21    1    1    2  503  502  0.26882221458E+02 -0.88587047203E+01 -0.31770049082E+02  0.42549576949E+02  0.00000000000E+00 0.  1.
         21    1    1    2  504  501 -0.26882221458E+02  0.88587047203E+01 -0.17998950645E+02  0.33542401586E+02  0.00000000000E+00 0.  1.
<mgrwt>
<rscale>  2 0.28304248E+02</rscale>
<asrwt>0</asrwt>
<pdfrwt beam="1">  1       21 0.20248445E-02 0.28304248E+02</pdfrwt>
<pdfrwt beam="2">  1       21 0.96816136E-02 0.28304248E+02</pdfrwt>
<totfact> 0.76117920E+07</totfact>
</mgrwt>
</event>
<event>
 4    1  0.4556894E+006  0.2131001E+02  0.7546771E-02  0.1720466E+00
         21   -1    0    0  502  501  0.00000000000E+00  0.00000000000E+00  0.54849125036E+03  0.54849125036E+03  0.00000000000E+00 0.  1.
         21   -1    0    0  503  502 -0.00000000000E+00 -0.00000000000E+00 -0.80120442625E+02  0.80120442625E+02  0.00000000000E+00 0. -1.
         21    1    1    2  503  504  0.15591976871E+02  0.14526065326E+02 -0.78492260952E+02  0.81333580678E+02  0.00000000000E+00 0. -1.
         21    1    1    2  504  501 -0.15591976871E+02 -0.14526065326E+02  0.54686306869E+03  0.54727811231E+03  0.00000000000E+00 0.  1.
<mgrwt>
<rscale>  2 0.21310005E+02</rscale>
<asrwt>0</asrwt>
<pdfrwt beam="1">  1       21 0.84383267E-01 0.21310005E+02</pdfrwt>
<pdfrwt beam="2">  1       21 0.12326222E-01 0.21310005E+02</pdfrwt>
<totfact> 0.76177848E+04</totfact>
</mgrwt>
</event>
<event>
 4    1  0.4556894E+006  0.3096466E+02  0.7546771E-02  0.1587664E+00
         21   -1    0    0  503  501  0.00000000000E+00  0.00000000000E+00  0.57960588566E+01  0.57960588566E+01  0.00000000000E+00 0.  1.
         21   -1    0    0  504  502 -0.00000000000E+00 -0.00000000000E+00 -0.34294659007E+03  0.34294659007E+03  0.00000000000E+00 0.  1.
         21    1    1    2  503  502  0.19464041381E+02  0.24082385639E+02 -0.43120255726E+02  0.53086407477E+02  0.00000000000E+00 0.  1.
         21    1    1    2  504  501 -0.19464041381E+02 -0.24082385639E+02 -0.29403027548E+03  0.29565624145E+03  0.00000000000E+00 0.  1.
<mgrwt>
<rscale>  2 0.30964661E+02</rscale>
<asrwt>0</asrwt>
<pdfrwt beam="1">  1       21 0.89170116E-03 0.30964661E+02</pdfrwt>
<pdfrwt beam="2">  1       21 0.52761026E-01 0.30964661E+02</pdfrwt>
<totfact> 0.12896325E+07</totfact>
</mgrwt>
</event>
<event>
 4    1  0.4556894E+006  0.2078503E+02  0.7546771E-02  0.1730153E+00
         21   -1    0    0  504  501  0.00000000000E+00  0.00000000000E+00  0.25061522012E+02  0.25061522012E+02  0.00000000000E+00 0.  1.
         21   -1    0    0  503  502 -0.00000000000E+00 -0.00000000000E+00 -0.17495971331E+02  0.17495971331E+02  0.00000000000E+00 0.  1.
         21    1    1    2  503  501 -0.12310018266E+00 -0.20784666624E+02  0.63651982644E+01  0.21737830372E+02  0.00000000000E+00 0.  1.
         21    1    1    2  504  502  0.12310018266E+00  0.20784666624E+02  0.12003524168E+01  0.20819662972E+02  0.00000000000E+00 0.  1.
<mgrwt>
<rscale>  2 0.20785031E+02</rscale>
<asrwt>0</asrwt>
<pdfrwt beam="1">  1       21 0.38556188E-02 0.20785031E+02</pdfrwt>
<pdfrwt beam="2">  1       21 0.26916879E-02 0.20785031E+02</pdfrwt>
<totfact> 0.19816272E+08</totfact>
</mgrwt>
</event>
<event>
 4    1  0.4556894E+006  0.2025201E+02  0.7546771E-02  0.1740362E+00
         21   -1    0    0  504  501  0.00000000000E+00  0.00000000000E+00  0.12997779027E+03  0.12997779027E+03  0.00000000000E+00 0. -1.
         21   -1    0    0  503  502 -0.00000000000E+00 -0.00000000000E+00 -0.79135452327E+01  0.79135452327E+01  0.00000000000E+00 0.  1.
         21    1    1    2  503  501  0.16043398312E+02 -0.12359342904E+02  0.75712493623E+01  0.21621003754E+02  0.00000000000E+00 0.  1.
         21    1    1    2  504  502 -0.16043398312E+02  0.12359342904E+02  0.11449299568E+03  0.11627033175E+03  0.00000000000E+00 0. -1.
<mgrwt>
<rscale>  2 0.20252012E+02</rscale>
<asrwt>0</asrwt>
<pdfrwt beam="1">  1       21 0.19996582E-01 0.20252012E+02</pdfrwt>
<pdfrwt beam="2">  1       21 0.12174686E-02 0.20252012E+02</pdfrwt>
<totfact> 0.44364647E+07</totfact>
</mgrwt>
</event>
<event>
 4    1  0.4556894E+006  0.3303804E+02  0.7546771E-02  0.1566747E+00
         21   -1    0    0  503  501  0.00000000000E+00  0.00000000000E+00  0.16283978311E+02  0.16283978311E+02  0.00000000000E+00 0.  1.
         21   -1    0    0  504  502 -0.00000000000E+00 -0.00000000000E+00 -0.21355382744E+03  0.21355382744E+03  0.00000000000E+00 0.  1.
         21    1    1    2  503  502  0.17750462379E+02 -0.27864546561E+02 -0.19382511806E+03  0.19662067099E+03  0.00000000000E+00 0.  1.
         21    1    1    2  504  501 -0.17750462379E+02  0.27864546561E+02 -0.34447310713E+01  0.33217134763E+02  0.00000000000E+00 0.  1.
<mgrwt>
<rscale>  2 0.33038037E+02</rscale>
<asrwt>0</asrwt>
<pdfrwt beam="1">  1       21 0.25052276E-02 0.33038037E+02</pdfrwt>
<pdfrwt beam="2">  1       21 0.32854433E-01 0.33038037E+02</pdfrwt>
<totfact> 0.66046851E+06</totfact>
</mgrwt>
</event>
<event>
 4    1  0.4556894E+006  0.2857248E+02  0.7546771E-02  0.1614426E+00
         21   -1    0    0  504  501  0.00000000000E+00  0.00000000000E+00  0.66242747210E+01  0.66242747210E+01  0.00000000000E+00 0.  1.
         21   -1    0    0  501  502 -0.00000000000E+00 -0.00000000000E+00 -0.49173144719E+03  0.49173144719E+03  0.00000000000E+00 0.  1.
         21    1    1    2  503  502  0.15070558420E+02 -0.24274777611E+02 -0.45825758411E+03  0.45914747081E+03  0.00000000000E+00 0.  1.
         21    1    1    2  504  503 -0.15070558420E+02  0.24274777611E+02 -0.26849588358E+02  0.39208251097E+02  0.00000000000E+00 0.  1.
<mgrwt>
<rscale>  2 0.28572479E+02</rscale>
<asrwt>0</asrwt>
<pdfrwt beam="1">  1       21 0.10191189E-02 0.28572479E+02</pdfrwt>
<pdfrwt beam="2">  1       21 0.75651014E-01 0.28572479E+02</pdfrwt>
<totfact> 0.49975296E+06</totfact>
</mgrwt>
</event>
<event>
 4    1  0.4556894E+006  0.2048022E+02  0.7546771E-02  0.1735944E+00
         21   -1    0    0  504  501  0.00000000000E+00  0.00000000000E+00  0.68185988795E+01  0.68185988795E+01  0.00000000000E+00 0. -1.
         21   -1    0    0  503  502 -0.00000000000E+00 -0.00000000000E+00 -0.70263284998E+02  0.70263284998E+02  0.00000000000E+00 0. -1.
         21    1    1    2  503  501 -0.11610789250E+02 -0.16870947019E+02 -0.45322515711E+02  0.49734994830E+02  0.00000000000E+00 0. -1.
         21    1    1    2  504  502  0.11610789250E+02  0.16870947019E+02 -0.18122170407E+02  0.27346889047E+02  0.00000000000E+00 0. -1.
<mgrwt>
<rscale>  2 0.20480217E+02</rscale>
<asrwt>0</asrwt>
<pdfrwt beam="1">  1       21 0.10490151E-02 0.20480217E+02</pdfrwt>
<pdfrwt beam="2">  1       21 0.10809737E-01 0.20480217E+02</pdfrwt>
<totfact> 0.15758201E+08</totfact>
</mgrwt>
</event>
<event>
 4    1  0.4556894E+006  0.4363814E+02  0.7546771E-02  0.1483027E+00
         21   -1    0    0  502  501  0.00000000000E+00  0.00000000000E+00  0.62937785397E+02  0.62937785397E+02  0.00000000000E+00 0. -1.
         21   -1    0    0  504  502 -0.00000000000E+00 -0.00000000000E+00 -0.43833043518E+02  0.43833043518E+02  0.00000000000E+00 0. -1.
         21    1    1    2  503  501 -0.35185736009E+02  0.25811846256E+02  0.39263132934E+02  0.58701627179E+02  0.00000000000E+00 0. -1.
         21    1    1    2  504  503  0.35185736009E+02 -0.25811846256E+02 -0.20158391055E+02  0.48069201737E+02  0.00000000000E+00 0. -1.
<mgrwt>
<rscale>  2 0.43638142E+02</rscale>
<asrwt>0</asrwt>
<pdfrwt beam="1">  1       21 0.96827363E-02 0.43638142E+02</pdfrwt>
<pdfrwt beam="2">  1       21 0.67435451E-02 0.43638142E+02</pdfrwt>
<totfact> 0.12092228E+07</totfact>
</mgrwt>
</event>
<event>
 4    1  0.4556894E+006  0.2181234E+02  0.7546771E-02  0.1711518E+00
         21   -1    0    0  503  501  0.00000000000E+00  0.00000000000E+00  0.39517234507E+02  0.39517234507E+02  0.00000000000E+00 0. -1.
         21   -1    0    0  504  502 -0.00000000000E+00 -0.00000000000E+00 -0.22593884331E+02  0.22593884331E+02  0.00000000000E+00 0. -1.
         21    1    1    2  503  502 -0.21057366999E+02 -0.56890481618E+01 -0.12763683345E+02  0.25272308689E+02  0.00000000000E+00 0. -1.
         21    1    1    2  504  501  0.21057366999E+02  0.56890481618E+01  0.29687033521E+02  0.36838810149E+02  0.00000000000E+00 0. -1.
<mgrwt>
<rscale>  2 0.21812335E+02</rscale>
<asrwt>0</asrwt>
<pdfrwt beam="1">  1       21 0.60795745E-02 0.21812335E+02</pdfrwt>
<pdfrwt beam="2">  1       21 0.34759822E-02 0.21812335E+02</pdfrwt>
<totfact> 0.65654624E+07</totfact>
</mgrwt>
</event>
<event>
 4    1  0.4556894E+006  0.2973814E+02  0.7546771E-02  0.1601001E+00
         21   -1    0    0  503  501  0.00000000000E+00  0.00000000000E+00  0.93750220079E+02  0.93750220079E+02  0.00000000000E+00 0.  1.
         21   -1    0    0  504  502 -0.00000000000E+00 -0.00000000000E+00 -0.26608354720E+03  0.26608354720E+03  0.00000000000E+00 0.  1.
         21    1    1    2  503  502  0.29460552712E+02 -0.40537676807E+01  0.90532260029E+02  0.95291381060E+02  0.00000000000E+00 0.  1.
         21    1    1    2  504  501 -0.29460552712E+02  0.40537676807E+01 -0.26286558715E+03  0.26454238622E+03  0.00000000000E+00 0.  1.
<mgrwt>
<rscale>  2 0.29738144E+02</rscale>
<asrwt>0</asrwt>
<pdfrwt beam="1">  1       21 0.14423111E-01 0.29738144E+02</pdfrwt>
<pdfrwt beam="2">  1       21 0.40935930E-01 0.29738144E+02</pdfrwt>
<totfact> 0.24912587E+05</totfact>
</mgrwt>
</event>
<event>
 4    1  0.4556894E+006  0.2615813E+02  0.7546771E-02  0.1644904E+00
         21   -1    0    0  504  501  0.00000000000E+00  0.00000000000E+00  0.24921629411E+04  0.24921629411E+04  0.00000000000E+00 0. -1.
         21   -1    0    0  503  502 -0.00000000000E+00 -0.00000000000E+00 -0.28351747161E+00  0.28351747161E+00  0.00000000000E+00 0. -1.
         21    1    1    2  503  501  0.12867636633E+01 -0.26126462913E+02  0.10244248592E+04  0.10247587716E+04  0.00000000000E+00 0. -1.
         21    1    1    2  504  502 -0.12867636633E+01  0.26126462913E+02  0.14674545644E+04  0.14676876870E+04  0.00000000000E+00 0. -1.
<mgrwt>
<rscale>  2 0.26158131E+02</rscale>
<asrwt>0</asrwt>
<pdfrwt beam="1">  1       21 0.38339214E+00 0.26158131E+02</pdfrwt>
<pdfrwt beam="2">  1       21 0.43620068E-04 0.26158131E+02</pdfrwt>
<totfact> 0.59826175E+06</totfact>
</mgrwt>
</event>
<event>
 4    1  0.4556894E+006  0.3034009E+02  0.7546771E-02  0.1594360E+00
         21   -1    0    0  504  501  0.00000000000E+00  0.00000000000E+00  0.89219515952E+01  0.89219515952E+01  0.00000000000E+00 0. -1.
         21   -1    0    0  503  502 -0.00000000000E+00 -0.00000000000E+00 -0.19990154286E+03  0.19990154286E+03  0.00000000000E+00 0. -1.
         21    1    1    2  503  501  0.23199369717E+02 -0.19552759753E+02 -0.16811952430E+03  0.17083528799E+03  0.00000000000E+00 0. -1.
         21    1    1    2  504  502 -0.23199369717E+02  0.19552759753E+02 -0.22860066961E+02  0.37988206468E+02  0.00000000000E+00 0. -1.
<mgrwt>
<rscale>  2 0.30340092E+02</rscale>
<asrwt>0</asrwt>
<pdfrwt beam="1">  1       21 0.13726080E-02 0.30340092E+02</pdfrwt>
<pdfrwt beam="2">  1       21 0.30754083E-01 0.30340092E+02</pdfrwt>
<totfact> 0.18703914E+07</totfact>
</mgrwt>
</event>
<event>
 4    1  0.4556894E+006  0.2197035E+02  0.7546771E-02  0.1708765E+00
         21   -1    0    0  504  501  0.00000000000E+00  0.00000000000E+00  0.50681468387E+01  0.50681468387E+01  0.00000000000E+00 0.  1.
         21   -1    0    0  501  502 -0.00000000000E+00 -0.00000000000E+00 -0.89491558104E+03  0.89491558104E+03  0.00000000000E+00 0.  1.
         21    1    1    2  503  502  0.15197301939E+02 -0.15866259408E+02 -0.87029702027E+03  0.87057429302E+03  0.00000000000E+00 0.  1.
         21    1    1    2  504  503 -0.15197301939E+02  0.15866259408E+02 -0.19550413929E+02  0.29409434857E+02  0.00000000000E+00 0.  1.
<mgrwt>
<rscale>  2 0.21970348E+02</rscale>
<asrwt>0</asrwt>
<pdfrwt beam="1">  1       21 0.77971455E-03 0.21970348E+02</pdfrwt>
<pdfrwt beam="2">  1       21 0.13767938E+00 0.21970348E+02</pdfrwt>
<totfact> 0.19353839E+06</totfact>
</mgrwt>
</event>
<event>
 4    1  0.4556894E+006  0.2264107E+02  0.7546771E-02  0.1697395E+00
         21   -1    0    0  504  501  0.00000000000E+00  0.00000000000E+00  0.12818591611E+02  0.12818591611E+02  0.00000000000E+00 0.  1.
         21   -1    0    0  503  502 -0.00000000000E+00 -0.00000000000E+00 -0.23761768447E+03  0.23761768447E+03  0.00000000000E+00 0.  1.
         21    1    1    2  503  501  0.16846688422E+02  0.15126367455E+02 -0.22659571820E+03  0.22772403784E+03  0.00000000000E+00 0.  1.
         21    1    1    2  504  502 -0.16846688422E+02 -0.15126367455E+02  0.17966253443E+01  0.22712238238E+02  0.00000000000E+00 0.  1.
<mgrwt>
<rscale>  2 0.22641067E+02</rscale>
<asrwt>0</asrwt>
<pdfrwt beam="1">  1       21 0.19720912E-02 0.22641067E+02</pdfrwt>
<pdfrwt beam="2">  1       21 0.36556563E-01 0.22641067E+02</pdfrwt>
<totfact> 0.74037172E+06</totfact>
</mgrwt>
</event>
<event>
 4    1  0.4556894E+006  0.2597383E+02  0.7546771E-02  0.1647396E+00
         21   -1    0    0  503  501  0.00000000000E+00  0.00000000000E+00  0.25661257862E+01  0.25661257862E+01  0.00000000000E+00 0. -1.
         21   -1    0    0  504  502 -0.00000000000E+00 -0.00000000000E+00 -0.36108206933E+03  0.36108206933E+03  0.00000000000E+00 0. -1.
         21    1    1    2  503  502 -0.19923977350E+02  0.16663588502E+02 -0.27406919625E+03  0.27529722917E+03  0.00000000000E+00 0. -1.
         21    1    1    2  504  501  0.19923977350E+02 -0.16663588502E+02 -0.84446747289E+02  0.88350965942E+02  0.00000000000E+00 0. -1.
<mgrwt>
<rscale>  2 0.25973834E+02</rscale>
<asrwt>0</asrwt>
<pdfrwt beam="1">  1       21 0.39478875E-03 0.25973834E+02</pdfrwt>
<pdfrwt beam="2">  1       21 0.55551064E-01 0.25973834E+02</pdfrwt>
<totfact> 0.38027307E+07</totfact>
</mgrwt>
</event>
<event>
 4    1  0.4556894E+006  0.2214432E+02  0.7546771E-02  0.1705768E+00
         21   -1    0    0  504  501  0.00000000000E+00  0.00000000000E+00  0.54234436156E+01  0.54234436156E+01  0.00000000000E+00 0. -1.
         21   -1    0    0  501  502 -0.00000000000E+00 -0.00000000000E+00 -0.93774966393E+02  0.93774966393E+02  0.00000000000E+00 0. -1.
         21    1    1    2  503  502  0.20910518126E+02 -0.72884367161E+01 -0.53561630139E+02  0.57958772427E+02  0.00000000000E+00 0. -1.
         21    1    1    2  504  503 -0.20910518126E+02  0.72884367161E+01 -0.34789892638E+02  0.41239637582E+02  0.00000000000E+00 0. -1.
<mgrwt>
<rscale>  2 0.22144324E+02</rscale>
<asrwt>0</asrwt>
<pdfrwt beam="1">  1       21 0.83437597E-03 0.22144324E+02</pdfrwt>
<pdfrwt beam="2">  1       21 0.14426917E-01 0.22144324E+02</pdfrwt>
<totfact> 0.14013324E+08</totfact>
</mgrwt>
</event>
<event>
 4    1  0.4556894E+006  0.2763423E+02  0.7546771E-02  0.1625815E+00
         21   -1    0    0  502  501  0.00000000000E+00  0.00000000000E+00  0.18523281361E+02  0.18523281361E+02  0.00000000000E+00 0. -1.
         21   -1    0    0  504  502 -0.00000000000E+00 -0.00000000000E+00 -0.76436856140E+02  0.76436856140E+02  0.00000000000E+00 0. -1.
         21    1    1    2  503  501  0.25370409454E+02 -0.10954137110E+02  0.32683586895E+01  0.27826838919E+02  0.00000000000E+00 0. -1.
         21    1    1    2  504  503 -0.25370409454E+02  0.10954137110E+02 -0.61181933468E+02  0.67133298583E+02  0.00000000000E+00 0. -1.
<mgrwt>
<rscale>  2 0.27634232E+02</rscale>
<asrwt>0</asrwt>
<pdfrwt beam="1">  1       21 0.28497356E-02 0.27634232E+02</pdfrwt>
<pdfrwt beam="2">  1       21 0.11759516E-01 0.27634232E+02</pdfrwt>
<totfact> 0.32123702E+07</totfact>
</mgrwt>
</event>
<event>
 4    1  0.4556894E+006  0.2325917E+02  0.7546771E-02  0.1687343E+00
         21   -1    0    0  502  501  0.00000000000E+00  0.00000000000E+00  0.26297233941E+03  0.26297233941E+03  0.00000000000E+00 0. -1.
         21   -1    0    0  504  502 -0.00000000000E+00 -0.00000000000E+00 -0.21088366816E+01  0.21088366816E+01  0.00000000000E+00 0. -1.
         21    1    1    2  503  501 -0.20627459038E+02 -0.10746956467E+02  0.15116978195E+03  0.15294865843E+03  0.00000000000E+00 0. -1.
         21    1    1    2  504  503  0.20627459038E+02  0.10746956467E+02  0.10969372077E+03  0.11213251766E+03  0.00000000000E+00 0. -1.
<mgrwt>
<rscale>  2 0.23259173E+02</rscale>
<asrwt>0</asrwt>
<pdfrwt beam="1">  1       21 0.40457257E-01 0.23259173E+02</pdfrwt>
<pdfrwt beam="2">  1       21 0.32443662E-03 0.23259173E+02</pdfrwt>
<totfact> 0.91285815E+07</totfact>
</mgrwt>
</event>
<event>
 4    1  0.4556894E+006  0.2674455E+02  0.7546771E-02  0.1637139E+00
         21   -1    0    0  503  501  0.00000000000E+00  0.00000000000E+00  0.10638578863E+03  0.10638578863E+03  0.00000000000E+00 0. -1.
         21   -1    0    0  504  502 -0.00000000000E+00 -0.00000000000E+00 -0.74999460930E+01  0.74999460930E+01  0.00000000000E+00 0. -1.
         21    1    1    2  503  502  0.22090993155E+02 -0.15075113857E+02  0.31119683136E+02  0.41032983256E+02  0.00000000000E+00 0. -1.
         21    1    1    2  504  501 -0.22090993155E+02  0.15075113857E+02  0.67766159404E+02  0.72852751470E+02  0.00000000000E+00 0. -1.
<mgrwt>
<rscale>  2 0.26744552E+02</rscale>
<asrwt>0</asrwt>
<pdfrwt beam="1">  1       21 0.16367043E-01 0.26744552E+02</pdfrwt>
<pdfrwt beam="2">  1       21 0.11538379E-02 0.26744552E+02</pdfrwt>
<totfact> 0.72978539E+07</totfact>
</mgrwt>
</event>
<event>
 4    1  0.4556894E+006  0.2350446E+02  0.7546771E-02  0.1683461E+00
         21   -1    0    0  504  501  0.00000000000E+00  0.00000000000E+00  0.73127408582E+01  0.73127408582E+01  0.00000000000E+00 0. -1.
         21   -1    0    0  503  502 -0.00000000000E+00 -0.00000000000E+00 -0.25581347383E+03  0.25581347383E+03  0.00000000000E+00 0. -1.
         21    1    1    2  503  501  0.22493696471E+02 -0.68185890461E+01 -0.23469109264E+03  0.23586514898E+03  0.00000000000E+00 0. -1.
         21    1    1    2  504  502 -0.22493696471E+02  0.68185890461E+01 -0.13809640328E+02  0.27261065707E+02  0.00000000000E+00 0. -1.
<mgrwt>
<rscale>  2 0.23504458E+02</rscale>
<asrwt>0</asrwt>
<pdfrwt beam="1">  1       21 0.11250371E-02 0.23504458E+02</pdfrwt>
<pdfrwt beam="2">  1       21 0.39355918E-01 0.23504458E+02</pdfrwt>
<totfact> 0.15242646E+07</totfact>
</mgrwt>
</event>
<event>
 4    1  0.4556894E+006  0.2231788E+02  0.7546771E-02  0.1702812E+00
         21   -1    0    0  502  501  0.00000000000E+00  0.00000000000E+00  0.16714556016E+03  0.16714556016E+03  0.00000000000E+00 0.  1.
         21   -1    0    0  503  502 -0.00000000000E+00 -0.00000000000E+00 -0.67074434279E+02  0.67074434279E+02  0.00000000000E+00 0.  1.
         21    1    1    2  503  504 -0.13879143045E+02  0.17477329895E+02 -0.64443415249E+02  0.68198544273E+02  0.00000000000E+00 0.  1.
         21    1    1    2  504  501  0.13879143045E+02 -0.17477329895E+02  0.16451454113E+03  0.16602145017E+03  0.00000000000E+00 0.  1.
<mgrwt>
<rscale>  2 0.22317878E+02</rscale>
<asrwt>0</asrwt>
<pdfrwt beam="1">  1       21 0.25714701E-01 0.22317878E+02</pdfrwt>
<pdfrwt beam="2">  1       21 0.10319144E-01 0.22317878E+02</pdfrwt>
<totfact> 0.10155507E+06</totfact>
</mgrwt>
</event>
<event>
 4    1  0.4556894E+006  0.2136898E+02  0.7546771E-02  0.1719399E+00
         21   -1    0    0  503  501  0.00000000000E+00  0.00000000000E+00  0.83563501433E+02  0.83563501433E+02  0.00000000000E+00 0.  1.
         21   -1    0    0  504  502 -0.00000000000E+00 -0.00000000000E+00 -0.20018814005E+02  0.20018814005E+02  0.00000000000E+00 0.  1.
         21    1    1    2  503  502  0.21330341631E+02 -0.12845150226E+01  0.75932661730E+02  0.78882206931E+02  0.00000000000E+00 0.  1.
         21    1    1    2  504  501 -0.21330341631E+02  0.12845150226E+01 -0.12387974302E+02  0.24700108506E+02  0.00000000000E+00 0.  1.
<mgrwt>
<rscale>  2 0.21368983E+02</rscale>
<asrwt>0</asrwt>
<pdfrwt beam="1">  1       21 0.12855923E-01 0.21368983E+02</pdfrwt>
<pdfrwt beam="2">  1       21 0.30798176E-02 0.21368983E+02</pdfrwt>
<totfact> 0.23126609E+07</totfact>
</mgrwt>
</event>
<event>
 4    1  0.4556894E+006  0.2090027E+02  0.7546771E-02  0.1727996E+00
         21   -1    0    0  504  501  0.00000000000E+00  0.00000000000E+00  0.51075559013E+03  0.51075559013E+03  0.00000000000E+00 0. -1.
         21   -1    0    0  503  502 -0.00000000000E+00 -0.00000000000E+00 -0.10438001863E+01  0.10438001863E+01  0.00000000000E+00 0. -1.
         21    1    1    2  503  501 -0.11998996408E+02 -0.17112727407E+02  0.14609321566E+03  0.14758065258E+03  0.00000000000E+00 0. -1.
         21    1    1    2  504  502  0.11998996408E+02  0.17112727407E+02  0.36361857429E+03  0.36421873774E+03  0.00000000000E+00 0. -1.
<mgrwt>
<rscale>  2 0.20900272E+02</rscale>
<asrwt>0</asrwt>
<pdfrwt beam="1">  1       21 0.78577583E-01 0.20900272E+02</pdfrwt>
<pdfrwt beam="2">  1       21 0.16058505E-03 0.20900272E+02</pdfrwt>
<totfact> 0.66043270E+07</totfact>
</mgrwt>
</event>
<event>
 4    1  0.4556894E+006  0.3110833E+02  0.7546771E-02  0.1586151E+00
         21   -1    0    0  504  501  0.00000000000E+00  0.00000000000E+00  0.67295083354E+01  0.67295083354E+01  0.00000000000E+00 0.  1.
         21   -1    0    0  503  502 -0.00000000000E+00 -0.00000000000E+00 -0.18607276715E+03  0.18607276715E+03  0.00000000000E+00 0.  1.
         21    1    1    2  503  501  0.31060987158E+02 -0.17156111098E+01 -0.43725170355E+02  0.53662079416E+02  0.00000000000E+00 0.  1.
         21    1    1    2  504  502 -0.31060987158E+02  0.17156111098E+01 -0.13561808846E+03  0.13914019607E+03  0.00000000000E+00 0.  1.
<mgrwt>
<rscale>  2 0.31108331E+02</rscale>
<asrwt>0</asrwt>
<pdfrwt beam="1">  1       21 0.10353090E-02 0.31108331E+02</pdfrwt>
<pdfrwt beam="2">  1       21 0.28626579E-01 0.31108331E+02</pdfrwt>
<totfact> 0.32951367E+07</totfact>
</mgrwt>
</event>
<event>
 4    1  0.4556894E+006  0.3470875E+02  0.7546771E-02  0.1551202E+00
         21   -1    0    0  504  501  0.00000000000E+00  0.00000000000E+00  0.13486270392E+03  0.13486270392E+03  0.00000000000E+00 0.  1.
         21   -1    0    0  503  502 -0.00000000000E+00 -0.00000000000E+00 -0.90797029668E+01  0.90797029668E+01  0.00000000000E+00 0.  1.
         21    1    1    2  503  501  0.17783617590E+02  0.29806720539E+02  0.53736019518E+02  0.63970754549E+02  0.00000000000E+00 0.  1.
         21    1    1    2  504  502 -0.17783617590E+02 -0.29806720539E+02  0.72046981436E+02  0.79971652340E+02  0.00000000000E+00 0.  1.
<mgrwt>
<rscale>  2 0.34708755E+02</rscale>
<asrwt>0</asrwt>
<pdfrwt beam="1">  1       21 0.20748107E-01 0.34708755E+02</pdfrwt>
<pdfrwt beam="2">  1       21 0.13968775E-02 0.34708755E+02</pdfrwt>
<totfact> 0.38066470E+07</totfact>
</mgrwt>
</event>
<event>
 4    1  0.4556894E+006  0.2881377E+02  0.7546771E-02  0.1611584E+00
         21   -1    0    0  504  501  0.00000000000E+00  0.00000000000E+00  0.60719809329E+01  0.60719809329E+01  0.00000000000E+00 0.  1.
         21   -1    0    0  503  502 -0.00000000000E+00 -0.00000000000E+00 -0.14004939410E+03  0.14004939410E+03  0.00000000000E+00 0.  1.
         21    1    1    2  503  501 -0.35363708014E+00 -0.28811595976E+02 -0.55743894999E+02  0.62750417939E+02  0.00000000000E+00 0.  1.
         21    1    1    2  504  502  0.35363708014E+00  0.28811595976E+02 -0.78233518172E+02  0.83370957098E+02  0.00000000000E+00 0.  1.
<mgrwt>
<rscale>  2 0.28813766E+02</rscale>
<asrwt>0</asrwt>
<pdfrwt beam="1">  1       21 0.93415088E-03 0.28813766E+02</pdfrwt>
<pdfrwt beam="2">  1       21 0.21546061E-01 0.28813766E+02</pdfrwt>
<totfact> 0.63229158E+07</totfact>
</mgrwt>
</event>
<event>
 4    1  0.4556894E+006  0.2987650E+02  0.7546771E-02  0.1599458E+00
         21   -1    0    0  503  501  0.00000000000E+00  0.00000000000E+00  0.24144959835E+02  0.24144959835E+02  0.00000000000E+00 0. -1.
         21   -1    0    0  504  502 -0.00000000000E+00 -0.00000000000E+00 -0.85309336257E+02  0.85309336257E+02  0.00000000000E+00 0. -1.
         21    1    1    2  503  502  0.28532651533E+02 -0.88596329333E+01  0.10614393056E+02  0.31706003203E+02  0.00000000000E+00 0. -1.
         21    1    1    2  504  501 -0.28532651533E+02  0.88596329333E+01 -0.71778769478E+02  0.77748292888E+02  0.00000000000E+00 0. -1.
<mgrwt>
<rscale>  2 0.29876501E+02</rscale>
<asrwt>0</asrwt>
<pdfrwt beam="1">  1       21 0.37146094E-02 0.29876501E+02</pdfrwt>
<pdfrwt beam="2">  1       21 0.13124513E-01 0.29876501E+02</pdfrwt>
<totfact> 0.17846305E+07</totfact>
</mgrwt>
</event>
<event>
 4    1  0.4556894E+006  0.2283466E+02  0.7546771E-02  0.1694204E+00
         21   -1    0    0  504  501  0.00000000000E+00  0.00000000000E+00  0.14019432599E+03  0.14019432599E+03  0.00000000000E+00 0.  1.
         21   -1    0    0  503  502 -0.00000000000E+00 -0.00000000000E+00 -0.46223991455E+01  0.46223991455E+01  0.00000000000E+00 0.  1.
         21    1    1    2  503  501  0.20670266937E+02  0.97037032722E+01  0.99791698340E+02  0.10237091799E+03  0.00000000000E+00 0.  1.
         21    1    1    2  504  502 -0.20670266937E+02 -0.97037032722E+01  0.35780228504E+02  0.42445807146E+02  0.00000000000E+00 0.  1.
<mgrwt>
<rscale>  2 0.22834662E+02</rscale>
<asrwt>0</asrwt>
<pdfrwt beam="1">  1       21 0.21568355E-01 0.22834662E+02</pdfrwt>
<pdfrwt beam="2">  1       21 0.71113844E-03 0.22834662E+02</pdfrwt>
<totfact> 0.89661195E+07</totfact>
</mgrwt>
</event>
<event>
 4    1  0.4556894E+006  0.2010149E+02  0.7546771E-02  0.1743317E+00
         21   -1    0    0  502  501  0.00000000000E+00  0.00000000000E+00  0.89249106732E+01  0.89249106732E+01  0.00000000000E+00 0. -1.
         21   -1    0    0  503  502 -0.00000000000E+00 -0.00000000000E+00 -0.12526629260E+03  0.12526629260E+03  0.00000000000E+00 0.  1.
         21    1    1    2  503  504 -0.15533538253E+02  0.12758494072E+02 -0.11178737161E+03  0.11358030830E+03  0.00000000000E+00 0.  1.
         21    1    1    2  504  501  0.15533538253E+02 -0.12758494072E+02 -0.45540103146E+01  0.20610894973E+02  0.00000000000E+00 0. -1.
<mgrwt>
<rscale>  2 0.20101492E+02</rscale>
<asrwt>0</asrwt>
<pdfrwt beam="1">  1       21 0.13730632E-02 0.20101492E+02</pdfrwt>
<pdfrwt beam="2">  1       21 0.19271737E-01 0.20101492E+02</pdfrwt>
<totfact> 0.39381149E+07</totfact>
</mgrwt>
</event>
<event>
 4    1  0.4556894E+006  0.2276760E+02  0.7546771E-02  0.1695305E+00
         21   -1    0    0  504  501  0.00000000000E+00  0.00000000000E+00  0.18113049699E+03  0.18113049699E+03  0.00000000000E+00 0.  1.
         21   -1    0    0  503  502 -0.00000000000E+00 -0.00000000000E+00 -0.30500357298E+01  0.30500357298E+01  0.00000000000E+00 0.  1.
         21    1    1    2  503  501 -0.24127076188E+01  0.22639396678E+02  0.11191652359E+03  0.11420889498E+03  0.00000000000E+00 0.  1.
         21    1    1    2  504  502  0.24127076188E+01 -0.22639396678E+02  0.66163937673E+02  0.69971637743E+02  0.00000000000E+00 0.  1.
<mgrwt>
<rscale>  2 0.22767596E+02</rscale>
<asrwt>0</asrwt>
<pdfrwt beam="1">  1       21 0.27866222E-01 0.22767596E+02</pdfrwt>
<pdfrwt beam="2">  1       21 0.46923641E-03 0.22767596E+02</pdfrwt>
<totfact> 0.10507969E+08</totfact>
</mgrwt>
</event>
<event>
 4    1  0.4556894E+006  0.4203184E+02  0.7546771E-02  0.1493770E+00
         21   -1    0    0  503  501  0.00000000000E+00  0.00000000000E+00  0.98496362855E+01  0.98496362855E+01  0.00000000000E+00 0. -1.
         21   -1    0    0  504  502 -0.00000000000E+00 -0.00000000000E+00 -0.18891862628E+03  0.18891862628E+03  0.00000000000E+00 0. -1.
         21    1    1    2  503  502 -0.40816886490E+02 -0.10032809151E+02 -0.11188432552E+03  0.11951894318E+03  0.00000000000E+00 0. -1.
         21    1    1    2  504  501  0.40816886490E+02  0.10032809151E+02 -0.67184664469E+02  0.79249319378E+02  0.00000000000E+00 0. -1.
<mgrwt>
<rscale>  2 0.42031839E+02</rscale>
<asrwt>0</asrwt>
<pdfrwt beam="1">  1       21 0.15153287E-02 0.42031839E+02</pdfrwt>
<pdfrwt beam="2">  1       21 0.29064402E-01 0.42031839E+02</pdfrwt>
<totfact> 0.18792394E+07</totfact>
</mgrwt>
</event>
<event>
 4    1  0.4556894E+006  0.2192693E+02  0.7546771E-02  0.1709519E+00
         21   -1    0    0  503  501  0.00000000000E+00  0.00000000000E+00  0.43757710315E+03  0.43757710315E+03  0.00000000000E+00 0. -1.
         21   -1    0    0  504  502 -0.00000000000E+00 -0.00000000000E+00 -0.28104810206E+02  0.28104810206E+02  0.00000000000E+00 0.  1.
         21    1    1    2  503  502  0.41430564218E+01 -0.21531959893E+02  0.43298027734E+03  0.43353513212E+03  0.00000000000E+00 0. -1.
         21    1    1    2  504  501 -0.41430564218E+01  0.21531959893E+02 -0.23507984399E+02  0.32146781236E+02  0.00000000000E+00 0.  1.
<mgrwt>
<rscale>  2 0.21926929E+02</rscale>
<asrwt>0</asrwt>
<pdfrwt beam="1">  1       21 0.67319549E-01 0.21926929E+02</pdfrwt>
<pdfrwt beam="2">  1       21 0.43238173E-02 0.21926929E+02</pdfrwt>
<totfact> 0.66516085E+05</totfact>
</mgrwt>
</event>
<event>
 4    1  0.4556894E+006  0.2108056E+02  0.7546771E-02  0.1724656E+00
         21   -1    0    0  503  501  0.00000000000E+00  0.00000000000E+00  0.77248658633E+01  0.77248658633E+01  0.00000000000E+00 0. -1.
         21   -1    0    0  504  502 -0.00000000000E+00 -0.00000000000E+00 -0.32319956580E+03  0.32319956580E+03  0.00000000000E+00 0. -1.
         21    1    1    2  503  502  0.20562975103E+02  0.46426524423E+01 -0.77216836279E+01  0.22450268703E+02  0.00000000000E+00 0. -1.
         21    1    1    2  504  501 -0.20562975103E+02 -0.46426524423E+01 -0.30775301631E+03  0.30847416296E+03  0.00000000000E+00 0. -1.
<mgrwt>
<rscale>  2 0.21080564E+02</rscale>
<asrwt>0</asrwt>
<pdfrwt beam="1">  1       21 0.11884410E-02 0.21080564E+02</pdfrwt>
<pdfrwt beam="2">  1       21 0.49723005E-01 0.21080564E+02</pdfrwt>
<totfact> 0.87999566E+06</totfact>
</mgrwt>
</event>
<event>
 4    1  0.4556894E+006  0.2396892E+02  0.7546771E-02  0.1676269E+00
         21   -1    0    0  504  501  0.00000000000E+00  0.00000000000E+00  0.14959431997E+02  0.14959431997E+02  0.00000000000E+00 0. -1.
         21   -1    0    0  503  502 -0.00000000000E+00 -0.00000000000E+00 -0.56496172677E+02  0.56496172677E+02  0.00000000000E+00 0. -1.
         21    1    1    2  503  501  0.20268632912E+02 -0.12794197955E+02 -0.40986294869E+02  0.47480368033E+02  0.00000000000E+00 0. -1.
         21    1    1    2  504  502 -0.20268632912E+02  0.12794197955E+02 -0.55044581088E+00  0.23975236642E+02  0.00000000000E+00 0. -1.
<mgrwt>
<rscale>  2 0.23968917E+02</rscale>
<asrwt>0</asrwt>
<pdfrwt beam="1">  1       21 0.23014511E-02 0.23968917E+02</pdfrwt>
<pdfrwt beam="2">  1       21 0.86917189E-02 0.23968917E+02</pdfrwt>
<totfact> 0.71572380E+07</totfact>
</mgrwt>
</event>
<event>
 4    1  0.4556894E+006  0.4258581E+02  0.7546771E-02  0.1490001E+00
         21   -1    0    0  504  501  0.00000000000E+00  0.00000000000E+00  0.33181057455E+02  0.33181057455E+02  0.00000000000E+00 0. -1.
         21   -1    0    0  503  502 -0.00000000000E+00 -0.00000000000E+00 -0.10004503005E+03  0.10004503005E+03  0.00000000000E+00 0. -1.
         21    1    1    2  503  501 -0.37963907901E+02  0.19294887123E+02 -0.78299907328E+02  0.89131512159E+02  0.00000000000E+00 0. -1.
         21    1    1    2  504  502  0.37963907901E+02 -0.19294887123E+02  0.11435934728E+02  0.44094575350E+02  0.00000000000E+00 0. -1.
<mgrwt>
<rscale>  2 0.42585807E+02</rscale>
<asrwt>0</asrwt>
<pdfrwt beam="1">  1       21 0.51047781E-02 0.42585807E+02</pdfrwt>
<pdfrwt beam="2">  1       21 0.15391543E-01 0.42585807E+02</pdfrwt>
<totfact> 0.85877220E+06</totfact>
</mgrwt>
</event>
<event>
 4    1  0.4556894E+006  0.2061795E+02  0.7546771E-02  0.1733311E+00
         21   -1    0    0  504  501  0.00000000000E+00  0.00000000000E+00  0.80397072492E+00  0.80397072492E+00  0.00000000000E+00 0. -1.
         21   -1    0    0  503  502 -0.00000000000E+00 -0.00000000000E+00 -0.85422530773E+03  0.85422530773E+03  0.00000000000E+00 0. -1.
         21    1    1    2  503  501  0.97843134790E+00  0.20594722672E+02 -0.16282034991E+03  0.16412058455E+03  0.00000000000E+00 0. -1.
         21    1    1    2  504  502 -0.97843134790E+00 -0.20594722672E+02 -0.69060098710E+03  0.69090869391E+03  0.00000000000E+00 0. -1.
<mgrwt>
<rscale>  2 0.20617952E+02</rscale>
<asrwt>0</asrwt>
<pdfrwt beam="1">  1       21 0.12368762E-03 0.20617952E+02</pdfrwt>
<pdfrwt beam="2">  1       21 0.13141947E+00 0.20617952E+02</pdfrwt>
<totfact> 0.31091580E+07</totfact>
</mgrwt>
</event>
<event>
 4    1  0.4556894E+006  0.2769511E+02  0.7546771E-02  0.1625059E+00
         21   -1    0    0  503  501  0.00000000000E+00  0.00000000000E+00  0.20389764125E+03  0.20389764125E+03  0.00000000000E+00 0.  1.
         21   -1    0    0  504  502 -0.00000000000E+00 -0.00000000000E+00 -0.23551810228E+03  0.23551810228E+03  0.00000000000E+00 0. -1.
         21    1    1    2  503  502  0.19422705098E+02  0.19742781579E+02  0.20213594979E+03  0.20402441299E+03  0.00000000000E+00 0.  1.
         21    1    1    2  504  501 -0.19422705098E+02 -0.19742781579E+02 -0.23375641082E+03  0.23539133055E+03  0.00000000000E+00 0. -1.
<mgrwt>
<rscale>  2 0.27695106E+02</rscale>
<asrwt>0</asrwt>
<pdfrwt beam="1">  1       21 0.31368868E-01 0.27695106E+02</pdfrwt>
<pdfrwt beam="2">  1       21 0.36233554E-01 0.27695106E+02</pdfrwt>
<totfact> 0.79096856E+04</totfact>
</mgrwt>
</event>
<event>
 4    1  0.4556894E+006  0.3027572E+02  0.7546771E-02  0.1595061E+00
         21   -1    0    0  503  501  0.00000000000E+00  0.00000000000E+00  0.54748659912E+03  0.54748659912E+03  0.00000000000E+00 0. -1.
         21   -1    0    0  504  502 -0.00000000000E+00 -0.00000000000E+00 -0.16743005847E+01  0.16743005847E+01  0.00000000000E+00 0. -1.
         21    1    1    2  503  502  0.30275487522E+02 -0.11836303234E+00  0.27467354996E+03  0.27633707352E+03  0.00000000000E+00 0. -1.
         21    1    1    2  504  501 -0.30275487522E+02  0.11836303234E+00  0.27113874857E+03  0.27282382618E+03  0.00000000000E+00 0. -1.
<mgrwt>
<rscale>  2 0.30275719E+02</rscale>
<asrwt>0</asrwt>
<pdfrwt beam="1">  1       21 0.84228565E-01 0.30275719E+02</pdfrwt>
<pdfrwt beam="2">  1       21 0.25758514E-03 0.30275719E+02</pdfrwt>
<totfact> 0.31090379E+07</totfact>
</mgrwt>
</event>
<event>
 4    1  0.4556894E+006  0.2207131E+02  0.7546771E-02  0.1707022E+00
         21   -1    0    0  504  501  0.00000000000E+00  0.00000000000E+00  0.33289374150E+02  0.33289374150E+02  0.00000000000E+00 0.  1.
         21   -1    0    0  503  502 -0.00000000000E+00 -0.00000000000E+00 -0.52686066192E+02  0.52686066192E+02  0.00000000000E+00 0. -1.
         21    1    1    2  503  501  0.21556620620E+02 -0.47386693948E+01  0.26834879484E+02  0.34745555646E+02  0.00000000000E+00 0.  1.
         21    1    1    2  504  502 -0.21556620620E+02  0.47386693948E+01 -0.46231571527E+02  0.51229884697E+02  0.00000000000E+00 0. -1.
<mgrwt>
<rscale>  2 0.22071314E+02</rscale>
<asrwt>0</asrwt>
<pdfrwt beam="1">  1       21 0.51214422E-02 0.22071314E+02</pdfrwt>
<pdfrwt beam="2">  1       21 0.81055486E-02 0.22071314E+02</pdfrwt>
<totfact> 0.22449840E+07</totfact>
</mgrwt>
</event>
<event>
 4    1  0.4556894E+006  0.3182659E+02  0.7546771E-02  0.1578733E+00
         21   -1    0    0  504  501  0.00000000000E+00  0.00000000000E+00  0.22815687759E+03  0.22815687759E+03  0.00000000000E+00 0. -1.
         21   -1    0    0  501  502 -0.00000000000E+00 -0.00000000000E+00 -0.16354983894E+03  0.16354983894E+03  0.00000000000E+00 0.  1.
         21    1    1    2  503  502 -0.57374271097E+01  0.31305168641E+02 -0.16087328979E+03  0.16399130167E+03  0.00000000000E+00 0.  1.
         21    1    1    2  504  503  0.57374271097E+01 -0.31305168641E+02  0.22548032844E+03  0.22771541487E+03  0.00000000000E+00 0. -1.
<mgrwt>
<rscale>  2 0.31826587E+02</rscale>
<asrwt>0</asrwt>
<pdfrwt beam="1">  1       21 0.35101058E-01 0.31826587E+02</pdfrwt>
<pdfrwt beam="2">  1       21 0.25161514E-01 0.31826587E+02</pdfrwt>
<totfact> 0.12526187E+05</totfact>
</mgrwt>
</event>
<event>
 4    1  0.4556894E+006  0.2353536E+02  0.7546771E-02  0.1682976E+00
         21   -1    0    0  503  501  0.00000000000E+00  0.00000000000E+00  0.13708347248E+03  0.13708347248E+03  0.00000000000E+00 0. -1.
         21   -1    0    0  504  502 -0.00000000000E+00 -0.00000000000E+00 -0.90531009469E+01  0.90531009469E+01  0.00000000000E+00 0.  1.
         21    1    1    2  503  502  0.19783176338E+02  0.12749078468E+02  0.11838441574E+03  0.12070121358E+03  0.00000000000E+00 0. -1.
         21    1    1    2  504  501 -0.19783176338E+02 -0.12749078468E+02  0.96459557949E+01  0.25435359856E+02  0.00000000000E+00 0.  1.
<mgrwt>
<rscale>  2 0.23535358E+02</rscale>
<asrwt>0</asrwt>
<pdfrwt beam="1">  1       21 0.21089763E-01 0.23535358E+02</pdfrwt>
<pdfrwt beam="2">  1       21 0.13927849E-02 0.23535358E+02</pdfrwt>
<totfact> 0.34235441E+07</totfact>
</mgrwt>
</event>
<event>
 4    1  0.4556894E+006  0.2131395E+02  0.7546771E-02  0.1720394E+00
         21   -1    0    0  503  501  0.00000000000E+00  0.00000000000E+00  0.22411885940E+02  0.22411885940E+02  0.00000000000E+00 0.  1.
         21   -1    0    0  504  502 -0.00000000000E+00 -0.00000000000E+00 -0.21876654021E+02  0.21876654021E+02  0.00000000000E+00 0.  1.
         21    1    1    2  503  502  0.12261366558E+02  0.17433974644E+02  0.62690952174E+01  0.22216798523E+02  0.00000000000E+00 0.  1.
         21    1    1    2  504  501 -0.12261366558E+02 -0.17433974644E+02 -0.57338632977E+01  0.22071741438E+02  0.00000000000E+00 0.  1.
<mgrwt>
<rscale>  2 0.21313953E+02</rscale>
<asrwt>0</asrwt>
<pdfrwt beam="1">  1       21 0.34479825E-02 0.21313953E+02</pdfrwt>
<pdfrwt beam="2">  1       21 0.33656391E-02 0.21313953E+02</pdfrwt>
<totfact> 0.16817937E+08</totfact>
</mgrwt>
</event>
<event>
 4    1  0.4556894E+006  0.3138147E+02  0.7546771E-02  0.1583302E+00
         21   -1    0    0  503  501  0.00000000000E+00  0.00000000000E+00  0.20899539323E+03  0.20899539323E+03  0.00000000000E+00 0.  1.
         21   -1    0    0  504  502 -0.00000000000E+00 -0.00000000000E+00 -0.25472852382E+02  0.25472852382E+02  0.00000000000E+00 0. -1.
         21    1    1    2  503  502  0.50528329438E+01 -0.30972009373E+02 -0.14075682752E+02  0.34393623396E+02  0.00000000000E+00 0. -1.
         21    1    1    2  504  501 -0.50528329438E+01  0.30972009373E+02  0.19759822360E+03  0.20007462222E+03  0.00000000000E+00 0.  1.
<mgrwt>
<rscale>  2 0.31381467E+02</rscale>
<asrwt>0</asrwt>
<pdfrwt beam="1">  1       21 0.32153136E-01 0.31381467E+02</pdfrwt>
<pdfrwt beam="2">  1       21 0.39189005E-02 0.31381467E+02</pdfrwt>
<totfact> 0.33701055E+06</totfact>
</mgrwt>
</event>
<event>
 4    1  0.4556894E+006  0.2500385E+02  0.7546771E-02  0.1660947E+00
         21   -1    0    0  504  501  0.00000000000E+00  0.00000000000E+00  0.36800582968E+01  0.36800582968E+01  0.00000000000E+00 0. -1.
         21   -1    0    0  503  502 -0.00000000000E+00 -0.00000000000E+00 -0.27619415193E+03  0.27619415193E+03  0.00000000000E+00 0. -1.
         21    1    1    2  503  501 -0.11816593951E+02 -0.22035435557E+02 -0.22307466353E+03  0.22447159692E+03  0.00000000000E+00 0. -1.
         21    1    1    2  504  502  0.11816593951E+02  0.22035435557E+02 -0.49439430105E+02  0.55402613313E+02  0.00000000000E+00 0. -1.
<mgrwt>
<rscale>  2 0.25003846E+02</rscale>
<asrwt>0</asrwt>
<pdfrwt beam="1">  1       21 0.56616288E-03 0.25003846E+02</pdfrwt>
<pdfrwt beam="2">  1       21 0.42491403E-01 0.25003846E+02</pdfrwt>
<totfact> 0.37287373E+07</totfact>
</mgrwt>
</event>
<event>
 4    1  0.4556894E+006  0.2263047E+02  0.7546771E-02  0.1697571E+00
         21   -1    0    0  504  501  0.00000000000E+00  0.00000000000E+00  0.53998995416E+03  0.53998995416E+03  0.00000000000E+00 0.  1.
         21   -1    0    0  501  502 -0.00000000000E+00 -0.00000000000E+00 -0.22427741486E+01  0.22427741486E+01  0.00000000000E+00 0.  1.
         21    1    1    2  503  502  0.19354911546E+02 -0.11727125344E+02  0.62910559573E+02  0.66857135562E+02  0.00000000000E+00 0.  1.
         21    1    1    2  504  503 -0.19354911546E+02  0.11727125344E+02  0.47483662044E+03  0.47537559275E+03  0.00000000000E+00 0.  1.
<mgrwt>
<rscale>  2 0.22630468E+02</rscale>
<asrwt>0</asrwt>
<pdfrwt beam="1">  1       21 0.83075274E-01 0.22630468E+02</pdfrwt>
<pdfrwt beam="2">  1       21 0.34504261E-03 0.22630468E+02</pdfrwt>
<totfact> 0.19782652E+07</totfact>
</mgrwt>
</event>
<event>
 4    1  0.4556894E+006  0.2055202E+02  0.7546771E-02  0.1734568E+00
         21   -1    0    0  504  501  0.00000000000E+00  0.00000000000E+00  0.61466642392E+02  0.61466642392E+02  0.00000000000E+00 0.  1.
         21   -1    0    0  503  502 -0.00000000000E+00 -0.00000000000E+00 -0.42818733250E+02  0.42818733250E+02  0.00000000000E+00 0.  1.
         21    1    1    2  503  501 -0.11273748433E+02 -0.17183946767E+02 -0.38451797443E+02  0.43599611888E+02  0.00000000000E+00 0.  1.
         21    1    1    2  504  502  0.11273748433E+02  0.17183946767E+02  0.57099706585E+02  0.60685763753E+02  0.00000000000E+00 0.  1.
<mgrwt>
<rscale>  2 0.20552018E+02</rscale>
<asrwt>0</asrwt>
<pdfrwt beam="1">  1       21 0.94564065E-02 0.20552018E+02</pdfrwt>
<pdfrwt beam="2">  1       21 0.65874974E-02 0.20552018E+02</pdfrwt>
<totfact> 0.11487403E+07</totfact>
</mgrwt>
</event>
<event>
 4    1  0.4556894E+006  0.2535573E+02  0.7546771E-02  0.1655944E+00
         21   -1    0    0  503  501  0.00000000000E+00  0.00000000000E+00  0.83508251838E+01  0.83508251838E+01  0.00000000000E+00 0.  1.
         21   -1    0    0  501  502 -0.00000000000E+00 -0.00000000000E+00 -0.20821122434E+03  0.20821122434E+03  0.00000000000E+00 0.  1.
         21    1    1    2  503  504 -0.51622703553E+00 -0.25350476339E+02 -0.13968364517E+02  0.28948719285E+02  0.00000000000E+00 0.  1.
         21    1    1    2  504  502  0.51622703553E+00  0.25350476339E+02 -0.18589203463E+03  0.18761333023E+03  0.00000000000E+00 0.  1.
<mgrwt>
<rscale>  2 0.25355732E+02</rscale>
<asrwt>0</asrwt>
<pdfrwt beam="1">  1       21 0.12847423E-02 0.25355732E+02</pdfrwt>
<pdfrwt beam="2">  1       21 0.32032497E-01 0.25355732E+02</pdfrwt>
<totfact> 0.18562107E+07</totfact>
</mgrwt>
</event>
<event>
 4    1  0.4556894E+006  0.3716658E+02  0.7546771E-02  0.1530162E+00
         21   -1    0    0  503  501  0.00000000000E+00  0.00000000000E+00  0.25873855094E+01  0.25873855094E+01  0.00000000000E+00 0. -1.
         21   -1    0    0  504  502 -0.00000000000E+00 -0.00000000000E+00 -0.53426641169E+03  0.53426641169E+03  0.00000000000E+00 0. -1.
         21    1    1    2  503  502 -0.19449021533E+02 -0.31671597131E+02 -0.27305436073E+03  0.27557220182E+03  0.00000000000E+00 0. -1.
         21    1    1    2  504  501  0.19449021533E+02  0.31671597131E+02 -0.25862466545E+03  0.26128159538E+03  0.00000000000E+00 0. -1.
<mgrwt>
<rscale>  2 0.37166578E+02</rscale>
<asrwt>0</asrwt>
<pdfrwt beam="1">  1       21 0.39805873E-03 0.37166578E+02</pdfrwt>
<pdfrwt beam="2">  1       21 0.82194952E-01 0.37166578E+02</pdfrwt>
<totfact> 0.17792680E+07</totfact>
</mgrwt>
</event>
<event>
 4    1  0.4556894E+006  0.2359469E+02  0.7546771E-02  0.1682048E+00
         21   -1    0    0  503  501  0.00000000000E+00  0.00000000000E+00  0.17046026252E+03  0.17046026252E+03  0.00000000000E+00 0.  1.
         21   -1    0    0  504  502 -0.00000000000E+00 -0.00000000000E+00 -0.19011103515E+02  0.19011103515E+02  0.00000000000E+00 0.  1.
         21    1    1    2  503  502  0.11729392886E+02 -0.20472677687E+02  0.16193977601E+03  0.16364962647E+03  0.00000000000E+00 0.  1.
         21    1    1    2  504  501 -0.11729392886E+02  0.20472677687E+02 -0.10490617004E+02  0.25821739568E+02  0.00000000000E+00 0.  1.
<mgrwt>
<rscale>  2 0.23594686E+02</rscale>
<asrwt>0</asrwt>
<pdfrwt beam="1">  1       21 0.26224655E-01 0.23594686E+02</pdfrwt>
<pdfrwt beam="2">  1       21 0.29247853E-02 0.23594686E+02</pdfrwt>
<totfact> 0.74419727E+06</totfact>
</mgrwt>
</event>
<event>
 4    1  0.4556894E+006  0.2177428E+02  0.7546771E-02  0.1712185E+00
         21   -1    0    0  503  501  0.00000000000E+00  0.00000000000E+00  0.10924408158E+01  0.10924408158E+01  0.00000000000E+00 0. -1.
         21   -1    0    0  504  502 -0.00000000000E+00 -0.00000000000E+00 -0.47988582738E+03  0.47988582738E+03  0.00000000000E+00 0. -1.
         21    1    1    2  503  502 -0.11045485968E+02 -0.18764767760E+02 -0.16503213995E+03  0.16646238760E+03  0.00000000000E+00 0. -1.
         21    1    1    2  504  501  0.11045485968E+02  0.18764767760E+02 -0.31376124662E+03  0.31451588060E+03  0.00000000000E+00 0. -1.
<mgrwt>
<rscale>  2 0.21774280E+02</rscale>
<asrwt>0</asrwt>
<pdfrwt beam="1">  1       21 0.16806795E-03 0.21774280E+02</pdfrwt>
<pdfrwt beam="2">  1       21 0.73828529E-01 0.21774280E+02</pdfrwt>
<totfact> 0.71112244E+07</totfact>
</mgrwt>
</event>
<event>
 4    1  0.4556894E+006  0.2468299E+02  0.7546771E-02  0.1665597E+00
         21   -1    0    0  504  501  0.00000000000E+00  0.00000000000E+00  0.72908062593E+01  0.72908062593E+01  0.00000000000E+00 0. -1.
         21   -1    0    0  501  502 -0.00000000000E+00 -0.00000000000E+00 -0.14196750882E+03  0.14196750882E+03  0.00000000000E+00 0.  1.
         21    1    1    2  503  502  0.14684420057E+02 -0.19839801814E+02 -0.11520499987E+03  0.11781953116E+03  0.00000000000E+00 0.  1.
         21    1    1    2  504  503 -0.14684420057E+02  0.19839801814E+02 -0.19471702691E+02  0.31438783916E+02  0.00000000000E+00 0. -1.
<mgrwt>
<rscale>  2 0.24682989E+02</rscale>
<asrwt>0</asrwt>
<pdfrwt beam="1">  1       21 0.11216626E-02 0.24682989E+02</pdfrwt>
<pdfrwt beam="2">  1       21 0.21841154E-01 0.24682989E+02</pdfrwt>
<totfact> 0.45182658E+07</totfact>
</mgrwt>
</event>
<event>
 4    1  0.4556894E+006  0.2233878E+02  0.7546771E-02  0.1702458E+00
         21   -1    0    0  504  501  0.00000000000E+00  0.00000000000E+00  0.44104758554E+02  0.44104758554E+02  0.00000000000E+00 0.  1.
         21   -1    0    0  501  502 -0.00000000000E+00 -0.00000000000E+00 -0.14708029687E+02  0.14708029687E+02  0.00000000000E+00 0.  1.
         21    1    1    2  503  502  0.22327507131E+02  0.70958783409E+00  0.57319895053E+00  0.22346132700E+02  0.00000000000E+00 0.  1.
         21    1    1    2  504  503 -0.22327507131E+02 -0.70958783409E+00  0.28823529916E+02  0.36466655542E+02  0.00000000000E+00 0.  1.
<mgrwt>
<rscale>  2 0.22338780E+02</rscale>
<asrwt>0</asrwt>
<pdfrwt beam="1">  1       21 0.67853474E-02 0.22338780E+02</pdfrwt>
<pdfrwt beam="2">  1       21 0.22627738E-02 0.22338780E+02</pdfrwt>
<totfact> 0.10778985E+08</totfact>
</mgrwt>
</event>
<event>
 4    1  0.4556894E+006  0.2039053E+02  0.7546771E-02  0.1737672E+00
         21   -1    0    0  504  501  0.00000000000E+00  0.00000000000E+00  0.41595473405E+01  0.41595473405E+01  0.00000000000E+00 0. -1.
         21   -1    0    0  501  502 -0.00000000000E+00 -0.00000000000E+00 -0.28374530949E+03  0.28374530949E+03  0.00000000000E+00 0.  1.
         21    1    1    2  503  502 -0.10720828777E+02 -0.17344669639E+02 -0.25564772573E+03  0.25645961359E+03  0.00000000000E+00 0.  1.
         21    1    1    2  504  503  0.10720828777E+02  0.17344669639E+02 -0.23938036422E+02  0.31445243238E+02  0.00000000000E+00 0. -1.
<mgrwt>
<rscale>  2 0.20390531E+02</rscale>
<asrwt>0</asrwt>
<pdfrwt beam="1">  1       21 0.63993026E-03 0.20390531E+02</pdfrwt>
<pdfrwt beam="2">  1       21 0.43653131E-01 0.20390531E+02</pdfrwt>
<totfact> 0.28224963E+07</totfact>
</mgrwt>
</event>
<event>
 4    1  0.4556894E+006  0.2038599E+02  0.7546771E-02  0.1737759E+00
         21   -1    0    0  503  501  0.00000000000E+00  0.00000000000E+00  0.35070305206E+03  0.35070305206E+03  0.00000000000E+00 0.  1.
         21   -1    0    0  504  502 -0.00000000000E+00 -0.00000000000E+00 -0.46387430628E+03  0.46387430628E+03  0.00000000000E+00 0.  1.
         21    1    1    2  503  502 -0.19369221080E+02 -0.63578222800E+01  0.35018248850E+03  0.35077537525E+03  0.00000000000E+00 0.  1.
         21    1    1    2  504  501  0.19369221080E+02  0.63578222800E+01 -0.46335374272E+03  0.46380198310E+03  0.00000000000E+00 0.  1.
<mgrwt>
<rscale>  2 0.20385991E+02</rscale>
<asrwt>0</asrwt>
<pdfrwt beam="1">  1       21 0.53954316E-01 0.20385991E+02</pdfrwt>
<pdfrwt beam="2">  1       21 0.71365277E-01 0.20385991E+02</pdfrwt>
<totfact> 0.76764707E+03</totfact>
</mgrwt>
</event>
<event>
 4    1  0.4556894E+006  0.3260741E+02  0.7546771E-02  0.1570935E+00
         21   -1    0    0  504  501  0.00000000000E+00  0.00000000000E+00  0.29057324211E+03  0.29057324211E+03  0.00000000000E+00 0.  1.
         21   -1    0    0  503  502 -0.00000000000E+00 -0.00000000000E+00 -0.46526611843E+01  0.46526611843E+01  0.00000000000E+00 0. -1.
         21    1    1    2  503  501 -0.27661269901E+02  0.17265486408E+02  0.74747423554E+02  0.81550108530E+02  0.00000000000E+00 0. -1.
         21    1    1    2  504  502  0.27661269901E+02 -0.17265486408E+02  0.21117315737E+03  0.21367579476E+03  0.00000000000E+00 0.  1.
<mgrwt>
<rscale>  2 0.32607405E+02</rscale>
<asrwt>0</asrwt>
<pdfrwt beam="1">  1       21 0.44703562E-01 0.32607405E+02</pdfrwt>
<pdfrwt beam="2">  1       21 0.71579426E-03 0.32607405E+02</pdfrwt>
<totfact> 0.25079025E+07</totfact>
</mgrwt>
</event>
<event>
 4    1  0.4556894E+006  0.2664710E+02  0.7546771E-02  0.1638412E+00
         21   -1    0    0  504  501  0.00000000000E+00  0.00000000000E+00  0.33625063836E+02  0.33625063836E+02  0.00000000000E+00 0. -1.
         21   -1    0    0  501  502 -0.00000000000E+00 -0.00000000000E+00 -0.33739037799E+02  0.33739037799E+02  0.00000000000E+00 0. -1.
         21    1    1    2  503  502  0.26598122794E+02 -0.16148991128E+01 -0.20658212172E+02  0.33716906226E+02  0.00000000000E+00 0. -1.
         21    1    1    2  504  503 -0.26598122794E+02  0.16148991128E+01  0.20544238209E+02  0.33647195409E+02  0.00000000000E+00 0. -1.
<mgrwt>
<rscale>  2 0.26647102E+02</rscale>
<asrwt>0</asrwt>
<pdfrwt beam="1">  1       21 0.51730867E-02 0.26647102E+02</pdfrwt>
<pdfrwt beam="2">  1       21 0.51906212E-02 0.26647102E+02</pdfrwt>
<totfact> 0.47454345E+07</totfact>
</mgrwt>
</event>
<event>
 4    1  0.4556894E+006  0.2364514E+02  0.7546771E-02  0.1681261E+00
         21   -1    0    0  504  501  0.00000000000E+00  0.00000000000E+00  0.17241746837E+02  0.17241746837E+02  0.00000000000E+00 0. -1.
         21   -1    0    0  503  502 -0.00000000000E+00 -0.00000000000E+00 -0.32577053746E+02  0.32577053746E+02  0.00000000000E+00 0. -1.
         21    1    1    2  503  501 -0.22586080590E+02 -0.69972645219E+01 -0.93599702493E+01  0.25430332091E+02  0.00000000000E+00 0. -1.
         21    1    1    2  504  502  0.22586080590E+02  0.69972645219E+01 -0.59753366596E+01  0.24388468492E+02  0.00000000000E+00 0. -1.
<mgrwt>
<rscale>  2 0.23645142E+02</rscale>
<asrwt>0</asrwt>
<pdfrwt beam="1">  1       21 0.26525765E-02 0.23645142E+02</pdfrwt>
<pdfrwt beam="2">  1       21 0.50118544E-02 0.23645142E+02</pdfrwt>
<totfact> 0.13940149E+08</totfact>
</mgrwt>
</event>
<event>
 4    1  0.4556894E+006  0.3057298E+02  0.7546771E-02  0.1591840E+00
         21   -1    0    0  504  501  0.00000000000E+00  0.00000000000E+00  0.91129031581E+02  0.91129031581E+02  0.00000000000E+00 0. -1.
         21   -1    0    0  503  502 -0.00000000000E+00 -0.00000000000E+00 -0.25586235814E+02  0.25586235814E+02  0.00000000000E+00 0.  1.
         21    1    1    2  503  501 -0.82063633949E+01  0.29451022055E+02  0.77941934719E+02  0.83723666237E+02  0.00000000000E+00 0. -1.
         21    1    1    2  504  502  0.82063633949E+01 -0.29451022055E+02 -0.12399138952E+02  0.32991601159E+02  0.00000000000E+00 0.  1.
<mgrwt>
<rscale>  2 0.30572980E+02</rscale>
<asrwt>0</asrwt>
<pdfrwt beam="1">  1       21 0.14019851E-01 0.30572980E+02</pdfrwt>
<pdfrwt beam="2">  1       21 0.39363440E-02 0.30572980E+02</pdfrwt>
<totfact> 0.14598603E+07</totfact>
</mgrwt>
</event>
<event>
 4    1  0.4556894E+006  0.3487448E+02  0.7546771E-02  0.1549718E+00
         21   -1    0    0  504  501  0.00000000000E+00  0.00000000000E+00  0.16633143824E+02  0.16633143824E+02  0.00000000000E+00 0. -1.
         21   -1    0    0  503  502 -0.00000000000E+00 -0.00000000000E+00 -0.73948525647E+02  0.73948525647E+02  0.00000000000E+00 0. -1.
         21    1    1    2  503  501 -0.33128514913E+02  0.10896354123E+02 -0.33449337942E+02  0.48322740426E+02  0.00000000000E+00 0. -1.
         21    1    1    2  504  502  0.33128514913E+02 -0.10896354123E+02 -0.23866043881E+02  0.42258929045E+02  0.00000000000E+00 0. -1.
<mgrwt>
<rscale>  2 0.34874475E+02</rscale>
<asrwt>0</asrwt>
<pdfrwt beam="1">  1       21 0.25589452E-02 0.34874475E+02</pdfrwt>
<pdfrwt beam="2">  1       21 0.11376696E-01 0.34874475E+02</pdfrwt>
<totfact> 0.42198341E+07</totfact>
</mgrwt>
</event>
<event>
 4    1  0.4556894E+006  0.2514966E+02  0.7546771E-02  0.1658861E+00
         21   -1    0    0  504  501  0.00000000000E+00  0.00000000000E+00  0.42425229341E+02  0.42425229341E+02  0.00000000000E+00 0. -1.
         21   -1    0    0  503  502 -0.00000000000E+00 -0.00000000000E+00 -0.25458232617E+02  0.25458232617E+02  0.00000000000E+00 0.  1.
         21    1    1    2  503  501 -0.97987442490E+01 -0.23162258777E+02  0.30332730475E+02  0.39402793792E+02  0.00000000000E+00 0. -1.
         21    1    1    2  504  502  0.97987442490E+01  0.23162258777E+02 -0.13365733751E+02  0.28480668166E+02  0.00000000000E+00 0.  1.
<mgrwt>
<rscale>  2 0.25149664E+02</rscale>
<asrwt>0</asrwt>
<pdfrwt beam="1">  1       21 0.65269584E-02 0.25149664E+02</pdfrwt>
<pdfrwt beam="2">  1       21 0.39166512E-02 0.25149664E+02</pdfrwt>
<totfact> 0.50386518E+07</totfact>
</mgrwt>
</event>
<event>
 4    1  0.4556894E+006  0.2082138E+02  0.7546771E-02  0.1729470E+00
         21   -1    0    0  502  501  0.00000000000E+00  0.00000000000E+00  0.21206518832E+02  0.21206518832E+02  0.00000000000E+00 0. -1.
         21   -1    0    0  503  502 -0.00000000000E+00 -0.00000000000E+00 -0.42249701466E+02  0.42249701466E+02  0.00000000000E+00 0. -1.
         21    1    1    2  503  504 -0.16876598581E+02  0.12194688238E+02 -0.33315823067E+02  0.39287072524E+02  0.00000000000E+00 0. -1.
         21    1    1    2  504  501  0.16876598581E+02 -0.12194688238E+02  0.12272640433E+02  0.24169147774E+02  0.00000000000E+00 0. -1.
<mgrwt>
<rscale>  2 0.20821383E+02</rscale>
<asrwt>0</asrwt>
<pdfrwt beam="1">  1       21 0.32625414E-02 0.20821383E+02</pdfrwt>
<pdfrwt beam="2">  1       21 0.64999540E-02 0.20821383E+02</pdfrwt>
<totfact> 0.64272496E+07</totfact>
</mgrwt>
</event>
<event>
 4    1  0.4556894E+006  0.4054405E+02  0.7546771E-02  0.1504246E+00
         21   -1    0    0  503  501  0.00000000000E+00  0.00000000000E+00  0.15439759788E+03  0.15439759788E+03  0.00000000000E+00 0.  1.
         21   -1    0    0  504  502 -0.00000000000E+00 -0.00000000000E+00 -0.10926564741E+02  0.10926564741E+02  0.00000000000E+00 0.  1.
         21    1    1    2  503  502  0.27414905905E+02 -0.29870437904E+02  0.84965601195E+02  0.94143366802E+02  0.00000000000E+00 0.  1.
         21    1    1    2  504  501 -0.27414905905E+02  0.29870437904E+02  0.58505431939E+02  0.71180795814E+02  0.00000000000E+00 0.  1.
<mgrwt>
<rscale>  2 0.40544052E+02</rscale>
<asrwt>0</asrwt>
<pdfrwt beam="1">  1       21 0.23753475E-01 0.40544052E+02</pdfrwt>
<pdfrwt beam="2">  1       21 0.16810101E-02 0.40544052E+02</pdfrwt>
<totfact> 0.23031086E+07</totfact>
</mgrwt>
</event>
<event>
 4    1  0.4556894E+006  0.4296732E+02  0.7546771E-02  0.1487445E+00
         21   -1    0    0  504  501  0.00000000000E+00  0.00000000000E+00  0.23984639694E+03  0.23984639694E+03  0.00000000000E+00 0. -1.
         21   -1    0    0  501  502 -0.00000000000E+00 -0.00000000000E+00 -0.22168089789E+02  0.22168089789E+02  0.00000000000E+00 0.  1.
         21    1    1    2  503  502 -0.42705914312E+02 -0.47323787916E+01  0.29927795393E+01  0.43071420404E+02  0.00000000000E+00 0.  1.
         21    1    1    2  504  503  0.42705914312E+02  0.47323787916E+01  0.21468552761E+03  0.21894306633E+03  0.00000000000E+00 0. -1.
<mgrwt>
<rscale>  2 0.42967319E+02</rscale>
<asrwt>0</asrwt>
<pdfrwt beam="1">  1       21 0.36899444E-01 0.42967319E+02</pdfrwt>
<pdfrwt beam="2">  1       21 0.34104755E-02 0.42967319E+02</pdfrwt>
<totfact> 0.33517453E+06</totfact>
</mgrwt>
</event>
<event>
 4    1  0.4556894E+006  0.2840829E+02  0.7546771E-02  0.1616380E+00
         21   -1    0    0  504  501  0.00000000000E+00  0.00000000000E+00  0.33101072611E+02  0.33101072611E+02  0.00000000000E+00 0. -1.
         21   -1    0    0  501  502 -0.00000000000E+00 -0.00000000000E+00 -0.22150863639E+03  0.22150863639E+03  0.00000000000E+00 0. -1.
         21    1    1    2  503  502  0.19430462643E+02  0.20724089141E+02 -0.21429841695E+03  0.21617317654E+03  0.00000000000E+00 0. -1.
         21    1    1    2  504  503 -0.19430462643E+02 -0.20724089141E+02  0.25890853173E+02  0.38436532457E+02  0.00000000000E+00 0. -1.
<mgrwt>
<rscale>  2 0.28408287E+02</rscale>
<asrwt>0</asrwt>
<pdfrwt beam="1">  1       21 0.50924726E-02 0.28408287E+02</pdfrwt>
<pdfrwt beam="2">  1       21 0.34078253E-01 0.28408287E+02</pdfrwt>
<totfact> 0.19681238E+06</totfact>
</mgrwt>
</event>
<event>
 4    1  0.4556894E+006  0.2910495E+02  0.7546771E-02  0.1608198E+00
         21   -1    0    0  504  501  0.00000000000E+00  0.00000000000E+00  0.21820793758E+01  0.21820793758E+01  0.00000000000E+00 0.  1.
         21   -1    0    0  503  502 -0.00000000000E+00 -0.00000000000E+00 -0.76486652078E+03  0.76486652078E+03  0.00000000000E+00 0. -1.
         21    1    1    2  503  501  0.28998066824E+02  0.24920267149E+01 -0.11220445440E+03  0.11591780563E+03  0.00000000000E+00 0.  1.
         21    1    1    2  504  502 -0.28998066824E+02 -0.24920267149E+01 -0.65047998701E+03  0.65113079452E+03  0.00000000000E+00 0. -1.
<mgrwt>
<rscale>  2 0.29104949E+02</rscale>
<asrwt>0</asrwt>
<pdfrwt beam="1">  1       21 0.33570489E-03 0.29104949E+02</pdfrwt>
<pdfrwt beam="2">  1       21 0.11767164E+00 0.29104949E+02</pdfrwt>
<totfact> 0.10001375E+07</totfact>
</mgrwt>
</event>
<event>
 4    1  0.4556894E+006  0.2607745E+02  0.7546771E-02  0.1645992E+00
         21   -1    0    0  503  501  0.00000000000E+00  0.00000000000E+00  0.12509606621E+02  0.12509606621E+02  0.00000000000E+00 0.  1.
         21   -1    0    0  504  502 -0.00000000000E+00 -0.00000000000E+00 -0.54550008810E+02  0.54550008810E+02  0.00000000000E+00 0.  1.
         21    1    1    2  503  502  0.12181333793E+01 -0.26048985537E+02 -0.22994384608E+02  0.34767444829E+02  0.00000000000E+00 0.  1.
         21    1    1    2  504  501 -0.12181333793E+01  0.26048985537E+02 -0.19046017581E+02  0.32292170601E+02  0.00000000000E+00 0.  1.
<mgrwt>
<rscale>  2 0.26077452E+02</rscale>
<asrwt>0</asrwt>
<pdfrwt beam="1">  1       21 0.19245549E-02 0.26077452E+02</pdfrwt>
<pdfrwt beam="2">  1       21 0.83923089E-02 0.26077452E+02</pdfrwt>
<totfact> 0.10212353E+08</totfact>
</mgrwt>
</event>
<event>
 4    1  0.4556894E+006  0.2038757E+02  0.7546771E-02  0.1737729E+00
         21   -1    0    0  502  501  0.00000000000E+00  0.00000000000E+00  0.15372002855E+02  0.15372002855E+02  0.00000000000E+00 0.  1.
         21   -1    0    0  504  502 -0.00000000000E+00 -0.00000000000E+00 -0.76756384699E+02  0.76756384699E+02  0.00000000000E+00 0. -1.
         21    1    1    2  503  501  0.13185862866E+02  0.15549467478E+02  0.63808068278E+01  0.21362762325E+02  0.00000000000E+00 0.  1.
         21    1    1    2  504  503 -0.13185862866E+02 -0.15549467478E+02 -0.67765188672E+02  0.70765625229E+02  0.00000000000E+00 0. -1.
<mgrwt>
<rscale>  2 0.20387568E+02</rscale>
<asrwt>0</asrwt>
<pdfrwt beam="1">  1       21 0.23649235E-02 0.20387568E+02</pdfrwt>
<pdfrwt beam="2">  1       21 0.11808675E-01 0.20387568E+02</pdfrwt>
<totfact> 0.39631162E+07</totfact>
</mgrwt>
</event>
<event>
 4    1  0.4556894E+006  0.2366042E+02  0.7546771E-02  0.1681023E+00
         21   -1    0    0  504  501  0.00000000000E+00  0.00000000000E+00  0.75097260890E+02  0.75097260890E+02  0.00000000000E+00 0. -1.
         21   -1    0    0  501  502 -0.00000000000E+00 -0.00000000000E+00 -0.47592728998E+02  0.47592728998E+02  0.00000000000E+00 0.  1.
         21    1    1    2  503  502 -0.10492887414E+02  0.21206484437E+02 -0.42583954620E+02  0.48715591545E+02  0.00000000000E+00 0.  1.
         21    1    1    2  504  503  0.10492887414E+02 -0.21206484437E+02  0.70088486513E+02  0.73974398342E+02  0.00000000000E+00 0. -1.
<mgrwt>
<rscale>  2 0.23660424E+02</rscale>
<asrwt>0</asrwt>
<pdfrwt beam="1">  1       21 0.11553425E-01 0.23660424E+02</pdfrwt>
<pdfrwt beam="2">  1       21 0.73219583E-02 0.23660424E+02</pdfrwt>
<totfact> 0.71413080E+06</totfact>
</mgrwt>
</event>
<event>
 4    1  0.4556894E+006  0.2246155E+02  0.7546771E-02  0.1700390E+00
         21   -1    0    0  503  501  0.00000000000E+00  0.00000000000E+00  0.26279405102E+01  0.26279405102E+01  0.00000000000E+00 0. -1.
         21   -1    0    0  504  502 -0.00000000000E+00 -0.00000000000E+00 -0.27350784526E+03  0.27350784526E+03  0.00000000000E+00 0. -1.
         21    1    1    2  503  502  0.15980560152E+02 -0.15784267334E+02 -0.21081910988E+03  0.21201230740E+03  0.00000000000E+00 0. -1.
         21    1    1    2  504  501 -0.15980560152E+02  0.15784267334E+02 -0.60060794870E+02  0.64123478371E+02  0.00000000000E+00 0. -1.
<mgrwt>
<rscale>  2 0.22461554E+02</rscale>
<asrwt>0</asrwt>
<pdfrwt beam="1">  1       21 0.40429884E-03 0.22461554E+02</pdfrwt>
<pdfrwt beam="2">  1       21 0.42078099E-01 0.22461554E+02</pdfrwt>
<totfact> 0.60875227E+07</totfact>
</mgrwt>
</event>
<event>
 4    1  0.4556894E+006  0.2120534E+02  0.7546771E-02  0.1722369E+00
         21   -1    0    0  503  501  0.00000000000E+00  0.00000000000E+00  0.48430417115E+02  0.48430417115E+02  0.00000000000E+00 0.  1.
         21   -1    0    0  504  502 -0.00000000000E+00 -0.00000000000E+00 -0.93572775537E+02  0.93572775537E+02  0.00000000000E+00 0. -1.
         21    1    1    2  503  502 -0.20344307288E+02 -0.59812723291E+01  0.44815830266E+02  0.49579482653E+02  0.00000000000E+00 0.  1.
         21    1    1    2  504  501  0.20344307288E+02  0.59812723291E+01 -0.89958188688E+02  0.92423709998E+02  0.00000000000E+00 0. -1.
<mgrwt>
<rscale>  2 0.21205340E+02</rscale>
<asrwt>0</asrwt>
<pdfrwt beam="1">  1       21 0.74508334E-02 0.21205340E+02</pdfrwt>
<pdfrwt beam="2">  1       21 0.14395812E-01 0.21205340E+02</pdfrwt>
<totfact> 0.47055805E+06</totfact>
</mgrwt>
</event>
<event>
 4    1  0.4556894E+006  0.2232111E+02  0.7546771E-02  0.1702757E+00
         21   -1    0    0  504  501  0.00000000000E+00  0.00000000000E+00  0.16110897623E+02  0.16110897623E+02  0.00000000000E+00 0. -1.
         21   -1    0    0  503  502 -0.00000000000E+00 -0.00000000000E+00 -0.54063519794E+03  0.54063519794E+03  0.00000000000E+00 0.  1.
         21    1    1    2  503  501  0.16478039697E+02  0.15056760875E+02  0.80319869562E+01  0.23722239666E+02  0.00000000000E+00 0. -1.
         21    1    1    2  504  502 -0.16478039697E+02 -0.15056760875E+02 -0.53255628727E+03  0.53302385589E+03  0.00000000000E+00 0.  1.
<mgrwt>
<rscale>  2 0.22321108E+02</rscale>
<asrwt>0</asrwt>
<pdfrwt beam="1">  1       21 0.24786003E-02 0.22321108E+02</pdfrwt>
<pdfrwt beam="2">  1       21 0.83174624E-01 0.22321108E+02</pdfrwt>
<totfact> 0.10246133E+06</totfact>
</mgrwt>
</event>
<event>
 4    1  0.4556894E+006  0.2742797E+02  0.7546771E-02  0.1628393E+00
         21   -1    0    0  503  501  0.00000000000E+00  0.00000000000E+00  0.65307925210E+03  0.65307925210E+03  0.00000000000E+00 0.  1.
         21   -1    0    0  504  502 -0.00000000000E+00 -0.00000000000E+00 -0.91622945129E+01  0.91622945129E+01  0.00000000000E+00 0.  1.
         21    1    1    2  503  502  0.19887666590E+02  0.18888472170E+02  0.12351478128E+02  0.30080769193E+02  0.00000000000E+00 0.  1.
         21    1    1    2  504  501 -0.19887666590E+02 -0.18888472170E+02  0.63156547946E+03  0.63216077742E+03  0.00000000000E+00 0.  1.
<mgrwt>
<rscale>  2 0.27427972E+02</rscale>
<asrwt>0</asrwt>
<pdfrwt beam="1">  1       21 0.10047369E+00 0.27427972E+02</pdfrwt>
<pdfrwt beam="2">  1       21 0.14095843E-02 0.27427972E+02</pdfrwt>
<totfact> 0.16513192E+06</totfact>
</mgrwt>
</event>
<event>
 4    1  0.4556894E+006  0.2119555E+02  0.7546771E-02  0.1722548E+00
         21   -1    0    0  504  501  0.00000000000E+00  0.00000000000E+00  0.28866882864E+01  0.28866882864E+01  0.00000000000E+00 0.  1.
         21   -1    0    0  503  502 -0.00000000000E+00 -0.00000000000E+00 -0.17720212860E+03  0.17720212860E+03  0.00000000000E+00 0.  1.
         21    1    1    2  503  501  0.20748950639E+02  0.43280926655E+01 -0.11857601336E+03  0.12045547843E+03  0.00000000000E+00 0.  1.
         21    1    1    2  504  502 -0.20748950639E+02 -0.43280926655E+01 -0.55739426956E+02  0.59633338462E+02  0.00000000000E+00 0.  1.
<mgrwt>
<rscale>  2 0.21195550E+02</rscale>
<asrwt>0</asrwt>
<pdfrwt beam="1">  1       21 0.44410567E-03 0.21195550E+02</pdfrwt>
<pdfrwt beam="2">  1       21 0.27261880E-01 0.21195550E+02</pdfrwt>
<totfact> 0.11617917E+08</totfact>
</mgrwt>
</event>
<event>
 4    1  0.4556894E+006  0.2411381E+02  0.7546771E-02  0.1674067E+00
         21   -1    0    0  503  501  0.00000000000E+00  0.00000000000E+00  0.23464324149E+02  0.23464324149E+02  0.00000000000E+00 0.  1.
         21   -1    0    0  501  502 -0.00000000000E+00 -0.00000000000E+00 -0.24928511022E+02  0.24928511022E+02  0.00000000000E+00 0.  1.
         21    1    1    2  503  504 -0.11462709030E+02  0.21215135832E+02  0.11275146433E+01  0.24140152774E+02  0.00000000000E+00 0.  1.
         21    1    1    2  504  502  0.11462709030E+02 -0.21215135832E+02 -0.25917015163E+01  0.24252682397E+02  0.00000000000E+00 0.  1.
<mgrwt>
<rscale>  2 0.24113807E+02</rscale>
<asrwt>0</asrwt>
<pdfrwt beam="1">  1       21 0.36098960E-02 0.24113807E+02</pdfrwt>
<pdfrwt beam="2">  1       21 0.38351555E-02 0.24113807E+02</pdfrwt>
<totfact> 0.13243759E+08</totfact>
</mgrwt>
</event>
<event>
 4    1  0.4556894E+006  0.2269131E+02  0.7546771E-02  0.1696563E+00
         21   -1    0    0  503  501  0.00000000000E+00  0.00000000000E+00  0.60718734495E+02  0.60718734495E+02  0.00000000000E+00 0.  1.
         21   -1    0    0  504  502 -0.00000000000E+00 -0.00000000000E+00 -0.88633131450E+01  0.88633131450E+01  0.00000000000E+00 0.  1.
         21    1    1    2  503  502 -0.22210266110E+02  0.46475344440E+01  0.18692683702E+02  0.29399182319E+02  0.00000000000E+00 0.  1.
         21    1    1    2  504  501  0.22210266110E+02 -0.46475344440E+01  0.33162737648E+02  0.40182865320E+02  0.00000000000E+00 0.  1.
<mgrwt>
<rscale>  2 0.22691309E+02</rscale>
<asrwt>0</asrwt>
<pdfrwt beam="1">  1       21 0.93413435E-02 0.22691309E+02</pdfrwt>
<pdfrwt beam="2">  1       21 0.13635867E-02 0.22691309E+02</pdfrwt>
<totfact> 0.13934707E+08</totfact>
</mgrwt>
</event>
<event>
 4    1  0.4556894E+006  0.2130831E+02  0.7546771E-02  0.1720496E+00
         21   -1    0    0  503  501  0.00000000000E+00  0.00000000000E+00  0.14978334710E+01  0.14978334710E+01  0.00000000000E+00 0. -1.
         21   -1    0    0  504  502 -0.00000000000E+00 -0.00000000000E+00 -0.42751033934E+03  0.42751033934E+03  0.00000000000E+00 0. -1.
         21    1    1    2  503  502 -0.21265664653E+02  0.13473819920E+01 -0.97306743627E+02  0.99612480577E+02  0.00000000000E+00 0. -1.
         21    1    1    2  504  501  0.21265664653E+02 -0.13473819920E+01 -0.32870576225E+03  0.32939569224E+03  0.00000000000E+00 0. -1.
<mgrwt>
<rscale>  2 0.21308307E+02</rscale>
<asrwt>0</asrwt>
<pdfrwt beam="1">  1       21 0.23043583E-03 0.21308307E+02</pdfrwt>
<pdfrwt beam="2">  1       21 0.65770848E-01 0.21308307E+02</pdfrwt>
<totfact> 0.56856786E+07</totfact>
</mgrwt>
</event>
<event>
 4    1  0.4556894E+006  0.2267141E+02  0.7546771E-02  0.1696893E+00
         21   -1    0    0  503  501  0.00000000000E+00  0.00000000000E+00  0.91242646192E+02  0.91242646192E+02  0.00000000000E+00 0. -1.
         21   -1    0    0  504  502 -0.00000000000E+00 -0.00000000000E+00 -0.15196330950E+02  0.15196330950E+02  0.00000000000E+00 0.  1.
         21    1    1    2  503  502  0.18363022530E+02  0.13296321473E+02 -0.41950907175E+01  0.23056269154E+02  0.00000000000E+00 0.  1.
         21    1    1    2  504  501 -0.18363022530E+02 -0.13296321473E+02  0.80241405959E+02  0.83382707988E+02  0.00000000000E+00 0. -1.
<mgrwt>
<rscale>  2 0.22671408E+02</rscale>
<asrwt>0</asrwt>
<pdfrwt beam="1">  1       21 0.14037330E-01 0.22671408E+02</pdfrwt>
<pdfrwt beam="2">  1       21 0.23378971E-02 0.22671408E+02</pdfrwt>
<totfact> 0.30981612E+07</totfact>
</mgrwt>
</event>
<event>
 4    1  0.4556894E+006  0.2689869E+02  0.7546771E-02  0.1635138E+00
         21   -1    0    0  502  501  0.00000000000E+00  0.00000000000E+00  0.13707503726E+02  0.13707503726E+02  0.00000000000E+00 0.  1.
         21   -1    0    0  503  502 -0.00000000000E+00 -0.00000000000E+00 -0.13533629491E+03  0.13533629491E+03  0.00000000000E+00 0. -1.
         21    1    1    2  503  504 -0.15080931428E+02 -0.22273417172E+02 -0.11901678652E+03  0.12201858497E+03  0.00000000000E+00 0. -1.
         21    1    1    2  504  501  0.15080931428E+02  0.22273417172E+02 -0.26120046668E+01  0.27025213665E+02  0.00000000000E+00 0.  1.
<mgrwt>
<rscale>  2 0.26898692E+02</rscale>
<asrwt>0</asrwt>
<pdfrwt beam="1">  1       21 0.21088467E-02 0.26898692E+02</pdfrwt>
<pdfrwt beam="2">  1       21 0.20820968E-01 0.26898692E+02</pdfrwt>
<totfact> 0.19082781E+07</totfact>
</mgrwt>
</event>
<event>
 4    1  0.4556894E+006  0.2527395E+02  0.7546771E-02  0.1657098E+00
         21   -1    0    0  503  501  0.00000000000E+00  0.00000000000E+00  0.39724509484E+01  0.39724509484E+01  0.00000000000E+00 0. -1.
         21   -1    0    0  504  502 -0.00000000000E+00 -0.00000000000E+00 -0.25875825584E+03  0.25875825584E+03  0.00000000000E+00 0. -1.
         21    1    1    2  503  502 -0.25043002513E+02 -0.34088980108E+01 -0.20821923749E+03  0.20974752304E+03  0.00000000000E+00 0. -1.
         21    1    1    2  504  501  0.25043002513E+02  0.34088980108E+01 -0.46566567398E+02  0.52983183745E+02  0.00000000000E+00 0. -1.
<mgrwt>
<rscale>  2 0.25273950E+02</rscale>
<asrwt>0</asrwt>
<pdfrwt beam="1">  1       21 0.61114626E-03 0.25273950E+02</pdfrwt>
<pdfrwt beam="2">  1       21 0.39808965E-01 0.25273950E+02</pdfrwt>
<totfact> 0.37758377E+07</totfact>
</mgrwt>
</event>
<event>
 4    1  0.4556894E+006  0.2157067E+02  0.7546771E-02  0.1715785E+00
         21   -1    0    0  504  501  0.00000000000E+00  0.00000000000E+00  0.32257731863E+02  0.32257731863E+02  0.00000000000E+00 0. -1.
         21   -1    0    0  501  502 -0.00000000000E+00 -0.00000000000E+00 -0.22030792192E+02  0.22030792192E+02  0.00000000000E+00 0. -1.
         21    1    1    2  503  502 -0.82387893053E+00  0.21554931022E+02 -0.10836373063E+02  0.24139610788E+02  0.00000000000E+00 0. -1.
         21    1    1    2  504  503  0.82387893053E+00 -0.21554931022E+02  0.21063312734E+02  0.30148913267E+02  0.00000000000E+00 0. -1.
<mgrwt>
<rscale>  2 0.21570671E+02</rscale>
<asrwt>0</asrwt>
<pdfrwt beam="1">  1       21 0.49627280E-02 0.21570671E+02</pdfrwt>
<pdfrwt beam="2">  1       21 0.33893526E-02 0.21570671E+02</pdfrwt>
<totfact> 0.94115188E+07</totfact>
</mgrwt>
</event>
<event>
 4    1  0.4556894E+006  0.4189161E+02  0.7546771E-02  0.1494735E+00
         21   -1    0    0  502  501  0.00000000000E+00  0.00000000000E+00  0.48887982249E+02  0.48887982249E+02  0.00000000000E+00 0.  1.
         21   -1    0    0  504  502 -0.00000000000E+00 -0.00000000000E+00 -0.21330380488E+03  0.21330380488E+03  0.00000000000E+00 0.  1.
         21    1    1    2  503  501  0.20741291649E+02 -0.36396509506E+02  0.37349236357E+02  0.56123725285E+02  0.00000000000E+00 0.  1.
         21    1    1    2  504  503 -0.20741291649E+02  0.36396509506E+02 -0.20176505899E+03  0.20606806184E+03  0.00000000000E+00 0.  1.
<mgrwt>
<rscale>  2 0.41891611E+02</rscale>
<asrwt>0</asrwt>
<pdfrwt beam="1">  1       21 0.75212280E-02 0.41891611E+02</pdfrwt>
<pdfrwt beam="2">  1       21 0.32815970E-01 0.41891611E+02</pdfrwt>
<totfact> 0.11516695E+06</totfact>
</mgrwt>
</event>
<event>
 4    1  0.4556894E+006  0.2105249E+02  0.7546771E-02  0.1725173E+00
         21   -1    0    0  503  501  0.00000000000E+00  0.00000000000E+00  0.21844937509E+03  0.21844937509E+03  0.00000000000E+00 0.  1.
         21   -1    0    0  504  502 -0.00000000000E+00 -0.00000000000E+00 -0.98895669134E+01  0.98895669134E+01  0.00000000000E+00 0.  1.
         21    1    1    2  503  502  0.72271232432E+01  0.19773117539E+02  0.20606673940E+03  0.20713934579E+03  0.00000000000E+00 0.  1.
         21    1    1    2  504  501 -0.72271232432E+01 -0.19773117539E+02  0.24930687743E+01  0.21199596211E+02  0.00000000000E+00 0.  1.
<mgrwt>
<rscale>  2 0.21052494E+02</rscale>
<asrwt>0</asrwt>
<pdfrwt beam="1">  1       21 0.33607593E-01 0.21052494E+02</pdfrwt>
<pdfrwt beam="2">  1       21 0.15214720E-02 0.21052494E+02</pdfrwt>
<totfact> 0.12669297E+07</totfact>
</mgrwt>
</event>
<event>
 4    1  0.4556894E+006  0.2675843E+02  0.7546771E-02  0.1636958E+00
         21   -1    0    0  504  501  0.00000000000E+00  0.00000000000E+00  0.12589297001E+04  0.12589297001E+04  0.00000000000E+00 0.  1.
         21   -1    0    0  501  502 -0.00000000000E+00 -0.00000000000E+00 -0.18144872722E+01  0.18144872722E+01  0.00000000000E+00 0. -1.
         21    1    1    2  503  502 -0.16207925792E+02  0.21291230301E+02  0.10624122177E+03  0.10955916461E+03  0.00000000000E+00 0. -1.
         21    1    1    2  504  503  0.16207925792E+02 -0.21291230301E+02  0.11508739910E+04  0.11511850228E+04  0.00000000000E+00 0.  1.
<mgrwt>
<rscale>  2 0.26758426E+02</rscale>
<asrwt>0</asrwt>
<pdfrwt beam="1">  1       21 0.19368079E+00 0.26758426E+02</pdfrwt>
<pdfrwt beam="2">  1       21 0.27915290E-03 0.26758426E+02</pdfrwt>
<totfact> 0.39032375E+06</totfact>
</mgrwt>
</event>
<event>
 4    1  0.4556894E+006  0.2070554E+02  0.7546771E-02  0.1731651E+00
         21   -1    0    0  503  501  0.00000000000E+00  0.00000000000E+00  0.31062614601E+01  0.31062614601E+01  0.00000000000E+00 0. -1.
         21   -1    0    0  501  502 -0.00000000000E+00 -0.00000000000E+00 -0.16505464712E+03  0.16505464712E+03  0.00000000000E+00 0. -1.
         21    1    1    2  503  504 -0.93101752784E+01 -0.18494325378E+02 -0.46944421267E+02  0.51307875838E+02  0.00000000000E+00 0. -1.
         21    1    1    2  504  502  0.93101752784E+01  0.18494325378E+02 -0.11500396439E+03  0.11685303274E+03  0.00000000000E+00 0. -1.
<mgrwt>
<rscale>  2 0.20705541E+02</rscale>
<asrwt>0</asrwt>
<pdfrwt beam="1">  1       21 0.47788648E-03 0.20705541E+02</pdfrwt>
<pdfrwt beam="2">  1       21 0.25393017E-01 0.20705541E+02</pdfrwt>
<totfact> 0.11764570E+08</totfact>
</mgrwt>
</event>
<event>
 4    1  0.4556894E+006  0.2431672E+02  0.7546771E-02  0.1671014E+00
         21   -1    0    0  504  501  0.00000000000E+00  0.00000000000E+00  0.31265149426E+02  0.31265149426E+02  0.00000000000E+00 0. -1.
         21   -1    0    0  503  502 -0.00000000000E+00 -0.00000000000E+00 -0.55425415089E+02  0.55425415089E+02  0.00000000000E+00 0. -1.
         21    1    1    2  503  501 -0.13899859073E+02 -0.19952368619E+02  0.23101049423E+02  0.33540446929E+02  0.00000000000E+00 0. -1.
         21    1    1    2  504  502  0.13899859073E+02  0.19952368619E+02 -0.47261315086E+02  0.53150117586E+02  0.00000000000E+00 0. -1.
<mgrwt>
<rscale>  2 0.24316725E+02</rscale>
<asrwt>0</asrwt>
<pdfrwt beam="1">  1       21 0.48100231E-02 0.24316725E+02</pdfrwt>
<pdfrwt beam="2">  1       21 0.85269868E-02 0.24316725E+02</pdfrwt>
<totfact> 0.23346758E+07</totfact>
</mgrwt>
</event>
<event>
 4    1  0.4556894E+006  0.2853212E+02  0.7546771E-02  0.1614905E+00
         21   -1    0    0  504  501  0.00000000000E+00  0.00000000000E+00  0.66161783015E+01  0.66161783015E+01  0.00000000000E+00 0. -1.
         21   -1    0    0  503  502 -0.00000000000E+00 -0.00000000000E+00 -0.13041704130E+03  0.13041704130E+03  0.00000000000E+00 0. -1.
         21    1    1    2  503  501  0.28044816426E+01  0.28393954151E+02 -0.45609388806E+02  0.53798681181E+02  0.00000000000E+00 0. -1.
         21    1    1    2  504  502 -0.28044816426E+01 -0.28393954151E+02 -0.78191474193E+02  0.83234538421E+02  0.00000000000E+00 0. -1.
<mgrwt>
<rscale>  2 0.28532118E+02</rscale>
<asrwt>0</asrwt>
<pdfrwt beam="1">  1       21 0.10178736E-02 0.28532118E+02</pdfrwt>
<pdfrwt beam="2">  1       21 0.20064160E-01 0.28532118E+02</pdfrwt>
<totfact> 0.62841753E+07</totfact>
</mgrwt>
</event>
<event>
 4    1  0.4556894E+006  0.2762205E+02  0.7546771E-02  0.1625966E+00
         21   -1    0    0  502  501  0.00000000000E+00  0.00000000000E+00  0.95740441366E+02  0.95740441366E+02  0.00000000000E+00 0.  1.
         21   -1    0    0  504  502 -0.00000000000E+00 -0.00000000000E+00 -0.79732926919E+01  0.79732926919E+01  0.00000000000E+00 0.  1.
         21    1    1    2  503  501 -0.26580648413E+02 -0.75131044569E+01  0.42713029167E+02  0.50866299937E+02  0.00000000000E+00 0.  1.
         21    1    1    2  504  503  0.26580648413E+02  0.75131044569E+01  0.45054119507E+02  0.52847434121E+02  0.00000000000E+00 0.  1.
<mgrwt>
<rscale>  2 0.27622049E+02</rscale>
<asrwt>0</asrwt>
<pdfrwt beam="1">  1       21 0.14729298E-01 0.27622049E+02</pdfrwt>
<pdfrwt beam="2">  1       21 0.12266605E-02 0.27622049E+02</pdfrwt>
<totfact> 0.80352636E+07</totfact>
</mgrwt>
</event>
<event>
 4    1  0.4556894E+006  0.3225631E+02  0.7546771E-02  0.1574409E+00
         21   -1    0    0  504  501  0.00000000000E+00  0.00000000000E+00  0.11185896490E+03  0.11185896490E+03  0.00000000000E+00 0.  1.
         21   -1    0    0  503  502 -0.00000000000E+00 -0.00000000000E+00 -0.87380806904E+02  0.87380806904E+02  0.00000000000E+00 0. -1.
         21    1    1    2  503  501 -0.24671414761E+02 -0.20779575319E+02 -0.81929422336E+02  0.88050551963E+02  0.00000000000E+00 0. -1.
         21    1    1    2  504  502  0.24671414761E+02  0.20779575319E+02  0.10640758033E+03  0.11118921984E+03  0.00000000000E+00 0.  1.
<mgrwt>
<rscale>  2 0.32256309E+02</rscale>
<asrwt>0</asrwt>
<pdfrwt beam="1">  1       21 0.17209071E-01 0.32256309E+02</pdfrwt>
<pdfrwt beam="2">  1       21 0.13443201E-01 0.32256309E+02</pdfrwt>
<totfact> 0.13664038E+06</totfact>
</mgrwt>
</event>
<event>
 4    1  0.4556894E+006  0.2262027E+02  0.7546771E-02  0.1697740E+00
         21   -1    0    0  503  501  0.00000000000E+00  0.00000000000E+00  0.47789967203E+01  0.47789967203E+01  0.00000000000E+00 0. -1.
         21   -1    0    0  504  502 -0.00000000000E+00 -0.00000000000E+00 -0.11084154951E+03  0.11084154951E+03  0.00000000000E+00 0. -1.
         21    1    1    2  503  502 -0.13389839132E+02  0.18231533103E+02 -0.63698248272E+02  0.67595439374E+02  0.00000000000E+00 0. -1.
         21    1    1    2  504  501  0.13389839132E+02 -0.18231533103E+02 -0.42364304520E+02  0.48025106858E+02  0.00000000000E+00 0. -1.
<mgrwt>
<rscale>  2 0.22620269E+02</rscale>
<asrwt>0</asrwt>
<pdfrwt beam="1">  1       21 0.73523024E-03 0.22620269E+02</pdfrwt>
<pdfrwt beam="2">  1       21 0.17052547E-01 0.22620269E+02</pdfrwt>
<totfact> 0.12799449E+08</totfact>
</mgrwt>
</event>
<event>
 4    1  0.4556894E+006  0.2367794E+02  0.7546771E-02  0.1680751E+00
         21   -1    0    0  504  501  0.00000000000E+00  0.00000000000E+00  0.80342350656E+03  0.80342350656E+03  0.00000000000E+00 0. -1.
         21   -1    0    0  501  502 -0.00000000000E+00 -0.00000000000E+00 -0.25345014690E+01  0.25345014690E+01  0.00000000000E+00 0. -1.
         21    1    1    2  503  502 -0.21480066590E+02  0.99625008943E+01  0.57397907728E+02  0.62089970980E+02  0.00000000000E+00 0. -1.
         21    1    1    2  504  503  0.21480066590E+02 -0.99625008943E+01  0.74349109736E+03  0.74386803704E+03  0.00000000000E+00 0. -1.
<mgrwt>
<rscale>  2 0.23677937E+02</rscale>
<asrwt>0</asrwt>
<pdfrwt beam="1">  1       21 0.12360341E+00 0.23677937E+02</pdfrwt>
<pdfrwt beam="2">  1       21 0.38992394E-03 0.23677937E+02</pdfrwt>
<totfact> 0.69716187E+06</totfact>
</mgrwt>
</event>
<event>
 4    1  0.4556894E+006  0.3051693E+02  0.7546771E-02  0.1592444E+00
         21   -1    0    0  503  501  0.00000000000E+00  0.00000000000E+00  0.21366421938E+01  0.21366421938E+01  0.00000000000E+00 0. -1.
         21   -1    0    0  501  502 -0.00000000000E+00 -0.00000000000E+00 -0.13343205563E+04  0.13343205563E+04  0.00000000000E+00 0. -1.
         21    1    1    2  503  504  0.30258374658E+02 -0.39640390777E+01 -0.11775969083E+03  0.12164961006E+03  0.00000000000E+00 0. -1.
         21    1    1    2  504  502 -0.30258374658E+02  0.39640390777E+01 -0.12144242233E+04  0.12148075884E+04  0.00000000000E+00 0. -1.
<mgrwt>
<rscale>  2 0.30516927E+02</rscale>
<asrwt>0</asrwt>
<pdfrwt beam="1">  1       21 0.32871441E-03 0.30516927E+02</pdfrwt>
<pdfrwt beam="2">  1       21 0.20527994E+00 0.30516927E+02</pdfrwt>
<totfact> 0.26579562E+06</totfact>
</mgrwt>
</event>
<event>
 4    1  0.4556894E+006  0.3374602E+02  0.7546771E-02  0.1560027E+00
         21   -1    0    0  502  501  0.00000000000E+00  0.00000000000E+00  0.21189174558E+03  0.21189174558E+03  0.00000000000E+00 0.  1.
         21   -1    0    0  503  502 -0.00000000000E+00 -0.00000000000E+00 -0.54959853254E+01  0.54959853254E+01  0.00000000000E+00 0.  1.
         21    1    1    2  503  504  0.33550788157E+02 -0.36246803924E+01  0.87031972101E+02  0.93345368721E+02  0.00000000000E+00 0.  1.
         21    1    1    2  504  501 -0.33550788157E+02  0.36246803924E+01  0.11936378816E+03  0.12404236219E+03  0.00000000000E+00 0.  1.
<mgrwt>
<rscale>  2 0.33746017E+02</rscale>
<asrwt>0</asrwt>
<pdfrwt beam="1">  1       21 0.32598724E-01 0.33746017E+02</pdfrwt>
<pdfrwt beam="2">  1       21 0.84553637E-03 0.33746017E+02</pdfrwt>
<totfact> 0.35776026E+07</totfact>
</mgrwt>
</event>
<event>
 4    1  0.4556894E+006  0.2577358E+02  0.7546771E-02  0.1650133E+00
         21   -1    0    0  503  501  0.00000000000E+00  0.00000000000E+00  0.68851840226E+02  0.68851840226E+02  0.00000000000E+00 0. -1.
         21   -1    0    0  504  502 -0.00000000000E+00 -0.00000000000E+00 -0.96500642007E+01  0.96500642007E+01  0.00000000000E+00 0. -1.
         21    1    1    2  503  502  0.23648696149E+02 -0.10247748125E+02  0.30185724046E+02  0.39692003066E+02  0.00000000000E+00 0. -1.
         21    1    1    2  504  501 -0.23648696149E+02  0.10247748125E+02  0.29016051980E+02  0.38809901361E+02  0.00000000000E+00 0. -1.
<mgrwt>
<rscale>  2 0.25773575E+02</rscale>
<asrwt>0</asrwt>
<pdfrwt beam="1">  1       21 0.10592590E-01 0.25773575E+02</pdfrwt>
<pdfrwt beam="2">  1       21 0.14846253E-02 0.25773575E+02</pdfrwt>
<totfact> 0.10304976E+08</totfact>
</mgrwt>
</event>
<event>
 4    1  0.4556894E+006  0.2748540E+02  0.7546771E-02  0.1627672E+00
         21   -1    0    0  504  501  0.00000000000E+00  0.00000000000E+00  0.15951914505E+01  0.15951914505E+01  0.00000000000E+00 0. -1.
         21   -1    0    0  501  502 -0.00000000000E+00 -0.00000000000E+00 -0.11322672831E+04  0.11322672831E+04  0.00000000000E+00 0. -1.
         21    1    1    2  503  502 -0.19550970949E+02  0.19318557676E+02 -0.99774661183E+03  0.99812511668E+03  0.00000000000E+00 0. -1.
         21    1    1    2  504  503  0.19550970949E+02 -0.19318557676E+02 -0.13292547986E+03  0.13573735791E+03  0.00000000000E+00 0. -1.
<mgrwt>
<rscale>  2 0.27485399E+02</rscale>
<asrwt>0</asrwt>
<pdfrwt beam="1">  1       21 0.24541447E-03 0.27485399E+02</pdfrwt>
<pdfrwt beam="2">  1       21 0.17419468E+00 0.27485399E+02</pdfrwt>
<totfact> 0.61798568E+06</totfact>
</mgrwt>
</event>
<event>
 4    1  0.4556894E+006  0.2941158E+02  0.7546771E-02  0.1604685E+00
         21   -1    0    0  503  501  0.00000000000E+00  0.00000000000E+00  0.41531810156E+00  0.41531810156E+00  0.00000000000E+00 0. -1.
         21   -1    0    0  504  502 -0.00000000000E+00 -0.00000000000E+00 -0.20869961808E+04  0.20869961808E+04  0.00000000000E+00 0. -1.
         21    1    1    2  503  502 -0.27906686382E+02  0.92875249837E+01 -0.10898651850E+04  0.10902619697E+04  0.00000000000E+00 0. -1.
         21    1    1    2  504  501  0.27906686382E+02 -0.92875249837E+01 -0.99671567773E+03  0.99714952916E+03  0.00000000000E+00 0. -1.
<mgrwt>
<rscale>  2 0.29411584E+02</rscale>
<asrwt>0</asrwt>
<pdfrwt beam="1">  1       21 0.63893772E-04 0.29411584E+02</pdfrwt>
<pdfrwt beam="2">  1       21 0.32108297E+00 0.29411584E+02</pdfrwt>
<totfact> 0.72355033E+06</totfact>
</mgrwt>
</event>
<event>
 4    1  0.4556894E+006  0.2332981E+02  0.7546771E-02  0.1686219E+00
         21   -1    0    0  503  501  0.00000000000E+00  0.00000000000E+00  0.21385633121E+02  0.21385633121E+02  0.00000000000E+00 0.  1.
         21   -1    0    0  504  502 -0.00000000000E+00 -0.00000000000E+00 -0.27246036672E+02  0.27246036672E+02  0.00000000000E+00 0.  1.
         21    1    1    2  503  502 -0.22759310692E+02  0.51277320852E+01 -0.91719678715E+01  0.25068004591E+02  0.00000000000E+00 0.  1.
         21    1    1    2  504  501  0.22759310692E+02 -0.51277320852E+01  0.33115643200E+01  0.23563665202E+02  0.00000000000E+00 0.  1.
<mgrwt>
<rscale>  2 0.23329806E+02</rscale>
<asrwt>0</asrwt>
<pdfrwt beam="1">  1       21 0.32900974E-02 0.23329806E+02</pdfrwt>
<pdfrwt beam="2">  1       21 0.41916979E-02 0.23329806E+02</pdfrwt>
<totfact> 0.13181968E+08</totfact>
</mgrwt>
</event>
<event>
 4    1  0.4556894E+006  0.2616580E+02  0.7546771E-02  0.1644800E+00
         21   -1    0    0  503  501  0.00000000000E+00  0.00000000000E+00  0.16394508666E+03  0.16394508666E+03  0.00000000000E+00 0.  1.
         21   -1    0    0  504  502 -0.00000000000E+00 -0.00000000000E+00 -0.76071736583E+01  0.76071736583E+01  0.00000000000E+00 0.  1.
         21    1    1    2  503  502 -0.23011769468E+02 -0.12454228696E+02  0.13577532156E+03  0.13827359578E+03  0.00000000000E+00 0.  1.
         21    1    1    2  504  501  0.23011769468E+02  0.12454228696E+02  0.20562591447E+02  0.33278664539E+02  0.00000000000E+00 0.  1.
<mgrwt>
<rscale>  2 0.26165805E+02</rscale>
<asrwt>0</asrwt>
<pdfrwt beam="1">  1       21 0.25222318E-01 0.26165805E+02</pdfrwt>
<pdfrwt beam="2">  1       21 0.11703345E-02 0.26165805E+02</pdfrwt>
<totfact> 0.33222681E+07</totfact>
</mgrwt>
</event>
<event>
 4    1  0.4556894E+006  0.2188325E+02  0.7546771E-02  0.1710279E+00
         21   -1    0    0  502  501  0.00000000000E+00  0.00000000000E+00  0.26347084319E+03  0.26347084319E+03  0.00000000000E+00 0. -1.
         21   -1    0    0  503  502 -0.00000000000E+00 -0.00000000000E+00 -0.30654776617E+01  0.30654776617E+01  0.00000000000E+00 0. -1.
         21    1    1    2  503  504 -0.13488692360E+02  0.17231715103E+02  0.45173409524E+02  0.50194758242E+02  0.00000000000E+00 0. -1.
         21    1    1    2  504  501  0.13488692360E+02 -0.17231715103E+02  0.21523195601E+03  0.21634156261E+03  0.00000000000E+00 0. -1.
<mgrwt>
<rscale>  2 0.21883254E+02</rscale>
<asrwt>0</asrwt>
<pdfrwt beam="1">  1       21 0.40533958E-01 0.21883254E+02</pdfrwt>
<pdfrwt beam="2">  1       21 0.47161215E-03 0.21883254E+02</pdfrwt>
<totfact> 0.51776102E+07</totfact>
</mgrwt>
</event>
<event>
 4    1  0.4556894E+006  0.2694233E+02  0.7546771E-02  0.1634575E+00
         21   -1    0    0  504  501  0.00000000000E+00  0.00000000000E+00  0.35714163919E+02  0.35714163919E+02  0.00000000000E+00 0. -1.
         21   -1    0    0  501  502 -0.00000000000E+00 -0.00000000000E+00 -0.15908822419E+03  0.15908822419E+03  0.00000000000E+00 0. -1.
         21    1    1    2  503  502 -0.28417988443E+01 -0.26792039180E+02 -0.15265374426E+03  0.15501307951E+03  0.00000000000E+00 0. -1.
         21    1    1    2  504  503  0.28417988443E+01  0.26792039180E+02  0.29279683988E+02  0.39789308596E+02  0.00000000000E+00 0. -1.
<mgrwt>
<rscale>  2 0.26942331E+02</rscale>
<asrwt>0</asrwt>
<pdfrwt beam="1">  1       21 0.54944867E-02 0.26942331E+02</pdfrwt>
<pdfrwt beam="2">  1       21 0.24475112E-01 0.26942331E+02</pdfrwt>
<totfact> 0.31678624E+06</totfact>
</mgrwt>
</event>
<event>
 4    1  0.4556894E+006  0.2682429E+02  0.7546771E-02  0.1636102E+00
         21   -1    0    0  504  501  0.00000000000E+00  0.00000000000E+00  0.10067367293E+03  0.10067367293E+03  0.00000000000E+00 0.  1.
         21   -1    0    0  503  502 -0.00000000000E+00 -0.00000000000E+00 -0.75167448262E+01  0.75167448262E+01  0.00000000000E+00 0.  1.
         21    1    1    2  503  501  0.22774925173E+02  0.14171990876E+02  0.34585329464E+02  0.43768568130E+02  0.00000000000E+00 0.  1.
         21    1    1    2  504  502 -0.22774925173E+02 -0.14171990876E+02  0.58571598644E+02  0.64421849630E+02  0.00000000000E+00 0.  1.
<mgrwt>
<rscale>  2 0.26824290E+02</rscale>
<asrwt>0</asrwt>
<pdfrwt beam="1">  1       21 0.15488256E-01 0.26824290E+02</pdfrwt>
<pdfrwt beam="2">  1       21 0.11564223E-02 0.26824290E+02</pdfrwt>
<totfact> 0.80038912E+07</totfact>
</mgrwt>
</event>
<event>
 4    1  0.4556894E+006  0.2089202E+02  0.7546771E-02  0.1728150E+00
         21   -1    0    0  504  501  0.00000000000E+00  0.00000000000E+00  0.20077686582E+02  0.20077686582E+02  0.00000000000E+00 0.  1.
         21   -1    0    0  503  502 -0.00000000000E+00 -0.00000000000E+00 -0.21917051259E+02  0.21917051259E+02  0.00000000000E+00 0.  1.
         21    1    1    2  503  501 -0.15212532356E+02 -0.14319753824E+02  0.97083406477E+00  0.20914564520E+02  0.00000000000E+00 0.  1.
         21    1    1    2  504  502  0.15212532356E+02  0.14319753824E+02 -0.28101987420E+01  0.21080173321E+02  0.00000000000E+00 0.  1.
<mgrwt>
<rscale>  2 0.20892020E+02</rscale>
<asrwt>0</asrwt>
<pdfrwt beam="1">  1       21 0.30888749E-02 0.20892020E+02</pdfrwt>
<pdfrwt beam="2">  1       21 0.33718540E-02 0.20892020E+02</pdfrwt>
<totfact> 0.19776351E+08</totfact>
</mgrwt>
</event>
<event>
 4    1  0.4556894E+006  0.2135367E+02  0.7546771E-02  0.1719676E+00
         21   -1    0    0  503  501  0.00000000000E+00  0.00000000000E+00  0.53710967048E+01  0.53710967048E+01  0.00000000000E+00 0. -1.
         21   -1    0    0  504  502 -0.00000000000E+00 -0.00000000000E+00 -0.47229662580E+03  0.47229662580E+03  0.00000000000E+00 0. -1.
         21    1    1    2  503  502  0.17630522343E+02 -0.12047572245E+02 -0.44976907606E+03  0.45027569455E+03  0.00000000000E+00 0. -1.
         21    1    1    2  504  501 -0.17630522343E+02  0.12047572245E+02 -0.17156453032E+02  0.27392027960E+02  0.00000000000E+00 0. -1.
<mgrwt>
<rscale>  2 0.21353672E+02</rscale>
<asrwt>0</asrwt>
<pdfrwt beam="1">  1       21 0.82632246E-03 0.21353672E+02</pdfrwt>
<pdfrwt beam="2">  1       21 0.72661029E-01 0.21353672E+02</pdfrwt>
<totfact> 0.71344826E+06</totfact>
</mgrwt>
</event>
<event>
 4    1  0.4556894E+006  0.2710002E+02  0.7546771E-02  0.1632550E+00
         21   -1    0    0  504  501  0.00000000000E+00  0.00000000000E+00  0.27022319350E+02  0.27022319350E+02  0.00000000000E+00 0.  1.
         21   -1    0    0  503  502 -0.00000000000E+00 -0.00000000000E+00 -0.65244546962E+02  0.65244546962E+02  0.00000000000E+00 0.  1.
         21    1    1    2  503  501  0.17423519132E+01 -0.27043949567E+02  0.16127250737E+02  0.31535681611E+02  0.00000000000E+00 0.  1.
         21    1    1    2  504  502 -0.17423519132E+01  0.27043949567E+02 -0.54349478349E+02  0.60731184701E+02  0.00000000000E+00 0.  1.
<mgrwt>
<rscale>  2 0.27100018E+02</rscale>
<asrwt>0</asrwt>
<pdfrwt beam="1">  1       21 0.41572799E-02 0.27100018E+02</pdfrwt>
<pdfrwt beam="2">  1       21 0.10037622E-01 0.27100018E+02</pdfrwt>
<totfact> 0.22997485E+07</totfact>
</mgrwt>
</event>
<event>
 4    1  0.4556894E+006  0.2055721E+02  0.7546771E-02  0.1734469E+00
         21   -1    0    0  504  501  0.00000000000E+00  0.00000000000E+00  0.10845878232E+02  0.10845878232E+02  0.00000000000E+00 0. -1.
         21   -1    0    0  503  502 -0.00000000000E+00 -0.00000000000E+00 -0.44842941417E+02  0.44842941417E+02  0.00000000000E+00 0. -1.
         21    1    1    2  503  501 -0.89542004624E+01  0.18504620401E+02 -0.69166652140E+01  0.21689604418E+02  0.00000000000E+00 0. -1.
         21    1    1    2  504  502  0.89542004624E+01 -0.18504620401E+02 -0.27080397970E+02  0.33999215231E+02  0.00000000000E+00 0. -1.
<mgrwt>
<rscale>  2 0.20557205E+02</rscale>
<asrwt>0</asrwt>
<pdfrwt beam="1">  1       21 0.16685966E-02 0.20557205E+02</pdfrwt>
<pdfrwt beam="2">  1       21 0.68989141E-02 0.20557205E+02</pdfrwt>
<totfact> 0.16303756E+08</totfact>
</mgrwt>
</event>
<event>
 4    1  0.4556894E+006  0.2005440E+02  0.7546771E-02  0.1744248E+00
         21   -1    0    0  502  501  0.00000000000E+00  0.00000000000E+00  0.29526016311E+02  0.29526016311E+02  0.00000000000E+00 0. -1.
         21   -1    0    0  503  502 -0.00000000000E+00 -0.00000000000E+00 -0.11454023098E+03  0.11454023098E+03  0.00000000000E+00 0.  1.
         21    1    1    2  503  504  0.69384137298E+01  0.18815886042E+02 -0.11012160125E+03  0.11193277543E+03  0.00000000000E+00 0.  1.
         21    1    1    2  504  501 -0.69384137298E+01 -0.18815886042E+02  0.25107386586E+02  0.32133471861E+02  0.00000000000E+00 0. -1.
<mgrwt>
<rscale>  2 0.20054405E+02</rscale>
<asrwt>0</asrwt>
<pdfrwt beam="1">  1       21 0.45424640E-02 0.20054405E+02</pdfrwt>
<pdfrwt beam="2">  1       21 0.17621574E-01 0.20054405E+02</pdfrwt>
<totfact> 0.72778133E+06</totfact>
</mgrwt>
</event>
<event>
 4    1  0.4556894E+006  0.2861283E+02  0.7546771E-02  0.1613948E+00
         21   -1    0    0  504  501  0.00000000000E+00  0.00000000000E+00  0.10231667041E+03  0.10231667041E+03  0.00000000000E+00 0.  1.
         21   -1    0    0  503  502 -0.00000000000E+00 -0.00000000000E+00 -0.33498695717E+03  0.33498695717E+03  0.00000000000E+00 0. -1.
         21    1    1    2  503  501 -0.59319754961E+01  0.27991175673E+02 -0.33235979133E+03  0.33358915621E+03  0.00000000000E+00 0. -1.
         21    1    1    2  504  502  0.59319754961E+01 -0.27991175673E+02  0.99689504576E+02  0.10371447137E+03  0.00000000000E+00 0.  1.
<mgrwt>
<rscale>  2 0.28612834E+02</rscale>
<asrwt>0</asrwt>
<pdfrwt beam="1">  1       21 0.15741026E-01 0.28612834E+02</pdfrwt>
<pdfrwt beam="2">  1       21 0.51536456E-01 0.28612834E+02</pdfrwt>
<totfact> 0.13706086E+05</totfact>
</mgrwt>
</event>
<event>
 4    1  0.4556894E+006  0.2027334E+02  0.7546771E-02  0.1739946E+00
         21   -1    0    0  504  501  0.00000000000E+00  0.00000000000E+00  0.80448048451E+03  0.80448048451E+03  0.00000000000E+00 0. -1.
         21   -1    0    0  503  502 -0.00000000000E+00 -0.00000000000E+00 -0.26843209493E+01  0.26843209493E+01  0.00000000000E+00 0.  1.
         21    1    1    2  503  501  0.13522341907E+02  0.15104792045E+02  0.76404887816E+03  0.76431779823E+03  0.00000000000E+00 0. -1.
         21    1    1    2  504  502 -0.13522341907E+02 -0.15104792045E+02  0.37747285396E+02  0.42847007225E+02  0.00000000000E+00 0.  1.
<mgrwt>
<rscale>  2 0.20273344E+02</rscale>
<asrwt>0</asrwt>
<pdfrwt beam="1">  1       21 0.12376604E+00 0.20273344E+02</pdfrwt>
<pdfrwt beam="2">  1       21 0.41297309E-03 0.20273344E+02</pdfrwt>
<totfact> 0.62449132E+06</totfact>
</mgrwt>
</event>
<event>
 4    1  0.4556894E+006  0.2604357E+02  0.7546771E-02  0.1646450E+00
         21   -1    0    0  503  501  0.00000000000E+00  0.00000000000E+00  0.21986920769E+03  0.21986920769E+03  0.00000000000E+00 0. -1.
         21   -1    0    0  504  502 -0.00000000000E+00 -0.00000000000E+00 -0.28450663043E+02  0.28450663043E+02  0.00000000000E+00 0.  1.
         21    1    1    2  503  502 -0.12611586906E+02  0.22786293357E+02 -0.21526332640E+02  0.33788315823E+02  0.00000000000E+00 0.  1.
         21    1    1    2  504  501  0.12611586906E+02 -0.22786293357E+02  0.21294487729E+03  0.21453155491E+03  0.00000000000E+00 0. -1.
<mgrwt>
<rscale>  2 0.26043565E+02</rscale>
<asrwt>0</asrwt>
<pdfrwt beam="1">  1       21 0.33826031E-01 0.26043565E+02</pdfrwt>
<pdfrwt beam="2">  1       21 0.43770252E-02 0.26043565E+02</pdfrwt>
<totfact> 0.25170974E+06</totfact>
</mgrwt>
</event>
<event>
 4    1  0.4556894E+006  0.2105043E+02  0.7546771E-02  0.1725211E+00
         21   -1    0    0  503  501  0.00000000000E+00  0.00000000000E+00  0.70641867225E+03  0.70641867225E+03  0.00000000000E+00 0.  1.
         21   -1    0    0  501  502 -0.00000000000E+00 -0.00000000000E+00 -0.73781447480E+00  0.73781447480E+00  0.00000000000E+00 0.  1.
         21    1    1    2  503  504  0.15584618329E+02 -0.14150624220E+02  0.48969706439E+03  0.49014929905E+03  0.00000000000E+00 0.  1.
         21    1    1    2  504  502 -0.15584618329E+02  0.14150624220E+02  0.21598379339E+03  0.21700718767E+03  0.00000000000E+00 0.  1.
<mgrwt>
<rscale>  2 0.21050427E+02</rscale>
<asrwt>0</asrwt>
<pdfrwt beam="1">  1       21 0.10867925E+00 0.21050427E+02</pdfrwt>
<pdfrwt beam="2">  1       21 0.11351048E-03 0.21050427E+02</pdfrwt>
<totfact> 0.54130721E+07</totfact>
</mgrwt>
</event>
<event>
 4    1  0.4556894E+006  0.2023873E+02  0.7546771E-02  0.1740622E+00
         21   -1    0    0  503  501  0.00000000000E+00  0.00000000000E+00  0.69769341054E+01  0.69769341054E+01  0.00000000000E+00 0. -1.
         21   -1    0    0  504  502 -0.00000000000E+00 -0.00000000000E+00 -0.35947467437E+03  0.35947467437E+03  0.00000000000E+00 0.  1.
         21    1    1    2  503  502 -0.20114968500E+02 -0.22348203721E+01 -0.86516252546E+01  0.22010383900E+02  0.00000000000E+00 0. -1.
         21    1    1    2  504  501  0.20114968500E+02  0.22348203721E+01 -0.34384611501E+03  0.34444122458E+03  0.00000000000E+00 0.  1.
<mgrwt>
<rscale>  2 0.20238735E+02</rscale>
<asrwt>0</asrwt>
<pdfrwt beam="1">  1       21 0.10733742E-02 0.20238735E+02</pdfrwt>
<pdfrwt beam="2">  1       21 0.55303811E-01 0.20238735E+02</pdfrwt>
<totfact> 0.82733461E+06</totfact>
</mgrwt>
</event>
<event>
 4    1  0.4556894E+006  0.3766705E+02  0.7546771E-02  0.1526117E+00
         21   -1    0    0  503  501  0.00000000000E+00  0.00000000000E+00  0.22602604685E+03  0.22602604685E+03  0.00000000000E+00 0. -1.
         21   -1    0    0  504  502 -0.00000000000E+00 -0.00000000000E+00 -0.13478697699E+02  0.13478697699E+02  0.00000000000E+00 0. -1.
         21    1    1    2  503  502  0.36797664765E+02 -0.80460377748E+01  0.18740619781E+02  0.42071578123E+02  0.00000000000E+00 0. -1.
         21    1    1    2  504  501 -0.36797664765E+02  0.80460377748E+01  0.19380672937E+03  0.19743316643E+03  0.00000000000E+00 0. -1.
<mgrwt>
<rscale>  2 0.37667053E+02</rscale>
<asrwt>0</asrwt>
<pdfrwt beam="1">  1       21 0.34773235E-01 0.37667053E+02</pdfrwt>
<pdfrwt beam="2">  1       21 0.20736460E-02 0.37667053E+02</pdfrwt>
<totfact> 0.81193089E+06</totfact>
</mgrwt>
</event>
<event>
 4    1  0.4556894E+006  0.2140919E+02  0.7546771E-02  0.1718675E+00
         21   -1    0    0  502  501  0.00000000000E+00  0.00000000000E+00  0.21059124679E+03  0.21059124679E+03  0.00000000000E+00 0. -1.
         21   -1    0    0  503  502 -0.00000000000E+00 -0.00000000000E+00 -0.12456304469E+02  0.12456304469E+02  0.00000000000E+00 0. -1.
         21    1    1    2  503  504 -0.12270757639E+02 -0.17543720188E+02 -0.22455127822E+01  0.21526633242E+02  0.00000000000E+00 0. -1.
         21    1    1    2  504  501  0.12270757639E+02  0.17543720188E+02  0.20038045510E+03  0.20152091802E+03  0.00000000000E+00 0. -1.
<mgrwt>
<rscale>  2 0.21409195E+02</rscale>
<asrwt>0</asrwt>
<pdfrwt beam="1">  1       21 0.32398651E-01 0.21409195E+02</pdfrwt>
<pdfrwt beam="2">  1       21 0.19163547E-02 0.21409195E+02</pdfrwt>
<totfact> 0.95681335E+06</totfact>
</mgrwt>
</event>
<event>
 4    1  0.4556894E+006  0.4008289E+02  0.7546771E-02  0.1507602E+00
         21   -1    0    0  504  501  0.00000000000E+00  0.00000000000E+00  0.30817102636E+03  0.30817102636E+03  0.00000000000E+00 0.  1.
         21   -1    0    0  503  502 -0.00000000000E+00 -0.00000000000E+00 -0.69810576411E+01  0.69810576411E+01  0.00000000000E+00 0. -1.
         21    1    1    2  503  501 -0.33899338371E+02 -0.21388609366E+02  0.22988547579E+03  0.23335374377E+03  0.00000000000E+00 0.  1.
         21    1    1    2  504  502  0.33899338371E+02  0.21388609366E+02  0.71304492932E+02  0.81798340233E+02  0.00000000000E+00 0. -1.
<mgrwt>
<rscale>  2 0.40082886E+02</rscale>
<asrwt>0</asrwt>
<pdfrwt beam="1">  1       21 0.47410917E-01 0.40082886E+02</pdfrwt>
<pdfrwt beam="2">  1       21 0.10740091E-02 0.40082886E+02</pdfrwt>
<totfact> 0.12456314E+07</totfact>
</mgrwt>
</event>
<event>
 4    1  0.4556894E+006  0.2281440E+02  0.7546771E-02  0.1694536E+00
         21   -1    0    0  503  501  0.00000000000E+00  0.00000000000E+00  0.48887873514E+03  0.48887873514E+03  0.00000000000E+00 0. -1.
         21   -1    0    0  504  502 -0.00000000000E+00 -0.00000000000E+00 -0.12121429398E+02  0.12121429398E+02  0.00000000000E+00 0.  1.
         21    1    1    2  503  502  0.22741788498E+02  0.18188103207E+01 -0.86740151471E+00  0.22830886984E+02  0.00000000000E+00 0.  1.
         21    1    1    2  504  501 -0.22741788498E+02 -0.18188103207E+01  0.47762470726E+03  0.47816927756E+03  0.00000000000E+00 0. -1.
<mgrwt>
<rscale>  2 0.22814404E+02</rscale>
<asrwt>0</asrwt>
<pdfrwt beam="1">  1       21 0.75212098E-01 0.22814404E+02</pdfrwt>
<pdfrwt beam="2">  1       21 0.18648357E-02 0.22814404E+02</pdfrwt>
<totfact> 0.19628797E+06</totfact>
</mgrwt>
</event>
<event>
 4    1  0.4556894E+006  0.4721177E+02  0.7546771E-02  0.1460988E+00
         21   -1    0    0  503  501  0.00000000000E+00  0.00000000000E+00  0.26867131810E+02  0.26867131810E+02  0.00000000000E+00 0. -1.
         21   -1    0    0  504  502 -0.00000000000E+00 -0.00000000000E+00 -0.37437605762E+03  0.37437605762E+03  0.00000000000E+00 0.  1.
         21    1    1    2  503  502 -0.70488086868E+01  0.46682606447E+02 -0.35075675129E+03  0.35391983559E+03  0.00000000000E+00 0.  1.
         21    1    1    2  504  501  0.70488086868E+01 -0.46682606447E+02  0.32478254767E+01  0.47323353843E+02  0.00000000000E+00 0. -1.
<mgrwt>
<rscale>  2 0.47211772E+02</rscale>
<asrwt>0</asrwt>
<pdfrwt beam="1">  1       21 0.41334050E-02 0.47211772E+02</pdfrwt>
<pdfrwt beam="2">  1       21 0.57596315E-01 0.47211772E+02</pdfrwt>
<totfact> 0.10275684E+06</totfact>
</mgrwt>
</event>
<event>
 4    1  0.4556894E+006  0.2658603E+02  0.7546771E-02  0.1639213E+00
         21   -1    0    0  502  501  0.00000000000E+00  0.00000000000E+00  0.19357991261E+01  0.19357991261E+01  0.00000000000E+00 0.  1.
         21   -1    0    0  504  502 -0.00000000000E+00 -0.00000000000E+00 -0.74970634148E+03  0.74970634148E+03  0.00000000000E+00 0.  1.
         21    1    1    2  503  501  0.25161379209E+02  0.85861496826E+01 -0.10471492518E+03  0.10803718122E+03  0.00000000000E+00 0.  1.
         21    1    1    2  504  503 -0.25161379209E+02 -0.85861496826E+01 -0.64305561718E+03  0.64360495939E+03  0.00000000000E+00 0.  1.
<mgrwt>
<rscale>  2 0.26586030E+02</rscale>
<asrwt>0</asrwt>
<pdfrwt beam="1">  1       21 0.29781541E-03 0.26586030E+02</pdfrwt>
<pdfrwt beam="2">  1       21 0.11533938E+00 0.26586030E+02</pdfrwt>
<totfact> 0.12316724E+07</totfact>
</mgrwt>
</event>
<event>
 4    1  0.4556894E+006  0.2163827E+02  0.7546771E-02  0.1714584E+00
         21   -1    0    0  503  501  0.00000000000E+00  0.00000000000E+00  0.27386060144E+02  0.27386060144E+02  0.00000000000E+00 0.  1.
         21   -1    0    0  504  502 -0.00000000000E+00 -0.00000000000E+00 -0.56573800307E+02  0.56573800307E+02  0.00000000000E+00 0. -1.
         21    1    1    2  503  502  0.13083234015E+02 -0.17234956450E+02  0.20473723053E+02  0.29789059599E+02  0.00000000000E+00 0.  1.
         21    1    1    2  504  501 -0.13083234015E+02  0.17234956450E+02 -0.49661463216E+02  0.54170800852E+02  0.00000000000E+00 0. -1.
<mgrwt>
<rscale>  2 0.21638270E+02</rscale>
<asrwt>0</asrwt>
<pdfrwt beam="1">  1       21 0.42132401E-02 0.21638270E+02</pdfrwt>
<pdfrwt beam="2">  1       21 0.87036615E-02 0.21638270E+02</pdfrwt>
<totfact> 0.27098179E+07</totfact>
</mgrwt>
</event>
<event>
 4    1  0.4556894E+006  0.2031572E+02  0.7546771E-02  0.1739121E+00
         21   -1    0    0  503  501  0.00000000000E+00  0.00000000000E+00  0.13493326335E+03  0.13493326335E+03  0.00000000000E+00 0. -1.
         21   -1    0    0  504  502 -0.00000000000E+00 -0.00000000000E+00 -0.68742763733E+01  0.68742763733E+01  0.00000000000E+00 0.  1.
         21    1    1    2  503  502  0.98299449191E+01 -0.17779223471E+02  0.11205353408E+02  0.23201046298E+02  0.00000000000E+00 0.  1.
         21    1    1    2  504  501 -0.98299449191E+01  0.17779223471E+02  0.11685363357E+03  0.11860649343E+03  0.00000000000E+00 0. -1.
<mgrwt>
<rscale>  2 0.20315723E+02</rscale>
<asrwt>0</asrwt>
<pdfrwt beam="1">  1       21 0.20758962E-01 0.20315723E+02</pdfrwt>
<pdfrwt beam="2">  1       21 0.10575811E-02 0.20315723E+02</pdfrwt>
<totfact> 0.51390623E+07</totfact>
</mgrwt>
</event>
<event>
 4    1  0.4556894E+006  0.2495453E+02  0.7546771E-02  0.1661656E+00
         21   -1    0    0  503  501  0.00000000000E+00  0.00000000000E+00  0.37809922554E+01  0.37809922554E+01  0.00000000000E+00 0. -1.
         21   -1    0    0  504  502 -0.00000000000E+00 -0.00000000000E+00 -0.90480457085E+03  0.90480457085E+03  0.00000000000E+00 0. -1.
         21    1    1    2  503  502  0.16219668769E+02 -0.18964459189E+02 -0.39641187205E+02  0.46841777190E+02  0.00000000000E+00 0. -1.
         21    1    1    2  504  501 -0.16219668769E+02  0.18964459189E+02 -0.86138239139E+03  0.86174378592E+03  0.00000000000E+00 0. -1.
<mgrwt>
<rscale>  2 0.24954526E+02</rscale>
<asrwt>0</asrwt>
<pdfrwt beam="1">  1       21 0.58169089E-03 0.24954526E+02</pdfrwt>
<pdfrwt beam="2">  1       21 0.13920076E+00 0.24954526E+02</pdfrwt>
<totfact> 0.29540999E+06</totfact>
</mgrwt>
</event>
<event>
 4    1  0.4556894E+006  0.2504359E+02  0.7546771E-02  0.1660377E+00
         21   -1    0    0  502  501  0.00000000000E+00  0.00000000000E+00  0.13244195707E+02  0.13244195707E+02  0.00000000000E+00 0. -1.
         21   -1    0    0  504  502 -0.00000000000E+00 -0.00000000000E+00 -0.68491733382E+02  0.68491733382E+02  0.00000000000E+00 0. -1.
         21    1    1    2  503  501  0.22991961167E+02 -0.99272856527E+01 -0.49208859358E+01  0.25522468476E+02  0.00000000000E+00 0. -1.
         21    1    1    2  504  503 -0.22991961167E+02  0.99272856527E+01 -0.50326651739E+02  0.56213460612E+02  0.00000000000E+00 0. -1.
<mgrwt>
<rscale>  2 0.25043588E+02</rscale>
<asrwt>0</asrwt>
<pdfrwt beam="1">  1       21 0.20375686E-02 0.25043588E+02</pdfrwt>
<pdfrwt beam="2">  1       21 0.10537190E-01 0.25043588E+02</pdfrwt>
<totfact> 0.63520913E+07</totfact>
</mgrwt>
</event>
<event>
 4    1  0.4556894E+006  0.2231793E+02  0.7546771E-02  0.1702811E+00
         21   -1    0    0  503  501  0.00000000000E+00  0.00000000000E+00  0.15922102722E+03  0.15922102722E+03  0.00000000000E+00 0. -1.
         21   -1    0    0  501  502 -0.00000000000E+00 -0.00000000000E+00 -0.51468824433E+01  0.51468824433E+01  0.00000000000E+00 0. -1.
         21    1    1    2  503  504 -0.79539287910E+00  0.22303752597E+02  0.12850526380E+03  0.13042888045E+03  0.00000000000E+00 0. -1.
         21    1    1    2  504  502  0.79539287910E+00 -0.22303752597E+02  0.25568880968E+02  0.33939029210E+02  0.00000000000E+00 0. -1.
<mgrwt>
<rscale>  2 0.22317931E+02</rscale>
<asrwt>0</asrwt>
<pdfrwt beam="1">  1       21 0.24495539E-01 0.22317931E+02</pdfrwt>
<pdfrwt beam="2">  1       21 0.79182819E-03 0.22317931E+02</pdfrwt>
<totfact> 0.60647965E+07</totfact>
</mgrwt>
</event>
<event>
 4    1  0.4556894E+006  0.3013991E+02  0.7546771E-02  0.1596547E+00
         21   -1    0    0  503  501  0.00000000000E+00  0.00000000000E+00  0.17544448816E+02  0.17544448816E+02  0.00000000000E+00 0.  1.
         21   -1    0    0  504  502 -0.00000000000E+00 -0.00000000000E+00 -0.10378971958E+03  0.10378971958E+03  0.00000000000E+00 0.  1.
         21    1    1    2  503  502 -0.28924636558E+02 -0.84722813937E+01 -0.17620115271E+00  0.30140424663E+02  0.00000000000E+00 0.  1.
         21    1    1    2  504  501  0.28924636558E+02  0.84722813937E+01 -0.86069069607E+02  0.91193743728E+02  0.00000000000E+00 0.  1.
<mgrwt>
<rscale>  2 0.30139910E+02</rscale>
<asrwt>0</asrwt>
<pdfrwt beam="1">  1       21 0.26991459E-02 0.30139910E+02</pdfrwt>
<pdfrwt beam="2">  1       21 0.15967649E-01 0.30139910E+02</pdfrwt>
<totfact> 0.21117205E+07</totfact>
</mgrwt>
</event>
<event>
 4    1  0.4556894E+006  0.4766797E+02  0.7546771E-02  0.1458342E+00
         21   -1    0    0  504  501  0.00000000000E+00  0.00000000000E+00  0.19224407895E+02  0.19224407895E+02  0.00000000000E+00 0.  1.
         21   -1    0    0  501  502 -0.00000000000E+00 -0.00000000000E+00 -0.27207373114E+03  0.27207373114E+03  0.00000000000E+00 0. -1.
         21    1    1    2  503  502  0.12198142936E+02 -0.46080805435E+02 -0.23595974283E+03  0.24072647457E+03  0.00000000000E+00 0. -1.
         21    1    1    2  504  503 -0.12198142936E+02  0.46080805435E+02 -0.16889580416E+02  0.50571664470E+02  0.00000000000E+00 0.  1.
<mgrwt>
<rscale>  2 0.47667970E+02</rscale>
<asrwt>0</asrwt>
<pdfrwt beam="1">  1       21 0.29576013E-02 0.47667970E+02</pdfrwt>
<pdfrwt beam="2">  1       21 0.41857496E-01 0.47667970E+02</pdfrwt>
<totfact> 0.33282073E+06</totfact>
</mgrwt>
</event>
<event>
 4    1  0.4556894E+006  0.2160543E+02  0.7546771E-02  0.1715166E+00
         21   -1    0    0  504  501  0.00000000000E+00  0.00000000000E+00  0.19975024219E+02  0.19975024219E+02  0.00000000000E+00 0. -1.
         21   -1    0    0  503  502 -0.00000000000E+00 -0.00000000000E+00 -0.37616837489E+02  0.37616837489E+02  0.00000000000E+00 0.  1.
         21    1    1    2  503  501  0.10852846446E+02 -0.18681822718E+02 -0.26543025784E+02  0.34224654765E+02  0.00000000000E+00 0.  1.
         21    1    1    2  504  502 -0.10852846446E+02  0.18681822718E+02  0.89012125134E+01  0.23367206942E+02  0.00000000000E+00 0. -1.
<mgrwt>
<rscale>  2 0.21605434E+02</rscale>
<asrwt>0</asrwt>
<pdfrwt beam="1">  1       21 0.30730807E-02 0.21605434E+02</pdfrwt>
<pdfrwt beam="2">  1       21 0.57872057E-02 0.21605434E+02</pdfrwt>
<totfact> 0.85862030E+07</totfact>
</mgrwt>
</event>
<event>
 4    1  0.4556894E+006  0.2671644E+02  0.7546771E-02  0.1637505E+00
         21   -1    0    0  504  501  0.00000000000E+00  0.00000000000E+00  0.49397007917E+01  0.49397007917E+01  0.00000000000E+00 0.  1.
         21   -1    0    0  503  502 -0.00000000000E+00 -0.00000000000E+00 -0.33981853148E+03  0.33981853148E+03  0.00000000000E+00 0. -1.
         21    1    1    2  503  501  0.16882460323E+01  0.26663041752E+02 -0.36751005030E+02  0.45435716577E+02  0.00000000000E+00 0.  1.
         21    1    1    2  504  502 -0.16882460323E+01 -0.26663041752E+02 -0.29812782566E+03  0.29932251570E+03  0.00000000000E+00 0. -1.
<mgrwt>
<rscale>  2 0.26716436E+02</rscale>
<asrwt>0</asrwt>
<pdfrwt beam="1">  1       21 0.75995389E-03 0.26716436E+02</pdfrwt>
<pdfrwt beam="2">  1       21 0.52279779E-01 0.26716436E+02</pdfrwt>
<totfact> 0.16298998E+07</totfact>
</mgrwt>
</event>
<event>
 4    1  0.4556894E+006  0.3263637E+02  0.7546771E-02  0.1570651E+00
         21   -1    0    0  504  501  0.00000000000E+00  0.00000000000E+00  0.16778753039E+03  0.16778753039E+03  0.00000000000E+00 0. -1.
         21   -1    0    0  503  502 -0.00000000000E+00 -0.00000000000E+00 -0.79296891995E+01  0.79296891995E+01  0.00000000000E+00 0. -1.
         21    1    1    2  503  501 -0.75538898380E+01  0.31750144702E+02  0.11916651176E+03  0.12355480754E+03  0.00000000000E+00 0. -1.
         21    1    1    2  504  502  0.75538898380E+01 -0.31750144702E+02  0.40691329427E+02  0.52162412050E+02  0.00000000000E+00 0. -1.
<mgrwt>
<rscale>  2 0.32636374E+02</rscale>
<asrwt>0</asrwt>
<pdfrwt beam="1">  1       21 0.25813464E-01 0.32636374E+02</pdfrwt>
<pdfrwt beam="2">  1       21 0.12199523E-02 0.32636374E+02</pdfrwt>
<totfact> 0.31270012E+07</totfact>
</mgrwt>
</event>
<event>
 4    1  0.4556894E+006  0.2173479E+02  0.7546771E-02  0.1712879E+00
         21   -1    0    0  503  501  0.00000000000E+00  0.00000000000E+00  0.28449725247E+01  0.28449725247E+01  0.00000000000E+00 0.  1.
         21   -1    0    0  504  502 -0.00000000000E+00 -0.00000000000E+00 -0.38182656466E+03  0.38182656466E+03  0.00000000000E+00 0.  1.
         21    1    1    2  503  502  0.21734597952E+02  0.91202203935E-01 -0.33407853517E+03  0.33478480959E+03  0.00000000000E+00 0.  1.
         21    1    1    2  504  501 -0.21734597952E+02 -0.91202203935E-01 -0.44903056964E+02  0.49886727600E+02  0.00000000000E+00 0.  1.
<mgrwt>
<rscale>  2 0.21734789E+02</rscale>
<asrwt>0</asrwt>
<pdfrwt beam="1">  1       21 0.43768850E-03 0.21734789E+02</pdfrwt>
<pdfrwt beam="2">  1       21 0.58742492E-01 0.21734789E+02</pdfrwt>
<totfact> 0.28154252E+07</totfact>
</mgrwt>
</event>
<event>
 4    1  0.4556894E+006  0.3377119E+02  0.7546771E-02  0.1559791E+00
         21   -1    0    0  503  501  0.00000000000E+00  0.00000000000E+00  0.91280043281E+02  0.91280043281E+02  0.00000000000E+00 0.  1.
         21   -1    0    0  504  502 -0.00000000000E+00 -0.00000000000E+00 -0.12496255335E+02  0.12496255335E+02  0.00000000000E+00 0.  1.
         21    1    1    2  503  502 -0.25939569499E+02 -0.21624801630E+02  0.40016749575E+02  0.52362520546E+02  0.00000000000E+00 0.  1.
         21    1    1    2  504  501  0.25939569499E+02  0.21624801630E+02  0.38767038370E+02  0.51413778069E+02  0.00000000000E+00 0.  1.
<mgrwt>
<rscale>  2 0.33771191E+02</rscale>
<asrwt>0</asrwt>
<pdfrwt beam="1">  1       21 0.14043083E-01 0.33771191E+02</pdfrwt>
<pdfrwt beam="2">  1       21 0.19225009E-02 0.33771191E+02</pdfrwt>
<totfact> 0.45735575E+07</totfact>
</mgrwt>
</event>
<event>
 4    1  0.4556894E+006  0.2657245E+02  0.7546771E-02  0.1639392E+00
         21   -1    0    0  504  501  0.00000000000E+00  0.00000000000E+00  0.97706874874E+01  0.97706874874E+01  0.00000000000E+00 0. -1.
         21   -1    0    0  503  502 -0.00000000000E+00 -0.00000000000E+00 -0.72943547997E+02  0.72943547997E+02  0.00000000000E+00 0. -1.
         21    1    1    2  503  501  0.24958509331E+02  0.91196569919E+01 -0.27602582645E+02  0.38314460721E+02  0.00000000000E+00 0. -1.
         21    1    1    2  504  502 -0.24958509331E+02 -0.91196569919E+01 -0.35570277864E+02  0.44399774763E+02  0.00000000000E+00 0. -1.
<mgrwt>
<rscale>  2 0.26572454E+02</rscale>
<asrwt>0</asrwt>
<pdfrwt beam="1">  1       21 0.15031827E-02 0.26572454E+02</pdfrwt>
<pdfrwt beam="2">  1       21 0.11222084E-01 0.26572454E+02</pdfrwt>
<totfact> 0.92537709E+07</totfact>
</mgrwt>
</event>
<event>
 4    1  0.4556894E+006  0.3363679E+02  0.7546771E-02  0.1561050E+00
         21   -1    0    0  502  501  0.00000000000E+00  0.00000000000E+00  0.20095838562E+03  0.20095838562E+03  0.00000000000E+00 0. -1.
         21   -1    0    0  503  502 -0.00000000000E+00 -0.00000000000E+00 -0.57065019872E+01  0.57065019872E+01  0.00000000000E+00 0. -1.
         21    1    1    2  503  504 -0.22291879540E+02  0.25189395148E+02  0.85676342049E+02  0.92042756957E+02  0.00000000000E+00 0. -1.
         21    1    1    2  504  501  0.22291879540E+02 -0.25189395148E+02  0.10957554159E+03  0.11462213065E+03  0.00000000000E+00 0. -1.
<mgrwt>
<rscale>  2 0.33636788E+02</rscale>
<asrwt>0</asrwt>
<pdfrwt beam="1">  1       21 0.30916669E-01 0.33636788E+02</pdfrwt>
<pdfrwt beam="2">  1       21 0.87792354E-03 0.33636788E+02</pdfrwt>
<totfact> 0.37272318E+07</totfact>
</mgrwt>
</event>
<event>
 4    1  0.4556894E+006  0.2475496E+02  0.7546771E-02  0.1664547E+00
         21   -1    0    0  503  501  0.00000000000E+00  0.00000000000E+00  0.97827425950E+02  0.97827425950E+02  0.00000000000E+00 0. -1.
         21   -1    0    0  504  502 -0.00000000000E+00 -0.00000000000E+00 -0.65030112973E+01  0.65030112973E+01  0.00000000000E+00 0. -1.
         21    1    1    2  503  502  0.23754714799E+02  0.69657445933E+01  0.35665100286E+02  0.43414369181E+02  0.00000000000E+00 0. -1.
         21    1    1    2  504  501 -0.23754714799E+02 -0.69657445933E+01  0.55659314367E+02  0.60916068067E+02  0.00000000000E+00 0. -1.
<mgrwt>
<rscale>  2 0.24754961E+02</rscale>
<asrwt>0</asrwt>
<pdfrwt beam="1">  1       21 0.15050372E-01 0.24754961E+02</pdfrwt>
<pdfrwt beam="2">  1       21 0.10004633E-02 0.24754961E+02</pdfrwt>
<totfact> 0.10252747E+08</totfact>
</mgrwt>
</event>
<event>
 4    1  0.4556894E+006  0.2358481E+02  0.7546771E-02  0.1682202E+00
         21   -1    0    0  504  501  0.00000000000E+00  0.00000000000E+00  0.11426728581E+01  0.11426728581E+01  0.00000000000E+00 0.  1.
         21   -1    0    0  501  502 -0.00000000000E+00 -0.00000000000E+00 -0.48950268108E+03  0.48950268108E+03  0.00000000000E+00 0.  1.
         21    1    1    2  503  502 -0.75699987986E+01 -0.22336926560E+02 -0.26243820438E+03  0.26349583353E+03  0.00000000000E+00 0.  1.
         21    1    1    2  504  503  0.75699987986E+01  0.22336926560E+02 -0.22592180385E+03  0.22714952041E+03  0.00000000000E+00 0.  1.
<mgrwt>
<rscale>  2 0.23584808E+02</rscale>
<asrwt>0</asrwt>
<pdfrwt beam="1">  1       21 0.17579586E-03 0.23584808E+02</pdfrwt>
<pdfrwt beam="2">  1       21 0.75308088E-01 0.23584808E+02</pdfrwt>
<totfact> 0.65206834E+07</totfact>
</mgrwt>
</event>
<event>
 4    1  0.4556894E+006  0.2437437E+02  0.7546771E-02  0.1670154E+00
         21   -1    0    0  503  501  0.00000000000E+00  0.00000000000E+00  0.86645226394E+02  0.86645226394E+02  0.00000000000E+00 0. -1.
         21   -1    0    0  504  502 -0.00000000000E+00 -0.00000000000E+00 -0.10958104170E+02  0.10958104170E+02  0.00000000000E+00 0.  1.
         21    1    1    2  503  502  0.12204604493E+02  0.21098756463E+02  0.67699268477E+02  0.71953463068E+02  0.00000000000E+00 0. -1.
         21    1    1    2  504  501 -0.12204604493E+02 -0.21098756463E+02  0.79878537462E+01  0.25649867496E+02  0.00000000000E+00 0.  1.
<mgrwt>
<rscale>  2 0.24374370E+02</rscale>
<asrwt>0</asrwt>
<pdfrwt beam="1">  1       21 0.13330034E-01 0.24374370E+02</pdfrwt>
<pdfrwt beam="2">  1       21 0.16858622E-02 0.24374370E+02</pdfrwt>
<totfact> 0.56878698E+07</totfact>
</mgrwt>
</event>
<event>
 4    1  0.4556894E+006  0.2225716E+02  0.7546771E-02  0.1703842E+00
         21   -1    0    0  504  501  0.00000000000E+00  0.00000000000E+00  0.75417722132E+02  0.75417722132E+02  0.00000000000E+00 0.  1.
         21   -1    0    0  501  502 -0.00000000000E+00 -0.00000000000E+00 -0.23669884001E+02  0.23669884001E+02  0.00000000000E+00 0.  1.
         21    1    1    2  503  502 -0.68822344922E+01 -0.21166390865E+02 -0.16238182445E+02  0.27551040324E+02  0.00000000000E+00 0.  1.
         21    1    1    2  504  503  0.68822344922E+01  0.21166390865E+02  0.67986020576E+02  0.71536565808E+02  0.00000000000E+00 0.  1.
<mgrwt>
<rscale>  2 0.22257162E+02</rscale>
<asrwt>0</asrwt>
<pdfrwt beam="1">  1       21 0.11602726E-01 0.22257162E+02</pdfrwt>
<pdfrwt beam="2">  1       21 0.36415207E-02 0.22257162E+02</pdfrwt>
<totfact> 0.21335186E+07</totfact>
</mgrwt>
</event>
<event>
 4    1  0.4556894E+006  0.2114909E+02  0.7546771E-02  0.1723398E+00
         21   -1    0    0  502  501  0.00000000000E+00  0.00000000000E+00  0.57019433241E+02  0.57019433241E+02  0.00000000000E+00 0. -1.
         21   -1    0    0  503  502 -0.00000000000E+00 -0.00000000000E+00 -0.59128819068E+02  0.59128819068E+02  0.00000000000E+00 0. -1.
         21    1    1    2  503  504  0.16223295580E+02 -0.13567927261E+02 -0.55139557559E+02  0.59056369491E+02  0.00000000000E+00 0. -1.
         21    1    1    2  504  501 -0.16223295580E+02  0.13567927261E+02  0.53030171732E+02  0.57091882817E+02  0.00000000000E+00 0. -1.
<mgrwt>
<rscale>  2 0.21149089E+02</rscale>
<asrwt>0</asrwt>
<pdfrwt beam="1">  1       21 0.87722205E-02 0.21149089E+02</pdfrwt>
<pdfrwt beam="2">  1       21 0.90967414E-02 0.21149089E+02</pdfrwt>
<totfact> 0.77394505E+06</totfact>
</mgrwt>
</event>
<event>
 4    1  0.4556894E+006  0.2209585E+02  0.7546771E-02  0.1706600E+00
         21   -1    0    0  503  501  0.00000000000E+00  0.00000000000E+00  0.93494041587E+01  0.93494041587E+01  0.00000000000E+00 0.  1.
         21   -1    0    0  504  502 -0.00000000000E+00 -0.00000000000E+00 -0.82220744616E+02  0.82220744616E+02  0.00000000000E+00 0.  1.
         21    1    1    2  503  502  0.16373693837E+02 -0.14836736465E+02 -0.87790767639E+01  0.23776012862E+02  0.00000000000E+00 0.  1.
         21    1    1    2  504  501 -0.16373693837E+02  0.14836736465E+02 -0.64092263694E+02  0.67794135913E+02  0.00000000000E+00 0.  1.
<mgrwt>
<rscale>  2 0.22095850E+02</rscale>
<asrwt>0</asrwt>
<pdfrwt beam="1">  1       21 0.14383699E-02 0.22095850E+02</pdfrwt>
<pdfrwt beam="2">  1       21 0.12649345E-01 0.22095850E+02</pdfrwt>
<totfact> 0.77070942E+07</totfact>
</mgrwt>
</event>
<event>
 4    1  0.4556894E+006  0.2016532E+02  0.7546771E-02  0.1742060E+00
         21   -1    0    0  504  501  0.00000000000E+00  0.00000000000E+00  0.28071188006E+02  0.28071188006E+02  0.00000000000E+00 0.  1.
         21   -1    0    0  503  502 -0.00000000000E+00 -0.00000000000E+00 -0.77087180936E+02  0.77087180936E+02  0.00000000000E+00 0.  1.
         21    1    1    2  503  501 -0.18830014869E+02  0.72160029024E+01 -0.71890053595E+02  0.74664716993E+02  0.00000000000E+00 0.  1.
         21    1    1    2  504  502  0.18830014869E+02 -0.72160029024E+01  0.22874060665E+02  0.30493651948E+02  0.00000000000E+00 0.  1.
<mgrwt>
<rscale>  2 0.20165321E+02</rscale>
<asrwt>0</asrwt>
<pdfrwt beam="1">  1       21 0.43186443E-02 0.20165321E+02</pdfrwt>
<pdfrwt beam="2">  1       21 0.11859566E-01 0.20165321E+02</pdfrwt>
<totfact> 0.15396635E+07</totfact>
</mgrwt>
</event>
<event>
 4    1  0.4556894E+006  0.2251625E+02  0.7546771E-02  0.1699474E+00
         21   -1    0    0  504  501  0.00000000000E+00  0.00000000000E+00  0.31863313066E+01  0.31863313066E+01  0.00000000000E+00 0.  1.
         21   -1    0    0  501  502 -0.00000000000E+00 -0.00000000000E+00 -0.18574729169E+03  0.18574729169E+03  0.00000000000E+00 0.  1.
         21    1    1    2  503  502 -0.22431419860E+02 -0.19526853349E+01 -0.12705318515E+03  0.12903291609E+03  0.00000000000E+00 0.  1.
         21    1    1    2  504  503  0.22431419860E+02  0.19526853349E+01 -0.55507775230E+02  0.59900706907E+02  0.00000000000E+00 0.  1.
<mgrwt>
<rscale>  2 0.22516251E+02</rscale>
<asrwt>0</asrwt>
<pdfrwt beam="1">  1       21 0.49020480E-03 0.22516251E+02</pdfrwt>
<pdfrwt beam="2">  1       21 0.28576507E-01 0.22516251E+02</pdfrwt>
<totfact> 0.93867510E+07</totfact>
</mgrwt>
</event>
<event>
 4    1  0.4556894E+006  0.2177862E+02  0.7546771E-02  0.1712109E+00
         21   -1    0    0  503  501  0.00000000000E+00  0.00000000000E+00  0.69349921135E+00  0.69349921135E+00  0.00000000000E+00 0. -1.
         21   -1    0    0  504  502 -0.00000000000E+00 -0.00000000000E+00 -0.69313972104E+03  0.69313972104E+03  0.00000000000E+00 0. -1.
         21    1    1    2  503  502 -0.21774041091E+02  0.44679241182E+00 -0.38620068323E+03  0.38681426578E+03  0.00000000000E+00 0. -1.
         21    1    1    2  504  501  0.21774041091E+02 -0.44679241182E+00 -0.30624553860E+03  0.30701895447E+03  0.00000000000E+00 0. -1.
<mgrwt>
<rscale>  2 0.21778625E+02</rscale>
<asrwt>0</asrwt>
<pdfrwt beam="1">  1       21 0.10669204E-03 0.21778625E+02</pdfrwt>
<pdfrwt beam="2">  1       21 0.10663702E+00 0.21778625E+02</pdfrwt>
<totfact> 0.62135934E+07</totfact>
</mgrwt>
</event>
<event>
 4    1  0.4556894E+006  0.3096313E+02  0.7546771E-02  0.1587680E+00
         21   -1    0    0  504  501  0.00000000000E+00  0.00000000000E+00  0.12460872620E+03  0.12460872620E+03  0.00000000000E+00 0. -1.
         21   -1    0    0  503  502 -0.00000000000E+00 -0.00000000000E+00 -0.14805667366E+02  0.14805667366E+02  0.00000000000E+00 0. -1.
         21    1    1    2  503  501  0.23175048054E+02  0.20533691644E+02  0.10321355765E+03  0.10775784810E+03  0.00000000000E+00 0. -1.
         21    1    1    2  504  502 -0.23175048054E+02 -0.20533691644E+02  0.65895011833E+01  0.31656545463E+02  0.00000000000E+00 0. -1.
<mgrwt>
<rscale>  2 0.30963129E+02</rscale>
<asrwt>0</asrwt>
<pdfrwt beam="1">  1       21 0.19170573E-01 0.30963129E+02</pdfrwt>
<pdfrwt beam="2">  1       21 0.22777951E-02 0.30963129E+02</pdfrwt>
<totfact> 0.20109299E+07</totfact>
</mgrwt>
</event>
<event>
 4    1  0.4556894E+006  0.2098433E+02  0.7546771E-02  0.1726433E+00
         21   -1    0    0  503  501  0.00000000000E+00  0.00000000000E+00  0.41094620515E+02  0.41094620515E+02  0.00000000000E+00 0. -1.
         21   -1    0    0  504  502 -0.00000000000E+00 -0.00000000000E+00 -0.18735512670E+02  0.18735512670E+02  0.00000000000E+00 0.  1.
         21    1    1    2  503  502 -0.20537982265E+02  0.43050537197E+01 -0.83930882419E+01  0.22600578162E+02  0.00000000000E+00 0.  1.
         21    1    1    2  504  501  0.20537982265E+02 -0.43050537197E+01  0.30752196087E+02  0.37229555023E+02  0.00000000000E+00 0. -1.
<mgrwt>
<rscale>  2 0.20984332E+02</rscale>
<asrwt>0</asrwt>
<pdfrwt beam="1">  1       21 0.63222492E-02 0.20984332E+02</pdfrwt>
<pdfrwt beam="2">  1       21 0.28823866E-02 0.20984332E+02</pdfrwt>
<totfact> 0.81630654E+07</totfact>
</mgrwt>
</event>
<event>
 4    1  0.4556894E+006  0.2159646E+02  0.7546771E-02  0.1715326E+00
         21   -1    0    0  503  501  0.00000000000E+00  0.00000000000E+00  0.14157270332E+03  0.14157270332E+03  0.00000000000E+00 0. -1.
         21   -1    0    0  504  502 -0.00000000000E+00 -0.00000000000E+00 -0.35946607870E+01  0.35946607870E+01  0.00000000000E+00 0. -1.
         21    1    1    2  503  502 -0.17161131511E+02 -0.13111166685E+02  0.48013720664E+02  0.52647169901E+02  0.00000000000E+00 0. -1.
         21    1    1    2  504  501  0.17161131511E+02  0.13111166685E+02  0.89964321874E+02  0.92520194211E+02  0.00000000000E+00 0. -1.
<mgrwt>
<rscale>  2 0.21596461E+02</rscale>
<asrwt>0</asrwt>
<pdfrwt beam="1">  1       21 0.21780412E-01 0.21596461E+02</pdfrwt>
<pdfrwt beam="2">  1       21 0.55302485E-03 0.21596461E+02</pdfrwt>
<totfact> 0.12594079E+08</totfact>
</mgrwt>
</event>
<event>
 4    1  0.4556894E+006  0.2682359E+02  0.7546771E-02  0.1636111E+00
         21   -1    0    0  503  501  0.00000000000E+00  0.00000000000E+00  0.10981804083E+03  0.10981804083E+03  0.00000000000E+00 0.  1.
         21   -1    0    0  504  502 -0.00000000000E+00 -0.00000000000E+00 -0.79750551538E+01  0.79750551538E+01  0.00000000000E+00 0.  1.
         21    1    1    2  503  502  0.11578498419E+02  0.24195937207E+02  0.26040624183E+02  0.37384744359E+02  0.00000000000E+00 0.  1.
         21    1    1    2  504  501 -0.11578498419E+02 -0.24195937207E+02  0.75802361491E+02  0.80408351622E+02  0.00000000000E+00 0.  1.
<mgrwt>
<rscale>  2 0.26823590E+02</rscale>
<asrwt>0</asrwt>
<pdfrwt beam="1">  1       21 0.16895082E-01 0.26823590E+02</pdfrwt>
<pdfrwt beam="2">  1       21 0.12269316E-02 0.26823590E+02</pdfrwt>
<totfact> 0.62979745E+07</totfact>
</mgrwt>
</event>
<event>
 4    1  0.4556894E+006  0.2148733E+02  0.7546771E-02  0.1717272E+00
         21   -1    0    0  503  501  0.00000000000E+00  0.00000000000E+00  0.15693105750E+03  0.15693105750E+03  0.00000000000E+00 0. -1.
         21   -1    0    0  504  502 -0.00000000000E+00 -0.00000000000E+00 -0.51991999804E+02  0.51991999804E+02  0.00000000000E+00 0. -1.
         21    1    1    2  503  502  0.16167486204E+02 -0.14153363153E+02 -0.48993359711E+02  0.53498173750E+02  0.00000000000E+00 0. -1.
         21    1    1    2  504  501 -0.16167486204E+02  0.14153363153E+02  0.15393241740E+03  0.15542488355E+03  0.00000000000E+00 0. -1.
<mgrwt>
<rscale>  2 0.21487329E+02</rscale>
<asrwt>0</asrwt>
<pdfrwt beam="1">  1       21 0.24143239E-01 0.21487329E+02</pdfrwt>
<pdfrwt beam="2">  1       21 0.79987692E-02 0.21487329E+02</pdfrwt>
<totfact> 0.17183451E+06</totfact>
</mgrwt>
</event>
<event>
 4    1  0.4556894E+006  0.2167215E+02  0.7546771E-02  0.1713984E+00
         21   -1    0    0  504  501  0.00000000000E+00  0.00000000000E+00  0.22340864817E+03  0.22340864817E+03  0.00000000000E+00 0.  1.
         21   -1    0    0  503  502 -0.00000000000E+00 -0.00000000000E+00 -0.20052932846E+03  0.20052932846E+03  0.00000000000E+00 0.  1.
         21    1    1    2  503  501 -0.78769502128E+01 -0.20189987978E+02  0.22229458167E+03  0.22334852361E+03  0.00000000000E+00 0.  1.
         21    1    1    2  504  502  0.78769502128E+01  0.20189987978E+02 -0.19941526196E+03  0.20058945302E+03  0.00000000000E+00 0.  1.
<mgrwt>
<rscale>  2 0.21672147E+02</rscale>
<asrwt>0</asrwt>
<pdfrwt beam="1">  1       21 0.34370561E-01 0.21672147E+02</pdfrwt>
<pdfrwt beam="2">  1       21 0.30850666E-01 0.21672147E+02</pdfrwt>
<totfact> 0.90262489E+04</totfact>
</mgrwt>
</event>
<event>
 4    1  0.4556894E+006  0.2089275E+02  0.7546771E-02  0.1728136E+00
         21   -1    0    0  503  501  0.00000000000E+00  0.00000000000E+00  0.29319784859E+01  0.29319784859E+01  0.00000000000E+00 0.  1.
         21   -1    0    0  504  502 -0.00000000000E+00 -0.00000000000E+00 -0.22065138744E+03  0.22065138744E+03  0.00000000000E+00 0. -1.
         21    1    1    2  503  502 -0.43141537561E+01  0.20442483346E+02 -0.17261818101E+03  0.17387795566E+03  0.00000000000E+00 0. -1.
         21    1    1    2  504  501  0.43141537561E+01 -0.20442483346E+02 -0.45101227941E+02  0.49705410266E+02  0.00000000000E+00 0.  1.
<mgrwt>
<rscale>  2 0.20892751E+02</rscale>
<asrwt>0</asrwt>
<pdfrwt beam="1">  1       21 0.45107362E-03 0.20892751E+02</pdfrwt>
<pdfrwt beam="2">  1       21 0.33946367E-01 0.20892751E+02</pdfrwt>
<totfact> 0.75970291E+07</totfact>
</mgrwt>
</event>
<event>
 4    1  0.4556894E+006  0.2749211E+02  0.7546771E-02  0.1627588E+00
         21   -1    0    0  502  501  0.00000000000E+00  0.00000000000E+00  0.78516346936E+02  0.78516346936E+02  0.00000000000E+00 0.  1.
         21   -1    0    0  503  502 -0.00000000000E+00 -0.00000000000E+00 -0.20826585744E+02  0.20826585744E+02  0.00000000000E+00 0.  1.
         21    1    1    2  503  504 -0.26180657564E+02  0.83898323978E+01 -0.75813240472E+01  0.28518285230E+02  0.00000000000E+00 0.  1.
         21    1    1    2  504  501  0.26180657564E+02 -0.83898323978E+01  0.65271085239E+02  0.70824647450E+02  0.00000000000E+00 0.  1.
<mgrwt>
<rscale>  2 0.27492110E+02</rscale>
<asrwt>0</asrwt>
<pdfrwt beam="1">  1       21 0.12079438E-01 0.27492110E+02</pdfrwt>
<pdfrwt beam="2">  1       21 0.32040902E-02 0.27492110E+02</pdfrwt>
<totfact> 0.25519255E+07</totfact>
</mgrwt>
</event>
<event>
 4    1  0.4556894E+006  0.2006731E+02  0.7546771E-02  0.1743993E+00
         21   -1    0    0  504  501  0.00000000000E+00  0.00000000000E+00  0.27013623865E+03  0.27013623865E+03  0.00000000000E+00 0.  1.
         21   -1    0    0  503  502 -0.00000000000E+00 -0.00000000000E+00 -0.11875389507E+02  0.11875389507E+02  0.00000000000E+00 0.  1.
         21    1    1    2  503  501 -0.19700955491E+02  0.38169568735E+01  0.26098933465E+03  0.26175967911E+03  0.00000000000E+00 0.  1.
         21    1    1    2  504  502  0.19700955491E+02 -0.38169568735E+01 -0.27284855068E+01  0.20251949047E+02  0.00000000000E+00 0.  1.
<mgrwt>
<rscale>  2 0.20067307E+02</rscale>
<asrwt>0</asrwt>
<pdfrwt beam="1">  1       21 0.41559417E-01 0.20067307E+02</pdfrwt>
<pdfrwt beam="2">  1       21 0.18269832E-02 0.20067307E+02</pdfrwt>
<totfact> 0.64076270E+06</totfact>
</mgrwt>
</event>
<event>
 4    1  0.4556894E+006  0.3697915E+02  0.7546771E-02  0.1531696E+00
         21   -1    0    0  504  501  0.00000000000E+00  0.00000000000E+00  0.14494038234E+03  0.14494038234E+03  0.00000000000E+00 0.  1.
         21   -1    0    0  501  502 -0.00000000000E+00 -0.00000000000E+00 -0.94417978395E+02  0.94417978395E+02  0.00000000000E+00 0.  1.
         21    1    1    2  503  502 -0.17669035271E+02  0.32484807926E+02 -0.88281232093E+02  0.95713287966E+02  0.00000000000E+00 0.  1.
         21    1    1    2  504  503  0.17669035271E+02 -0.32484807926E+02  0.13880363604E+03  0.14364507277E+03  0.00000000000E+00 0.  1.
<mgrwt>
<rscale>  2 0.36979150E+02</rscale>
<asrwt>0</asrwt>
<pdfrwt beam="1">  1       21 0.22298520E-01 0.36979150E+02</pdfrwt>
<pdfrwt beam="2">  1       21 0.14525843E-01 0.36979150E+02</pdfrwt>
<totfact> 0.76282400E+05</totfact>
</mgrwt>
</event>
<event>
 4    1  0.4556894E+006  0.2212243E+02  0.7546771E-02  0.1706143E+00
         21   -1    0    0  503  501  0.00000000000E+00  0.00000000000E+00  0.73821943905E+01  0.73821943905E+01  0.00000000000E+00 0. -1.
         21   -1    0    0  504  502 -0.00000000000E+00 -0.00000000000E+00 -0.78874638796E+02  0.78874638796E+02  0.00000000000E+00 0. -1.
         21    1    1    2  503  502 -0.18317868626E+02  0.12403929868E+02 -0.52970092838E+02  0.57404115901E+02  0.00000000000E+00 0. -1.
         21    1    1    2  504  501  0.18317868626E+02 -0.12403929868E+02 -0.18522351568E+02  0.28852717286E+02  0.00000000000E+00 0. -1.
<mgrwt>
<rscale>  2 0.22122427E+02</rscale>
<asrwt>0</asrwt>
<pdfrwt beam="1">  1       21 0.11357223E-02 0.22122427E+02</pdfrwt>
<pdfrwt beam="2">  1       21 0.12134559E-01 0.22122427E+02</pdfrwt>
<totfact> 0.11809744E+08</totfact>
</mgrwt>
</event>
<event>
 4    1  0.4556894E+006  0.2779228E+02  0.7546771E-02  0.1623858E+00
         21   -1    0    0  503  501  0.00000000000E+00  0.00000000000E+00  0.11060723966E+02  0.11060723966E+02  0.00000000000E+00 0. -1.
         21   -1    0    0  504  502 -0.00000000000E+00 -0.00000000000E+00 -0.18571420986E+03  0.18571420986E+03  0.00000000000E+00 0.  1.
         21    1    1    2  503  502  0.25356574061E+02  0.11377818691E+02 -0.16504490555E+03  0.16736854978E+03  0.00000000000E+00 0.  1.
         21    1    1    2  504  501 -0.25356574061E+02 -0.11377818691E+02 -0.96085803341E+01  0.29406384040E+02  0.00000000000E+00 0. -1.
<mgrwt>
<rscale>  2 0.27792276E+02</rscale>
<asrwt>0</asrwt>
<pdfrwt beam="1">  1       21 0.17016499E-02 0.27792276E+02</pdfrwt>
<pdfrwt beam="2">  1       21 0.28571416E-01 0.27792276E+02</pdfrwt>
<totfact> 0.15157861E+07</totfact>
</mgrwt>
</event>
<event>
 4    1  0.4556894E+006  0.2206352E+02  0.7546771E-02  0.1707156E+00
         21   -1    0    0  503  501  0.00000000000E+00  0.00000000000E+00  0.32268398496E+03  0.32268398496E+03  0.00000000000E+00 0. -1.
         21   -1    0    0  504  502 -0.00000000000E+00 -0.00000000000E+00 -0.18712306433E+01  0.18712306433E+01  0.00000000000E+00 0. -1.
         21    1    1    2  503  502  0.20232221135E+02 -0.88009093687E+01  0.23184472817E+03  0.23289219987E+03  0.00000000000E+00 0. -1.
         21    1    1    2  504  501 -0.20232221135E+02  0.88009093687E+01  0.88968026140E+02  0.91663015732E+02  0.00000000000E+00 0. -1.
<mgrwt>
<rscale>  2 0.22063517E+02</rscale>
<asrwt>0</asrwt>
<pdfrwt beam="1">  1       21 0.49643646E-01 0.22063517E+02</pdfrwt>
<pdfrwt beam="2">  1       21 0.28788189E-03 0.22063517E+02</pdfrwt>
<totfact> 0.72477553E+07</totfact>
</mgrwt>
</event>
<event>
 4    1  0.4556894E+006  0.2527087E+02  0.7546771E-02  0.1657141E+00
         21   -1    0    0  504  501  0.00000000000E+00  0.00000000000E+00  0.20541447544E+02  0.20541447544E+02  0.00000000000E+00 0. -1.
         21   -1    0    0  503  502 -0.00000000000E+00 -0.00000000000E+00 -0.37754043806E+02  0.37754043806E+02  0.00000000000E+00 0. -1.
         21    1    1    2  503  501  0.25227579289E+02 -0.14786350760E+01 -0.20852976297E+02  0.32763756483E+02  0.00000000000E+00 0. -1.
         21    1    1    2  504  502 -0.25227579289E+02  0.14786350760E+01  0.36403800356E+01  0.25531734866E+02  0.00000000000E+00 0. -1.
<mgrwt>
<rscale>  2 0.25270875E+02</rscale>
<asrwt>0</asrwt>
<pdfrwt beam="1">  1       21 0.31602227E-02 0.25270875E+02</pdfrwt>
<pdfrwt beam="2">  1       21 0.58083144E-02 0.25270875E+02</pdfrwt>
<totfact> 0.85350066E+07</totfact>
</mgrwt>
</event>
<event>
 4    1  0.4556894E+006  0.2022934E+02  0.7546771E-02  0.1740805E+00
         21   -1    0    0  503  501  0.00000000000E+00  0.00000000000E+00  0.54756503669E+03  0.54756503669E+03  0.00000000000E+00 0. -1.
         21   -1    0    0  504  502 -0.00000000000E+00 -0.00000000000E+00 -0.23081031856E+01  0.23081031856E+01  0.00000000000E+00 0.  1.
         21    1    1    2  503  502  0.18763297321E+02  0.75607424456E+01  0.46543781135E+02  0.50749874040E+02  0.00000000000E+00 0.  1.
         21    1    1    2  504  501 -0.18763297321E+02 -0.75607424456E+01  0.49871315237E+03  0.49912326584E+03  0.00000000000E+00 0. -1.
<mgrwt>
<rscale>  2 0.20229339E+02</rscale>
<asrwt>0</asrwt>
<pdfrwt beam="1">  1       21 0.84240671E-01 0.20229339E+02</pdfrwt>
<pdfrwt beam="2">  1       21 0.35509323E-03 0.20229339E+02</pdfrwt>
<totfact> 0.18017144E+07</totfact>
</mgrwt>
</event>
<event>
 4    1  0.4556894E+006  0.2876449E+02  0.7546771E-02  0.1612161E+00
         21   -1    0    0  503  501  0.00000000000E+00  0.00000000000E+00  0.40390507896E+02  0.40390507896E+02  0.00000000000E+00 0.  1.
         21   -1    0    0  504  502 -0.00000000000E+00 -0.00000000000E+00 -0.60448816245E+02  0.60448816245E+02  0.00000000000E+00 0. -1.
         21    1    1    2  503  502 -0.28764473262E+02 -0.34006898979E-01  0.30966703294E+02  0.42265030361E+02  0.00000000000E+00 0.  1.
         21    1    1    2  504  501  0.28764473262E+02  0.34006898979E-01 -0.51025011643E+02  0.58574293779E+02  0.00000000000E+00 0. -1.
<mgrwt>
<rscale>  2 0.28764493E+02</rscale>
<asrwt>0</asrwt>
<pdfrwt beam="1">  1       21 0.62139244E-02 0.28764493E+02</pdfrwt>
<pdfrwt beam="2">  1       21 0.92998178E-02 0.28764493E+02</pdfrwt>
<totfact> 0.13857335E+07</totfact>
</mgrwt>
</event>
<event>
 4    1  0.4556894E+006  0.2256967E+02  0.7546771E-02  0.1698582E+00
         21   -1    0    0  504  501  0.00000000000E+00  0.00000000000E+00  0.32880166451E+01  0.32880166451E+01  0.00000000000E+00 0. -1.
         21   -1    0    0  503  502 -0.00000000000E+00 -0.00000000000E+00 -0.16068992591E+03  0.16068992591E+03  0.00000000000E+00 0. -1.
         21    1    1    2  503  501 -0.16213571220E+02 -0.15700641124E+02 -0.63168997265E+02  0.67079894446E+02  0.00000000000E+00 0. -1.
         21    1    1    2  504  502  0.16213571220E+02  0.15700641124E+02 -0.94232911995E+02  0.96898048104E+02  0.00000000000E+00 0. -1.
<mgrwt>
<rscale>  2 0.22569670E+02</rscale>
<asrwt>0</asrwt>
<pdfrwt beam="1">  1       21 0.50584868E-03 0.22569670E+02</pdfrwt>
<pdfrwt beam="2">  1       21 0.24721529E-01 0.22569670E+02</pdfrwt>
<totfact> 0.11628785E+08</totfact>
</mgrwt>
</event>
<event>
 4    1  0.4556894E+006  0.2130146E+02  0.7546771E-02  0.1720621E+00
         21   -1    0    0  504  501  0.00000000000E+00  0.00000000000E+00  0.97259992345E+01  0.97259992345E+01  0.00000000000E+00 0. -1.
         21   -1    0    0  501  502 -0.00000000000E+00 -0.00000000000E+00 -0.54255804765E+02  0.54255804765E+02  0.00000000000E+00 0.  1.
         21    1    1    2  503  502 -0.20859385750E+02 -0.43171793643E+01 -0.34239907849E+02  0.40325219169E+02  0.00000000000E+00 0.  1.
         21    1    1    2  504  503  0.20859385750E+02  0.43171793643E+01 -0.10289897681E+02  0.23656584830E+02  0.00000000000E+00 0. -1.
<mgrwt>
<rscale>  2 0.21301456E+02</rscale>
<asrwt>0</asrwt>
<pdfrwt beam="1">  1       21 0.14963076E-02 0.21301456E+02</pdfrwt>
<pdfrwt beam="2">  1       21 0.83470469E-02 0.21301456E+02</pdfrwt>
<totfact> 0.14281395E+08</totfact>
</mgrwt>
</event>
<event>
 4    1  0.4556894E+006  0.3630021E+02  0.7546771E-02  0.1537348E+00
         21   -1    0    0  504  501  0.00000000000E+00  0.00000000000E+00  0.19243386291E+02  0.19243386291E+02  0.00000000000E+00 0. -1.
         21   -1    0    0  503  502 -0.00000000000E+00 -0.00000000000E+00 -0.92356363363E+02  0.92356363363E+02  0.00000000000E+00 0. -1.
         21    1    1    2  503  501  0.18026014098E+02 -0.31508217330E+02 -0.81823474371E+01  0.37210962809E+02  0.00000000000E+00 0. -1.
         21    1    1    2  504  502 -0.18026014098E+02  0.31508217330E+02 -0.64930629634E+02  0.74388786845E+02  0.00000000000E+00 0. -1.
<mgrwt>
<rscale>  2 0.36300206E+02</rscale>
<asrwt>0</asrwt>
<pdfrwt beam="1">  1       21 0.29605209E-02 0.36300206E+02</pdfrwt>
<pdfrwt beam="2">  1       21 0.14208672E-01 0.36300206E+02</pdfrwt>
<totfact> 0.23098497E+07</totfact>
</mgrwt>
</event>
<event>
 4    1  0.4556894E+006  0.3297022E+02  0.7546771E-02  0.1567401E+00
         21   -1    0    0  502  501  0.00000000000E+00  0.00000000000E+00  0.54004155084E+02  0.54004155084E+02  0.00000000000E+00 0. -1.
         21   -1    0    0  504  502 -0.00000000000E+00 -0.00000000000E+00 -0.62694609200E+02  0.62694609200E+02  0.00000000000E+00 0. -1.
         21    1    1    2  503  501  0.14594693876E+02  0.29564003806E+02  0.43733386183E+02  0.54769010192E+02  0.00000000000E+00 0. -1.
         21    1    1    2  504  503 -0.14594693876E+02 -0.29564003806E+02 -0.52423840298E+02  0.61929754092E+02  0.00000000000E+00 0. -1.
<mgrwt>
<rscale>  2 0.32970220E+02</rscale>
<asrwt>0</asrwt>
<pdfrwt beam="1">  1       21 0.83083316E-02 0.32970220E+02</pdfrwt>
<pdfrwt beam="2">  1       21 0.96453244E-02 0.32970220E+02</pdfrwt>
<totfact> 0.82776668E+06</totfact>
</mgrwt>
</event>
<event>
 4    1  0.4556894E+006  0.2471093E+02  0.7546771E-02  0.1665189E+00
         21   -1    0    0  502  501  0.00000000000E+00  0.00000000000E+00  0.43908373334E+02  0.43908373334E+02  0.00000000000E+00 0. -1.
         21   -1    0    0  504  502 -0.00000000000E+00 -0.00000000000E+00 -0.56674398368E+02  0.56674398368E+02  0.00000000000E+00 0. -1.
         21    1    1    2  503  501 -0.61292422280E+01 -0.23938726485E+02  0.37304464663E+02  0.44746545339E+02  0.00000000000E+00 0. -1.
         21    1    1    2  504  503  0.61292422280E+01  0.23938726485E+02 -0.50070489696E+02  0.55836226363E+02  0.00000000000E+00 0. -1.
<mgrwt>
<rscale>  2 0.24710934E+02</rscale>
<asrwt>0</asrwt>
<pdfrwt beam="1">  1       21 0.67551344E-02 0.24710934E+02</pdfrwt>
<pdfrwt beam="2">  1       21 0.87191382E-02 0.24710934E+02</pdfrwt>
<totfact> 0.13086521E+07</totfact>
</mgrwt>
</event>
<event>
 4    1  0.4556894E+006  0.2143842E+02  0.7546771E-02  0.1718149E+00
         21   -1    0    0  503  501  0.00000000000E+00  0.00000000000E+00  0.24733466230E+02  0.24733466230E+02  0.00000000000E+00 0.  1.
         21   -1    0    0  504  502 -0.00000000000E+00 -0.00000000000E+00 -0.97082554619E+02  0.97082554619E+02  0.00000000000E+00 0.  1.
         21    1    1    2  503  502 -0.21431942353E+02 -0.52685285710E+00  0.18595013309E+02  0.28379222099E+02  0.00000000000E+00 0.  1.
         21    1    1    2  504  501  0.21431942353E+02  0.52685285710E+00 -0.90944101698E+02  0.93436798750E+02  0.00000000000E+00 0.  1.
<mgrwt>
<rscale>  2 0.21438417E+02</rscale>
<asrwt>0</asrwt>
<pdfrwt beam="1">  1       21 0.38051488E-02 0.21438417E+02</pdfrwt>
<pdfrwt beam="2">  1       21 0.14935777E-01 0.21438417E+02</pdfrwt>
<totfact> 0.12916898E+07</totfact>
</mgrwt>
</event>
<event>
 4    1  0.4556894E+006  0.2064199E+02  0.7546771E-02  0.1732855E+00
         21   -1    0    0  503  501  0.00000000000E+00  0.00000000000E+00  0.67502445379E+02  0.67502445379E+02  0.00000000000E+00 0.  1.
         21   -1    0    0  504  502 -0.00000000000E+00 -0.00000000000E+00 -0.60344000123E+02  0.60344000123E+02  0.00000000000E+00 0. -1.
         21    1    1    2  503  502 -0.10144980179E+02 -0.17976964253E+02  0.64066795497E+02  0.67310074668E+02  0.00000000000E+00 0.  1.
         21    1    1    2  504  501  0.10144980179E+02  0.17976964253E+02 -0.56908350241E+02  0.60536370834E+02  0.00000000000E+00 0. -1.
<mgrwt>
<rscale>  2 0.20641993E+02</rscale>
<asrwt>0</asrwt>
<pdfrwt beam="1">  1       21 0.10384992E-01 0.20641993E+02</pdfrwt>
<pdfrwt beam="2">  1       21 0.92836923E-02 0.20641993E+02</pdfrwt>
<totfact> 0.56483202E+06</totfact>
</mgrwt>
</event>
<event>
 4    1  0.4556894E+006  0.2098946E+02  0.7546771E-02  0.1726338E+00
         21   -1    0    0  503  501  0.00000000000E+00  0.00000000000E+00  0.41195921338E+02  0.41195921338E+02  0.00000000000E+00 0.  1.
         21   -1    0    0  501  502 -0.00000000000E+00 -0.00000000000E+00 -0.22059110196E+02  0.22059110196E+02  0.00000000000E+00 0.  1.
         21    1    1    2  503  504  0.20862311502E+02 -0.23068405910E+01  0.32269878090E+02  0.38495487875E+02  0.00000000000E+00 0.  1.
         21    1    1    2  504  502 -0.20862311502E+02  0.23068405910E+01 -0.13133066948E+02  0.24759543659E+02  0.00000000000E+00 0.  1.
<mgrwt>
<rscale>  2 0.20989463E+02</rscale>
<asrwt>0</asrwt>
<pdfrwt beam="1">  1       21 0.63378341E-02 0.20989463E+02</pdfrwt>
<pdfrwt beam="2">  1       21 0.33937093E-02 0.20989463E+02</pdfrwt>
<totfact> 0.63085874E+07</totfact>
</mgrwt>
</event>
<event>
 4    1  0.4556894E+006  0.3230337E+02  0.7546771E-02  0.1573940E+00
         21   -1    0    0  503  501  0.00000000000E+00  0.00000000000E+00  0.54654601686E+01  0.54654601686E+01  0.00000000000E+00 0.  1.
         21   -1    0    0  504  502 -0.00000000000E+00 -0.00000000000E+00 -0.89909293458E+03  0.89909293458E+03  0.00000000000E+00 0. -1.
         21    1    1    2  503  502 -0.27451650913E+02  0.17026871223E+02 -0.84820843933E+03  0.84882334088E+03  0.00000000000E+00 0. -1.
         21    1    1    2  504  501  0.27451650913E+02 -0.17026871223E+02 -0.45419035086E+02  0.55735053867E+02  0.00000000000E+00 0.  1.
<mgrwt>
<rscale>  2 0.32303366E+02</rscale>
<asrwt>0</asrwt>
<pdfrwt beam="1">  1       21 0.84083968E-03 0.32303366E+02</pdfrwt>
<pdfrwt beam="2">  1       21 0.13832205E+00 0.32303366E+02</pdfrwt>
<totfact> 0.17636758E+06</totfact>
</mgrwt>
</event>
<event>
 4    1  0.4556894E+006  0.2515106E+02  0.7546771E-02  0.1658842E+00
         21   -1    0    0  504  501  0.00000000000E+00  0.00000000000E+00  0.61296340020E+01  0.61296340020E+01  0.00000000000E+00 0.  1.
         21   -1    0    0  503  502 -0.00000000000E+00 -0.00000000000E+00 -0.91036593167E+03  0.91036593167E+03  0.00000000000E+00 0. -1.
         21    1    1    2  503  501 -0.16752370355E+02  0.18759896580E+02 -0.20625004934E+02  0.32526396369E+02  0.00000000000E+00 0.  1.
         21    1    1    2  504  502  0.16752370355E+02 -0.18759896580E+02 -0.88361129273E+03  0.88396916930E+03  0.00000000000E+00 0. -1.
<mgrwt>
<rscale>  2 0.25151056E+02</rscale>
<asrwt>0</asrwt>
<pdfrwt beam="1">  1       21 0.94302058E-03 0.25151056E+02</pdfrwt>
<pdfrwt beam="2">  1       21 0.14005630E+00 0.25151056E+02</pdfrwt>
<totfact> 0.14156599E+06</totfact>
</mgrwt>
</event>
