<event>
 4    1  0.2736402E+004  0.2301998E+02  0.7546771E-02  0.1691186E+00
         21   -1    0    0  503  502  0.00000000000E+00  0.00000000000E+00  0.71994567972E+02  0.71994567972E+02  0.00000000000E+00 0.  1.
         21   -1    0    0  501  503 -0.00000000000E+00 -0.00000000000E+00 -0.11327954053E+02  0.11327954053E+02  0.00000000000E+00 0. -1.
          2    1    1    2  501    0  0.21372650774E+02  0.85515700105E+01  0.56780269797E+01  0.23709903862E+02  0.00000000000E+00 0. -1.
         -2    1    1    2    0  502 -0.21372650774E+02 -0.85515700105E+01  0.54988586940E+02  0.59612618164E+02  0.00000000000E+00 0.  1.
<mgrwt>
<rscale>  2 0.23019982E+02</rscale>
<asrwt>0</asrwt>
<pdfrwt beam="1">  1       21 0.11076087E-01 0.23019982E+02</pdfrwt>
<pdfrwt beam="2">  1       21 0.17427622E-02 0.23019982E+02</pdfrwt>
<totfact> 0.72664661E+07</totfact>
</mgrwt>
</event>
<event>
 4    1  0.2736402E+004  0.5057242E+02  0.7546771E-02  0.1442278E+00
         21   -1    0    0  501  502  0.00000000000E+00  0.00000000000E+00  0.74166424338E+02  0.74166424338E+02  0.00000000000E+00 0.  1.
         21   -1    0    0  502  503 -0.00000000000E+00 -0.00000000000E+00 -0.37071841948E+02  0.37071841948E+02  0.00000000000E+00 0. -1.
          2    1    1    2  501    0  0.50330717272E+02  0.49385141568E+01  0.33241763132E+02  0.60519293116E+02  0.00000000000E+00 0.  1.
         -2    1    1    2    0  503 -0.50330717272E+02 -0.49385141568E+01  0.38528192572E+01  0.50718973170E+02  0.00000000000E+00 0. -1.
<mgrwt>
<rscale>  2 0.50572424E+02</rscale>
<asrwt>0</asrwt>
<pdfrwt beam="1">  1       21 0.11410219E-01 0.50572424E+02</pdfrwt>
<pdfrwt beam="2">  1       21 0.57033603E-02 0.50572424E+02</pdfrwt>
<totfact> 0.12287601E+07</totfact>
</mgrwt>
</event>
<event>
 4    1  0.2736402E+004  0.2721637E+02  0.7546771E-02  0.1631067E+00
         21   -1    0    0  501  502  0.00000000000E+00  0.00000000000E+00  0.14455557814E+02  0.14455557814E+02  0.00000000000E+00 0.  1.
         21   -1    0    0  502  503 -0.00000000000E+00 -0.00000000000E+00 -0.10747149238E+03  0.10747149238E+03  0.00000000000E+00 0. -1.
          2    1    1    2  501    0 -0.16289547107E+02  0.21803240723E+02 -0.24112976028E+01  0.27322975810E+02  0.00000000000E+00 0.  1.
         -2    1    1    2    0  503  0.16289547107E+02 -0.21803240723E+02 -0.90604636963E+02  0.94604074384E+02  0.00000000000E+00 0. -1.
<mgrwt>
<rscale>  2 0.27216367E+02</rscale>
<asrwt>0</asrwt>
<pdfrwt beam="1">  1       21 0.22239320E-02 0.27216367E+02</pdfrwt>
<pdfrwt beam="2">  1       21 0.16534075E-01 0.27216367E+02</pdfrwt>
<totfact> 0.26342665E+07</totfact>
</mgrwt>
</event>
<event>
 4    1  0.2736402E+004  0.2369120E+02  0.7546771E-02  0.1680545E+00
         21   -1    0    0  501  502  0.00000000000E+00  0.00000000000E+00  0.58820905246E+02  0.58820905246E+02  0.00000000000E+00 0.  1.
         21   -1    0    0  502  503 -0.00000000000E+00 -0.00000000000E+00 -0.26559145201E+02  0.26559145201E+02  0.00000000000E+00 0. -1.
          2    1    1    2  501    0  0.20891490368E+02  0.11172216111E+02  0.50302212447E+02  0.55602026579E+02  0.00000000000E+00 0.  1.
         -2    1    1    2    0  503 -0.20891490368E+02 -0.11172216111E+02 -0.18040452403E+02  0.29778023868E+02  0.00000000000E+00 0. -1.
<mgrwt>
<rscale>  2 0.23691196E+02</rscale>
<asrwt>0</asrwt>
<pdfrwt beam="1">  1       21 0.90493700E-02 0.23691196E+02</pdfrwt>
<pdfrwt beam="2">  1       21 0.40860224E-02 0.23691196E+02</pdfrwt>
<totfact> 0.27259051E+07</totfact>
</mgrwt>
</event>
<event>
 4    1  0.2736402E+004  0.2238453E+02  0.7546771E-02  0.1701685E+00
         21   -1    0    0  503  502  0.00000000000E+00  0.00000000000E+00  0.32265492676E+03  0.32265492676E+03  0.00000000000E+00 0.  1.
         21   -1    0    0  501  503 -0.00000000000E+00 -0.00000000000E+00 -0.17280870844E+01  0.17280870844E+01  0.00000000000E+00 0. -1.
          2    1    1    2  501    0 -0.18042557278E+02 -0.13248898790E+02  0.10882969041E+03  0.11110791469E+03  0.00000000000E+00 0.  1.
         -2    1    1    2    0  502  0.18042557278E+02  0.13248898790E+02  0.21209714926E+03  0.21327509915E+03  0.00000000000E+00 0. -1.
<mgrwt>
<rscale>  2 0.22384530E+02</rscale>
<asrwt>0</asrwt>
<pdfrwt beam="1">  1       21 0.49639172E-01 0.22384530E+02</pdfrwt>
<pdfrwt beam="2">  1       21 0.26585981E-03 0.22384530E+02</pdfrwt>
<totfact> 0.81673215E+07</totfact>
</mgrwt>
</event>
<event>
 4    1  0.2736402E+004  0.2027247E+02  0.7546771E-02  0.1739963E+00
         21   -1    0    0  501  502  0.00000000000E+00  0.00000000000E+00  0.21212564061E+02  0.21212564061E+02  0.00000000000E+00 0.  1.
         21   -1    0    0  502  503 -0.00000000000E+00 -0.00000000000E+00 -0.25616585532E+02  0.25616585532E+02  0.00000000000E+00 0. -1.
          2    1    1    2  501    0 -0.20271979521E+02  0.14063481048E+00  0.93566291095E+01  0.22327548906E+02  0.00000000000E+00 0.  1.
         -2    1    1    2    0  503  0.20271979521E+02 -0.14063481048E+00 -0.13760650580E+02  0.24501600687E+02  0.00000000000E+00 0. -1.
<mgrwt>
<rscale>  2 0.20272467E+02</rscale>
<asrwt>0</asrwt>
<pdfrwt beam="1">  1       21 0.32634714E-02 0.20272467E+02</pdfrwt>
<pdfrwt beam="2">  1       21 0.39410131E-02 0.20272467E+02</pdfrwt>
<totfact> 0.14094733E+08</totfact>
</mgrwt>
</event>
<event>
 4    1  0.2736402E+004  0.5517014E+02  0.7546771E-02  0.1419296E+00
         21   -1    0    0  503  502  0.00000000000E+00  0.00000000000E+00  0.81633960074E+01  0.81633960074E+01  0.00000000000E+00 0. -1.
         21   -1    0    0  501  503 -0.00000000000E+00 -0.00000000000E+00 -0.59680832558E+03  0.59680832558E+03  0.00000000000E+00 0.  1.
          2    1    1    2  501    0 -0.12942497363E+02  0.53630549659E+02 -0.47961957577E+03  0.48278222995E+03  0.00000000000E+00 0.  1.
         -2    1    1    2    0  502  0.12942497363E+02 -0.53630549659E+02 -0.10902535381E+03  0.12218949164E+03  0.00000000000E+00 0. -1.
<mgrwt>
<rscale>  2 0.55170138E+02</rscale>
<asrwt>0</asrwt>
<pdfrwt beam="1">  1       21 0.12559075E-02 0.55170138E+02</pdfrwt>
<pdfrwt beam="2">  1       21 0.91816637E-01 0.55170138E+02</pdfrwt>
<totfact> 0.25281402E+06</totfact>
</mgrwt>
</event>
<event>
 4    1  0.2736402E+004  0.2324552E+02  0.7546771E-02  0.1687561E+00
         21   -1    0    0  501  502  0.00000000000E+00  0.00000000000E+00  0.32407896986E+02  0.32407896986E+02  0.00000000000E+00 0. -1.
         21   -1    0    0  502  503 -0.00000000000E+00 -0.00000000000E+00 -0.16755414470E+02  0.16755414470E+02  0.00000000000E+00 0.  1.
          2    1    1    2  501    0  0.22359838864E+02  0.63554646021E+01  0.95445898205E+01  0.25128738909E+02  0.00000000000E+00 0.  1.
         -2    1    1    2    0  503 -0.22359838864E+02 -0.63554646021E+01  0.61078926952E+01  0.24034572547E+02  0.00000000000E+00 0. -1.
<mgrwt>
<rscale>  2 0.23245523E+02</rscale>
<asrwt>0</asrwt>
<pdfrwt beam="1">  1       21 0.49858303E-02 0.23245523E+02</pdfrwt>
<pdfrwt beam="2">  1       21 0.25777561E-02 0.23245523E+02</pdfrwt>
<totfact> 0.14618459E+08</totfact>
</mgrwt>
</event>
<event>
 4    1  0.2736402E+004  0.2638186E+02  0.7546771E-02  0.1641912E+00
         21   -1    0    0  503  502  0.00000000000E+00  0.00000000000E+00  0.40922331047E+00  0.40922331047E+00  0.00000000000E+00 0. -1.
         21   -1    0    0  501  503 -0.00000000000E+00 -0.00000000000E+00 -0.18790457482E+04  0.18790457482E+04  0.00000000000E+00 0.  1.
          2    1    1    2  501    0 -0.17670502397E+02  0.19589687377E+02 -0.12287567220E+04  0.12290399035E+04  0.00000000000E+00 0.  1.
         -2    1    1    2    0  502  0.17670502397E+02 -0.19589687377E+02 -0.64987980288E+03  0.65041506802E+03  0.00000000000E+00 0. -1.
<mgrwt>
<rscale>  2 0.26381859E+02</rscale>
<asrwt>0</asrwt>
<pdfrwt beam="1">  1       21 0.62957353E-04 0.26381859E+02</pdfrwt>
<pdfrwt beam="2">  1       21 0.28908433E+00 0.26381859E+02</pdfrwt>
<totfact> 0.10632229E+07</totfact>
</mgrwt>
</event>
<event>
 4    1  0.2736402E+004  0.2086183E+02  0.7546771E-02  0.1728713E+00
         21   -1    0    0  503  502  0.00000000000E+00  0.00000000000E+00  0.27366848814E+01  0.27366848814E+01  0.00000000000E+00 0.  1.
         21   -1    0    0  501  503 -0.00000000000E+00 -0.00000000000E+00 -0.20470812497E+03  0.20470812497E+03  0.00000000000E+00 0. -1.
          2    1    1    2  501    0  0.49999978494E+01 -0.20253786729E+02 -0.14998138772E+03  0.15142533645E+03  0.00000000000E+00 0. -1.
         -2    1    1    2    0  502 -0.49999978494E+01  0.20253786729E+02 -0.51990052369E+02  0.56019473406E+02  0.00000000000E+00 0.  1.
<mgrwt>
<rscale>  2 0.20861828E+02</rscale>
<asrwt>0</asrwt>
<pdfrwt beam="1">  1       21 0.42102846E-03 0.20861828E+02</pdfrwt>
<pdfrwt beam="2">  1       21 0.31493557E-01 0.20861828E+02</pdfrwt>
<totfact> 0.96363167E+07</totfact>
</mgrwt>
</event>
<event>
 4    1  0.2736402E+004  0.2224713E+02  0.7546771E-02  0.1704013E+00
         21   -1    0    0  503  502  0.00000000000E+00  0.00000000000E+00  0.58209300321E+02  0.58209300321E+02  0.00000000000E+00 0. -1.
         21   -1    0    0  501  503 -0.00000000000E+00 -0.00000000000E+00 -0.18558461261E+02  0.18558461261E+02  0.00000000000E+00 0.  1.
          2    1    1    2  501    0 -0.40661734752E+01  0.21872378824E+02 -0.84289701999E+01  0.23790381687E+02  0.00000000000E+00 0.  1.
         -2    1    1    2    0  502  0.40661734752E+01 -0.21872378824E+02  0.48079809260E+02  0.52977379896E+02  0.00000000000E+00 0. -1.
<mgrwt>
<rscale>  2 0.22247128E+02</rscale>
<asrwt>0</asrwt>
<pdfrwt beam="1">  1       21 0.89552769E-02 0.22247128E+02</pdfrwt>
<pdfrwt beam="2">  1       21 0.28551479E-02 0.22247128E+02</pdfrwt>
<totfact> 0.47852007E+07</totfact>
</mgrwt>
</event>
<event>
 4    1  0.2736402E+004  0.2025115E+02  0.7546771E-02  0.1740379E+00
         21   -1    0    0  501  502  0.00000000000E+00  0.00000000000E+00  0.28954915904E+03  0.28954915904E+03  0.00000000000E+00 0. -1.
         21   -1    0    0  502  503 -0.00000000000E+00 -0.00000000000E+00 -0.14373947956E+01  0.14373947956E+01  0.00000000000E+00 0.  1.
          2    1    1    2  501    0 -0.20084811575E+02 -0.25902792504E+01  0.16165149372E+03  0.16291505340E+03  0.00000000000E+00 0. -1.
         -2    1    1    2    0  503  0.20084811575E+02  0.25902792504E+01  0.12646027053E+03  0.12807150044E+03  0.00000000000E+00 0.  1.
<mgrwt>
<rscale>  2 0.20251153E+02</rscale>
<asrwt>0</asrwt>
<pdfrwt beam="1">  1       21 0.44545978E-01 0.20251153E+02</pdfrwt>
<pdfrwt beam="2">  1       21 0.22113789E-03 0.20251153E+02</pdfrwt>
<totfact> 0.12774880E+08</totfact>
</mgrwt>
</event>
<event>
 4    1  0.2736402E+004  0.2567049E+02  0.7546771E-02  0.1651554E+00
         21   -1    0    0  501  502  0.00000000000E+00  0.00000000000E+00  0.10043757688E+04  0.10043757688E+04  0.00000000000E+00 0. -1.
         21   -1    0    0  502  503 -0.00000000000E+00 -0.00000000000E+00 -0.13432309970E+01  0.13432309970E+01  0.00000000000E+00 0.  1.
          2    1    1    2  501    0 -0.32195051899E+01  0.25467799971E+02  0.86117457870E+03  0.86155709564E+03  0.00000000000E+00 0. -1.
         -2    1    1    2    0  503  0.32195051899E+01 -0.25467799971E+02  0.14185795907E+03  0.14416190413E+03  0.00000000000E+00 0.  1.
<mgrwt>
<rscale>  2 0.25670490E+02</rscale>
<asrwt>0</asrwt>
<pdfrwt beam="1">  1       21 0.15451875E+00 0.25670490E+02</pdfrwt>
<pdfrwt beam="2">  1       21 0.20665173E-03 0.25670490E+02</pdfrwt>
<totfact> 0.10557716E+07</totfact>
</mgrwt>
</event>
<event>
 4    1  0.2736402E+004  0.2496761E+02  0.7546771E-02  0.1661468E+00
         21   -1    0    0  501  502  0.00000000000E+00  0.00000000000E+00  0.47836474134E+02  0.47836474134E+02  0.00000000000E+00 0.  1.
         21   -1    0    0  502  503 -0.00000000000E+00 -0.00000000000E+00 -0.13045105343E+02  0.13045105343E+02  0.00000000000E+00 0. -1.
          2    1    1    2  501    0 -0.27871574910E+01  0.24811560252E+02  0.18378188484E+02  0.31002251225E+02  0.00000000000E+00 0.  1.
         -2    1    1    2    0  503  0.27871574910E+01 -0.24811560252E+02  0.16413180306E+02  0.29879328252E+02  0.00000000000E+00 0. -1.
<mgrwt>
<rscale>  2 0.24967614E+02</rscale>
<asrwt>0</asrwt>
<pdfrwt beam="1">  1       21 0.73594575E-02 0.24967614E+02</pdfrwt>
<pdfrwt beam="2">  1       21 0.20069393E-02 0.24967614E+02</pdfrwt>
<totfact> 0.11733442E+08</totfact>
</mgrwt>
</event>
<event>
 4    1  0.2736402E+004  0.2164363E+02  0.7546771E-02  0.1714489E+00
         21   -1    0    0  501  502  0.00000000000E+00  0.00000000000E+00  0.12810811375E+01  0.12810811375E+01  0.00000000000E+00 0.  1.
         21   -1    0    0  502  503 -0.00000000000E+00 -0.00000000000E+00 -0.65621098480E+03  0.65621098480E+03  0.00000000000E+00 0. -1.
          2    1    1    2  501    0  0.20486760934E+02 -0.69813677991E+01 -0.10871598225E+03  0.11084950007E+03  0.00000000000E+00 0.  1.
         -2    1    1    2    0  503 -0.20486760934E+02  0.69813677991E+01 -0.54621392141E+03  0.54664256586E+03  0.00000000000E+00 0. -1.
<mgrwt>
<rscale>  2 0.21643633E+02</rscale>
<asrwt>0</asrwt>
<pdfrwt beam="1">  1       21 0.19708972E-03 0.21643633E+02</pdfrwt>
<pdfrwt beam="2">  1       21 0.10095537E+00 0.21643633E+02</pdfrwt>
<totfact> 0.29077759E+07</totfact>
</mgrwt>
</event>
<event>
 4    1  0.2736402E+004  0.4018680E+02  0.7546771E-02  0.1506841E+00
         21   -1    0    0  503  502  0.00000000000E+00  0.00000000000E+00  0.22520931425E+02  0.22520931425E+02  0.00000000000E+00 0. -1.
         21   -1    0    0  501  503 -0.00000000000E+00 -0.00000000000E+00 -0.96734110515E+02  0.96734110515E+02  0.00000000000E+00 0.  1.
          2    1    1    2  501    0  0.35235328866E+02  0.19324863537E+02 -0.67433990589E+02  0.78500457564E+02  0.00000000000E+00 0.  1.
         -2    1    1    2    0  502 -0.35235328866E+02 -0.19324863537E+02 -0.67791885013E+01  0.40754584377E+02  0.00000000000E+00 0. -1.
<mgrwt>
<rscale>  2 0.40186798E+02</rscale>
<asrwt>0</asrwt>
<pdfrwt beam="1">  1       21 0.34647587E-02 0.40186798E+02</pdfrwt>
<pdfrwt beam="2">  1       21 0.14882171E-01 0.40186798E+02</pdfrwt>
<totfact> 0.16875158E+07</totfact>
</mgrwt>
</event>
<event>
 4    1  0.2736402E+004  0.2110475E+02  0.7546771E-02  0.1724211E+00
         21   -1    0    0  501  502  0.00000000000E+00  0.00000000000E+00  0.68618644294E+02  0.68618644294E+02  0.00000000000E+00 0. -1.
         21   -1    0    0  502  503 -0.00000000000E+00 -0.00000000000E+00 -0.10390541934E+02  0.10390541934E+02  0.00000000000E+00 0.  1.
          2    1    1    2  501    0  0.17624294129E+02 -0.11610113605E+02  0.53314851181E+02  0.57340071834E+02  0.00000000000E+00 0. -1.
         -2    1    1    2    0  503 -0.17624294129E+02  0.11610113605E+02  0.49132511781E+01  0.21669114394E+02  0.00000000000E+00 0.  1.
<mgrwt>
<rscale>  2 0.21104750E+02</rscale>
<asrwt>0</asrwt>
<pdfrwt beam="1">  1       21 0.10556714E-01 0.21104750E+02</pdfrwt>
<pdfrwt beam="2">  1       21 0.15985450E-02 0.21104750E+02</pdfrwt>
<totfact> 0.87611737E+07</totfact>
</mgrwt>
</event>
<event>
 4    1  0.2736402E+004  0.2525550E+02  0.7546771E-02  0.1657359E+00
         21   -1    0    0  503  502  0.00000000000E+00  0.00000000000E+00  0.58593335672E+03  0.58593335672E+03  0.00000000000E+00 0. -1.
         21   -1    0    0  501  503 -0.00000000000E+00 -0.00000000000E+00 -0.34560319370E+01  0.34560319370E+01  0.00000000000E+00 0.  1.
          2    1    1    2  501    0 -0.68502794075E+01  0.24308719244E+02  0.47332219034E+02  0.53648663710E+02  0.00000000000E+00 0.  1.
         -2    1    1    2    0  502  0.68502794075E+01 -0.24308719244E+02  0.53514510575E+03  0.53574072495E+03  0.00000000000E+00 0. -1.
<mgrwt>
<rscale>  2 0.25255498E+02</rscale>
<asrwt>0</asrwt>
<pdfrwt beam="1">  1       21 0.90143514E-01 0.25255498E+02</pdfrwt>
<pdfrwt beam="2">  1       21 0.53169769E-03 0.25255498E+02</pdfrwt>
<totfact> 0.89689252E+06</totfact>
</mgrwt>
</event>
<event>
 4    1  0.2736402E+004  0.2578542E+02  0.7546771E-02  0.1649970E+00
         21   -1    0    0  501  502  0.00000000000E+00  0.00000000000E+00  0.88450628489E+00  0.88450628489E+00  0.00000000000E+00 0.  1.
         21   -1    0    0  502  503 -0.00000000000E+00 -0.00000000000E+00 -0.14285310902E+04  0.14285310902E+04  0.00000000000E+00 0. -1.
          2    1    1    2  501    0 -0.10098478428E+02  0.23725691844E+02 -0.22187184077E+03  0.22336517510E+03  0.00000000000E+00 0.  1.
         -2    1    1    2    0  503  0.10098478428E+02 -0.23725691844E+02 -0.12057747431E+04  0.12060504213E+04  0.00000000000E+00 0. -1.
<mgrwt>
<rscale>  2 0.25785417E+02</rscale>
<asrwt>0</asrwt>
<pdfrwt beam="1">  1       21 0.13607814E-03 0.25785417E+02</pdfrwt>
<pdfrwt beam="2">  1       21 0.21977361E+00 0.25785417E+02</pdfrwt>
<totfact> 0.79015604E+06</totfact>
</mgrwt>
</event>
<event>
 4    1  0.2736402E+004  0.3008813E+02  0.7546771E-02  0.1597117E+00
         21   -1    0    0  503  502  0.00000000000E+00  0.00000000000E+00  0.10619542918E+04  0.10619542918E+04  0.00000000000E+00 0.  1.
         21   -1    0    0  501  503 -0.00000000000E+00 -0.00000000000E+00 -0.14279020959E+01  0.14279020959E+01  0.00000000000E+00 0. -1.
          2    1    1    2  501    0 -0.15814396678E+02  0.25596885131E+02  0.19274038438E+03  0.19507473297E+03  0.00000000000E+00 0. -1.
         -2    1    1    2    0  502  0.15814396678E+02 -0.25596885131E+02  0.86778600531E+03  0.86830746091E+03  0.00000000000E+00 0.  1.
<mgrwt>
<rscale>  2 0.30088132E+02</rscale>
<asrwt>0</asrwt>
<pdfrwt beam="1">  1       21 0.16337695E+00 0.30088132E+02</pdfrwt>
<pdfrwt beam="2">  1       21 0.21967809E-03 0.30088132E+02</pdfrwt>
<totfact> 0.85952258E+06</totfact>
</mgrwt>
</event>
<event>
 4    1  0.2736402E+004  0.4726761E+02  0.7546771E-02  0.1460662E+00
         21   -1    0    0  501  502  0.00000000000E+00  0.00000000000E+00  0.40760243897E+03  0.40760243897E+03  0.00000000000E+00 0. -1.
         21   -1    0    0  502  503 -0.00000000000E+00 -0.00000000000E+00 -0.71814193768E+01  0.71814193768E+01  0.00000000000E+00 0.  1.
          2    1    1    2  501    0  0.45639068560E+02 -0.12300490394E+02  0.30111612259E+03  0.30480345458E+03  0.00000000000E+00 0. -1.
         -2    1    1    2    0  503 -0.45639068560E+02  0.12300490394E+02  0.99304897004E+02  0.10998040376E+03  0.00000000000E+00 0.  1.
<mgrwt>
<rscale>  2 0.47267607E+02</rscale>
<asrwt>0</asrwt>
<pdfrwt beam="1">  1       21 0.62708049E-01 0.47267607E+02</pdfrwt>
<pdfrwt beam="2">  1       21 0.11048341E-02 0.47267607E+02</pdfrwt>
<totfact> 0.69089313E+06</totfact>
</mgrwt>
</event>
<event>
 4    1  0.2736402E+004  0.2603427E+02  0.7546771E-02  0.1646576E+00
         21   -1    0    0  503  502  0.00000000000E+00  0.00000000000E+00  0.10292924218E+02  0.10292924218E+02  0.00000000000E+00 0. -1.
         21   -1    0    0  501  503 -0.00000000000E+00 -0.00000000000E+00 -0.75020790317E+02  0.75020790317E+02  0.00000000000E+00 0.  1.
          2    1    1    2  501    0  0.17956086998E+02 -0.18851057169E+02 -0.47278628895E+02  0.53972698347E+02  0.00000000000E+00 0.  1.
         -2    1    1    2    0  502 -0.17956086998E+02  0.18851057169E+02 -0.17449237204E+02  0.31341016187E+02  0.00000000000E+00 0. -1.
<mgrwt>
<rscale>  2 0.26034274E+02</rscale>
<asrwt>0</asrwt>
<pdfrwt beam="1">  1       21 0.15835267E-02 0.26034274E+02</pdfrwt>
<pdfrwt beam="2">  1       21 0.11541660E-01 0.26034274E+02</pdfrwt>
<totfact> 0.81101702E+07</totfact>
</mgrwt>
</event>
<event>
 4    1  0.2736402E+004  0.2352024E+02  0.7546771E-02  0.1683213E+00
         21   -1    0    0  503  502  0.00000000000E+00  0.00000000000E+00  0.30026620730E+02  0.30026620730E+02  0.00000000000E+00 0. -1.
         21   -1    0    0  501  503 -0.00000000000E+00 -0.00000000000E+00 -0.24654277975E+02  0.24654277975E+02  0.00000000000E+00 0.  1.
          2    1    1    2  501    0 -0.23492195225E+02  0.11481811334E+01 -0.11058157894E+02  0.25990082963E+02  0.00000000000E+00 0.  1.
         -2    1    1    2    0  502  0.23492195225E+02 -0.11481811334E+01  0.16430500649E+02  0.28690815742E+02  0.00000000000E+00 0. -1.
<mgrwt>
<rscale>  2 0.23520237E+02</rscale>
<asrwt>0</asrwt>
<pdfrwt beam="1">  1       21 0.46194801E-02 0.23520237E+02</pdfrwt>
<pdfrwt beam="2">  1       21 0.37929659E-02 0.23520237E+02</pdfrwt>
<totfact> 0.90629926E+07</totfact>
</mgrwt>
</event>
<event>
 4    1  0.2736402E+004  0.2209844E+02  0.7546771E-02  0.1706555E+00
         21   -1    0    0  501  502  0.00000000000E+00  0.00000000000E+00  0.13651490835E+01  0.13651490835E+01  0.00000000000E+00 0.  1.
         21   -1    0    0  502  503 -0.00000000000E+00 -0.00000000000E+00 -0.36802878474E+03  0.36802878474E+03  0.00000000000E+00 0. -1.
          2    1    1    2  501    0 -0.44304054953E+00 -0.22093994231E+02 -0.15241984799E+03  0.15401347644E+03  0.00000000000E+00 0.  1.
         -2    1    1    2    0  503  0.44304054953E+00  0.22093994231E+02 -0.21424378767E+03  0.21538045738E+03  0.00000000000E+00 0. -1.
<mgrwt>
<rscale>  2 0.22098436E+02</rscale>
<asrwt>0</asrwt>
<pdfrwt beam="1">  1       21 0.21002273E-03 0.22098436E+02</pdfrwt>
<pdfrwt beam="2">  1       21 0.56619869E-01 0.22098436E+02</pdfrwt>
<totfact> 0.88511065E+07</totfact>
</mgrwt>
</event>
<event>
 4    1  0.2736402E+004  0.2033558E+02  0.7546771E-02  0.1738736E+00
         21   -1    0    0  503  502  0.00000000000E+00  0.00000000000E+00  0.17396388911E+01  0.17396388911E+01  0.00000000000E+00 0.  1.
         21   -1    0    0  501  503 -0.00000000000E+00 -0.00000000000E+00 -0.33799408947E+03  0.33799408947E+03  0.00000000000E+00 0. -1.
          2    1    1    2  501    0  0.10495671771E+02  0.17417708179E+02 -0.26065295368E+03  0.26144501898E+03  0.00000000000E+00 0. -1.
         -2    1    1    2    0  502 -0.10495671771E+02 -0.17417708179E+02 -0.75601496893E+02  0.78288709381E+02  0.00000000000E+00 0.  1.
<mgrwt>
<rscale>  2 0.20335577E+02</rscale>
<asrwt>0</asrwt>
<pdfrwt beam="1">  1       21 0.26763657E-03 0.20335577E+02</pdfrwt>
<pdfrwt beam="2">  1       21 0.51999127E-01 0.20335577E+02</pdfrwt>
<totfact> 0.72110050E+07</totfact>
</mgrwt>
</event>
<event>
 4    1  0.2736402E+004  0.3560003E+02  0.7546771E-02  0.1543336E+00
         21   -1    0    0  501  502  0.00000000000E+00  0.00000000000E+00  0.96107978457E+03  0.96107978457E+03  0.00000000000E+00 0.  1.
         21   -1    0    0  502  503 -0.00000000000E+00 -0.00000000000E+00 -0.14830069354E+01  0.14830069354E+01  0.00000000000E+00 0. -1.
          2    1    1    2  501    0  0.28933554563E+02  0.20741544424E+02  0.64000270917E+03  0.64099206702E+03  0.00000000000E+00 0.  1.
         -2    1    1    2    0  503 -0.28933554563E+02 -0.20741544424E+02  0.31959406847E+03  0.32157072448E+03  0.00000000000E+00 0. -1.
<mgrwt>
<rscale>  2 0.35600032E+02</rscale>
<asrwt>0</asrwt>
<pdfrwt beam="1">  1       21 0.14785793E+00 0.35600032E+02</pdfrwt>
<pdfrwt beam="2">  1       21 0.22815568E-03 0.35600032E+02</pdfrwt>
<totfact> 0.10566233E+07</totfact>
</mgrwt>
</event>
<event>
 4    1  0.2736402E+004  0.2003255E+02  0.7546771E-02  0.1744682E+00
         21   -1    0    0  501  502  0.00000000000E+00  0.00000000000E+00  0.32933180610E+03  0.32933180610E+03  0.00000000000E+00 0. -1.
         21   -1    0    0  502  503 -0.00000000000E+00 -0.00000000000E+00 -0.21546294928E+01  0.21546294928E+01  0.00000000000E+00 0.  1.
          2    1    1    2  501    0 -0.65804462405E+01  0.18920910435E+02  0.27283539547E+03  0.27356983779E+03  0.00000000000E+00 0. -1.
         -2    1    1    2    0  503  0.65804462405E+01 -0.18920910435E+02  0.54341781130E+02  0.57916597800E+02  0.00000000000E+00 0.  1.
<mgrwt>
<rscale>  2 0.20032552E+02</rscale>
<asrwt>0</asrwt>
<pdfrwt beam="1">  1       21 0.50666392E-01 0.20032552E+02</pdfrwt>
<pdfrwt beam="2">  1       21 0.33148172E-03 0.20032552E+02</pdfrwt>
<totfact> 0.55386686E+07</totfact>
</mgrwt>
</event>
<event>
 4    1  0.2736402E+004  0.4030647E+02  0.7546771E-02  0.1505968E+00
         21   -1    0    0  503  502  0.00000000000E+00  0.00000000000E+00  0.31597543802E+02  0.31597543802E+02  0.00000000000E+00 0.  1.
         21   -1    0    0  501  503 -0.00000000000E+00 -0.00000000000E+00 -0.56803993020E+02  0.56803993020E+02  0.00000000000E+00 0. -1.
          2    1    1    2  501    0 -0.39303696241E+02 -0.89348343378E+01 -0.26216526533E+02  0.48082409115E+02  0.00000000000E+00 0. -1.
         -2    1    1    2    0  502  0.39303696241E+02  0.89348343378E+01  0.10100773142E+01  0.40319127707E+02  0.00000000000E+00 0.  1.
<mgrwt>
<rscale>  2 0.40306473E+02</rscale>
<asrwt>0</asrwt>
<pdfrwt beam="1">  1       21 0.48611606E-02 0.40306473E+02</pdfrwt>
<pdfrwt beam="2">  1       21 0.87390758E-02 0.40306473E+02</pdfrwt>
<totfact> 0.24268376E+07</totfact>
</mgrwt>
</event>
<event>
 4    1  0.2736402E+004  0.2154545E+02  0.7546771E-02  0.1716234E+00
         21   -1    0    0  503  502  0.00000000000E+00  0.00000000000E+00  0.20133438030E+02  0.20133438030E+02  0.00000000000E+00 0.  1.
         21   -1    0    0  501  503 -0.00000000000E+00 -0.00000000000E+00 -0.30381857743E+02  0.30381857743E+02  0.00000000000E+00 0. -1.
          2    1    1    2  501    0  0.21508921667E+02  0.12541170730E+01 -0.17526454617E+02  0.27773784984E+02  0.00000000000E+00 0. -1.
         -2    1    1    2    0  502 -0.21508921667E+02 -0.12541170730E+01  0.72780349033E+01  0.22741510789E+02  0.00000000000E+00 0.  1.
<mgrwt>
<rscale>  2 0.21545452E+02</rscale>
<asrwt>0</asrwt>
<pdfrwt beam="1">  1       21 0.30974520E-02 0.21545452E+02</pdfrwt>
<pdfrwt beam="2">  1       21 0.46741320E-02 0.21545452E+02</pdfrwt>
<totfact> 0.11904032E+08</totfact>
</mgrwt>
</event>
<event>
 4    1  0.2736402E+004  0.4588883E+02  0.7546771E-02  0.1468868E+00
         21   -1    0    0  503  502  0.00000000000E+00  0.00000000000E+00  0.33991986503E+03  0.33991986503E+03  0.00000000000E+00 0. -1.
         21   -1    0    0  501  503 -0.00000000000E+00 -0.00000000000E+00 -0.62679163599E+01  0.62679163599E+01  0.00000000000E+00 0.  1.
          2    1    1    2  501    0  0.45885909289E+02  0.51794268798E+00  0.14814946234E+03  0.15509367533E+03  0.00000000000E+00 0.  1.
         -2    1    1    2    0  502 -0.45885909289E+02 -0.51794268798E+00  0.18550248633E+03  0.19109410606E+03  0.00000000000E+00 0. -1.
<mgrwt>
<rscale>  2 0.45888832E+02</rscale>
<asrwt>0</asrwt>
<pdfrwt beam="1">  1       21 0.52295349E-01 0.45888832E+02</pdfrwt>
<pdfrwt beam="2">  1       21 0.96429509E-03 0.45888832E+02</pdfrwt>
<totfact> 0.12296259E+07</totfact>
</mgrwt>
</event>
<event>
 4    1  0.2736402E+004  0.3524145E+02  0.7546771E-02  0.1546467E+00
         21   -1    0    0  501  502  0.00000000000E+00  0.00000000000E+00  0.71655180056E+02  0.71655180056E+02  0.00000000000E+00 0.  1.
         21   -1    0    0  502  503 -0.00000000000E+00 -0.00000000000E+00 -0.17332841889E+02  0.17332841889E+02  0.00000000000E+00 0. -1.
          2    1    1    2  501    0  0.17278676910E+02 -0.30714930348E+02  0.27373501509E+02  0.44623628348E+02  0.00000000000E+00 0.  1.
         -2    1    1    2    0  503 -0.17278676910E+02  0.30714930348E+02  0.26948836657E+02  0.44364393597E+02  0.00000000000E+00 0. -1.
<mgrwt>
<rscale>  2 0.35241448E+02</rscale>
<asrwt>0</asrwt>
<pdfrwt beam="1">  1       21 0.11023874E-01 0.35241448E+02</pdfrwt>
<pdfrwt beam="2">  1       21 0.26665911E-02 0.35241448E+02</pdfrwt>
<totfact> 0.41808262E+07</totfact>
</mgrwt>
</event>
<event>
 4    1  0.2736402E+004  0.2337629E+02  0.7546771E-02  0.1685482E+00
         21   -1    0    0  501  502  0.00000000000E+00  0.00000000000E+00  0.61056333031E+02  0.61056333031E+02  0.00000000000E+00 0. -1.
         21   -1    0    0  502  503 -0.00000000000E+00 -0.00000000000E+00 -0.91139160256E+01  0.91139160256E+01  0.00000000000E+00 0.  1.
          2    1    1    2  501    0 -0.12993886183E+02  0.19432184926E+02  0.21265200919E+02  0.31601576848E+02  0.00000000000E+00 0. -1.
         -2    1    1    2    0  503  0.12993886183E+02 -0.19432184926E+02  0.30677216086E+02  0.38568672208E+02  0.00000000000E+00 0.  1.
<mgrwt>
<rscale>  2 0.23376289E+02</rscale>
<asrwt>0</asrwt>
<pdfrwt beam="1">  1       21 0.93932817E-02 0.23376289E+02</pdfrwt>
<pdfrwt beam="2">  1       21 0.14021410E-02 0.23376289E+02</pdfrwt>
<totfact> 0.13353735E+08</totfact>
</mgrwt>
</event>
<event>
 4    1  0.2736402E+004  0.2199991E+02  0.7546771E-02  0.1708254E+00
         21   -1    0    0  503  502  0.00000000000E+00  0.00000000000E+00  0.40482019790E+02  0.40482019790E+02  0.00000000000E+00 0.  1.
         21   -1    0    0  501  503 -0.00000000000E+00 -0.00000000000E+00 -0.42994750860E+02  0.42994750860E+02  0.00000000000E+00 0. -1.
          2    1    1    2  501    0  0.13580062949E+02  0.17308315797E+02 -0.36719839325E+02  0.42805869989E+02  0.00000000000E+00 0. -1.
         -2    1    1    2    0  502 -0.13580062949E+02 -0.17308315797E+02  0.34207108255E+02  0.40670900662E+02  0.00000000000E+00 0.  1.
<mgrwt>
<rscale>  2 0.21999907E+02</rscale>
<asrwt>0</asrwt>
<pdfrwt beam="1">  1       21 0.62280030E-02 0.21999907E+02</pdfrwt>
<pdfrwt beam="2">  1       21 0.66145771E-02 0.21999907E+02</pdfrwt>
<totfact> 0.22811546E+07</totfact>
</mgrwt>
</event>
<event>
 4    1  0.2736402E+004  0.2357130E+02  0.7546771E-02  0.1682413E+00
         21   -1    0    0  501  502  0.00000000000E+00  0.00000000000E+00  0.19161719678E+03  0.19161719678E+03  0.00000000000E+00 0. -1.
         21   -1    0    0  502  503 -0.00000000000E+00 -0.00000000000E+00 -0.36757930032E+01  0.36757930032E+01  0.00000000000E+00 0.  1.
          2    1    1    2  501    0 -0.11064443239E+02 -0.20813075844E+02  0.13884281266E+03  0.14082944528E+03  0.00000000000E+00 0. -1.
         -2    1    1    2    0  503  0.11064443239E+02  0.20813075844E+02  0.49098591116E+02  0.54463544504E+02  0.00000000000E+00 0.  1.
<mgrwt>
<rscale>  2 0.23571297E+02</rscale>
<asrwt>0</asrwt>
<pdfrwt beam="1">  1       21 0.29479561E-01 0.23571297E+02</pdfrwt>
<pdfrwt beam="2">  1       21 0.56550677E-03 0.23571297E+02</pdfrwt>
<totfact> 0.72712818E+07</totfact>
</mgrwt>
</event>
<event>
 4    1  0.2736402E+004  0.2131625E+02  0.7546771E-02  0.1720353E+00
         21   -1    0    0  501  502  0.00000000000E+00  0.00000000000E+00  0.61644780979E+02  0.61644780979E+02  0.00000000000E+00 0.  1.
         21   -1    0    0  502  503 -0.00000000000E+00 -0.00000000000E+00 -0.75033365984E+01  0.75033365984E+01  0.00000000000E+00 0. -1.
          2    1    1    2  501    0 -0.21035469690E+02 -0.34483877771E+01  0.31662683243E+02  0.38169462578E+02  0.00000000000E+00 0. -1.
         -2    1    1    2    0  503  0.21035469690E+02  0.34483877771E+01  0.22478761138E+02  0.30978655000E+02  0.00000000000E+00 0.  1.
<mgrwt>
<rscale>  2 0.21316246E+02</rscale>
<asrwt>0</asrwt>
<pdfrwt beam="1">  1       21 0.94838121E-02 0.21316246E+02</pdfrwt>
<pdfrwt beam="2">  1       21 0.11543595E-02 0.21316246E+02</pdfrwt>
<totfact> 0.17148003E+08</totfact>
</mgrwt>
</event>
<event>
 4    1  0.2736402E+004  0.4068770E+02  0.7546771E-02  0.1503211E+00
         21   -1    0    0  503  502  0.00000000000E+00  0.00000000000E+00  0.74965760117E+02  0.74965760117E+02  0.00000000000E+00 0. -1.
         21   -1    0    0  501  503 -0.00000000000E+00 -0.00000000000E+00 -0.22358365336E+02  0.22358365336E+02  0.00000000000E+00 0.  1.
          2    1    1    2  501    0 -0.18165348492E+02  0.36407539420E+02  0.20905915187E+02  0.45744355961E+02  0.00000000000E+00 0. -1.
         -2    1    1    2    0  502  0.18165348492E+02 -0.36407539420E+02  0.31701479593E+02  0.51579769492E+02  0.00000000000E+00 0.  1.
<mgrwt>
<rscale>  2 0.40687699E+02</rscale>
<asrwt>0</asrwt>
<pdfrwt beam="1">  1       21 0.11533194E-01 0.40687699E+02</pdfrwt>
<pdfrwt beam="2">  1       21 0.34397485E-02 0.40687699E+02</pdfrwt>
<totfact> 0.26536740E+07</totfact>
</mgrwt>
</event>
<event>
 4    1  0.2736402E+004  0.2320078E+02  0.7546771E-02  0.1688276E+00
         21   -1    0    0  503  502  0.00000000000E+00  0.00000000000E+00  0.27173514959E+03  0.27173514959E+03  0.00000000000E+00 0. -1.
         21   -1    0    0  501  503 -0.00000000000E+00 -0.00000000000E+00 -0.33702756908E+01  0.33702756908E+01  0.00000000000E+00 0.  1.
          2    1    1    2  501    0 -0.13888281139E+02  0.18584725584E+02  0.45864591152E+02  0.51398804456E+02  0.00000000000E+00 0.  1.
         -2    1    1    2    0  502  0.13888281139E+02 -0.18584725584E+02  0.22250028275E+03  0.22370662083E+03  0.00000000000E+00 0. -1.
<mgrwt>
<rscale>  2 0.23200784E+02</rscale>
<asrwt>0</asrwt>
<pdfrwt beam="1">  1       21 0.41805390E-01 0.23200784E+02</pdfrwt>
<pdfrwt beam="2">  1       21 0.51850417E-03 0.23200784E+02</pdfrwt>
<totfact> 0.43072935E+07</totfact>
</mgrwt>
</event>
<event>
 4    1  0.2736402E+004  0.2395001E+02  0.7546771E-02  0.1676558E+00
         21   -1    0    0  501  502  0.00000000000E+00  0.00000000000E+00  0.53225540666E+00  0.53225540666E+00  0.00000000000E+00 0. -1.
         21   -1    0    0  502  503 -0.00000000000E+00 -0.00000000000E+00 -0.13287911671E+04  0.13287911671E+04  0.00000000000E+00 0.  1.
          2    1    1    2  501    0 -0.23280314539E+02 -0.56240564401E+01 -0.37519324109E+03  0.37595687415E+03  0.00000000000E+00 0.  1.
         -2    1    1    2    0  503  0.23280314539E+02  0.56240564401E+01 -0.95306567058E+03  0.95336654834E+03  0.00000000000E+00 0. -1.
<mgrwt>
<rscale>  2 0.23950012E+02</rscale>
<asrwt>0</asrwt>
<pdfrwt beam="1">  1       21 0.81885394E-04 0.23950012E+02</pdfrwt>
<pdfrwt beam="2">  1       21 0.20442954E+00 0.23950012E+02</pdfrwt>
<totfact> 0.19618050E+07</totfact>
</mgrwt>
</event>
<event>
 4    1  0.2736402E+004  0.2041401E+02  0.7546771E-02  0.1737218E+00
         21   -1    0    0  501  502  0.00000000000E+00  0.00000000000E+00  0.58549258818E+03  0.58549258818E+03  0.00000000000E+00 0.  1.
         21   -1    0    0  502  503 -0.00000000000E+00 -0.00000000000E+00 -0.74840410808E+00  0.74840410808E+00  0.00000000000E+00 0. -1.
          2    1    1    2  501    0 -0.20046223462E+02 -0.38575402876E+01  0.35723032718E+03  0.35781313328E+03  0.00000000000E+00 0.  1.
         -2    1    1    2    0  503  0.20046223462E+02  0.38575402876E+01  0.22751385689E+03  0.22842785901E+03  0.00000000000E+00 0. -1.
<mgrwt>
<rscale>  2 0.20414007E+02</rscale>
<asrwt>0</asrwt>
<pdfrwt beam="1">  1       21 0.90075417E-01 0.20414007E+02</pdfrwt>
<pdfrwt beam="2">  1       21 0.11513956E-03 0.20414007E+02</pdfrwt>
<totfact> 0.79172071E+07</totfact>
</mgrwt>
</event>
<event>
 4    1  0.2736402E+004  0.2318364E+02  0.7546771E-02  0.1688551E+00
         21   -1    0    0  501  502  0.00000000000E+00  0.00000000000E+00  0.54976312110E+01  0.54976312110E+01  0.00000000000E+00 0. -1.
         21   -1    0    0  502  503 -0.00000000000E+00 -0.00000000000E+00 -0.10550898037E+03  0.10550898037E+03  0.00000000000E+00 0.  1.
          2    1    1    2  501    0  0.22133684439E+01 -0.23077738719E+02 -0.34969747887E+02  0.41956695431E+02  0.00000000000E+00 0. -1.
         -2    1    1    2    0  503 -0.22133684439E+01  0.23077738719E+02 -0.65041601276E+02  0.69049916154E+02  0.00000000000E+00 0.  1.
<mgrwt>
<rscale>  2 0.23183637E+02</rscale>
<asrwt>0</asrwt>
<pdfrwt beam="1">  1       21 0.84578939E-03 0.23183637E+02</pdfrwt>
<pdfrwt beam="2">  1       21 0.16232151E-01 0.23183637E+02</pdfrwt>
<totfact> 0.11382324E+08</totfact>
</mgrwt>
</event>
<event>
 4    1  0.2736402E+004  0.2241946E+02  0.7546771E-02  0.1701097E+00
         21   -1    0    0  503  502  0.00000000000E+00  0.00000000000E+00  0.15004079757E+02  0.15004079757E+02  0.00000000000E+00 0.  1.
         21   -1    0    0  501  503 -0.00000000000E+00 -0.00000000000E+00 -0.33520569313E+02  0.33520569313E+02  0.00000000000E+00 0. -1.
          2    1    1    2  501    0  0.20350237337E+02 -0.94074519369E+01 -0.86529972905E+01  0.24031368537E+02  0.00000000000E+00 0. -1.
         -2    1    1    2    0  502 -0.20350237337E+02  0.94074519369E+01 -0.98634922652E+01  0.24493280534E+02  0.00000000000E+00 0.  1.
<mgrwt>
<rscale>  2 0.22419463E+02</rscale>
<asrwt>0</asrwt>
<pdfrwt beam="1">  1       21 0.23083199E-02 0.22419463E+02</pdfrwt>
<pdfrwt beam="2">  1       21 0.51570107E-02 0.22419463E+02</pdfrwt>
<totfact> 0.16248474E+08</totfact>
</mgrwt>
</event>
<event>
 4    1  0.2736402E+004  0.2369779E+02  0.7546771E-02  0.1680443E+00
         21   -1    0    0  501  502  0.00000000000E+00  0.00000000000E+00  0.77635817129E+02  0.77635817129E+02  0.00000000000E+00 0.  1.
         21   -1    0    0  502  503 -0.00000000000E+00 -0.00000000000E+00 -0.27938632450E+02  0.27938632450E+02  0.00000000000E+00 0. -1.
          2    1    1    2  501    0  0.21113705229E+02  0.10760894683E+02  0.70291316357E+02  0.74178531653E+02  0.00000000000E+00 0.  1.
         -2    1    1    2    0  503 -0.21113705229E+02 -0.10760894683E+02 -0.20594131678E+02  0.31395917926E+02  0.00000000000E+00 0. -1.
<mgrwt>
<rscale>  2 0.23697793E+02</rscale>
<asrwt>0</asrwt>
<pdfrwt beam="1">  1       21 0.11943972E-01 0.23697793E+02</pdfrwt>
<pdfrwt beam="2">  1       21 0.42982512E-02 0.23697793E+02</pdfrwt>
<totfact> 0.15871660E+07</totfact>
</mgrwt>
</event>
<event>
 4    1  0.2736402E+004  0.2380446E+02  0.7546771E-02  0.1678792E+00
         21   -1    0    0  503  502  0.00000000000E+00  0.00000000000E+00  0.16106611675E+02  0.16106611675E+02  0.00000000000E+00 0. -1.
         21   -1    0    0  501  503 -0.00000000000E+00 -0.00000000000E+00 -0.48020187159E+02  0.48020187159E+02  0.00000000000E+00 0.  1.
          2    1    1    2  501    0  0.21208128342E+02  0.10810535699E+02 -0.32535868102E+02  0.40314204730E+02  0.00000000000E+00 0. -1.
         -2    1    1    2    0  502 -0.21208128342E+02 -0.10810535699E+02  0.62229261875E+00  0.23812594104E+02  0.00000000000E+00 0.  1.
<mgrwt>
<rscale>  2 0.23804462E+02</rscale>
<asrwt>0</asrwt>
<pdfrwt beam="1">  1       21 0.24779402E-02 0.23804462E+02</pdfrwt>
<pdfrwt beam="2">  1       21 0.73877212E-02 0.23804462E+02</pdfrwt>
<totfact> 0.83116421E+07</totfact>
</mgrwt>
</event>
<event>
 4    1  0.2736402E+004  0.3310093E+02  0.7546771E-02  0.1566142E+00
         21   -1    0    0  503  502  0.00000000000E+00  0.00000000000E+00  0.80413991888E+02  0.80413991888E+02  0.00000000000E+00 0.  1.
         21   -1    0    0  501  503 -0.00000000000E+00 -0.00000000000E+00 -0.98222987918E+02  0.98222987918E+02  0.00000000000E+00 0. -1.
          2    1    1    2  501    0  0.16723255176E+02 -0.28565790070E+02 -0.91796729127E+02  0.97582329878E+02  0.00000000000E+00 0. -1.
         -2    1    1    2    0  502 -0.16723255176E+02  0.28565790070E+02  0.73987733097E+02  0.81054649927E+02  0.00000000000E+00 0.  1.
<mgrwt>
<rscale>  2 0.33100931E+02</rscale>
<asrwt>0</asrwt>
<pdfrwt beam="1">  1       21 0.12371383E-01 0.33100931E+02</pdfrwt>
<pdfrwt beam="2">  1       21 0.15111229E-01 0.33100931E+02</pdfrwt>
<totfact> 0.19779645E+06</totfact>
</mgrwt>
</event>
<event>
 4    1  0.2736402E+004  0.2040731E+02  0.7546771E-02  0.1737347E+00
         21   -1    0    0  503  502  0.00000000000E+00  0.00000000000E+00  0.93038608587E+01  0.93038608587E+01  0.00000000000E+00 0.  1.
         21   -1    0    0  501  503 -0.00000000000E+00 -0.00000000000E+00 -0.97350164604E+02  0.97350164604E+02  0.00000000000E+00 0. -1.
          2    1    1    2  501    0  0.19016964223E+02 -0.74035996835E+01 -0.83217500549E+02  0.85683199135E+02  0.00000000000E+00 0. -1.
         -2    1    1    2    0  502 -0.19016964223E+02  0.74035996835E+01 -0.48288031966E+01  0.20970826327E+02  0.00000000000E+00 0.  1.
<mgrwt>
<rscale>  2 0.20407308E+02</rscale>
<asrwt>0</asrwt>
<pdfrwt beam="1">  1       21 0.14313632E-02 0.20407308E+02</pdfrwt>
<pdfrwt beam="2">  1       21 0.14976948E-01 0.20407308E+02</pdfrwt>
<totfact> 0.57157799E+07</totfact>
</mgrwt>
</event>
<event>
 4    1  0.2736402E+004  0.2229035E+02  0.7546771E-02  0.1703278E+00
         21   -1    0    0  503  502  0.00000000000E+00  0.00000000000E+00  0.10072619535E+02  0.10072619535E+02  0.00000000000E+00 0.  1.
         21   -1    0    0  501  503 -0.00000000000E+00 -0.00000000000E+00 -0.11499883223E+03  0.11499883223E+03  0.00000000000E+00 0. -1.
          2    1    1    2  501    0 -0.23847315825E+01 -0.22162417330E+02 -0.99720368530E+02  0.10218126828E+03  0.00000000000E+00 0. -1.
         -2    1    1    2    0  502  0.23847315825E+01  0.22162417330E+02 -0.52058441638E+01  0.22890183487E+02  0.00000000000E+00 0.  1.
<mgrwt>
<rscale>  2 0.22290350E+02</rscale>
<asrwt>0</asrwt>
<pdfrwt beam="1">  1       21 0.15496337E-02 0.22290350E+02</pdfrwt>
<pdfrwt beam="2">  1       21 0.17692128E-01 0.22290350E+02</pdfrwt>
<totfact> 0.38999594E+07</totfact>
</mgrwt>
</event>
<event>
 4    1  0.2736402E+004  0.2724356E+02  0.7546771E-02  0.1630722E+00
         21   -1    0    0  503  502  0.00000000000E+00  0.00000000000E+00  0.38087359362E+03  0.38087359362E+03  0.00000000000E+00 0. -1.
         21   -1    0    0  501  503 -0.00000000000E+00 -0.00000000000E+00 -0.20615203916E+01  0.20615203916E+01  0.00000000000E+00 0.  1.
          2    1    1    2  501    0  0.21056420514E+02 -0.17286957709E+02  0.14461634218E+03  0.14716011069E+03  0.00000000000E+00 0.  1.
         -2    1    1    2    0  502 -0.21056420514E+02  0.17286957709E+02  0.23419573105E+03  0.23577500332E+03  0.00000000000E+00 0. -1.
<mgrwt>
<rscale>  2 0.27243563E+02</rscale>
<asrwt>0</asrwt>
<pdfrwt beam="1">  1       21 0.58595882E-01 0.27243563E+02</pdfrwt>
<pdfrwt beam="2">  1       21 0.31715729E-03 0.27243563E+02</pdfrwt>
<totfact> 0.47633539E+07</totfact>
</mgrwt>
</event>
<event>
 4    1  0.2736402E+004  0.2125396E+02  0.7546771E-02  0.1721483E+00
         21   -1    0    0  503  502  0.00000000000E+00  0.00000000000E+00  0.38484220145E+02  0.38484220145E+02  0.00000000000E+00 0. -1.
         21   -1    0    0  501  503 -0.00000000000E+00 -0.00000000000E+00 -0.36145811100E+02  0.36145811100E+02  0.00000000000E+00 0.  1.
          2    1    1    2  501    0  0.16276103347E+02 -0.13668184990E+02 -0.29494057440E+02  0.36354232840E+02  0.00000000000E+00 0.  1.
         -2    1    1    2    0  502 -0.16276103347E+02  0.13668184990E+02  0.31832466485E+02  0.38275798405E+02  0.00000000000E+00 0. -1.
<mgrwt>
<rscale>  2 0.21253960E+02</rscale>
<asrwt>0</asrwt>
<pdfrwt beam="1">  1       21 0.59206493E-02 0.21253960E+02</pdfrwt>
<pdfrwt beam="2">  1       21 0.55608940E-02 0.21253960E+02</pdfrwt>
<totfact> 0.32405576E+07</totfact>
</mgrwt>
</event>
<event>
 4    1  0.2736402E+004  0.7029392E+02  0.7546771E-02  0.1359096E+00
         21   -1    0    0  501  502  0.00000000000E+00  0.00000000000E+00  0.89160214762E+02  0.89160214762E+02  0.00000000000E+00 0. -1.
         21   -1    0    0  502  503 -0.00000000000E+00 -0.00000000000E+00 -0.56939337484E+02  0.56939337484E+02  0.00000000000E+00 0.  1.
          2    1    1    2  501    0  0.68555261653E+02  0.15537401402E+02  0.28044241387E+02  0.75681663681E+02  0.00000000000E+00 0. -1.
         -2    1    1    2    0  503 -0.68555261653E+02 -0.15537401402E+02  0.41766358907E+01  0.70417888565E+02  0.00000000000E+00 0.  1.
<mgrwt>
<rscale>  2 0.70293917E+02</rscale>
<asrwt>0</asrwt>
<pdfrwt beam="1">  1       21 0.13716956E-01 0.70293917E+02</pdfrwt>
<pdfrwt beam="2">  1       21 0.87598981E-02 0.70293917E+02</pdfrwt>
<totfact> 0.44895991E+06</totfact>
</mgrwt>
</event>
<event>
 4    1  0.2736402E+004  0.2091139E+02  0.7546771E-02  0.1727789E+00
         21   -1    0    0  503  502  0.00000000000E+00  0.00000000000E+00  0.80500292214E+02  0.80500292214E+02  0.00000000000E+00 0.  1.
         21   -1    0    0  501  503 -0.00000000000E+00 -0.00000000000E+00 -0.26606276508E+02  0.26606276508E+02  0.00000000000E+00 0. -1.
          2    1    1    2  501    0  0.42923566958E+01  0.20466117637E+02 -0.20827612121E+02  0.29513992001E+02  0.00000000000E+00 0. -1.
         -2    1    1    2    0  502 -0.42923566958E+01 -0.20466117637E+02  0.74721627827E+02  0.77592576721E+02  0.00000000000E+00 0.  1.
<mgrwt>
<rscale>  2 0.20911392E+02</rscale>
<asrwt>0</asrwt>
<pdfrwt beam="1">  1       21 0.12384660E-01 0.20911392E+02</pdfrwt>
<pdfrwt beam="2">  1       21 0.40932733E-02 0.20911392E+02</pdfrwt>
<totfact> 0.15707090E+07</totfact>
</mgrwt>
</event>
<event>
 4    1  0.2736402E+004  0.2696354E+02  0.7546771E-02  0.1634302E+00
         21   -1    0    0  503  502  0.00000000000E+00  0.00000000000E+00  0.36650987804E+02  0.36650987804E+02  0.00000000000E+00 0.  1.
         21   -1    0    0  501  503 -0.00000000000E+00 -0.00000000000E+00 -0.36394033062E+02  0.36394033062E+02  0.00000000000E+00 0. -1.
          2    1    1    2  501    0 -0.20137254584E+02  0.17931077830E+02 -0.24505892869E+02  0.36435852668E+02  0.00000000000E+00 0. -1.
         -2    1    1    2    0  502  0.20137254584E+02 -0.17931077830E+02  0.24762847611E+02  0.36609168198E+02  0.00000000000E+00 0.  1.
<mgrwt>
<rscale>  2 0.26963542E+02</rscale>
<asrwt>0</asrwt>
<pdfrwt beam="1">  1       21 0.56386135E-02 0.26963542E+02</pdfrwt>
<pdfrwt beam="2">  1       21 0.55990820E-02 0.26963542E+02</pdfrwt>
<totfact> 0.36679896E+07</totfact>
</mgrwt>
</event>
<event>
 4    1  0.2736402E+004  0.2335174E+02  0.7546771E-02  0.1685871E+00
         21   -1    0    0  503  502  0.00000000000E+00  0.00000000000E+00  0.17053105793E+03  0.17053105793E+03  0.00000000000E+00 0.  1.
         21   -1    0    0  501  503 -0.00000000000E+00 -0.00000000000E+00 -0.56231457210E+01  0.56231457210E+01  0.00000000000E+00 0. -1.
          2    1    1    2  501    0 -0.77030944406E+01 -0.22044637450E+02  0.24608274475E+02  0.33924487865E+02  0.00000000000E+00 0. -1.
         -2    1    1    2    0  502  0.77030944406E+01  0.22044637450E+02  0.14029963773E+03  0.14222971579E+03  0.00000000000E+00 0.  1.
<mgrwt>
<rscale>  2 0.23351739E+02</rscale>
<asrwt>0</asrwt>
<pdfrwt beam="1">  1       21 0.26235543E-01 0.23351739E+02</pdfrwt>
<pdfrwt beam="2">  1       21 0.86509947E-03 0.23351739E+02</pdfrwt>
<totfact> 0.47550957E+07</totfact>
</mgrwt>
</event>
<event>
 4    1  0.2736402E+004  0.2043654E+02  0.7546771E-02  0.1736784E+00
         21   -1    0    0  503  502  0.00000000000E+00  0.00000000000E+00  0.40575551699E+01  0.40575551699E+01  0.00000000000E+00 0. -1.
         21   -1    0    0  501  503 -0.00000000000E+00 -0.00000000000E+00 -0.10297091703E+03  0.10297091703E+03  0.00000000000E+00 0.  1.
          2    1    1    2  501    0  0.68823140016E+01  0.19242814634E+02 -0.50497391527E+02  0.54476037962E+02  0.00000000000E+00 0. -1.
         -2    1    1    2    0  502 -0.68823140016E+01 -0.19242814634E+02 -0.48415970337E+02  0.52552434242E+02  0.00000000000E+00 0.  1.
<mgrwt>
<rscale>  2 0.20436540E+02</rscale>
<asrwt>0</asrwt>
<pdfrwt beam="1">  1       21 0.62423934E-03 0.20436540E+02</pdfrwt>
<pdfrwt beam="2">  1       21 0.15841678E-01 0.20436540E+02</pdfrwt>
<totfact> 0.17951668E+08</totfact>
</mgrwt>
</event>
<event>
 4    1  0.2736402E+004  0.2394710E+02  0.7546771E-02  0.1676602E+00
         21   -1    0    0  503  502  0.00000000000E+00  0.00000000000E+00  0.95846879314E+02  0.95846879314E+02  0.00000000000E+00 0. -1.
         21   -1    0    0  501  503 -0.00000000000E+00 -0.00000000000E+00 -0.33551915228E+02  0.33551915228E+02  0.00000000000E+00 0.  1.
          2    1    1    2  501    0 -0.23457882238E+02 -0.48157232261E+01 -0.27500147977E+02  0.36465347496E+02  0.00000000000E+00 0.  1.
         -2    1    1    2    0  502  0.23457882238E+02  0.48157232261E+01  0.89795112064E+02  0.92933447046E+02  0.00000000000E+00 0. -1.
<mgrwt>
<rscale>  2 0.23947096E+02</rscale>
<asrwt>0</asrwt>
<pdfrwt beam="1">  1       21 0.14745674E-01 0.23947096E+02</pdfrwt>
<pdfrwt beam="2">  1       21 0.51618332E-02 0.23947096E+02</pdfrwt>
<totfact> 0.83274684E+06</totfact>
</mgrwt>
</event>
<event>
 4    1  0.2736402E+004  0.2171465E+02  0.7546771E-02  0.1713234E+00
         21   -1    0    0  503  502  0.00000000000E+00  0.00000000000E+00  0.33834710869E+02  0.33834710869E+02  0.00000000000E+00 0.  1.
         21   -1    0    0  501  503 -0.00000000000E+00 -0.00000000000E+00 -0.61612118789E+02  0.61612118789E+02  0.00000000000E+00 0. -1.
          2    1    1    2  501    0 -0.21644024624E+02  0.17499789816E+01 -0.55869253508E+02  0.59940801762E+02  0.00000000000E+00 0. -1.
         -2    1    1    2    0  502  0.21644024624E+02 -0.17499789816E+01  0.28091845588E+02  0.35506027895E+02  0.00000000000E+00 0.  1.
<mgrwt>
<rscale>  2 0.21714655E+02</rscale>
<asrwt>0</asrwt>
<pdfrwt beam="1">  1       21 0.52053402E-02 0.21714655E+02</pdfrwt>
<pdfrwt beam="2">  1       21 0.94787874E-02 0.21714655E+02</pdfrwt>
<totfact> 0.16869924E+07</totfact>
</mgrwt>
</event>
<event>
 4    1  0.2736402E+004  0.2484321E+02  0.7546771E-02  0.1663264E+00
         21   -1    0    0  503  502  0.00000000000E+00  0.00000000000E+00  0.65426500311E+01  0.65426500311E+01  0.00000000000E+00 0. -1.
         21   -1    0    0  501  503 -0.00000000000E+00 -0.00000000000E+00 -0.26368527629E+03  0.26368527629E+03  0.00000000000E+00 0.  1.
          2    1    1    2  501    0  0.14447769420E+02  0.20210071077E+02 -0.23685258766E+03  0.23815191222E+03  0.00000000000E+00 0.  1.
         -2    1    1    2    0  502 -0.14447769420E+02 -0.20210071077E+02 -0.20290038602E+02  0.32076014101E+02  0.00000000000E+00 0. -1.
<mgrwt>
<rscale>  2 0.24843209E+02</rscale>
<asrwt>0</asrwt>
<pdfrwt beam="1">  1       21 0.10065616E-02 0.24843209E+02</pdfrwt>
<pdfrwt beam="2">  1       21 0.40566965E-01 0.24843209E+02</pdfrwt>
<totfact> 0.17208351E+07</totfact>
</mgrwt>
</event>
<event>
 4    1  0.2736402E+004  0.2705585E+02  0.7546771E-02  0.1633116E+00
         21   -1    0    0  501  502  0.00000000000E+00  0.00000000000E+00  0.11697016491E+01  0.11697016491E+01  0.00000000000E+00 0.  1.
         21   -1    0    0  502  503 -0.00000000000E+00 -0.00000000000E+00 -0.17373056898E+04  0.17373056898E+04  0.00000000000E+00 0. -1.
          2    1    1    2  501    0 -0.25208349284E+02  0.98263947427E+01 -0.17279877973E+03  0.17490407995E+03  0.00000000000E+00 0.  1.
         -2    1    1    2    0  503  0.25208349284E+02 -0.98263947427E+01 -0.15633372084E+04  0.15635713115E+04  0.00000000000E+00 0. -1.
<mgrwt>
<rscale>  2 0.27055848E+02</rscale>
<asrwt>0</asrwt>
<pdfrwt beam="1">  1       21 0.17995369E-03 0.27055848E+02</pdfrwt>
<pdfrwt beam="2">  1       21 0.26727840E+00 0.27055848E+02</pdfrwt>
<totfact> 0.30262675E+06</totfact>
</mgrwt>
</event>
<event>
 4    1  0.2736402E+004  0.3241619E+02  0.7546771E-02  0.1572820E+00
         21   -1    0    0  503  502  0.00000000000E+00  0.00000000000E+00  0.94716674752E+02  0.94716674752E+02  0.00000000000E+00 0.  1.
         21   -1    0    0  501  503 -0.00000000000E+00 -0.00000000000E+00 -0.12409470009E+02  0.12409470009E+02  0.00000000000E+00 0. -1.
          2    1    1    2  501    0  0.28191664251E+02 -0.16001224625E+02  0.23715853722E+02  0.40165293980E+02  0.00000000000E+00 0. -1.
         -2    1    1    2    0  502 -0.28191664251E+02  0.16001224625E+02  0.58591351021E+02  0.66960850781E+02  0.00000000000E+00 0.  1.
<mgrwt>
<rscale>  2 0.32416186E+02</rscale>
<asrwt>0</asrwt>
<pdfrwt beam="1">  1       21 0.14571796E-01 0.32416186E+02</pdfrwt>
<pdfrwt beam="2">  1       21 0.19091493E-02 0.32416186E+02</pdfrwt>
<totfact> 0.43020332E+07</totfact>
</mgrwt>
</event>
<event>
 4    1  0.2736402E+004  0.2209645E+02  0.7546771E-02  0.1706589E+00
         21   -1    0    0  501  502  0.00000000000E+00  0.00000000000E+00  0.30083009876E+03  0.30083009876E+03  0.00000000000E+00 0. -1.
         21   -1    0    0  502  503 -0.00000000000E+00 -0.00000000000E+00 -0.23479930753E+01  0.23479930753E+01  0.00000000000E+00 0.  1.
          2    1    1    2  501    0 -0.18694592569E+02 -0.11779871458E+02  0.23347370130E+03  0.23451699802E+03  0.00000000000E+00 0. -1.
         -2    1    1    2    0  503  0.18694592569E+02  0.11779871458E+02  0.65008404385E+02  0.68661093812E+02  0.00000000000E+00 0.  1.
<mgrwt>
<rscale>  2 0.22096451E+02</rscale>
<asrwt>0</asrwt>
<pdfrwt beam="1">  1       21 0.46281523E-01 0.22096451E+02</pdfrwt>
<pdfrwt beam="2">  1       21 0.36122994E-03 0.22096451E+02</pdfrwt>
<totfact> 0.59624871E+07</totfact>
</mgrwt>
</event>
<event>
 4    1  0.2736402E+004  0.2062198E+02  0.7546771E-02  0.1733235E+00
         21   -1    0    0  503  502  0.00000000000E+00  0.00000000000E+00  0.71920887639E+03  0.71920887639E+03  0.00000000000E+00 0. -1.
         21   -1    0    0  501  503 -0.00000000000E+00 -0.00000000000E+00 -0.94989427280E+00  0.94989427280E+00  0.00000000000E+00 0.  1.
          2    1    1    2  501    0 -0.14321491808E+02 -0.14837818477E+02  0.13788922560E+03  0.13942275467E+03  0.00000000000E+00 0.  1.
         -2    1    1    2    0  502  0.14321491808E+02  0.14837818477E+02  0.58036975652E+03  0.58073601599E+03  0.00000000000E+00 0. -1.
<mgrwt>
<rscale>  2 0.20621978E+02</rscale>
<asrwt>0</asrwt>
<pdfrwt beam="1">  1       21 0.11064708E+00 0.20621978E+02</pdfrwt>
<pdfrwt beam="2">  1       21 0.14613816E-03 0.20621978E+02</pdfrwt>
<totfact> 0.36118798E+07</totfact>
</mgrwt>
</event>
<event>
 4    1  0.2736402E+004  0.2289208E+02  0.7546771E-02  0.1693265E+00
         21   -1    0    0  501  502  0.00000000000E+00  0.00000000000E+00  0.94740767714E+02  0.94740767714E+02  0.00000000000E+00 0.  1.
         21   -1    0    0  502  503 -0.00000000000E+00 -0.00000000000E+00 -0.68888334868E+01  0.68888334868E+01  0.00000000000E+00 0. -1.
          2    1    1    2  501    0 -0.22068913333E+02 -0.60836329409E+01  0.66482860687E+02  0.70313713389E+02  0.00000000000E+00 0.  1.
         -2    1    1    2    0  503  0.22068913333E+02  0.60836329409E+01  0.21369073540E+02  0.31315887811E+02  0.00000000000E+00 0. -1.
<mgrwt>
<rscale>  2 0.22892084E+02</rscale>
<asrwt>0</asrwt>
<pdfrwt beam="1">  1       21 0.14575502E-01 0.22892084E+02</pdfrwt>
<pdfrwt beam="2">  1       21 0.10598206E-02 0.22892084E+02</pdfrwt>
<totfact> 0.97166861E+07</totfact>
</mgrwt>
</event>
<event>
 4    1  0.2736402E+004  0.2366824E+02  0.7546771E-02  0.1680902E+00
         21   -1    0    0  503  502  0.00000000000E+00  0.00000000000E+00  0.41750077156E+03  0.41750077156E+03  0.00000000000E+00 0. -1.
         21   -1    0    0  501  503 -0.00000000000E+00 -0.00000000000E+00 -0.20459106079E+01  0.20459106079E+01  0.00000000000E+00 0.  1.
          2    1    1    2  501    0 -0.92442435313E+01  0.21788285135E+02  0.84660869851E+02  0.87907043469E+02  0.00000000000E+00 0.  1.
         -2    1    1    2    0  502  0.92442435313E+01 -0.21788285135E+02  0.33079399110E+03  0.33163963870E+03  0.00000000000E+00 0. -1.
<mgrwt>
<rscale>  2 0.23668236E+02</rscale>
<asrwt>0</asrwt>
<pdfrwt beam="1">  1       21 0.64230820E-01 0.23668236E+02</pdfrwt>
<pdfrwt beam="2">  1       21 0.31475581E-03 0.23668236E+02</pdfrwt>
<totfact> 0.38853898E+07</totfact>
</mgrwt>
</event>
<event>
 4    1  0.2736402E+004  0.2003783E+02  0.7546771E-02  0.1744577E+00
         21   -1    0    0  503  502  0.00000000000E+00  0.00000000000E+00  0.90508068613E+01  0.90508068613E+01  0.00000000000E+00 0. -1.
         21   -1    0    0  501  503 -0.00000000000E+00 -0.00000000000E+00 -0.54949613260E+02  0.54949613260E+02  0.00000000000E+00 0.  1.
          2    1    1    2  501    0  0.19835141594E+02 -0.28428293443E+01 -0.36995756614E+02  0.42073751059E+02  0.00000000000E+00 0.  1.
         -2    1    1    2    0  502 -0.19835141594E+02  0.28428293443E+01 -0.89030497852E+01  0.21926669063E+02  0.00000000000E+00 0. -1.
<mgrwt>
<rscale>  2 0.20037827E+02</rscale>
<asrwt>0</asrwt>
<pdfrwt beam="1">  1       21 0.13924318E-02 0.20037827E+02</pdfrwt>
<pdfrwt beam="2">  1       21 0.84537867E-02 0.20037827E+02</pdfrwt>
<totfact> 0.15303309E+08</totfact>
</mgrwt>
</event>
<event>
 4    1  0.2736402E+004  0.2288421E+02  0.7546771E-02  0.1693394E+00
         21   -1    0    0  503  502  0.00000000000E+00  0.00000000000E+00  0.61928863723E+02  0.61928863723E+02  0.00000000000E+00 0. -1.
         21   -1    0    0  501  503 -0.00000000000E+00 -0.00000000000E+00 -0.93280290980E+01  0.93280290980E+01  0.00000000000E+00 0.  1.
          2    1    1    2  501    0  0.61375130370E+01  0.22045819394E+02  0.15408606820E+02  0.27588265317E+02  0.00000000000E+00 0. -1.
         -2    1    1    2    0  502 -0.61375130370E+01 -0.22045819394E+02  0.37192227804E+02  0.43668627504E+02  0.00000000000E+00 0.  1.
<mgrwt>
<rscale>  2 0.22884213E+02</rscale>
<asrwt>0</asrwt>
<pdfrwt beam="1">  1       21 0.95275172E-02 0.22884213E+02</pdfrwt>
<pdfrwt beam="2">  1       21 0.14350814E-02 0.22884213E+02</pdfrwt>
<totfact> 0.12514527E+08</totfact>
</mgrwt>
</event>
<event>
 4    1  0.2736402E+004  0.4412637E+02  0.7546771E-02  0.1479870E+00
         21   -1    0    0  501  502  0.00000000000E+00  0.00000000000E+00  0.27248637397E+02  0.27248637397E+02  0.00000000000E+00 0.  1.
         21   -1    0    0  502  503 -0.00000000000E+00 -0.00000000000E+00 -0.13443561818E+03  0.13443561818E+03  0.00000000000E+00 0. -1.
          2    1    1    2  501    0  0.42430423649E+02 -0.12115941212E+02  0.17381062786E+01  0.44160592114E+02  0.00000000000E+00 0.  1.
         -2    1    1    2    0  503 -0.42430423649E+02  0.12115941212E+02 -0.10892508707E+03  0.11752366347E+03  0.00000000000E+00 0. -1.
<mgrwt>
<rscale>  2 0.44126374E+02</rscale>
<asrwt>0</asrwt>
<pdfrwt beam="1">  1       21 0.41920981E-02 0.44126374E+02</pdfrwt>
<pdfrwt beam="2">  1       21 0.20682403E-01 0.44126374E+02</pdfrwt>
<totfact> 0.70363195E+06</totfact>
</mgrwt>
</event>
<event>
 4    1  0.2736402E+004  0.2184223E+02  0.7546771E-02  0.1710995E+00
         21   -1    0    0  503  502  0.00000000000E+00  0.00000000000E+00  0.84707641722E+02  0.84707641722E+02  0.00000000000E+00 0. -1.
         21   -1    0    0  501  503 -0.00000000000E+00 -0.00000000000E+00 -0.10946157617E+02  0.10946157617E+02  0.00000000000E+00 0.  1.
          2    1    1    2  501    0 -0.17286896667E+02 -0.13350894885E+02  0.35569902198E+01  0.22129965432E+02  0.00000000000E+00 0.  1.
         -2    1    1    2    0  502  0.17286896667E+02  0.13350894885E+02  0.70204493885E+02  0.73523833907E+02  0.00000000000E+00 0. -1.
<mgrwt>
<rscale>  2 0.21842234E+02</rscale>
<asrwt>0</asrwt>
<pdfrwt beam="1">  1       21 0.13031944E-01 0.21842234E+02</pdfrwt>
<pdfrwt beam="2">  1       21 0.16840243E-02 0.21842234E+02</pdfrwt>
<totfact> 0.57513049E+07</totfact>
</mgrwt>
</event>
<event>
 4    1  0.2736402E+004  0.2754651E+02  0.7546771E-02  0.1626908E+00
         21   -1    0    0  503  502  0.00000000000E+00  0.00000000000E+00  0.17392618410E+02  0.17392618410E+02  0.00000000000E+00 0. -1.
         21   -1    0    0  501  503 -0.00000000000E+00 -0.00000000000E+00 -0.66629840100E+02  0.66629840100E+02  0.00000000000E+00 0.  1.
          2    1    1    2  501    0  0.24003144148E+02 -0.13515158755E+02 -0.49302263297E+02  0.56475867513E+02  0.00000000000E+00 0.  1.
         -2    1    1    2    0  502 -0.24003144148E+02  0.13515158755E+02  0.65041606795E-01  0.27546590997E+02  0.00000000000E+00 0. -1.
<mgrwt>
<rscale>  2 0.27546514E+02</rscale>
<asrwt>0</asrwt>
<pdfrwt beam="1">  1       21 0.26757875E-02 0.27546514E+02</pdfrwt>
<pdfrwt beam="2">  1       21 0.10250745E-01 0.27546514E+02</pdfrwt>
<totfact> 0.44591007E+07</totfact>
</mgrwt>
</event>
<event>
 4    1  0.2736402E+004  0.2811025E+02  0.7546771E-02  0.1619969E+00
         21   -1    0    0  501  502  0.00000000000E+00  0.00000000000E+00  0.32345260228E+02  0.32345260228E+02  0.00000000000E+00 0.  1.
         21   -1    0    0  502  503 -0.00000000000E+00 -0.00000000000E+00 -0.32632035754E+02  0.32632035754E+02  0.00000000000E+00 0. -1.
          2    1    1    2  501    0  0.27390633452E+02  0.63197590632E+01  0.16144973132E+02  0.32416759754E+02  0.00000000000E+00 0.  1.
         -2    1    1    2    0  503 -0.27390633452E+02 -0.63197590632E+01 -0.16431748658E+02  0.32560536228E+02  0.00000000000E+00 0. -1.
<mgrwt>
<rscale>  2 0.28110250E+02</rscale>
<asrwt>0</asrwt>
<pdfrwt beam="1">  1       21 0.49761939E-02 0.28110250E+02</pdfrwt>
<pdfrwt beam="2">  1       21 0.50203132E-02 0.28110250E+02</pdfrwt>
<totfact> 0.53956110E+07</totfact>
</mgrwt>
</event>
<event>
 4    1  0.2736402E+004  0.3349338E+02  0.7546771E-02  0.1562402E+00
         21   -1    0    0  501  502  0.00000000000E+00  0.00000000000E+00  0.14971469116E+04  0.14971469116E+04  0.00000000000E+00 0. -1.
         21   -1    0    0  502  503 -0.00000000000E+00 -0.00000000000E+00 -0.77462624539E+00  0.77462624539E+00  0.00000000000E+00 0.  1.
          2    1    1    2  501    0  0.21043350566E+01  0.33427209606E+02  0.88362101802E+03  0.88425556829E+03  0.00000000000E+00 0.  1.
         -2    1    1    2    0  503 -0.21043350566E+01 -0.33427209606E+02  0.61275126729E+03  0.61366596951E+03  0.00000000000E+00 0. -1.
<mgrwt>
<rscale>  2 0.33493381E+02</rscale>
<asrwt>0</asrwt>
<pdfrwt beam="1">  1       21 0.23032798E+00 0.33493381E+02</pdfrwt>
<pdfrwt beam="2">  1       21 0.11917447E-03 0.33493381E+02</pdfrwt>
<totfact> 0.85600910E+06</totfact>
</mgrwt>
</event>
<event>
 4    1  0.2736402E+004  0.2822545E+02  0.7546771E-02  0.1618575E+00
         21   -1    0    0  503  502  0.00000000000E+00  0.00000000000E+00  0.95982771631E+03  0.95982771631E+03  0.00000000000E+00 0.  1.
         21   -1    0    0  501  503 -0.00000000000E+00 -0.00000000000E+00 -0.13192102191E+01  0.13192102191E+01  0.00000000000E+00 0. -1.
          2    1    1    2  501    0 -0.14687523360E+02  0.24102960072E+02  0.18660882360E+03  0.18873136749E+03  0.00000000000E+00 0. -1.
         -2    1    1    2    0  502  0.14687523360E+02 -0.24102960072E+02  0.77189968249E+03  0.77241555904E+03  0.00000000000E+00 0.  1.
<mgrwt>
<rscale>  2 0.28225450E+02</rscale>
<asrwt>0</asrwt>
<pdfrwt beam="1">  1       21 0.14766524E+00 0.28225450E+02</pdfrwt>
<pdfrwt beam="2">  1       21 0.20295619E-03 0.28225450E+02</pdfrwt>
<totfact> 0.12234861E+07</totfact>
</mgrwt>
</event>
<event>
 4    1  0.2736402E+004  0.2017597E+02  0.7546771E-02  0.1741851E+00
         21   -1    0    0  501  502  0.00000000000E+00  0.00000000000E+00  0.28438550808E+03  0.28438550808E+03  0.00000000000E+00 0.  1.
         21   -1    0    0  502  503 -0.00000000000E+00 -0.00000000000E+00 -0.33083078982E+01  0.33083078982E+01  0.00000000000E+00 0. -1.
          2    1    1    2  501    0  0.20073070200E+02  0.20351364935E+01  0.24888608716E+03  0.24970253164E+03  0.00000000000E+00 0.  1.
         -2    1    1    2    0  503 -0.20073070200E+02 -0.20351364935E+01  0.32191113026E+02  0.37991284338E+02  0.00000000000E+00 0. -1.
<mgrwt>
<rscale>  2 0.20175974E+02</rscale>
<asrwt>0</asrwt>
<pdfrwt beam="1">  1       21 0.43751597E-01 0.20175974E+02</pdfrwt>
<pdfrwt beam="2">  1       21 0.50897067E-03 0.20175974E+02</pdfrwt>
<totfact> 0.39280868E+07</totfact>
</mgrwt>
</event>
<event>
 4    1  0.2736402E+004  0.2385106E+02  0.7546771E-02  0.1678075E+00
         21   -1    0    0  503  502  0.00000000000E+00  0.00000000000E+00  0.77636125956E+00  0.77636125956E+00  0.00000000000E+00 0.  1.
         21   -1    0    0  501  503 -0.00000000000E+00 -0.00000000000E+00 -0.75053397255E+03  0.75053397255E+03  0.00000000000E+00 0. -1.
          2    1    1    2  501    0  0.62373728246E+01  0.23021041419E+02 -0.43271580766E+03  0.43337263800E+03  0.00000000000E+00 0.  1.
         -2    1    1    2    0  502 -0.62373728246E+01 -0.23021041419E+02 -0.31704180363E+03  0.31793769581E+03  0.00000000000E+00 0. -1.
<mgrwt>
<rscale>  2 0.23851062E+02</rscale>
<asrwt>0</asrwt>
<pdfrwt beam="1">  1       21 0.11943970E-03 0.23851062E+02</pdfrwt>
<pdfrwt beam="2">  1       21 0.11546724E+00 0.23851062E+02</pdfrwt>
<totfact> 0.45188041E+07</totfact>
</mgrwt>
</event>
<event>
 4    1  0.2736402E+004  0.7183075E+02  0.7546771E-02  0.1353976E+00
         21   -1    0    0  503  502  0.00000000000E+00  0.00000000000E+00  0.46001148696E+02  0.46001148696E+02  0.00000000000E+00 0. -1.
         21   -1    0    0  501  503 -0.00000000000E+00 -0.00000000000E+00 -0.23061664700E+03  0.23061664700E+03  0.00000000000E+00 0.  1.
          2    1    1    2  501    0 -0.63208394841E+02  0.34122656051E+02 -0.19143152040E+03  0.20446438281E+03  0.00000000000E+00 0.  1.
         -2    1    1    2    0  502  0.63208394841E+02 -0.34122656051E+02  0.68160220955E+01  0.72153412889E+02  0.00000000000E+00 0. -1.
<mgrwt>
<rscale>  2 0.71830751E+02</rscale>
<asrwt>0</asrwt>
<pdfrwt beam="1">  1       21 0.70770996E-02 0.71830751E+02</pdfrwt>
<pdfrwt beam="2">  1       21 0.35479485E-01 0.71830751E+02</pdfrwt>
<totfact> 0.11241318E+06</totfact>
</mgrwt>
</event>
<event>
 4    1  0.2736402E+004  0.3343968E+02  0.7546771E-02  0.1562910E+00
         21   -1    0    0  503  502  0.00000000000E+00  0.00000000000E+00  0.37725561865E+03  0.37725561865E+03  0.00000000000E+00 0. -1.
         21   -1    0    0  501  503 -0.00000000000E+00 -0.00000000000E+00 -0.48112287492E+01  0.48112287492E+01  0.00000000000E+00 0.  1.
          2    1    1    2  501    0  0.48031584653E+01 -0.33092930370E+02  0.67854450975E+02  0.75646803560E+02  0.00000000000E+00 0.  1.
         -2    1    1    2    0  502 -0.48031584653E+01  0.33092930370E+02  0.30458993893E+03  0.30642004384E+03  0.00000000000E+00 0. -1.
<mgrwt>
<rscale>  2 0.33439683E+02</rscale>
<asrwt>0</asrwt>
<pdfrwt beam="1">  1       21 0.58039303E-01 0.33439683E+02</pdfrwt>
<pdfrwt beam="2">  1       21 0.74018934E-03 0.33439683E+02</pdfrwt>
<totfact> 0.14282360E+07</totfact>
</mgrwt>
</event>
<event>
 4    1  0.2736402E+004  0.2305278E+02  0.7546771E-02  0.1690656E+00
         21   -1    0    0  503  502  0.00000000000E+00  0.00000000000E+00  0.15615913694E+03  0.15615913694E+03  0.00000000000E+00 0. -1.
         21   -1    0    0  501  503 -0.00000000000E+00 -0.00000000000E+00 -0.97928353226E+01  0.97928353226E+01  0.00000000000E+00 0.  1.
          2    1    1    2  501    0 -0.94906988467E+01 -0.21008504712E+02  0.61579012580E+01  0.23861064157E+02  0.00000000000E+00 0.  1.
         -2    1    1    2    0  502  0.94906988467E+01  0.21008504712E+02  0.14020840036E+03  0.14209090810E+03  0.00000000000E+00 0. -1.
<mgrwt>
<rscale>  2 0.23052779E+02</rscale>
<asrwt>0</asrwt>
<pdfrwt beam="1">  1       21 0.24024481E-01 0.23052779E+02</pdfrwt>
<pdfrwt beam="2">  1       21 0.15065902E-02 0.23052779E+02</pdfrwt>
<totfact> 0.24026728E+07</totfact>
</mgrwt>
</event>
<event>
 4    1  0.2736402E+004  0.2710775E+02  0.7546771E-02  0.1632451E+00
         21   -1    0    0  501  502  0.00000000000E+00  0.00000000000E+00  0.15640433001E+03  0.15640433001E+03  0.00000000000E+00 0. -1.
         21   -1    0    0  502  503 -0.00000000000E+00 -0.00000000000E+00 -0.47301811617E+01  0.47301811617E+01  0.00000000000E+00 0.  1.
          2    1    1    2  501    0  0.22006726039E+02 -0.15828273662E+02  0.82454220041E+02  0.86795902211E+02  0.00000000000E+00 0. -1.
         -2    1    1    2    0  503 -0.22006726039E+02  0.15828273662E+02  0.69219928804E+02  0.74338608957E+02  0.00000000000E+00 0.  1.
<mgrwt>
<rscale>  2 0.27107752E+02</rscale>
<asrwt>0</asrwt>
<pdfrwt beam="1">  1       21 0.24062201E-01 0.27107752E+02</pdfrwt>
<pdfrwt beam="2">  1       21 0.72772030E-03 0.27107752E+02</pdfrwt>
<totfact> 0.74533151E+07</totfact>
</mgrwt>
</event>
<event>
 4    1  0.2736402E+004  0.2132866E+02  0.7546771E-02  0.1720128E+00
         21   -1    0    0  501  502  0.00000000000E+00  0.00000000000E+00  0.58572522963E+03  0.58572522963E+03  0.00000000000E+00 0. -1.
         21   -1    0    0  502  503 -0.00000000000E+00 -0.00000000000E+00 -0.82207733052E+00  0.82207733052E+00  0.00000000000E+00 0.  1.
          2    1    1    2  501    0  0.11823706820E+02  0.17751384269E+02  0.22352154123E+03  0.22453683680E+03  0.00000000000E+00 0. -1.
         -2    1    1    2    0  503 -0.11823706820E+02 -0.17751384269E+02  0.36138161108E+03  0.36201047017E+03  0.00000000000E+00 0.  1.
<mgrwt>
<rscale>  2 0.21328659E+02</rscale>
<asrwt>0</asrwt>
<pdfrwt beam="1">  1       21 0.90111240E-01 0.21328659E+02</pdfrwt>
<pdfrwt beam="2">  1       21 0.12647390E-03 0.21328659E+02</pdfrwt>
<totfact> 0.69957384E+07</totfact>
</mgrwt>
</event>
<event>
 4    1  0.2736402E+004  0.4201440E+02  0.7546771E-02  0.1493890E+00
         21   -1    0    0  501  502  0.00000000000E+00  0.00000000000E+00  0.38737281190E+02  0.38737281190E+02  0.00000000000E+00 0.  1.
         21   -1    0    0  502  503 -0.00000000000E+00 -0.00000000000E+00 -0.61726939947E+02  0.61726939947E+02  0.00000000000E+00 0. -1.
          2    1    1    2  501    0 -0.41066292860E+02  0.88752357840E+01  0.14205586492E+02  0.44350974139E+02  0.00000000000E+00 0.  1.
         -2    1    1    2    0  503  0.41066292860E+02 -0.88752357840E+01 -0.37195245249E+02  0.56113246998E+02  0.00000000000E+00 0. -1.
<mgrwt>
<rscale>  2 0.42014405E+02</rscale>
<asrwt>0</asrwt>
<pdfrwt beam="1">  1       21 0.59595818E-02 0.42014405E+02</pdfrwt>
<pdfrwt beam="2">  1       21 0.94964522E-02 0.42014405E+02</pdfrwt>
<totfact> 0.15235993E+07</totfact>
</mgrwt>
</event>
<event>
 4    1  0.2736402E+004  0.2666026E+02  0.7546771E-02  0.1638240E+00
         21   -1    0    0  501  502  0.00000000000E+00  0.00000000000E+00  0.54645884186E+00  0.54645884186E+00  0.00000000000E+00 0. -1.
         21   -1    0    0  502  503 -0.00000000000E+00 -0.00000000000E+00 -0.13617915117E+04  0.13617915117E+04  0.00000000000E+00 0.  1.
          2    1    1    2  501    0 -0.72461911017E+01  0.25656617438E+02 -0.53632690546E+03  0.53698912356E+03  0.00000000000E+00 0. -1.
         -2    1    1    2    0  503  0.72461911017E+01 -0.25656617438E+02 -0.82491814738E+03  0.82534884696E+03  0.00000000000E+00 0.  1.
<mgrwt>
<rscale>  2 0.26660257E+02</rscale>
<asrwt>0</asrwt>
<pdfrwt beam="1">  1       21 0.84070140E-04 0.26660257E+02</pdfrwt>
<pdfrwt beam="2">  1       21 0.20950751E+00 0.26660257E+02</pdfrwt>
<totfact> 0.17954156E+07</totfact>
</mgrwt>
</event>
<event>
 4    1  0.2736402E+004  0.2063490E+02  0.7546771E-02  0.1732989E+00
         21   -1    0    0  501  502  0.00000000000E+00  0.00000000000E+00  0.36402951795E+03  0.36402951795E+03  0.00000000000E+00 0. -1.
         21   -1    0    0  502  503 -0.00000000000E+00 -0.00000000000E+00 -0.45537854380E+01  0.45537854380E+01  0.00000000000E+00 0.  1.
          2    1    1    2  501    0  0.16168135767E+02 -0.12821484248E+02  0.33860759077E+03  0.33923575814E+03  0.00000000000E+00 0. -1.
         -2    1    1    2    0  503 -0.16168135767E+02  0.12821484248E+02  0.20868141745E+02  0.29347545253E+02  0.00000000000E+00 0.  1.
<mgrwt>
<rscale>  2 0.20634899E+02</rscale>
<asrwt>0</asrwt>
<pdfrwt beam="1">  1       21 0.56004518E-01 0.20634899E+02</pdfrwt>
<pdfrwt beam="2">  1       21 0.70058266E-03 0.20634899E+02</pdfrwt>
<totfact> 0.15296137E+07</totfact>
</mgrwt>
</event>
<event>
 4    1  0.2736402E+004  0.2420812E+02  0.7546771E-02  0.1672643E+00
         21   -1    0    0  501  502  0.00000000000E+00  0.00000000000E+00  0.16423746273E+03  0.16423746273E+03  0.00000000000E+00 0.  1.
         21   -1    0    0  502  503 -0.00000000000E+00 -0.00000000000E+00 -0.47491839552E+01  0.47491839552E+01  0.00000000000E+00 0. -1.
          2    1    1    2  501    0 -0.70617128809E+00 -0.24197819014E+02  0.12187824370E+03  0.12425916228E+03  0.00000000000E+00 0.  1.
         -2    1    1    2    0  503  0.70617128809E+00  0.24197819014E+02  0.37610035073E+02  0.44727484405E+02  0.00000000000E+00 0. -1.
<mgrwt>
<rscale>  2 0.24208121E+02</rscale>
<asrwt>0</asrwt>
<pdfrwt beam="1">  1       21 0.25267298E-01 0.24208121E+02</pdfrwt>
<pdfrwt beam="2">  1       21 0.73064381E-03 0.24208121E+02</pdfrwt>
<totfact> 0.66059718E+07</totfact>
</mgrwt>
</event>
<event>
 4    1  0.2736402E+004  0.2522103E+02  0.7546771E-02  0.1657847E+00
         21   -1    0    0  501  502  0.00000000000E+00  0.00000000000E+00  0.16063802148E+02  0.16063802148E+02  0.00000000000E+00 0. -1.
         21   -1    0    0  502  503 -0.00000000000E+00 -0.00000000000E+00 -0.39786730844E+02  0.39786730844E+02  0.00000000000E+00 0.  1.
          2    1    1    2  501    0  0.23188722231E+02 -0.99188466010E+01 -0.13782897447E+02  0.28741409476E+02  0.00000000000E+00 0. -1.
         -2    1    1    2    0  503 -0.23188722231E+02  0.99188466010E+01 -0.99400312484E+01  0.27109123516E+02  0.00000000000E+00 0.  1.
<mgrwt>
<rscale>  2 0.25221030E+02</rscale>
<asrwt>0</asrwt>
<pdfrwt beam="1">  1       21 0.24713542E-02 0.25221030E+02</pdfrwt>
<pdfrwt beam="2">  1       21 0.61210355E-02 0.25221030E+02</pdfrwt>
<totfact> 0.11499799E+08</totfact>
</mgrwt>
</event>
<event>
 4    1  0.2736402E+004  0.2236190E+02  0.7546771E-02  0.1702067E+00
         21   -1    0    0  503  502  0.00000000000E+00  0.00000000000E+00  0.44230493338E+01  0.44230493338E+01  0.00000000000E+00 0.  1.
         21   -1    0    0  501  503 -0.00000000000E+00 -0.00000000000E+00 -0.11424677218E+03  0.11424677218E+03  0.00000000000E+00 0. -1.
          2    1    1    2  501    0 -0.20926177615E+02  0.78835114098E+01 -0.48855610700E+02  0.53730115937E+02  0.00000000000E+00 0.  1.
         -2    1    1    2    0  502  0.20926177615E+02 -0.78835114098E+01 -0.60968112142E+02  0.64939705573E+02  0.00000000000E+00 0. -1.
<mgrwt>
<rscale>  2 0.22361902E+02</rscale>
<asrwt>0</asrwt>
<pdfrwt beam="1">  1       21 0.68046913E-03 0.22361902E+02</pdfrwt>
<pdfrwt beam="2">  1       21 0.17576426E-01 0.22361902E+02</pdfrwt>
<totfact> 0.13586616E+08</totfact>
</mgrwt>
</event>
<event>
 4    1  0.2736402E+004  0.2259786E+02  0.7546771E-02  0.1698113E+00
         21   -1    0    0  501  502  0.00000000000E+00  0.00000000000E+00  0.10779382752E+01  0.10779382752E+01  0.00000000000E+00 0. -1.
         21   -1    0    0  502  503 -0.00000000000E+00 -0.00000000000E+00 -0.77141975810E+03  0.77141975810E+03  0.00000000000E+00 0.  1.
          2    1    1    2  501    0  0.22036280518E+02 -0.50065688207E+01 -0.14523466747E+03  0.14698221670E+03  0.00000000000E+00 0. -1.
         -2    1    1    2    0  503 -0.22036280518E+02  0.50065688207E+01 -0.62510715236E+03  0.62551547968E+03  0.00000000000E+00 0.  1.
<mgrwt>
<rscale>  2 0.22597863E+02</rscale>
<asrwt>0</asrwt>
<pdfrwt beam="1">  1       21 0.16583732E-03 0.22597863E+02</pdfrwt>
<pdfrwt beam="2">  1       21 0.11867949E+00 0.22597863E+02</pdfrwt>
<totfact> 0.26255850E+07</totfact>
</mgrwt>
</event>
<event>
 4    1  0.2736402E+004  0.3598453E+02  0.7546771E-02  0.1540028E+00
         21   -1    0    0  503  502  0.00000000000E+00  0.00000000000E+00  0.57154178227E+03  0.57154178227E+03  0.00000000000E+00 0. -1.
         21   -1    0    0  501  503 -0.00000000000E+00 -0.00000000000E+00 -0.28320333429E+01  0.28320333429E+01  0.00000000000E+00 0.  1.
          2    1    1    2  501    0 -0.98297679679E+01  0.34615919397E+02  0.15591818917E+03  0.16001677390E+03  0.00000000000E+00 0.  1.
         -2    1    1    2    0  502  0.98297679679E+01 -0.34615919397E+02  0.41279155975E+03  0.41435704171E+03  0.00000000000E+00 0. -1.
<mgrwt>
<rscale>  2 0.35984527E+02</rscale>
<asrwt>0</asrwt>
<pdfrwt beam="1">  1       21 0.87929413E-01 0.35984527E+02</pdfrwt>
<pdfrwt beam="2">  1       21 0.43569789E-03 0.35984527E+02</pdfrwt>
<totfact> 0.13383189E+07</totfact>
</mgrwt>
</event>
<event>
 4    1  0.2736402E+004  0.2450118E+02  0.7546771E-02  0.1668272E+00
         21   -1    0    0  503  502  0.00000000000E+00  0.00000000000E+00  0.82088949455E+03  0.82088949455E+03  0.00000000000E+00 0.  1.
         21   -1    0    0  501  503 -0.00000000000E+00 -0.00000000000E+00 -0.84332924617E+00  0.84332924617E+00  0.00000000000E+00 0. -1.
          2    1    1    2  501    0 -0.90718266848E+01 -0.22759828110E+02  0.26026569977E+03  0.26141641550E+03  0.00000000000E+00 0.  1.
         -2    1    1    2    0  502  0.90718266848E+01  0.22759828110E+02  0.55978046554E+03  0.56031640830E+03  0.00000000000E+00 0. -1.
<mgrwt>
<rscale>  2 0.24501180E+02</rscale>
<asrwt>0</asrwt>
<pdfrwt beam="1">  1       21 0.12629005E+00 0.24501180E+02</pdfrwt>
<pdfrwt beam="2">  1       21 0.12974362E-03 0.24501180E+02</pdfrwt>
<totfact> 0.32911955E+07</totfact>
</mgrwt>
</event>
<event>
 4    1  0.2736402E+004  0.2391755E+02  0.7546771E-02  0.1677055E+00
         21   -1    0    0  503  502  0.00000000000E+00  0.00000000000E+00  0.65909643774E+02  0.65909643774E+02  0.00000000000E+00 0.  1.
         21   -1    0    0  501  503 -0.00000000000E+00 -0.00000000000E+00 -0.87880800994E+01  0.87880800994E+01  0.00000000000E+00 0. -1.
          2    1    1    2  501    0  0.16489414027E+01 -0.23860638683E+02  0.32716248356E+02  0.40526559101E+02  0.00000000000E+00 0. -1.
         -2    1    1    2    0  502 -0.16489414027E+01  0.23860638683E+02  0.24405315318E+02  0.34171164772E+02  0.00000000000E+00 0.  1.
<mgrwt>
<rscale>  2 0.23917548E+02</rscale>
<asrwt>0</asrwt>
<pdfrwt beam="1">  1       21 0.10139945E-01 0.23917548E+02</pdfrwt>
<pdfrwt beam="2">  1       21 0.13520124E-02 0.23917548E+02</pdfrwt>
<totfact> 0.12519248E+08</totfact>
</mgrwt>
</event>
<event>
 4    1  0.2736402E+004  0.2220822E+02  0.7546771E-02  0.1704676E+00
         21   -1    0    0  503  502  0.00000000000E+00  0.00000000000E+00  0.28037805939E+02  0.28037805939E+02  0.00000000000E+00 0.  1.
         21   -1    0    0  501  503 -0.00000000000E+00 -0.00000000000E+00 -0.37922598535E+02  0.37922598535E+02  0.00000000000E+00 0. -1.
          2    1    1    2  501    0  0.16633476781E+02 -0.14715036861E+02 -0.29091062626E+02  0.36599109065E+02  0.00000000000E+00 0. -1.
         -2    1    1    2    0  502 -0.16633476781E+02  0.14715036861E+02  0.19206270030E+02  0.29361295409E+02  0.00000000000E+00 0.  1.
<mgrwt>
<rscale>  2 0.22208216E+02</rscale>
<asrwt>0</asrwt>
<pdfrwt beam="1">  1       21 0.43135087E-02 0.22208216E+02</pdfrwt>
<pdfrwt beam="2">  1       21 0.58342459E-02 0.22208216E+02</pdfrwt>
<totfact> 0.50206362E+07</totfact>
</mgrwt>
</event>
<event>
 4    1  0.2736402E+004  0.2240384E+02  0.7546771E-02  0.1701360E+00
         21   -1    0    0  501  502  0.00000000000E+00  0.00000000000E+00  0.12147905944E+04  0.12147905944E+04  0.00000000000E+00 0. -1.
         21   -1    0    0  502  503 -0.00000000000E+00 -0.00000000000E+00 -0.61599049635E+00  0.61599049635E+00  0.00000000000E+00 0.  1.
          2    1    1    2  501    0 -0.14914072329E+02 -0.16718323537E+02  0.95578223723E+03  0.95604477766E+03  0.00000000000E+00 0. -1.
         -2    1    1    2    0  503  0.14914072329E+02  0.16718323537E+02  0.25839236668E+03  0.25936180724E+03  0.00000000000E+00 0.  1.
<mgrwt>
<rscale>  2 0.22403837E+02</rscale>
<asrwt>0</asrwt>
<pdfrwt beam="1">  1       21 0.18688894E+00 0.22403837E+02</pdfrwt>
<pdfrwt beam="2">  1       21 0.94768741E-04 0.22403837E+02</pdfrwt>
<totfact> 0.19864845E+07</totfact>
</mgrwt>
</event>
<event>
 4    1  0.2736402E+004  0.3595675E+02  0.7546771E-02  0.1540265E+00
         21   -1    0    0  503  502  0.00000000000E+00  0.00000000000E+00  0.88563676312E+02  0.88563676312E+02  0.00000000000E+00 0. -1.
         21   -1    0    0  501  503 -0.00000000000E+00 -0.00000000000E+00 -0.18374680969E+02  0.18374680969E+02  0.00000000000E+00 0.  1.
          2    1    1    2  501    0 -0.12388675519E+02 -0.33755129911E+02  0.10854884132E+02  0.37559507265E+02  0.00000000000E+00 0.  1.
         -2    1    1    2    0  502  0.12388675519E+02  0.33755129911E+02  0.59334111211E+02  0.69378850016E+02  0.00000000000E+00 0. -1.
<mgrwt>
<rscale>  2 0.35956753E+02</rscale>
<asrwt>0</asrwt>
<pdfrwt beam="1">  1       21 0.13625181E-01 0.35956753E+02</pdfrwt>
<pdfrwt beam="2">  1       21 0.28268740E-02 0.35956753E+02</pdfrwt>
<totfact> 0.26666585E+07</totfact>
</mgrwt>
</event>
<event>
 4    1  0.2736402E+004  0.2093063E+02  0.7546771E-02  0.1727431E+00
         21   -1    0    0  501  502  0.00000000000E+00  0.00000000000E+00  0.12878048188E+02  0.12878048188E+02  0.00000000000E+00 0.  1.
         21   -1    0    0  502  503 -0.00000000000E+00 -0.00000000000E+00 -0.51527518176E+02  0.51527518176E+02  0.00000000000E+00 0. -1.
          2    1    1    2  501    0  0.20778392162E+02 -0.25198485455E+01 -0.55296032812E+00  0.20937931671E+02  0.00000000000E+00 0.  1.
         -2    1    1    2    0  503 -0.20778392162E+02  0.25198485455E+01 -0.38096509660E+02  0.43467634693E+02  0.00000000000E+00 0. -1.
<mgrwt>
<rscale>  2 0.20930629E+02</rscale>
<asrwt>0</asrwt>
<pdfrwt beam="1">  1       21 0.19812382E-02 0.20930629E+02</pdfrwt>
<pdfrwt beam="2">  1       21 0.79273106E-02 0.20930629E+02</pdfrwt>
<totfact> 0.10078986E+08</totfact>
</mgrwt>
</event>
<event>
 4    1  0.2736402E+004  0.2643465E+02  0.7546771E-02  0.1641211E+00
         21   -1    0    0  501  502  0.00000000000E+00  0.00000000000E+00  0.13393886493E+03  0.13393886493E+03  0.00000000000E+00 0. -1.
         21   -1    0    0  502  503 -0.00000000000E+00 -0.00000000000E+00 -0.36896570870E+02  0.36896570870E+02  0.00000000000E+00 0.  1.
          2    1    1    2  501    0 -0.14565903615E+02 -0.22059582601E+02  0.12766970116E+03  0.13037769490E+03  0.00000000000E+00 0. -1.
         -2    1    1    2    0  503  0.14565903615E+02  0.22059582601E+02 -0.30627407104E+02  0.40457740898E+02  0.00000000000E+00 0.  1.
<mgrwt>
<rscale>  2 0.26434650E+02</rscale>
<asrwt>0</asrwt>
<pdfrwt beam="1">  1       21 0.20605979E-01 0.26434650E+02</pdfrwt>
<pdfrwt beam="2">  1       21 0.56763956E-02 0.26434650E+02</pdfrwt>
<totfact> 0.40696927E+06</totfact>
</mgrwt>
</event>
<event>
 4    1  0.2736402E+004  0.2880137E+02  0.7546771E-02  0.1611729E+00
         21   -1    0    0  501  502  0.00000000000E+00  0.00000000000E+00  0.80053389018E+02  0.80053389018E+02  0.00000000000E+00 0. -1.
         21   -1    0    0  502  503 -0.00000000000E+00 -0.00000000000E+00 -0.11855846220E+02  0.11855846220E+02  0.00000000000E+00 0.  1.
          2    1    1    2  501    0 -0.24301004880E+01 -0.28698668002E+02  0.50410704966E+02  0.58058230327E+02  0.00000000000E+00 0. -1.
         -2    1    1    2    0  503  0.24301004880E+01  0.28698668002E+02  0.17786837832E+02  0.33851004911E+02  0.00000000000E+00 0.  1.
<mgrwt>
<rscale>  2 0.28801370E+02</rscale>
<asrwt>0</asrwt>
<pdfrwt beam="1">  1       21 0.12315906E-01 0.28801370E+02</pdfrwt>
<pdfrwt beam="2">  1       21 0.18239764E-02 0.28801370E+02</pdfrwt>
<totfact> 0.59972823E+07</totfact>
</mgrwt>
</event>
<event>
 4    1  0.2736402E+004  0.2415063E+02  0.7546771E-02  0.1673510E+00
         21   -1    0    0  501  502  0.00000000000E+00  0.00000000000E+00  0.61886496614E+01  0.61886496614E+01  0.00000000000E+00 0.  1.
         21   -1    0    0  502  503 -0.00000000000E+00 -0.00000000000E+00 -0.18000216114E+03  0.18000216114E+03  0.00000000000E+00 0. -1.
          2    1    1    2  501    0  0.17703869080E+02  0.16426386488E+02 -0.22649377210E+02  0.33109627626E+02  0.00000000000E+00 0.  1.
         -2    1    1    2    0  503 -0.17703869080E+02 -0.16426386488E+02 -0.15116413427E+03  0.15308118317E+03  0.00000000000E+00 0. -1.
<mgrwt>
<rscale>  2 0.24150635E+02</rscale>
<asrwt>0</asrwt>
<pdfrwt beam="1">  1       21 0.95210001E-03 0.24150635E+02</pdfrwt>
<pdfrwt beam="2">  1       21 0.27692638E-01 0.24150635E+02</pdfrwt>
<totfact> 0.37671555E+07</totfact>
</mgrwt>
</event>
<event>
 4    1  0.2736402E+004  0.2616686E+02  0.7546771E-02  0.1644786E+00
         21   -1    0    0  501  502  0.00000000000E+00  0.00000000000E+00  0.64197928792E+01  0.64197928792E+01  0.00000000000E+00 0. -1.
         21   -1    0    0  502  503 -0.00000000000E+00 -0.00000000000E+00 -0.23574591128E+03  0.23574591128E+03  0.00000000000E+00 0.  1.
          2    1    1    2  501    0 -0.23881331668E+02 -0.10695175760E+02 -0.25063076636E+02  0.36233445837E+02  0.00000000000E+00 0. -1.
         -2    1    1    2    0  503  0.23881331668E+02  0.10695175760E+02 -0.20426304176E+03  0.20593225832E+03  0.00000000000E+00 0.  1.
<mgrwt>
<rscale>  2 0.26166864E+02</rscale>
<asrwt>0</asrwt>
<pdfrwt beam="1">  1       21 0.98766044E-03 0.26166864E+02</pdfrwt>
<pdfrwt beam="2">  1       21 0.36268602E-01 0.26166864E+02</pdfrwt>
<totfact> 0.22079968E+07</totfact>
</mgrwt>
</event>
<event>
 4    1  0.2736402E+004  0.2159673E+02  0.7546771E-02  0.1715321E+00
         21   -1    0    0  503  502  0.00000000000E+00  0.00000000000E+00  0.41363301022E+03  0.41363301022E+03  0.00000000000E+00 0.  1.
         21   -1    0    0  501  503 -0.00000000000E+00 -0.00000000000E+00 -0.13903934782E+01  0.13903934782E+01  0.00000000000E+00 0. -1.
          2    1    1    2  501    0 -0.15426625990E+02 -0.15114167003E+02  0.11590843116E+03  0.11790327921E+03  0.00000000000E+00 0.  1.
         -2    1    1    2    0  502  0.15426625990E+02  0.15114167003E+02  0.29633418558E+03  0.29712012449E+03  0.00000000000E+00 0. -1.
<mgrwt>
<rscale>  2 0.21596732E+02</rscale>
<asrwt>0</asrwt>
<pdfrwt beam="1">  1       21 0.63635750E-01 0.21596732E+02</pdfrwt>
<pdfrwt beam="2">  1       21 0.21390702E-03 0.21596732E+02</pdfrwt>
<totfact> 0.67888766E+07</totfact>
</mgrwt>
</event>
<event>
 4    1  0.2736402E+004  0.3224970E+02  0.7546771E-02  0.1574474E+00
         21   -1    0    0  501  502  0.00000000000E+00  0.00000000000E+00  0.85365201226E+03  0.85365201226E+03  0.00000000000E+00 0. -1.
         21   -1    0    0  502  503 -0.00000000000E+00 -0.00000000000E+00 -0.16797372577E+01  0.16797372577E+01  0.00000000000E+00 0.  1.
          2    1    1    2  501    0 -0.11128709999E+02 -0.30268714906E+02  0.65012580599E+03  0.65092519302E+03  0.00000000000E+00 0. -1.
         -2    1    1    2    0  503  0.11128709999E+02  0.30268714906E+02  0.20184646901E+03  0.20440655650E+03  0.00000000000E+00 0.  1.
<mgrwt>
<rscale>  2 0.32249702E+02</rscale>
<asrwt>0</asrwt>
<pdfrwt beam="1">  1       21 0.13133073E+00 0.32249702E+02</pdfrwt>
<pdfrwt beam="2">  1       21 0.25842180E-03 0.32249702E+02</pdfrwt>
<totfact> 0.11543465E+07</totfact>
</mgrwt>
</event>
<event>
 4    1  0.2736402E+004  0.2282843E+02  0.7546771E-02  0.1694306E+00
         21   -1    0    0  501  502  0.00000000000E+00  0.00000000000E+00  0.12784659280E+03  0.12784659280E+03  0.00000000000E+00 0. -1.
         21   -1    0    0  502  503 -0.00000000000E+00 -0.00000000000E+00 -0.59073471011E+01  0.59073471011E+01  0.00000000000E+00 0.  1.
          2    1    1    2  501    0 -0.19445949518E+02  0.11957940834E+02  0.98203099764E+02  0.10082155575E+03  0.00000000000E+00 0. -1.
         -2    1    1    2    0  503  0.19445949518E+02 -0.11957940834E+02  0.23736145931E+02  0.32932384143E+02  0.00000000000E+00 0.  1.
<mgrwt>
<rscale>  2 0.22828432E+02</rscale>
<asrwt>0</asrwt>
<pdfrwt beam="1">  1       21 0.19668705E-01 0.22828432E+02</pdfrwt>
<pdfrwt beam="2">  1       21 0.90882272E-03 0.22828432E+02</pdfrwt>
<totfact> 0.73048504E+07</totfact>
</mgrwt>
</event>
<event>
 4    1  0.2736402E+004  0.2916570E+02  0.7546771E-02  0.1607498E+00
         21   -1    0    0  503  502  0.00000000000E+00  0.00000000000E+00  0.60821620487E+02  0.60821620487E+02  0.00000000000E+00 0.  1.
         21   -1    0    0  501  503 -0.00000000000E+00 -0.00000000000E+00 -0.14388029162E+02  0.14388029162E+02  0.00000000000E+00 0. -1.
          2    1    1    2  501    0  0.18971566059E+02  0.22152144696E+02  0.16929118672E+02  0.33722883809E+02  0.00000000000E+00 0. -1.
         -2    1    1    2    0  502 -0.18971566059E+02 -0.22152144696E+02  0.29504472653E+02  0.41486765840E+02  0.00000000000E+00 0.  1.
<mgrwt>
<rscale>  2 0.29165696E+02</rscale>
<asrwt>0</asrwt>
<pdfrwt beam="1">  1       21 0.93571723E-02 0.29165696E+02</pdfrwt>
<pdfrwt beam="2">  1       21 0.22135430E-02 0.29165696E+02</pdfrwt>
<totfact> 0.70688137E+07</totfact>
</mgrwt>
</event>
<event>
 4    1  0.2736402E+004  0.2564706E+02  0.7546771E-02  0.1651878E+00
         21   -1    0    0  503  502  0.00000000000E+00  0.00000000000E+00  0.14196180648E+03  0.14196180648E+03  0.00000000000E+00 0.  1.
         21   -1    0    0  501  503 -0.00000000000E+00 -0.00000000000E+00 -0.18782946748E+02  0.18782946748E+02  0.00000000000E+00 0. -1.
          2    1    1    2  501    0  0.18041833072E+02 -0.18228111478E+02 -0.81688185912E+01  0.26916563411E+02  0.00000000000E+00 0. -1.
         -2    1    1    2    0  502 -0.18041833072E+02  0.18228111478E+02  0.13134767833E+03  0.13382818982E+03  0.00000000000E+00 0.  1.
<mgrwt>
<rscale>  2 0.25647062E+02</rscale>
<asrwt>0</asrwt>
<pdfrwt beam="1">  1       21 0.21840277E-01 0.25647062E+02</pdfrwt>
<pdfrwt beam="2">  1       21 0.28896842E-02 0.25647062E+02</pdfrwt>
<totfact> 0.10657387E+07</totfact>
</mgrwt>
</event>
<event>
 4    1  0.2736402E+004  0.2289128E+02  0.7546771E-02  0.1693278E+00
         21   -1    0    0  503  502  0.00000000000E+00  0.00000000000E+00  0.16312111370E+02  0.16312111370E+02  0.00000000000E+00 0. -1.
         21   -1    0    0  501  503 -0.00000000000E+00 -0.00000000000E+00 -0.16909661581E+03  0.16909661581E+03  0.00000000000E+00 0.  1.
          2    1    1    2  501    0  0.13306599617E+02 -0.18626465038E+02 -0.15982749662E+03  0.16145847599E+03  0.00000000000E+00 0.  1.
         -2    1    1    2    0  502 -0.13306599617E+02  0.18626465038E+02  0.70429921808E+01  0.23950251190E+02  0.00000000000E+00 0. -1.
<mgrwt>
<rscale>  2 0.22891282E+02</rscale>
<asrwt>0</asrwt>
<pdfrwt beam="1">  1       21 0.25095557E-02 0.22891282E+02</pdfrwt>
<pdfrwt beam="2">  1       21 0.26014863E-01 0.22891282E+02</pdfrwt>
<totfact> 0.95217613E+06</totfact>
</mgrwt>
</event>
<event>
 4    1  0.2736402E+004  0.2289654E+02  0.7546771E-02  0.1693193E+00
         21   -1    0    0  503  502  0.00000000000E+00  0.00000000000E+00  0.57172475822E+01  0.57172475822E+01  0.00000000000E+00 0.  1.
         21   -1    0    0  501  503 -0.00000000000E+00 -0.00000000000E+00 -0.15197954241E+03  0.15197954241E+03  0.00000000000E+00 0. -1.
          2    1    1    2  501    0 -0.33553703393E+01  0.22649350459E+02 -0.12279013676E+03  0.12490664223E+03  0.00000000000E+00 0. -1.
         -2    1    1    2    0  502  0.33553703393E+01 -0.22649350459E+02 -0.23472158072E+02  0.32790147771E+02  0.00000000000E+00 0.  1.
<mgrwt>
<rscale>  2 0.22896541E+02</rscale>
<asrwt>0</asrwt>
<pdfrwt beam="1">  1       21 0.87957640E-03 0.22896541E+02</pdfrwt>
<pdfrwt beam="2">  1       21 0.23381472E-01 0.22896541E+02</pdfrwt>
<totfact> 0.56669584E+07</totfact>
</mgrwt>
</event>
<event>
 4    1  0.2736402E+004  0.4675110E+02  0.7546771E-02  0.1463697E+00
         21   -1    0    0  503  502  0.00000000000E+00  0.00000000000E+00  0.13685214979E+02  0.13685214979E+02  0.00000000000E+00 0.  1.
         21   -1    0    0  501  503 -0.00000000000E+00 -0.00000000000E+00 -0.18486690729E+03  0.18486690729E+03  0.00000000000E+00 0. -1.
          2    1    1    2  501    0  0.44583966323E+02 -0.14068935472E+02 -0.12221301049E+03  0.13084985645E+03  0.00000000000E+00 0. -1.
         -2    1    1    2    0  502 -0.44583966323E+02  0.14068935472E+02 -0.48968681816E+02  0.67702265820E+02  0.00000000000E+00 0.  1.
<mgrwt>
<rscale>  2 0.46751096E+02</rscale>
<asrwt>0</asrwt>
<pdfrwt beam="1">  1       21 0.21054179E-02 0.46751096E+02</pdfrwt>
<pdfrwt beam="2">  1       21 0.28441060E-01 0.46751096E+02</pdfrwt>
<totfact> 0.11871892E+07</totfact>
</mgrwt>
</event>
<event>
 4    1  0.2736402E+004  0.2908243E+02  0.7546771E-02  0.1608458E+00
         21   -1    0    0  501  502  0.00000000000E+00  0.00000000000E+00  0.35551012580E+01  0.35551012580E+01  0.00000000000E+00 0. -1.
         21   -1    0    0  502  503 -0.00000000000E+00 -0.00000000000E+00 -0.24787291833E+03  0.24787291833E+03  0.00000000000E+00 0.  1.
          2    1    1    2  501    0 -0.17422543384E+02 -0.23286101740E+02 -0.96952973621E+02  0.10122088049E+03  0.00000000000E+00 0. -1.
         -2    1    1    2    0  503  0.17422543384E+02  0.23286101740E+02 -0.14736484345E+03  0.15020713910E+03  0.00000000000E+00 0.  1.
<mgrwt>
<rscale>  2 0.29082427E+02</rscale>
<asrwt>0</asrwt>
<pdfrwt beam="1">  1       21 0.54693861E-03 0.29082427E+02</pdfrwt>
<pdfrwt beam="2">  1       21 0.38134298E-01 0.29082427E+02</pdfrwt>
<totfact> 0.49783123E+07</totfact>
</mgrwt>
</event>
<event>
 4    1  0.2736402E+004  0.2627075E+02  0.7546771E-02  0.1643393E+00
         21   -1    0    0  503  502  0.00000000000E+00  0.00000000000E+00  0.45696366057E+02  0.45696366057E+02  0.00000000000E+00 0. -1.
         21   -1    0    0  501  503 -0.00000000000E+00 -0.00000000000E+00 -0.20722295951E+02  0.20722295951E+02  0.00000000000E+00 0.  1.
          2    1    1    2  501    0 -0.26090686026E+02 -0.30705546176E+01 -0.48064353623E+01  0.26706816056E+02  0.00000000000E+00 0.  1.
         -2    1    1    2    0  502  0.26090686026E+02  0.30705546176E+01  0.29780505468E+02  0.39711845952E+02  0.00000000000E+00 0. -1.
<mgrwt>
<rscale>  2 0.26270748E+02</rscale>
<asrwt>0</asrwt>
<pdfrwt beam="1">  1       21 0.70302101E-02 0.26270748E+02</pdfrwt>
<pdfrwt beam="2">  1       21 0.31880455E-02 0.26270748E+02</pdfrwt>
<totfact> 0.62408993E+07</totfact>
</mgrwt>
</event>
<event>
 4    1  0.2736402E+004  0.2887442E+02  0.7546771E-02  0.1610874E+00
         21   -1    0    0  501  502  0.00000000000E+00  0.00000000000E+00  0.74840325806E+00  0.74840325806E+00  0.00000000000E+00 0. -1.
         21   -1    0    0  502  503 -0.00000000000E+00 -0.00000000000E+00 -0.18438950937E+04  0.18438950937E+04  0.00000000000E+00 0.  1.
          2    1    1    2  501    0  0.12250463276E+02  0.26146861037E+02 -0.34128986209E+03  0.34250912711E+03  0.00000000000E+00 0.  1.
         -2    1    1    2    0  503 -0.12250463276E+02 -0.26146861037E+02 -0.15018568284E+04  0.15021343699E+04  0.00000000000E+00 0. -1.
<mgrwt>
<rscale>  2 0.28874421E+02</rscale>
<asrwt>0</asrwt>
<pdfrwt beam="1">  1       21 0.11513946E-03 0.28874421E+02</pdfrwt>
<pdfrwt beam="2">  1       21 0.28367495E+00 0.28874421E+02</pdfrwt>
<totfact> 0.47813315E+06</totfact>
</mgrwt>
</event>
<event>
 4    1  0.2736402E+004  0.2472490E+02  0.7546771E-02  0.1664985E+00
         21   -1    0    0  501  502  0.00000000000E+00  0.00000000000E+00  0.72624391853E+02  0.72624391853E+02  0.00000000000E+00 0. -1.
         21   -1    0    0  502  503 -0.00000000000E+00 -0.00000000000E+00 -0.16366452980E+02  0.16366452980E+02  0.00000000000E+00 0.  1.
          2    1    1    2  501    0 -0.23083356506E+02 -0.88588422327E+01  0.59138220599E+02  0.64098748575E+02  0.00000000000E+00 0. -1.
         -2    1    1    2    0  503  0.23083356506E+02  0.88588422327E+01 -0.28802817269E+01  0.24892096258E+02  0.00000000000E+00 0.  1.
<mgrwt>
<rscale>  2 0.24724895E+02</rscale>
<asrwt>0</asrwt>
<pdfrwt beam="1">  1       21 0.11172983E-01 0.24724895E+02</pdfrwt>
<pdfrwt beam="2">  1       21 0.25179159E-02 0.24724895E+02</pdfrwt>
<totfact> 0.41404925E+07</totfact>
</mgrwt>
</event>
<event>
 4    1  0.2736402E+004  0.2167827E+02  0.7546771E-02  0.1713876E+00
         21   -1    0    0  503  502  0.00000000000E+00  0.00000000000E+00  0.31160631097E+01  0.31160631097E+01  0.00000000000E+00 0.  1.
         21   -1    0    0  501  503 -0.00000000000E+00 -0.00000000000E+00 -0.21697889059E+03  0.21697889059E+03  0.00000000000E+00 0. -1.
          2    1    1    2  501    0  0.21586006122E+02 -0.19979689353E+01 -0.16770060594E+03  0.16909595138E+03  0.00000000000E+00 0.  1.
         -2    1    1    2    0  502 -0.21586006122E+02  0.19979689353E+01 -0.46162221542E+02  0.50999002322E+02  0.00000000000E+00 0. -1.
<mgrwt>
<rscale>  2 0.21678273E+02</rscale>
<asrwt>0</asrwt>
<pdfrwt beam="1">  1       21 0.47939431E-03 0.21678273E+02</pdfrwt>
<pdfrwt beam="2">  1       21 0.33381369E-01 0.21678273E+02</pdfrwt>
<totfact> 0.72347772E+07</totfact>
</mgrwt>
</event>
<event>
 4    1  0.2736402E+004  0.3342870E+02  0.7546771E-02  0.1563014E+00
         21   -1    0    0  501  502  0.00000000000E+00  0.00000000000E+00  0.76097283963E+01  0.76097283963E+01  0.00000000000E+00 0. -1.
         21   -1    0    0  502  503 -0.00000000000E+00 -0.00000000000E+00 -0.40248682924E+03  0.40248682924E+03  0.00000000000E+00 0.  1.
          2    1    1    2  501    0 -0.21895372299E+00 -0.33427979106E+02 -0.34023061417E+02  0.47697446850E+02  0.00000000000E+00 0. -1.
         -2    1    1    2    0  503  0.21895372299E+00  0.33427979106E+02 -0.36085403942E+03  0.36239911078E+03  0.00000000000E+00 0.  1.
<mgrwt>
<rscale>  2 0.33428696E+02</rscale>
<asrwt>0</asrwt>
<pdfrwt beam="1">  1       21 0.11707272E-02 0.33428696E+02</pdfrwt>
<pdfrwt beam="2">  1       21 0.61921065E-01 0.33428696E+02</pdfrwt>
<totfact> 0.62443553E+06</totfact>
</mgrwt>
</event>
<event>
 4    1  0.2736402E+004  0.2124618E+02  0.7546771E-02  0.1721625E+00
         21   -1    0    0  501  502  0.00000000000E+00  0.00000000000E+00  0.45828435999E+02  0.45828435999E+02  0.00000000000E+00 0. -1.
         21   -1    0    0  502  503 -0.00000000000E+00 -0.00000000000E+00 -0.53882413676E+02  0.53882413676E+02  0.00000000000E+00 0.  1.
          2    1    1    2  501    0  0.19650766983E+02 -0.80775952170E+01  0.41041833788E+02  0.46215065814E+02  0.00000000000E+00 0. -1.
         -2    1    1    2    0  503 -0.19650766983E+02  0.80775952170E+01 -0.49095811465E+02  0.53495783861E+02  0.00000000000E+00 0.  1.
<mgrwt>
<rscale>  2 0.21246181E+02</rscale>
<asrwt>0</asrwt>
<pdfrwt beam="1">  1       21 0.70505286E-02 0.21246181E+02</pdfrwt>
<pdfrwt beam="2">  1       21 0.82896021E-02 0.21246181E+02</pdfrwt>
<totfact> 0.12858554E+07</totfact>
</mgrwt>
</event>
<event>
 4    1  0.2736402E+004  0.9984135E+02  0.7546771E-02  0.1280630E+00
         21   -1    0    0  503  502  0.00000000000E+00  0.00000000000E+00  0.27296206028E+02  0.27296206028E+02  0.00000000000E+00 0. -1.
         21   -1    0    0  501  503 -0.00000000000E+00 -0.00000000000E+00 -0.70237352104E+03  0.70237352104E+03  0.00000000000E+00 0.  1.
          2    1    1    2  501    0  0.10244006645E+02  0.99314426408E+02 -0.59032033517E+03  0.59870392773E+03  0.00000000000E+00 0.  1.
         -2    1    1    2    0  502 -0.10244006645E+02 -0.99314426408E+02 -0.84756979848E+02  0.13096579934E+03  0.00000000000E+00 0. -1.
<mgrwt>
<rscale>  2 0.99841349E+02</rscale>
<asrwt>0</asrwt>
<pdfrwt beam="1">  1       21 0.41994160E-02 0.99841349E+02</pdfrwt>
<pdfrwt beam="2">  1       21 0.10805747E+00 0.99841349E+02</pdfrwt>
<totfact> 0.25319672E+05</totfact>
</mgrwt>
</event>
<event>
 4    1  0.2736402E+004  0.5648390E+02  0.7546771E-02  0.1413209E+00
         21   -1    0    0  503  502  0.00000000000E+00  0.00000000000E+00  0.78319234660E+03  0.78319234660E+03  0.00000000000E+00 0. -1.
         21   -1    0    0  501  503 -0.00000000000E+00 -0.00000000000E+00 -0.55307231263E+01  0.55307231263E+01  0.00000000000E+00 0.  1.
          2    1    1    2  501    0 -0.55949215148E+02  0.77534647011E+01  0.18641325165E+03  0.19478277973E+03  0.00000000000E+00 0.  1.
         -2    1    1    2    0  502  0.55949215148E+02 -0.77534647011E+01  0.59124837183E+03  0.59394029000E+03  0.00000000000E+00 0. -1.
<mgrwt>
<rscale>  2 0.56483899E+02</rscale>
<asrwt>0</asrwt>
<pdfrwt beam="1">  1       21 0.12049104E+00 0.56483899E+02</pdfrwt>
<pdfrwt beam="2">  1       21 0.85088110E-03 0.56483899E+02</pdfrwt>
<totfact> 0.24755854E+06</totfact>
</mgrwt>
</event>
<event>
 4    1  0.2736402E+004  0.3378491E+02  0.7546771E-02  0.1559663E+00
         21   -1    0    0  501  502  0.00000000000E+00  0.00000000000E+00  0.14024884051E+02  0.14024884051E+02  0.00000000000E+00 0.  1.
         21   -1    0    0  502  503 -0.00000000000E+00 -0.00000000000E+00 -0.10476507124E+03  0.10476507124E+03  0.00000000000E+00 0. -1.
          2    1    1    2  501    0  0.87583674917E+01  0.32629910238E+02 -0.17311805706E+02  0.37962068701E+02  0.00000000000E+00 0.  1.
         -2    1    1    2    0  503 -0.87583674917E+01 -0.32629910238E+02 -0.73428381484E+02  0.80827886590E+02  0.00000000000E+00 0. -1.
<mgrwt>
<rscale>  2 0.33784909E+02</rscale>
<asrwt>0</asrwt>
<pdfrwt beam="1">  1       21 0.21576744E-02 0.33784909E+02</pdfrwt>
<pdfrwt beam="2">  1       21 0.16117704E-01 0.33784909E+02</pdfrwt>
<totfact> 0.30116387E+07</totfact>
</mgrwt>
</event>
<event>
 4    1  0.2736402E+004  0.2023786E+02  0.7546771E-02  0.1740639E+00
         21   -1    0    0  501  502  0.00000000000E+00  0.00000000000E+00  0.76019463151E+02  0.76019463151E+02  0.00000000000E+00 0. -1.
         21   -1    0    0  502  503 -0.00000000000E+00 -0.00000000000E+00 -0.69122747791E+01  0.69122747791E+01  0.00000000000E+00 0.  1.
          2    1    1    2  501    0  0.67204032533E+01  0.19089452013E+02  0.54027491917E+02  0.57693508135E+02  0.00000000000E+00 0. -1.
         -2    1    1    2    0  503 -0.67204032533E+01 -0.19089452013E+02  0.15079696455E+02  0.25238229796E+02  0.00000000000E+00 0.  1.
<mgrwt>
<rscale>  2 0.20237861E+02</rscale>
<asrwt>0</asrwt>
<pdfrwt beam="1">  1       21 0.11695301E-01 0.20237861E+02</pdfrwt>
<pdfrwt beam="2">  1       21 0.10634269E-02 0.20237861E+02</pdfrwt>
<totfact> 0.13500352E+08</totfact>
</mgrwt>
</event>
<event>
 4    1  0.2736402E+004  0.2356169E+02  0.7546771E-02  0.1682564E+00
         21   -1    0    0  503  502  0.00000000000E+00  0.00000000000E+00  0.78150218423E+01  0.78150218423E+01  0.00000000000E+00 0. -1.
         21   -1    0    0  501  503 -0.00000000000E+00 -0.00000000000E+00 -0.11539714165E+03  0.11539714165E+03  0.00000000000E+00 0.  1.
          2    1    1    2  501    0 -0.16689717404E+02  0.16631488907E+02 -0.91987612071E+02  0.94957221236E+02  0.00000000000E+00 0.  1.
         -2    1    1    2    0  502  0.16689717404E+02 -0.16631488907E+02 -0.15594507734E+02  0.28254942254E+02  0.00000000000E+00 0. -1.
<mgrwt>
<rscale>  2 0.23561687E+02</rscale>
<asrwt>0</asrwt>
<pdfrwt beam="1">  1       21 0.12023110E-02 0.23561687E+02</pdfrwt>
<pdfrwt beam="2">  1       21 0.17753406E-01 0.23561687E+02</pdfrwt>
<totfact> 0.57751287E+07</totfact>
</mgrwt>
</event>
<event>
 4    1  0.2736402E+004  0.4878104E+02  0.7546771E-02  0.1452029E+00
         21   -1    0    0  501  502  0.00000000000E+00  0.00000000000E+00  0.95649473874E+02  0.95649473874E+02  0.00000000000E+00 0.  1.
         21   -1    0    0  502  503 -0.00000000000E+00 -0.00000000000E+00 -0.39263793351E+02  0.39263793351E+02  0.00000000000E+00 0. -1.
          2    1    1    2  501    0  0.42658076516E+02  0.23661756325E+02  0.69024015440E+02  0.84521623931E+02  0.00000000000E+00 0.  1.
         -2    1    1    2    0  503 -0.42658076516E+02 -0.23661756325E+02 -0.12638334917E+02  0.50391643294E+02  0.00000000000E+00 0. -1.
<mgrwt>
<rscale>  2 0.48781043E+02</rscale>
<asrwt>0</asrwt>
<pdfrwt beam="1">  1       21 0.14715304E-01 0.48781043E+02</pdfrwt>
<pdfrwt beam="2">  1       21 0.60405836E-02 0.48781043E+02</pdfrwt>
<totfact> 0.71609473E+06</totfact>
</mgrwt>
</event>
<event>
 4    1  0.2736402E+004  0.2514939E+02  0.7546771E-02  0.1658865E+00
         21   -1    0    0  503  502  0.00000000000E+00  0.00000000000E+00  0.69523739329E+03  0.69523739329E+03  0.00000000000E+00 0. -1.
         21   -1    0    0  501  503 -0.00000000000E+00 -0.00000000000E+00 -0.98505055236E+00  0.98505055236E+00  0.00000000000E+00 0.  1.
          2    1    1    2  501    0 -0.24027949460E+02  0.74262787618E+01  0.25087880163E+03  0.25213620342E+03  0.00000000000E+00 0. -1.
         -2    1    1    2    0  502  0.24027949460E+02 -0.74262787618E+01  0.44337354111E+03  0.44408624042E+03  0.00000000000E+00 0.  1.
<mgrwt>
<rscale>  2 0.25149393E+02</rscale>
<asrwt>0</asrwt>
<pdfrwt beam="1">  1       21 0.10695921E+00 0.25149393E+02</pdfrwt>
<pdfrwt beam="2">  1       21 0.15154679E-03 0.25149393E+02</pdfrwt>
<totfact> 0.38514314E+07</totfact>
</mgrwt>
</event>
<event>
 4    1  0.2736402E+004  0.2101444E+02  0.7546771E-02  0.1725876E+00
         21   -1    0    0  503  502  0.00000000000E+00  0.00000000000E+00  0.21526509089E+02  0.21526509089E+02  0.00000000000E+00 0. -1.
         21   -1    0    0  501  503 -0.00000000000E+00 -0.00000000000E+00 -0.66087274268E+02  0.66087274268E+02  0.00000000000E+00 0.  1.
          2    1    1    2  501    0  0.20986051568E+02 -0.10919159031E+01 -0.58658147805E+02  0.62308787058E+02  0.00000000000E+00 0.  1.
         -2    1    1    2    0  502 -0.20986051568E+02  0.10919159031E+01  0.14097382626E+02  0.25304996298E+02  0.00000000000E+00 0. -1.
<mgrwt>
<rscale>  2 0.21014439E+02</rscale>
<asrwt>0</asrwt>
<pdfrwt beam="1">  1       21 0.33117707E-02 0.21014439E+02</pdfrwt>
<pdfrwt beam="2">  1       21 0.10167273E-01 0.21014439E+02</pdfrwt>
<totfact> 0.30393815E+07</totfact>
</mgrwt>
</event>
<event>
 4    1  0.2736402E+004  0.2239820E+02  0.7546771E-02  0.1701455E+00
         21   -1    0    0  503  502  0.00000000000E+00  0.00000000000E+00  0.17466834017E+04  0.17466834017E+04  0.00000000000E+00 0.  1.
         21   -1    0    0  501  503 -0.00000000000E+00 -0.00000000000E+00 -0.94650904497E+00  0.94650904497E+00  0.00000000000E+00 0. -1.
          2    1    1    2  501    0 -0.17923129364E+02 -0.13432818016E+02  0.14358621898E+03  0.14532268043E+03  0.00000000000E+00 0. -1.
         -2    1    1    2    0  502  0.17923129364E+02  0.13432818016E+02  0.16021506737E+04  0.16023072304E+04  0.00000000000E+00 0.  1.
<mgrwt>
<rscale>  2 0.22398196E+02</rscale>
<asrwt>0</asrwt>
<pdfrwt beam="1">  1       21 0.26871794E+00 0.22398196E+02</pdfrwt>
<pdfrwt beam="2">  1       21 0.14561817E-03 0.22398196E+02</pdfrwt>
<totfact> 0.40220314E+06</totfact>
</mgrwt>
</event>
<event>
 4    1  0.2736402E+004  0.2267870E+02  0.7546771E-02  0.1696772E+00
         21   -1    0    0  503  502  0.00000000000E+00  0.00000000000E+00  0.21925958977E+01  0.21925958977E+01  0.00000000000E+00 0. -1.
         21   -1    0    0  501  503 -0.00000000000E+00 -0.00000000000E+00 -0.23460988447E+03  0.23460988447E+03  0.00000000000E+00 0.  1.
          2    1    1    2  501    0  0.71004750260E+01 -0.21538498026E+02 -0.11769464790E+03  0.11985972546E+03  0.00000000000E+00 0.  1.
         -2    1    1    2    0  502 -0.71004750260E+01  0.21538498026E+02 -0.11472264067E+03  0.11694275491E+03  0.00000000000E+00 0. -1.
<mgrwt>
<rscale>  2 0.22678705E+02</rscale>
<asrwt>0</asrwt>
<pdfrwt beam="1">  1       21 0.33732232E-03 0.22678705E+02</pdfrwt>
<pdfrwt beam="2">  1       21 0.36093842E-01 0.22678705E+02</pdfrwt>
<totfact> 0.10607671E+08</totfact>
</mgrwt>
</event>
<event>
 4    1  0.2736402E+004  0.2036554E+02  0.7546771E-02  0.1738155E+00
         21   -1    0    0  503  502  0.00000000000E+00  0.00000000000E+00  0.10422678361E+03  0.10422678361E+03  0.00000000000E+00 0. -1.
         21   -1    0    0  501  503 -0.00000000000E+00 -0.00000000000E+00 -0.68171914372E+01  0.68171914372E+01  0.00000000000E+00 0.  1.
          2    1    1    2  501    0  0.20356231688E+02  0.61550740938E+00  0.12882270634E+02  0.24097881953E+02  0.00000000000E+00 0.  1.
         -2    1    1    2    0  502 -0.20356231688E+02 -0.61550740938E+00  0.84527321541E+02  0.86946093097E+02  0.00000000000E+00 0. -1.
<mgrwt>
<rscale>  2 0.20365535E+02</rscale>
<asrwt>0</asrwt>
<pdfrwt beam="1">  1       21 0.16034889E-01 0.20365535E+02</pdfrwt>
<pdfrwt beam="2">  1       21 0.10487988E-02 0.20365535E+02</pdfrwt>
<totfact> 0.81214637E+07</totfact>
</mgrwt>
</event>
<event>
 4    1  0.2736402E+004  0.5893431E+02  0.7546771E-02  0.1402359E+00
         21   -1    0    0  501  502  0.00000000000E+00  0.00000000000E+00  0.46170443714E+01  0.46170443714E+01  0.00000000000E+00 0. -1.
         21   -1    0    0  502  503 -0.00000000000E+00 -0.00000000000E+00 -0.78601365256E+03  0.78601365256E+03  0.00000000000E+00 0.  1.
          2    1    1    2  501    0 -0.57744148165E+02  0.11784160002E+02 -0.30878775035E+03  0.31436146049E+03  0.00000000000E+00 0. -1.
         -2    1    1    2    0  503  0.57744148165E+02 -0.11784160002E+02 -0.47260885783E+03  0.47626923644E+03  0.00000000000E+00 0.  1.
<mgrwt>
<rscale>  2 0.58934312E+02</rscale>
<asrwt>0</asrwt>
<pdfrwt beam="1">  1       21 0.71031481E-03 0.58934312E+02</pdfrwt>
<pdfrwt beam="2">  1       21 0.12092513E+00 0.58934312E+02</pdfrwt>
<totfact> 0.32444186E+06</totfact>
</mgrwt>
</event>
<event>
 4    1  0.2736402E+004  0.2256710E+02  0.7546771E-02  0.1698625E+00
         21   -1    0    0  501  502  0.00000000000E+00  0.00000000000E+00  0.12889189746E+02  0.12889189746E+02  0.00000000000E+00 0. -1.
         21   -1    0    0  502  503 -0.00000000000E+00 -0.00000000000E+00 -0.43340791078E+02  0.43340791078E+02  0.00000000000E+00 0.  1.
          2    1    1    2  501    0 -0.21014746451E+02  0.82252338226E+01 -0.68690718492E+01  0.23589365992E+02  0.00000000000E+00 0. -1.
         -2    1    1    2    0  503  0.21014746451E+02 -0.82252338226E+01 -0.23582529483E+02  0.32640614833E+02  0.00000000000E+00 0.  1.
<mgrwt>
<rscale>  2 0.22567101E+02</rscale>
<asrwt>0</asrwt>
<pdfrwt beam="1">  1       21 0.19829523E-02 0.22567101E+02</pdfrwt>
<pdfrwt beam="2">  1       21 0.66678141E-02 0.22567101E+02</pdfrwt>
<totfact> 0.13620725E+08</totfact>
</mgrwt>
</event>
<event>
 4    1  0.2736402E+004  0.2716596E+02  0.7546771E-02  0.1631709E+00
         21   -1    0    0  501  502  0.00000000000E+00  0.00000000000E+00  0.47156310805E+03  0.47156310805E+03  0.00000000000E+00 0. -1.
         21   -1    0    0  502  503 -0.00000000000E+00 -0.00000000000E+00 -0.15868553198E+01  0.15868553198E+01  0.00000000000E+00 0.  1.
          2    1    1    2  501    0  0.16371247377E+02 -0.21678826939E+02  0.20721492940E+03  0.20898807680E+03  0.00000000000E+00 0.  1.
         -2    1    1    2    0  503 -0.16371247377E+02  0.21678826939E+02  0.26276132333E+03  0.26416188657E+03  0.00000000000E+00 0. -1.
<mgrwt>
<rscale>  2 0.27165958E+02</rscale>
<asrwt>0</asrwt>
<pdfrwt beam="1">  1       21 0.72548059E-01 0.27165958E+02</pdfrwt>
<pdfrwt beam="2">  1       21 0.24413196E-03 0.27165958E+02</pdfrwt>
<totfact> 0.45137122E+07</totfact>
</mgrwt>
</event>
<event>
 4    1  0.2736402E+004  0.2752713E+02  0.7546771E-02  0.1627150E+00
         21   -1    0    0  501  502  0.00000000000E+00  0.00000000000E+00  0.90816560874E+02  0.90816560874E+02  0.00000000000E+00 0. -1.
         21   -1    0    0  502  503 -0.00000000000E+00 -0.00000000000E+00 -0.84467349244E+01  0.84467349244E+01  0.00000000000E+00 0.  1.
          2    1    1    2  501    0 -0.27055819403E+02 -0.50720196373E+01  0.46667495749E+02  0.54181158221E+02  0.00000000000E+00 0.  1.
         -2    1    1    2    0  503  0.27055819403E+02  0.50720196373E+01  0.35702330200E+02  0.45082137577E+02  0.00000000000E+00 0. -1.
<mgrwt>
<rscale>  2 0.27527127E+02</rscale>
<asrwt>0</asrwt>
<pdfrwt beam="1">  1       21 0.13971778E-01 0.27527127E+02</pdfrwt>
<pdfrwt beam="2">  1       21 0.12994977E-02 0.27527127E+02</pdfrwt>
<totfact> 0.80484351E+07</totfact>
</mgrwt>
</event>
<event>
 4    1  0.2736402E+004  0.2424761E+02  0.7546771E-02  0.1672050E+00
         21   -1    0    0  503  502  0.00000000000E+00  0.00000000000E+00  0.70629390118E+01  0.70629390118E+01  0.00000000000E+00 0.  1.
         21   -1    0    0  501  503 -0.00000000000E+00 -0.00000000000E+00 -0.13163568851E+03  0.13163568851E+03  0.00000000000E+00 0. -1.
          2    1    1    2  501    0  0.48989499479E+01 -0.23747563290E+02 -0.10433397878E+03  0.10711454430E+03  0.00000000000E+00 0. -1.
         -2    1    1    2    0  502 -0.48989499479E+01  0.23747563290E+02 -0.20238770722E+02  0.31584083225E+02  0.00000000000E+00 0.  1.
<mgrwt>
<rscale>  2 0.24247608E+02</rscale>
<asrwt>0</asrwt>
<pdfrwt beam="1">  1       21 0.10866061E-02 0.24247608E+02</pdfrwt>
<pdfrwt beam="2">  1       21 0.20251642E-01 0.24247608E+02</pdfrwt>
<totfact> 0.53904607E+07</totfact>
</mgrwt>
</event>
<event>
 4    1  0.2736402E+004  0.3320015E+02  0.7546771E-02  0.1565190E+00
         21   -1    0    0  503  502  0.00000000000E+00  0.00000000000E+00  0.35935490897E+01  0.35935490897E+01  0.00000000000E+00 0.  1.
         21   -1    0    0  501  503 -0.00000000000E+00 -0.00000000000E+00 -0.30673084340E+03  0.30673084340E+03  0.00000000000E+00 0. -1.
          2    1    1    2  501    0 -0.28976445463E+02 -0.16205414287E+02 -0.15133500865E+03  0.15493396879E+03  0.00000000000E+00 0. -1.
         -2    1    1    2    0  502  0.28976445463E+02  0.16205414287E+02 -0.15180228566E+03  0.15539042370E+03  0.00000000000E+00 0.  1.
<mgrwt>
<rscale>  2 0.33200148E+02</rscale>
<asrwt>0</asrwt>
<pdfrwt beam="1">  1       21 0.55285347E-03 0.33200148E+02</pdfrwt>
<pdfrwt beam="2">  1       21 0.47189380E-01 0.33200148E+02</pdfrwt>
<totfact> 0.33362037E+07</totfact>
</mgrwt>
</event>
<event>
 4    1  0.2736402E+004  0.2164779E+02  0.7546771E-02  0.1714415E+00
         21   -1    0    0  503  502  0.00000000000E+00  0.00000000000E+00  0.90748692804E+02  0.90748692804E+02  0.00000000000E+00 0. -1.
         21   -1    0    0  501  503 -0.00000000000E+00 -0.00000000000E+00 -0.53200192648E+01  0.53200192648E+01  0.00000000000E+00 0.  1.
          2    1    1    2  501    0  0.11169291161E+02 -0.18543831068E+02  0.34488557936E+02  0.40719618911E+02  0.00000000000E+00 0.  1.
         -2    1    1    2    0  502 -0.11169291161E+02  0.18543831068E+02  0.50940115604E+02  0.55349093158E+02  0.00000000000E+00 0. -1.
<mgrwt>
<rscale>  2 0.21647788E+02</rscale>
<asrwt>0</asrwt>
<pdfrwt beam="1">  1       21 0.13961336E-01 0.21647788E+02</pdfrwt>
<pdfrwt beam="2">  1       21 0.81846457E-03 0.21647788E+02</pdfrwt>
<totfact> 0.15141944E+08</totfact>
</mgrwt>
</event>
<event>
 4    1  0.2736402E+004  0.3988427E+02  0.7546771E-02  0.1509065E+00
         21   -1    0    0  503  502  0.00000000000E+00  0.00000000000E+00  0.46255425367E+01  0.46255425367E+01  0.00000000000E+00 0. -1.
         21   -1    0    0  501  503 -0.00000000000E+00 -0.00000000000E+00 -0.36273110819E+03  0.36273110819E+03  0.00000000000E+00 0.  1.
          2    1    1    2  501    0  0.90797105187E+01 -0.38837012685E+02 -0.22089619607E+03  0.22446800248E+03  0.00000000000E+00 0.  1.
         -2    1    1    2    0  502 -0.90797105187E+01  0.38837012685E+02 -0.13720936958E+03  0.14288864825E+03  0.00000000000E+00 0. -1.
<mgrwt>
<rscale>  2 0.39884266E+02</rscale>
<asrwt>0</asrwt>
<pdfrwt beam="1">  1       21 0.71162196E-03 0.39884266E+02</pdfrwt>
<pdfrwt beam="2">  1       21 0.55804784E-01 0.39884266E+02</pdfrwt>
<totfact> 0.16831257E+07</totfact>
</mgrwt>
</event>
<event>
 4    1  0.2736402E+004  0.2580970E+02  0.7546771E-02  0.1649637E+00
         21   -1    0    0  501  502  0.00000000000E+00  0.00000000000E+00  0.16634984007E+01  0.16634984007E+01  0.00000000000E+00 0. -1.
         21   -1    0    0  502  503 -0.00000000000E+00 -0.00000000000E+00 -0.41803178017E+03  0.41803178017E+03  0.00000000000E+00 0.  1.
          2    1    1    2  501    0  0.25754982800E+02  0.16797789331E+01 -0.16514299226E+03  0.16714768527E+03  0.00000000000E+00 0. -1.
         -2    1    1    2    0  503 -0.25754982800E+02 -0.16797789331E+01 -0.25122528951E+03  0.25254759331E+03  0.00000000000E+00 0.  1.
<mgrwt>
<rscale>  2 0.25809704E+02</rscale>
<asrwt>0</asrwt>
<pdfrwt beam="1">  1       21 0.25592304E-03 0.25809704E+02</pdfrwt>
<pdfrwt beam="2">  1       21 0.64312530E-01 0.25809704E+02</pdfrwt>
<totfact> 0.53399118E+07</totfact>
</mgrwt>
</event>
<event>
 4    1  0.2736402E+004  0.2024862E+02  0.7546771E-02  0.1740429E+00
         21   -1    0    0  503  502  0.00000000000E+00  0.00000000000E+00  0.54325346163E+01  0.54325346163E+01  0.00000000000E+00 0.  1.
         21   -1    0    0  501  503 -0.00000000000E+00 -0.00000000000E+00 -0.14579260608E+03  0.14579260608E+03  0.00000000000E+00 0. -1.
          2    1    1    2  501    0  0.17530068976E+02 -0.10134269897E+02 -0.12269295210E+03  0.12435259241E+03  0.00000000000E+00 0. -1.
         -2    1    1    2    0  502 -0.17530068976E+02  0.10134269897E+02 -0.17667119364E+02  0.26872548284E+02  0.00000000000E+00 0.  1.
<mgrwt>
<rscale>  2 0.20248623E+02</rscale>
<asrwt>0</asrwt>
<pdfrwt beam="1">  1       21 0.83577445E-03 0.20248623E+02</pdfrwt>
<pdfrwt beam="2">  1       21 0.22429635E-01 0.20248623E+02</pdfrwt>
<totfact> 0.63728054E+07</totfact>
</mgrwt>
</event>
<event>
 4    1  0.2736402E+004  0.3016350E+02  0.7546771E-02  0.1596288E+00
         21   -1    0    0  503  502  0.00000000000E+00  0.00000000000E+00  0.10244335556E+02  0.10244335556E+02  0.00000000000E+00 0.  1.
         21   -1    0    0  501  503 -0.00000000000E+00 -0.00000000000E+00 -0.15644176610E+03  0.15644176610E+03  0.00000000000E+00 0. -1.
          2    1    1    2  501    0 -0.29213997847E+02 -0.75085794085E+01 -0.12789571853E+03  0.13140453285E+03  0.00000000000E+00 0. -1.
         -2    1    1    2    0  502  0.29213997847E+02  0.75085794085E+01 -0.18301712016E+02  0.35281568810E+02  0.00000000000E+00 0.  1.
<mgrwt>
<rscale>  2 0.30163495E+02</rscale>
<asrwt>0</asrwt>
<pdfrwt beam="1">  1       21 0.15760516E-02 0.30163495E+02</pdfrwt>
<pdfrwt beam="2">  1       21 0.24067965E-01 0.30163495E+02</pdfrwt>
<totfact> 0.23614956E+07</totfact>
</mgrwt>
</event>
<event>
 4    1  0.2736402E+004  0.2633085E+02  0.7546771E-02  0.1642591E+00
         21   -1    0    0  501  502  0.00000000000E+00  0.00000000000E+00  0.58640350164E+01  0.58640350164E+01  0.00000000000E+00 0.  1.
         21   -1    0    0  502  503 -0.00000000000E+00 -0.00000000000E+00 -0.18481341045E+03  0.18481341045E+03  0.00000000000E+00 0. -1.
          2    1    1    2  501    0 -0.77959114439E+01  0.25150299002E+02 -0.32250366669E+02  0.41634119727E+02  0.00000000000E+00 0.  1.
         -2    1    1    2    0  503  0.77959114439E+01 -0.25150299002E+02 -0.14669900877E+03  0.14904332574E+03  0.00000000000E+00 0. -1.
<mgrwt>
<rscale>  2 0.26330852E+02</rscale>
<asrwt>0</asrwt>
<pdfrwt beam="1">  1       21 0.90215932E-03 0.26330852E+02</pdfrwt>
<pdfrwt beam="2">  1       21 0.28432830E-01 0.26330852E+02</pdfrwt>
<totfact> 0.39693164E+07</totfact>
</mgrwt>
</event>
<event>
 4    1  0.2736402E+004  0.2477882E+02  0.7546771E-02  0.1664199E+00
         21   -1    0    0  501  502  0.00000000000E+00  0.00000000000E+00  0.21935296628E+03  0.21935296628E+03  0.00000000000E+00 0.  1.
         21   -1    0    0  502  503 -0.00000000000E+00 -0.00000000000E+00 -0.28028085995E+01  0.28028085995E+01  0.00000000000E+00 0. -1.
          2    1    1    2  501    0 -0.20053007919E+02  0.14555647687E+02  0.11231777489E+03  0.11501857486E+03  0.00000000000E+00 0. -1.
         -2    1    1    2    0  503  0.20053007919E+02 -0.14555647687E+02  0.10423238279E+03  0.10713720002E+03  0.00000000000E+00 0.  1.
<mgrwt>
<rscale>  2 0.24778822E+02</rscale>
<asrwt>0</asrwt>
<pdfrwt beam="1">  1       21 0.33746597E-01 0.24778822E+02</pdfrwt>
<pdfrwt beam="2">  1       21 0.43120149E-03 0.24778822E+02</pdfrwt>
<totfact> 0.85778731E+07</totfact>
</mgrwt>
</event>
<event>
 4    1  0.2736402E+004  0.2082314E+02  0.7546771E-02  0.1729438E+00
         21   -1    0    0  501  502  0.00000000000E+00  0.00000000000E+00  0.34538283788E+02  0.34538283788E+02  0.00000000000E+00 0. -1.
         21   -1    0    0  502  503 -0.00000000000E+00 -0.00000000000E+00 -0.19580722388E+02  0.19580722388E+02  0.00000000000E+00 0.  1.
          2    1    1    2  501    0  0.53962711273E+00 -0.20816145424E+02  0.23688420555E+02  0.31539568421E+02  0.00000000000E+00 0.  1.
         -2    1    1    2    0  503 -0.53962711273E+00  0.20816145424E+02 -0.87308591560E+01  0.22579437756E+02  0.00000000000E+00 0. -1.
<mgrwt>
<rscale>  2 0.20823139E+02</rscale>
<asrwt>0</asrwt>
<pdfrwt beam="1">  1       21 0.53135821E-02 0.20823139E+02</pdfrwt>
<pdfrwt beam="2">  1       21 0.30124188E-02 0.20823139E+02</pdfrwt>
<totfact> 0.10040079E+08</totfact>
</mgrwt>
</event>
<event>
 4    1  0.2736402E+004  0.2006035E+02  0.7546771E-02  0.1744131E+00
         21   -1    0    0  503  502  0.00000000000E+00  0.00000000000E+00  0.16049029286E+01  0.16049029286E+01  0.00000000000E+00 0. -1.
         21   -1    0    0  501  503 -0.00000000000E+00 -0.00000000000E+00 -0.43162997257E+03  0.43162997257E+03  0.00000000000E+00 0.  1.
          2    1    1    2  501    0  0.20060351257E+02 -0.39534078131E-02 -0.35524275357E+03  0.35580870095E+03  0.00000000000E+00 0.  1.
         -2    1    1    2    0  502 -0.20060351257E+02  0.39534078131E-02 -0.74782316078E+02  0.77426174555E+02  0.00000000000E+00 0. -1.
<mgrwt>
<rscale>  2 0.20060352E+02</rscale>
<asrwt>0</asrwt>
<pdfrwt beam="1">  1       21 0.24690788E-03 0.20060352E+02</pdfrwt>
<pdfrwt beam="2">  1       21 0.66404681E-01 0.20060352E+02</pdfrwt>
<totfact> 0.49735326E+07</totfact>
</mgrwt>
</event>
<event>
 4    1  0.2736402E+004  0.2325811E+02  0.7546771E-02  0.1687360E+00
         21   -1    0    0  501  502  0.00000000000E+00  0.00000000000E+00  0.45354772477E+00  0.45354772477E+00  0.00000000000E+00 0. -1.
         21   -1    0    0  502  503 -0.00000000000E+00 -0.00000000000E+00 -0.18748557599E+04  0.18748557599E+04  0.00000000000E+00 0.  1.
          2    1    1    2  501    0  0.97736626220E+01  0.21104861480E+02 -0.37160622659E+03  0.37233335508E+03  0.00000000000E+00 0. -1.
         -2    1    1    2    0  503 -0.97736626220E+01 -0.21104861480E+02 -0.15027959856E+04  0.15029759526E+04  0.00000000000E+00 0.  1.
<mgrwt>
<rscale>  2 0.23258110E+02</rscale>
<asrwt>0</asrwt>
<pdfrwt beam="1">  1       21 0.69778425E-04 0.23258110E+02</pdfrwt>
<pdfrwt beam="2">  1       21 0.28843169E+00 0.23258110E+02</pdfrwt>
<totfact> 0.92151248E+06</totfact>
</mgrwt>
</event>
<event>
 4    1  0.2736402E+004  0.3186802E+02  0.7546771E-02  0.1578313E+00
         21   -1    0    0  503  502  0.00000000000E+00  0.00000000000E+00  0.59932914036E+01  0.59932914036E+01  0.00000000000E+00 0.  1.
         21   -1    0    0  501  503 -0.00000000000E+00 -0.00000000000E+00 -0.25043901583E+03  0.25043901583E+03  0.00000000000E+00 0. -1.
          2    1    1    2  501    0  0.81691104798E+01 -0.30803187823E+02 -0.19513527124E+03  0.19772037029E+03  0.00000000000E+00 0. -1.
         -2    1    1    2    0  502 -0.81691104798E+01  0.30803187823E+02 -0.49310453185E+02  0.58711936941E+02  0.00000000000E+00 0.  1.
<mgrwt>
<rscale>  2 0.31868021E+02</rscale>
<asrwt>0</asrwt>
<pdfrwt beam="1">  1       21 0.92204481E-03 0.31868021E+02</pdfrwt>
<pdfrwt beam="2">  1       21 0.38529080E-01 0.31868021E+02</pdfrwt>
<totfact> 0.22671520E+07</totfact>
</mgrwt>
</event>
<event>
 4    1  0.2736402E+004  0.3287078E+02  0.7546771E-02  0.1568364E+00
         21   -1    0    0  503  502  0.00000000000E+00  0.00000000000E+00  0.16375491209E+01  0.16375491209E+01  0.00000000000E+00 0.  1.
         21   -1    0    0  501  503 -0.00000000000E+00 -0.00000000000E+00 -0.73695330285E+03  0.73695330285E+03  0.00000000000E+00 0. -1.
          2    1    1    2  501    0  0.33064671399E+01  0.32704061198E+02 -0.24818378611E+03  0.25035111351E+03  0.00000000000E+00 0.  1.
         -2    1    1    2    0  502 -0.33064671399E+01 -0.32704061198E+02 -0.48713196761E+03  0.48823973846E+03  0.00000000000E+00 0. -1.
<mgrwt>
<rscale>  2 0.32870783E+02</rscale>
<asrwt>0</asrwt>
<pdfrwt beam="1">  1       21 0.25192968E-03 0.32870783E+02</pdfrwt>
<pdfrwt beam="2">  1       21 0.11337786E+00 0.32870783E+02</pdfrwt>
<totfact> 0.16874715E+07</totfact>
</mgrwt>
</event>
<event>
 4    1  0.2736402E+004  0.2941751E+02  0.7546771E-02  0.1604618E+00
         21   -1    0    0  503  502  0.00000000000E+00  0.00000000000E+00  0.14504763550E+01  0.14504763550E+01  0.00000000000E+00 0. -1.
         21   -1    0    0  501  503 -0.00000000000E+00 -0.00000000000E+00 -0.67227195795E+03  0.67227195795E+03  0.00000000000E+00 0.  1.
          2    1    1    2  501    0  0.27755669072E+02  0.97474475908E+01 -0.44840993541E+03  0.44937385335E+03  0.00000000000E+00 0.  1.
         -2    1    1    2    0  502 -0.27755669072E+02 -0.97474475908E+01 -0.22241154618E+03  0.22434858095E+03  0.00000000000E+00 0. -1.
<mgrwt>
<rscale>  2 0.29417510E+02</rscale>
<asrwt>0</asrwt>
<pdfrwt beam="1">  1       21 0.22315000E-03 0.29417510E+02</pdfrwt>
<pdfrwt beam="2">  1       21 0.10342655E+00 0.29417510E+02</pdfrwt>
<totfact> 0.24372478E+07</totfact>
</mgrwt>
</event>
<event>
 4    1  0.2736402E+004  0.3945635E+02  0.7546771E-02  0.1512251E+00
         21   -1    0    0  503  502  0.00000000000E+00  0.00000000000E+00  0.26532241074E+02  0.26532241074E+02  0.00000000000E+00 0. -1.
         21   -1    0    0  501  503 -0.00000000000E+00 -0.00000000000E+00 -0.58871456842E+02  0.58871456842E+02  0.00000000000E+00 0.  1.
          2    1    1    2  501    0  0.24263135757E+02 -0.31114368425E+02 -0.13708630859E+02  0.41769968150E+02  0.00000000000E+00 0. -1.
         -2    1    1    2    0  502 -0.24263135757E+02  0.31114368425E+02 -0.18630584908E+02  0.43633729766E+02  0.00000000000E+00 0.  1.
<mgrwt>
<rscale>  2 0.39456352E+02</rscale>
<asrwt>0</asrwt>
<pdfrwt beam="1">  1       21 0.40818833E-02 0.39456352E+02</pdfrwt>
<pdfrwt beam="2">  1       21 0.90571472E-02 0.39456352E+02</pdfrwt>
<totfact> 0.30198679E+07</totfact>
</mgrwt>
</event>
<event>
 4    1  0.2736402E+004  0.3167446E+02  0.7546771E-02  0.1580285E+00
         21   -1    0    0  503  502  0.00000000000E+00  0.00000000000E+00  0.13803034745E+02  0.13803034745E+02  0.00000000000E+00 0. -1.
         21   -1    0    0  501  503 -0.00000000000E+00 -0.00000000000E+00 -0.74484743662E+02  0.74484743662E+02  0.00000000000E+00 0.  1.
          2    1    1    2  501    0  0.70768444319E+01 -0.30873771823E+02 -0.37203006259E+02  0.48860364186E+02  0.00000000000E+00 0.  1.
         -2    1    1    2    0  502 -0.70768444319E+01  0.30873771823E+02 -0.23478702657E+02  0.39427414221E+02  0.00000000000E+00 0. -1.
<mgrwt>
<rscale>  2 0.31674462E+02</rscale>
<asrwt>0</asrwt>
<pdfrwt beam="1">  1       21 0.21235439E-02 0.31674462E+02</pdfrwt>
<pdfrwt beam="2">  1       21 0.11459191E-01 0.31674462E+02</pdfrwt>
<totfact> 0.54680413E+07</totfact>
</mgrwt>
</event>
<event>
 4    1  0.2736402E+004  0.2065128E+02  0.7546771E-02  0.1732678E+00
         21   -1    0    0  503  502  0.00000000000E+00  0.00000000000E+00  0.88051760092E+00  0.88051760092E+00  0.00000000000E+00 0. -1.
         21   -1    0    0  501  503 -0.00000000000E+00 -0.00000000000E+00 -0.61850286880E+03  0.61850286880E+03  0.00000000000E+00 0.  1.
          2    1    1    2  501    0  0.18846360254E+02  0.84433451413E+01 -0.16457812230E+03  0.16586872433E+03  0.00000000000E+00 0. -1.
         -2    1    1    2    0  502 -0.18846360254E+02 -0.84433451413E+01 -0.45304422890E+03  0.45351466207E+03  0.00000000000E+00 0.  1.
<mgrwt>
<rscale>  2 0.20651280E+02</rscale>
<asrwt>0</asrwt>
<pdfrwt beam="1">  1       21 0.13546416E-03 0.20651280E+02</pdfrwt>
<pdfrwt beam="2">  1       21 0.95154347E-01 0.20651280E+02</pdfrwt>
<totfact> 0.56004851E+07</totfact>
</mgrwt>
</event>
<event>
 4    1  0.2736402E+004  0.2284345E+02  0.7546771E-02  0.1694060E+00
         21   -1    0    0  501  502  0.00000000000E+00  0.00000000000E+00  0.48763803943E+03  0.48763803943E+03  0.00000000000E+00 0.  1.
         21   -1    0    0  502  503 -0.00000000000E+00 -0.00000000000E+00 -0.10777310874E+01  0.10777310874E+01  0.00000000000E+00 0. -1.
          2    1    1    2  501    0 -0.20869212991E+02  0.92897429023E+01  0.26383683514E+03  0.26482390178E+03  0.00000000000E+00 0. -1.
         -2    1    1    2    0  503  0.20869212991E+02 -0.92897429023E+01  0.22272347320E+03  0.22389186874E+03  0.00000000000E+00 0.  1.
<mgrwt>
<rscale>  2 0.22843454E+02</rscale>
<asrwt>0</asrwt>
<pdfrwt beam="1">  1       21 0.75021061E-01 0.22843454E+02</pdfrwt>
<pdfrwt beam="2">  1       21 0.16580517E-03 0.22843454E+02</pdfrwt>
<totfact> 0.70964640E+07</totfact>
</mgrwt>
</event>
<event>
 4    1  0.2736402E+004  0.3005150E+02  0.7546771E-02  0.1597520E+00
         21   -1    0    0  503  502  0.00000000000E+00  0.00000000000E+00  0.17821860419E+03  0.17821860419E+03  0.00000000000E+00 0.  1.
         21   -1    0    0  501  503 -0.00000000000E+00 -0.00000000000E+00 -0.52684298299E+01  0.52684298299E+01  0.00000000000E+00 0. -1.
          2    1    1    2  501    0  0.21214170440E+02  0.21285011321E+02  0.68550915603E+02  0.74848652389E+02  0.00000000000E+00 0.  1.
         -2    1    1    2    0  502 -0.21214170440E+02 -0.21285011321E+02  0.10439925875E+03  0.10863838163E+03  0.00000000000E+00 0. -1.
<mgrwt>
<rscale>  2 0.30051501E+02</rscale>
<asrwt>0</asrwt>
<pdfrwt beam="1">  1       21 0.27418242E-01 0.30051501E+02</pdfrwt>
<pdfrwt beam="2">  1       21 0.81052780E-03 0.30051501E+02</pdfrwt>
<totfact> 0.51274712E+07</totfact>
</mgrwt>
</event>
<event>
 4    1  0.2736402E+004  0.2005557E+02  0.7546771E-02  0.1744225E+00
         21   -1    0    0  503  502  0.00000000000E+00  0.00000000000E+00  0.15740069829E+00  0.15740069829E+00  0.00000000000E+00 0. -1.
         21   -1    0    0  501  503 -0.00000000000E+00 -0.00000000000E+00 -0.25783241063E+04  0.25783241063E+04  0.00000000000E+00 0.  1.
          2    1    1    2  501    0  0.20053774319E+02  0.26838809614E+00 -0.14105792051E+04  0.14107217726E+04  0.00000000000E+00 0. -1.
         -2    1    1    2    0  502 -0.20053774319E+02 -0.26838809614E+00 -0.11675875005E+04  0.11677597343E+04  0.00000000000E+00 0.  1.
<mgrwt>
<rscale>  2 0.20055570E+02</rscale>
<asrwt>0</asrwt>
<pdfrwt beam="1">  1       21 0.24216908E-04 0.20055570E+02</pdfrwt>
<pdfrwt beam="2">  1       21 0.39664206E+00 0.20055570E+02</pdfrwt>
<totfact> 0.11772366E+07</totfact>
</mgrwt>
</event>
<event>
 4    1  0.2736402E+004  0.2457740E+02  0.7546771E-02  0.1667147E+00
         21   -1    0    0  501  502  0.00000000000E+00  0.00000000000E+00  0.12465360946E+02  0.12465360946E+02  0.00000000000E+00 0.  1.
         21   -1    0    0  502  503 -0.00000000000E+00 -0.00000000000E+00 -0.12007234380E+03  0.12007234380E+03  0.00000000000E+00 0. -1.
          2    1    1    2  501    0 -0.24044939806E+02 -0.50881885468E+01 -0.26250098345E+01  0.24717189759E+02  0.00000000000E+00 0.  1.
         -2    1    1    2    0  503  0.24044939806E+02  0.50881885468E+01 -0.10498197302E+03  0.10782051499E+03  0.00000000000E+00 0. -1.
<mgrwt>
<rscale>  2 0.24577404E+02</rscale>
<asrwt>0</asrwt>
<pdfrwt beam="1">  1       21 0.19177478E-02 0.24577404E+02</pdfrwt>
<pdfrwt beam="2">  1       21 0.18472669E-01 0.24577404E+02</pdfrwt>
<totfact> 0.26742705E+07</totfact>
</mgrwt>
</event>
<event>
 4    1  0.2736402E+004  0.2486562E+02  0.7546771E-02  0.1662940E+00
         21   -1    0    0  501  502  0.00000000000E+00  0.00000000000E+00  0.20682613131E+03  0.20682613131E+03  0.00000000000E+00 0.  1.
         21   -1    0    0  502  503 -0.00000000000E+00 -0.00000000000E+00 -0.51398388747E+01  0.51398388747E+01  0.00000000000E+00 0. -1.
          2    1    1    2  501    0 -0.19843565905E+01 -0.24786310180E+02  0.16939491955E+03  0.17121021469E+03  0.00000000000E+00 0.  1.
         -2    1    1    2    0  503  0.19843565905E+01  0.24786310180E+02  0.32291372881E+02  0.40755755495E+02  0.00000000000E+00 0. -1.
<mgrwt>
<rscale>  2 0.24865616E+02</rscale>
<asrwt>0</asrwt>
<pdfrwt beam="1">  1       21 0.31819398E-01 0.24865616E+02</pdfrwt>
<pdfrwt beam="2">  1       21 0.79074460E-03 0.24865616E+02</pdfrwt>
<totfact> 0.38891771E+07</totfact>
</mgrwt>
</event>
<event>
 4    1  0.2736402E+004  0.3027637E+02  0.7546771E-02  0.1595054E+00
         21   -1    0    0  503  502  0.00000000000E+00  0.00000000000E+00  0.14826380829E+04  0.14826380829E+04  0.00000000000E+00 0.  1.
         21   -1    0    0  501  503 -0.00000000000E+00 -0.00000000000E+00 -0.65524246102E+00  0.65524246102E+00  0.00000000000E+00 0. -1.
          2    1    1    2  501    0 -0.25336025365E+02 -0.16575418602E+02  0.91718196555E+03  0.91768154423E+03  0.00000000000E+00 0. -1.
         -2    1    1    2    0  502  0.25336025365E+02  0.16575418602E+02  0.56480087484E+03  0.56561178108E+03  0.00000000000E+00 0.  1.
<mgrwt>
<rscale>  2 0.30276372E+02</rscale>
<asrwt>0</asrwt>
<pdfrwt beam="1">  1       21 0.22809548E+00 0.30276372E+02</pdfrwt>
<pdfrwt beam="2">  1       21 0.10080772E-03 0.30276372E+02</pdfrwt>
<totfact> 0.11121644E+07</totfact>
</mgrwt>
</event>
<event>
 4    1  0.2736402E+004  0.3458373E+02  0.7546771E-02  0.1552329E+00
         21   -1    0    0  501  502  0.00000000000E+00  0.00000000000E+00  0.31741843892E+02  0.31741843892E+02  0.00000000000E+00 0.  1.
         21   -1    0    0  502  503 -0.00000000000E+00 -0.00000000000E+00 -0.41179927843E+02  0.41179927843E+02  0.00000000000E+00 0. -1.
          2    1    1    2  501    0 -0.27937596722E+02  0.20384427919E+02  0.59104123930E+01  0.35085141967E+02  0.00000000000E+00 0. -1.
         -2    1    1    2    0  503  0.27937596722E+02 -0.20384427919E+02 -0.15348496344E+02  0.37836629768E+02  0.00000000000E+00 0.  1.
<mgrwt>
<rscale>  2 0.34583728E+02</rscale>
<asrwt>0</asrwt>
<pdfrwt beam="1">  1       21 0.48833606E-02 0.34583728E+02</pdfrwt>
<pdfrwt beam="2">  1       21 0.63353735E-02 0.34583728E+02</pdfrwt>
<totfact> 0.39901355E+07</totfact>
</mgrwt>
</event>
<event>
 4    1  0.2736402E+004  0.2209485E+02  0.7546771E-02  0.1706617E+00
         21   -1    0    0  503  502  0.00000000000E+00  0.00000000000E+00  0.47225697181E+02  0.47225697181E+02  0.00000000000E+00 0. -1.
         21   -1    0    0  501  503 -0.00000000000E+00 -0.00000000000E+00 -0.45551569131E+02  0.45551569131E+02  0.00000000000E+00 0.  1.
          2    1    1    2  501    0 -0.17097940922E+02 -0.13994379116E+02 -0.39949748156E+02  0.45652651713E+02  0.00000000000E+00 0.  1.
         -2    1    1    2    0  502  0.17097940922E+02  0.13994379116E+02  0.41623876207E+02  0.47124614599E+02  0.00000000000E+00 0. -1.
<mgrwt>
<rscale>  2 0.22094846E+02</rscale>
<asrwt>0</asrwt>
<pdfrwt beam="1">  1       21 0.72654919E-02 0.22094846E+02</pdfrwt>
<pdfrwt beam="2">  1       21 0.70079337E-02 0.22094846E+02</pdfrwt>
<totfact> 0.16222461E+07</totfact>
</mgrwt>
</event>
<event>
 4    1  0.2736402E+004  0.2166201E+02  0.7546771E-02  0.1714164E+00
         21   -1    0    0  501  502  0.00000000000E+00  0.00000000000E+00  0.42047868939E+01  0.42047868939E+01  0.00000000000E+00 0.  1.
         21   -1    0    0  502  503 -0.00000000000E+00 -0.00000000000E+00 -0.35304419191E+03  0.35304419191E+03  0.00000000000E+00 0. -1.
          2    1    1    2  501    0 -0.14719967992E+02 -0.15892304257E+02 -0.26700385889E+02  0.34382457720E+02  0.00000000000E+00 0.  1.
         -2    1    1    2    0  503  0.14719967992E+02  0.15892304257E+02 -0.32213901912E+03  0.32286652108E+03  0.00000000000E+00 0. -1.
<mgrwt>
<rscale>  2 0.21662013E+02</rscale>
<asrwt>0</asrwt>
<pdfrwt beam="1">  1       21 0.64689014E-03 0.21662013E+02</pdfrwt>
<pdfrwt beam="2">  1       21 0.54314504E-01 0.21662013E+02</pdfrwt>
<totfact> 0.18463860E+07</totfact>
</mgrwt>
</event>
<event>
 4    1  0.2736402E+004  0.3101520E+02  0.7546771E-02  0.1587131E+00
         21   -1    0    0  501  502  0.00000000000E+00  0.00000000000E+00  0.13667941672E+03  0.13667941672E+03  0.00000000000E+00 0. -1.
         21   -1    0    0  502  503 -0.00000000000E+00 -0.00000000000E+00 -0.17736113810E+02  0.17736113810E+02  0.00000000000E+00 0.  1.
          2    1    1    2  501    0 -0.30100743756E+02  0.74758002625E+01  0.11943507911E+03  0.12339643628E+03  0.00000000000E+00 0. -1.
         -2    1    1    2    0  503  0.30100743756E+02 -0.74758002625E+01 -0.49177620147E+00  0.31019094249E+02  0.00000000000E+00 0.  1.
<mgrwt>
<rscale>  2 0.31015196E+02</rscale>
<asrwt>0</asrwt>
<pdfrwt beam="1">  1       21 0.21027602E-01 0.31015196E+02</pdfrwt>
<pdfrwt beam="2">  1       21 0.27286330E-02 0.31015196E+02</pdfrwt>
<totfact> 0.12881611E+07</totfact>
</mgrwt>
</event>
<event>
 4    1  0.2736402E+004  0.2598586E+02  0.7546771E-02  0.1647233E+00
         21   -1    0    0  501  502  0.00000000000E+00  0.00000000000E+00  0.81515171050E+02  0.81515171050E+02  0.00000000000E+00 0. -1.
         21   -1    0    0  502  503 -0.00000000000E+00 -0.00000000000E+00 -0.12481655501E+02  0.12481655501E+02  0.00000000000E+00 0.  1.
          2    1    1    2  501    0  0.32004876323E+01  0.25788012121E+02  0.61772306538E+02  0.67015539580E+02  0.00000000000E+00 0. -1.
         -2    1    1    2    0  503 -0.32004876323E+01 -0.25788012121E+02  0.72612090116E+01  0.26981286970E+02  0.00000000000E+00 0.  1.
<mgrwt>
<rscale>  2 0.25985856E+02</rscale>
<asrwt>0</asrwt>
<pdfrwt beam="1">  1       21 0.12540795E-01 0.25985856E+02</pdfrwt>
<pdfrwt beam="2">  1       21 0.19202547E-02 0.25985856E+02</pdfrwt>
<totfact> 0.52442205E+07</totfact>
</mgrwt>
</event>
<event>
 4    1  0.2736402E+004  0.4209461E+02  0.7546771E-02  0.1493340E+00
         21   -1    0    0  503  502  0.00000000000E+00  0.00000000000E+00  0.60600666115E+01  0.60600666115E+01  0.00000000000E+00 0.  1.
         21   -1    0    0  501  503 -0.00000000000E+00 -0.00000000000E+00 -0.43393352117E+03  0.43393352117E+03  0.00000000000E+00 0. -1.
          2    1    1    2  501    0 -0.35082460993E+02 -0.23263216384E+02 -0.33957912703E+03  0.34217822815E+03  0.00000000000E+00 0. -1.
         -2    1    1    2    0  502  0.35082460993E+02  0.23263216384E+02 -0.88294327520E+02  0.97815359622E+02  0.00000000000E+00 0.  1.
<mgrwt>
<rscale>  2 0.42094611E+02</rscale>
<asrwt>0</asrwt>
<pdfrwt beam="1">  1       21 0.93231767E-03 0.42094611E+02</pdfrwt>
<pdfrwt beam="2">  1       21 0.66759023E-01 0.42094611E+02</pdfrwt>
<totfact> 0.77779471E+06</totfact>
</mgrwt>
</event>
<event>
 4    1  0.2736402E+004  0.2355136E+02  0.7546771E-02  0.1682726E+00
         21   -1    0    0  503  502  0.00000000000E+00  0.00000000000E+00  0.49858832070E+01  0.49858832070E+01  0.00000000000E+00 0. -1.
         21   -1    0    0  501  503 -0.00000000000E+00 -0.00000000000E+00 -0.23243935534E+03  0.23243935534E+03  0.00000000000E+00 0.  1.
          2    1    1    2  501    0  0.22821040012E+02 -0.58194932437E+01 -0.19944611490E+03  0.20083181799E+03  0.00000000000E+00 0.  1.
         -2    1    1    2    0  502 -0.22821040012E+02  0.58194932437E+01 -0.28007357234E+02  0.36593420557E+02  0.00000000000E+00 0. -1.
<mgrwt>
<rscale>  2 0.23551356E+02</rscale>
<asrwt>0</asrwt>
<pdfrwt beam="1">  1       21 0.76705926E-03 0.23551356E+02</pdfrwt>
<pdfrwt beam="2">  1       21 0.35759887E-01 0.23551356E+02</pdfrwt>
<totfact> 0.32403411E+07</totfact>
</mgrwt>
</event>
<event>
 4    1  0.2736402E+004  0.2458261E+02  0.7546771E-02  0.1667070E+00
         21   -1    0    0  503  502  0.00000000000E+00  0.00000000000E+00  0.33722584352E+01  0.33722584352E+01  0.00000000000E+00 0. -1.
         21   -1    0    0  501  503 -0.00000000000E+00 -0.00000000000E+00 -0.41591091973E+03  0.41591091973E+03  0.00000000000E+00 0.  1.
          2    1    1    2  501    0  0.13638415877E+02 -0.20452340884E+02 -0.36442600959E+03  0.36525418697E+03  0.00000000000E+00 0.  1.
         -2    1    1    2    0  502 -0.13638415877E+02  0.20452340884E+02 -0.48112651709E+02  0.54028991197E+02  0.00000000000E+00 0. -1.
<mgrwt>
<rscale>  2 0.24582608E+02</rscale>
<asrwt>0</asrwt>
<pdfrwt beam="1">  1       21 0.51880909E-03 0.24582608E+02</pdfrwt>
<pdfrwt beam="2">  1       21 0.63986283E-01 0.24582608E+02</pdfrwt>
<totfact> 0.18931886E+07</totfact>
</mgrwt>
</event>
<event>
 4    1  0.2736402E+004  0.2330848E+02  0.7546771E-02  0.1686558E+00
         21   -1    0    0  501  502  0.00000000000E+00  0.00000000000E+00  0.23322874462E+03  0.23322874462E+03  0.00000000000E+00 0.  1.
         21   -1    0    0  502  503 -0.00000000000E+00 -0.00000000000E+00 -0.33210567584E+01  0.33210567584E+01  0.00000000000E+00 0. -1.
          2    1    1    2  501    0  0.18633849137E+02 -0.14002312481E+02  0.17958370252E+03  0.18109000884E+03  0.00000000000E+00 0.  1.
         -2    1    1    2    0  503 -0.18633849137E+02  0.14002312481E+02  0.50323985340E+02  0.55459792544E+02  0.00000000000E+00 0. -1.
<mgrwt>
<rscale>  2 0.23308477E+02</rscale>
<asrwt>0</asrwt>
<pdfrwt beam="1">  1       21 0.35881332E-01 0.23308477E+02</pdfrwt>
<pdfrwt beam="2">  1       21 0.51093199E-03 0.23308477E+02</pdfrwt>
<totfact> 0.58708500E+07</totfact>
</mgrwt>
</event>
<event>
 4    1  0.2736402E+004  0.2507528E+02  0.7546771E-02  0.1659923E+00
         21   -1    0    0  501  502  0.00000000000E+00  0.00000000000E+00  0.74572108594E+02  0.74572108594E+02  0.00000000000E+00 0. -1.
         21   -1    0    0  502  503 -0.00000000000E+00 -0.00000000000E+00 -0.10484709127E+02  0.10484709127E+02  0.00000000000E+00 0.  1.
          2    1    1    2  501    0  0.94776171589E+01  0.23215177510E+02  0.50862689945E+02  0.56707873547E+02  0.00000000000E+00 0. -1.
         -2    1    1    2    0  503 -0.94776171589E+01 -0.23215177510E+02  0.13224709523E+02  0.28348944174E+02  0.00000000000E+00 0.  1.
<mgrwt>
<rscale>  2 0.25075281E+02</rscale>
<asrwt>0</asrwt>
<pdfrwt beam="1">  1       21 0.11472632E-01 0.25075281E+02</pdfrwt>
<pdfrwt beam="2">  1       21 0.16130322E-02 0.25075281E+02</pdfrwt>
<totfact> 0.78889090E+07</totfact>
</mgrwt>
</event>
<event>
 4    1  0.2736402E+004  0.2253491E+02  0.7546771E-02  0.1699162E+00
         21   -1    0    0  501  502  0.00000000000E+00  0.00000000000E+00  0.56129860263E+03  0.56129860263E+03  0.00000000000E+00 0. -1.
         21   -1    0    0  502  503 -0.00000000000E+00 -0.00000000000E+00 -0.99049314130E+00  0.99049314130E+00  0.00000000000E+00 0.  1.
          2    1    1    2  501    0 -0.20133249193E+02  0.10122975457E+02  0.36288352948E+03  0.36358256053E+03  0.00000000000E+00 0. -1.
         -2    1    1    2    0  503  0.20133249193E+02 -0.10122975457E+02  0.19742458001E+03  0.19870653524E+03  0.00000000000E+00 0.  1.
<mgrwt>
<rscale>  2 0.22534914E+02</rscale>
<asrwt>0</asrwt>
<pdfrwt beam="1">  1       21 0.86353377E-01 0.22534914E+02</pdfrwt>
<pdfrwt beam="2">  1       21 0.15238401E-03 0.22534914E+02</pdfrwt>
<totfact> 0.59441774E+07</totfact>
</mgrwt>
</event>
<event>
 4    1  0.2736402E+004  0.6087598E+02  0.7546771E-02  0.1394192E+00
         21   -1    0    0  503  502  0.00000000000E+00  0.00000000000E+00  0.28914391562E+02  0.28914391562E+02  0.00000000000E+00 0.  1.
         21   -1    0    0  501  503 -0.00000000000E+00 -0.00000000000E+00 -0.17280752999E+03  0.17280752999E+03  0.00000000000E+00 0. -1.
          2    1    1    2  501    0  0.48492904344E+02 -0.36801135247E+02 -0.12320956711E+03  0.13742810031E+03  0.00000000000E+00 0. -1.
         -2    1    1    2    0  502 -0.48492904344E+02  0.36801135247E+02 -0.20683571315E+02  0.64293821240E+02  0.00000000000E+00 0.  1.
<mgrwt>
<rscale>  2 0.60875983E+02</rscale>
<asrwt>0</asrwt>
<pdfrwt beam="1">  1       21 0.44483679E-02 0.60875983E+02</pdfrwt>
<pdfrwt beam="2">  1       21 0.26585774E-01 0.60875983E+02</pdfrwt>
<totfact> 0.41640936E+06</totfact>
</mgrwt>
</event>
<event>
 4    1  0.2736402E+004  0.2097426E+02  0.7546771E-02  0.1726620E+00
         21   -1    0    0  503  502  0.00000000000E+00  0.00000000000E+00  0.24286685358E+02  0.24286685358E+02  0.00000000000E+00 0. -1.
         21   -1    0    0  501  503 -0.00000000000E+00 -0.00000000000E+00 -0.29526192998E+02  0.29526192998E+02  0.00000000000E+00 0.  1.
          2    1    1    2  501    0 -0.70510940228E+01 -0.19753525874E+02 -0.19347766349E+02  0.28535167321E+02  0.00000000000E+00 0.  1.
         -2    1    1    2    0  502  0.70510940228E+01  0.19753525874E+02  0.14108258708E+02  0.25277711035E+02  0.00000000000E+00 0. -1.
<mgrwt>
<rscale>  2 0.20974263E+02</rscale>
<asrwt>0</asrwt>
<pdfrwt beam="1">  1       21 0.37364131E-02 0.20974263E+02</pdfrwt>
<pdfrwt beam="2">  1       21 0.45424912E-02 0.20974263E+02</pdfrwt>
<totfact> 0.92210164E+07</totfact>
</mgrwt>
</event>
<event>
 4    1  0.2736402E+004  0.2221854E+02  0.7546771E-02  0.1704500E+00
         21   -1    0    0  503  502  0.00000000000E+00  0.00000000000E+00  0.37757569460E+01  0.37757569460E+01  0.00000000000E+00 0.  1.
         21   -1    0    0  501  503 -0.00000000000E+00 -0.00000000000E+00 -0.21436357225E+03  0.21436357225E+03  0.00000000000E+00 0. -1.
          2    1    1    2  501    0  0.70416336608E+01 -0.21073180547E+02 -0.17341448888E+03  0.17483205798E+03  0.00000000000E+00 0. -1.
         -2    1    1    2    0  502 -0.70416336608E+01  0.21073180547E+02 -0.37173326421E+02  0.43307271216E+02  0.00000000000E+00 0.  1.
<mgrwt>
<rscale>  2 0.22218541E+02</rscale>
<asrwt>0</asrwt>
<pdfrwt beam="1">  1       21 0.58088559E-03 0.22218541E+02</pdfrwt>
<pdfrwt beam="2">  1       21 0.32979016E-01 0.22218541E+02</pdfrwt>
<totfact> 0.56087033E+07</totfact>
</mgrwt>
</event>
<event>
 4    1  0.2736402E+004  0.2018377E+02  0.7546771E-02  0.1741698E+00
         21   -1    0    0  501  502  0.00000000000E+00  0.00000000000E+00  0.45884908701E+01  0.45884908701E+01  0.00000000000E+00 0. -1.
         21   -1    0    0  502  503 -0.00000000000E+00 -0.00000000000E+00 -0.13389986784E+04  0.13389986784E+04  0.00000000000E+00 0.  1.
          2    1    1    2  501    0 -0.19112932586E+02  0.64869249853E+01 -0.18065526314E+02  0.27087776373E+02  0.00000000000E+00 0. -1.
         -2    1    1    2    0  503  0.19112932586E+02 -0.64869249853E+01 -0.13163446612E+04  0.13164993929E+04  0.00000000000E+00 0.  1.
<mgrwt>
<rscale>  2 0.20183765E+02</rscale>
<asrwt>0</asrwt>
<pdfrwt beam="1">  1       21 0.70592069E-03 0.20183765E+02</pdfrwt>
<pdfrwt beam="2">  1       21 0.20600008E+00 0.20183765E+02</pdfrwt>
<totfact> 0.83610614E+05</totfact>
</mgrwt>
</event>
<event>
 4    1  0.2736402E+004  0.2200622E+02  0.7546771E-02  0.1708145E+00
         21   -1    0    0  503  502  0.00000000000E+00  0.00000000000E+00  0.58078626448E+01  0.58078626448E+01  0.00000000000E+00 0.  1.
         21   -1    0    0  501  503 -0.00000000000E+00 -0.00000000000E+00 -0.11402866673E+03  0.11402866673E+03  0.00000000000E+00 0. -1.
          2    1    1    2  501    0  0.18417484795E+02 -0.12044493704E+02 -0.85173225848E+02  0.87970176629E+02  0.00000000000E+00 0. -1.
         -2    1    1    2    0  502 -0.18417484795E+02  0.12044493704E+02 -0.23047578239E+02  0.31866352748E+02  0.00000000000E+00 0.  1.
<mgrwt>
<rscale>  2 0.22006217E+02</rscale>
<asrwt>0</asrwt>
<pdfrwt beam="1">  1       21 0.89351734E-03 0.22006217E+02</pdfrwt>
<pdfrwt beam="2">  1       21 0.17542872E-01 0.22006217E+02</pdfrwt>
<totfact> 0.90430265E+07</totfact>
</mgrwt>
</event>
<event>
 4    1  0.2736402E+004  0.2168258E+02  0.7546771E-02  0.1713800E+00
         21   -1    0    0  503  502  0.00000000000E+00  0.00000000000E+00  0.54947069545E+02  0.54947069545E+02  0.00000000000E+00 0.  1.
         21   -1    0    0  501  503 -0.00000000000E+00 -0.00000000000E+00 -0.17345032173E+02  0.17345032173E+02  0.00000000000E+00 0. -1.
          2    1    1    2  501    0  0.21312571869E+02 -0.39885349908E+01 -0.69290341637E+01  0.22762812776E+02  0.00000000000E+00 0. -1.
         -2    1    1    2    0  502 -0.21312571869E+02  0.39885349908E+01  0.44531071535E+02  0.49529288942E+02  0.00000000000E+00 0.  1.
<mgrwt>
<rscale>  2 0.21682577E+02</rscale>
<asrwt>0</asrwt>
<pdfrwt beam="1">  1       21 0.84533952E-02 0.21682577E+02</pdfrwt>
<pdfrwt beam="2">  1       21 0.26684665E-02 0.21682577E+02</pdfrwt>
<totfact> 0.58002007E+07</totfact>
</mgrwt>
</event>
<event>
 4    1  0.2736402E+004  0.2029970E+02  0.7546771E-02  0.1739433E+00
         21   -1    0    0  503  502  0.00000000000E+00  0.00000000000E+00  0.76439051229E+02  0.76439051229E+02  0.00000000000E+00 0. -1.
         21   -1    0    0  501  503 -0.00000000000E+00 -0.00000000000E+00 -0.13621832919E+02  0.13621832919E+02  0.00000000000E+00 0.  1.
          2    1    1    2  501    0  0.28241956967E+01 -0.20102283566E+02 -0.35949389272E+01  0.20615563824E+02  0.00000000000E+00 0.  1.
         -2    1    1    2    0  502 -0.28241956967E+01  0.20102283566E+02  0.66412157238E+02  0.69445320324E+02  0.00000000000E+00 0. -1.
<mgrwt>
<rscale>  2 0.20299702E+02</rscale>
<asrwt>0</asrwt>
<pdfrwt beam="1">  1       21 0.11759854E-01 0.20299702E+02</pdfrwt>
<pdfrwt beam="2">  1       21 0.20956666E-02 0.20299702E+02</pdfrwt>
<totfact> 0.47974823E+07</totfact>
</mgrwt>
</event>
<event>
 4    1  0.2736402E+004  0.3353208E+02  0.7546771E-02  0.1562036E+00
         21   -1    0    0  501  502  0.00000000000E+00  0.00000000000E+00  0.19100932728E+01  0.19100932728E+01  0.00000000000E+00 0.  1.
         21   -1    0    0  502  503 -0.00000000000E+00 -0.00000000000E+00 -0.62130432408E+03  0.62130432408E+03  0.00000000000E+00 0. -1.
          2    1    1    2  501    0  0.33505854265E+02 -0.13259734792E+01 -0.23827349825E+03  0.24062140479E+03  0.00000000000E+00 0.  1.
         -2    1    1    2    0  503 -0.33505854265E+02  0.13259734792E+01 -0.38112073256E+03  0.38259301257E+03  0.00000000000E+00 0. -1.
<mgrwt>
<rscale>  2 0.33532081E+02</rscale>
<asrwt>0</asrwt>
<pdfrwt beam="1">  1       21 0.29386053E-03 0.33532081E+02</pdfrwt>
<pdfrwt beam="2">  1       21 0.95585273E-01 0.33532081E+02</pdfrwt>
<totfact> 0.19788009E+07</totfact>
</mgrwt>
</event>
<event>
 4    1  0.2736402E+004  0.2647511E+02  0.7546771E-02  0.1640676E+00
         21   -1    0    0  503  502  0.00000000000E+00  0.00000000000E+00  0.84913466903E+02  0.84913466903E+02  0.00000000000E+00 0.  1.
         21   -1    0    0  501  503 -0.00000000000E+00 -0.00000000000E+00 -0.87462726951E+01  0.87462726951E+01  0.00000000000E+00 0. -1.
          2    1    1    2  501    0 -0.26068721549E+02 -0.46209341789E+01  0.26980971175E+02  0.37800847629E+02  0.00000000000E+00 0. -1.
         -2    1    1    2    0  502  0.26068721549E+02  0.46209341789E+01  0.49186223033E+02  0.55858891970E+02  0.00000000000E+00 0.  1.
<mgrwt>
<rscale>  2 0.26475107E+02</rscale>
<asrwt>0</asrwt>
<pdfrwt beam="1">  1       21 0.13063610E-01 0.26475107E+02</pdfrwt>
<pdfrwt beam="2">  1       21 0.13455805E-02 0.26475107E+02</pdfrwt>
<totfact> 0.84735970E+07</totfact>
</mgrwt>
</event>
<event>
 4    1  0.2736402E+004  0.2334383E+02  0.7546771E-02  0.1685997E+00
         21   -1    0    0  503  502  0.00000000000E+00  0.00000000000E+00  0.11690501648E+02  0.11690501648E+02  0.00000000000E+00 0. -1.
         21   -1    0    0  501  503 -0.00000000000E+00 -0.00000000000E+00 -0.46626547431E+02  0.46626547431E+02  0.00000000000E+00 0.  1.
          2    1    1    2  501    0  0.21214292061E+02 -0.97410623690E+01 -0.16979115413E+02  0.28865634307E+02  0.00000000000E+00 0.  1.
         -2    1    1    2    0  502 -0.21214292061E+02  0.97410623690E+01 -0.17956930371E+02  0.29451414772E+02  0.00000000000E+00 0. -1.
<mgrwt>
<rscale>  2 0.23343832E+02</rscale>
<asrwt>0</asrwt>
<pdfrwt beam="1">  1       21 0.17985387E-02 0.23343832E+02</pdfrwt>
<pdfrwt beam="2">  1       21 0.71733149E-02 0.23343832E+02</pdfrwt>
<totfact> 0.14195782E+08</totfact>
</mgrwt>
</event>
<event>
 4    1  0.2736402E+004  0.2548840E+02  0.7546771E-02  0.1654084E+00
         21   -1    0    0  503  502  0.00000000000E+00  0.00000000000E+00  0.23447628107E+02  0.23447628107E+02  0.00000000000E+00 0.  1.
         21   -1    0    0  501  503 -0.00000000000E+00 -0.00000000000E+00 -0.27823058637E+02  0.27823058637E+02  0.00000000000E+00 0. -1.
          2    1    1    2  501    0 -0.65699416514E+01  0.24627109381E+02 -0.38448457272E+01  0.25776762567E+02  0.00000000000E+00 0.  1.
         -2    1    1    2    0  502  0.65699416514E+01 -0.24627109381E+02 -0.53058480333E+00  0.25493924178E+02  0.00000000000E+00 0. -1.
<mgrwt>
<rscale>  2 0.25488402E+02</rscale>
<asrwt>0</asrwt>
<pdfrwt beam="1">  1       21 0.36073274E-02 0.25488402E+02</pdfrwt>
<pdfrwt beam="2">  1       21 0.42804705E-02 0.25488402E+02</pdfrwt>
<totfact> 0.11317872E+08</totfact>
</mgrwt>
</event>
<event>
 4    1  0.2736402E+004  0.3561778E+02  0.7546771E-02  0.1543182E+00
         21   -1    0    0  503  502  0.00000000000E+00  0.00000000000E+00  0.15404625857E+02  0.15404625857E+02  0.00000000000E+00 0. -1.
         21   -1    0    0  501  503 -0.00000000000E+00 -0.00000000000E+00 -0.89733030563E+02  0.89733030563E+02  0.00000000000E+00 0.  1.
          2    1    1    2  501    0 -0.13047841726E+02  0.33141817306E+02 -0.52239429853E+02  0.63226452212E+02  0.00000000000E+00 0.  1.
         -2    1    1    2    0  502  0.13047841726E+02 -0.33141817306E+02 -0.22088974853E+02  0.41911204207E+02  0.00000000000E+00 0. -1.
<mgrwt>
<rscale>  2 0.35617780E+02</rscale>
<asrwt>0</asrwt>
<pdfrwt beam="1">  1       21 0.23699424E-02 0.35617780E+02</pdfrwt>
<pdfrwt beam="2">  1       21 0.13805082E-01 0.35617780E+02</pdfrwt>
<totfact> 0.34345545E+07</totfact>
</mgrwt>
</event>
<event>
 4    1  0.2736402E+004  0.2021582E+02  0.7546771E-02  0.1741070E+00
         21   -1    0    0  501  502  0.00000000000E+00  0.00000000000E+00  0.28091186900E+02  0.28091186900E+02  0.00000000000E+00 0. -1.
         21   -1    0    0  502  503 -0.00000000000E+00 -0.00000000000E+00 -0.20506015495E+02  0.20506015495E+02  0.00000000000E+00 0.  1.
          2    1    1    2  501    0 -0.20133550669E+02 -0.18219603629E+01  0.16889832450E+02  0.26342851826E+02  0.00000000000E+00 0. -1.
         -2    1    1    2    0  503  0.20133550669E+02  0.18219603629E+01 -0.93046610448E+01  0.22254350570E+02  0.00000000000E+00 0.  1.
<mgrwt>
<rscale>  2 0.20215821E+02</rscale>
<asrwt>0</asrwt>
<pdfrwt beam="1">  1       21 0.43217210E-02 0.20215821E+02</pdfrwt>
<pdfrwt beam="2">  1       21 0.31547716E-02 0.20215821E+02</pdfrwt>
<totfact> 0.12842784E+08</totfact>
</mgrwt>
</event>
<event>
 4    1  0.2736402E+004  0.2192989E+02  0.7546771E-02  0.1709467E+00
         21   -1    0    0  503  502  0.00000000000E+00  0.00000000000E+00  0.21351161734E+03  0.21351161734E+03  0.00000000000E+00 0.  1.
         21   -1    0    0  501  503 -0.00000000000E+00 -0.00000000000E+00 -0.25352609776E+01  0.25352609776E+01  0.00000000000E+00 0. -1.
          2    1    1    2  501    0 -0.63011789029E+01  0.21005121921E+02  0.69407886270E+02  0.72789935286E+02  0.00000000000E+00 0. -1.
         -2    1    1    2    0  502  0.63011789029E+01 -0.21005121921E+02  0.14156847009E+03  0.14325694303E+03  0.00000000000E+00 0.  1.
<mgrwt>
<rscale>  2 0.21929888E+02</rscale>
<asrwt>0</asrwt>
<pdfrwt beam="1">  1       21 0.32847927E-01 0.21929888E+02</pdfrwt>
<pdfrwt beam="2">  1       21 0.39004032E-03 0.21929888E+02</pdfrwt>
<totfact> 0.10116311E+08</totfact>
</mgrwt>
</event>
<event>
 4    1  0.2736402E+004  0.3343482E+02  0.7546771E-02  0.1562956E+00
         21   -1    0    0  503  502  0.00000000000E+00  0.00000000000E+00  0.11221405715E+03  0.11221405715E+03  0.00000000000E+00 0.  1.
         21   -1    0    0  501  503 -0.00000000000E+00 -0.00000000000E+00 -0.22197848884E+02  0.22197848884E+02  0.00000000000E+00 0. -1.
          2    1    1    2  501    0  0.25940810922E+02  0.21094109868E+02 -0.48881172619E+01  0.33790247599E+02  0.00000000000E+00 0. -1.
         -2    1    1    2    0  502 -0.25940810922E+02 -0.21094109868E+02  0.94904325525E+02  0.10062165843E+03  0.00000000000E+00 0.  1.
<mgrwt>
<rscale>  2 0.33434819E+02</rscale>
<asrwt>0</asrwt>
<pdfrwt beam="1">  1       21 0.17263701E-01 0.33434819E+02</pdfrwt>
<pdfrwt beam="2">  1       21 0.34150537E-02 0.33434819E+02</pdfrwt>
<totfact> 0.12953146E+07</totfact>
</mgrwt>
</event>
<event>
 4    1  0.2736402E+004  0.2026174E+02  0.7546771E-02  0.1740173E+00
         21   -1    0    0  503  502  0.00000000000E+00  0.00000000000E+00  0.16875629133E+02  0.16875629133E+02  0.00000000000E+00 0. -1.
         21   -1    0    0  501  503 -0.00000000000E+00 -0.00000000000E+00 -0.72073916794E+02  0.72073916794E+02  0.00000000000E+00 0.  1.
          2    1    1    2  501    0  0.19207287907E+02 -0.64512276301E+01 -0.63798099881E+02  0.66938298418E+02  0.00000000000E+00 0.  1.
         -2    1    1    2    0  502 -0.19207287907E+02  0.64512276301E+01  0.85998122196E+01  0.22011247509E+02  0.00000000000E+00 0. -1.
<mgrwt>
<rscale>  2 0.20261743E+02</rscale>
<asrwt>0</asrwt>
<pdfrwt beam="1">  1       21 0.25962506E-02 0.20261743E+02</pdfrwt>
<pdfrwt beam="2">  1       21 0.11088295E-01 0.20261743E+02</pdfrwt>
<totfact> 0.38051839E+07</totfact>
</mgrwt>
</event>
<event>
 4    1  0.2736402E+004  0.2338459E+02  0.7546771E-02  0.1685351E+00
         21   -1    0    0  501  502  0.00000000000E+00  0.00000000000E+00  0.45141081115E+01  0.45141081115E+01  0.00000000000E+00 0. -1.
         21   -1    0    0  502  503 -0.00000000000E+00 -0.00000000000E+00 -0.12123348314E+03  0.12123348314E+03  0.00000000000E+00 0.  1.
          2    1    1    2  501    0 -0.85674579527E+01 -0.21758624466E+02 -0.60105573454E+02  0.64494333353E+02  0.00000000000E+00 0. -1.
         -2    1    1    2    0  503  0.85674579527E+01  0.21758624466E+02 -0.56613801573E+02  0.61253257897E+02  0.00000000000E+00 0.  1.
<mgrwt>
<rscale>  2 0.23384591E+02</rscale>
<asrwt>0</asrwt>
<pdfrwt beam="1">  1       21 0.69447825E-03 0.23384591E+02</pdfrwt>
<pdfrwt beam="2">  1       21 0.18651303E-01 0.23384591E+02</pdfrwt>
<totfact> 0.12049393E+08</totfact>
</mgrwt>
</event>
<event>
 4    1  0.2736402E+004  0.3038321E+02  0.7546771E-02  0.1593891E+00
         21   -1    0    0  503  502  0.00000000000E+00  0.00000000000E+00  0.13473019924E+03  0.13473019924E+03  0.00000000000E+00 0.  1.
         21   -1    0    0  501  503 -0.00000000000E+00 -0.00000000000E+00 -0.11984880198E+02  0.11984880198E+02  0.00000000000E+00 0. -1.
          2    1    1    2  501    0  0.93588204414E+01  0.28905911631E+02  0.13364114405E+02  0.33192450966E+02  0.00000000000E+00 0. -1.
         -2    1    1    2    0  502 -0.93588204414E+01 -0.28905911631E+02  0.10938120464E+03  0.11352262848E+03  0.00000000000E+00 0.  1.
<mgrwt>
<rscale>  2 0.30383207E+02</rscale>
<asrwt>0</asrwt>
<pdfrwt beam="1">  1       21 0.20727722E-01 0.30383207E+02</pdfrwt>
<pdfrwt beam="2">  1       21 0.18438278E-02 0.30383207E+02</pdfrwt>
<totfact> 0.24235765E+07</totfact>
</mgrwt>
</event>
<event>
 4    1  0.2736402E+004  0.3299474E+02  0.7546771E-02  0.1567164E+00
         21   -1    0    0  501  502  0.00000000000E+00  0.00000000000E+00  0.27861486501E+02  0.27861486501E+02  0.00000000000E+00 0.  1.
         21   -1    0    0  502  503 -0.00000000000E+00 -0.00000000000E+00 -0.57636722725E+02  0.57636722725E+02  0.00000000000E+00 0. -1.
          2    1    1    2  501    0 -0.15871888075E+00  0.32994361081E+02  0.93729531130E+01  0.34300223102E+02  0.00000000000E+00 0.  1.
         -2    1    1    2    0  503  0.15871888075E+00 -0.32994361081E+02 -0.39148189337E+02  0.51197986124E+02  0.00000000000E+00 0. -1.
<mgrwt>
<rscale>  2 0.32994743E+02</rscale>
<asrwt>0</asrwt>
<pdfrwt beam="1">  1       21 0.42863826E-02 0.32994743E+02</pdfrwt>
<pdfrwt beam="2">  1       21 0.88671880E-02 0.32994743E+02</pdfrwt>
<totfact> 0.27995621E+07</totfact>
</mgrwt>
</event>
<event>
 4    1  0.2736402E+004  0.4226221E+02  0.7546771E-02  0.1492195E+00
         21   -1    0    0  503  502  0.00000000000E+00  0.00000000000E+00  0.83991240432E+02  0.83991240432E+02  0.00000000000E+00 0.  1.
         21   -1    0    0  501  503 -0.00000000000E+00 -0.00000000000E+00 -0.39230214732E+02  0.39230214732E+02  0.00000000000E+00 0. -1.
          2    1    1    2  501    0  0.41704784741E+02 -0.68414612004E+01 -0.19312107261E+02  0.46465601777E+02  0.00000000000E+00 0. -1.
         -2    1    1    2    0  502 -0.41704784741E+02  0.68414612004E+01  0.64073132962E+02  0.76755853387E+02  0.00000000000E+00 0.  1.
<mgrwt>
<rscale>  2 0.42262213E+02</rscale>
<asrwt>0</asrwt>
<pdfrwt beam="1">  1       21 0.12921729E-01 0.42262213E+02</pdfrwt>
<pdfrwt beam="2">  1       21 0.60354176E-02 0.42262213E+02</pdfrwt>
<totfact> 0.88359804E+06</totfact>
</mgrwt>
</event>
<event>
 4    1  0.2736402E+004  0.2462894E+02  0.7546771E-02  0.1666389E+00
         21   -1    0    0  503  502  0.00000000000E+00  0.00000000000E+00  0.24425875185E+03  0.24425875185E+03  0.00000000000E+00 0.  1.
         21   -1    0    0  501  503 -0.00000000000E+00 -0.00000000000E+00 -0.32992180227E+01  0.32992180227E+01  0.00000000000E+00 0. -1.
          2    1    1    2  501    0  0.16641811439E+02  0.18155851729E+02  0.58927215490E+02  0.63867061663E+02  0.00000000000E+00 0. -1.
         -2    1    1    2    0  502 -0.16641811439E+02 -0.18155851729E+02  0.18203231834E+03  0.18369090821E+03  0.00000000000E+00 0.  1.
<mgrwt>
<rscale>  2 0.24628943E+02</rscale>
<asrwt>0</asrwt>
<pdfrwt beam="1">  1       21 0.37578255E-01 0.24628943E+02</pdfrwt>
<pdfrwt beam="2">  1       21 0.50757220E-03 0.24628943E+02</pdfrwt>
<totfact> 0.55114129E+07</totfact>
</mgrwt>
</event>
<event>
 4    1  0.2736402E+004  0.2041636E+02  0.7546771E-02  0.1737173E+00
         21   -1    0    0  503  502  0.00000000000E+00  0.00000000000E+00  0.13833080559E+04  0.13833080559E+04  0.00000000000E+00 0.  1.
         21   -1    0    0  501  503 -0.00000000000E+00 -0.00000000000E+00 -0.38591964545E+00  0.38591964545E+00  0.00000000000E+00 0. -1.
          2    1    1    2  501    0 -0.19833068799E+02 -0.48453317005E+01  0.36754812469E+03  0.36811472643E+03  0.00000000000E+00 0.  1.
         -2    1    1    2    0  502  0.19833068799E+02  0.48453317005E+01  0.10153740116E+04  0.10155792491E+04  0.00000000000E+00 0. -1.
<mgrwt>
<rscale>  2 0.20416362E+02</rscale>
<asrwt>0</asrwt>
<pdfrwt beam="1">  1       21 0.21281265E+00 0.20416362E+02</pdfrwt>
<pdfrwt beam="2">  1       21 0.59373361E-04 0.20416362E+02</pdfrwt>
<totfact> 0.27195714E+07</totfact>
</mgrwt>
</event>
<event>
 4    1  0.2736402E+004  0.4389318E+02  0.7546771E-02  0.1481372E+00
         21   -1    0    0  503  502  0.00000000000E+00  0.00000000000E+00  0.10564329623E+03  0.10564329623E+03  0.00000000000E+00 0.  1.
         21   -1    0    0  501  503 -0.00000000000E+00 -0.00000000000E+00 -0.17579606938E+03  0.17579606938E+03  0.00000000000E+00 0. -1.
          2    1    1    2  501    0  0.36022540858E+02 -0.25079626015E+02 -0.16829718899E+03  0.17392686656E+03  0.00000000000E+00 0. -1.
         -2    1    1    2    0  502 -0.36022540858E+02  0.25079626015E+02  0.98144415841E+02  0.10751249905E+03  0.00000000000E+00 0.  1.
<mgrwt>
<rscale>  2 0.43893178E+02</rscale>
<asrwt>0</asrwt>
<pdfrwt beam="1">  1       21 0.16252815E-01 0.43893178E+02</pdfrwt>
<pdfrwt beam="2">  1       21 0.27045549E-01 0.43893178E+02</pdfrwt>
<totfact> 0.44417176E+05</totfact>
</mgrwt>
</event>
<event>
 4    1  0.2736402E+004  0.2054439E+02  0.7546771E-02  0.1734714E+00
         21   -1    0    0  501  502  0.00000000000E+00  0.00000000000E+00  0.22644156525E+02  0.22644156525E+02  0.00000000000E+00 0.  1.
         21   -1    0    0  502  503 -0.00000000000E+00 -0.00000000000E+00 -0.30254478449E+02  0.30254478449E+02  0.00000000000E+00 0. -1.
          2    1    1    2  501    0  0.97568162865E+01  0.18079728276E+02  0.12583063641E+02  0.24091607027E+02  0.00000000000E+00 0.  1.
         -2    1    1    2    0  503 -0.97568162865E+01 -0.18079728276E+02 -0.20193385564E+02  0.28807027947E+02  0.00000000000E+00 0. -1.
<mgrwt>
<rscale>  2 0.20544392E+02</rscale>
<asrwt>0</asrwt>
<pdfrwt beam="1">  1       21 0.34837164E-02 0.20544392E+02</pdfrwt>
<pdfrwt beam="2">  1       21 0.46545351E-02 0.20544392E+02</pdfrwt>
<totfact> 0.98391205E+07</totfact>
</mgrwt>
</event>
<event>
 4    1  0.2736402E+004  0.2429819E+02  0.7546771E-02  0.1671292E+00
         21   -1    0    0  503  502  0.00000000000E+00  0.00000000000E+00  0.28450761187E+02  0.28450761187E+02  0.00000000000E+00 0.  1.
         21   -1    0    0  501  503 -0.00000000000E+00 -0.00000000000E+00 -0.24806859838E+02  0.24806859838E+02  0.00000000000E+00 0. -1.
          2    1    1    2  501    0 -0.22476181147E+02  0.92316572714E+01 -0.89444073237E+01  0.25892173283E+02  0.00000000000E+00 0. -1.
         -2    1    1    2    0  502  0.22476181147E+02 -0.92316572714E+01  0.12588308672E+02  0.27365447742E+02  0.00000000000E+00 0.  1.
<mgrwt>
<rscale>  2 0.24298194E+02</rscale>
<asrwt>0</asrwt>
<pdfrwt beam="1">  1       21 0.43770402E-02 0.24298194E+02</pdfrwt>
<pdfrwt beam="2">  1       21 0.38164400E-02 0.24298194E+02</pdfrwt>
<totfact> 0.98678392E+07</totfact>
</mgrwt>
</event>
<event>
 4    1  0.2736402E+004  0.2076576E+02  0.7546771E-02  0.1730515E+00
         21   -1    0    0  503  502  0.00000000000E+00  0.00000000000E+00  0.81237991563E+00  0.81237991563E+00  0.00000000000E+00 0.  1.
         21   -1    0    0  501  503 -0.00000000000E+00 -0.00000000000E+00 -0.64486009657E+03  0.64486009657E+03  0.00000000000E+00 0. -1.
          2    1    1    2  501    0  0.16966599546E+02  0.11972947799E+02 -0.45779359907E+03  0.45826433019E+03  0.00000000000E+00 0. -1.
         -2    1    1    2    0  502 -0.16966599546E+02 -0.11972947799E+02 -0.18625411758E+03  0.18740814629E+03  0.00000000000E+00 0.  1.
<mgrwt>
<rscale>  2 0.20765765E+02</rscale>
<asrwt>0</asrwt>
<pdfrwt beam="1">  1       21 0.12498176E-03 0.20765765E+02</pdfrwt>
<pdfrwt beam="2">  1       21 0.99209063E-01 0.20765765E+02</pdfrwt>
<totfact> 0.57475387E+07</totfact>
</mgrwt>
</event>
<event>
 4    1  0.2736402E+004  0.2431235E+02  0.7546771E-02  0.1671080E+00
         21   -1    0    0  503  502  0.00000000000E+00  0.00000000000E+00  0.35666495700E+03  0.35666495700E+03  0.00000000000E+00 0. -1.
         21   -1    0    0  501  503 -0.00000000000E+00 -0.00000000000E+00 -0.17492742025E+01  0.17492742025E+01  0.00000000000E+00 0.  1.
          2    1    1    2  501    0 -0.16352578035E+02  0.17991202260E+02  0.13635896843E+03  0.13850941642E+03  0.00000000000E+00 0.  1.
         -2    1    1    2    0  502  0.16352578035E+02 -0.17991202260E+02  0.21855671437E+03  0.21990481478E+03  0.00000000000E+00 0. -1.
<mgrwt>
<rscale>  2 0.24312346E+02</rscale>
<asrwt>0</asrwt>
<pdfrwt beam="1">  1       21 0.54871474E-01 0.24312346E+02</pdfrwt>
<pdfrwt beam="2">  1       21 0.26911939E-03 0.24312346E+02</pdfrwt>
<totfact> 0.67307068E+07</totfact>
</mgrwt>
</event>
<event>
 4    1  0.2736402E+004  0.2942175E+02  0.7546771E-02  0.1604570E+00
         21   -1    0    0  501  502  0.00000000000E+00  0.00000000000E+00  0.63183948597E+02  0.63183948597E+02  0.00000000000E+00 0. -1.
         21   -1    0    0  502  503 -0.00000000000E+00 -0.00000000000E+00 -0.18401044742E+02  0.18401044742E+02  0.00000000000E+00 0.  1.
          2    1    1    2  501    0 -0.27845077280E+02  0.95021658353E+01  0.43009239644E+02  0.52109828046E+02  0.00000000000E+00 0. -1.
         -2    1    1    2    0  503  0.27845077280E+02 -0.95021658353E+01  0.17736642114E+01  0.29475165292E+02  0.00000000000E+00 0.  1.
<mgrwt>
<rscale>  2 0.29421752E+02</rscale>
<asrwt>0</asrwt>
<pdfrwt beam="1">  1       21 0.97206074E-02 0.29421752E+02</pdfrwt>
<pdfrwt beam="2">  1       21 0.28309300E-02 0.29421752E+02</pdfrwt>
<totfact> 0.45287676E+07</totfact>
</mgrwt>
</event>
<event>
 4    1  0.2736402E+004  0.2087006E+02  0.7546771E-02  0.1728560E+00
         21   -1    0    0  501  502  0.00000000000E+00  0.00000000000E+00  0.12741996164E+02  0.12741996164E+02  0.00000000000E+00 0.  1.
         21   -1    0    0  502  503 -0.00000000000E+00 -0.00000000000E+00 -0.85394213989E+02  0.85394213989E+02  0.00000000000E+00 0. -1.
          2    1    1    2  501    0 -0.13958939478E+02 -0.15514744875E+02  0.16725017289E+01  0.20936966397E+02  0.00000000000E+00 0.  1.
         -2    1    1    2    0  503  0.13958939478E+02  0.15514744875E+02 -0.74324719554E+02  0.77199243757E+02  0.00000000000E+00 0. -1.
<mgrwt>
<rscale>  2 0.20870057E+02</rscale>
<asrwt>0</asrwt>
<pdfrwt beam="1">  1       21 0.19603072E-02 0.20870057E+02</pdfrwt>
<pdfrwt beam="2">  1       21 0.13137571E-01 0.20870057E+02</pdfrwt>
<totfact> 0.44472348E+07</totfact>
</mgrwt>
</event>
<event>
 4    1  0.2736402E+004  0.2348003E+02  0.7546771E-02  0.1683845E+00
         21   -1    0    0  503  502  0.00000000000E+00  0.00000000000E+00  0.14091895107E+01  0.14091895107E+01  0.00000000000E+00 0.  1.
         21   -1    0    0  501  503 -0.00000000000E+00 -0.00000000000E+00 -0.44117399603E+03  0.44117399603E+03  0.00000000000E+00 0. -1.
          2    1    1    2  501    0 -0.20570204069E+02  0.11321585819E+02 -0.29434169787E+03  0.29527672903E+03  0.00000000000E+00 0.  1.
         -2    1    1    2    0  502  0.20570204069E+02 -0.11321585819E+02 -0.14542310864E+03  0.14730645651E+03  0.00000000000E+00 0. -1.
<mgrwt>
<rscale>  2 0.23480026E+02</rscale>
<asrwt>0</asrwt>
<pdfrwt beam="1">  1       21 0.21679826E-03 0.23480026E+02</pdfrwt>
<pdfrwt beam="2">  1       21 0.67872963E-01 0.23480026E+02</pdfrwt>
<totfact> 0.59613228E+07</totfact>
</mgrwt>
</event>
<event>
 4    1  0.2736402E+004  0.2731737E+02  0.7546771E-02  0.1629787E+00
         21   -1    0    0  503  502  0.00000000000E+00  0.00000000000E+00  0.33850383518E+02  0.33850383518E+02  0.00000000000E+00 0. -1.
         21   -1    0    0  501  503 -0.00000000000E+00 -0.00000000000E+00 -0.18133165970E+03  0.18133165970E+03  0.00000000000E+00 0.  1.
          2    1    1    2  501    0 -0.17541823223E+02 -0.20940947250E+02 -0.17457966090E+03  0.17670398080E+03  0.00000000000E+00 0.  1.
         -2    1    1    2    0  502  0.17541823223E+02  0.20940947250E+02  0.27098384708E+02  0.38478062418E+02  0.00000000000E+00 0. -1.
<mgrwt>
<rscale>  2 0.27317372E+02</rscale>
<asrwt>0</asrwt>
<pdfrwt beam="1">  1       21 0.52077513E-02 0.27317372E+02</pdfrwt>
<pdfrwt beam="2">  1       21 0.27897179E-01 0.27317372E+02</pdfrwt>
<totfact> 0.27315406E+06</totfact>
</mgrwt>
</event>
<event>
 4    1  0.2736402E+004  0.2003921E+02  0.7546771E-02  0.1744549E+00
         21   -1    0    0  503  502  0.00000000000E+00  0.00000000000E+00  0.16277779122E+01  0.16277779122E+01  0.00000000000E+00 0.  1.
         21   -1    0    0  501  503 -0.00000000000E+00 -0.00000000000E+00 -0.24805079549E+03  0.24805079549E+03  0.00000000000E+00 0. -1.
          2    1    1    2  501    0  0.48487126295E+01  0.19443762935E+02 -0.11399301491E+03  0.11574099265E+03  0.00000000000E+00 0.  1.
         -2    1    1    2    0  502 -0.48487126295E+01 -0.19443762935E+02 -0.13243000266E+03  0.13393758075E+03  0.00000000000E+00 0. -1.
<mgrwt>
<rscale>  2 0.20039210E+02</rscale>
<asrwt>0</asrwt>
<pdfrwt beam="1">  1       21 0.25042743E-03 0.20039210E+02</pdfrwt>
<pdfrwt beam="2">  1       21 0.38161652E-01 0.20039210E+02</pdfrwt>
<totfact> 0.14238057E+08</totfact>
</mgrwt>
</event>
<event>
 4    1  0.2736402E+004  0.2138684E+02  0.7546771E-02  0.1719077E+00
         21   -1    0    0  501  502  0.00000000000E+00  0.00000000000E+00  0.89756082189E+01  0.89756082189E+01  0.00000000000E+00 0.  1.
         21   -1    0    0  502  503 -0.00000000000E+00 -0.00000000000E+00 -0.60263588914E+02  0.60263588914E+02  0.00000000000E+00 0. -1.
          2    1    1    2  501    0  0.59725877741E+01  0.20535947954E+02 -0.12041454767E+02  0.24543707869E+02  0.00000000000E+00 0. -1.
         -2    1    1    2    0  503 -0.59725877741E+01 -0.20535947954E+02 -0.39246525929E+02  0.44695489264E+02  0.00000000000E+00 0.  1.
<mgrwt>
<rscale>  2 0.21386841E+02</rscale>
<asrwt>0</asrwt>
<pdfrwt beam="1">  1       21 0.13808628E-02 0.21386841E+02</pdfrwt>
<pdfrwt beam="2">  1       21 0.92713212E-02 0.21386841E+02</pdfrwt>
<totfact> 0.13598237E+08</totfact>
</mgrwt>
</event>
<event>
 4    1  0.2736402E+004  0.2621205E+02  0.7546771E-02  0.1644179E+00
         21   -1    0    0  503  502  0.00000000000E+00  0.00000000000E+00  0.73460767744E+02  0.73460767744E+02  0.00000000000E+00 0.  1.
         21   -1    0    0  501  503 -0.00000000000E+00 -0.00000000000E+00 -0.60524129408E+02  0.60524129408E+02  0.00000000000E+00 0. -1.
          2    1    1    2  501    0  0.17861489197E+02 -0.19184343258E+02 -0.55130794950E+02  0.61044871811E+02  0.00000000000E+00 0. -1.
         -2    1    1    2    0  502 -0.17861489197E+02  0.19184343258E+02  0.68067433286E+02  0.72940025341E+02  0.00000000000E+00 0.  1.
<mgrwt>
<rscale>  2 0.26212055E+02</rscale>
<asrwt>0</asrwt>
<pdfrwt beam="1">  1       21 0.11301657E-01 0.26212055E+02</pdfrwt>
<pdfrwt beam="2">  1       21 0.93114045E-02 0.26212055E+02</pdfrwt>
<totfact> 0.50789564E+06</totfact>
</mgrwt>
</event>
<event>
 4    1  0.2736402E+004  0.4532488E+02  0.7546771E-02  0.1472324E+00
         21   -1    0    0  503  502  0.00000000000E+00  0.00000000000E+00  0.31949857443E+02  0.31949857443E+02  0.00000000000E+00 0. -1.
         21   -1    0    0  501  503 -0.00000000000E+00 -0.00000000000E+00 -0.68521214579E+02  0.68521214579E+02  0.00000000000E+00 0.  1.
          2    1    1    2  501    0  0.31695349472E+02 -0.32399836833E+02 -0.30755708727E+02  0.54774612954E+02  0.00000000000E+00 0.  1.
         -2    1    1    2    0  502 -0.31695349472E+02  0.32399836833E+02 -0.58156484095E+01  0.45696459068E+02  0.00000000000E+00 0. -1.
<mgrwt>
<rscale>  2 0.45324878E+02</rscale>
<asrwt>0</asrwt>
<pdfrwt beam="1">  1       21 0.49153627E-02 0.45324878E+02</pdfrwt>
<pdfrwt beam="2">  1       21 0.10541725E-01 0.45324878E+02</pdfrwt>
<totfact> 0.17684959E+07</totfact>
</mgrwt>
</event>
<event>
 4    1  0.2736402E+004  0.2301652E+02  0.7546771E-02  0.1691243E+00
         21   -1    0    0  501  502  0.00000000000E+00  0.00000000000E+00  0.16381606067E+02  0.16381606067E+02  0.00000000000E+00 0. -1.
         21   -1    0    0  502  503 -0.00000000000E+00 -0.00000000000E+00 -0.53322219689E+02  0.53322219689E+02  0.00000000000E+00 0.  1.
          2    1    1    2  501    0  0.22622987793E+02  0.42379828234E+01  0.33927826699E+01  0.23265232630E+02  0.00000000000E+00 0. -1.
         -2    1    1    2    0  503 -0.22622987793E+02 -0.42379828234E+01 -0.40333396292E+02  0.46438593126E+02  0.00000000000E+00 0.  1.
<mgrwt>
<rscale>  2 0.23016517E+02</rscale>
<asrwt>0</asrwt>
<pdfrwt beam="1">  1       21 0.25202471E-02 0.23016517E+02</pdfrwt>
<pdfrwt beam="2">  1       21 0.82034184E-02 0.23016517E+02</pdfrwt>
<totfact> 0.67629294E+07</totfact>
</mgrwt>
</event>
<event>
 4    1  0.2736402E+004  0.2207209E+02  0.7546771E-02  0.1707008E+00
         21   -1    0    0  501  502  0.00000000000E+00  0.00000000000E+00  0.22671625068E+03  0.22671625068E+03  0.00000000000E+00 0. -1.
         21   -1    0    0  502  503 -0.00000000000E+00 -0.00000000000E+00 -0.52244036091E+01  0.52244036091E+01  0.00000000000E+00 0.  1.
          2    1    1    2  501    0  0.21150385821E+02  0.63117605413E+01  0.19972559920E+03  0.20094151418E+03  0.00000000000E+00 0. -1.
         -2    1    1    2    0  503 -0.21150385821E+02 -0.63117605413E+01  0.21766247862E+02  0.30999140110E+02  0.00000000000E+00 0.  1.
<mgrwt>
<rscale>  2 0.22072090E+02</rscale>
<asrwt>0</asrwt>
<pdfrwt beam="1">  1       21 0.34879416E-01 0.22072090E+02</pdfrwt>
<pdfrwt beam="2">  1       21 0.80375458E-03 0.22072090E+02</pdfrwt>
<totfact> 0.31186488E+07</totfact>
</mgrwt>
</event>
<event>
 4    1  0.2736402E+004  0.2091099E+02  0.7546771E-02  0.1727796E+00
         21   -1    0    0  501  502  0.00000000000E+00  0.00000000000E+00  0.18279830496E+03  0.18279830496E+03  0.00000000000E+00 0.  1.
         21   -1    0    0  502  503 -0.00000000000E+00 -0.00000000000E+00 -0.29891926079E+01  0.29891926079E+01  0.00000000000E+00 0. -1.
          2    1    1    2  501    0 -0.94788115595E+01  0.18639253957E+02  0.13142239144E+03  0.13307559742E+03  0.00000000000E+00 0. -1.
         -2    1    1    2    0  503  0.94788115595E+01 -0.18639253957E+02  0.48386720912E+02  0.52711900148E+02  0.00000000000E+00 0.  1.
<mgrwt>
<rscale>  2 0.20910994E+02</rscale>
<asrwt>0</asrwt>
<pdfrwt beam="1">  1       21 0.28122808E-01 0.20910994E+02</pdfrwt>
<pdfrwt beam="2">  1       21 0.45987593E-03 0.20910994E+02</pdfrwt>
<totfact> 0.10399188E+08</totfact>
</mgrwt>
</event>
<event>
 4    1  0.2736402E+004  0.2646668E+02  0.7546771E-02  0.1640787E+00
         21   -1    0    0  503  502  0.00000000000E+00  0.00000000000E+00  0.22031342589E+02  0.22031342589E+02  0.00000000000E+00 0. -1.
         21   -1    0    0  501  503 -0.00000000000E+00 -0.00000000000E+00 -0.71420959393E+02  0.71420959393E+02  0.00000000000E+00 0.  1.
          2    1    1    2  501    0 -0.26412118217E+02  0.16985554120E+01 -0.59499470839E+02  0.65120443098E+02  0.00000000000E+00 0.  1.
         -2    1    1    2    0  502  0.26412118217E+02 -0.16985554120E+01  0.10109854035E+02  0.28331858884E+02  0.00000000000E+00 0. -1.
<mgrwt>
<rscale>  2 0.26466679E+02</rscale>
<asrwt>0</asrwt>
<pdfrwt beam="1">  1       21 0.33894373E-02 0.26466679E+02</pdfrwt>
<pdfrwt beam="2">  1       21 0.10987840E-01 0.26466679E+02</pdfrwt>
<totfact> 0.27171557E+07</totfact>
</mgrwt>
</event>
<event>
 4    1  0.2736402E+004  0.2817720E+02  0.7546771E-02  0.1619158E+00
         21   -1    0    0  503  502  0.00000000000E+00  0.00000000000E+00  0.14260875508E+02  0.14260875508E+02  0.00000000000E+00 0.  1.
         21   -1    0    0  501  503 -0.00000000000E+00 -0.00000000000E+00 -0.92398548321E+02  0.92398548321E+02  0.00000000000E+00 0. -1.
          2    1    1    2  501    0 -0.26424911008E+02 -0.97815477641E+01 -0.72690339690E+02  0.77960503351E+02  0.00000000000E+00 0. -1.
         -2    1    1    2    0  502  0.26424911008E+02  0.97815477641E+01 -0.54473331221E+01  0.28698920478E+02  0.00000000000E+00 0.  1.
<mgrwt>
<rscale>  2 0.28177200E+02</rscale>
<asrwt>0</asrwt>
<pdfrwt beam="1">  1       21 0.21939808E-02 0.28177200E+02</pdfrwt>
<pdfrwt beam="2">  1       21 0.14215161E-01 0.28177200E+02</pdfrwt>
<totfact> 0.35139396E+07</totfact>
</mgrwt>
</event>
<event>
 4    1  0.2736402E+004  0.3731634E+02  0.7546771E-02  0.1528943E+00
         21   -1    0    0  501  502  0.00000000000E+00  0.00000000000E+00  0.18086834410E+02  0.18086834410E+02  0.00000000000E+00 0.  1.
         21   -1    0    0  502  503 -0.00000000000E+00 -0.00000000000E+00 -0.83962939121E+02  0.83962939121E+02  0.00000000000E+00 0. -1.
          2    1    1    2  501    0  0.29134822122E+02 -0.23316756625E+02 -0.18233901829E+02  0.41532928810E+02  0.00000000000E+00 0. -1.
         -2    1    1    2    0  503 -0.29134822122E+02  0.23316756625E+02 -0.47642202883E+02  0.60516844722E+02  0.00000000000E+00 0.  1.
<mgrwt>
<rscale>  2 0.37316337E+02</rscale>
<asrwt>0</asrwt>
<pdfrwt beam="1">  1       21 0.27825899E-02 0.37316337E+02</pdfrwt>
<pdfrwt beam="2">  1       21 0.12917375E-01 0.37316337E+02</pdfrwt>
<totfact> 0.30158136E+07</totfact>
</mgrwt>
</event>
<event>
 4    1  0.2736402E+004  0.2606243E+02  0.7546771E-02  0.1646195E+00
         21   -1    0    0  501  502  0.00000000000E+00  0.00000000000E+00  0.12661744864E+03  0.12661744864E+03  0.00000000000E+00 0. -1.
         21   -1    0    0  502  503 -0.00000000000E+00 -0.00000000000E+00 -0.61184523659E+02  0.61184523659E+02  0.00000000000E+00 0.  1.
          2    1    1    2  501    0  0.14061171300E+02  0.21943873280E+02  0.12240646530E+03  0.12515028110E+03  0.00000000000E+00 0. -1.
         -2    1    1    2    0  503 -0.14061171300E+02 -0.21943873280E+02 -0.56973540321E+02  0.62651691195E+02  0.00000000000E+00 0.  1.
<mgrwt>
<rscale>  2 0.26062427E+02</rscale>
<asrwt>0</asrwt>
<pdfrwt beam="1">  1       21 0.19479607E-01 0.26062427E+02</pdfrwt>
<pdfrwt beam="2">  1       21 0.94130037E-02 0.26062427E+02</pdfrwt>
<totfact> 0.19636843E+06</totfact>
</mgrwt>
</event>
<event>
 4    1  0.2736402E+004  0.2266999E+02  0.7546771E-02  0.1696916E+00
         21   -1    0    0  501  502  0.00000000000E+00  0.00000000000E+00  0.30956369395E+02  0.30956369395E+02  0.00000000000E+00 0. -1.
         21   -1    0    0  502  503 -0.00000000000E+00 -0.00000000000E+00 -0.63917740720E+02  0.63917740720E+02  0.00000000000E+00 0.  1.
          2    1    1    2  501    0  0.18934588018E+02 -0.12466342091E+02  0.24333507695E+02  0.33257298526E+02  0.00000000000E+00 0. -1.
         -2    1    1    2    0  503 -0.18934588018E+02  0.12466342091E+02 -0.57294879020E+02  0.61616811589E+02  0.00000000000E+00 0.  1.
<mgrwt>
<rscale>  2 0.22669987E+02</rscale>
<asrwt>0</asrwt>
<pdfrwt beam="1">  1       21 0.47625184E-02 0.22669987E+02</pdfrwt>
<pdfrwt beam="2">  1       21 0.98334984E-02 0.22669987E+02</pdfrwt>
<totfact> 0.18462946E+07</totfact>
</mgrwt>
</event>
<event>
 4    1  0.2736402E+004  0.2582411E+02  0.7546771E-02  0.1649439E+00
         21   -1    0    0  503  502  0.00000000000E+00  0.00000000000E+00  0.13979902761E+03  0.13979902761E+03  0.00000000000E+00 0.  1.
         21   -1    0    0  501  503 -0.00000000000E+00 -0.00000000000E+00 -0.49278934844E+01  0.49278934844E+01  0.00000000000E+00 0. -1.
          2    1    1    2  501    0 -0.94027354338E+01 -0.24051470260E+02  0.54495263761E+02  0.60304381497E+02  0.00000000000E+00 0.  1.
         -2    1    1    2    0  502  0.94027354338E+01  0.24051470260E+02  0.80375870360E+02  0.84422539594E+02  0.00000000000E+00 0. -1.
<mgrwt>
<rscale>  2 0.25824110E+02</rscale>
<asrwt>0</asrwt>
<pdfrwt beam="1">  1       21 0.21507540E-01 0.25824110E+02</pdfrwt>
<pdfrwt beam="2">  1       21 0.75813757E-03 0.25824110E+02</pdfrwt>
<totfact> 0.84567624E+07</totfact>
</mgrwt>
</event>
<event>
 4    1  0.2736402E+004  0.2186569E+02  0.7546771E-02  0.1710585E+00
         21   -1    0    0  503  502  0.00000000000E+00  0.00000000000E+00  0.40888683905E+02  0.40888683905E+02  0.00000000000E+00 0. -1.
         21   -1    0    0  501  503 -0.00000000000E+00 -0.00000000000E+00 -0.20146606601E+02  0.20146606601E+02  0.00000000000E+00 0.  1.
          2    1    1    2  501    0  0.13271983770E+02  0.17377075253E+02 -0.93974296669E+01  0.23799579447E+02  0.00000000000E+00 0.  1.
         -2    1    1    2    0  502 -0.13271983770E+02 -0.17377075253E+02  0.30139506971E+02  0.37235711058E+02  0.00000000000E+00 0. -1.
<mgrwt>
<rscale>  2 0.21865688E+02</rscale>
<asrwt>0</asrwt>
<pdfrwt beam="1">  1       21 0.62905667E-02 0.21865688E+02</pdfrwt>
<pdfrwt beam="2">  1       21 0.30994779E-02 0.21865688E+02</pdfrwt>
<totfact> 0.74375308E+07</totfact>
</mgrwt>
</event>
<event>
 4    1  0.2736402E+004  0.2086648E+02  0.7546771E-02  0.1728626E+00
         21   -1    0    0  501  502  0.00000000000E+00  0.00000000000E+00  0.19626341787E+02  0.19626341787E+02  0.00000000000E+00 0. -1.
         21   -1    0    0  502  503 -0.00000000000E+00 -0.00000000000E+00 -0.31183724925E+02  0.31183724925E+02  0.00000000000E+00 0.  1.
          2    1    1    2  501    0 -0.11189266421E+02  0.17612789347E+02  0.78686074093E+01  0.22300785058E+02  0.00000000000E+00 0. -1.
         -2    1    1    2    0  503  0.11189266421E+02 -0.17612789347E+02 -0.19425990547E+02  0.28509281653E+02  0.00000000000E+00 0.  1.
<mgrwt>
<rscale>  2 0.20866481E+02</rscale>
<asrwt>0</asrwt>
<pdfrwt beam="1">  1       21 0.30194372E-02 0.20866481E+02</pdfrwt>
<pdfrwt beam="2">  1       21 0.47974961E-02 0.20866481E+02</pdfrwt>
<totfact> 0.11771401E+08</totfact>
</mgrwt>
</event>
<event>
 4    1  0.2736402E+004  0.2191750E+02  0.7546771E-02  0.1709683E+00
         21   -1    0    0  501  502  0.00000000000E+00  0.00000000000E+00  0.79809110767E+03  0.79809110767E+03  0.00000000000E+00 0. -1.
         21   -1    0    0  502  503 -0.00000000000E+00 -0.00000000000E+00 -0.90621969791E+00  0.90621969791E+00  0.00000000000E+00 0.  1.
          2    1    1    2  501    0  0.12656023400E+02  0.17894181474E+02  0.63009649138E+03  0.63047756908E+03  0.00000000000E+00 0. -1.
         -2    1    1    2    0  503 -0.12656023400E+02 -0.17894181474E+02  0.16708839659E+03  0.16851975829E+03  0.00000000000E+00 0.  1.
<mgrwt>
<rscale>  2 0.21917497E+02</rscale>
<asrwt>0</asrwt>
<pdfrwt beam="1">  1       21 0.12278269E+00 0.21917497E+02</pdfrwt>
<pdfrwt beam="2">  1       21 0.13941905E-03 0.21917497E+02</pdfrwt>
<totfact> 0.30987345E+07</totfact>
</mgrwt>
</event>
<event>
 4    1  0.2736402E+004  0.2282535E+02  0.7546771E-02  0.1694357E+00
         21   -1    0    0  503  502  0.00000000000E+00  0.00000000000E+00  0.27176217590E+03  0.27176217590E+03  0.00000000000E+00 0.  1.
         21   -1    0    0  501  503 -0.00000000000E+00 -0.00000000000E+00 -0.10644072576E+02  0.10644072576E+02  0.00000000000E+00 0. -1.
          2    1    1    2  501    0 -0.22787927772E+02 -0.13065617454E+01  0.27027724460E+01  0.22984815305E+02  0.00000000000E+00 0. -1.
         -2    1    1    2    0  502  0.22787927772E+02  0.13065617454E+01  0.25841533088E+03  0.25942143317E+03  0.00000000000E+00 0.  1.
<mgrwt>
<rscale>  2 0.22825353E+02</rscale>
<asrwt>0</asrwt>
<pdfrwt beam="1">  1       21 0.41809560E-01 0.22825353E+02</pdfrwt>
<pdfrwt beam="2">  1       21 0.16375498E-02 0.22825353E+02</pdfrwt>
<totfact> 0.76551793E+06</totfact>
</mgrwt>
</event>
<event>
 4    1  0.2736402E+004  0.2085794E+02  0.7546771E-02  0.1728786E+00
         21   -1    0    0  501  502  0.00000000000E+00  0.00000000000E+00  0.17287027570E+03  0.17287027570E+03  0.00000000000E+00 0.  1.
         21   -1    0    0  502  503 -0.00000000000E+00 -0.00000000000E+00 -0.38084061650E+01  0.38084061650E+01  0.00000000000E+00 0. -1.
          2    1    1    2  501    0  0.19296159210E+02 -0.79190971359E+01  0.13597945794E+03  0.13756986168E+03  0.00000000000E+00 0.  1.
         -2    1    1    2    0  503 -0.19296159210E+02  0.79190971359E+01  0.33082411594E+02  0.39108820189E+02  0.00000000000E+00 0. -1.
<mgrwt>
<rscale>  2 0.20857945E+02</rscale>
<asrwt>0</asrwt>
<pdfrwt beam="1">  1       21 0.26595421E-01 0.20857945E+02</pdfrwt>
<pdfrwt beam="2">  1       21 0.58590877E-03 0.20857945E+02</pdfrwt>
<totfact> 0.80426634E+07</totfact>
</mgrwt>
</event>
<event>
 4    1  0.2736402E+004  0.2820265E+02  0.7546771E-02  0.1618850E+00
         21   -1    0    0  501  502  0.00000000000E+00  0.00000000000E+00  0.18000007501E+02  0.18000007501E+02  0.00000000000E+00 0.  1.
         21   -1    0    0  502  503 -0.00000000000E+00 -0.00000000000E+00 -0.45201079245E+02  0.45201079245E+02  0.00000000000E+00 0. -1.
          2    1    1    2  501    0 -0.26994285476E+02 -0.81668724153E+01 -0.88702951911E+01  0.29564698378E+02  0.00000000000E+00 0. -1.
         -2    1    1    2    0  503  0.26994285476E+02  0.81668724153E+01 -0.18330776552E+02  0.33636388368E+02  0.00000000000E+00 0.  1.
<mgrwt>
<rscale>  2 0.28202646E+02</rscale>
<asrwt>0</asrwt>
<pdfrwt beam="1">  1       21 0.27692320E-02 0.28202646E+02</pdfrwt>
<pdfrwt beam="2">  1       21 0.69540121E-02 0.28202646E+02</pdfrwt>
<totfact> 0.80620248E+07</totfact>
</mgrwt>
</event>
<event>
 4    1  0.2736402E+004  0.2585599E+02  0.7546771E-02  0.1649003E+00
         21   -1    0    0  501  502  0.00000000000E+00  0.00000000000E+00  0.24996914880E+03  0.24996914880E+03  0.00000000000E+00 0. -1.
         21   -1    0    0  502  503 -0.00000000000E+00 -0.00000000000E+00 -0.15695807895E+02  0.15695807895E+02  0.00000000000E+00 0.  1.
          2    1    1    2  501    0 -0.40229072866E+01  0.25541116415E+02  0.23812414589E+03  0.23952378017E+03  0.00000000000E+00 0. -1.
         -2    1    1    2    0  503  0.40229072866E+01 -0.25541116415E+02 -0.38508049903E+01  0.26141176520E+02  0.00000000000E+00 0.  1.
<mgrwt>
<rscale>  2 0.25855994E+02</rscale>
<asrwt>0</asrwt>
<pdfrwt beam="1">  1       21 0.38456789E-01 0.25855994E+02</pdfrwt>
<pdfrwt beam="2">  1       21 0.24147399E-02 0.25855994E+02</pdfrwt>
<totfact> 0.50331448E+06</totfact>
</mgrwt>
</event>
<event>
 4    1  0.2736402E+004  0.2160971E+02  0.7546771E-02  0.1715091E+00
         21   -1    0    0  503  502  0.00000000000E+00  0.00000000000E+00  0.51248013765E+02  0.51248013765E+02  0.00000000000E+00 0. -1.
         21   -1    0    0  501  503 -0.00000000000E+00 -0.00000000000E+00 -0.10450960940E+02  0.10450960940E+02  0.00000000000E+00 0.  1.
          2    1    1    2  501    0 -0.21152089896E+02  0.44236563517E+01  0.93569954423E+01  0.23548524501E+02  0.00000000000E+00 0.  1.
         -2    1    1    2    0  502  0.21152089896E+02 -0.44236563517E+01  0.31440057383E+02  0.38150450204E+02  0.00000000000E+00 0. -1.
<mgrwt>
<rscale>  2 0.21609712E+02</rscale>
<asrwt>0</asrwt>
<pdfrwt beam="1">  1       21 0.78843097E-02 0.21609712E+02</pdfrwt>
<pdfrwt beam="2">  1       21 0.16078402E-02 0.21609712E+02</pdfrwt>
<totfact> 0.14112614E+08</totfact>
</mgrwt>
</event>
<event>
 4    1  0.2736402E+004  0.2382256E+02  0.7546771E-02  0.1678513E+00
         21   -1    0    0  501  502  0.00000000000E+00  0.00000000000E+00  0.70036516044E+02  0.70036516044E+02  0.00000000000E+00 0.  1.
         21   -1    0    0  502  503 -0.00000000000E+00 -0.00000000000E+00 -0.84154939732E+01  0.84154939732E+01  0.00000000000E+00 0. -1.
          2    1    1    2  501    0 -0.21644482835E+02 -0.99514222754E+01  0.38367872910E+02  0.45162020705E+02  0.00000000000E+00 0. -1.
         -2    1    1    2    0  503  0.21644482835E+02  0.99514222754E+01  0.23253149161E+02  0.33289989312E+02  0.00000000000E+00 0.  1.
<mgrwt>
<rscale>  2 0.23822562E+02</rscale>
<asrwt>0</asrwt>
<pdfrwt beam="1">  1       21 0.10774848E-01 0.23822562E+02</pdfrwt>
<pdfrwt beam="2">  1       21 0.12946914E-02 0.23822562E+02</pdfrwt>
<totfact> 0.12072008E+08</totfact>
</mgrwt>
</event>
<event>
 4    1  0.2736402E+004  0.2751042E+02  0.7546771E-02  0.1627359E+00
         21   -1    0    0  503  502  0.00000000000E+00  0.00000000000E+00  0.55207827340E+03  0.55207827340E+03  0.00000000000E+00 0.  1.
         21   -1    0    0  501  503 -0.00000000000E+00 -0.00000000000E+00 -0.55531607626E+01  0.55531607626E+01  0.00000000000E+00 0. -1.
          2    1    1    2  501    0 -0.96671443341E+01 -0.25755961505E+02  0.31296389143E+02  0.41668779752E+02  0.00000000000E+00 0. -1.
         -2    1    1    2    0  502  0.96671443341E+01  0.25755961505E+02  0.51522872349E+03  0.51596265441E+03  0.00000000000E+00 0.  1.
<mgrwt>
<rscale>  2 0.27510420E+02</rscale>
<asrwt>0</asrwt>
<pdfrwt beam="1">  1       21 0.84935076E-01 0.27510420E+02</pdfrwt>
<pdfrwt beam="2">  1       21 0.85433286E-03 0.27510420E+02</pdfrwt>
<totfact> 0.50797162E+06</totfact>
</mgrwt>
</event>
<event>
 4    1  0.2736402E+004  0.2128305E+02  0.7546771E-02  0.1720955E+00
         21   -1    0    0  501  502  0.00000000000E+00  0.00000000000E+00  0.16308642432E+02  0.16308642432E+02  0.00000000000E+00 0.  1.
         21   -1    0    0  502  503 -0.00000000000E+00 -0.00000000000E+00 -0.28216857867E+02  0.28216857867E+02  0.00000000000E+00 0. -1.
          2    1    1    2  501    0 -0.40566878882E+01 -0.20892858633E+02 -0.31673778647E+01  0.21517447363E+02  0.00000000000E+00 0.  1.
         -2    1    1    2    0  503  0.40566878882E+01  0.20892858633E+02 -0.87408375707E+01  0.23008052936E+02  0.00000000000E+00 0. -1.
<mgrwt>
<rscale>  2 0.21283051E+02</rscale>
<asrwt>0</asrwt>
<pdfrwt beam="1">  1       21 0.25090219E-02 0.21283051E+02</pdfrwt>
<pdfrwt beam="2">  1       21 0.43410550E-02 0.21283051E+02</pdfrwt>
<totfact> 0.18469969E+08</totfact>
</mgrwt>
</event>
<event>
 4    1  0.2736402E+004  0.4955408E+02  0.7546771E-02  0.1447762E+00
         21   -1    0    0  503  502  0.00000000000E+00  0.00000000000E+00  0.15613303800E+02  0.15613303800E+02  0.00000000000E+00 0. -1.
         21   -1    0    0  501  503 -0.00000000000E+00 -0.00000000000E+00 -0.16413425752E+03  0.16413425752E+03  0.00000000000E+00 0.  1.
          2    1    1    2  501    0  0.46956102359E+02  0.15834512357E+02 -0.55889963108E+02  0.74694680577E+02  0.00000000000E+00 0.  1.
         -2    1    1    2    0  502 -0.46956102359E+02 -0.15834512357E+02 -0.92630990614E+02  0.10505288074E+03  0.00000000000E+00 0. -1.
<mgrwt>
<rscale>  2 0.49554085E+02</rscale>
<asrwt>0</asrwt>
<pdfrwt beam="1">  1       21 0.24020467E-02 0.49554085E+02</pdfrwt>
<pdfrwt beam="2">  1       21 0.25251425E-01 0.49554085E+02</pdfrwt>
<totfact> 0.12098669E+07</totfact>
</mgrwt>
</event>
<event>
 4    1  0.2736402E+004  0.2075110E+02  0.7546771E-02  0.1730791E+00
         21   -1    0    0  503  502  0.00000000000E+00  0.00000000000E+00  0.20843937567E+01  0.20843937567E+01  0.00000000000E+00 0.  1.
         21   -1    0    0  501  503 -0.00000000000E+00 -0.00000000000E+00 -0.21206835689E+03  0.21206835689E+03  0.00000000000E+00 0. -1.
          2    1    1    2  501    0  0.16795438341E+01  0.20683023239E+02 -0.87777016866E+02  0.90196524366E+02  0.00000000000E+00 0. -1.
         -2    1    1    2    0  502 -0.16795438341E+01 -0.20683023239E+02 -0.12220694627E+03  0.12395622628E+03  0.00000000000E+00 0.  1.
<mgrwt>
<rscale>  2 0.20751104E+02</rscale>
<asrwt>0</asrwt>
<pdfrwt beam="1">  1       21 0.32067591E-03 0.20751104E+02</pdfrwt>
<pdfrwt beam="2">  1       21 0.32625906E-01 0.20751104E+02</pdfrwt>
<totfact> 0.13420975E+08</totfact>
</mgrwt>
</event>
<event>
 4    1  0.2736402E+004  0.2970419E+02  0.7546771E-02  0.1601382E+00
         21   -1    0    0  503  502  0.00000000000E+00  0.00000000000E+00  0.32984509878E+01  0.32984509878E+01  0.00000000000E+00 0. -1.
         21   -1    0    0  501  503 -0.00000000000E+00 -0.00000000000E+00 -0.30257091296E+03  0.30257091296E+03  0.00000000000E+00 0.  1.
          2    1    1    2  501    0 -0.28950877445E+02  0.66472452477E+01 -0.20170284030E+03  0.20387833372E+03  0.00000000000E+00 0.  1.
         -2    1    1    2    0  502  0.28950877445E+02 -0.66472452477E+01 -0.97569621669E+02  0.10199103023E+03  0.00000000000E+00 0. -1.
<mgrwt>
<rscale>  2 0.29704195E+02</rscale>
<asrwt>0</asrwt>
<pdfrwt beam="1">  1       21 0.50745380E-03 0.29704195E+02</pdfrwt>
<pdfrwt beam="2">  1       21 0.46549389E-01 0.29704195E+02</pdfrwt>
<totfact> 0.38137857E+07</totfact>
</mgrwt>
</event>
<event>
 4    1  0.2736402E+004  0.2170727E+02  0.7546771E-02  0.1713364E+00
         21   -1    0    0  501  502  0.00000000000E+00  0.00000000000E+00  0.34749481731E+02  0.34749481731E+02  0.00000000000E+00 0. -1.
         21   -1    0    0  502  503 -0.00000000000E+00 -0.00000000000E+00 -0.14170082421E+02  0.14170082421E+02  0.00000000000E+00 0.  1.
          2    1    1    2  501    0 -0.17402352981E+02  0.12975496844E+02  0.15364695655E+02  0.26594722789E+02  0.00000000000E+00 0. -1.
         -2    1    1    2    0  503  0.17402352981E+02 -0.12975496844E+02  0.52147036559E+01  0.22324841363E+02  0.00000000000E+00 0.  1.
<mgrwt>
<rscale>  2 0.21707266E+02</rscale>
<asrwt>0</asrwt>
<pdfrwt beam="1">  1       21 0.53460741E-02 0.21707266E+02</pdfrwt>
<pdfrwt beam="2">  1       21 0.21800127E-02 0.21707266E+02</pdfrwt>
<totfact> 0.16586680E+08</totfact>
</mgrwt>
</event>
<event>
 4    1  0.2736402E+004  0.2249117E+02  0.7546771E-02  0.1699893E+00
         21   -1    0    0  503  502  0.00000000000E+00  0.00000000000E+00  0.10322288143E+02  0.10322288143E+02  0.00000000000E+00 0. -1.
         21   -1    0    0  501  503 -0.00000000000E+00 -0.00000000000E+00 -0.59278683972E+02  0.59278683972E+02  0.00000000000E+00 0.  1.
          2    1    1    2  501    0  0.21952863434E+02 -0.48912842131E+01 -0.38965262967E+02  0.44990494466E+02  0.00000000000E+00 0. -1.
         -2    1    1    2    0  502 -0.21952863434E+02  0.48912842131E+01 -0.99911328629E+01  0.24610477649E+02  0.00000000000E+00 0.  1.
<mgrwt>
<rscale>  2 0.22491173E+02</rscale>
<asrwt>0</asrwt>
<pdfrwt beam="1">  1       21 0.15880444E-02 0.22491173E+02</pdfrwt>
<pdfrwt beam="2">  1       21 0.91197974E-02 0.22491173E+02</pdfrwt>
<totfact> 0.11471787E+08</totfact>
</mgrwt>
</event>
<event>
 4    1  0.2736402E+004  0.2017810E+02  0.7546771E-02  0.1741809E+00
         21   -1    0    0  503  502  0.00000000000E+00  0.00000000000E+00  0.10756891160E+03  0.10756891160E+03  0.00000000000E+00 0.  1.
         21   -1    0    0  501  503 -0.00000000000E+00 -0.00000000000E+00 -0.48354730563E+01  0.48354730563E+01  0.00000000000E+00 0. -1.
          2    1    1    2  501    0 -0.18312371763E+02 -0.84742367092E+01  0.25172095185E+02  0.32261277461E+02  0.00000000000E+00 0.  1.
         -2    1    1    2    0  502  0.18312371763E+02  0.84742367092E+01  0.77561343361E+02  0.80143107198E+02  0.00000000000E+00 0. -1.
<mgrwt>
<rscale>  2 0.20178098E+02</rscale>
<asrwt>0</asrwt>
<pdfrwt beam="1">  1       21 0.16549061E-01 0.20178098E+02</pdfrwt>
<pdfrwt beam="2">  1       21 0.74391901E-03 0.20178098E+02</pdfrwt>
<totfact> 0.12804164E+08</totfact>
</mgrwt>
</event>
<event>
 4    1  0.2736402E+004  0.2670293E+02  0.7546771E-02  0.1637682E+00
         21   -1    0    0  501  502  0.00000000000E+00  0.00000000000E+00  0.87377641205E+01  0.87377641205E+01  0.00000000000E+00 0. -1.
         21   -1    0    0  502  503 -0.00000000000E+00 -0.00000000000E+00 -0.13102952702E+03  0.13102952702E+03  0.00000000000E+00 0.  1.
          2    1    1    2  501    0 -0.25735002807E+02  0.71243295685E+01 -0.18225692697E+02  0.32329898169E+02  0.00000000000E+00 0. -1.
         -2    1    1    2    0  503  0.25735002807E+02 -0.71243295685E+01 -0.10406607021E+03  0.10743739298E+03  0.00000000000E+00 0.  1.
<mgrwt>
<rscale>  2 0.26702929E+02</rscale>
<asrwt>0</asrwt>
<pdfrwt beam="1">  1       21 0.13442714E-02 0.26702929E+02</pdfrwt>
<pdfrwt beam="2">  1       21 0.20158389E-01 0.26702929E+02</pdfrwt>
<totfact> 0.40245864E+07</totfact>
</mgrwt>
</event>
<event>
 4    1  0.2736402E+004  0.2457610E+02  0.7546771E-02  0.1667166E+00
         21   -1    0    0  503  502  0.00000000000E+00  0.00000000000E+00  0.34663896791E+02  0.34663896791E+02  0.00000000000E+00 0. -1.
         21   -1    0    0  501  503 -0.00000000000E+00 -0.00000000000E+00 -0.17436673755E+02  0.17436673755E+02  0.00000000000E+00 0.  1.
          2    1    1    2  501    0 -0.23653945362E+02  0.66689830292E+01  0.79118765517E+01  0.25818254325E+02  0.00000000000E+00 0. -1.
         -2    1    1    2    0  502  0.23653945362E+02 -0.66689830292E+01  0.93153464842E+01  0.26282316221E+02  0.00000000000E+00 0.  1.
<mgrwt>
<rscale>  2 0.24576095E+02</rscale>
<asrwt>0</asrwt>
<pdfrwt beam="1">  1       21 0.53329072E-02 0.24576095E+02</pdfrwt>
<pdfrwt beam="2">  1       21 0.26825652E-02 0.24576095E+02</pdfrwt>
<totfact> 0.12546847E+08</totfact>
</mgrwt>
</event>
<event>
 4    1  0.2736402E+004  0.2063844E+02  0.7546771E-02  0.1732922E+00
         21   -1    0    0  503  502  0.00000000000E+00  0.00000000000E+00  0.57587823936E+03  0.57587823936E+03  0.00000000000E+00 0.  1.
         21   -1    0    0  501  503 -0.00000000000E+00 -0.00000000000E+00 -0.83531239109E+00  0.83531239109E+00  0.00000000000E+00 0. -1.
          2    1    1    2  501    0  0.20308239976E+02 -0.36770525025E+01  0.18993531136E+03  0.19105331148E+03  0.00000000000E+00 0. -1.
         -2    1    1    2    0  502 -0.20308239976E+02  0.36770525025E+01  0.38510761560E+03  0.38566024027E+03  0.00000000000E+00 0.  1.
<mgrwt>
<rscale>  2 0.20638443E+02</rscale>
<asrwt>0</asrwt>
<pdfrwt beam="1">  1       21 0.88596335E-01 0.20638443E+02</pdfrwt>
<pdfrwt beam="2">  1       21 0.12851006E-03 0.20638443E+02</pdfrwt>
<totfact> 0.70328890E+07</totfact>
</mgrwt>
</event>
<event>
 4    1  0.2736402E+004  0.2294861E+02  0.7546771E-02  0.1692344E+00
         21   -1    0    0  501  502  0.00000000000E+00  0.00000000000E+00  0.86442277014E+00  0.86442277014E+00  0.00000000000E+00 0. -1.
         21   -1    0    0  502  503 -0.00000000000E+00 -0.00000000000E+00 -0.61370541513E+03  0.61370541513E+03  0.00000000000E+00 0.  1.
          2    1    1    2  501    0 -0.17032325489E+02  0.15379814100E+02 -0.28020172877E+03  0.28113990751E+03  0.00000000000E+00 0.  1.
         -2    1    1    2    0  503  0.17032325489E+02 -0.15379814100E+02 -0.33263926359E+03  0.33342993039E+03  0.00000000000E+00 0. -1.
<mgrwt>
<rscale>  2 0.22948612E+02</rscale>
<asrwt>0</asrwt>
<pdfrwt beam="1">  1       21 0.13298779E-03 0.22948612E+02</pdfrwt>
<pdfrwt beam="2">  1       21 0.94416450E-01 0.22948612E+02</pdfrwt>
<totfact> 0.59921119E+07</totfact>
</mgrwt>
</event>
<event>
 4    1  0.2736402E+004  0.2177900E+02  0.7546771E-02  0.1712102E+00
         21   -1    0    0  503  502  0.00000000000E+00  0.00000000000E+00  0.73641430659E+00  0.73641430659E+00  0.00000000000E+00 0. -1.
         21   -1    0    0  501  503 -0.00000000000E+00 -0.00000000000E+00 -0.11270757337E+04  0.11270757337E+04  0.00000000000E+00 0.  1.
          2    1    1    2  501    0  0.19098736653E+02  0.10467246462E+02 -0.93231088669E+03  0.93256523334E+03  0.00000000000E+00 0.  1.
         -2    1    1    2    0  502 -0.19098736653E+02 -0.10467246462E+02 -0.19402843271E+03  0.19524691468E+03  0.00000000000E+00 0. -1.
<mgrwt>
<rscale>  2 0.21779003E+02</rscale>
<asrwt>0</asrwt>
<pdfrwt beam="1">  1       21 0.11329459E-03 0.21779003E+02</pdfrwt>
<pdfrwt beam="2">  1       21 0.17339614E+00 0.21779003E+02</pdfrwt>
<totfact> 0.18477700E+07</totfact>
</mgrwt>
</event>
<event>
 4    1  0.2736402E+004  0.3038972E+02  0.7546771E-02  0.1593820E+00
         21   -1    0    0  501  502  0.00000000000E+00  0.00000000000E+00  0.20104221081E+03  0.20104221081E+03  0.00000000000E+00 0. -1.
         21   -1    0    0  502  503 -0.00000000000E+00 -0.00000000000E+00 -0.11423446967E+02  0.11423446967E+02  0.00000000000E+00 0.  1.
          2    1    1    2  501    0  0.16314543196E+01  0.30345899859E+02  0.17695062187E+03  0.17954124279E+03  0.00000000000E+00 0. -1.
         -2    1    1    2    0  503 -0.16314543196E+01 -0.30345899859E+02  0.12668141975E+02  0.32924414992E+02  0.00000000000E+00 0.  1.
<mgrwt>
<rscale>  2 0.30389723E+02</rscale>
<asrwt>0</asrwt>
<pdfrwt beam="1">  1       21 0.30929568E-01 0.30389723E+02</pdfrwt>
<pdfrwt beam="2">  1       21 0.17574535E-02 0.30389723E+02</pdfrwt>
<totfact> 0.12663412E+07</totfact>
</mgrwt>
</event>
<event>
 4    1  0.2736402E+004  0.2019087E+02  0.7546771E-02  0.1741559E+00
         21   -1    0    0  501  502  0.00000000000E+00  0.00000000000E+00  0.15277339281E+03  0.15277339281E+03  0.00000000000E+00 0.  1.
         21   -1    0    0  502  503 -0.00000000000E+00 -0.00000000000E+00 -0.37346088199E+01  0.37346088199E+01  0.00000000000E+00 0. -1.
          2    1    1    2  501    0  0.18055346521E+02 -0.90374581384E+01  0.11633042591E+03  0.11806963699E+03  0.00000000000E+00 0.  1.
         -2    1    1    2    0  503 -0.18055346521E+02  0.90374581384E+01  0.32708358083E+02  0.38438364638E+02  0.00000000000E+00 0. -1.
<mgrwt>
<rscale>  2 0.20190869E+02</rscale>
<asrwt>0</asrwt>
<pdfrwt beam="1">  1       21 0.23503594E-01 0.20190869E+02</pdfrwt>
<pdfrwt beam="2">  1       21 0.57455532E-03 0.20190869E+02</pdfrwt>
<totfact> 0.10214289E+08</totfact>
</mgrwt>
</event>
<event>
 4    1  0.2736402E+004  0.2618170E+02  0.7546771E-02  0.1644587E+00
         21   -1    0    0  501  502  0.00000000000E+00  0.00000000000E+00  0.12301536985E+03  0.12301536985E+03  0.00000000000E+00 0. -1.
         21   -1    0    0  502  503 -0.00000000000E+00 -0.00000000000E+00 -0.46797325512E+02  0.46797325512E+02  0.00000000000E+00 0.  1.
          2    1    1    2  501    0  0.24987402650E+02 -0.78173557894E+01  0.11780015301E+03  0.12067459299E+03  0.00000000000E+00 0. -1.
         -2    1    1    2    0  503 -0.24987402650E+02  0.78173557894E+01 -0.41582108677E+02  0.49138102373E+02  0.00000000000E+00 0.  1.
<mgrwt>
<rscale>  2 0.26181699E+02</rscale>
<asrwt>0</asrwt>
<pdfrwt beam="1">  1       21 0.18925441E-01 0.26181699E+02</pdfrwt>
<pdfrwt beam="2">  1       21 0.71995886E-02 0.26181699E+02</pdfrwt>
<totfact> 0.32098966E+06</totfact>
</mgrwt>
</event>
<event>
 4    1  0.2736402E+004  0.2778269E+02  0.7546771E-02  0.1623976E+00
         21   -1    0    0  503  502  0.00000000000E+00  0.00000000000E+00  0.25875851707E+03  0.25875851707E+03  0.00000000000E+00 0. -1.
         21   -1    0    0  501  503 -0.00000000000E+00 -0.00000000000E+00 -0.51509720520E+01  0.51509720520E+01  0.00000000000E+00 0.  1.
          2    1    1    2  501    0  0.26467696239E+02  0.84462443810E+01  0.41197273249E+02  0.49689971941E+02  0.00000000000E+00 0.  1.
         -2    1    1    2    0  502 -0.26467696239E+02 -0.84462443810E+01  0.21241027177E+03  0.21421951718E+03  0.00000000000E+00 0. -1.
<mgrwt>
<rscale>  2 0.27782692E+02</rscale>
<asrwt>0</asrwt>
<pdfrwt beam="1">  1       21 0.39808992E-01 0.27782692E+02</pdfrwt>
<pdfrwt beam="2">  1       21 0.79245744E-03 0.27782692E+02</pdfrwt>
<totfact> 0.26109031E+07</totfact>
</mgrwt>
</event>
<event>
 4    1  0.2736402E+004  0.2207192E+02  0.7546771E-02  0.1707011E+00
         21   -1    0    0  503  502  0.00000000000E+00  0.00000000000E+00  0.14508650823E+03  0.14508650823E+03  0.00000000000E+00 0.  1.
         21   -1    0    0  501  503 -0.00000000000E+00 -0.00000000000E+00 -0.55369523357E+01  0.55369523357E+01  0.00000000000E+00 0. -1.
          2    1    1    2  501    0  0.16347990834E+02 -0.14829463402E+02  0.22528000918E+02  0.31538557584E+02  0.00000000000E+00 0. -1.
         -2    1    1    2    0  502 -0.16347990834E+02  0.14829463402E+02  0.11702155498E+03  0.11908490298E+03  0.00000000000E+00 0.  1.
<mgrwt>
<rscale>  2 0.22071923E+02</rscale>
<asrwt>0</asrwt>
<pdfrwt beam="1">  1       21 0.22320998E-01 0.22071923E+02</pdfrwt>
<pdfrwt beam="2">  1       21 0.85183893E-03 0.22071923E+02</pdfrwt>
<totfact> 0.63917565E+07</totfact>
</mgrwt>
</event>
<event>
 4    1  0.2736402E+004  0.2036283E+02  0.7546771E-02  0.1738208E+00
         21   -1    0    0  503  502  0.00000000000E+00  0.00000000000E+00  0.23458315538E+02  0.23458315538E+02  0.00000000000E+00 0.  1.
         21   -1    0    0  501  503 -0.00000000000E+00 -0.00000000000E+00 -0.31328116816E+02  0.31328116816E+02  0.00000000000E+00 0. -1.
          2    1    1    2  501    0 -0.19719616241E+02 -0.50775426018E+01 -0.22018251835E+02  0.29990800547E+02  0.00000000000E+00 0. -1.
         -2    1    1    2    0  502  0.19719616241E+02  0.50775426018E+01  0.14148450557E+02  0.24795631807E+02  0.00000000000E+00 0.  1.
<mgrwt>
<rscale>  2 0.20362827E+02</rscale>
<asrwt>0</asrwt>
<pdfrwt beam="1">  1       21 0.36089716E-02 0.20362827E+02</pdfrwt>
<pdfrwt beam="2">  1       21 0.48197103E-02 0.20362827E+02</pdfrwt>
<totfact> 0.87893356E+07</totfact>
</mgrwt>
</event>
<event>
 4    1  0.2736402E+004  0.2154979E+02  0.7546771E-02  0.1716157E+00
         21   -1    0    0  501  502  0.00000000000E+00  0.00000000000E+00  0.19900922251E+01  0.19900922251E+01  0.00000000000E+00 0. -1.
         21   -1    0    0  502  503 -0.00000000000E+00 -0.00000000000E+00 -0.37453866962E+03  0.37453866962E+03  0.00000000000E+00 0.  1.
          2    1    1    2  501    0  0.19062646689E+02  0.10050315991E+02 -0.70685521214E+02  0.73897471266E+02  0.00000000000E+00 0. -1.
         -2    1    1    2    0  503 -0.19062646689E+02 -0.10050315991E+02 -0.30186305618E+03  0.30263129058E+03  0.00000000000E+00 0.  1.
<mgrwt>
<rscale>  2 0.21549788E+02</rscale>
<asrwt>0</asrwt>
<pdfrwt beam="1">  1       21 0.30616801E-03 0.21549788E+02</pdfrwt>
<pdfrwt beam="2">  1       21 0.57621339E-01 0.21549788E+02</pdfrwt>
<totfact> 0.49208064E+07</totfact>
</mgrwt>
</event>
<event>
 4    1  0.2736402E+004  0.3032449E+02  0.7546771E-02  0.1594529E+00
         21   -1    0    0  501  502  0.00000000000E+00  0.00000000000E+00  0.21275176796E+02  0.21275176796E+02  0.00000000000E+00 0.  1.
         21   -1    0    0  502  503 -0.00000000000E+00 -0.00000000000E+00 -0.43281606028E+02  0.43281606028E+02  0.00000000000E+00 0. -1.
          2    1    1    2  501    0  0.24090719383E+02  0.18417700216E+02 -0.98142453106E+01  0.31873089789E+02  0.00000000000E+00 0.  1.
         -2    1    1    2    0  503 -0.24090719383E+02 -0.18417700216E+02 -0.12192183922E+02  0.32683693035E+02  0.00000000000E+00 0. -1.
<mgrwt>
<rscale>  2 0.30324486E+02</rscale>
<asrwt>0</asrwt>
<pdfrwt beam="1">  1       21 0.32731042E-02 0.30324486E+02</pdfrwt>
<pdfrwt beam="2">  1       21 0.66587085E-02 0.30324486E+02</pdfrwt>
<totfact> 0.67719393E+07</totfact>
</mgrwt>
</event>
<event>
 4    1  0.2736402E+004  0.3460292E+02  0.7546771E-02  0.1552155E+00
         21   -1    0    0  501  502  0.00000000000E+00  0.00000000000E+00  0.57176089190E+02  0.57176089190E+02  0.00000000000E+00 0.  1.
         21   -1    0    0  502  503 -0.00000000000E+00 -0.00000000000E+00 -0.24212694347E+02  0.24212694347E+02  0.00000000000E+00 0. -1.
          2    1    1    2  501    0  0.25809775182E+02  0.23048159287E+02  0.31439081483E+02  0.46752304606E+02  0.00000000000E+00 0. -1.
         -2    1    1    2    0  503 -0.25809775182E+02 -0.23048159287E+02  0.15243133594E+01  0.34636478930E+02  0.00000000000E+00 0.  1.
<mgrwt>
<rscale>  2 0.34602921E+02</rscale>
<asrwt>0</asrwt>
<pdfrwt beam="1">  1       21 0.87963214E-02 0.34602921E+02</pdfrwt>
<pdfrwt beam="2">  1       21 0.37250299E-02 0.34602921E+02</pdfrwt>
<totfact> 0.35840229E+07</totfact>
</mgrwt>
</event>
<event>
 4    1  0.2736402E+004  0.5350363E+02  0.7546771E-02  0.1427311E+00
         21   -1    0    0  503  502  0.00000000000E+00  0.00000000000E+00  0.91121218963E+02  0.91121218963E+02  0.00000000000E+00 0.  1.
         21   -1    0    0  501  503 -0.00000000000E+00 -0.00000000000E+00 -0.16799458400E+03  0.16799458400E+03  0.00000000000E+00 0. -1.
          2    1    1    2  501    0 -0.27310754225E+02  0.46008269772E+02 -0.15525421317E+03  0.16421482543E+03  0.00000000000E+00 0. -1.
         -2    1    1    2    0  502  0.27310754225E+02 -0.46008269772E+02  0.78380848130E+02  0.94900977537E+02  0.00000000000E+00 0.  1.
<mgrwt>
<rscale>  2 0.53503628E+02</rscale>
<asrwt>0</asrwt>
<pdfrwt beam="1">  1       21 0.14018649E-01 0.53503628E+02</pdfrwt>
<pdfrwt beam="2">  1       21 0.25845320E-01 0.53503628E+02</pdfrwt>
<totfact> 0.62875192E+05</totfact>
</mgrwt>
</event>
<event>
 4    1  0.2736402E+004  0.2035853E+02  0.7546771E-02  0.1738291E+00
         21   -1    0    0  503  502  0.00000000000E+00  0.00000000000E+00  0.11407060871E+02  0.11407060871E+02  0.00000000000E+00 0.  1.
         21   -1    0    0  501  503 -0.00000000000E+00 -0.00000000000E+00 -0.33118520526E+03  0.33118520526E+03  0.00000000000E+00 0. -1.
          2    1    1    2  501    0 -0.18825197448E+02 -0.77512459621E+01 -0.32151579957E+03  0.32215971078E+03  0.00000000000E+00 0. -1.
         -2    1    1    2    0  502  0.18825197448E+02  0.77512459621E+01  0.17376551791E+01  0.20432555358E+02  0.00000000000E+00 0.  1.
<mgrwt>
<rscale>  2 0.20358533E+02</rscale>
<asrwt>0</asrwt>
<pdfrwt beam="1">  1       21 0.17549327E-02 0.20358533E+02</pdfrwt>
<pdfrwt beam="2">  1       21 0.50951563E-01 0.20358533E+02</pdfrwt>
<totfact> 0.46275097E+06</totfact>
</mgrwt>
</event>
<event>
 4    1  0.2736402E+004  0.2130338E+02  0.7546771E-02  0.1720586E+00
         21   -1    0    0  501  502  0.00000000000E+00  0.00000000000E+00  0.10013426790E+03  0.10013426790E+03  0.00000000000E+00 0. -1.
         21   -1    0    0  502  503 -0.00000000000E+00 -0.00000000000E+00 -0.66684721879E+01  0.66684721879E+01  0.00000000000E+00 0.  1.
          2    1    1    2  501    0  0.21280532307E+02  0.98648057171E+00  0.76957581539E+02  0.79851759877E+02  0.00000000000E+00 0. -1.
         -2    1    1    2    0  503 -0.21280532307E+02 -0.98648057171E+00  0.16508214177E+02  0.26950980214E+02  0.00000000000E+00 0.  1.
<mgrwt>
<rscale>  2 0.21303385E+02</rscale>
<asrwt>0</asrwt>
<pdfrwt beam="1">  1       21 0.15405271E-01 0.21303385E+02</pdfrwt>
<pdfrwt beam="2">  1       21 0.10259189E-02 0.21303385E+02</pdfrwt>
<totfact> 0.91007672E+07</totfact>
</mgrwt>
</event>
<event>
 4    1  0.2736402E+004  0.2176065E+02  0.7546771E-02  0.1712425E+00
         21   -1    0    0  501  502  0.00000000000E+00  0.00000000000E+00  0.18754449626E+02  0.18754449626E+02  0.00000000000E+00 0.  1.
         21   -1    0    0  502  503 -0.00000000000E+00 -0.00000000000E+00 -0.26783025294E+02  0.26783025294E+02  0.00000000000E+00 0. -1.
          2    1    1    2  501    0 -0.15767148551E+02  0.14997424935E+02  0.14353284664E+01  0.21807931949E+02  0.00000000000E+00 0.  1.
         -2    1    1    2    0  503  0.15767148551E+02 -0.14997424935E+02 -0.94639041347E+01  0.23729542970E+02  0.00000000000E+00 0. -1.
<mgrwt>
<rscale>  2 0.21760646E+02</rscale>
<asrwt>0</asrwt>
<pdfrwt beam="1">  1       21 0.28852999E-02 0.21760646E+02</pdfrwt>
<pdfrwt beam="2">  1       21 0.41204654E-02 0.21760646E+02</pdfrwt>
<totfact> 0.16267288E+08</totfact>
</mgrwt>
</event>
<event>
 4    1  0.2736402E+004  0.2153822E+02  0.7546771E-02  0.1716363E+00
         21   -1    0    0  501  502  0.00000000000E+00  0.00000000000E+00  0.44140683399E+01  0.44140683399E+01  0.00000000000E+00 0.  1.
         21   -1    0    0  502  503 -0.00000000000E+00 -0.00000000000E+00 -0.20272675795E+03  0.20272675795E+03  0.00000000000E+00 0. -1.
          2    1    1    2  501    0  0.20684388425E+01  0.21438671051E+02 -0.27281576182E+02  0.34758875912E+02  0.00000000000E+00 0.  1.
         -2    1    1    2    0  503 -0.20684388425E+01 -0.21438671051E+02 -0.17103111343E+03  0.17238195038E+03  0.00000000000E+00 0. -1.
<mgrwt>
<rscale>  2 0.21538223E+02</rscale>
<asrwt>0</asrwt>
<pdfrwt beam="1">  1       21 0.67908741E-03 0.21538223E+02</pdfrwt>
<pdfrwt beam="2">  1       21 0.31188733E-01 0.21538223E+02</pdfrwt>
<totfact> 0.48907533E+07</totfact>
</mgrwt>
</event>
<event>
 4    1  0.2736402E+004  0.2464280E+02  0.7546771E-02  0.1666186E+00
         21   -1    0    0  501  502  0.00000000000E+00  0.00000000000E+00  0.16703113471E+01  0.16703113471E+01  0.00000000000E+00 0.  1.
         21   -1    0    0  502  503 -0.00000000000E+00 -0.00000000000E+00 -0.50675033634E+03  0.50675033634E+03  0.00000000000E+00 0. -1.
          2    1    1    2  501    0 -0.31832164146E+01  0.24436339367E+02 -0.11741221329E+03  0.11997039375E+03  0.00000000000E+00 0.  1.
         -2    1    1    2    0  503  0.31832164146E+01 -0.24436339367E+02 -0.38766781170E+03  0.38845025393E+03  0.00000000000E+00 0. -1.
<mgrwt>
<rscale>  2 0.24642799E+02</rscale>
<asrwt>0</asrwt>
<pdfrwt beam="1">  1       21 0.25697089E-03 0.24642799E+02</pdfrwt>
<pdfrwt beam="2">  1       21 0.77961615E-01 0.24642799E+02</pdfrwt>
<totfact> 0.35346032E+07</totfact>
</mgrwt>
</event>
<event>
 4    1  0.2736402E+004  0.2039711E+02  0.7546771E-02  0.1737544E+00
         21   -1    0    0  503  502  0.00000000000E+00  0.00000000000E+00  0.75773814750E+03  0.75773814750E+03  0.00000000000E+00 0. -1.
         21   -1    0    0  501  503 -0.00000000000E+00 -0.00000000000E+00 -0.16571374390E+01  0.16571374390E+01  0.00000000000E+00 0.  1.
          2    1    1    2  501    0  0.20374795384E+02  0.95388042610E+00  0.67553027838E+02  0.70565244596E+02  0.00000000000E+00 0.  1.
         -2    1    1    2    0  502 -0.20374795384E+02 -0.95388042610E+00  0.68852798223E+03  0.68883004035E+03  0.00000000000E+00 0. -1.
<mgrwt>
<rscale>  2 0.20397112E+02</rscale>
<asrwt>0</asrwt>
<pdfrwt beam="1">  1       21 0.11657482E+00 0.20397112E+02</pdfrwt>
<pdfrwt beam="2">  1       21 0.25494483E-03 0.20397112E+02</pdfrwt>
<totfact> 0.14422000E+07</totfact>
</mgrwt>
</event>
<event>
 4    1  0.2736402E+004  0.2166471E+02  0.7546771E-02  0.1714116E+00
         21   -1    0    0  503  502  0.00000000000E+00  0.00000000000E+00  0.47245401416E+02  0.47245401416E+02  0.00000000000E+00 0. -1.
         21   -1    0    0  501  503 -0.00000000000E+00 -0.00000000000E+00 -0.32433839451E+02  0.32433839451E+02  0.00000000000E+00 0.  1.
          2    1    1    2  501    0  0.20668355733E+02 -0.64945257246E+01 -0.25776086362E+02  0.33671448160E+02  0.00000000000E+00 0.  1.
         -2    1    1    2    0  502 -0.20668355733E+02  0.64945257246E+01  0.40587648326E+02  0.46007792707E+02  0.00000000000E+00 0. -1.
<mgrwt>
<rscale>  2 0.21664713E+02</rscale>
<asrwt>0</asrwt>
<pdfrwt beam="1">  1       21 0.72685233E-02 0.21664713E+02</pdfrwt>
<pdfrwt beam="2">  1       21 0.49898215E-02 0.21664713E+02</pdfrwt>
<totfact> 0.27808715E+07</totfact>
</mgrwt>
</event>
<event>
 4    1  0.2736402E+004  0.2181046E+02  0.7546771E-02  0.1711551E+00
         21   -1    0    0  501  502  0.00000000000E+00  0.00000000000E+00  0.27158774028E+02  0.27158774028E+02  0.00000000000E+00 0. -1.
         21   -1    0    0  502  503 -0.00000000000E+00 -0.00000000000E+00 -0.24029831476E+02  0.24029831476E+02  0.00000000000E+00 0.  1.
          2    1    1    2  501    0 -0.21227826717E+00 -0.21809425285E+02  0.14890693656E+02  0.26408878259E+02  0.00000000000E+00 0. -1.
         -2    1    1    2    0  503  0.21227826717E+00  0.21809425285E+02 -0.11761751104E+02  0.24779727246E+02  0.00000000000E+00 0.  1.
<mgrwt>
<rscale>  2 0.21810458E+02</rscale>
<asrwt>0</asrwt>
<pdfrwt beam="1">  1       21 0.41782729E-02 0.21810458E+02</pdfrwt>
<pdfrwt beam="2">  1       21 0.36968971E-02 0.21810458E+02</pdfrwt>
<totfact> 0.10820165E+08</totfact>
</mgrwt>
</event>
<event>
 4    1  0.2736402E+004  0.2984724E+02  0.7546771E-02  0.1599783E+00
         21   -1    0    0  503  502  0.00000000000E+00  0.00000000000E+00  0.12897307069E+02  0.12897307069E+02  0.00000000000E+00 0. -1.
         21   -1    0    0  501  503 -0.00000000000E+00 -0.00000000000E+00 -0.75331633930E+02  0.75331633930E+02  0.00000000000E+00 0.  1.
          2    1    1    2  501    0  0.26716226979E+02  0.13307929110E+02 -0.43932462624E+02  0.53112324684E+02  0.00000000000E+00 0.  1.
         -2    1    1    2    0  502 -0.26716226979E+02 -0.13307929110E+02 -0.18501864237E+02  0.35116616315E+02  0.00000000000E+00 0. -1.
<mgrwt>
<rscale>  2 0.29847240E+02</rscale>
<asrwt>0</asrwt>
<pdfrwt beam="1">  1       21 0.19842011E-02 0.29847240E+02</pdfrwt>
<pdfrwt beam="2">  1       21 0.11589482E-01 0.29847240E+02</pdfrwt>
<totfact> 0.58838532E+07</totfact>
</mgrwt>
</event>
<event>
 4    1  0.2736402E+004  0.2151993E+02  0.7546771E-02  0.1716689E+00
         21   -1    0    0  501  502  0.00000000000E+00  0.00000000000E+00  0.22140839952E+02  0.22140839952E+02  0.00000000000E+00 0.  1.
         21   -1    0    0  502  503 -0.00000000000E+00 -0.00000000000E+00 -0.30470947158E+02  0.30470947158E+02  0.00000000000E+00 0. -1.
          2    1    1    2  501    0 -0.50962938018E+01 -0.20907776551E+02  0.10565343403E+02  0.23973606572E+02  0.00000000000E+00 0.  1.
         -2    1    1    2    0  503  0.50962938018E+01  0.20907776551E+02 -0.18895450609E+02  0.28638180539E+02  0.00000000000E+00 0. -1.
<mgrwt>
<rscale>  2 0.21519929E+02</rscale>
<asrwt>0</asrwt>
<pdfrwt beam="1">  1       21 0.34062831E-02 0.21519929E+02</pdfrwt>
<pdfrwt beam="2">  1       21 0.46878380E-02 0.21519929E+02</pdfrwt>
<totfact> 0.10214374E+08</totfact>
</mgrwt>
</event>
<event>
 4    1  0.2736402E+004  0.2059200E+02  0.7546771E-02  0.1733805E+00
         21   -1    0    0  503  502  0.00000000000E+00  0.00000000000E+00  0.14139817213E+04  0.14139817213E+04  0.00000000000E+00 0.  1.
         21   -1    0    0  501  503 -0.00000000000E+00 -0.00000000000E+00 -0.30272486254E+00  0.30272486254E+00  0.00000000000E+00 0. -1.
          2    1    1    2  501    0  0.14425795499E+02 -0.14694448957E+02  0.77534297630E+03  0.77561637509E+03  0.00000000000E+00 0. -1.
         -2    1    1    2    0  502 -0.14425795499E+02  0.14694448957E+02  0.63833602016E+03  0.63866807109E+03  0.00000000000E+00 0.  1.
<mgrwt>
<rscale>  2 0.20591999E+02</rscale>
<asrwt>0</asrwt>
<pdfrwt beam="1">  1       21 0.21753036E+00 0.20591999E+02</pdfrwt>
<pdfrwt beam="2">  1       21 0.46574188E-04 0.20591999E+02</pdfrwt>
<totfact> 0.36161215E+07</totfact>
</mgrwt>
</event>
<event>
 4    1  0.2736402E+004  0.2813566E+02  0.7546771E-02  0.1619660E+00
         21   -1    0    0  503  502  0.00000000000E+00  0.00000000000E+00  0.26832067267E+03  0.26832067267E+03  0.00000000000E+00 0.  1.
         21   -1    0    0  501  503 -0.00000000000E+00 -0.00000000000E+00 -0.29028108915E+02  0.29028108915E+02  0.00000000000E+00 0. -1.
          2    1    1    2  501    0 -0.19200651142E+02  0.20565757609E+02 -0.21270491096E+02  0.35271081381E+02  0.00000000000E+00 0. -1.
         -2    1    1    2    0  502  0.19200651142E+02 -0.20565757609E+02  0.26056305485E+03  0.26207770020E+03  0.00000000000E+00 0.  1.
<mgrwt>
<rscale>  2 0.28135660E+02</rscale>
<asrwt>0</asrwt>
<pdfrwt beam="1">  1       21 0.41280102E-01 0.28135660E+02</pdfrwt>
<pdfrwt beam="2">  1       21 0.44658631E-02 0.28135660E+02</pdfrwt>
<totfact> 0.16903552E+06</totfact>
</mgrwt>
</event>
<event>
 4    1  0.2736402E+004  0.2239103E+02  0.7546771E-02  0.1701576E+00
         21   -1    0    0  503  502  0.00000000000E+00  0.00000000000E+00  0.23474030199E+03  0.23474030199E+03  0.00000000000E+00 0. -1.
         21   -1    0    0  501  503 -0.00000000000E+00 -0.00000000000E+00 -0.21912352579E+01  0.21912352579E+01  0.00000000000E+00 0.  1.
          2    1    1    2  501    0 -0.20661941565E+01  0.22295492404E+02  0.97431765442E+02  0.99971531233E+02  0.00000000000E+00 0.  1.
         -2    1    1    2    0  502  0.20661941565E+01 -0.22295492404E+02  0.13511730129E+03  0.13696000602E+03  0.00000000000E+00 0. -1.
<mgrwt>
<rscale>  2 0.22391028E+02</rscale>
<asrwt>0</asrwt>
<pdfrwt beam="1">  1       21 0.36113873E-01 0.22391028E+02</pdfrwt>
<pdfrwt beam="2">  1       21 0.33711330E-03 0.22391028E+02</pdfrwt>
<totfact> 0.10569909E+08</totfact>
</mgrwt>
</event>
<event>
 4    1  0.2736402E+004  0.2657483E+02  0.7546771E-02  0.1639361E+00
         21   -1    0    0  501  502  0.00000000000E+00  0.00000000000E+00  0.32239223323E+02  0.32239223323E+02  0.00000000000E+00 0. -1.
         21   -1    0    0  502  503 -0.00000000000E+00 -0.00000000000E+00 -0.57807716325E+02  0.57807716325E+02  0.00000000000E+00 0.  1.
          2    1    1    2  501    0  0.24302765810E+02 -0.10751601788E+02  0.22697561010E+02  0.34948542785E+02  0.00000000000E+00 0. -1.
         -2    1    1    2    0  503 -0.24302765810E+02  0.10751601788E+02 -0.48266054012E+02  0.55098396863E+02  0.00000000000E+00 0.  1.
<mgrwt>
<rscale>  2 0.26574826E+02</rscale>
<asrwt>0</asrwt>
<pdfrwt beam="1">  1       21 0.49598805E-02 0.26574826E+02</pdfrwt>
<pdfrwt beam="2">  1       21 0.88934948E-02 0.26574826E+02</pdfrwt>
<totfact> 0.21129377E+07</totfact>
</mgrwt>
</event>
<event>
 4    1  0.2736402E+004  0.2413536E+02  0.7546771E-02  0.1673741E+00
         21   -1    0    0  501  502  0.00000000000E+00  0.00000000000E+00  0.17406621638E+01  0.17406621638E+01  0.00000000000E+00 0.  1.
         21   -1    0    0  502  503 -0.00000000000E+00 -0.00000000000E+00 -0.34083121678E+03  0.34083121678E+03  0.00000000000E+00 0. -1.
          2    1    1    2  501    0  0.11466487793E+02  0.21237593347E+02 -0.14648173376E+03  0.14845677499E+03  0.00000000000E+00 0.  1.
         -2    1    1    2    0  503 -0.11466487793E+02 -0.21237593347E+02 -0.19260882086E+03  0.19411510396E+03  0.00000000000E+00 0. -1.
<mgrwt>
<rscale>  2 0.24135362E+02</rscale>
<asrwt>0</asrwt>
<pdfrwt beam="1">  1       21 0.26779430E-03 0.24135362E+02</pdfrwt>
<pdfrwt beam="2">  1       21 0.52435548E-01 0.24135362E+02</pdfrwt>
<totfact> 0.74000742E+07</totfact>
</mgrwt>
</event>
<event>
 4    1  0.2736402E+004  0.2092097E+02  0.7546771E-02  0.1727610E+00
         21   -1    0    0  503  502  0.00000000000E+00  0.00000000000E+00  0.69084841625E+01  0.69084841625E+01  0.00000000000E+00 0. -1.
         21   -1    0    0  501  503 -0.00000000000E+00 -0.00000000000E+00 -0.63976878748E+02  0.63976878748E+02  0.00000000000E+00 0.  1.
          2    1    1    2  501    0  0.60069702004E+01  0.20040045206E+02 -0.32028523301E+02  0.38255893764E+02  0.00000000000E+00 0.  1.
         -2    1    1    2    0  502 -0.60069702004E+01 -0.20040045206E+02 -0.25039871285E+02  0.32629469147E+02  0.00000000000E+00 0. -1.
<mgrwt>
<rscale>  2 0.20920973E+02</rscale>
<asrwt>0</asrwt>
<pdfrwt beam="1">  1       21 0.10628437E-02 0.20920973E+02</pdfrwt>
<pdfrwt beam="2">  1       21 0.98425970E-02 0.20920973E+02</pdfrwt>
<totfact> 0.18156221E+08</totfact>
</mgrwt>
</event>
<event>
 4    1  0.2736402E+004  0.2748080E+02  0.7546771E-02  0.1627730E+00
         21   -1    0    0  503  502  0.00000000000E+00  0.00000000000E+00  0.12181818162E+02  0.12181818162E+02  0.00000000000E+00 0. -1.
         21   -1    0    0  501  503 -0.00000000000E+00 -0.00000000000E+00 -0.61993587235E+02  0.61993587235E+02  0.00000000000E+00 0.  1.
          2    1    1    2  501    0  0.11874333085E+02 -0.24782954225E+02 -0.24906923876E+02  0.37088400657E+02  0.00000000000E+00 0.  1.
         -2    1    1    2    0  502 -0.11874333085E+02  0.24782954225E+02 -0.24904845197E+02  0.37087004740E+02  0.00000000000E+00 0. -1.
<mgrwt>
<rscale>  2 0.27480804E+02</rscale>
<asrwt>0</asrwt>
<pdfrwt beam="1">  1       21 0.18741259E-02 0.27480804E+02</pdfrwt>
<pdfrwt beam="2">  1       21 0.95374749E-02 0.27480804E+02</pdfrwt>
<totfact> 0.87288285E+07</totfact>
</mgrwt>
</event>
<event>
 4    1  0.2736402E+004  0.2655721E+02  0.7546771E-02  0.1639593E+00
         21   -1    0    0  503  502  0.00000000000E+00  0.00000000000E+00  0.24291637351E+01  0.24291637351E+01  0.00000000000E+00 0. -1.
         21   -1    0    0  501  503 -0.00000000000E+00 -0.00000000000E+00 -0.40923176619E+03  0.40923176619E+03  0.00000000000E+00 0.  1.
          2    1    1    2  501    0  0.92819433197E+00 -0.26540985125E+02 -0.31434415772E+03  0.31546399942E+03  0.00000000000E+00 0.  1.
         -2    1    1    2    0  502 -0.92819433197E+00  0.26540985125E+02 -0.92458444730E+02  0.96196930502E+02  0.00000000000E+00 0. -1.
<mgrwt>
<rscale>  2 0.26557211E+02</rscale>
<asrwt>0</asrwt>
<pdfrwt beam="1">  1       21 0.37371782E-03 0.26557211E+02</pdfrwt>
<pdfrwt beam="2">  1       21 0.62958679E-01 0.26557211E+02</pdfrwt>
<totfact> 0.32214600E+07</totfact>
</mgrwt>
</event>
<event>
 4    1  0.2736402E+004  0.2027275E+02  0.7546771E-02  0.1739958E+00
         21   -1    0    0  501  502  0.00000000000E+00  0.00000000000E+00  0.16166470558E+03  0.16166470558E+03  0.00000000000E+00 0. -1.
         21   -1    0    0  502  503 -0.00000000000E+00 -0.00000000000E+00 -0.39546771200E+01  0.39546771200E+01  0.00000000000E+00 0.  1.
          2    1    1    2  501    0  0.15954420495E+02 -0.12507628267E+02  0.12834485898E+03  0.12993608861E+03  0.00000000000E+00 0. -1.
         -2    1    1    2    0  503 -0.15954420495E+02  0.12507628267E+02  0.29365169488E+02  0.35683294092E+02  0.00000000000E+00 0.  1.
<mgrwt>
<rscale>  2 0.20272748E+02</rscale>
<asrwt>0</asrwt>
<pdfrwt beam="1">  1       21 0.24871488E-01 0.20272748E+02</pdfrwt>
<pdfrwt beam="2">  1       21 0.60841199E-03 0.20272748E+02</pdfrwt>
<totfact> 0.85044727E+07</totfact>
</mgrwt>
</event>
<event>
 4    1  0.2736402E+004  0.2543735E+02  0.7546771E-02  0.1654798E+00
         21   -1    0    0  503  502  0.00000000000E+00  0.00000000000E+00  0.29019696014E+03  0.29019696014E+03  0.00000000000E+00 0. -1.
         21   -1    0    0  501  503 -0.00000000000E+00 -0.00000000000E+00 -0.26296570268E+01  0.26296570268E+01  0.00000000000E+00 0.  1.
          2    1    1    2  501    0 -0.14113639499E+02  0.21162793275E+02  0.86685040045E+02  0.90340216995E+02  0.00000000000E+00 0.  1.
         -2    1    1    2    0  502  0.14113639499E+02 -0.21162793275E+02  0.20088226307E+03  0.20248640018E+03  0.00000000000E+00 0. -1.
<mgrwt>
<rscale>  2 0.25437347E+02</rscale>
<asrwt>0</asrwt>
<pdfrwt beam="1">  1       21 0.44645661E-01 0.25437347E+02</pdfrwt>
<pdfrwt beam="2">  1       21 0.40456285E-03 0.25437347E+02</pdfrwt>
<totfact> 0.55948738E+07</totfact>
</mgrwt>
</event>
<event>
 4    1  0.2736402E+004  0.3382456E+02  0.7546771E-02  0.1559294E+00
         21   -1    0    0  503  502  0.00000000000E+00  0.00000000000E+00  0.24191605142E+01  0.24191605142E+01  0.00000000000E+00 0. -1.
         21   -1    0    0  501  503 -0.00000000000E+00 -0.00000000000E+00 -0.58277492847E+03  0.58277492847E+03  0.00000000000E+00 0.  1.
          2    1    1    2  501    0 -0.21785331767E+02 -0.25874697641E+02 -0.41720713218E+03  0.41857602869E+03  0.00000000000E+00 0. -1.
         -2    1    1    2    0  502  0.21785331767E+02  0.25874697641E+02 -0.16314863578E+03  0.16661806029E+03  0.00000000000E+00 0.  1.
<mgrwt>
<rscale>  2 0.33824557E+02</rscale>
<asrwt>0</asrwt>
<pdfrwt beam="1">  1       21 0.37217818E-03 0.33824557E+02</pdfrwt>
<pdfrwt beam="2">  1       21 0.89657769E-01 0.33824557E+02</pdfrwt>
<totfact> 0.16075809E+07</totfact>
</mgrwt>
</event>
<event>
 4    1  0.2736402E+004  0.3040632E+02  0.7546771E-02  0.1593640E+00
         21   -1    0    0  503  502  0.00000000000E+00  0.00000000000E+00  0.12459287612E+03  0.12459287612E+03  0.00000000000E+00 0.  1.
         21   -1    0    0  501  503 -0.00000000000E+00 -0.00000000000E+00 -0.84019537899E+01  0.84019537899E+01  0.00000000000E+00 0. -1.
          2    1    1    2  501    0  0.14039444898E+02 -0.26971062044E+02  0.35368328919E+02  0.46641857718E+02  0.00000000000E+00 0. -1.
         -2    1    1    2    0  502 -0.14039444898E+02  0.26971062044E+02  0.80822593413E+02  0.86352972194E+02  0.00000000000E+00 0.  1.
<mgrwt>
<rscale>  2 0.30406318E+02</rscale>
<asrwt>0</asrwt>
<pdfrwt beam="1">  1       21 0.19168133E-01 0.30406318E+02</pdfrwt>
<pdfrwt beam="2">  1       21 0.12926084E-02 0.30406318E+02</pdfrwt>
<totfact> 0.48024322E+07</totfact>
</mgrwt>
</event>
<event>
 4    1  0.2736402E+004  0.2003685E+02  0.7546771E-02  0.1744596E+00
         21   -1    0    0  503  502  0.00000000000E+00  0.00000000000E+00  0.86247171878E+00  0.86247171878E+00  0.00000000000E+00 0.  1.
         21   -1    0    0  501  503 -0.00000000000E+00 -0.00000000000E+00 -0.60725919561E+03  0.60725919561E+03  0.00000000000E+00 0. -1.
          2    1    1    2  501    0  0.49387252056E+01 -0.19418664650E+02 -0.45011061060E+03  0.45055636420E+03  0.00000000000E+00 0. -1.
         -2    1    1    2    0  502 -0.49387252056E+01  0.19418664650E+02 -0.15628611329E+03  0.15756530313E+03  0.00000000000E+00 0.  1.
<mgrwt>
<rscale>  2 0.20036855E+02</rscale>
<asrwt>0</asrwt>
<pdfrwt beam="1">  1       21 0.13268758E-03 0.20036855E+02</pdfrwt>
<pdfrwt beam="2">  1       21 0.93424755E-01 0.20036855E+02</pdfrwt>
<totfact> 0.59565739E+07</totfact>
</mgrwt>
</event>
<event>
 4    1  0.2736402E+004  0.4926482E+02  0.7546771E-02  0.1449348E+00
         21   -1    0    0  503  502  0.00000000000E+00  0.00000000000E+00  0.40235061973E+01  0.40235061973E+01  0.00000000000E+00 0.  1.
         21   -1    0    0  501  503 -0.00000000000E+00 -0.00000000000E+00 -0.84955592545E+03  0.84955592545E+03  0.00000000000E+00 0. -1.
          2    1    1    2  501    0 -0.34333362617E+02 -0.35330472181E+02 -0.65258737365E+03  0.65444426982E+03  0.00000000000E+00 0. -1.
         -2    1    1    2    0  502  0.34333362617E+02  0.35330472181E+02 -0.19294504560E+03  0.19913516182E+03  0.00000000000E+00 0.  1.
<mgrwt>
<rscale>  2 0.49264816E+02</rscale>
<asrwt>0</asrwt>
<pdfrwt beam="1">  1       21 0.61900063E-03 0.49264816E+02</pdfrwt>
<pdfrwt beam="2">  1       21 0.13070098E+00 0.49264816E+02</pdfrwt>
<totfact> 0.32929645E+06</totfact>
</mgrwt>
</event>
<event>
 4    1  0.2736402E+004  0.2915648E+02  0.7546771E-02  0.1607604E+00
         21   -1    0    0  503  502  0.00000000000E+00  0.00000000000E+00  0.33809462836E+03  0.33809462836E+03  0.00000000000E+00 0. -1.
         21   -1    0    0  501  503 -0.00000000000E+00 -0.00000000000E+00 -0.12336122463E+02  0.12336122463E+02  0.00000000000E+00 0.  1.
          2    1    1    2  501    0  0.28381579482E+02 -0.66773041549E+01  0.65367670743E+01  0.29880257169E+02  0.00000000000E+00 0.  1.
         -2    1    1    2    0  502 -0.28381579482E+02  0.66773041549E+01  0.31922173882E+03  0.32055049365E+03  0.00000000000E+00 0. -1.
<mgrwt>
<rscale>  2 0.29156482E+02</rscale>
<asrwt>0</asrwt>
<pdfrwt beam="1">  1       21 0.52014551E-01 0.29156482E+02</pdfrwt>
<pdfrwt beam="2">  1       21 0.18978653E-02 0.29156482E+02</pdfrwt>
<totfact> 0.41489899E+06</totfact>
</mgrwt>
</event>
<event>
 4    1  0.2736402E+004  0.2024740E+02  0.7546771E-02  0.1740452E+00
         21   -1    0    0  503  502  0.00000000000E+00  0.00000000000E+00  0.10715715411E+04  0.10715715411E+04  0.00000000000E+00 0. -1.
         21   -1    0    0  501  503 -0.00000000000E+00 -0.00000000000E+00 -0.53349545096E+00  0.53349545096E+00  0.00000000000E+00 0.  1.
          2    1    1    2  501    0 -0.63803377820E+01 -0.19215843762E+02  0.25040744950E+03  0.25122469649E+03  0.00000000000E+00 0.  1.
         -2    1    1    2    0  502  0.63803377820E+01  0.19215843762E+02  0.82063059610E+03  0.82088034001E+03  0.00000000000E+00 0. -1.
<mgrwt>
<rscale>  2 0.20247404E+02</rscale>
<asrwt>0</asrwt>
<pdfrwt beam="1">  1       21 0.16485544E+00 0.20247404E+02</pdfrwt>
<pdfrwt beam="2">  1       21 0.82077081E-04 0.20247404E+02</pdfrwt>
<totfact> 0.32567457E+07</totfact>
</mgrwt>
</event>
<event>
 4    1  0.2736402E+004  0.2532880E+02  0.7546771E-02  0.1656324E+00
         21   -1    0    0  501  502  0.00000000000E+00  0.00000000000E+00  0.58252801850E+02  0.58252801850E+02  0.00000000000E+00 0. -1.
         21   -1    0    0  502  503 -0.00000000000E+00 -0.00000000000E+00 -0.25193026441E+02  0.25193026441E+02  0.00000000000E+00 0.  1.
          2    1    1    2  501    0  0.22934887276E+02 -0.10748904117E+02  0.47831764959E+02  0.54124169584E+02  0.00000000000E+00 0. -1.
         -2    1    1    2    0  503 -0.22934887276E+02  0.10748904117E+02 -0.14771989550E+02  0.29321658707E+02  0.00000000000E+00 0.  1.
<mgrwt>
<rscale>  2 0.25328798E+02</rscale>
<asrwt>0</asrwt>
<pdfrwt beam="1">  1       21 0.89619695E-02 0.25328798E+02</pdfrwt>
<pdfrwt beam="2">  1       21 0.38758502E-02 0.25328798E+02</pdfrwt>
<totfact> 0.30566489E+07</totfact>
</mgrwt>
</event>
<event>
 4    1  0.2736402E+004  0.2371538E+02  0.7546771E-02  0.1680170E+00
         21   -1    0    0  503  502  0.00000000000E+00  0.00000000000E+00  0.23835834585E+03  0.23835834585E+03  0.00000000000E+00 0. -1.
         21   -1    0    0  501  503 -0.00000000000E+00 -0.00000000000E+00 -0.27782636941E+01  0.27782636941E+01  0.00000000000E+00 0.  1.
          2    1    1    2  501    0  0.10949704183E+02 -0.21036234142E+02  0.70983838387E+02  0.74840660611E+02  0.00000000000E+00 0. -1.
         -2    1    1    2    0  502 -0.10949704183E+02  0.21036234142E+02  0.16459624377E+03  0.16629594894E+03  0.00000000000E+00 0.  1.
<mgrwt>
<rscale>  2 0.23715378E+02</rscale>
<asrwt>0</asrwt>
<pdfrwt beam="1">  1       21 0.36670499E-01 0.23715378E+02</pdfrwt>
<pdfrwt beam="2">  1       21 0.42742537E-03 0.23715378E+02</pdfrwt>
<totfact> 0.73652883E+07</totfact>
</mgrwt>
</event>
<event>
 4    1  0.2736402E+004  0.2046985E+02  0.7546771E-02  0.1736143E+00
         21   -1    0    0  501  502  0.00000000000E+00  0.00000000000E+00  0.17306505846E+02  0.17306505846E+02  0.00000000000E+00 0.  1.
         21   -1    0    0  502  503 -0.00000000000E+00 -0.00000000000E+00 -0.26554028946E+02  0.26554028946E+02  0.00000000000E+00 0. -1.
          2    1    1    2  501    0 -0.16892484762E+02  0.11561085979E+02  0.18899779822E+01  0.20556915314E+02  0.00000000000E+00 0.  1.
         -2    1    1    2    0  503  0.16892484762E+02 -0.11561085979E+02 -0.11137501082E+02  0.23303619478E+02  0.00000000000E+00 0. -1.
<mgrwt>
<rscale>  2 0.20469850E+02</rscale>
<asrwt>0</asrwt>
<pdfrwt beam="1">  1       21 0.26625393E-02 0.20469850E+02</pdfrwt>
<pdfrwt beam="2">  1       21 0.40852352E-02 0.20469850E+02</pdfrwt>
<totfact> 0.18314367E+08</totfact>
</mgrwt>
</event>
<event>
 4    1  0.2736402E+004  0.3240534E+02  0.7546771E-02  0.1572928E+00
         21   -1    0    0  503  502  0.00000000000E+00  0.00000000000E+00  0.90312090377E+01  0.90312090377E+01  0.00000000000E+00 0. -1.
         21   -1    0    0  501  503 -0.00000000000E+00 -0.00000000000E+00 -0.19164300382E+03  0.19164300382E+03  0.00000000000E+00 0.  1.
          2    1    1    2  501    0  0.16792128441E+02  0.27715171877E+02 -0.15422866218E+03  0.15759627713E+03  0.00000000000E+00 0.  1.
         -2    1    1    2    0  502 -0.16792128441E+02 -0.27715171877E+02 -0.28383132609E+02  0.43077935727E+02  0.00000000000E+00 0. -1.
<mgrwt>
<rscale>  2 0.32405344E+02</rscale>
<asrwt>0</asrwt>
<pdfrwt beam="1">  1       21 0.13894169E-02 0.32405344E+02</pdfrwt>
<pdfrwt beam="2">  1       21 0.29483537E-01 0.32405344E+02</pdfrwt>
<totfact> 0.20069651E+07</totfact>
</mgrwt>
</event>
<event>
 4    1  0.2736402E+004  0.2503297E+02  0.7546771E-02  0.1660529E+00
         21   -1    0    0  501  502  0.00000000000E+00  0.00000000000E+00  0.49810627953E+02  0.49810627953E+02  0.00000000000E+00 0. -1.
         21   -1    0    0  502  503 -0.00000000000E+00 -0.00000000000E+00 -0.25940834807E+02  0.25940834807E+02  0.00000000000E+00 0.  1.
          2    1    1    2  501    0  0.24695697419E+02  0.40953534466E+01  0.39116527438E+02  0.46440845273E+02  0.00000000000E+00 0. -1.
         -2    1    1    2    0  503 -0.24695697419E+02 -0.40953534466E+01 -0.15246734292E+02  0.29310617487E+02  0.00000000000E+00 0.  1.
<mgrwt>
<rscale>  2 0.25032966E+02</rscale>
<asrwt>0</asrwt>
<pdfrwt beam="1">  1       21 0.76631735E-02 0.25032966E+02</pdfrwt>
<pdfrwt beam="2">  1       21 0.39908977E-02 0.25032966E+02</pdfrwt>
<totfact> 0.37636839E+07</totfact>
</mgrwt>
</event>
<event>
 4    1  0.2736402E+004  0.2103028E+02  0.7546771E-02  0.1725583E+00
         21   -1    0    0  503  502  0.00000000000E+00  0.00000000000E+00  0.46316396063E+01  0.46316396063E+01  0.00000000000E+00 0.  1.
         21   -1    0    0  501  503 -0.00000000000E+00 -0.00000000000E+00 -0.99349442439E+02  0.99349442439E+02  0.00000000000E+00 0. -1.
          2    1    1    2  501    0  0.19190697094E+02  0.86017390057E+01 -0.57606786246E+02  0.61325480761E+02  0.00000000000E+00 0. -1.
         -2    1    1    2    0  502 -0.19190697094E+02 -0.86017390057E+01 -0.37111016586E+02  0.42655601285E+02  0.00000000000E+00 0.  1.
<mgrwt>
<rscale>  2 0.21030282E+02</rscale>
<asrwt>0</asrwt>
<pdfrwt beam="1">  1       21 0.71255989E-03 0.21030282E+02</pdfrwt>
<pdfrwt beam="2">  1       21 0.15284531E-01 0.21030282E+02</pdfrwt>
<totfact> 0.15822438E+08</totfact>
</mgrwt>
</event>
<event>
 4    1  0.2736402E+004  0.2669964E+02  0.7546771E-02  0.1637725E+00
         21   -1    0    0  501  502  0.00000000000E+00  0.00000000000E+00  0.20226092715E+01  0.20226092715E+01  0.00000000000E+00 0.  1.
         21   -1    0    0  502  503 -0.00000000000E+00 -0.00000000000E+00 -0.62773486339E+03  0.62773486339E+03  0.00000000000E+00 0. -1.
          2    1    1    2  501    0  0.26366879308E+02 -0.42022235772E+01 -0.10433721463E+03  0.10769923567E+03  0.00000000000E+00 0.  1.
         -2    1    1    2    0  503 -0.26366879308E+02  0.42022235772E+01 -0.52137503949E+03  0.52205823699E+03  0.00000000000E+00 0. -1.
<mgrwt>
<rscale>  2 0.26699644E+02</rscale>
<asrwt>0</asrwt>
<pdfrwt beam="1">  1       21 0.31117081E-03 0.26699644E+02</pdfrwt>
<pdfrwt beam="2">  1       21 0.96574546E-01 0.26699644E+02</pdfrwt>
<totfact> 0.17160021E+07</totfact>
</mgrwt>
</event>
<event>
 4    1  0.2736402E+004  0.2318629E+02  0.7546771E-02  0.1688508E+00
         21   -1    0    0  501  502  0.00000000000E+00  0.00000000000E+00  0.12864298394E+02  0.12864298394E+02  0.00000000000E+00 0.  1.
         21   -1    0    0  502  503 -0.00000000000E+00 -0.00000000000E+00 -0.31147142691E+03  0.31147142691E+03  0.00000000000E+00 0. -1.
          2    1    1    2  501    0  0.14919975341E+02  0.17748197135E+02  0.15935324113E+01  0.23240987743E+02  0.00000000000E+00 0.  1.
         -2    1    1    2    0  503 -0.14919975341E+02 -0.17748197135E+02 -0.30020066093E+03  0.30109473756E+03  0.00000000000E+00 0. -1.
<mgrwt>
<rscale>  2 0.23186293E+02</rscale>
<asrwt>0</asrwt>
<pdfrwt beam="1">  1       21 0.19791228E-02 0.23186293E+02</pdfrwt>
<pdfrwt beam="2">  1       21 0.47918681E-01 0.23186293E+02</pdfrwt>
<totfact> 0.44251877E+06</totfact>
</mgrwt>
</event>
<event>
 4    1  0.2736402E+004  0.2149363E+02  0.7546771E-02  0.1717159E+00
         21   -1    0    0  503  502  0.00000000000E+00  0.00000000000E+00  0.26858199994E+03  0.26858199994E+03  0.00000000000E+00 0.  1.
         21   -1    0    0  501  503 -0.00000000000E+00 -0.00000000000E+00 -0.31741883182E+01  0.31741883182E+01  0.00000000000E+00 0. -1.
          2    1    1    2  501    0  0.43995444369E+01  0.21038540787E+02  0.40736273699E+02  0.46058877370E+02  0.00000000000E+00 0. -1.
         -2    1    1    2    0  502 -0.43995444369E+01 -0.21038540787E+02  0.22467153793E+03  0.22569731089E+03  0.00000000000E+00 0.  1.
<mgrwt>
<rscale>  2 0.21493631E+02</rscale>
<asrwt>0</asrwt>
<pdfrwt beam="1">  1       21 0.41320290E-01 0.21493631E+02</pdfrwt>
<pdfrwt beam="2">  1       21 0.48833688E-03 0.21493631E+02</pdfrwt>
<totfact> 0.47231922E+07</totfact>
</mgrwt>
</event>
<event>
 4    1  0.2736402E+004  0.2125689E+02  0.7546771E-02  0.1721430E+00
         21   -1    0    0  503  502  0.00000000000E+00  0.00000000000E+00  0.17925061549E+02  0.17925061549E+02  0.00000000000E+00 0.  1.
         21   -1    0    0  501  503 -0.00000000000E+00 -0.00000000000E+00 -0.37236902866E+02  0.37236902866E+02  0.00000000000E+00 0. -1.
          2    1    1    2  501    0 -0.14517642166E+02 -0.15527185360E+02 -0.25331929151E+02  0.33069049786E+02  0.00000000000E+00 0. -1.
         -2    1    1    2    0  502  0.14517642166E+02  0.15527185360E+02  0.60200878333E+01  0.22092914629E+02  0.00000000000E+00 0.  1.
<mgrwt>
<rscale>  2 0.21256891E+02</rscale>
<asrwt>0</asrwt>
<pdfrwt beam="1">  1       21 0.27577018E-02 0.21256891E+02</pdfrwt>
<pdfrwt beam="2">  1       21 0.57287543E-02 0.21256891E+02</pdfrwt>
<totfact> 0.10274163E+08</totfact>
</mgrwt>
</event>
<event>
 4    1  0.2736402E+004  0.2197509E+02  0.7546771E-02  0.1708683E+00
         21   -1    0    0  503  502  0.00000000000E+00  0.00000000000E+00  0.29818387318E+02  0.29818387318E+02  0.00000000000E+00 0.  1.
         21   -1    0    0  501  503 -0.00000000000E+00 -0.00000000000E+00 -0.33857880021E+02  0.33857880021E+02  0.00000000000E+00 0. -1.
          2    1    1    2  501    0 -0.18991867002E+02 -0.11055017862E+02 -0.25015639078E+02  0.33296946266E+02  0.00000000000E+00 0. -1.
         -2    1    1    2    0  502  0.18991867002E+02  0.11055017862E+02  0.20976146374E+02  0.30379321073E+02  0.00000000000E+00 0.  1.
<mgrwt>
<rscale>  2 0.21975087E+02</rscale>
<asrwt>0</asrwt>
<pdfrwt beam="1">  1       21 0.45874442E-02 0.21975087E+02</pdfrwt>
<pdfrwt beam="2">  1       21 0.52089046E-02 0.21975087E+02</pdfrwt>
<totfact> 0.54437170E+07</totfact>
</mgrwt>
</event>
<event>
 4    1  0.2736402E+004  0.2535036E+02  0.7546771E-02  0.1656020E+00
         21   -1    0    0  503  502  0.00000000000E+00  0.00000000000E+00  0.44558327554E+01  0.44558327554E+01  0.00000000000E+00 0. -1.
         21   -1    0    0  501  503 -0.00000000000E+00 -0.00000000000E+00 -0.60772368180E+03  0.60772368180E+03  0.00000000000E+00 0.  1.
          2    1    1    2  501    0  0.10763683535E+02  0.22951770144E+02 -0.56894697523E+03  0.56951145841E+03  0.00000000000E+00 0.  1.
         -2    1    1    2    0  502 -0.10763683535E+02 -0.22951770144E+02 -0.34320873818E+02  0.42668056150E+02  0.00000000000E+00 0. -1.
<mgrwt>
<rscale>  2 0.25350358E+02</rscale>
<asrwt>0</asrwt>
<pdfrwt beam="1">  1       21 0.68551300E-03 0.25350358E+02</pdfrwt>
<pdfrwt beam="2">  1       21 0.93495914E-01 0.25350358E+02</pdfrwt>
<totfact> 0.56843659E+06</totfact>
</mgrwt>
</event>
<event>
 4    1  0.2736402E+004  0.5183264E+02  0.7546771E-02  0.1435700E+00
         21   -1    0    0  501  502  0.00000000000E+00  0.00000000000E+00  0.38378572749E+02  0.38378572749E+02  0.00000000000E+00 0.  1.
         21   -1    0    0  502  503 -0.00000000000E+00 -0.00000000000E+00 -0.14392232444E+03  0.14392232444E+03  0.00000000000E+00 0. -1.
          2    1    1    2  501    0 -0.40316240711E+02  0.32576428916E+02  0.12552178112E+02  0.53330855622E+02  0.00000000000E+00 0.  1.
         -2    1    1    2    0  503  0.40316240711E+02 -0.32576428916E+02 -0.11809592980E+03  0.12897004157E+03  0.00000000000E+00 0. -1.
<mgrwt>
<rscale>  2 0.51832644E+02</rscale>
<asrwt>0</asrwt>
<pdfrwt beam="1">  1       21 0.59043959E-02 0.51832644E+02</pdfrwt>
<pdfrwt beam="2">  1       21 0.22141896E-01 0.51832644E+02</pdfrwt>
<totfact> 0.36126775E+06</totfact>
</mgrwt>
</event>
<event>
 4    1  0.2736402E+004  0.2078563E+02  0.7546771E-02  0.1730141E+00
         21   -1    0    0  503  502  0.00000000000E+00  0.00000000000E+00  0.14358594159E+03  0.14358594159E+03  0.00000000000E+00 0. -1.
         21   -1    0    0  501  503 -0.00000000000E+00 -0.00000000000E+00 -0.10405363843E+02  0.10405363843E+02  0.00000000000E+00 0.  1.
          2    1    1    2  501    0 -0.20167329940E+02  0.50320391359E+01  0.16748147834E+01  0.20853000248E+02  0.00000000000E+00 0.  1.
         -2    1    1    2    0  502  0.20167329940E+02 -0.50320391359E+01  0.13150576297E+03  0.13313830519E+03  0.00000000000E+00 0. -1.
<mgrwt>
<rscale>  2 0.20785635E+02</rscale>
<asrwt>0</asrwt>
<pdfrwt beam="1">  1       21 0.22090143E-01 0.20785635E+02</pdfrwt>
<pdfrwt beam="2">  1       21 0.16008253E-02 0.20785635E+02</pdfrwt>
<totfact> 0.24819856E+07</totfact>
</mgrwt>
</event>
<event>
 4    1  0.2736402E+004  0.2910529E+02  0.7546771E-02  0.1608194E+00
         21   -1    0    0  503  502  0.00000000000E+00  0.00000000000E+00  0.74372330860E+02  0.74372330860E+02  0.00000000000E+00 0. -1.
         21   -1    0    0  501  503 -0.00000000000E+00 -0.00000000000E+00 -0.11834580048E+02  0.11834580048E+02  0.00000000000E+00 0.  1.
          2    1    1    2  501    0  0.27478102038E+02  0.95954160921E+01  0.39621006617E+02  0.49162407050E+02  0.00000000000E+00 0.  1.
         -2    1    1    2    0  502 -0.27478102038E+02 -0.95954160921E+01  0.22916744194E+02  0.37044503858E+02  0.00000000000E+00 0. -1.
<mgrwt>
<rscale>  2 0.29105293E+02</rscale>
<asrwt>0</asrwt>
<pdfrwt beam="1">  1       21 0.11441897E-01 0.29105293E+02</pdfrwt>
<pdfrwt beam="2">  1       21 0.18207047E-02 0.29105293E+02</pdfrwt>
<totfact> 0.68270859E+07</totfact>
</mgrwt>
</event>
<event>
 4    1  0.2736402E+004  0.4158142E+02  0.7546771E-02  0.1496886E+00
         21   -1    0    0  503  502  0.00000000000E+00  0.00000000000E+00  0.19012981335E+03  0.19012981335E+03  0.00000000000E+00 0. -1.
         21   -1    0    0  501  503 -0.00000000000E+00 -0.00000000000E+00 -0.95097747262E+01  0.95097747262E+01  0.00000000000E+00 0.  1.
          2    1    1    2  501    0  0.17619612108E+02 -0.37663823746E+02  0.69434731112E+02  0.80933282613E+02  0.00000000000E+00 0.  1.
         -2    1    1    2    0  502 -0.17619612108E+02  0.37663823746E+02  0.11118530751E+03  0.11870630546E+03  0.00000000000E+00 0. -1.
<mgrwt>
<rscale>  2 0.41581418E+02</rscale>
<asrwt>0</asrwt>
<pdfrwt beam="1">  1       21 0.29250738E-01 0.41581418E+02</pdfrwt>
<pdfrwt beam="2">  1       21 0.14630424E-02 0.41581418E+02</pdfrwt>
<totfact> 0.19577648E+07</totfact>
</mgrwt>
</event>
<event>
 4    1  0.2736402E+004  0.2670614E+02  0.7546771E-02  0.1637640E+00
         21   -1    0    0  503  502  0.00000000000E+00  0.00000000000E+00  0.20138495921E+03  0.20138495921E+03  0.00000000000E+00 0.  1.
         21   -1    0    0  501  503 -0.00000000000E+00 -0.00000000000E+00 -0.44413193448E+01  0.44413193448E+01  0.00000000000E+00 0. -1.
          2    1    1    2  501    0  0.43683877367E+01  0.26346441439E+02  0.52150922637E+02  0.58591266583E+02  0.00000000000E+00 0. -1.
         -2    1    1    2    0  502 -0.43683877367E+01 -0.26346441439E+02  0.14479271722E+03  0.14723501197E+03  0.00000000000E+00 0.  1.
<mgrwt>
<rscale>  2 0.26706138E+02</rscale>
<asrwt>0</asrwt>
<pdfrwt beam="1">  1       21 0.30982294E-01 0.26706138E+02</pdfrwt>
<pdfrwt beam="2">  1       21 0.68328006E-03 0.26706138E+02</pdfrwt>
<totfact> 0.51623663E+07</totfact>
</mgrwt>
</event>
<event>
 4    1  0.2736402E+004  0.2149526E+02  0.7546771E-02  0.1717130E+00
         21   -1    0    0  503  502  0.00000000000E+00  0.00000000000E+00  0.14310360045E+02  0.14310360045E+02  0.00000000000E+00 0.  1.
         21   -1    0    0  501  503 -0.00000000000E+00 -0.00000000000E+00 -0.44596646949E+02  0.44596646949E+02  0.00000000000E+00 0. -1.
          2    1    1    2  501    0 -0.17360504652E+01 -0.21425037995E+02 -0.30617028802E+02  0.37409204442E+02  0.00000000000E+00 0. -1.
         -2    1    1    2    0  502  0.17360504652E+01  0.21425037995E+02  0.33074189821E+00  0.21497802551E+02  0.00000000000E+00 0.  1.
<mgrwt>
<rscale>  2 0.21495258E+02</rscale>
<asrwt>0</asrwt>
<pdfrwt beam="1">  1       21 0.22015939E-02 0.21495258E+02</pdfrwt>
<pdfrwt beam="2">  1       21 0.68610225E-02 0.21495258E+02</pdfrwt>
<totfact> 0.10919432E+08</totfact>
</mgrwt>
</event>
<event>
 4    1  0.2736402E+004  0.2157017E+02  0.7546771E-02  0.1715794E+00
         21   -1    0    0  501  502  0.00000000000E+00  0.00000000000E+00  0.64816402306E+03  0.64816402306E+03  0.00000000000E+00 0.  1.
         21   -1    0    0  502  503 -0.00000000000E+00 -0.00000000000E+00 -0.11439277040E+01  0.11439277040E+01  0.00000000000E+00 0. -1.
          2    1    1    2  501    0 -0.86426000500E+01 -0.19763035049E+02  0.52165163269E+03  0.52209740277E+03  0.00000000000E+00 0.  1.
         -2    1    1    2    0  503  0.86426000500E+01  0.19763035049E+02  0.12536846267E+03  0.12721054800E+03  0.00000000000E+00 0. -1.
<mgrwt>
<rscale>  2 0.21570167E+02</rscale>
<asrwt>0</asrwt>
<pdfrwt beam="1">  1       21 0.99717249E-01 0.21570167E+02</pdfrwt>
<pdfrwt beam="2">  1       21 0.17598940E-03 0.21570167E+02</pdfrwt>
<totfact> 0.35132630E+07</totfact>
</mgrwt>
</event>
<event>
 4    1  0.2736402E+004  0.2048586E+02  0.7546771E-02  0.1735835E+00
         21   -1    0    0  501  502  0.00000000000E+00  0.00000000000E+00  0.35432530085E+03  0.35432530085E+03  0.00000000000E+00 0. -1.
         21   -1    0    0  502  503 -0.00000000000E+00 -0.00000000000E+00 -0.24615450587E+01  0.24615450587E+01  0.00000000000E+00 0.  1.
          2    1    1    2  501    0 -0.14239343257E+02  0.14727914646E+02  0.30442842809E+03  0.30511692544E+03  0.00000000000E+00 0. -1.
         -2    1    1    2    0  503  0.14239343257E+02 -0.14727914646E+02  0.47435327708E+02  0.51669920466E+02  0.00000000000E+00 0.  1.
<mgrwt>
<rscale>  2 0.20485858E+02</rscale>
<asrwt>0</asrwt>
<pdfrwt beam="1">  1       21 0.54511544E-01 0.20485858E+02</pdfrwt>
<pdfrwt beam="2">  1       21 0.37869952E-03 0.20485858E+02</pdfrwt>
<totfact> 0.39786821E+07</totfact>
</mgrwt>
</event>
<event>
 4    1  0.2736402E+004  0.2095472E+02  0.7546771E-02  0.1726983E+00
         21   -1    0    0  501  502  0.00000000000E+00  0.00000000000E+00  0.83886324020E+02  0.83886324020E+02  0.00000000000E+00 0.  1.
         21   -1    0    0  502  503 -0.00000000000E+00 -0.00000000000E+00 -0.60403105639E+01  0.60403105639E+01  0.00000000000E+00 0. -1.
          2    1    1    2  501    0  0.81506262118E+01 -0.19304594771E+02  0.55346079916E+02  0.59180137284E+02  0.00000000000E+00 0.  1.
         -2    1    1    2    0  503 -0.81506262118E+01  0.19304594771E+02  0.22499933541E+02  0.30746497300E+02  0.00000000000E+00 0. -1.
<mgrwt>
<rscale>  2 0.20954715E+02</rscale>
<asrwt>0</asrwt>
<pdfrwt beam="1">  1       21 0.12905587E-01 0.20954715E+02</pdfrwt>
<pdfrwt beam="2">  1       21 0.92927861E-03 0.20954715E+02</pdfrwt>
<totfact> 0.14161646E+08</totfact>
</mgrwt>
</event>
<event>
 4    1  0.2736402E+004  0.4676565E+02  0.7546771E-02  0.1463611E+00
         21   -1    0    0  501  502  0.00000000000E+00  0.00000000000E+00  0.15424974070E+02  0.15424974070E+02  0.00000000000E+00 0. -1.
         21   -1    0    0  502  503 -0.00000000000E+00 -0.00000000000E+00 -0.18172633231E+03  0.18172633231E+03  0.00000000000E+00 0.  1.
          2    1    1    2  501    0  0.12578491162E+02  0.45042287376E+02 -0.36936699796E+02  0.59593169775E+02  0.00000000000E+00 0. -1.
         -2    1    1    2    0  503 -0.12578491162E+02 -0.45042287376E+02 -0.12936465844E+03  0.13755813661E+03  0.00000000000E+00 0.  1.
<mgrwt>
<rscale>  2 0.46765651E+02</rscale>
<asrwt>0</asrwt>
<pdfrwt beam="1">  1       21 0.23730730E-02 0.46765651E+02</pdfrwt>
<pdfrwt beam="2">  1       21 0.27957896E-01 0.46765651E+02</pdfrwt>
<totfact> 0.10147593E+07</totfact>
</mgrwt>
</event>
<event>
 4    1  0.2736402E+004  0.2112697E+02  0.7546771E-02  0.1723803E+00
         21   -1    0    0  501  502  0.00000000000E+00  0.00000000000E+00  0.36509417629E+02  0.36509417629E+02  0.00000000000E+00 0.  1.
         21   -1    0    0  502  503 -0.00000000000E+00 -0.00000000000E+00 -0.13206545155E+02  0.13206545155E+02  0.00000000000E+00 0. -1.
          2    1    1    2  501    0  0.51301121216E+01  0.20494649250E+02  0.18426270758E+02  0.28033482700E+02  0.00000000000E+00 0.  1.
         -2    1    1    2    0  503 -0.51301121216E+01 -0.20494649250E+02  0.48766017173E+01  0.21682480084E+02  0.00000000000E+00 0. -1.
<mgrwt>
<rscale>  2 0.21126966E+02</rscale>
<asrwt>0</asrwt>
<pdfrwt beam="1">  1       21 0.56168335E-02 0.21126966E+02</pdfrwt>
<pdfrwt beam="2">  1       21 0.20317762E-02 0.21126966E+02</pdfrwt>
<totfact> 0.16933932E+08</totfact>
</mgrwt>
</event>
<event>
 4    1  0.2736402E+004  0.2626715E+02  0.7546771E-02  0.1643441E+00
         21   -1    0    0  501  502  0.00000000000E+00  0.00000000000E+00  0.66928554715E+01  0.66928554715E+01  0.00000000000E+00 0.  1.
         21   -1    0    0  502  503 -0.00000000000E+00 -0.00000000000E+00 -0.10328202518E+03  0.10328202518E+03  0.00000000000E+00 0. -1.
          2    1    1    2  501    0  0.20847073074E+02  0.15980067972E+02 -0.45920418878E+02  0.52902248516E+02  0.00000000000E+00 0.  1.
         -2    1    1    2    0  503 -0.20847073074E+02 -0.15980067972E+02 -0.50668750831E+02  0.57072632135E+02  0.00000000000E+00 0. -1.
<mgrwt>
<rscale>  2 0.26267147E+02</rscale>
<asrwt>0</asrwt>
<pdfrwt beam="1">  1       21 0.10296701E-02 0.26267147E+02</pdfrwt>
<pdfrwt beam="2">  1       21 0.15889542E-01 0.26267147E+02</pdfrwt>
<totfact> 0.90827840E+07</totfact>
</mgrwt>
</event>
<event>
 4    1  0.2736402E+004  0.2135936E+02  0.7546771E-02  0.1719573E+00
         21   -1    0    0  503  502  0.00000000000E+00  0.00000000000E+00  0.65932330846E+01  0.65932330846E+01  0.00000000000E+00 0.  1.
         21   -1    0    0  501  503 -0.00000000000E+00 -0.00000000000E+00 -0.28954170713E+03  0.28954170713E+03  0.00000000000E+00 0. -1.
          2    1    1    2  501    0  0.16358582530E+01  0.21296626692E+02 -0.27064280309E+03  0.27148434431E+03  0.00000000000E+00 0. -1.
         -2    1    1    2    0  502 -0.16358582530E+01 -0.21296626692E+02 -0.12305670949E+02  0.24650595899E+02  0.00000000000E+00 0.  1.
<mgrwt>
<rscale>  2 0.21359362E+02</rscale>
<asrwt>0</asrwt>
<pdfrwt beam="1">  1       21 0.10143434E-02 0.21359362E+02</pdfrwt>
<pdfrwt beam="2">  1       21 0.44544883E-01 0.21359362E+02</pdfrwt>
<totfact> 0.13821750E+07</totfact>
</mgrwt>
</event>
<event>
 4    1  0.2736402E+004  0.2798950E+02  0.7546771E-02  0.1621438E+00
         21   -1    0    0  501  502  0.00000000000E+00  0.00000000000E+00  0.73300842763E+03  0.73300842763E+03  0.00000000000E+00 0. -1.
         21   -1    0    0  502  503 -0.00000000000E+00 -0.00000000000E+00 -0.10707777195E+01  0.10707777195E+01  0.00000000000E+00 0.  1.
          2    1    1    2  501    0 -0.13909792515E+02 -0.24288464645E+02  0.38189222311E+03  0.38291654694E+03  0.00000000000E+00 0. -1.
         -2    1    1    2    0  503  0.13909792515E+02  0.24288464645E+02  0.35004542679E+03  0.35116265841E+03  0.00000000000E+00 0.  1.
<mgrwt>
<rscale>  2 0.27989495E+02</rscale>
<asrwt>0</asrwt>
<pdfrwt beam="1">  1       21 0.11277013E+00 0.27989495E+02</pdfrwt>
<pdfrwt beam="2">  1       21 0.16473562E-03 0.27989495E+02</pdfrwt>
<totfact> 0.30932674E+07</totfact>
</mgrwt>
</event>
<event>
 4    1  0.2736402E+004  0.2043486E+02  0.7546771E-02  0.1736816E+00
         21   -1    0    0  503  502  0.00000000000E+00  0.00000000000E+00  0.15341603681E+02  0.15341603681E+02  0.00000000000E+00 0.  1.
         21   -1    0    0  501  503 -0.00000000000E+00 -0.00000000000E+00 -0.60800767859E+02  0.60800767859E+02  0.00000000000E+00 0. -1.
          2    1    1    2  501    0  0.19976291649E+02 -0.43047888194E+01 -0.51023527579E+02  0.54963476977E+02  0.00000000000E+00 0. -1.
         -2    1    1    2    0  502 -0.19976291649E+02  0.43047888194E+01  0.55643634010E+01  0.21178894563E+02  0.00000000000E+00 0.  1.
<mgrwt>
<rscale>  2 0.20434858E+02</rscale>
<asrwt>0</asrwt>
<pdfrwt beam="1">  1       21 0.23602468E-02 0.20434858E+02</pdfrwt>
<pdfrwt beam="2">  1       21 0.93539640E-02 0.20434858E+02</pdfrwt>
<totfact> 0.58443327E+07</totfact>
</mgrwt>
</event>
<event>
 4    1  0.2736402E+004  0.2366103E+02  0.7546771E-02  0.1681014E+00
         21   -1    0    0  501  502  0.00000000000E+00  0.00000000000E+00  0.21720118423E+03  0.21720118423E+03  0.00000000000E+00 0. -1.
         21   -1    0    0  502  503 -0.00000000000E+00 -0.00000000000E+00 -0.34137961875E+01  0.34137961875E+01  0.00000000000E+00 0.  1.
          2    1    1    2  501    0  0.13228914246E+02  0.19617343964E+02  0.16148913020E+03  0.16321330684E+03  0.00000000000E+00 0. -1.
         -2    1    1    2    0  503 -0.13228914246E+02 -0.19617343964E+02  0.52298257843E+02  0.57401673579E+02  0.00000000000E+00 0.  1.
<mgrwt>
<rscale>  2 0.23661030E+02</rscale>
<asrwt>0</asrwt>
<pdfrwt beam="1">  1       21 0.33415556E-01 0.23661030E+02</pdfrwt>
<pdfrwt beam="2">  1       21 0.52519958E-03 0.23661030E+02</pdfrwt>
<totfact> 0.64550751E+07</totfact>
</mgrwt>
</event>
<event>
 4    1  0.2736402E+004  0.2510408E+02  0.7546771E-02  0.1659511E+00
         21   -1    0    0  503  502  0.00000000000E+00  0.00000000000E+00  0.25991548392E+00  0.25991548392E+00  0.00000000000E+00 0.  1.
         21   -1    0    0  501  503 -0.00000000000E+00 -0.00000000000E+00 -0.25131968659E+04  0.25131968659E+04  0.00000000000E+00 0. -1.
          2    1    1    2  501    0  0.14899829546E+02  0.20204205058E+02 -0.14923062506E+04  0.14925173903E+04  0.00000000000E+00 0. -1.
         -2    1    1    2    0  502 -0.14899829546E+02 -0.20204205058E+02 -0.10206306998E+04  0.10209393911E+04  0.00000000000E+00 0.  1.
<mgrwt>
<rscale>  2 0.25104080E+02</rscale>
<asrwt>0</asrwt>
<pdfrwt beam="1">  1       21 0.39988193E-04 0.25104080E+02</pdfrwt>
<pdfrwt beam="2">  1       21 0.38663411E+00 0.25104080E+02</pdfrwt>
<totfact> 0.65138364E+06</totfact>
</mgrwt>
</event>
<event>
 4    1  0.2736402E+004  0.2275757E+02  0.7546771E-02  0.1695470E+00
         21   -1    0    0  503  502  0.00000000000E+00  0.00000000000E+00  0.22370183606E+03  0.22370183606E+03  0.00000000000E+00 0. -1.
         21   -1    0    0  501  503 -0.00000000000E+00 -0.00000000000E+00 -0.13883651889E+02  0.13883651889E+02  0.00000000000E+00 0.  1.
          2    1    1    2  501    0  0.25679670685E+01 -0.22612225548E+02 -0.35276074140E+01  0.23029355466E+02  0.00000000000E+00 0.  1.
         -2    1    1    2    0  502 -0.25679670685E+01  0.22612225548E+02  0.21334579158E+03  0.21455613248E+03  0.00000000000E+00 0. -1.
<mgrwt>
<rscale>  2 0.22757575E+02</rscale>
<asrwt>0</asrwt>
<pdfrwt beam="1">  1       21 0.34415665E-01 0.22757575E+02</pdfrwt>
<pdfrwt beam="2">  1       21 0.21359466E-02 0.22757575E+02</pdfrwt>
<totfact> 0.73320829E+06</totfact>
</mgrwt>
</event>
<event>
 4    1  0.2736402E+004  0.2130433E+02  0.7546771E-02  0.1720569E+00
         21   -1    0    0  501  502  0.00000000000E+00  0.00000000000E+00  0.38736814605E+02  0.38736814605E+02  0.00000000000E+00 0.  1.
         21   -1    0    0  502  503 -0.00000000000E+00 -0.00000000000E+00 -0.22395868667E+02  0.22395868667E+02  0.00000000000E+00 0. -1.
          2    1    1    2  501    0 -0.67695174989E+00  0.21293570249E+02  0.29277384034E+02  0.36208281008E+02  0.00000000000E+00 0.  1.
         -2    1    1    2    0  503  0.67695174989E+00 -0.21293570249E+02 -0.12936438096E+02  0.24924402264E+02  0.00000000000E+00 0. -1.
<mgrwt>
<rscale>  2 0.21304328E+02</rscale>
<asrwt>0</asrwt>
<pdfrwt beam="1">  1       21 0.59595099E-02 0.21304328E+02</pdfrwt>
<pdfrwt beam="2">  1       21 0.34455183E-02 0.21304328E+02</pdfrwt>
<totfact> 0.68279925E+07</totfact>
</mgrwt>
</event>
<event>
 4    1  0.2736402E+004  0.2207351E+02  0.7546771E-02  0.1706984E+00
         21   -1    0    0  503  502  0.00000000000E+00  0.00000000000E+00  0.18422471019E+02  0.18422471019E+02  0.00000000000E+00 0.  1.
         21   -1    0    0  501  503 -0.00000000000E+00 -0.00000000000E+00 -0.54415159227E+02  0.54415159227E+02  0.00000000000E+00 0. -1.
          2    1    1    2  501    0 -0.12365480141E+02  0.18284826672E+02 -0.44105269392E+02  0.49320530955E+02  0.00000000000E+00 0. -1.
         -2    1    1    2    0  502  0.12365480141E+02 -0.18284826672E+02  0.81125811842E+01  0.23517099290E+02  0.00000000000E+00 0.  1.
<mgrwt>
<rscale>  2 0.22073513E+02</rscale>
<asrwt>0</asrwt>
<pdfrwt beam="1">  1       21 0.28342263E-02 0.22073513E+02</pdfrwt>
<pdfrwt beam="2">  1       21 0.83715630E-02 0.22073513E+02</pdfrwt>
<totfact> 0.53935295E+07</totfact>
</mgrwt>
</event>
<event>
 4    1  0.2736402E+004  0.2494800E+02  0.7546771E-02  0.1661750E+00
         21   -1    0    0  503  502  0.00000000000E+00  0.00000000000E+00  0.23886558631E+02  0.23886558631E+02  0.00000000000E+00 0.  1.
         21   -1    0    0  501  503 -0.00000000000E+00 -0.00000000000E+00 -0.28033947629E+02  0.28033947629E+02  0.00000000000E+00 0. -1.
          2    1    1    2  501    0 -0.39539809259E+01 -0.24632674372E+02 -0.89682744167E+01  0.26510989380E+02  0.00000000000E+00 0. -1.
         -2    1    1    2    0  502  0.39539809259E+01  0.24632674372E+02  0.48208854187E+01  0.25409516881E+02  0.00000000000E+00 0.  1.
<mgrwt>
<rscale>  2 0.24947998E+02</rscale>
<asrwt>0</asrwt>
<pdfrwt beam="1">  1       21 0.36748552E-02 0.24947998E+02</pdfrwt>
<pdfrwt beam="2">  1       21 0.43129150E-02 0.24947998E+02</pdfrwt>
<totfact> 0.10798578E+08</totfact>
</mgrwt>
</event>
<event>
 4    1  0.2736402E+004  0.2017489E+02  0.7546771E-02  0.1741872E+00
         21   -1    0    0  503  502  0.00000000000E+00  0.00000000000E+00  0.52327541431E+02  0.52327541431E+02  0.00000000000E+00 0.  1.
         21   -1    0    0  501  503 -0.00000000000E+00 -0.00000000000E+00 -0.10201229317E+02  0.10201229317E+02  0.00000000000E+00 0. -1.
          2    1    1    2  501    0 -0.82420283575E+01 -0.18414536483E+02  0.58267602452E+01  0.20999459999E+02  0.00000000000E+00 0. -1.
         -2    1    1    2    0  502  0.82420283575E+01  0.18414536483E+02  0.36299551869E+02  0.41529310748E+02  0.00000000000E+00 0.  1.
<mgrwt>
<rscale>  2 0.20174890E+02</rscale>
<asrwt>0</asrwt>
<pdfrwt beam="1">  1       21 0.80503908E-02 0.20174890E+02</pdfrwt>
<pdfrwt beam="2">  1       21 0.15694199E-02 0.20174890E+02</pdfrwt>
<totfact> 0.13858236E+08</totfact>
</mgrwt>
</event>
<event>
 4    1  0.2736402E+004  0.2891740E+02  0.7546771E-02  0.1610373E+00
         21   -1    0    0  503  502  0.00000000000E+00  0.00000000000E+00  0.15835817944E+03  0.15835817944E+03  0.00000000000E+00 0. -1.
         21   -1    0    0  501  503 -0.00000000000E+00 -0.00000000000E+00 -0.20860519097E+02  0.20860519097E+02  0.00000000000E+00 0.  1.
          2    1    1    2  501    0 -0.10003564362E+02 -0.27131984596E+02 -0.86927622558E+01  0.30195695118E+02  0.00000000000E+00 0.  1.
         -2    1    1    2    0  502  0.10003564362E+02  0.27131984596E+02  0.14619042260E+03  0.14902300342E+03  0.00000000000E+00 0. -1.
<mgrwt>
<rscale>  2 0.28917398E+02</rscale>
<asrwt>0</asrwt>
<pdfrwt beam="1">  1       21 0.24362796E-01 0.28917398E+02</pdfrwt>
<pdfrwt beam="2">  1       21 0.32093107E-02 0.28917398E+02</pdfrwt>
<totfact> 0.75914709E+06</totfact>
</mgrwt>
</event>
<event>
 4    1  0.2736402E+004  0.2031824E+02  0.7546771E-02  0.1739072E+00
         21   -1    0    0  503  502  0.00000000000E+00  0.00000000000E+00  0.26908155454E+01  0.26908155454E+01  0.00000000000E+00 0. -1.
         21   -1    0    0  501  503 -0.00000000000E+00 -0.00000000000E+00 -0.50820846373E+03  0.50820846373E+03  0.00000000000E+00 0.  1.
          2    1    1    2  501    0 -0.91487866976E+01 -0.18141958537E+02 -0.46619484683E+03  0.46663740331E+03  0.00000000000E+00 0.  1.
         -2    1    1    2    0  502  0.91487866976E+01  0.18141958537E+02 -0.39322801361E+02  0.44261875971E+02  0.00000000000E+00 0. -1.
<mgrwt>
<rscale>  2 0.20318242E+02</rscale>
<asrwt>0</asrwt>
<pdfrwt beam="1">  1       21 0.41397187E-03 0.20318242E+02</pdfrwt>
<pdfrwt beam="2">  1       21 0.78185871E-01 0.20318242E+02</pdfrwt>
<totfact> 0.16849373E+07</totfact>
</mgrwt>
</event>
<event>
 4    1  0.2736402E+004  0.2442573E+02  0.7546771E-02  0.1669390E+00
         21   -1    0    0  503  502  0.00000000000E+00  0.00000000000E+00  0.79487125066E+01  0.79487125066E+01  0.00000000000E+00 0.  1.
         21   -1    0    0  501  503 -0.00000000000E+00 -0.00000000000E+00 -0.42993510958E+03  0.42993510958E+03  0.00000000000E+00 0. -1.
          2    1    1    2  501    0 -0.21346053507E+02 -0.11872748320E+02 -0.40990763878E+03  0.41063473853E+03  0.00000000000E+00 0. -1.
         -2    1    1    2    0  502  0.21346053507E+02  0.11872748320E+02 -0.12078758292E+02  0.27249083560E+02  0.00000000000E+00 0.  1.
<mgrwt>
<rscale>  2 0.24425727E+02</rscale>
<asrwt>0</asrwt>
<pdfrwt beam="1">  1       21 0.12228790E-02 0.24425727E+02</pdfrwt>
<pdfrwt beam="2">  1       21 0.66143856E-01 0.24425727E+02</pdfrwt>
<totfact> 0.49019947E+06</totfact>
</mgrwt>
</event>
<event>
 4    1  0.2736402E+004  0.2513287E+02  0.7546771E-02  0.1659101E+00
         21   -1    0    0  503  502  0.00000000000E+00  0.00000000000E+00  0.18829708182E+03  0.18829708182E+03  0.00000000000E+00 0.  1.
         21   -1    0    0  501  503 -0.00000000000E+00 -0.00000000000E+00 -0.44846067514E+01  0.44846067514E+01  0.00000000000E+00 0. -1.
          2    1    1    2  501    0 -0.97896891756E+00  0.25113798864E+02  0.43520848226E+02  0.50256596621E+02  0.00000000000E+00 0. -1.
         -2    1    1    2    0  502  0.97896891756E+00 -0.25113798864E+02  0.14029162684E+03  0.14252509195E+03  0.00000000000E+00 0.  1.
<mgrwt>
<rscale>  2 0.25132872E+02</rscale>
<asrwt>0</asrwt>
<pdfrwt beam="1">  1       21 0.28968776E-01 0.25132872E+02</pdfrwt>
<pdfrwt beam="2">  1       21 0.68993964E-03 0.25132872E+02</pdfrwt>
<totfact> 0.56740695E+07</totfact>
</mgrwt>
</event>
<event>
 4    1  0.2736402E+004  0.3457242E+02  0.7546771E-02  0.1552431E+00
         21   -1    0    0  501  502  0.00000000000E+00  0.00000000000E+00  0.20397401652E+02  0.20397401652E+02  0.00000000000E+00 0.  1.
         21   -1    0    0  502  503 -0.00000000000E+00 -0.00000000000E+00 -0.84523782912E+02  0.84523782912E+02  0.00000000000E+00 0. -1.
          2    1    1    2  501    0 -0.11416690342E+02 -0.32632979528E+02 -0.30090844516E+01  0.34703123209E+02  0.00000000000E+00 0.  1.
         -2    1    1    2    0  503  0.11416690342E+02  0.32632979528E+02 -0.61117296808E+02  0.70218061354E+02  0.00000000000E+00 0. -1.
<mgrwt>
<rscale>  2 0.34572419E+02</rscale>
<asrwt>0</asrwt>
<pdfrwt beam="1">  1       21 0.31380618E-02 0.34572419E+02</pdfrwt>
<pdfrwt beam="2">  1       21 0.13003659E-01 0.34572419E+02</pdfrwt>
<totfact> 0.24320246E+07</totfact>
</mgrwt>
</event>
<event>
 4    1  0.2736402E+004  0.2795397E+02  0.7546771E-02  0.1621872E+00
         21   -1    0    0  503  502  0.00000000000E+00  0.00000000000E+00  0.81310139764E+01  0.81310139764E+01  0.00000000000E+00 0. -1.
         21   -1    0    0  501  503 -0.00000000000E+00 -0.00000000000E+00 -0.12868694589E+03  0.12868694589E+03  0.00000000000E+00 0.  1.
          2    1    1    2  501    0 -0.10699652283E+02  0.25825220169E+02 -0.94700254378E+02  0.98739874089E+02  0.00000000000E+00 0.  1.
         -2    1    1    2    0  502  0.10699652283E+02 -0.25825220169E+02 -0.25855677539E+02  0.38078085781E+02  0.00000000000E+00 0. -1.
<mgrwt>
<rscale>  2 0.27953972E+02</rscale>
<asrwt>0</asrwt>
<pdfrwt beam="1">  1       21 0.12509252E-02 0.27953972E+02</pdfrwt>
<pdfrwt beam="2">  1       21 0.19797992E-01 0.27953972E+02</pdfrwt>
<totfact> 0.46828496E+07</totfact>
</mgrwt>
</event>
<event>
 4    1  0.2736402E+004  0.2045831E+02  0.7546771E-02  0.1736365E+00
         21   -1    0    0  501  502  0.00000000000E+00  0.00000000000E+00  0.37069493074E+03  0.37069493074E+03  0.00000000000E+00 0. -1.
         21   -1    0    0  502  503 -0.00000000000E+00 -0.00000000000E+00 -0.11460164133E+01  0.11460164133E+01  0.00000000000E+00 0.  1.
          2    1    1    2  501    0 -0.47488761133E+01 -0.19899516191E+02  0.16216968961E+03  0.16345504213E+03  0.00000000000E+00 0.  1.
         -2    1    1    2    0  503  0.47488761133E+01  0.19899516191E+02  0.20737922472E+03  0.20838590502E+03  0.00000000000E+00 0. -1.
<mgrwt>
<rscale>  2 0.20458313E+02</rscale>
<asrwt>0</asrwt>
<pdfrwt beam="1">  1       21 0.57029894E-01 0.20458313E+02</pdfrwt>
<pdfrwt beam="2">  1       21 0.17631051E-03 0.20458313E+02</pdfrwt>
<totfact> 0.10997514E+08</totfact>
</mgrwt>
</event>
<event>
 4    1  0.2736402E+004  0.2059258E+02  0.7546771E-02  0.1733794E+00
         21   -1    0    0  501  502  0.00000000000E+00  0.00000000000E+00  0.34819197997E+01  0.34819197997E+01  0.00000000000E+00 0. -1.
         21   -1    0    0  502  503 -0.00000000000E+00 -0.00000000000E+00 -0.12566060666E+03  0.12566060666E+03  0.00000000000E+00 0.  1.
          2    1    1    2  501    0  0.11596637471E+02 -0.17016823495E+02 -0.49753082336E+02  0.53846294993E+02  0.00000000000E+00 0. -1.
         -2    1    1    2    0  503 -0.11596637471E+02  0.17016823495E+02 -0.72425604528E+02  0.75296231471E+02  0.00000000000E+00 0.  1.
<mgrwt>
<rscale>  2 0.20592578E+02</rscale>
<asrwt>0</asrwt>
<pdfrwt beam="1">  1       21 0.53567986E-03 0.20592578E+02</pdfrwt>
<pdfrwt beam="2">  1       21 0.19332405E-01 0.20592578E+02</pdfrwt>
<totfact> 0.16021108E+08</totfact>
</mgrwt>
</event>
<event>
 4    1  0.2736402E+004  0.2107548E+02  0.7546771E-02  0.1724750E+00
         21   -1    0    0  503  502  0.00000000000E+00  0.00000000000E+00  0.72558824446E+03  0.72558824446E+03  0.00000000000E+00 0. -1.
         21   -1    0    0  501  503 -0.00000000000E+00 -0.00000000000E+00 -0.19322956791E+01  0.19322956791E+01  0.00000000000E+00 0.  1.
          2    1    1    2  501    0 -0.21075067604E+02 -0.13192616614E+00  0.61159560402E+02  0.64689007626E+02  0.00000000000E+00 0.  1.
         -2    1    1    2    0  502  0.21075067604E+02  0.13192616614E+00  0.66249638838E+03  0.66283153251E+03  0.00000000000E+00 0. -1.
<mgrwt>
<rscale>  2 0.21075481E+02</rscale>
<asrwt>0</asrwt>
<pdfrwt beam="1">  1       21 0.11162874E+00 0.21075481E+02</pdfrwt>
<pdfrwt beam="2">  1       21 0.29727684E-03 0.21075481E+02</pdfrwt>
<totfact> 0.12789303E+07</totfact>
</mgrwt>
</event>
<event>
 4    1  0.2736402E+004  0.2202525E+02  0.7546771E-02  0.1707816E+00
         21   -1    0    0  503  502  0.00000000000E+00  0.00000000000E+00  0.50895977294E+01  0.50895977294E+01  0.00000000000E+00 0. -1.
         21   -1    0    0  501  503 -0.00000000000E+00 -0.00000000000E+00 -0.11484150616E+03  0.11484150616E+03  0.00000000000E+00 0.  1.
          2    1    1    2  501    0  0.11390073267E+02 -0.18851466534E+02 -0.79602998170E+02  0.82593879175E+02  0.00000000000E+00 0.  1.
         -2    1    1    2    0  502 -0.11390073267E+02  0.18851466534E+02 -0.30148910264E+02  0.37337224718E+02  0.00000000000E+00 0. -1.
<mgrwt>
<rscale>  2 0.22025248E+02</rscale>
<asrwt>0</asrwt>
<pdfrwt beam="1">  1       21 0.78301508E-03 0.22025248E+02</pdfrwt>
<pdfrwt beam="2">  1       21 0.17667923E-01 0.22025248E+02</pdfrwt>
<totfact> 0.10880849E+08</totfact>
</mgrwt>
</event>
<event>
 4    1  0.2736402E+004  0.7567968E+02  0.7546771E-02  0.1341779E+00
         21   -1    0    0  503  502  0.00000000000E+00  0.00000000000E+00  0.14346940515E+02  0.14346940515E+02  0.00000000000E+00 0. -1.
         21   -1    0    0  501  503 -0.00000000000E+00 -0.00000000000E+00 -0.83876786909E+03  0.83876786909E+03  0.00000000000E+00 0.  1.
          2    1    1    2  501    0 -0.19400189508E+02 -0.73150848721E+02 -0.72100214409E+03  0.72496310651E+03  0.00000000000E+00 0.  1.
         -2    1    1    2    0  502  0.19400189508E+02  0.73150848721E+02 -0.10341878449E+03  0.12815170310E+03  0.00000000000E+00 0. -1.
<mgrwt>
<rscale>  2 0.75679680E+02</rscale>
<asrwt>0</asrwt>
<pdfrwt beam="1">  1       21 0.22072211E-02 0.75679680E+02</pdfrwt>
<pdfrwt beam="2">  1       21 0.12904124E+00 0.75679680E+02</pdfrwt>
<totfact> 0.47397558E+05</totfact>
</mgrwt>
</event>
<event>
 4    1  0.2736402E+004  0.2047037E+02  0.7546771E-02  0.1736133E+00
         21   -1    0    0  503  502  0.00000000000E+00  0.00000000000E+00  0.18027228842E+01  0.18027228842E+01  0.00000000000E+00 0. -1.
         21   -1    0    0  501  503 -0.00000000000E+00 -0.00000000000E+00 -0.63253514335E+03  0.63253514335E+03  0.00000000000E+00 0.  1.
          2    1    1    2  501    0 -0.20295189436E+02 -0.26723634008E+01 -0.56761351771E+03  0.56798251886E+03  0.00000000000E+00 0.  1.
         -2    1    1    2    0  502  0.20295189436E+02  0.26723634008E+01 -0.63118902755E+02  0.66355347376E+02  0.00000000000E+00 0. -1.
<mgrwt>
<rscale>  2 0.20470375E+02</rscale>
<asrwt>0</asrwt>
<pdfrwt beam="1">  1       21 0.27734165E-03 0.20470375E+02</pdfrwt>
<pdfrwt beam="2">  1       21 0.97313217E-01 0.20470375E+02</pdfrwt>
<totfact> 0.19012084E+07</totfact>
</mgrwt>
</event>
<event>
 4    1  0.2736402E+004  0.2206425E+02  0.7546771E-02  0.1707143E+00
         21   -1    0    0  503  502  0.00000000000E+00  0.00000000000E+00  0.24622276900E+02  0.24622276900E+02  0.00000000000E+00 0. -1.
         21   -1    0    0  501  503 -0.00000000000E+00 -0.00000000000E+00 -0.25315894610E+02  0.25315894610E+02  0.00000000000E+00 0.  1.
          2    1    1    2  501    0  0.22513460196E+00  0.22063102634E+02 -0.12031419370E+02  0.25131379498E+02  0.00000000000E+00 0.  1.
         -2    1    1    2    0  502 -0.22513460196E+00 -0.22063102634E+02  0.11337801660E+02  0.24806792012E+02  0.00000000000E+00 0. -1.
<mgrwt>
<rscale>  2 0.22064251E+02</rscale>
<asrwt>0</asrwt>
<pdfrwt beam="1">  1       21 0.37880426E-02 0.22064251E+02</pdfrwt>
<pdfrwt beam="2">  1       21 0.38947530E-02 0.22064251E+02</pdfrwt>
<totfact> 0.11672023E+08</totfact>
</mgrwt>
</event>
<event>
 4    1  0.2736402E+004  0.2142249E+02  0.7546771E-02  0.1718435E+00
         21   -1    0    0  503  502  0.00000000000E+00  0.00000000000E+00  0.44365358475E+01  0.44365358475E+01  0.00000000000E+00 0. -1.
         21   -1    0    0  501  503 -0.00000000000E+00 -0.00000000000E+00 -0.38226495157E+03  0.38226495157E+03  0.00000000000E+00 0.  1.
          2    1    1    2  501    0  0.20277232574E+02 -0.69106390329E+01 -0.35404499480E+03  0.35469251675E+03  0.00000000000E+00 0.  1.
         -2    1    1    2    0  502 -0.20277232574E+02  0.69106390329E+01 -0.23783420925E+02  0.32008970674E+02  0.00000000000E+00 0. -1.
<mgrwt>
<rscale>  2 0.21422490E+02</rscale>
<asrwt>0</asrwt>
<pdfrwt beam="1">  1       21 0.68254386E-03 0.21422490E+02</pdfrwt>
<pdfrwt beam="2">  1       21 0.58810002E-01 0.21422490E+02</pdfrwt>
<totfact> 0.14542455E+07</totfact>
</mgrwt>
</event>
<event>
 4    1  0.2736402E+004  0.3090903E+02  0.7546771E-02  0.1588253E+00
         21   -1    0    0  503  502  0.00000000000E+00  0.00000000000E+00  0.97768632802E+02  0.97768632802E+02  0.00000000000E+00 0. -1.
         21   -1    0    0  501  503 -0.00000000000E+00 -0.00000000000E+00 -0.23418313047E+02  0.23418313047E+02  0.00000000000E+00 0.  1.
          2    1    1    2  501    0 -0.30374736823E+02 -0.57221899235E+01 -0.90799906005E+01  0.32215125701E+02  0.00000000000E+00 0.  1.
         -2    1    1    2    0  502  0.30374736823E+02  0.57221899235E+01  0.83430310355E+02  0.88971820149E+02  0.00000000000E+00 0. -1.
<mgrwt>
<rscale>  2 0.30909029E+02</rscale>
<asrwt>0</asrwt>
<pdfrwt beam="1">  1       21 0.15041328E-01 0.30909029E+02</pdfrwt>
<pdfrwt beam="2">  1       21 0.36028174E-02 0.30909029E+02</pdfrwt>
<totfact> 0.14918261E+07</totfact>
</mgrwt>
</event>
<event>
 4    1  0.2736402E+004  0.2015019E+02  0.7546771E-02  0.1742358E+00
         21   -1    0    0  501  502  0.00000000000E+00  0.00000000000E+00  0.11324108436E+03  0.11324108436E+03  0.00000000000E+00 0. -1.
         21   -1    0    0  502  503 -0.00000000000E+00 -0.00000000000E+00 -0.59547451276E+01  0.59547451276E+01  0.00000000000E+00 0.  1.
          2    1    1    2  501    0 -0.19990963668E+02  0.25281350184E+01  0.91235658924E+02  0.93434338197E+02  0.00000000000E+00 0. -1.
         -2    1    1    2    0  503  0.19990963668E+02 -0.25281350184E+01  0.16050680304E+02  0.25761491286E+02  0.00000000000E+00 0.  1.
<mgrwt>
<rscale>  2 0.20150188E+02</rscale>
<asrwt>0</asrwt>
<pdfrwt beam="1">  1       21 0.17421704E-01 0.20150188E+02</pdfrwt>
<pdfrwt beam="2">  1       21 0.91611472E-03 0.20150188E+02</pdfrwt>
<totfact> 0.86010086E+07</totfact>
</mgrwt>
</event>
<event>
 4    1  0.2736402E+004  0.2406073E+02  0.7546771E-02  0.1674871E+00
         21   -1    0    0  501  502  0.00000000000E+00  0.00000000000E+00  0.22484759076E+03  0.22484759076E+03  0.00000000000E+00 0. -1.
         21   -1    0    0  502  503 -0.00000000000E+00 -0.00000000000E+00 -0.26103648298E+01  0.26103648298E+01  0.00000000000E+00 0.  1.
          2    1    1    2  501    0 -0.18859050291E+02 -0.14941714689E+02  0.12440923076E+03  0.12671454263E+03  0.00000000000E+00 0. -1.
         -2    1    1    2    0  503  0.18859050291E+02  0.14941714689E+02  0.97827995171E+02  0.10074341296E+03  0.00000000000E+00 0.  1.
<mgrwt>
<rscale>  2 0.24060728E+02</rscale>
<asrwt>0</asrwt>
<pdfrwt beam="1">  1       21 0.34591922E-01 0.24060728E+02</pdfrwt>
<pdfrwt beam="2">  1       21 0.40159476E-03 0.24060728E+02</pdfrwt>
<totfact> 0.90304919E+07</totfact>
</mgrwt>
</event>
<event>
 4    1  0.2736402E+004  0.2024577E+02  0.7546771E-02  0.1740484E+00
         21   -1    0    0  501  502  0.00000000000E+00  0.00000000000E+00  0.43027403122E+02  0.43027403122E+02  0.00000000000E+00 0. -1.
         21   -1    0    0  502  503 -0.00000000000E+00 -0.00000000000E+00 -0.29131545829E+02  0.29131545829E+02  0.00000000000E+00 0.  1.
          2    1    1    2  501    0  0.19732116309E+02 -0.45315133529E+01  0.36546096009E+02  0.41779279084E+02  0.00000000000E+00 0. -1.
         -2    1    1    2    0  503 -0.19732116309E+02  0.45315133529E+01 -0.22650238716E+02  0.30379669866E+02  0.00000000000E+00 0.  1.
<mgrwt>
<rscale>  2 0.20245766E+02</rscale>
<asrwt>0</asrwt>
<pdfrwt beam="1">  1       21 0.66196005E-02 0.20245766E+02</pdfrwt>
<pdfrwt beam="2">  1       21 0.44817763E-02 0.20245766E+02</pdfrwt>
<totfact> 0.37683945E+07</totfact>
</mgrwt>
</event>
<event>
 4    1  0.2736402E+004  0.2758129E+02  0.7546771E-02  0.1626474E+00
         21   -1    0    0  503  502  0.00000000000E+00  0.00000000000E+00  0.73347249685E+01  0.73347249685E+01  0.00000000000E+00 0.  1.
         21   -1    0    0  501  503 -0.00000000000E+00 -0.00000000000E+00 -0.17720011612E+03  0.17720011612E+03  0.00000000000E+00 0. -1.
          2    1    1    2  501    0  0.27233594069E+02  0.43656397238E+01 -0.14435007176E+03  0.14696145982E+03  0.00000000000E+00 0. -1.
         -2    1    1    2    0  502 -0.27233594069E+02 -0.43656397238E+01 -0.25515319393E+02  0.37573381267E+02  0.00000000000E+00 0.  1.
<mgrwt>
<rscale>  2 0.27581288E+02</rscale>
<asrwt>0</asrwt>
<pdfrwt beam="1">  1       21 0.11284194E-02 0.27581288E+02</pdfrwt>
<pdfrwt beam="2">  1       21 0.27261551E-01 0.27581288E+02</pdfrwt>
<totfact> 0.30857591E+07</totfact>
</mgrwt>
</event>
<event>
 4    1  0.2736402E+004  0.2847217E+02  0.7546771E-02  0.1615618E+00
         21   -1    0    0  503  502  0.00000000000E+00  0.00000000000E+00  0.12226894801E+03  0.12226894801E+03  0.00000000000E+00 0. -1.
         21   -1    0    0  501  503 -0.00000000000E+00 -0.00000000000E+00 -0.52376651108E+02  0.52376651108E+02  0.00000000000E+00 0.  1.
          2    1    1    2  501    0 -0.39672615479E+01 -0.28194419995E+02 -0.46662768002E+02  0.54663318602E+02  0.00000000000E+00 0.  1.
         -2    1    1    2    0  502  0.39672615479E+01  0.28194419995E+02  0.11655506491E+03  0.11998228052E+03  0.00000000000E+00 0. -1.
<mgrwt>
<rscale>  2 0.28472170E+02</rscale>
<asrwt>0</asrwt>
<pdfrwt beam="1">  1       21 0.18810607E-01 0.28472170E+02</pdfrwt>
<pdfrwt beam="2">  1       21 0.80579464E-02 0.28472170E+02</pdfrwt>
<totfact> 0.27261735E+06</totfact>
</mgrwt>
</event>
<event>
 4    1  0.2736402E+004  0.3878597E+02  0.7546771E-02  0.1517340E+00
         21   -1    0    0  503  502  0.00000000000E+00  0.00000000000E+00  0.47035533534E+02  0.47035533534E+02  0.00000000000E+00 0.  1.
         21   -1    0    0  501  503 -0.00000000000E+00 -0.00000000000E+00 -0.83511376292E+02  0.83511376292E+02  0.00000000000E+00 0. -1.
          2    1    1    2  501    0  0.20076187910E+02 -0.33185813222E+02 -0.69510569669E+02  0.79599439797E+02  0.00000000000E+00 0. -1.
         -2    1    1    2    0  502 -0.20076187910E+02  0.33185813222E+02  0.33034726912E+02  0.50947470029E+02  0.00000000000E+00 0.  1.
<mgrwt>
<rscale>  2 0.38785971E+02</rscale>
<asrwt>0</asrwt>
<pdfrwt beam="1">  1       21 0.72362360E-02 0.38785971E+02</pdfrwt>
<pdfrwt beam="2">  1       21 0.12847904E-01 0.38785971E+02</pdfrwt>
<totfact> 0.65435642E+06</totfact>
</mgrwt>
</event>
<event>
 4    1  0.2736402E+004  0.2041287E+02  0.7546771E-02  0.1737240E+00
         21   -1    0    0  503  502  0.00000000000E+00  0.00000000000E+00  0.48378151960E+01  0.48378151960E+01  0.00000000000E+00 0.  1.
         21   -1    0    0  501  503 -0.00000000000E+00 -0.00000000000E+00 -0.86352982128E+02  0.86352982128E+02  0.00000000000E+00 0. -1.
          2    1    1    2  501    0 -0.80131860914E+00 -0.20397131361E+02 -0.43070176920E+02  0.47662618678E+02  0.00000000000E+00 0. -1.
         -2    1    1    2    0  502  0.80131860914E+00  0.20397131361E+02 -0.38444990012E+02  0.43528178647E+02  0.00000000000E+00 0.  1.
<mgrwt>
<rscale>  2 0.20412866E+02</rscale>
<asrwt>0</asrwt>
<pdfrwt beam="1">  1       21 0.74427929E-03 0.20412866E+02</pdfrwt>
<pdfrwt beam="2">  1       21 0.13285074E-01 0.20412866E+02</pdfrwt>
<totfact> 0.18622146E+08</totfact>
</mgrwt>
</event>
<event>
 4    1  0.2736402E+004  0.4123947E+02  0.7546771E-02  0.1499283E+00
         21   -1    0    0  501  502  0.00000000000E+00  0.00000000000E+00  0.82808524737E+02  0.82808524737E+02  0.00000000000E+00 0.  1.
         21   -1    0    0  502  503 -0.00000000000E+00 -0.00000000000E+00 -0.28633726044E+02  0.28633726044E+02  0.00000000000E+00 0. -1.
          2    1    1    2  501    0 -0.32626961713E+02 -0.25222509929E+02  0.56716458887E+02  0.70124534554E+02  0.00000000000E+00 0.  1.
         -2    1    1    2    0  503  0.32626961713E+02  0.25222509929E+02 -0.25416601941E+01  0.41317716228E+02  0.00000000000E+00 0. -1.
<mgrwt>
<rscale>  2 0.41239467E+02</rscale>
<asrwt>0</asrwt>
<pdfrwt beam="1">  1       21 0.12739773E-01 0.41239467E+02</pdfrwt>
<pdfrwt beam="2">  1       21 0.44051887E-02 0.41239467E+02</pdfrwt>
<totfact> 0.15070782E+07</totfact>
</mgrwt>
</event>
<event>
 4    1  0.2736402E+004  0.2208601E+02  0.7546771E-02  0.1706769E+00
         21   -1    0    0  503  502  0.00000000000E+00  0.00000000000E+00  0.30972869095E+02  0.30972869095E+02  0.00000000000E+00 0. -1.
         21   -1    0    0  501  503 -0.00000000000E+00 -0.00000000000E+00 -0.20038845063E+02  0.20038845063E+02  0.00000000000E+00 0.  1.
          2    1    1    2  501    0  0.10536899678E+02  0.19410447689E+02 -0.63341385299E+01  0.22976358398E+02  0.00000000000E+00 0. -1.
         -2    1    1    2    0  502 -0.10536899678E+02 -0.19410447689E+02  0.17268162562E+02  0.28035355760E+02  0.00000000000E+00 0.  1.
<mgrwt>
<rscale>  2 0.22086008E+02</rscale>
<asrwt>0</asrwt>
<pdfrwt beam="1">  1       21 0.47650568E-02 0.22086008E+02</pdfrwt>
<pdfrwt beam="2">  1       21 0.30828993E-02 0.22086008E+02</pdfrwt>
<totfact> 0.11717351E+08</totfact>
</mgrwt>
</event>
<event>
 4    1  0.2736402E+004  0.2383985E+02  0.7546771E-02  0.1678247E+00
         21   -1    0    0  501  502  0.00000000000E+00  0.00000000000E+00  0.46884877690E+01  0.46884877690E+01  0.00000000000E+00 0. -1.
         21   -1    0    0  502  503 -0.00000000000E+00 -0.00000000000E+00 -0.12441933925E+03  0.12441933925E+03  0.00000000000E+00 0.  1.
          2    1    1    2  501    0  0.55915954809E+01 -0.23174822661E+02 -0.49513745869E+02  0.54954066049E+02  0.00000000000E+00 0. -1.
         -2    1    1    2    0  503 -0.55915954809E+01  0.23174822661E+02 -0.70217105614E+02  0.74153760971E+02  0.00000000000E+00 0.  1.
<mgrwt>
<rscale>  2 0.23839848E+02</rscale>
<asrwt>0</asrwt>
<pdfrwt beam="1">  1       21 0.72130588E-03 0.23839848E+02</pdfrwt>
<pdfrwt beam="2">  1       21 0.19141435E-01 0.23839848E+02</pdfrwt>
<totfact> 0.10945055E+08</totfact>
</mgrwt>
</event>
<event>
 4    1  0.2736402E+004  0.2511149E+02  0.7546771E-02  0.1659406E+00
         21   -1    0    0  503  502  0.00000000000E+00  0.00000000000E+00  0.62208736412E+02  0.62208736412E+02  0.00000000000E+00 0. -1.
         21   -1    0    0  501  503 -0.00000000000E+00 -0.00000000000E+00 -0.23219863380E+02  0.23219863380E+02  0.00000000000E+00 0.  1.
          2    1    1    2  501    0  0.11623605418E+02  0.22259348656E+02 -0.12568333771E+02  0.28081129238E+02  0.00000000000E+00 0.  1.
         -2    1    1    2    0  502 -0.11623605418E+02 -0.22259348656E+02  0.51557206803E+02  0.57347470554E+02  0.00000000000E+00 0. -1.
<mgrwt>
<rscale>  2 0.25111488E+02</rscale>
<asrwt>0</asrwt>
<pdfrwt beam="1">  1       21 0.95705748E-02 0.25111488E+02</pdfrwt>
<pdfrwt beam="2">  1       21 0.35722867E-02 0.25111488E+02</pdfrwt>
<totfact> 0.31125026E+07</totfact>
</mgrwt>
</event>
<event>
 4    1  0.2736402E+004  0.2376982E+02  0.7546771E-02  0.1679327E+00
         21   -1    0    0  503  502  0.00000000000E+00  0.00000000000E+00  0.22854011276E+01  0.22854011276E+01  0.00000000000E+00 0. -1.
         21   -1    0    0  501  503 -0.00000000000E+00 -0.00000000000E+00 -0.13833498576E+04  0.13833498576E+04  0.00000000000E+00 0.  1.
          2    1    1    2  501    0 -0.44376045380E+01 -0.23351913303E+02 -0.13183972505E+04  0.13186115100E+04  0.00000000000E+00 0.  1.
         -2    1    1    2    0  502  0.44376045380E+01  0.23351913303E+02 -0.62667206012E+02  0.67023748763E+02  0.00000000000E+00 0. -1.
<mgrwt>
<rscale>  2 0.23769817E+02</rscale>
<asrwt>0</asrwt>
<pdfrwt beam="1">  1       21 0.35159873E-03 0.23769817E+02</pdfrwt>
<pdfrwt beam="2">  1       21 0.21282393E+00 0.23769817E+02</pdfrwt>
<totfact> 0.21604486E+06</totfact>
</mgrwt>
</event>
<event>
 4    1  0.2736402E+004  0.2103598E+02  0.7546771E-02  0.1725478E+00
         21   -1    0    0  503  502  0.00000000000E+00  0.00000000000E+00  0.31466563553E+03  0.31466563553E+03  0.00000000000E+00 0. -1.
         21   -1    0    0  501  503 -0.00000000000E+00 -0.00000000000E+00 -0.31255319727E+01  0.31255319727E+01  0.00000000000E+00 0.  1.
          2    1    1    2  501    0  0.13515638801E+02 -0.16119549344E+02  0.37923232803E+02  0.43366853120E+02  0.00000000000E+00 0.  1.
         -2    1    1    2    0  502 -0.13515638801E+02  0.16119549344E+02  0.27361687076E+03  0.27442431439E+03  0.00000000000E+00 0. -1.
<mgrwt>
<rscale>  2 0.21035978E+02</rscale>
<asrwt>0</asrwt>
<pdfrwt beam="1">  1       21 0.48410073E-01 0.21035978E+02</pdfrwt>
<pdfrwt beam="2">  1       21 0.48085132E-03 0.21035978E+02</pdfrwt>
<totfact> 0.35542263E+07</totfact>
</mgrwt>
</event>
<event>
 4    1  0.2736402E+004  0.2417330E+02  0.7546771E-02  0.1673168E+00
         21   -1    0    0  501  502  0.00000000000E+00  0.00000000000E+00  0.32263335481E+03  0.32263335481E+03  0.00000000000E+00 0. -1.
         21   -1    0    0  502  503 -0.00000000000E+00 -0.00000000000E+00 -0.19702677280E+01  0.19702677280E+01  0.00000000000E+00 0.  1.
          2    1    1    2  501    0  0.30837799742E+01 -0.23975792229E+02  0.20644990519E+03  0.20786031768E+03  0.00000000000E+00 0.  1.
         -2    1    1    2    0  503 -0.30837799742E+01  0.23975792229E+02  0.11421318189E+03  0.11674330486E+03  0.00000000000E+00 0. -1.
<mgrwt>
<rscale>  2 0.24173297E+02</rscale>
<asrwt>0</asrwt>
<pdfrwt beam="1">  1       21 0.49635859E-01 0.24173297E+02</pdfrwt>
<pdfrwt beam="2">  1       21 0.30311837E-03 0.24173297E+02</pdfrwt>
<totfact> 0.68788826E+07</totfact>
</mgrwt>
</event>
<event>
 4    1  0.2736402E+004  0.2262878E+02  0.7546771E-02  0.1697599E+00
         21   -1    0    0  501  502  0.00000000000E+00  0.00000000000E+00  0.25288482933E+02  0.25288482933E+02  0.00000000000E+00 0. -1.
         21   -1    0    0  502  503 -0.00000000000E+00 -0.00000000000E+00 -0.14221852657E+03  0.14221852657E+03  0.00000000000E+00 0.  1.
          2    1    1    2  501    0  0.29707384110E+01  0.22432933028E+02  0.19097318275E+02  0.29610291053E+02  0.00000000000E+00 0. -1.
         -2    1    1    2    0  503 -0.29707384110E+01 -0.22432933028E+02 -0.13602736191E+03  0.13789671845E+03  0.00000000000E+00 0.  1.
<mgrwt>
<rscale>  2 0.22628782E+02</rscale>
<asrwt>0</asrwt>
<pdfrwt beam="1">  1       21 0.38905359E-02 0.22628782E+02</pdfrwt>
<pdfrwt beam="2">  1       21 0.21879773E-01 0.22628782E+02</pdfrwt>
<totfact> 0.65200128E+06</totfact>
</mgrwt>
</event>
<event>
 4    1  0.2736402E+004  0.2050515E+02  0.7546771E-02  0.1735465E+00
         21   -1    0    0  501  502  0.00000000000E+00  0.00000000000E+00  0.67508069933E+01  0.67508069933E+01  0.00000000000E+00 0.  1.
         21   -1    0    0  502  503 -0.00000000000E+00 -0.00000000000E+00 -0.94267290405E+02  0.94267290405E+02  0.00000000000E+00 0. -1.
          2    1    1    2  501    0  0.80426683172E+01 -0.18862038424E+02 -0.14337302069E+02  0.25020376451E+02  0.00000000000E+00 0.  1.
         -2    1    1    2    0  503 -0.80426683172E+01  0.18862038424E+02 -0.73179181343E+02  0.75997720947E+02  0.00000000000E+00 0. -1.
<mgrwt>
<rscale>  2 0.20505146E+02</rscale>
<asrwt>0</asrwt>
<pdfrwt beam="1">  1       21 0.10385856E-02 0.20505146E+02</pdfrwt>
<pdfrwt beam="2">  1       21 0.14502661E-01 0.20505146E+02</pdfrwt>
<totfact> 0.97908934E+07</totfact>
</mgrwt>
</event>
<event>
 4    1  0.2736402E+004  0.2723899E+02  0.7546771E-02  0.1630780E+00
         21   -1    0    0  501  502  0.00000000000E+00  0.00000000000E+00  0.73224419013E+03  0.73224419013E+03  0.00000000000E+00 0.  1.
         21   -1    0    0  502  503 -0.00000000000E+00 -0.00000000000E+00 -0.15336258398E+01  0.15336258398E+01  0.00000000000E+00 0. -1.
          2    1    1    2  501    0 -0.26799030551E+02 -0.48759144556E+01  0.57906497961E+03  0.57970528132E+03  0.00000000000E+00 0.  1.
         -2    1    1    2    0  503  0.26799030551E+02  0.48759144556E+01  0.15164558468E+03  0.15407253465E+03  0.00000000000E+00 0. -1.
<mgrwt>
<rscale>  2 0.27238990E+02</rscale>
<asrwt>0</asrwt>
<pdfrwt beam="1">  1       21 0.11265267E+00 0.27238990E+02</pdfrwt>
<pdfrwt beam="2">  1       21 0.23594302E-03 0.27238990E+02</pdfrwt>
<totfact> 0.18319844E+07</totfact>
</mgrwt>
</event>
<event>
 4    1  0.2736402E+004  0.2890125E+02  0.7546771E-02  0.1610561E+00
         21   -1    0    0  501  502  0.00000000000E+00  0.00000000000E+00  0.70282149567E+03  0.70282149567E+03  0.00000000000E+00 0.  1.
         21   -1    0    0  502  503 -0.00000000000E+00 -0.00000000000E+00 -0.12127794565E+01  0.12127794565E+01  0.00000000000E+00 0. -1.
          2    1    1    2  501    0  0.13137886859E+02  0.25742533679E+02  0.30096614727E+03  0.30235063075E+03  0.00000000000E+00 0.  1.
         -2    1    1    2    0  503 -0.13137886859E+02 -0.25742533679E+02  0.40064256894E+03  0.40168364437E+03  0.00000000000E+00 0. -1.
<mgrwt>
<rscale>  2 0.28901248E+02</rscale>
<asrwt>0</asrwt>
<pdfrwt beam="1">  1       21 0.10812606E+00 0.28901248E+02</pdfrwt>
<pdfrwt beam="2">  1       21 0.18658202E-03 0.28901248E+02</pdfrwt>
<totfact> 0.28544819E+07</totfact>
</mgrwt>
</event>
<event>
 4    1  0.2736402E+004  0.3698439E+02  0.7546771E-02  0.1531653E+00
         21   -1    0    0  501  502  0.00000000000E+00  0.00000000000E+00  0.12033280142E+03  0.12033280142E+03  0.00000000000E+00 0.  1.
         21   -1    0    0  502  503 -0.00000000000E+00 -0.00000000000E+00 -0.11580758876E+02  0.11580758876E+02  0.00000000000E+00 0. -1.
          2    1    1    2  501    0  0.34662038993E+02  0.12899143366E+02  0.45418906995E+02  0.58572365151E+02  0.00000000000E+00 0.  1.
         -2    1    1    2    0  503 -0.34662038993E+02 -0.12899143366E+02  0.63333135547E+02  0.73341195143E+02  0.00000000000E+00 0. -1.
<mgrwt>
<rscale>  2 0.36984387E+02</rscale>
<asrwt>0</asrwt>
<pdfrwt beam="1">  1       21 0.18512738E-01 0.36984387E+02</pdfrwt>
<pdfrwt beam="2">  1       21 0.17816553E-02 0.36984387E+02</pdfrwt>
<totfact> 0.32363993E+07</totfact>
</mgrwt>
</event>
<event>
 4    1  0.2736402E+004  0.2062955E+02  0.7546771E-02  0.1733091E+00
         21   -1    0    0  501  502  0.00000000000E+00  0.00000000000E+00  0.61885992819E+02  0.61885992819E+02  0.00000000000E+00 0.  1.
         21   -1    0    0  502  503 -0.00000000000E+00 -0.00000000000E+00 -0.12888750065E+03  0.12888750065E+03  0.00000000000E+00 0. -1.
          2    1    1    2  501    0  0.17253225017E+02  0.11309488161E+02  0.59306426032E+02  0.62791961784E+02  0.00000000000E+00 0.  1.
         -2    1    1    2    0  503 -0.17253225017E+02 -0.11309488161E+02 -0.12630793386E+03  0.12798153168E+03  0.00000000000E+00 0. -1.
<mgrwt>
<rscale>  2 0.20629549E+02</rscale>
<asrwt>0</asrwt>
<pdfrwt beam="1">  1       21 0.95209220E-02 0.20629549E+02</pdfrwt>
<pdfrwt beam="2">  1       21 0.19828846E-01 0.20629549E+02</pdfrwt>
<totfact> 0.18162346E+06</totfact>
</mgrwt>
</event>
<event>
 4    1  0.2736402E+004  0.2147217E+02  0.7546771E-02  0.1717544E+00
         21   -1    0    0  501  502  0.00000000000E+00  0.00000000000E+00  0.57240232226E+03  0.57240232226E+03  0.00000000000E+00 0. -1.
         21   -1    0    0  502  503 -0.00000000000E+00 -0.00000000000E+00 -0.90515654241E+00  0.90515654241E+00  0.00000000000E+00 0.  1.
          2    1    1    2  501    0 -0.16620575691E+02 -0.13594499951E+02  0.38087693445E+03  0.38148170750E+03  0.00000000000E+00 0.  1.
         -2    1    1    2    0  503  0.16620575691E+02  0.13594499951E+02  0.19062023127E+03  0.19182577130E+03  0.00000000000E+00 0. -1.
<mgrwt>
<rscale>  2 0.21472167E+02</rscale>
<asrwt>0</asrwt>
<pdfrwt beam="1">  1       21 0.88061607E-01 0.21472167E+02</pdfrwt>
<pdfrwt beam="2">  1       21 0.13925531E-03 0.21472167E+02</pdfrwt>
<totfact> 0.64138442E+07</totfact>
</mgrwt>
</event>
<event>
 4    1  0.2736402E+004  0.2680153E+02  0.7546771E-02  0.1636397E+00
         21   -1    0    0  501  502  0.00000000000E+00  0.00000000000E+00  0.50555651995E+01  0.50555651995E+01  0.00000000000E+00 0.  1.
         21   -1    0    0  502  503 -0.00000000000E+00 -0.00000000000E+00 -0.14784034755E+03  0.14784034755E+03  0.00000000000E+00 0. -1.
          2    1    1    2  501    0  0.20279816301E+02 -0.17522880060E+02 -0.56309379980E+02  0.62362396912E+02  0.00000000000E+00 0.  1.
         -2    1    1    2    0  503 -0.20279816301E+02  0.17522880060E+02 -0.86475402367E+02  0.90533515835E+02  0.00000000000E+00 0. -1.
<mgrwt>
<rscale>  2 0.26801535E+02</rscale>
<asrwt>0</asrwt>
<pdfrwt beam="1">  1       21 0.77777923E-03 0.26801535E+02</pdfrwt>
<pdfrwt beam="2">  1       21 0.22744670E-01 0.26801535E+02</pdfrwt>
<totfact> 0.74383512E+07</totfact>
</mgrwt>
</event>
<event>
 4    1  0.2736402E+004  0.3065086E+02  0.7546771E-02  0.1591004E+00
         21   -1    0    0  501  502  0.00000000000E+00  0.00000000000E+00  0.17874235957E+02  0.17874235957E+02  0.00000000000E+00 0.  1.
         21   -1    0    0  502  503 -0.00000000000E+00 -0.00000000000E+00 -0.56998573097E+02  0.56998573097E+02  0.00000000000E+00 0. -1.
          2    1    1    2  501    0 -0.26378999428E+02  0.15608454715E+02 -0.91157259166E+01  0.31977678596E+02  0.00000000000E+00 0.  1.
         -2    1    1    2    0  503  0.26378999428E+02 -0.15608454715E+02 -0.30008611224E+02  0.42895130458E+02  0.00000000000E+00 0. -1.
<mgrwt>
<rscale>  2 0.30650864E+02</rscale>
<asrwt>0</asrwt>
<pdfrwt beam="1">  1       21 0.27498825E-02 0.30650864E+02</pdfrwt>
<pdfrwt beam="2">  1       21 0.87690112E-02 0.30650864E+02</pdfrwt>
<totfact> 0.56758681E+07</totfact>
</mgrwt>
</event>
<event>
 4    1  0.2736402E+004  0.2015554E+02  0.7546771E-02  0.1742253E+00
         21   -1    0    0  501  502  0.00000000000E+00  0.00000000000E+00  0.21454804522E+04  0.21454804522E+04  0.00000000000E+00 0.  1.
         21   -1    0    0  502  503 -0.00000000000E+00 -0.00000000000E+00 -0.19215772820E+00  0.19215772820E+00  0.00000000000E+00 0. -1.
          2    1    1    2  501    0 -0.29408041424E+01  0.19939843184E+02  0.12023381384E+04  0.12025070664E+04  0.00000000000E+00 0.  1.
         -2    1    1    2    0  503  0.29408041424E+01 -0.19939843184E+02  0.94295015609E+03  0.94316554355E+03  0.00000000000E+00 0. -1.
<mgrwt>
<rscale>  2 0.20155537E+02</rscale>
<asrwt>0</asrwt>
<pdfrwt beam="1">  1       21 0.33005473E+00 0.20155537E+02</pdfrwt>
<pdfrwt beam="2">  1       21 0.29564446E-04 0.20155537E+02</pdfrwt>
<totfact> 0.19299423E+07</totfact>
</mgrwt>
</event>
<event>
 4    1  0.2736402E+004  0.4357722E+02  0.7546771E-02  0.1483424E+00
         21   -1    0    0  501  502  0.00000000000E+00  0.00000000000E+00  0.29110581418E+03  0.29110581418E+03  0.00000000000E+00 0. -1.
         21   -1    0    0  502  503 -0.00000000000E+00 -0.00000000000E+00 -0.19019403028E+02  0.19019403028E+02  0.00000000000E+00 0.  1.
          2    1    1    2  501    0 -0.63465784435E+01 -0.43112581786E+02  0.26173176603E+03  0.26533467756E+03  0.00000000000E+00 0. -1.
         -2    1    1    2    0  503  0.63465784435E+01  0.43112581786E+02  0.10354645118E+02  0.44790539645E+02  0.00000000000E+00 0.  1.
<mgrwt>
<rscale>  2 0.43577216E+02</rscale>
<asrwt>0</asrwt>
<pdfrwt beam="1">  1       21 0.44785507E-01 0.43577216E+02</pdfrwt>
<pdfrwt beam="2">  1       21 0.29260622E-02 0.43577216E+02</pdfrwt>
<totfact> 0.29446333E+06</totfact>
</mgrwt>
</event>
<event>
 4    1  0.2736402E+004  0.2409466E+02  0.7546771E-02  0.1674357E+00
         21   -1    0    0  503  502  0.00000000000E+00  0.00000000000E+00  0.47644860965E+02  0.47644860965E+02  0.00000000000E+00 0. -1.
         21   -1    0    0  501  503 -0.00000000000E+00 -0.00000000000E+00 -0.16044045930E+02  0.16044045930E+02  0.00000000000E+00 0.  1.
          2    1    1    2  501    0  0.47165208164E+01  0.23628521537E+02  0.18271518718E+00  0.24095351906E+02  0.00000000000E+00 0.  1.
         -2    1    1    2    0  502 -0.47165208164E+01 -0.23628521537E+02  0.31418099847E+02  0.39593554989E+02  0.00000000000E+00 0. -1.
<mgrwt>
<rscale>  2 0.24094659E+02</rscale>
<asrwt>0</asrwt>
<pdfrwt beam="1">  1       21 0.73299785E-02 0.24094659E+02</pdfrwt>
<pdfrwt beam="2">  1       21 0.24683148E-02 0.24094659E+02</pdfrwt>
<totfact> 0.84979271E+07</totfact>
</mgrwt>
</event>
<event>
 4    1  0.2736402E+004  0.2661454E+02  0.7546771E-02  0.1638839E+00
         21   -1    0    0  503  502  0.00000000000E+00  0.00000000000E+00  0.61011062754E+02  0.61011062754E+02  0.00000000000E+00 0. -1.
         21   -1    0    0  501  503 -0.00000000000E+00 -0.00000000000E+00 -0.11649797069E+02  0.11649797069E+02  0.00000000000E+00 0.  1.
          2    1    1    2  501    0 -0.25837770775E+02 -0.63830604986E+01  0.26806058847E+02  0.37774312050E+02  0.00000000000E+00 0.  1.
         -2    1    1    2    0  502  0.25837770775E+02  0.63830604986E+01  0.22555206838E+02  0.34886547772E+02  0.00000000000E+00 0. -1.
<mgrwt>
<rscale>  2 0.26614542E+02</rscale>
<asrwt>0</asrwt>
<pdfrwt beam="1">  1       21 0.93863171E-02 0.26614542E+02</pdfrwt>
<pdfrwt beam="2">  1       21 0.17922765E-02 0.26614542E+02</pdfrwt>
<totfact> 0.95223571E+07</totfact>
</mgrwt>
</event>
<event>
 4    1  0.2736402E+004  0.2763788E+02  0.7546771E-02  0.1625769E+00
         21   -1    0    0  503  502  0.00000000000E+00  0.00000000000E+00  0.12143724809E+04  0.12143724809E+04  0.00000000000E+00 0. -1.
         21   -1    0    0  501  503 -0.00000000000E+00 -0.00000000000E+00 -0.65743130717E+00  0.65743130717E+00  0.00000000000E+00 0.  1.
          2    1    1    2  501    0  0.78599620228E+01 -0.26496665409E+02  0.48054256952E+03  0.48133669443E+03  0.00000000000E+00 0.  1.
         -2    1    1    2    0  502 -0.78599620228E+01  0.26496665409E+02  0.73317248006E+03  0.73369321777E+03  0.00000000000E+00 0. -1.
<mgrwt>
<rscale>  2 0.27637878E+02</rscale>
<asrwt>0</asrwt>
<pdfrwt beam="1">  1       21 0.18682474E+00 0.27637878E+02</pdfrwt>
<pdfrwt beam="2">  1       21 0.10114425E-03 0.27637878E+02</pdfrwt>
<totfact> 0.18653473E+07</totfact>
</mgrwt>
</event>
<event>
 4    1  0.2736402E+004  0.2302791E+02  0.7546771E-02  0.1691058E+00
         21   -1    0    0  501  502  0.00000000000E+00  0.00000000000E+00  0.27138256057E+01  0.27138256057E+01  0.00000000000E+00 0.  1.
         21   -1    0    0  502  503 -0.00000000000E+00 -0.00000000000E+00 -0.19554375846E+03  0.19554375846E+03  0.00000000000E+00 0. -1.
          2    1    1    2  501    0 -0.20760476451E+02 -0.99642909533E+01 -0.93737374011E+02  0.96524503434E+02  0.00000000000E+00 0. -1.
         -2    1    1    2    0  503  0.20760476451E+02  0.99642909533E+01 -0.99092558841E+02  0.10173308063E+03  0.00000000000E+00 0.  1.
<mgrwt>
<rscale>  2 0.23027906E+02</rscale>
<asrwt>0</asrwt>
<pdfrwt beam="1">  1       21 0.41751162E-03 0.23027906E+02</pdfrwt>
<pdfrwt beam="2">  1       21 0.30083656E-01 0.23027906E+02</pdfrwt>
<totfact> 0.10894467E+08</totfact>
</mgrwt>
</event>
<event>
 4    1  0.2736402E+004  0.4014332E+02  0.7546771E-02  0.1507159E+00
         21   -1    0    0  503  502  0.00000000000E+00  0.00000000000E+00  0.99323203216E+02  0.99323203216E+02  0.00000000000E+00 0.  1.
         21   -1    0    0  501  503 -0.00000000000E+00 -0.00000000000E+00 -0.21167615669E+02  0.21167615669E+02  0.00000000000E+00 0. -1.
          2    1    1    2  501    0 -0.24333228647E+02  0.31927737528E+02  0.99652067477E+01  0.41361718842E+02  0.00000000000E+00 0. -1.
         -2    1    1    2    0  502  0.24333228647E+02 -0.31927737528E+02  0.68190380799E+02  0.79129100043E+02  0.00000000000E+00 0.  1.
<mgrwt>
<rscale>  2 0.40143324E+02</rscale>
<asrwt>0</asrwt>
<pdfrwt beam="1">  1       21 0.15280493E-01 0.40143324E+02</pdfrwt>
<pdfrwt beam="2">  1       21 0.32565563E-02 0.40143324E+02</pdfrwt>
<totfact> 0.17788975E+07</totfact>
</mgrwt>
</event>
<event>
 4    1  0.2736402E+004  0.2093835E+02  0.7546771E-02  0.1727287E+00
         21   -1    0    0  501  502  0.00000000000E+00  0.00000000000E+00  0.29259871465E+02  0.29259871465E+02  0.00000000000E+00 0.  1.
         21   -1    0    0  502  503 -0.00000000000E+00 -0.00000000000E+00 -0.22198764304E+02  0.22198764304E+02  0.00000000000E+00 0. -1.
          2    1    1    2  501    0 -0.30822082748E+01  0.20710248450E+02  0.18199229227E+02  0.27742140205E+02  0.00000000000E+00 0.  1.
         -2    1    1    2    0  503  0.30822082748E+01 -0.20710248450E+02 -0.11138122066E+02  0.23716495564E+02  0.00000000000E+00 0. -1.
<mgrwt>
<rscale>  2 0.20938348E+02</rscale>
<asrwt>0</asrwt>
<pdfrwt beam="1">  1       21 0.45015187E-02 0.20938348E+02</pdfrwt>
<pdfrwt beam="2">  1       21 0.34151945E-02 0.20938348E+02</pdfrwt>
<totfact> 0.10758976E+08</totfact>
</mgrwt>
</event>
<event>
 4    1  0.2736402E+004  0.2758264E+02  0.7546771E-02  0.1626457E+00
         21   -1    0    0  503  502  0.00000000000E+00  0.00000000000E+00  0.23894342173E+02  0.23894342173E+02  0.00000000000E+00 0.  1.
         21   -1    0    0  501  503 -0.00000000000E+00 -0.00000000000E+00 -0.91068027090E+02  0.91068027090E+02  0.00000000000E+00 0. -1.
          2    1    1    2  501    0 -0.99410513286E+00  0.27564721524E+02 -0.79942785239E+02  0.84567434804E+02  0.00000000000E+00 0. -1.
         -2    1    1    2    0  502  0.99410513286E+00 -0.27564721524E+02  0.12769100322E+02  0.30394934458E+02  0.00000000000E+00 0.  1.
<mgrwt>
<rscale>  2 0.27582642E+02</rscale>
<asrwt>0</asrwt>
<pdfrwt beam="1">  1       21 0.36760525E-02 0.27582642E+02</pdfrwt>
<pdfrwt beam="2">  1       21 0.14010466E-01 0.27582642E+02</pdfrwt>
<totfact> 0.15988077E+07</totfact>
</mgrwt>
</event>
<event>
 4    1  0.2736402E+004  0.2643587E+02  0.7546771E-02  0.1641195E+00
         21   -1    0    0  503  502  0.00000000000E+00  0.00000000000E+00  0.53044753333E+03  0.53044753333E+03  0.00000000000E+00 0. -1.
         21   -1    0    0  501  503 -0.00000000000E+00 -0.00000000000E+00 -0.16659617879E+01  0.16659617879E+01  0.00000000000E+00 0.  1.
          2    1    1    2  501    0 -0.26024517170E+02 -0.46454135863E+01  0.14270769767E+03  0.14513559982E+03  0.00000000000E+00 0.  1.
         -2    1    1    2    0  502  0.26024517170E+02  0.46454135863E+01  0.38607387387E+03  0.38697789530E+03  0.00000000000E+00 0. -1.
<mgrwt>
<rscale>  2 0.26435873E+02</rscale>
<asrwt>0</asrwt>
<pdfrwt beam="1">  1       21 0.81607178E-01 0.26435873E+02</pdfrwt>
<pdfrwt beam="2">  1       21 0.25630224E-03 0.26435873E+02</pdfrwt>
<totfact> 0.32673482E+07</totfact>
</mgrwt>
</event>
<event>
 4    1  0.2736402E+004  0.2387826E+02  0.7546771E-02  0.1677657E+00
         21   -1    0    0  501  502  0.00000000000E+00  0.00000000000E+00  0.17473754630E+02  0.17473754630E+02  0.00000000000E+00 0. -1.
         21   -1    0    0  502  503 -0.00000000000E+00 -0.00000000000E+00 -0.35731586067E+02  0.35731586067E+02  0.00000000000E+00 0.  1.
          2    1    1    2  501    0 -0.22811951001E+02  0.70559194934E+01 -0.12913533768E+01  0.23913149142E+02  0.00000000000E+00 0.  1.
         -2    1    1    2    0  503  0.22811951001E+02 -0.70559194934E+01 -0.16966478060E+02  0.29292191555E+02  0.00000000000E+00 0. -1.
<mgrwt>
<rscale>  2 0.23878256E+02</rscale>
<asrwt>0</asrwt>
<pdfrwt beam="1">  1       21 0.26882699E-02 0.23878256E+02</pdfrwt>
<pdfrwt beam="2">  1       21 0.54971671E-02 0.23878256E+02</pdfrwt>
<totfact> 0.11813735E+08</totfact>
</mgrwt>
</event>
<event>
 4    1  0.2736402E+004  0.2017178E+02  0.7546771E-02  0.1741933E+00
         21   -1    0    0  503  502  0.00000000000E+00  0.00000000000E+00  0.50536391156E+01  0.50536391156E+01  0.00000000000E+00 0.  1.
         21   -1    0    0  501  503 -0.00000000000E+00 -0.00000000000E+00 -0.10542781069E+03  0.10542781069E+03  0.00000000000E+00 0. -1.
          2    1    1    2  501    0  0.16398891532E+02  0.11746358943E+02 -0.77039376709E+02  0.79636462476E+02  0.00000000000E+00 0. -1.
         -2    1    1    2    0  502 -0.16398891532E+02 -0.11746358943E+02 -0.23334794860E+02  0.30844987325E+02  0.00000000000E+00 0.  1.
<mgrwt>
<rscale>  2 0.20171777E+02</rscale>
<asrwt>0</asrwt>
<pdfrwt beam="1">  1       21 0.77748302E-03 0.20171777E+02</pdfrwt>
<pdfrwt beam="2">  1       21 0.16219662E-01 0.20171777E+02</pdfrwt>
<totfact> 0.12409586E+08</totfact>
</mgrwt>
</event>
<event>
 4    1  0.2736402E+004  0.2499446E+02  0.7546771E-02  0.1661081E+00
         21   -1    0    0  501  502  0.00000000000E+00  0.00000000000E+00  0.10524969442E+01  0.10524969442E+01  0.00000000000E+00 0.  1.
         21   -1    0    0  502  503 -0.00000000000E+00 -0.00000000000E+00 -0.77687257901E+03  0.77687257901E+03  0.00000000000E+00 0. -1.
          2    1    1    2  501    0 -0.42230098613E+01  0.24635125024E+02 -0.57685073723E+03  0.57739197798E+03  0.00000000000E+00 0. -1.
         -2    1    1    2    0  503  0.42230098613E+01 -0.24635125024E+02 -0.19896934484E+03  0.20053309797E+03  0.00000000000E+00 0.  1.
<mgrwt>
<rscale>  2 0.24994463E+02</rscale>
<asrwt>0</asrwt>
<pdfrwt beam="1">  1       21 0.16192224E-03 0.24994463E+02</pdfrwt>
<pdfrwt beam="2">  1       21 0.11951913E+00 0.24994463E+02</pdfrwt>
<totfact> 0.27251911E+07</totfact>
</mgrwt>
</event>
<event>
 4    1  0.2736402E+004  0.2326238E+02  0.7546771E-02  0.1687292E+00
         21   -1    0    0  501  502  0.00000000000E+00  0.00000000000E+00  0.56748003932E+02  0.56748003932E+02  0.00000000000E+00 0.  1.
         21   -1    0    0  502  503 -0.00000000000E+00 -0.00000000000E+00 -0.24196710502E+02  0.24196710502E+02  0.00000000000E+00 0. -1.
          2    1    1    2  501    0  0.83101590653E+01  0.21727390544E+02  0.47779279954E+02  0.53141300666E+02  0.00000000000E+00 0.  1.
         -2    1    1    2    0  503 -0.83101590653E+01 -0.21727390544E+02 -0.15227986524E+02  0.27803413768E+02  0.00000000000E+00 0. -1.
<mgrwt>
<rscale>  2 0.23262378E+02</rscale>
<asrwt>0</asrwt>
<pdfrwt beam="1">  1       21 0.87304621E-02 0.23262378E+02</pdfrwt>
<pdfrwt beam="2">  1       21 0.37225709E-02 0.23262378E+02</pdfrwt>
<totfact> 0.33338655E+07</totfact>
</mgrwt>
</event>
<event>
 4    1  0.2736402E+004  0.2538934E+02  0.7546771E-02  0.1655472E+00
         21   -1    0    0  501  502  0.00000000000E+00  0.00000000000E+00  0.18228603729E+02  0.18228603729E+02  0.00000000000E+00 0. -1.
         21   -1    0    0  502  503 -0.00000000000E+00 -0.00000000000E+00 -0.43744247984E+02  0.43744247984E+02  0.00000000000E+00 0.  1.
          2    1    1    2  501    0 -0.22804838774E+02  0.11160543574E+02  0.80546451014E+00  0.25402109705E+02  0.00000000000E+00 0.  1.
         -2    1    1    2    0  503  0.22804838774E+02 -0.11160543574E+02 -0.26321108765E+02  0.36570742008E+02  0.00000000000E+00 0. -1.
<mgrwt>
<rscale>  2 0.25389336E+02</rscale>
<asrwt>0</asrwt>
<pdfrwt beam="1">  1       21 0.28044006E-02 0.25389336E+02</pdfrwt>
<pdfrwt beam="2">  1       21 0.67298842E-02 0.25389336E+02</pdfrwt>
<totfact> 0.81176744E+07</totfact>
</mgrwt>
</event>
<event>
 4    1  0.2736402E+004  0.3520261E+02  0.7546771E-02  0.1546809E+00
         21   -1    0    0  503  502  0.00000000000E+00  0.00000000000E+00  0.28743560007E+03  0.28743560007E+03  0.00000000000E+00 0.  1.
         21   -1    0    0  501  503 -0.00000000000E+00 -0.00000000000E+00 -0.44245551533E+01  0.44245551533E+01  0.00000000000E+00 0. -1.
          2    1    1    2  501    0 -0.15872151528E+02 -0.31421303581E+02  0.11815896158E+03  0.12329137729E+03  0.00000000000E+00 0. -1.
         -2    1    1    2    0  502  0.15872151528E+02  0.31421303581E+02  0.16485208334E+03  0.16856877793E+03  0.00000000000E+00 0.  1.
<mgrwt>
<rscale>  2 0.35202607E+02</rscale>
<asrwt>0</asrwt>
<pdfrwt beam="1">  1       21 0.44220847E-01 0.35202607E+02</pdfrwt>
<pdfrwt beam="2">  1       21 0.68070102E-03 0.35202607E+02</pdfrwt>
<totfact> 0.27998073E+07</totfact>
</mgrwt>
</event>
<event>
 4    1  0.2736402E+004  0.2411858E+02  0.7546771E-02  0.1673995E+00
         21   -1    0    0  503  502  0.00000000000E+00  0.00000000000E+00  0.30982439139E+03  0.30982439139E+03  0.00000000000E+00 0. -1.
         21   -1    0    0  501  503 -0.00000000000E+00 -0.00000000000E+00 -0.18995347267E+01  0.18995347267E+01  0.00000000000E+00 0.  1.
          2    1    1    2  501    0 -0.21074363073E+02 -0.11729325171E+02  0.13718851368E+03  0.13929247694E+03  0.00000000000E+00 0. -1.
         -2    1    1    2    0  502  0.21074363073E+02  0.11729325171E+02  0.17073634299E+03  0.17243144918E+03  0.00000000000E+00 0.  1.
<mgrwt>
<rscale>  2 0.24118579E+02</rscale>
<asrwt>0</asrwt>
<pdfrwt beam="1">  1       21 0.47665251E-01 0.24118579E+02</pdfrwt>
<pdfrwt beam="2">  1       21 0.29223636E-03 0.24118579E+02</pdfrwt>
<totfact> 0.78447184E+07</totfact>
</mgrwt>
</event>
<event>
 4    1  0.2736402E+004  0.2466415E+02  0.7546771E-02  0.1665873E+00
         21   -1    0    0  501  502  0.00000000000E+00  0.00000000000E+00  0.17545612896E+01  0.17545612896E+01  0.00000000000E+00 0. -1.
         21   -1    0    0  502  503 -0.00000000000E+00 -0.00000000000E+00 -0.43572193014E+03  0.43572193014E+03  0.00000000000E+00 0.  1.
          2    1    1    2  501    0 -0.17148776732E+02 -0.17726805109E+02 -0.11811713365E+03  0.12066473149E+03  0.00000000000E+00 0. -1.
         -2    1    1    2    0  503  0.17148776732E+02  0.17726805109E+02 -0.31585023520E+03  0.31681175995E+03  0.00000000000E+00 0.  1.
<mgrwt>
<rscale>  2 0.24664147E+02</rscale>
<asrwt>0</asrwt>
<pdfrwt beam="1">  1       21 0.26993249E-03 0.24664147E+02</pdfrwt>
<pdfrwt beam="2">  1       21 0.67034146E-01 0.24664147E+02</pdfrwt>
<totfact> 0.44970402E+07</totfact>
</mgrwt>
</event>
<event>
 4    1  0.2736402E+004  0.2189194E+02  0.7546771E-02  0.1710128E+00
         21   -1    0    0  503  502  0.00000000000E+00  0.00000000000E+00  0.43633328988E+02  0.43633328988E+02  0.00000000000E+00 0. -1.
         21   -1    0    0  501  503 -0.00000000000E+00 -0.00000000000E+00 -0.12624109958E+02  0.12624109958E+02  0.00000000000E+00 0.  1.
          2    1    1    2  501    0  0.90292326676E+00 -0.21873307203E+02  0.53649960665E+01  0.22539743149E+02  0.00000000000E+00 0.  1.
         -2    1    1    2    0  502 -0.90292326676E+00  0.21873307203E+02  0.25644222964E+02  0.33717695797E+02  0.00000000000E+00 0. -1.
<mgrwt>
<rscale>  2 0.21891935E+02</rscale>
<asrwt>0</asrwt>
<pdfrwt beam="1">  1       21 0.67128198E-02 0.21891935E+02</pdfrwt>
<pdfrwt beam="2">  1       21 0.19421708E-02 0.21891935E+02</pdfrwt>
<totfact> 0.13782521E+08</totfact>
</mgrwt>
</event>
<event>
 4    1  0.2736402E+004  0.3623793E+02  0.7546771E-02  0.1537874E+00
         21   -1    0    0  501  502  0.00000000000E+00  0.00000000000E+00  0.27278607508E+02  0.27278607508E+02  0.00000000000E+00 0. -1.
         21   -1    0    0  502  503 -0.00000000000E+00 -0.00000000000E+00 -0.54613647323E+02  0.54613647323E+02  0.00000000000E+00 0.  1.
          2    1    1    2  501    0  0.29368133322E+02  0.21229704529E+02  0.42998853214E+00  0.36240481500E+02  0.00000000000E+00 0. -1.
         -2    1    1    2    0  503 -0.29368133322E+02 -0.21229704529E+02 -0.27765028347E+02  0.45651773332E+02  0.00000000000E+00 0.  1.
<mgrwt>
<rscale>  2 0.36237931E+02</rscale>
<asrwt>0</asrwt>
<pdfrwt beam="1">  1       21 0.41967088E-02 0.36237931E+02</pdfrwt>
<pdfrwt beam="2">  1       21 0.84020996E-02 0.36237931E+02</pdfrwt>
<totfact> 0.32250365E+07</totfact>
</mgrwt>
</event>
<event>
 4    1  0.2736402E+004  0.7550191E+02  0.7546771E-02  0.1342324E+00
         21   -1    0    0  501  502  0.00000000000E+00  0.00000000000E+00  0.10360888047E+04  0.10360888047E+04  0.00000000000E+00 0.  1.
         21   -1    0    0  502  503 -0.00000000000E+00 -0.00000000000E+00 -0.55948932021E+01  0.55948932021E+01  0.00000000000E+00 0. -1.
          2    1    1    2  501    0  0.66767399881E+02 -0.35251284282E+02  0.44812705864E+03  0.45444295507E+03  0.00000000000E+00 0.  1.
         -2    1    1    2    0  503 -0.66767399881E+02  0.35251284282E+02  0.58236685286E+03  0.58724074283E+03  0.00000000000E+00 0. -1.
<mgrwt>
<rscale>  2 0.75501912E+02</rscale>
<asrwt>0</asrwt>
<pdfrwt beam="1">  1       21 0.15939813E+00 0.75501912E+02</pdfrwt>
<pdfrwt beam="2">  1       21 0.86075362E-03 0.75501912E+02</pdfrwt>
<totfact> 0.12287875E+06</totfact>
</mgrwt>
</event>
<event>
 4    1  0.2736402E+004  0.2043219E+02  0.7546771E-02  0.1736867E+00
         21   -1    0    0  501  502  0.00000000000E+00  0.00000000000E+00  0.20864573422E+02  0.20864573422E+02  0.00000000000E+00 0.  1.
         21   -1    0    0  502  503 -0.00000000000E+00 -0.00000000000E+00 -0.24487576087E+02  0.24487576087E+02  0.00000000000E+00 0. -1.
          2    1    1    2  501    0 -0.18280401507E+02  0.91269617841E+01  0.78863600334E+01  0.21901351220E+02  0.00000000000E+00 0.  1.
         -2    1    1    2    0  503  0.18280401507E+02 -0.91269617841E+01 -0.11509362699E+02  0.23450798289E+02  0.00000000000E+00 0. -1.
<mgrwt>
<rscale>  2 0.20432193E+02</rscale>
<asrwt>0</asrwt>
<pdfrwt beam="1">  1       21 0.32099344E-02 0.20432193E+02</pdfrwt>
<pdfrwt beam="2">  1       21 0.37673194E-02 0.20432193E+02</pdfrwt>
<totfact> 0.15557202E+08</totfact>
</mgrwt>
</event>
<event>
 4    1  0.2736402E+004  0.2441849E+02  0.7546771E-02  0.1669498E+00
         21   -1    0    0  503  502  0.00000000000E+00  0.00000000000E+00  0.11471110986E+02  0.11471110986E+02  0.00000000000E+00 0. -1.
         21   -1    0    0  501  503 -0.00000000000E+00 -0.00000000000E+00 -0.95098722545E+02  0.95098722545E+02  0.00000000000E+00 0.  1.
          2    1    1    2  501    0  0.21635320341E+02 -0.11321456861E+02 -0.77693808994E+02  0.81440717259E+02  0.00000000000E+00 0.  1.
         -2    1    1    2    0  502 -0.21635320341E+02  0.11321456861E+02 -0.59338025657E+01  0.25129116272E+02  0.00000000000E+00 0. -1.
<mgrwt>
<rscale>  2 0.24418486E+02</rscale>
<asrwt>0</asrwt>
<pdfrwt beam="1">  1       21 0.17647863E-02 0.24418486E+02</pdfrwt>
<pdfrwt beam="2">  1       21 0.14630573E-01 0.24418486E+02</pdfrwt>
<totfact> 0.45301419E+07</totfact>
</mgrwt>
</event>
<event>
 4    1  0.2736402E+004  0.2084073E+02  0.7546771E-02  0.1729108E+00
         21   -1    0    0  503  502  0.00000000000E+00  0.00000000000E+00  0.76174578891E+02  0.76174578891E+02  0.00000000000E+00 0. -1.
         21   -1    0    0  501  503 -0.00000000000E+00 -0.00000000000E+00 -0.57813183189E+01  0.57813183189E+01  0.00000000000E+00 0.  1.
          2    1    1    2  501    0  0.14212189810E+02  0.15243023074E+02  0.40000943476E+02  0.45104451783E+02  0.00000000000E+00 0. -1.
         -2    1    1    2    0  502 -0.14212189810E+02 -0.15243023074E+02  0.30392317095E+02  0.36851445427E+02  0.00000000000E+00 0.  1.
<mgrwt>
<rscale>  2 0.20840732E+02</rscale>
<asrwt>0</asrwt>
<pdfrwt beam="1">  1       21 0.11719165E-01 0.20840732E+02</pdfrwt>
<pdfrwt beam="2">  1       21 0.88943364E-03 0.20840732E+02</pdfrwt>
<totfact> 0.17732016E+08</totfact>
</mgrwt>
</event>
<event>
 4    1  0.2736402E+004  0.2148020E+02  0.7546771E-02  0.1717400E+00
         21   -1    0    0  503  502  0.00000000000E+00  0.00000000000E+00  0.15367317893E+01  0.15367317893E+01  0.00000000000E+00 0. -1.
         21   -1    0    0  501  503 -0.00000000000E+00 -0.00000000000E+00 -0.50786519271E+03  0.50786519271E+03  0.00000000000E+00 0.  1.
          2    1    1    2  501    0  0.20267978268E+02  0.71139320023E+01 -0.41601475370E+03  0.41656893099E+03  0.00000000000E+00 0.  1.
         -2    1    1    2    0  502 -0.20267978268E+02 -0.71139320023E+01 -0.90313707220E+02  0.92832993507E+02  0.00000000000E+00 0. -1.
<mgrwt>
<rscale>  2 0.21480200E+02</rscale>
<asrwt>0</asrwt>
<pdfrwt beam="1">  1       21 0.23641953E-03 0.21480200E+02</pdfrwt>
<pdfrwt beam="2">  1       21 0.78133351E-01 0.21480200E+02</pdfrwt>
<totfact> 0.38548752E+07</totfact>
</mgrwt>
</event>
<event>
 4    1  0.2736402E+004  0.2643541E+02  0.7546771E-02  0.1641201E+00
         21   -1    0    0  503  502  0.00000000000E+00  0.00000000000E+00  0.79630485499E+02  0.79630485499E+02  0.00000000000E+00 0.  1.
         21   -1    0    0  501  503 -0.00000000000E+00 -0.00000000000E+00 -0.87907411724E+01  0.87907411724E+01  0.00000000000E+00 0. -1.
          2    1    1    2  501    0  0.84304947368E+01 -0.25055095395E+02  0.33604756945E+02  0.42756411638E+02  0.00000000000E+00 0.  1.
         -2    1    1    2    0  502 -0.84304947368E+01  0.25055095395E+02  0.37234987382E+02  0.45664815034E+02  0.00000000000E+00 0. -1.
<mgrwt>
<rscale>  2 0.26435413E+02</rscale>
<asrwt>0</asrwt>
<pdfrwt beam="1">  1       21 0.12250843E-01 0.26435413E+02</pdfrwt>
<pdfrwt beam="2">  1       21 0.13524218E-02 0.26435413E+02</pdfrwt>
<totfact> 0.93692864E+07</totfact>
</mgrwt>
</event>
<event>
 4    1  0.2736402E+004  0.2137203E+02  0.7546771E-02  0.1719344E+00
         21   -1    0    0  503  502  0.00000000000E+00  0.00000000000E+00  0.21994696077E+02  0.21994696077E+02  0.00000000000E+00 0. -1.
         21   -1    0    0  501  503 -0.00000000000E+00 -0.00000000000E+00 -0.22033362539E+02  0.22033362539E+02  0.00000000000E+00 0.  1.
          2    1    1    2  501    0 -0.37526026615E+01  0.21039997384E+02 -0.52969858764E+01  0.22018664265E+02  0.00000000000E+00 0. -1.
         -2    1    1    2    0  502  0.37526026615E+01 -0.21039997384E+02  0.52583194140E+01  0.22009394351E+02  0.00000000000E+00 0.  1.
<mgrwt>
<rscale>  2 0.21372026E+02</rscale>
<asrwt>0</asrwt>
<pdfrwt beam="1">  1       21 0.33837994E-02 0.21372026E+02</pdfrwt>
<pdfrwt beam="2">  1       21 0.33897481E-02 0.21372026E+02</pdfrwt>
<totfact> 0.17141333E+08</totfact>
</mgrwt>
</event>
<event>
 4    1  0.2736402E+004  0.2868868E+02  0.7546771E-02  0.1613053E+00
         21   -1    0    0  501  502  0.00000000000E+00  0.00000000000E+00  0.13485474199E+02  0.13485474199E+02  0.00000000000E+00 0.  1.
         21   -1    0    0  502  503 -0.00000000000E+00 -0.00000000000E+00 -0.84546163389E+02  0.84546163389E+02  0.00000000000E+00 0. -1.
          2    1    1    2  501    0  0.24794774510E+02 -0.14431199152E+02 -0.96805215749E+01  0.30277926778E+02  0.00000000000E+00 0.  1.
         -2    1    1    2    0  503 -0.24794774510E+02  0.14431199152E+02 -0.61380167615E+02  0.67753710810E+02  0.00000000000E+00 0. -1.
<mgrwt>
<rscale>  2 0.28688680E+02</rscale>
<asrwt>0</asrwt>
<pdfrwt beam="1">  1       21 0.20746884E-02 0.28688680E+02</pdfrwt>
<pdfrwt beam="2">  1       21 0.13007102E-01 0.28688680E+02</pdfrwt>
<totfact> 0.44762225E+07</totfact>
</mgrwt>
</event>
<event>
 4    1  0.2736402E+004  0.4623027E+02  0.7546771E-02  0.1466804E+00
         21   -1    0    0  501  502  0.00000000000E+00  0.00000000000E+00  0.81941227764E+01  0.81941227764E+01  0.00000000000E+00 0. -1.
         21   -1    0    0  502  503 -0.00000000000E+00 -0.00000000000E+00 -0.26322840095E+03  0.26322840095E+03  0.00000000000E+00 0.  1.
          2    1    1    2  501    0  0.26026226219E+02  0.38208291672E+02 -0.11455140146E+03  0.12352838370E+03  0.00000000000E+00 0. -1.
         -2    1    1    2    0  503 -0.26026226219E+02 -0.38208291672E+02 -0.14048287672E+03  0.14789414003E+03  0.00000000000E+00 0.  1.
<mgrwt>
<rscale>  2 0.46230272E+02</rscale>
<asrwt>0</asrwt>
<pdfrwt beam="1">  1       21 0.12606345E-02 0.46230272E+02</pdfrwt>
<pdfrwt beam="2">  1       21 0.40496669E-01 0.46230272E+02</pdfrwt>
<totfact> 0.13494975E+07</totfact>
</mgrwt>
</event>
<event>
 4    1  0.2736402E+004  0.2081054E+02  0.7546771E-02  0.1729674E+00
         21   -1    0    0  501  502  0.00000000000E+00  0.00000000000E+00  0.24986019109E+03  0.24986019109E+03  0.00000000000E+00 0. -1.
         21   -1    0    0  502  503 -0.00000000000E+00 -0.00000000000E+00 -0.11658621238E+02  0.11658621238E+02  0.00000000000E+00 0.  1.
          2    1    1    2  501    0 -0.38832311668E+01  0.20445025916E+02  0.23974930190E+03  0.24065079749E+03  0.00000000000E+00 0. -1.
         -2    1    1    2    0  503  0.38832311668E+01 -0.20445025916E+02 -0.15477320468E+01  0.20868014843E+02  0.00000000000E+00 0.  1.
<mgrwt>
<rscale>  2 0.20810540E+02</rscale>
<asrwt>0</asrwt>
<pdfrwt beam="1">  1       21 0.38440026E-01 0.20810540E+02</pdfrwt>
<pdfrwt beam="2">  1       21 0.17936342E-02 0.20810540E+02</pdfrwt>
<totfact> 0.76777347E+06</totfact>
</mgrwt>
</event>
<event>
 4    1  0.2736402E+004  0.2229782E+02  0.7546771E-02  0.1703152E+00
         21   -1    0    0  501  502  0.00000000000E+00  0.00000000000E+00  0.64424150634E+02  0.64424150634E+02  0.00000000000E+00 0.  1.
         21   -1    0    0  502  503 -0.00000000000E+00 -0.00000000000E+00 -0.15988324531E+02  0.15988324531E+02  0.00000000000E+00 0. -1.
          2    1    1    2  501    0  0.17307749357E+02 -0.14058262628E+02  0.53135799145E+02  0.57624700318E+02  0.00000000000E+00 0.  1.
         -2    1    1    2    0  503 -0.17307749357E+02  0.14058262628E+02 -0.46999730420E+01  0.22787774848E+02  0.00000000000E+00 0. -1.
<mgrwt>
<rscale>  2 0.22297824E+02</rscale>
<asrwt>0</asrwt>
<pdfrwt beam="1">  1       21 0.99114076E-02 0.22297824E+02</pdfrwt>
<pdfrwt beam="2">  1       21 0.24597423E-02 0.22297824E+02</pdfrwt>
<totfact> 0.51033878E+07</totfact>
</mgrwt>
</event>
<event>
 4    1  0.2736402E+004  0.2327398E+02  0.7546771E-02  0.1687107E+00
         21   -1    0    0  503  502  0.00000000000E+00  0.00000000000E+00  0.21093781221E+02  0.21093781221E+02  0.00000000000E+00 0. -1.
         21   -1    0    0  501  503 -0.00000000000E+00 -0.00000000000E+00 -0.69388352742E+02  0.69388352742E+02  0.00000000000E+00 0.  1.
          2    1    1    2  501    0  0.18776002791E+02  0.13752810958E+02 -0.60053876766E+02  0.64406103784E+02  0.00000000000E+00 0.  1.
         -2    1    1    2    0  502 -0.18776002791E+02 -0.13752810958E+02  0.11759305244E+02  0.26076030179E+02  0.00000000000E+00 0. -1.
<mgrwt>
<rscale>  2 0.23273979E+02</rscale>
<asrwt>0</asrwt>
<pdfrwt beam="1">  1       21 0.32451971E-02 0.23273979E+02</pdfrwt>
<pdfrwt beam="2">  1       21 0.10675131E-01 0.23273979E+02</pdfrwt>
<totfact> 0.29660947E+07</totfact>
</mgrwt>
</event>
<event>
 4    1  0.2736402E+004  0.2517988E+02  0.7546771E-02  0.1658432E+00
         21   -1    0    0  501  502  0.00000000000E+00  0.00000000000E+00  0.51285049926E+02  0.51285049926E+02  0.00000000000E+00 0.  1.
         21   -1    0    0  502  503 -0.00000000000E+00 -0.00000000000E+00 -0.88226652854E+02  0.88226652854E+02  0.00000000000E+00 0. -1.
          2    1    1    2  501    0 -0.15637320377E+02  0.19735775083E+02  0.46213397064E+02  0.52627983763E+02  0.00000000000E+00 0.  1.
         -2    1    1    2    0  503  0.15637320377E+02 -0.19735775083E+02 -0.83154999992E+02  0.86883719018E+02  0.00000000000E+00 0. -1.
<mgrwt>
<rscale>  2 0.25179885E+02</rscale>
<asrwt>0</asrwt>
<pdfrwt beam="1">  1       21 0.78900077E-02 0.25179885E+02</pdfrwt>
<pdfrwt beam="2">  1       21 0.13573331E-01 0.25179885E+02</pdfrwt>
<totfact> 0.48693354E+06</totfact>
</mgrwt>
</event>
<event>
 4    1  0.2736402E+004  0.2014701E+02  0.7546771E-02  0.1742420E+00
         21   -1    0    0  501  502  0.00000000000E+00  0.00000000000E+00  0.61957874764E+03  0.61957874764E+03  0.00000000000E+00 0. -1.
         21   -1    0    0  502  503 -0.00000000000E+00 -0.00000000000E+00 -0.73199742308E+00  0.73199742308E+00  0.00000000000E+00 0.  1.
          2    1    1    2  501    0  0.21566433584E+01 -0.20031246506E+02  0.40993305788E+03  0.41042784249E+03  0.00000000000E+00 0. -1.
         -2    1    1    2    0  503 -0.21566433584E+01  0.20031246506E+02  0.20891369234E+03  0.20988290258E+03  0.00000000000E+00 0.  1.
<mgrwt>
<rscale>  2 0.20147008E+02</rscale>
<asrwt>0</asrwt>
<pdfrwt beam="1">  1       21 0.95319388E-01 0.20147008E+02</pdfrwt>
<pdfrwt beam="2">  1       21 0.11261548E-03 0.20147008E+02</pdfrwt>
<totfact> 0.72144857E+07</totfact>
</mgrwt>
</event>
<event>
 4    1  0.2736402E+004  0.3477994E+02  0.7546771E-02  0.1550563E+00
         21   -1    0    0  501  502  0.00000000000E+00  0.00000000000E+00  0.41850873235E+03  0.41850873235E+03  0.00000000000E+00 0.  1.
         21   -1    0    0  502  503 -0.00000000000E+00 -0.00000000000E+00 -0.17365993510E+02  0.17365993510E+02  0.00000000000E+00 0. -1.
          2    1    1    2  501    0  0.26065522545E+02 -0.23026785835E+02  0.39954729838E+03  0.40105821021E+03  0.00000000000E+00 0.  1.
         -2    1    1    2    0  503 -0.26065522545E+02  0.23026785835E+02  0.15954404523E+01  0.34816515645E+02  0.00000000000E+00 0. -1.
<mgrwt>
<rscale>  2 0.34779942E+02</rscale>
<asrwt>0</asrwt>
<pdfrwt beam="1">  1       21 0.64385951E-01 0.34779942E+02</pdfrwt>
<pdfrwt beam="2">  1       21 0.26716916E-02 0.34779942E+02</pdfrwt>
<totfact> 0.16114971E+06</totfact>
</mgrwt>
</event>
<event>
 4    1  0.2736402E+004  0.2458847E+02  0.7546771E-02  0.1666984E+00
         21   -1    0    0  503  502  0.00000000000E+00  0.00000000000E+00  0.21492220609E+02  0.21492220609E+02  0.00000000000E+00 0. -1.
         21   -1    0    0  501  503 -0.00000000000E+00 -0.00000000000E+00 -0.36938671350E+02  0.36938671350E+02  0.00000000000E+00 0.  1.
          2    1    1    2  501    0  0.24516756847E+02  0.18765920176E+01 -0.21989409343E+02  0.32986771397E+02  0.00000000000E+00 0.  1.
         -2    1    1    2    0  502 -0.24516756847E+02 -0.18765920176E+01  0.65429586025E+01  0.25444120562E+02  0.00000000000E+00 0. -1.
<mgrwt>
<rscale>  2 0.24588472E+02</rscale>
<asrwt>0</asrwt>
<pdfrwt beam="1">  1       21 0.33064955E-02 0.24588472E+02</pdfrwt>
<pdfrwt beam="2">  1       21 0.56828724E-02 0.24588472E+02</pdfrwt>
<totfact> 0.81767770E+07</totfact>
</mgrwt>
</event>
<event>
 4    1  0.2736402E+004  0.3719889E+02  0.7546771E-02  0.1529898E+00
         21   -1    0    0  503  502  0.00000000000E+00  0.00000000000E+00  0.12651606054E+02  0.12651606054E+02  0.00000000000E+00 0. -1.
         21   -1    0    0  501  503 -0.00000000000E+00 -0.00000000000E+00 -0.11531617403E+03  0.11531617403E+03  0.00000000000E+00 0.  1.
          2    1    1    2  501    0 -0.33663249289E+02  0.15828558596E+02 -0.65856601328E+02  0.75636297890E+02  0.00000000000E+00 0.  1.
         -2    1    1    2    0  502  0.33663249289E+02 -0.15828558596E+02 -0.36807966644E+02  0.52331482192E+02  0.00000000000E+00 0. -1.
<mgrwt>
<rscale>  2 0.37198893E+02</rscale>
<asrwt>0</asrwt>
<pdfrwt beam="1">  1       21 0.19464010E-02 0.37198893E+02</pdfrwt>
<pdfrwt beam="2">  1       21 0.17740949E-01 0.37198893E+02</pdfrwt>
<totfact> 0.30432049E+07</totfact>
</mgrwt>
</event>
<event>
 4    1  0.2736402E+004  0.4180990E+02  0.7546771E-02  0.1495300E+00
         21   -1    0    0  501  502  0.00000000000E+00  0.00000000000E+00  0.11020094315E+02  0.11020094315E+02  0.00000000000E+00 0.  1.
         21   -1    0    0  502  503 -0.00000000000E+00 -0.00000000000E+00 -0.30570150577E+03  0.30570150577E+03  0.00000000000E+00 0. -1.
          2    1    1    2  501    0 -0.30557110176E+02  0.28536474859E+02 -0.37498336725E+02  0.56162199359E+02  0.00000000000E+00 0.  1.
         -2    1    1    2    0  503  0.30557110176E+02 -0.28536474859E+02 -0.25718307473E+03  0.26055940073E+03  0.00000000000E+00 0. -1.
<mgrwt>
<rscale>  2 0.41809896E+02</rscale>
<asrwt>0</asrwt>
<pdfrwt beam="1">  1       21 0.16953990E-02 0.41809896E+02</pdfrwt>
<pdfrwt beam="2">  1       21 0.47031006E-01 0.41809896E+02</pdfrwt>
<totfact> 0.62853901E+06</totfact>
</mgrwt>
</event>
<event>
 4    1  0.2736402E+004  0.2052300E+02  0.7546771E-02  0.1735123E+00
         21   -1    0    0  501  502  0.00000000000E+00  0.00000000000E+00  0.32994924911E+03  0.32994924911E+03  0.00000000000E+00 0.  1.
         21   -1    0    0  502  503 -0.00000000000E+00 -0.00000000000E+00 -0.15846182994E+01  0.15846182994E+01  0.00000000000E+00 0. -1.
          2    1    1    2  501    0 -0.51974004935E+01 -0.19853976252E+02  0.23727371421E+03  0.23815962882E+03  0.00000000000E+00 0.  1.
         -2    1    1    2    0  503  0.51974004935E+01  0.19853976252E+02  0.91090916602E+02  0.93374238590E+02  0.00000000000E+00 0. -1.
<mgrwt>
<rscale>  2 0.20522996E+02</rscale>
<asrwt>0</asrwt>
<pdfrwt beam="1">  1       21 0.50761369E-01 0.20522996E+02</pdfrwt>
<pdfrwt beam="2">  1       21 0.24378769E-03 0.20522996E+02</pdfrwt>
<totfact> 0.86688163E+07</totfact>
</mgrwt>
</event>
<event>
 4    1  0.2736402E+004  0.4606337E+02  0.7546771E-02  0.1467810E+00
         21   -1    0    0  503  502  0.00000000000E+00  0.00000000000E+00  0.49964379902E+02  0.49964379902E+02  0.00000000000E+00 0.  1.
         21   -1    0    0  501  503 -0.00000000000E+00 -0.00000000000E+00 -0.85397759696E+02  0.85397759696E+02  0.00000000000E+00 0. -1.
          2    1    1    2  501    0  0.40097655152E+02  0.22671838090E+02 -0.65704240123E+02  0.80242640542E+02  0.00000000000E+00 0. -1.
         -2    1    1    2    0  502 -0.40097655152E+02 -0.22671838090E+02  0.30270860329E+02  0.55119499056E+02  0.00000000000E+00 0.  1.
<mgrwt>
<rscale>  2 0.46063371E+02</rscale>
<asrwt>0</asrwt>
<pdfrwt beam="1">  1       21 0.76868277E-02 0.46063371E+02</pdfrwt>
<pdfrwt beam="2">  1       21 0.13138117E-01 0.46063371E+02</pdfrwt>
<totfact> 0.58095213E+06</totfact>
</mgrwt>
</event>
<event>
 4    1  0.2736402E+004  0.2126103E+02  0.7546771E-02  0.1721355E+00
         21   -1    0    0  503  502  0.00000000000E+00  0.00000000000E+00  0.26381714852E+03  0.26381714852E+03  0.00000000000E+00 0. -1.
         21   -1    0    0  501  503 -0.00000000000E+00 -0.00000000000E+00 -0.38987784275E+01  0.38987784275E+01  0.00000000000E+00 0.  1.
          2    1    1    2  501    0 -0.13215334223E+02 -0.16654913395E+02  0.29742354309E+02  0.36560071645E+02  0.00000000000E+00 0.  1.
         -2    1    1    2    0  502  0.13215334223E+02  0.16654913395E+02  0.23017601579E+03  0.23115585531E+03  0.00000000000E+00 0. -1.
<mgrwt>
<rscale>  2 0.21261025E+02</rscale>
<asrwt>0</asrwt>
<pdfrwt beam="1">  1       21 0.40587240E-01 0.21261025E+02</pdfrwt>
<pdfrwt beam="2">  1       21 0.59981227E-03 0.21261025E+02</pdfrwt>
<totfact> 0.35985455E+07</totfact>
</mgrwt>
</event>
<event>
 4    1  0.2736402E+004  0.2241526E+02  0.7546771E-02  0.1701168E+00
         21   -1    0    0  501  502  0.00000000000E+00  0.00000000000E+00  0.19621872195E+01  0.19621872195E+01  0.00000000000E+00 0.  1.
         21   -1    0    0  502  503 -0.00000000000E+00 -0.00000000000E+00 -0.61098609887E+03  0.61098609887E+03  0.00000000000E+00 0. -1.
          2    1    1    2  501    0 -0.51222914236E+01 -0.21822145070E+02 -0.70926820872E+02  0.74384526643E+02  0.00000000000E+00 0.  1.
         -2    1    1    2    0  503  0.51222914236E+01  0.21822145070E+02 -0.53809709078E+03  0.53856375944E+03  0.00000000000E+00 0. -1.
<mgrwt>
<rscale>  2 0.22415260E+02</rscale>
<asrwt>0</asrwt>
<pdfrwt beam="1">  1       21 0.30187471E-03 0.22415260E+02</pdfrwt>
<pdfrwt beam="2">  1       21 0.93997937E-01 0.22415260E+02</pdfrwt>
<totfact> 0.18439150E+07</totfact>
</mgrwt>
</event>
<event>
 4    1  0.2736402E+004  0.2069919E+02  0.7546771E-02  0.1731771E+00
         21   -1    0    0  503  502  0.00000000000E+00  0.00000000000E+00  0.16691015274E+03  0.16691015274E+03  0.00000000000E+00 0. -1.
         21   -1    0    0  501  503 -0.00000000000E+00 -0.00000000000E+00 -0.25671228812E+01  0.25671228812E+01  0.00000000000E+00 0.  1.
          2    1    1    2  501    0 -0.20060383882E+02 -0.51026984787E+01  0.82783369319E+02  0.85331956318E+02  0.00000000000E+00 0. -1.
         -2    1    1    2    0  502  0.20060383882E+02  0.51026984787E+01  0.81559660543E+02  0.84145319307E+02  0.00000000000E+00 0.  1.
<mgrwt>
<rscale>  2 0.20699192E+02</rscale>
<asrwt>0</asrwt>
<pdfrwt beam="1">  1       21 0.25678477E-01 0.20699192E+02</pdfrwt>
<pdfrwt beam="2">  1       21 0.39494211E-03 0.20699192E+02</pdfrwt>
<totfact> 0.15245800E+08</totfact>
</mgrwt>
</event>
<event>
 4    1  0.2736402E+004  0.3200530E+02  0.7546771E-02  0.1576925E+00
         21   -1    0    0  503  502  0.00000000000E+00  0.00000000000E+00  0.34384645789E+03  0.34384645789E+03  0.00000000000E+00 0. -1.
         21   -1    0    0  501  503 -0.00000000000E+00 -0.00000000000E+00 -0.34303241319E+01  0.34303241319E+01  0.00000000000E+00 0.  1.
          2    1    1    2  501    0  0.28259433479E+02  0.15024771853E+02  0.10722940742E+03  0.11190391041E+03  0.00000000000E+00 0.  1.
         -2    1    1    2    0  502 -0.28259433479E+02 -0.15024771853E+02  0.23318672633E+03  0.23537287160E+03  0.00000000000E+00 0. -1.
<mgrwt>
<rscale>  2 0.32005302E+02</rscale>
<asrwt>0</asrwt>
<pdfrwt beam="1">  1       21 0.52899428E-01 0.32005302E+02</pdfrwt>
<pdfrwt beam="2">  1       21 0.52774244E-03 0.32005302E+02</pdfrwt>
<totfact> 0.28364515E+07</totfact>
</mgrwt>
</event>
<event>
 4    1  0.2736402E+004  0.3735729E+02  0.7546771E-02  0.1528611E+00
         21   -1    0    0  503  502  0.00000000000E+00  0.00000000000E+00  0.97007199417E+03  0.97007199417E+03  0.00000000000E+00 0.  1.
         21   -1    0    0  501  503 -0.00000000000E+00 -0.00000000000E+00 -0.43659968717E+01  0.43659968717E+01  0.00000000000E+00 0. -1.
          2    1    1    2  501    0 -0.74917793215E+01  0.36598361994E+02  0.83900052626E+02  0.91841089326E+02  0.00000000000E+00 0. -1.
         -2    1    1    2    0  502  0.74917793215E+01 -0.36598361994E+02  0.88180594467E+03  0.88259690171E+03  0.00000000000E+00 0.  1.
<mgrwt>
<rscale>  2 0.37357287E+02</rscale>
<asrwt>0</asrwt>
<pdfrwt beam="1">  1       21 0.14924167E+00 0.37357287E+02</pdfrwt>
<pdfrwt beam="2">  1       21 0.67169260E-03 0.37357287E+02</pdfrwt>
<totfact> 0.20800951E+06</totfact>
</mgrwt>
</event>
<event>
 4    1  0.2736402E+004  0.2653337E+02  0.7546771E-02  0.1639907E+00
         21   -1    0    0  501  502  0.00000000000E+00  0.00000000000E+00  0.36188079115E+02  0.36188079115E+02  0.00000000000E+00 0. -1.
         21   -1    0    0  502  503 -0.00000000000E+00 -0.00000000000E+00 -0.27489447655E+02  0.27489447655E+02  0.00000000000E+00 0.  1.
          2    1    1    2  501    0  0.39503868171E+01 -0.26237645837E+02  0.21562678979E+02  0.34190184847E+02  0.00000000000E+00 0. -1.
         -2    1    1    2    0  503 -0.39503868171E+01  0.26237645837E+02 -0.12864047519E+02  0.29487341923E+02  0.00000000000E+00 0.  1.
<mgrwt>
<rscale>  2 0.26533368E+02</rscale>
<asrwt>0</asrwt>
<pdfrwt beam="1">  1       21 0.55673968E-02 0.26533368E+02</pdfrwt>
<pdfrwt beam="2">  1       21 0.42291458E-02 0.26533368E+02</pdfrwt>
<totfact> 0.58423652E+07</totfact>
</mgrwt>
</event>
<event>
 4    1  0.2736402E+004  0.2678957E+02  0.7546771E-02  0.1636553E+00
         21   -1    0    0  501  502  0.00000000000E+00  0.00000000000E+00  0.37083506846E+03  0.37083506846E+03  0.00000000000E+00 0. -1.
         21   -1    0    0  502  503 -0.00000000000E+00 -0.00000000000E+00 -0.70067121828E+01  0.70067121828E+01  0.00000000000E+00 0.  1.
          2    1    1    2  501    0 -0.62914504150E+01  0.26040331281E+02  0.34264043354E+03  0.34368611828E+03  0.00000000000E+00 0. -1.
         -2    1    1    2    0  503  0.62914504150E+01 -0.26040331281E+02  0.21187922737E+02  0.34155662363E+02  0.00000000000E+00 0.  1.
<mgrwt>
<rscale>  2 0.26789573E+02</rscale>
<asrwt>0</asrwt>
<pdfrwt beam="1">  1       21 0.57051534E-01 0.26789573E+02</pdfrwt>
<pdfrwt beam="2">  1       21 0.10779560E-02 0.26789573E+02</pdfrwt>
<totfact> 0.81020769E+06</totfact>
</mgrwt>
</event>
<event>
 4    1  0.2736402E+004  0.2801344E+02  0.7546771E-02  0.1621146E+00
         21   -1    0    0  503  502  0.00000000000E+00  0.00000000000E+00  0.46849741294E+02  0.46849741294E+02  0.00000000000E+00 0.  1.
         21   -1    0    0  501  503 -0.00000000000E+00 -0.00000000000E+00 -0.21176767392E+02  0.21176767392E+02  0.00000000000E+00 0. -1.
          2    1    1    2  501    0  0.15168680252E+02 -0.23551300993E+02 -0.27139041200E+01  0.28144589438E+02  0.00000000000E+00 0. -1.
         -2    1    1    2    0  502 -0.15168680252E+02  0.23551300993E+02  0.28386878022E+02  0.39881919248E+02  0.00000000000E+00 0.  1.
<mgrwt>
<rscale>  2 0.28013437E+02</rscale>
<asrwt>0</asrwt>
<pdfrwt beam="1">  1       21 0.72076525E-02 0.28013437E+02</pdfrwt>
<pdfrwt beam="2">  1       21 0.32579642E-02 0.28013437E+02</pdfrwt>
<totfact> 0.58824445E+07</totfact>
</mgrwt>
</event>
<event>
 4    1  0.2736402E+004  0.3111879E+02  0.7546771E-02  0.1586041E+00
         21   -1    0    0  501  502  0.00000000000E+00  0.00000000000E+00  0.47897743910E+02  0.47897743910E+02  0.00000000000E+00 0. -1.
         21   -1    0    0  502  503 -0.00000000000E+00 -0.00000000000E+00 -0.94626817168E+02  0.94626817168E+02  0.00000000000E+00 0.  1.
          2    1    1    2  501    0 -0.65196549987E+01 -0.30428169027E+02  0.39828008833E+02  0.50543542211E+02  0.00000000000E+00 0. -1.
         -2    1    1    2    0  503  0.65196549987E+01  0.30428169027E+02 -0.86557082091E+02  0.91981018867E+02  0.00000000000E+00 0.  1.
<mgrwt>
<rscale>  2 0.31118795E+02</rscale>
<asrwt>0</asrwt>
<pdfrwt beam="1">  1       21 0.73688837E-02 0.31118795E+02</pdfrwt>
<pdfrwt beam="2">  1       21 0.14557972E-01 0.31118795E+02</pdfrwt>
<totfact> 0.49804144E+06</totfact>
</mgrwt>
</event>
<event>
 4    1  0.2736402E+004  0.2228460E+02  0.7546771E-02  0.1703376E+00
         21   -1    0    0  503  502  0.00000000000E+00  0.00000000000E+00  0.24875064179E+02  0.24875064179E+02  0.00000000000E+00 0.  1.
         21   -1    0    0  501  503 -0.00000000000E+00 -0.00000000000E+00 -0.24132649547E+02  0.24132649547E+02  0.00000000000E+00 0. -1.
          2    1    1    2  501    0 -0.19531266724E+02 -0.10730012762E+02 -0.98131657931E+01  0.24349574465E+02  0.00000000000E+00 0. -1.
         -2    1    1    2    0  502  0.19531266724E+02  0.10730012762E+02  0.10555580425E+02  0.24658139261E+02  0.00000000000E+00 0.  1.
<mgrwt>
<rscale>  2 0.22284604E+02</rscale>
<asrwt>0</asrwt>
<pdfrwt beam="1">  1       21 0.38269330E-02 0.22284604E+02</pdfrwt>
<pdfrwt beam="2">  1       21 0.37127153E-02 0.22284604E+02</pdfrwt>
<totfact> 0.12419585E+08</totfact>
</mgrwt>
</event>
<event>
 4    1  0.2736402E+004  0.2542042E+02  0.7546771E-02  0.1655036E+00
         21   -1    0    0  501  502  0.00000000000E+00  0.00000000000E+00  0.45033433647E+02  0.45033433647E+02  0.00000000000E+00 0. -1.
         21   -1    0    0  502  503 -0.00000000000E+00 -0.00000000000E+00 -0.19209287902E+02  0.19209287902E+02  0.00000000000E+00 0.  1.
          2    1    1    2  501    0  0.22469598363E+02 -0.11887591131E+02  0.29068914499E+02  0.38616051891E+02  0.00000000000E+00 0. -1.
         -2    1    1    2    0  503 -0.22469598363E+02  0.11887591131E+02 -0.32447687542E+01  0.25626669658E+02  0.00000000000E+00 0.  1.
<mgrwt>
<rscale>  2 0.25420418E+02</rscale>
<asrwt>0</asrwt>
<pdfrwt beam="1">  1       21 0.69282205E-02 0.25420418E+02</pdfrwt>
<pdfrwt beam="2">  1       21 0.29552751E-02 0.25420418E+02</pdfrwt>
<totfact> 0.71378840E+07</totfact>
</mgrwt>
</event>
<event>
 4    1  0.2736402E+004  0.2083490E+02  0.7546771E-02  0.1729217E+00
         21   -1    0    0  501  502  0.00000000000E+00  0.00000000000E+00  0.13977683535E+03  0.13977683535E+03  0.00000000000E+00 0. -1.
         21   -1    0    0  502  503 -0.00000000000E+00 -0.00000000000E+00 -0.71717807244E+01  0.71717807244E+01  0.00000000000E+00 0.  1.
          2    1    1    2  501    0 -0.20126137270E+02 -0.53880882738E+01  0.12162665747E+03  0.12339828485E+03  0.00000000000E+00 0. -1.
         -2    1    1    2    0  503  0.20126137270E+02  0.53880882738E+01  0.10978397156E+02  0.23550331224E+02  0.00000000000E+00 0.  1.
<mgrwt>
<rscale>  2 0.20834896E+02</rscale>
<asrwt>0</asrwt>
<pdfrwt beam="1">  1       21 0.21504126E-01 0.20834896E+02</pdfrwt>
<pdfrwt beam="2">  1       21 0.11033510E-02 0.20834896E+02</pdfrwt>
<totfact> 0.45644023E+07</totfact>
</mgrwt>
</event>
<event>
 4    1  0.2736402E+004  0.2023962E+02  0.7546771E-02  0.1740604E+00
         21   -1    0    0  503  502  0.00000000000E+00  0.00000000000E+00  0.11162946351E+02  0.11162946351E+02  0.00000000000E+00 0.  1.
         21   -1    0    0  501  503 -0.00000000000E+00 -0.00000000000E+00 -0.78657061783E+02  0.78657061783E+02  0.00000000000E+00 0. -1.
          2    1    1    2  501    0  0.81310333383E+00  0.20223284089E+02 -0.66548601281E+02  0.69558311429E+02  0.00000000000E+00 0. -1.
         -2    1    1    2    0  502 -0.81310333383E+00 -0.20223284089E+02 -0.94551415106E+00  0.20261696705E+02  0.00000000000E+00 0.  1.
<mgrwt>
<rscale>  2 0.20239623E+02</rscale>
<asrwt>0</asrwt>
<pdfrwt beam="1">  1       21 0.17173763E-02 0.20239623E+02</pdfrwt>
<pdfrwt beam="2">  1       21 0.12101087E-01 0.20239623E+02</pdfrwt>
<totfact> 0.61911924E+07</totfact>
</mgrwt>
</event>
<event>
 4    1  0.2736402E+004  0.2010790E+02  0.7546771E-02  0.1743191E+00
         21   -1    0    0  501  502  0.00000000000E+00  0.00000000000E+00  0.22493688712E+03  0.22493688712E+03  0.00000000000E+00 0. -1.
         21   -1    0    0  502  503 -0.00000000000E+00 -0.00000000000E+00 -0.20488418039E+01  0.20488418039E+01  0.00000000000E+00 0.  1.
          2    1    1    2  501    0  0.16980667444E+02  0.10769612724E+02  0.15119364381E+03  0.15252490142E+03  0.00000000000E+00 0.  1.
         -2    1    1    2    0  503 -0.16980667444E+02 -0.10769612724E+02  0.71694401509E+02  0.74460827505E+02  0.00000000000E+00 0. -1.
<mgrwt>
<rscale>  2 0.20107900E+02</rscale>
<asrwt>0</asrwt>
<pdfrwt beam="1">  1       21 0.34605655E-01 0.20107900E+02</pdfrwt>
<pdfrwt beam="2">  1       21 0.31520661E-03 0.20107900E+02</pdfrwt>
<totfact> 0.12240029E+08</totfact>
</mgrwt>
</event>
<event>
 4    1  0.2736402E+004  0.2423541E+02  0.7546771E-02  0.1672233E+00
         21   -1    0    0  501  502  0.00000000000E+00  0.00000000000E+00  0.31694558050E+03  0.31694558050E+03  0.00000000000E+00 0. -1.
         21   -1    0    0  502  503 -0.00000000000E+00 -0.00000000000E+00 -0.12680064521E+02  0.12680064521E+02  0.00000000000E+00 0.  1.
          2    1    1    2  501    0  0.17691921628E+02 -0.16563546308E+02  0.30442653146E+03  0.30538969893E+03  0.00000000000E+00 0. -1.
         -2    1    1    2    0  503 -0.17691921628E+02  0.16563546308E+02 -0.16101547420E+00  0.24235946096E+02  0.00000000000E+00 0.  1.
<mgrwt>
<rscale>  2 0.24235411E+02</rscale>
<asrwt>0</asrwt>
<pdfrwt beam="1">  1       21 0.48760853E-01 0.24235411E+02</pdfrwt>
<pdfrwt beam="2">  1       21 0.19507794E-02 0.24235411E+02</pdfrwt>
<totfact> 0.44033704E+06</totfact>
</mgrwt>
</event>
<event>
 4    1  0.2736402E+004  0.2552841E+02  0.7546771E-02  0.1653526E+00
         21   -1    0    0  501  502  0.00000000000E+00  0.00000000000E+00  0.78766351646E+03  0.78766351646E+03  0.00000000000E+00 0. -1.
         21   -1    0    0  502  503 -0.00000000000E+00 -0.00000000000E+00 -0.92068161279E+00  0.92068161279E+00  0.00000000000E+00 0.  1.
          2    1    1    2  501    0  0.25114898994E+02 -0.45762071310E+01  0.51888759128E+03  0.51951518958E+03  0.00000000000E+00 0. -1.
         -2    1    1    2    0  503 -0.25114898994E+02  0.45762071310E+01  0.26785524357E+03  0.26906900849E+03  0.00000000000E+00 0.  1.
<mgrwt>
<rscale>  2 0.25528412E+02</rscale>
<asrwt>0</asrwt>
<pdfrwt beam="1">  1       21 0.12117846E+00 0.25528412E+02</pdfrwt>
<pdfrwt beam="2">  1       21 0.14164396E-03 0.25528412E+02</pdfrwt>
<totfact> 0.32140989E+07</totfact>
</mgrwt>
</event>
<event>
 4    1  0.2736402E+004  0.2529524E+02  0.7546771E-02  0.1656797E+00
         21   -1    0    0  503  502  0.00000000000E+00  0.00000000000E+00  0.10603560155E+02  0.10603560155E+02  0.00000000000E+00 0.  1.
         21   -1    0    0  501  503 -0.00000000000E+00 -0.00000000000E+00 -0.12527037318E+03  0.12527037318E+03  0.00000000000E+00 0. -1.
          2    1    1    2  501    0  0.12375241571E+02  0.22061336800E+02 -0.10624325737E+03  0.10921299796E+03  0.00000000000E+00 0. -1.
         -2    1    1    2    0  502 -0.12375241571E+02 -0.22061336800E+02 -0.84235556504E+01  0.26660935376E+02  0.00000000000E+00 0.  1.
<mgrwt>
<rscale>  2 0.25295240E+02</rscale>
<asrwt>0</asrwt>
<pdfrwt beam="1">  1       21 0.16313169E-02 0.25295240E+02</pdfrwt>
<pdfrwt beam="2">  1       21 0.19272366E-01 0.25295240E+02</pdfrwt>
<totfact> 0.32025099E+07</totfact>
</mgrwt>
</event>
<event>
 4    1  0.2736402E+004  0.2266649E+02  0.7546771E-02  0.1696974E+00
         21   -1    0    0  501  502  0.00000000000E+00  0.00000000000E+00  0.63657960833E+03  0.63657960833E+03  0.00000000000E+00 0.  1.
         21   -1    0    0  502  503 -0.00000000000E+00 -0.00000000000E+00 -0.25897609870E+01  0.25897609870E+01  0.00000000000E+00 0. -1.
          2    1    1    2  501    0 -0.21489418535E+02  0.72093403189E+01  0.58214583190E+03  0.58258693711E+03  0.00000000000E+00 0.  1.
         -2    1    1    2    0  503  0.21489418535E+02 -0.72093403189E+01  0.51844015444E+02  0.56582432204E+02  0.00000000000E+00 0. -1.
<mgrwt>
<rscale>  2 0.22666488E+02</rscale>
<asrwt>0</asrwt>
<pdfrwt beam="1">  1       21 0.97935200E-01 0.22666488E+02</pdfrwt>
<pdfrwt beam="2">  1       21 0.39842527E-03 0.22666488E+02</pdfrwt>
<totfact> 0.11270382E+07</totfact>
</mgrwt>
</event>
<event>
 4    1  0.2736402E+004  0.2234406E+02  0.7546771E-02  0.1702369E+00
         21   -1    0    0  501  502  0.00000000000E+00  0.00000000000E+00  0.26983373730E+03  0.26983373730E+03  0.00000000000E+00 0.  1.
         21   -1    0    0  502  503 -0.00000000000E+00 -0.00000000000E+00 -0.34215738850E+01  0.34215738850E+01  0.00000000000E+00 0. -1.
          2    1    1    2  501    0  0.21668597211E+02 -0.54524039293E+01  0.22579522753E+03  0.22689808635E+03  0.00000000000E+00 0.  1.
         -2    1    1    2    0  503 -0.21668597211E+02  0.54524039293E+01  0.40616935881E+02  0.46357224831E+02  0.00000000000E+00 0. -1.
<mgrwt>
<rscale>  2 0.22344055E+02</rscale>
<asrwt>0</asrwt>
<pdfrwt beam="1">  1       21 0.41512866E-01 0.22344055E+02</pdfrwt>
<pdfrwt beam="2">  1       21 0.52639620E-03 0.22344055E+02</pdfrwt>
<totfact> 0.42311004E+07</totfact>
</mgrwt>
</event>
<event>
 4    1  0.2736402E+004  0.2392165E+02  0.7546771E-02  0.1676992E+00
         21   -1    0    0  501  502  0.00000000000E+00  0.00000000000E+00  0.27339035464E+03  0.27339035464E+03  0.00000000000E+00 0. -1.
         21   -1    0    0  502  503 -0.00000000000E+00 -0.00000000000E+00 -0.26601385541E+01  0.26601385541E+01  0.00000000000E+00 0.  1.
          2    1    1    2  501    0  0.22821573533E+02 -0.71708669927E+01  0.19908801895E+03  0.20052003601E+03  0.00000000000E+00 0.  1.
         -2    1    1    2    0  503 -0.22821573533E+02  0.71708669927E+01  0.71642197131E+02  0.75530457180E+02  0.00000000000E+00 0. -1.
<mgrwt>
<rscale>  2 0.23921654E+02</rscale>
<asrwt>0</asrwt>
<pdfrwt beam="1">  1       21 0.42060032E-01 0.23921654E+02</pdfrwt>
<pdfrwt beam="2">  1       21 0.40925230E-03 0.23921654E+02</pdfrwt>
<totfact> 0.60778141E+07</totfact>
</mgrwt>
</event>
<event>
 4    1  0.2736402E+004  0.2603081E+02  0.7546771E-02  0.1646623E+00
         21   -1    0    0  503  502  0.00000000000E+00  0.00000000000E+00  0.51141550077E+01  0.51141550077E+01  0.00000000000E+00 0. -1.
         21   -1    0    0  501  503 -0.00000000000E+00 -0.00000000000E+00 -0.13407135409E+03  0.13407135409E+03  0.00000000000E+00 0.  1.
          2    1    1    2  501    0  0.25858079408E+02  0.29937864952E+01 -0.72023273305E+02  0.76582993711E+02  0.00000000000E+00 0.  1.
         -2    1    1    2    0  502 -0.25858079408E+02 -0.29937864952E+01 -0.56933925779E+02  0.62602515388E+02  0.00000000000E+00 0. -1.
<mgrwt>
<rscale>  2 0.26030809E+02</rscale>
<asrwt>0</asrwt>
<pdfrwt beam="1">  1       21 0.78679313E-03 0.26030809E+02</pdfrwt>
<pdfrwt beam="2">  1       21 0.20626361E-01 0.26030809E+02</pdfrwt>
<totfact> 0.86288112E+07</totfact>
</mgrwt>
</event>
<event>
 4    1  0.2736402E+004  0.3760272E+02  0.7546771E-02  0.1526632E+00
         21   -1    0    0  503  502  0.00000000000E+00  0.00000000000E+00  0.13687842473E+01  0.13687842473E+01  0.00000000000E+00 0. -1.
         21   -1    0    0  501  503 -0.00000000000E+00 -0.00000000000E+00 -0.10913348621E+04  0.10913348621E+04  0.00000000000E+00 0.  1.
          2    1    1    2  501    0  0.36162521190E+02  0.10307106731E+02 -0.67129066277E+03  0.67234300644E+03  0.00000000000E+00 0.  1.
         -2    1    1    2    0  502 -0.36162521190E+02 -0.10307106731E+02 -0.41867541513E+03  0.42036063996E+03  0.00000000000E+00 0. -1.
<mgrwt>
<rscale>  2 0.37602718E+02</rscale>
<asrwt>0</asrwt>
<pdfrwt beam="1">  1       21 0.21058143E-03 0.37602718E+02</pdfrwt>
<pdfrwt beam="2">  1       21 0.16789828E+00 0.37602718E+02</pdfrwt>
<totfact> 0.87289043E+06</totfact>
</mgrwt>
</event>
<event>
 4    1  0.2736402E+004  0.2976650E+02  0.7546771E-02  0.1600684E+00
         21   -1    0    0  501  502  0.00000000000E+00  0.00000000000E+00  0.12881576943E+01  0.12881576943E+01  0.00000000000E+00 0.  1.
         21   -1    0    0  502  503 -0.00000000000E+00 -0.00000000000E+00 -0.70855289620E+03  0.70855289620E+03  0.00000000000E+00 0. -1.
          2    1    1    2  501    0 -0.11584433317E+02 -0.27419803743E+02 -0.29294771675E+03  0.29445612489E+03  0.00000000000E+00 0. -1.
         -2    1    1    2    0  503  0.11584433317E+02  0.27419803743E+02 -0.41431702175E+03  0.41538492900E+03  0.00000000000E+00 0.  1.
<mgrwt>
<rscale>  2 0.29766504E+02</rscale>
<asrwt>0</asrwt>
<pdfrwt beam="1">  1       21 0.19817810E-03 0.29766504E+02</pdfrwt>
<pdfrwt beam="2">  1       21 0.10900814E+00 0.29766504E+02</pdfrwt>
<totfact> 0.25802847E+07</totfact>
</mgrwt>
</event>
<event>
 4    1  0.2736402E+004  0.3226171E+02  0.7546771E-02  0.1574355E+00
         21   -1    0    0  503  502  0.00000000000E+00  0.00000000000E+00  0.48736810988E+01  0.48736810988E+01  0.00000000000E+00 0.  1.
         21   -1    0    0  501  503 -0.00000000000E+00 -0.00000000000E+00 -0.39757656420E+03  0.39757656420E+03  0.00000000000E+00 0. -1.
          2    1    1    2  501    0 -0.32196381890E+02  0.20520377608E+01 -0.33325085766E+03  0.33480882903E+03  0.00000000000E+00 0. -1.
         -2    1    1    2    0  502  0.32196381890E+02 -0.20520377608E+01 -0.59452025445E+02  0.67641416272E+02  0.00000000000E+00 0.  1.
<mgrwt>
<rscale>  2 0.32261709E+02</rscale>
<asrwt>0</asrwt>
<pdfrwt beam="1">  1       21 0.74979710E-03 0.32261709E+02</pdfrwt>
<pdfrwt beam="2">  1       21 0.61165625E-01 0.32261709E+02</pdfrwt>
<totfact> 0.12527114E+07</totfact>
</mgrwt>
</event>
<event>
 4    1  0.2736402E+004  0.2222752E+02  0.7546771E-02  0.1704347E+00
         21   -1    0    0  501  502  0.00000000000E+00  0.00000000000E+00  0.18431966116E+01  0.18431966116E+01  0.00000000000E+00 0.  1.
         21   -1    0    0  502  503 -0.00000000000E+00 -0.00000000000E+00 -0.31588237015E+03  0.31588237015E+03  0.00000000000E+00 0. -1.
          2    1    1    2  501    0  0.18318788342E+02  0.12589065141E+02 -0.95198604461E+02  0.97759075583E+02  0.00000000000E+00 0.  1.
         -2    1    1    2    0  503 -0.18318788342E+02 -0.12589065141E+02 -0.21884056908E+03  0.21996649118E+03  0.00000000000E+00 0. -1.
<mgrwt>
<rscale>  2 0.22227518E+02</rscale>
<asrwt>0</asrwt>
<pdfrwt beam="1">  1       21 0.28356858E-03 0.22227518E+02</pdfrwt>
<pdfrwt beam="2">  1       21 0.48597309E-01 0.22227518E+02</pdfrwt>
<totfact> 0.77348836E+07</totfact>
</mgrwt>
</event>
<event>
 4    1  0.2736402E+004  0.2927307E+02  0.7546771E-02  0.1606266E+00
         21   -1    0    0  503  502  0.00000000000E+00  0.00000000000E+00  0.98928491410E+02  0.98928491410E+02  0.00000000000E+00 0. -1.
         21   -1    0    0  501  503 -0.00000000000E+00 -0.00000000000E+00 -0.14074988771E+02  0.14074988771E+02  0.00000000000E+00 0.  1.
          2    1    1    2  501    0 -0.28933513402E+02  0.44457071649E+01  0.73871767873E+01  0.30190774930E+02  0.00000000000E+00 0.  1.
         -2    1    1    2    0  502  0.28933513402E+02 -0.44457071649E+01  0.77466325852E+02  0.82812705251E+02  0.00000000000E+00 0. -1.
<mgrwt>
<rscale>  2 0.29273068E+02</rscale>
<asrwt>0</asrwt>
<pdfrwt beam="1">  1       21 0.15219767E-01 0.29273068E+02</pdfrwt>
<pdfrwt beam="2">  1       21 0.21653829E-02 0.29273068E+02</pdfrwt>
<totfact> 0.32160734E+07</totfact>
</mgrwt>
</event>
<event>
 4    1  0.2736402E+004  0.2461252E+02  0.7546771E-02  0.1666631E+00
         21   -1    0    0  503  502  0.00000000000E+00  0.00000000000E+00  0.76250920865E+01  0.76250920865E+01  0.00000000000E+00 0.  1.
         21   -1    0    0  501  503 -0.00000000000E+00 -0.00000000000E+00 -0.21018828213E+03  0.21018828213E+03  0.00000000000E+00 0. -1.
          2    1    1    2  501    0  0.21816612428E+02 -0.11393496101E+02 -0.18717499508E+03  0.18878626834E+03  0.00000000000E+00 0. -1.
         -2    1    1    2    0  502 -0.21816612428E+02  0.11393496101E+02 -0.15388194965E+02  0.29027105876E+02  0.00000000000E+00 0.  1.
<mgrwt>
<rscale>  2 0.24612524E+02</rscale>
<asrwt>0</asrwt>
<pdfrwt beam="1">  1       21 0.11730913E-02 0.24612524E+02</pdfrwt>
<pdfrwt beam="2">  1       21 0.32336654E-01 0.24612524E+02</pdfrwt>
<totfact> 0.20815702E+07</totfact>
</mgrwt>
</event>
<event>
 4    1  0.2736402E+004  0.2610786E+02  0.7546771E-02  0.1645581E+00
         21   -1    0    0  503  502  0.00000000000E+00  0.00000000000E+00  0.13359704676E+03  0.13359704676E+03  0.00000000000E+00 0.  1.
         21   -1    0    0  501  503 -0.00000000000E+00 -0.00000000000E+00 -0.58362219802E+01  0.58362219802E+01  0.00000000000E+00 0. -1.
          2    1    1    2  501    0  0.14985732653E+02 -0.21378682604E+02  0.39153708649E+02  0.47059889014E+02  0.00000000000E+00 0. -1.
         -2    1    1    2    0  502 -0.14985732653E+02  0.21378682604E+02  0.88607116130E+02  0.92373379725E+02  0.00000000000E+00 0.  1.
<mgrwt>
<rscale>  2 0.26107858E+02</rscale>
<asrwt>0</asrwt>
<pdfrwt beam="1">  1       21 0.20553389E-01 0.26107858E+02</pdfrwt>
<pdfrwt beam="2">  1       21 0.89788041E-03 0.26107858E+02</pdfrwt>
<totfact> 0.71263829E+07</totfact>
</mgrwt>
</event>
<event>
 4    1  0.2736402E+004  0.3233764E+02  0.7546771E-02  0.1573599E+00
         21   -1    0    0  501  502  0.00000000000E+00  0.00000000000E+00  0.10774835527E+03  0.10774835527E+03  0.00000000000E+00 0.  1.
         21   -1    0    0  502  503 -0.00000000000E+00 -0.00000000000E+00 -0.80487891669E+02  0.80487891669E+02  0.00000000000E+00 0. -1.
          2    1    1    2  501    0 -0.54598440122E+01  0.31873387971E+02  0.10189175606E+03  0.10690019976E+03  0.00000000000E+00 0.  1.
         -2    1    1    2    0  503  0.54598440122E+01 -0.31873387971E+02 -0.74631292452E+02  0.81336047178E+02  0.00000000000E+00 0. -1.
<mgrwt>
<rscale>  2 0.32337637E+02</rscale>
<asrwt>0</asrwt>
<pdfrwt beam="1">  1       21 0.16576670E-01 0.32337637E+02</pdfrwt>
<pdfrwt beam="2">  1       21 0.12382752E-01 0.32337637E+02</pdfrwt>
<totfact> 0.16783955E+06</totfact>
</mgrwt>
</event>
<event>
 4    1  0.2736402E+004  0.2301908E+02  0.7546771E-02  0.1691201E+00
         21   -1    0    0  503  502  0.00000000000E+00  0.00000000000E+00  0.20038386139E+02  0.20038386139E+02  0.00000000000E+00 0. -1.
         21   -1    0    0  501  503 -0.00000000000E+00 -0.00000000000E+00 -0.40955846456E+02  0.40955846456E+02  0.00000000000E+00 0.  1.
          2    1    1    2  501    0  0.38353786053E+01 -0.22697312323E+02 -0.28612834612E+02  0.36722914104E+02  0.00000000000E+00 0. -1.
         -2    1    1    2    0  502 -0.38353786053E+01  0.22697312323E+02  0.76953742961E+01  0.24271318491E+02  0.00000000000E+00 0.  1.
<mgrwt>
<rscale>  2 0.23019082E+02</rscale>
<asrwt>0</asrwt>
<pdfrwt beam="1">  1       21 0.30828287E-02 0.23019082E+02</pdfrwt>
<pdfrwt beam="2">  1       21 0.63008994E-02 0.23019082E+02</pdfrwt>
<totfact> 0.75882012E+07</totfact>
</mgrwt>
</event>
<event>
 4    1  0.2736402E+004  0.2464720E+02  0.7546771E-02  0.1666122E+00
         21   -1    0    0  501  502  0.00000000000E+00  0.00000000000E+00  0.41402732098E+02  0.41402732098E+02  0.00000000000E+00 0. -1.
         21   -1    0    0  502  503 -0.00000000000E+00 -0.00000000000E+00 -0.30278256330E+02  0.30278256330E+02  0.00000000000E+00 0.  1.
          2    1    1    2  501    0  0.16096471934E+02  0.18665160085E+02  0.31292840273E+02  0.39833735226E+02  0.00000000000E+00 0. -1.
         -2    1    1    2    0  503 -0.16096471934E+02 -0.18665160085E+02 -0.20168364504E+02  0.31847253202E+02  0.00000000000E+00 0.  1.
<mgrwt>
<rscale>  2 0.24647203E+02</rscale>
<asrwt>0</asrwt>
<pdfrwt beam="1">  1       21 0.63696511E-02 0.24647203E+02</pdfrwt>
<pdfrwt beam="2">  1       21 0.46581933E-02 0.24647203E+02</pdfrwt>
<totfact> 0.39628862E+07</totfact>
</mgrwt>
</event>
<event>
 4    1  0.2736402E+004  0.2345872E+02  0.7546771E-02  0.1684181E+00
         21   -1    0    0  501  502  0.00000000000E+00  0.00000000000E+00  0.35349443797E+01  0.35349443797E+01  0.00000000000E+00 0. -1.
         21   -1    0    0  502  503 -0.00000000000E+00 -0.00000000000E+00 -0.17196414787E+03  0.17196414787E+03  0.00000000000E+00 0.  1.
          2    1    1    2  501    0 -0.20666857142E+02 -0.11099208252E+02 -0.57209775775E+02  0.61832595386E+02  0.00000000000E+00 0. -1.
         -2    1    1    2    0  503  0.20666857142E+02  0.11099208252E+02 -0.11121942771E+03  0.11366649686E+03  0.00000000000E+00 0.  1.
<mgrwt>
<rscale>  2 0.23458717E+02</rscale>
<asrwt>0</asrwt>
<pdfrwt beam="1">  1       21 0.54383755E-03 0.23458717E+02</pdfrwt>
<pdfrwt beam="2">  1       21 0.26456025E-01 0.23458717E+02</pdfrwt>
<totfact> 0.93553545E+07</totfact>
</mgrwt>
</event>
<event>
 4    1  0.2736402E+004  0.2707728E+02  0.7546771E-02  0.1632841E+00
         21   -1    0    0  503  502  0.00000000000E+00  0.00000000000E+00  0.24709790639E+03  0.24709790639E+03  0.00000000000E+00 0. -1.
         21   -1    0    0  501  503 -0.00000000000E+00 -0.00000000000E+00 -0.40654728959E+01  0.40654728959E+01  0.00000000000E+00 0.  1.
          2    1    1    2  501    0 -0.18675403089E+02 -0.19606336206E+02  0.56243187599E+02  0.62421753030E+02  0.00000000000E+00 0.  1.
         -2    1    1    2    0  502  0.18675403089E+02  0.19606336206E+02  0.18678924590E+03  0.18874162626E+03  0.00000000000E+00 0. -1.
<mgrwt>
<rscale>  2 0.27077280E+02</rscale>
<asrwt>0</asrwt>
<pdfrwt beam="1">  1       21 0.38015051E-01 0.27077280E+02</pdfrwt>
<pdfrwt beam="2">  1       21 0.62545756E-03 0.27077280E+02</pdfrwt>
<totfact> 0.40383561E+07</totfact>
</mgrwt>
</event>
<event>
 4    1  0.2736402E+004  0.3354331E+02  0.7546771E-02  0.1561930E+00
         21   -1    0    0  503  502  0.00000000000E+00  0.00000000000E+00  0.12218966260E+03  0.12218966260E+03  0.00000000000E+00 0.  1.
         21   -1    0    0  501  503 -0.00000000000E+00 -0.00000000000E+00 -0.10199391887E+02  0.10199391887E+02  0.00000000000E+00 0. -1.
          2    1    1    2  501    0 -0.27859829417E+02  0.18681100278E+02  0.35360266679E+02  0.48739122503E+02  0.00000000000E+00 0. -1.
         -2    1    1    2    0  502  0.27859829417E+02 -0.18681100278E+02  0.76630004036E+02  0.83649931987E+02  0.00000000000E+00 0.  1.
<mgrwt>
<rscale>  2 0.33543309E+02</rscale>
<asrwt>0</asrwt>
<pdfrwt beam="1">  1       21 0.18798409E-01 0.33543309E+02</pdfrwt>
<pdfrwt beam="2">  1       21 0.15691373E-02 0.33543309E+02</pdfrwt>
<totfact> 0.37649235E+07</totfact>
</mgrwt>
</event>
<event>
 4    1  0.2736402E+004  0.2783716E+02  0.7546771E-02  0.1623305E+00
         21   -1    0    0  503  502  0.00000000000E+00  0.00000000000E+00  0.53499288922E+02  0.53499288922E+02  0.00000000000E+00 0.  1.
         21   -1    0    0  501  503 -0.00000000000E+00 -0.00000000000E+00 -0.17331943551E+02  0.17331943551E+02  0.00000000000E+00 0. -1.
          2    1    1    2  501    0 -0.23224230897E+01  0.27740107513E+02  0.37286677832E+01  0.28085764673E+02  0.00000000000E+00 0. -1.
         -2    1    1    2    0  502  0.23224230897E+01 -0.27740107513E+02  0.32438677588E+02  0.42745467801E+02  0.00000000000E+00 0.  1.
<mgrwt>
<rscale>  2 0.27837155E+02</rscale>
<asrwt>0</asrwt>
<pdfrwt beam="1">  1       21 0.82306597E-02 0.27837155E+02</pdfrwt>
<pdfrwt beam="2">  1       21 0.26664529E-02 0.27837155E+02</pdfrwt>
<totfact> 0.64671163E+07</totfact>
</mgrwt>
</event>
<event>
 4    1  0.2736402E+004  0.2914397E+02  0.7546771E-02  0.1607748E+00
         21   -1    0    0  503  502  0.00000000000E+00  0.00000000000E+00  0.30760901055E+03  0.30760901055E+03  0.00000000000E+00 0. -1.
         21   -1    0    0  501  503 -0.00000000000E+00 -0.00000000000E+00 -0.38714948081E+01  0.38714948081E+01  0.00000000000E+00 0.  1.
          2    1    1    2  501    0 -0.88991847157E+01  0.27752035751E+02  0.68466066052E+02  0.74410840457E+02  0.00000000000E+00 0.  1.
         -2    1    1    2    0  502  0.88991847157E+01 -0.27752035751E+02  0.23527144969E+03  0.23706966490E+03  0.00000000000E+00 0. -1.
<mgrwt>
<rscale>  2 0.29143970E+02</rscale>
<asrwt>0</asrwt>
<pdfrwt beam="1">  1       21 0.47324444E-01 0.29143970E+02</pdfrwt>
<pdfrwt beam="2">  1       21 0.59561483E-03 0.29143970E+02</pdfrwt>
<totfact> 0.28981551E+07</totfact>
</mgrwt>
</event>
<event>
 4    1  0.2736402E+004  0.2746794E+02  0.7546771E-02  0.1627891E+00
         21   -1    0    0  501  502  0.00000000000E+00  0.00000000000E+00  0.29283126953E+01  0.29283126953E+01  0.00000000000E+00 0.  1.
         21   -1    0    0  502  503 -0.00000000000E+00 -0.00000000000E+00 -0.26307654955E+03  0.26307654955E+03  0.00000000000E+00 0. -1.
          2    1    1    2  501    0  0.25484594399E+02 -0.10248081363E+02 -0.14917140353E+03  0.15167925157E+03  0.00000000000E+00 0. -1.
         -2    1    1    2    0  503 -0.25484594399E+02  0.10248081363E+02 -0.11097683333E+03  0.11432561068E+03  0.00000000000E+00 0.  1.
<mgrwt>
<rscale>  2 0.27467940E+02</rscale>
<asrwt>0</asrwt>
<pdfrwt beam="1">  1       21 0.45050968E-03 0.27467940E+02</pdfrwt>
<pdfrwt beam="2">  1       21 0.40473312E-01 0.27467940E+02</pdfrwt>
<totfact> 0.58575536E+07</totfact>
</mgrwt>
</event>
<event>
 4    1  0.2736402E+004  0.2240726E+02  0.7546771E-02  0.1701302E+00
         21   -1    0    0  501  502  0.00000000000E+00  0.00000000000E+00  0.40767461231E+03  0.40767461231E+03  0.00000000000E+00 0. -1.
         21   -1    0    0  502  503 -0.00000000000E+00 -0.00000000000E+00 -0.12365533795E+01  0.12365533795E+01  0.00000000000E+00 0.  1.
          2    1    1    2  501    0  0.12546874728E+02 -0.18565058943E+02  0.21618034426E+03  0.21733850722E+03  0.00000000000E+00 0. -1.
         -2    1    1    2    0  503 -0.12546874728E+02  0.18565058943E+02  0.19025771467E+03  0.19157265846E+03  0.00000000000E+00 0.  1.
<mgrwt>
<rscale>  2 0.22407264E+02</rscale>
<asrwt>0</asrwt>
<pdfrwt beam="1">  1       21 0.62719064E-01 0.22407264E+02</pdfrwt>
<pdfrwt beam="2">  1       21 0.19023931E-03 0.22407264E+02</pdfrwt>
<totfact> 0.83539337E+07</totfact>
</mgrwt>
</event>
<event>
 4    1  0.2736402E+004  0.2469222E+02  0.7546771E-02  0.1665462E+00
         21   -1    0    0  501  502  0.00000000000E+00  0.00000000000E+00  0.89633250086E+02  0.89633250086E+02  0.00000000000E+00 0. -1.
         21   -1    0    0  502  503 -0.00000000000E+00 -0.00000000000E+00 -0.12864134733E+02  0.12864134733E+02  0.00000000000E+00 0.  1.
          2    1    1    2  501    0  0.20685574701E+02  0.13483802800E+02  0.73564657711E+02  0.77598097933E+02  0.00000000000E+00 0. -1.
         -2    1    1    2    0  503 -0.20685574701E+02 -0.13483802800E+02  0.32044576411E+01  0.24899286886E+02  0.00000000000E+00 0.  1.
<mgrwt>
<rscale>  2 0.24692224E+02</rscale>
<asrwt>0</asrwt>
<pdfrwt beam="1">  1       21 0.13789730E-01 0.24692224E+02</pdfrwt>
<pdfrwt beam="2">  1       21 0.19790977E-02 0.24692224E+02</pdfrwt>
<totfact> 0.42126972E+07</totfact>
</mgrwt>
</event>
<event>
 4    1  0.2736402E+004  0.2512694E+02  0.7546771E-02  0.1659185E+00
         21   -1    0    0  501  502  0.00000000000E+00  0.00000000000E+00  0.13436549435E+03  0.13436549435E+03  0.00000000000E+00 0. -1.
         21   -1    0    0  502  503 -0.00000000000E+00 -0.00000000000E+00 -0.77713764971E+01  0.77713764971E+01  0.00000000000E+00 0.  1.
          2    1    1    2  501    0 -0.16068916996E+02 -0.19317167333E+02  0.10798349639E+03  0.11086838386E+03  0.00000000000E+00 0. -1.
         -2    1    1    2    0  503  0.16068916996E+02  0.19317167333E+02  0.18610621464E+02  0.31268486988E+02  0.00000000000E+00 0.  1.
<mgrwt>
<rscale>  2 0.25126939E+02</rscale>
<asrwt>0</asrwt>
<pdfrwt beam="1">  1       21 0.20671613E-01 0.25126939E+02</pdfrwt>
<pdfrwt beam="2">  1       21 0.11955965E-02 0.25126939E+02</pdfrwt>
<totfact> 0.45383154E+07</totfact>
</mgrwt>
</event>
<event>
 4    1  0.2736402E+004  0.3180814E+02  0.7546771E-02  0.1578921E+00
         21   -1    0    0  503  502  0.00000000000E+00  0.00000000000E+00  0.65497806434E+02  0.65497806434E+02  0.00000000000E+00 0.  1.
         21   -1    0    0  501  503 -0.00000000000E+00 -0.00000000000E+00 -0.16258178185E+02  0.16258178185E+02  0.00000000000E+00 0. -1.
          2    1    1    2  501    0  0.27855518971E+02  0.15356680176E+02  0.15490065345E+02  0.35379368105E+02  0.00000000000E+00 0.  1.
         -2    1    1    2    0  502 -0.27855518971E+02 -0.15356680176E+02  0.33749562904E+02  0.46376616514E+02  0.00000000000E+00 0. -1.
<mgrwt>
<rscale>  2 0.31808137E+02</rscale>
<asrwt>0</asrwt>
<pdfrwt beam="1">  1       21 0.10076586E-01 0.31808137E+02</pdfrwt>
<pdfrwt beam="2">  1       21 0.25012582E-02 0.31808137E+02</pdfrwt>
<totfact> 0.52640248E+07</totfact>
</mgrwt>
</event>
<event>
 4    1  0.2736402E+004  0.3131431E+02  0.7546771E-02  0.1583999E+00
         21   -1    0    0  501  502  0.00000000000E+00  0.00000000000E+00  0.59394728463E+02  0.59394728463E+02  0.00000000000E+00 0. -1.
         21   -1    0    0  502  503 -0.00000000000E+00 -0.00000000000E+00 -0.51773001119E+02  0.51773001119E+02  0.00000000000E+00 0.  1.
          2    1    1    2  501    0  0.31101924824E+02 -0.36409367663E+01  0.49684045455E+02  0.58728958114E+02  0.00000000000E+00 0. -1.
         -2    1    1    2    0  503 -0.31101924824E+02  0.36409367663E+01 -0.42062318111E+02  0.52438771469E+02  0.00000000000E+00 0.  1.
<mgrwt>
<rscale>  2 0.31314312E+02</rscale>
<asrwt>0</asrwt>
<pdfrwt beam="1">  1       21 0.91376505E-02 0.31314312E+02</pdfrwt>
<pdfrwt beam="2">  1       21 0.79650771E-02 0.31314312E+02</pdfrwt>
<totfact> 0.96390611E+06</totfact>
</mgrwt>
</event>
<event>
 4    1  0.2736402E+004  0.2257058E+02  0.7546771E-02  0.1698567E+00
         21   -1    0    0  503  502  0.00000000000E+00  0.00000000000E+00  0.12997627578E+02  0.12997627578E+02  0.00000000000E+00 0. -1.
         21   -1    0    0  501  503 -0.00000000000E+00 -0.00000000000E+00 -0.49989319842E+02  0.49989319842E+02  0.00000000000E+00 0.  1.
          2    1    1    2  501    0 -0.16681584335E+02 -0.15203816146E+02 -0.33130963241E+02  0.40088552064E+02  0.00000000000E+00 0.  1.
         -2    1    1    2    0  502  0.16681584335E+02  0.15203816146E+02 -0.38607290232E+01  0.22898395357E+02  0.00000000000E+00 0. -1.
<mgrwt>
<rscale>  2 0.22570584E+02</rscale>
<asrwt>0</asrwt>
<pdfrwt beam="1">  1       21 0.19996350E-02 0.22570584E+02</pdfrwt>
<pdfrwt beam="2">  1       21 0.76906646E-02 0.22570584E+02</pdfrwt>
<totfact> 0.10671228E+08</totfact>
</mgrwt>
</event>
<event>
 4    1  0.2736402E+004  0.2571881E+02  0.7546771E-02  0.1650887E+00
         21   -1    0    0  503  502  0.00000000000E+00  0.00000000000E+00  0.14501458043E+03  0.14501458043E+03  0.00000000000E+00 0. -1.
         21   -1    0    0  501  503 -0.00000000000E+00 -0.00000000000E+00 -0.14748367070E+02  0.14748367070E+02  0.00000000000E+00 0.  1.
          2    1    1    2  501    0  0.52888248317E+01  0.25169133903E+02 -0.12562398136E+01  0.25749468110E+02  0.00000000000E+00 0.  1.
         -2    1    1    2    0  502 -0.52888248317E+01 -0.25169133903E+02  0.13152245317E+03  0.13401347939E+03  0.00000000000E+00 0. -1.
<mgrwt>
<rscale>  2 0.25718806E+02</rscale>
<asrwt>0</asrwt>
<pdfrwt beam="1">  1       21 0.22309934E-01 0.25718806E+02</pdfrwt>
<pdfrwt beam="2">  1       21 0.22689797E-02 0.25718806E+02</pdfrwt>
<totfact> 0.14953735E+07</totfact>
</mgrwt>
</event>
<event>
 4    1  0.2736402E+004  0.2116429E+02  0.7546771E-02  0.1723119E+00
         21   -1    0    0  503  502  0.00000000000E+00  0.00000000000E+00  0.12258097923E+02  0.12258097923E+02  0.00000000000E+00 0.  1.
         21   -1    0    0  501  503 -0.00000000000E+00 -0.00000000000E+00 -0.24124747285E+03  0.24124747285E+03  0.00000000000E+00 0. -1.
          2    1    1    2  501    0 -0.71605245437E+01 -0.19916172668E+02 -0.23125401270E+03  0.23222046730E+03  0.00000000000E+00 0. -1.
         -2    1    1    2    0  502  0.71605245437E+01  0.19916172668E+02  0.22646377720E+01  0.21285103470E+02  0.00000000000E+00 0.  1.
<mgrwt>
<rscale>  2 0.21164287E+02</rscale>
<asrwt>0</asrwt>
<pdfrwt beam="1">  1       21 0.18858612E-02 0.21164287E+02</pdfrwt>
<pdfrwt beam="2">  1       21 0.37114995E-01 0.21164287E+02</pdfrwt>
<totfact> 0.76157941E+06</totfact>
</mgrwt>
</event>
<event>
 4    1  0.2736402E+004  0.2048300E+02  0.7546771E-02  0.1735890E+00
         21   -1    0    0  503  502  0.00000000000E+00  0.00000000000E+00  0.75537033170E+01  0.75537033170E+01  0.00000000000E+00 0.  1.
         21   -1    0    0  501  503 -0.00000000000E+00 -0.00000000000E+00 -0.69426865666E+02  0.69426865666E+02  0.00000000000E+00 0. -1.
          2    1    1    2  501    0 -0.20438662883E+02 -0.13469185031E+01 -0.48149206922E+02  0.52324939151E+02  0.00000000000E+00 0.  1.
         -2    1    1    2    0  502  0.20438662883E+02  0.13469185031E+01 -0.13723955427E+02  0.24655629832E+02  0.00000000000E+00 0. -1.
<mgrwt>
<rscale>  2 0.20482996E+02</rscale>
<asrwt>0</asrwt>
<pdfrwt beam="1">  1       21 0.11621083E-02 0.20482996E+02</pdfrwt>
<pdfrwt beam="2">  1       21 0.10681056E-01 0.20482996E+02</pdfrwt>
<totfact> 0.13785933E+08</totfact>
</mgrwt>
</event>
<event>
 4    1  0.2736402E+004  0.2682626E+02  0.7546771E-02  0.1636076E+00
         21   -1    0    0  503  502  0.00000000000E+00  0.00000000000E+00  0.11190009081E+01  0.11190009081E+01  0.00000000000E+00 0.  1.
         21   -1    0    0  501  503 -0.00000000000E+00 -0.00000000000E+00 -0.67162674599E+03  0.67162674599E+03  0.00000000000E+00 0. -1.
          2    1    1    2  501    0 -0.25780915025E+02 -0.74156937866E+01 -0.40455757869E+03  0.40544602917E+03  0.00000000000E+00 0. -1.
         -2    1    1    2    0  502  0.25780915025E+02  0.74156937866E+01 -0.26595016639E+03  0.26729971773E+03  0.00000000000E+00 0.  1.
<mgrwt>
<rscale>  2 0.26826258E+02</rscale>
<asrwt>0</asrwt>
<pdfrwt beam="1">  1       21 0.17215439E-03 0.26826258E+02</pdfrwt>
<pdfrwt beam="2">  1       21 0.10332695E+00 0.26826258E+02</pdfrwt>
<totfact> 0.35030209E+07</totfact>
</mgrwt>
</event>
<event>
 4    1  0.2736402E+004  0.3012403E+02  0.7546771E-02  0.1596722E+00
         21   -1    0    0  503  502  0.00000000000E+00  0.00000000000E+00  0.27381920460E+04  0.27381920460E+04  0.00000000000E+00 0.  1.
         21   -1    0    0  501  503 -0.00000000000E+00 -0.00000000000E+00 -0.33380251167E+00  0.33380251167E+00  0.00000000000E+00 0. -1.
          2    1    1    2  501    0  0.29747399967E+02  0.47485897347E+01  0.14849166963E+04  0.14852222230E+04  0.00000000000E+00 0.  1.
         -2    1    1    2    0  502 -0.29747399967E+02 -0.47485897347E+01  0.12529415472E+04  0.12533036254E+04  0.00000000000E+00 0. -1.
<mgrwt>
<rscale>  2 0.30124025E+02</rscale>
<asrwt>0</asrwt>
<pdfrwt beam="1">  1       21 0.42124233E+00 0.30124025E+02</pdfrwt>
<pdfrwt beam="2">  1       21 0.51356425E-04 0.30124025E+02</pdfrwt>
<totfact> 0.28840423E+06</totfact>
</mgrwt>
</event>
<event>
 4    1  0.2736402E+004  0.2449386E+02  0.7546771E-02  0.1668380E+00
         21   -1    0    0  503  502  0.00000000000E+00  0.00000000000E+00  0.28866755696E+01  0.28866755696E+01  0.00000000000E+00 0.  1.
         21   -1    0    0  501  503 -0.00000000000E+00 -0.00000000000E+00 -0.54978104778E+03  0.54978104778E+03  0.00000000000E+00 0. -1.
          2    1    1    2  501    0  0.21325404409E+02 -0.12048905534E+02 -0.49137804292E+03  0.49198814016E+03  0.00000000000E+00 0. -1.
         -2    1    1    2    0  502 -0.21325404409E+02  0.12048905534E+02 -0.55516329295E+02  0.60679583191E+02  0.00000000000E+00 0.  1.
<mgrwt>
<rscale>  2 0.24493856E+02</rscale>
<asrwt>0</asrwt>
<pdfrwt beam="1">  1       21 0.44410411E-03 0.24493856E+02</pdfrwt>
<pdfrwt beam="2">  1       21 0.84581667E-01 0.24493856E+02</pdfrwt>
<totfact> 0.13343423E+07</totfact>
</mgrwt>
</event>
<event>
 4    1  0.2736402E+004  0.2017569E+02  0.7546771E-02  0.1741857E+00
         21   -1    0    0  503  502  0.00000000000E+00  0.00000000000E+00  0.23511943876E+03  0.23511943876E+03  0.00000000000E+00 0. -1.
         21   -1    0    0  501  503 -0.00000000000E+00 -0.00000000000E+00 -0.46272539223E+01  0.46272539223E+01  0.00000000000E+00 0.  1.
          2    1    1    2  501    0 -0.19821957278E+02 -0.37614305045E+01  0.20413408600E+02  0.28701317051E+02  0.00000000000E+00 0.  1.
         -2    1    1    2    0  502  0.19821957278E+02  0.37614305045E+01  0.21007877623E+03  0.21104537563E+03  0.00000000000E+00 0. -1.
<mgrwt>
<rscale>  2 0.20175687E+02</rscale>
<asrwt>0</asrwt>
<pdfrwt beam="1">  1       21 0.36172212E-01 0.20175687E+02</pdfrwt>
<pdfrwt beam="2">  1       21 0.71188540E-03 0.20175687E+02</pdfrwt>
<totfact> 0.34192989E+07</totfact>
</mgrwt>
</event>
<event>
 4    1  0.2736402E+004  0.3074439E+02  0.7546771E-02  0.1590003E+00
         21   -1    0    0  501  502  0.00000000000E+00  0.00000000000E+00  0.22130543209E+02  0.22130543209E+02  0.00000000000E+00 0.  1.
         21   -1    0    0  502  503 -0.00000000000E+00 -0.00000000000E+00 -0.33212603237E+03  0.33212603237E+03  0.00000000000E+00 0. -1.
          2    1    1    2  501    0  0.13227042189E+02  0.27753609944E+02  0.10349519171E+02  0.32439637129E+02  0.00000000000E+00 0.  1.
         -2    1    1    2    0  503 -0.13227042189E+02 -0.27753609944E+02 -0.32034500833E+03  0.32181693845E+03  0.00000000000E+00 0. -1.
<mgrwt>
<rscale>  2 0.30744390E+02</rscale>
<asrwt>0</asrwt>
<pdfrwt beam="1">  1       21 0.34046989E-02 0.30744390E+02</pdfrwt>
<pdfrwt beam="2">  1       21 0.51096314E-01 0.30744390E+02</pdfrwt>
<totfact> 0.17336778E+06</totfact>
</mgrwt>
</event>
<event>
 4    1  0.2736402E+004  0.3961168E+02  0.7546771E-02  0.1511089E+00
         21   -1    0    0  501  502  0.00000000000E+00  0.00000000000E+00  0.48146974004E+03  0.48146974004E+03  0.00000000000E+00 0. -1.
         21   -1    0    0  502  503 -0.00000000000E+00 -0.00000000000E+00 -0.33782005210E+01  0.33782005210E+01  0.00000000000E+00 0.  1.
          2    1    1    2  501    0 -0.27536149592E+02 -0.28475347393E+02  0.28459345013E+03  0.28733693950E+03  0.00000000000E+00 0. -1.
         -2    1    1    2    0  503  0.27536149592E+02  0.28475347393E+02  0.19349808939E+03  0.19751100106E+03  0.00000000000E+00 0.  1.
<mgrwt>
<rscale>  2 0.39611677E+02</rscale>
<asrwt>0</asrwt>
<pdfrwt beam="1">  1       21 0.74072213E-01 0.39611677E+02</pdfrwt>
<pdfrwt beam="2">  1       21 0.51972354E-03 0.39611677E+02</pdfrwt>
<totfact> 0.15039151E+07</totfact>
</mgrwt>
</event>
<event>
 4    1  0.2736402E+004  0.2386078E+02  0.7546771E-02  0.1677925E+00
         21   -1    0    0  501  502  0.00000000000E+00  0.00000000000E+00  0.45319917766E+01  0.45319917766E+01  0.00000000000E+00 0.  1.
         21   -1    0    0  502  503 -0.00000000000E+00 -0.00000000000E+00 -0.20055155968E+03  0.20055155968E+03  0.00000000000E+00 0. -1.
          2    1    1    2  501    0  0.35287725982E+01  0.23598402764E+02 -0.35333640457E+02  0.42635700968E+02  0.00000000000E+00 0.  1.
         -2    1    1    2    0  503 -0.35287725982E+01 -0.23598402764E+02 -0.16068592744E+03  0.16244785049E+03  0.00000000000E+00 0. -1.
<mgrwt>
<rscale>  2 0.23860781E+02</rscale>
<asrwt>0</asrwt>
<pdfrwt beam="1">  1       21 0.69722982E-03 0.23860781E+02</pdfrwt>
<pdfrwt beam="2">  1       21 0.30854072E-01 0.23860781E+02</pdfrwt>
<totfact> 0.49184895E+07</totfact>
</mgrwt>
</event>
<event>
 4    1  0.2736402E+004  0.2448780E+02  0.7546771E-02  0.1668470E+00
         21   -1    0    0  501  502  0.00000000000E+00  0.00000000000E+00  0.64467414203E+01  0.64467414203E+01  0.00000000000E+00 0.  1.
         21   -1    0    0  502  503 -0.00000000000E+00 -0.00000000000E+00 -0.16280878927E+03  0.16280878927E+03  0.00000000000E+00 0. -1.
          2    1    1    2  501    0 -0.21548671832E+02 -0.11632164403E+02 -0.22772310503E+02  0.33439955624E+02  0.00000000000E+00 0.  1.
         -2    1    1    2    0  503  0.21548671832E+02  0.11632164403E+02 -0.13358973735E+03  0.13581557507E+03  0.00000000000E+00 0. -1.
<mgrwt>
<rscale>  2 0.24487803E+02</rscale>
<asrwt>0</asrwt>
<pdfrwt beam="1">  1       21 0.99180647E-03 0.24487803E+02</pdfrwt>
<pdfrwt beam="2">  1       21 0.25047503E-01 0.24487803E+02</pdfrwt>
<totfact> 0.42568966E+07</totfact>
</mgrwt>
</event>
<event>
 4    1  0.2736402E+004  0.4053625E+02  0.7546771E-02  0.1504302E+00
         21   -1    0    0  503  502  0.00000000000E+00  0.00000000000E+00  0.15030323963E+03  0.15030323963E+03  0.00000000000E+00 0. -1.
         21   -1    0    0  501  503 -0.00000000000E+00 -0.00000000000E+00 -0.12455261557E+02  0.12455261557E+02  0.00000000000E+00 0.  1.
          2    1    1    2  501    0 -0.32369314682E+02 -0.24401134936E+02  0.40469201633E+02  0.57279526883E+02  0.00000000000E+00 0. -1.
         -2    1    1    2    0  502  0.32369314682E+02  0.24401134936E+02  0.97378776445E+02  0.10547897431E+03  0.00000000000E+00 0.  1.
<mgrwt>
<rscale>  2 0.40536254E+02</rscale>
<asrwt>0</asrwt>
<pdfrwt beam="1">  1       21 0.23123574E-01 0.40536254E+02</pdfrwt>
<pdfrwt beam="2">  1       21 0.19161942E-02 0.40536254E+02</pdfrwt>
<totfact> 0.19716203E+07</totfact>
</mgrwt>
</event>
<event>
 4    1  0.2736402E+004  0.3312797E+02  0.7546771E-02  0.1565882E+00
         21   -1    0    0  503  502  0.00000000000E+00  0.00000000000E+00  0.10553471255E+02  0.10553471255E+02  0.00000000000E+00 0. -1.
         21   -1    0    0  501  503 -0.00000000000E+00 -0.00000000000E+00 -0.23336274335E+03  0.23336274335E+03  0.00000000000E+00 0.  1.
          2    1    1    2  501    0 -0.81136561800E+01  0.32119009089E+02 -0.20221078241E+03  0.20490647302E+03  0.00000000000E+00 0.  1.
         -2    1    1    2    0  502  0.81136561800E+01 -0.32119009089E+02 -0.20598489686E+02  0.39009741589E+02  0.00000000000E+00 0. -1.
<mgrwt>
<rscale>  2 0.33127966E+02</rscale>
<asrwt>0</asrwt>
<pdfrwt beam="1">  1       21 0.16236109E-02 0.33127966E+02</pdfrwt>
<pdfrwt beam="2">  1       21 0.35901962E-01 0.33127966E+02</pdfrwt>
<totfact> 0.10980200E+07</totfact>
</mgrwt>
</event>
<event>
 4    1  0.2736402E+004  0.2123194E+02  0.7546771E-02  0.1721884E+00
         21   -1    0    0  503  502  0.00000000000E+00  0.00000000000E+00  0.13555908766E+03  0.13555908766E+03  0.00000000000E+00 0. -1.
         21   -1    0    0  501  503 -0.00000000000E+00 -0.00000000000E+00 -0.33285226687E+01  0.33285226687E+01  0.00000000000E+00 0.  1.
          2    1    1    2  501    0  0.19778654584E+02 -0.77201136194E+01  0.68224280091E+02  0.71451716043E+02  0.00000000000E+00 0. -1.
         -2    1    1    2    0  502 -0.19778654584E+02  0.77201136194E+01  0.64006284899E+02  0.67435894285E+02  0.00000000000E+00 0.  1.
<mgrwt>
<rscale>  2 0.21231941E+02</rscale>
<asrwt>0</asrwt>
<pdfrwt beam="1">  1       21 0.20855240E-01 0.21231941E+02</pdfrwt>
<pdfrwt beam="2">  1       21 0.51208052E-03 0.21231941E+02</pdfrwt>
<totfact> 0.15143204E+08</totfact>
</mgrwt>
</event>
<event>
 4    1  0.2736402E+004  0.2642424E+02  0.7546771E-02  0.1641349E+00
         21   -1    0    0  503  502  0.00000000000E+00  0.00000000000E+00  0.66239535570E+01  0.66239535570E+01  0.00000000000E+00 0. -1.
         21   -1    0    0  501  503 -0.00000000000E+00 -0.00000000000E+00 -0.11142742022E+03  0.11142742022E+03  0.00000000000E+00 0.  1.
          2    1    1    2  501    0  0.18527912749E+02 -0.18840293525E+02 -0.66116855926E+02  0.71201677287E+02  0.00000000000E+00 0.  1.
         -2    1    1    2    0  502 -0.18527912749E+02  0.18840293525E+02 -0.38686610739E+02  0.46849696492E+02  0.00000000000E+00 0. -1.
<mgrwt>
<rscale>  2 0.26424235E+02</rscale>
<asrwt>0</asrwt>
<pdfrwt beam="1">  1       21 0.10190699E-02 0.26424235E+02</pdfrwt>
<pdfrwt beam="2">  1       21 0.17142678E-01 0.26424235E+02</pdfrwt>
<totfact> 0.81053511E+07</totfact>
</mgrwt>
</event>
<event>
 4    1  0.2736402E+004  0.2860783E+02  0.7546771E-02  0.1614007E+00
         21   -1    0    0  503  502  0.00000000000E+00  0.00000000000E+00  0.68016875885E+02  0.68016875885E+02  0.00000000000E+00 0.  1.
         21   -1    0    0  501  503 -0.00000000000E+00 -0.00000000000E+00 -0.20624144820E+02  0.20624144820E+02  0.00000000000E+00 0. -1.
          2    1    1    2  501    0  0.26569783239E+02 -0.10604447054E+02 -0.49096213142E+01  0.29026058295E+02  0.00000000000E+00 0. -1.
         -2    1    1    2    0  502 -0.26569783239E+02  0.10604447054E+02  0.52302352380E+02  0.59614962410E+02  0.00000000000E+00 0.  1.
<mgrwt>
<rscale>  2 0.28607825E+02</rscale>
<asrwt>0</asrwt>
<pdfrwt beam="1">  1       21 0.10464135E-01 0.28607825E+02</pdfrwt>
<pdfrwt beam="2">  1       21 0.31729454E-02 0.28607825E+02</pdfrwt>
<totfact> 0.33264929E+07</totfact>
</mgrwt>
</event>
<event>
 4    1  0.2736402E+004  0.2082855E+02  0.7546771E-02  0.1729336E+00
         21   -1    0    0  501  502  0.00000000000E+00  0.00000000000E+00  0.22896379519E+02  0.22896379519E+02  0.00000000000E+00 0.  1.
         21   -1    0    0  502  503 -0.00000000000E+00 -0.00000000000E+00 -0.48236531110E+02  0.48236531110E+02  0.00000000000E+00 0. -1.
          2    1    1    2  501    0  0.16349526419E+02 -0.12904327958E+02  0.15044306306E+02  0.25693575976E+02  0.00000000000E+00 0.  1.
         -2    1    1    2    0  503 -0.16349526419E+02  0.12904327958E+02 -0.40384457897E+02  0.45439334654E+02  0.00000000000E+00 0. -1.
<mgrwt>
<rscale>  2 0.20828555E+02</rscale>
<asrwt>0</asrwt>
<pdfrwt beam="1">  1       21 0.35225200E-02 0.20828555E+02</pdfrwt>
<pdfrwt beam="2">  1       21 0.74210047E-02 0.20828555E+02</pdfrwt>
<totfact> 0.46065301E+07</totfact>
</mgrwt>
</event>
<event>
 4    1  0.2736402E+004  0.2104426E+02  0.7546771E-02  0.1725325E+00
         21   -1    0    0  501  502  0.00000000000E+00  0.00000000000E+00  0.30652233216E+02  0.30652233216E+02  0.00000000000E+00 0. -1.
         21   -1    0    0  502  503 -0.00000000000E+00 -0.00000000000E+00 -0.25387779843E+02  0.25387779843E+02  0.00000000000E+00 0.  1.
          2    1    1    2  501    0  0.78338745863E+01 -0.19531803977E+02  0.21025616943E+02  0.29747899514E+02  0.00000000000E+00 0. -1.
         -2    1    1    2    0  503 -0.78338745863E+01  0.19531803977E+02 -0.15761163569E+02  0.26292113546E+02  0.00000000000E+00 0.  1.
<mgrwt>
<rscale>  2 0.21044262E+02</rscale>
<asrwt>0</asrwt>
<pdfrwt beam="1">  1       21 0.47157282E-02 0.21044262E+02</pdfrwt>
<pdfrwt beam="2">  1       21 0.39058123E-02 0.21044262E+02</pdfrwt>
<totfact> 0.81157799E+07</totfact>
</mgrwt>
</event>
<event>
 4    1  0.2736402E+004  0.2544773E+02  0.7546771E-02  0.1654653E+00
         21   -1    0    0  501  502  0.00000000000E+00  0.00000000000E+00  0.49979393411E+02  0.49979393411E+02  0.00000000000E+00 0.  1.
         21   -1    0    0  502  503 -0.00000000000E+00 -0.00000000000E+00 -0.16154785534E+02  0.16154785534E+02  0.00000000000E+00 0. -1.
          2    1    1    2  501    0  0.19450878742E+02 -0.16408840066E+02  0.31624076098E+02  0.40591488088E+02  0.00000000000E+00 0.  1.
         -2    1    1    2    0  503 -0.19450878742E+02  0.16408840066E+02  0.22005317795E+01  0.25542690857E+02  0.00000000000E+00 0. -1.
<mgrwt>
<rscale>  2 0.25447725E+02</rscale>
<asrwt>0</asrwt>
<pdfrwt beam="1">  1       21 0.76891374E-02 0.25447725E+02</pdfrwt>
<pdfrwt beam="2">  1       21 0.24853516E-02 0.25447725E+02</pdfrwt>
<totfact> 0.78891200E+07</totfact>
</mgrwt>
</event>
<event>
 4    1  0.2736402E+004  0.2606350E+02  0.7546771E-02  0.1646180E+00
         21   -1    0    0  501  502  0.00000000000E+00  0.00000000000E+00  0.26832652295E+03  0.26832652295E+03  0.00000000000E+00 0.  1.
         21   -1    0    0  502  503 -0.00000000000E+00 -0.00000000000E+00 -0.26468176430E+01  0.26468176430E+01  0.00000000000E+00 0. -1.
          2    1    1    2  501    0 -0.17965519922E+02  0.18882424511E+02  0.10457669116E+03  0.10777564750E+03  0.00000000000E+00 0. -1.
         -2    1    1    2    0  503  0.17965519922E+02 -0.18882424511E+02  0.16110301414E+03  0.16319769308E+03  0.00000000000E+00 0.  1.
<mgrwt>
<rscale>  2 0.26063497E+02</rscale>
<asrwt>0</asrwt>
<pdfrwt beam="1">  1       21 0.41280982E-01 0.26063497E+02</pdfrwt>
<pdfrwt beam="2">  1       21 0.40720292E-03 0.26063497E+02</pdfrwt>
<totfact> 0.64725335E+07</totfact>
</mgrwt>
</event>
<event>
 4    1  0.2736402E+004  0.8593408E+02  0.7546771E-02  0.1313008E+00
         21   -1    0    0  501  502  0.00000000000E+00  0.00000000000E+00  0.13249663042E+02  0.13249663042E+02  0.00000000000E+00 0. -1.
         21   -1    0    0  502  503 -0.00000000000E+00 -0.00000000000E+00 -0.86319151419E+03  0.86319151419E+03  0.00000000000E+00 0.  1.
          2    1    1    2  501    0  0.85846015419E+02  0.38894883105E+01 -0.16412191477E+03  0.18525838548E+03  0.00000000000E+00 0. -1.
         -2    1    1    2    0  503 -0.85846015419E+02 -0.38894883105E+01 -0.68581993638E+03  0.69118279175E+03  0.00000000000E+00 0.  1.
<mgrwt>
<rscale>  2 0.85934082E+02</rscale>
<asrwt>0</asrwt>
<pdfrwt beam="1">  1       21 0.20384092E-02 0.85934082E+02</pdfrwt>
<pdfrwt beam="2">  1       21 0.13279873E+00 0.85934082E+02</pdfrwt>
<totfact> 0.50082236E+05</totfact>
</mgrwt>
</event>
<event>
 4    1  0.2736402E+004  0.2664234E+02  0.7546771E-02  0.1638474E+00
         21   -1    0    0  503  502  0.00000000000E+00  0.00000000000E+00  0.83551562136E+00  0.83551562136E+00  0.00000000000E+00 0.  1.
         21   -1    0    0  501  503 -0.00000000000E+00 -0.00000000000E+00 -0.10601859961E+04  0.10601859961E+04  0.00000000000E+00 0. -1.
          2    1    1    2  501    0  0.50640253269E+01  0.26156640551E+02 -0.76614037248E+03  0.76660347283E+03  0.00000000000E+00 0. -1.
         -2    1    1    2    0  502 -0.50640253269E+01 -0.26156640551E+02 -0.29321010804E+03  0.29441803894E+03  0.00000000000E+00 0.  1.
<mgrwt>
<rscale>  2 0.26642338E+02</rscale>
<asrwt>0</asrwt>
<pdfrwt beam="1">  1       21 0.12854100E-03 0.26642338E+02</pdfrwt>
<pdfrwt beam="2">  1       21 0.16310536E+00 0.26642338E+02</pdfrwt>
<totfact> 0.18470494E+07</totfact>
</mgrwt>
</event>
<event>
 4    1  0.2736402E+004  0.2052658E+02  0.7546771E-02  0.1735055E+00
         21   -1    0    0  503  502  0.00000000000E+00  0.00000000000E+00  0.20939979212E+02  0.20939979212E+02  0.00000000000E+00 0. -1.
         21   -1    0    0  501  503 -0.00000000000E+00 -0.00000000000E+00 -0.24737983339E+02  0.24737983339E+02  0.00000000000E+00 0.  1.
          2    1    1    2  501    0  0.11650989075E+02  0.16899556473E+02 -0.11765374107E+02  0.23659344524E+02  0.00000000000E+00 0.  1.
         -2    1    1    2    0  502 -0.11650989075E+02 -0.16899556473E+02  0.79673699803E+01  0.22018618027E+02  0.00000000000E+00 0. -1.
<mgrwt>
<rscale>  2 0.20526582E+02</rscale>
<asrwt>0</asrwt>
<pdfrwt beam="1">  1       21 0.32215352E-02 0.20526582E+02</pdfrwt>
<pdfrwt beam="2">  1       21 0.38058436E-02 0.20526582E+02</pdfrwt>
<totfact> 0.15247833E+08</totfact>
</mgrwt>
</event>
<event>
 4    1  0.2736402E+004  0.2360355E+02  0.7546771E-02  0.1681910E+00
         21   -1    0    0  501  502  0.00000000000E+00  0.00000000000E+00  0.55142640876E+03  0.55142640876E+03  0.00000000000E+00 0.  1.
         21   -1    0    0  502  503 -0.00000000000E+00 -0.00000000000E+00 -0.19225132127E+01  0.19225132127E+01  0.00000000000E+00 0. -1.
          2    1    1    2  501    0  0.13597234668E+02 -0.19293592665E+02  0.46533020162E+03  0.46592845378E+03  0.00000000000E+00 0.  1.
         -2    1    1    2    0  503 -0.13597234668E+02  0.19293592665E+02  0.84173693934E+02  0.87420468193E+02  0.00000000000E+00 0. -1.
<mgrwt>
<rscale>  2 0.23603549E+02</rscale>
<asrwt>0</asrwt>
<pdfrwt beam="1">  1       21 0.84834706E-01 0.23603549E+02</pdfrwt>
<pdfrwt beam="2">  1       21 0.29577170E-03 0.23603549E+02</pdfrwt>
<totfact> 0.23893103E+07</totfact>
</mgrwt>
</event>
<event>
 4    1  0.2736402E+004  0.2683119E+02  0.7546771E-02  0.1636012E+00
         21   -1    0    0  503  502  0.00000000000E+00  0.00000000000E+00  0.27698911377E+01  0.27698911377E+01  0.00000000000E+00 0. -1.
         21   -1    0    0  501  503 -0.00000000000E+00 -0.00000000000E+00 -0.28320645531E+03  0.28320645531E+03  0.00000000000E+00 0.  1.
          2    1    1    2  501    0 -0.10006896944E+01 -0.26812518779E+02 -0.18123176506E+03  0.18320716474E+03  0.00000000000E+00 0.  1.
         -2    1    1    2    0  502  0.10006896944E+01  0.26812518779E+02 -0.99204799113E+02  0.10276918171E+03  0.00000000000E+00 0. -1.
<mgrwt>
<rscale>  2 0.26831186E+02</rscale>
<asrwt>0</asrwt>
<pdfrwt beam="1">  1       21 0.42613719E-03 0.26831186E+02</pdfrwt>
<pdfrwt beam="2">  1       21 0.43570215E-01 0.26831186E+02</pdfrwt>
<totfact> 0.54954329E+07</totfact>
</mgrwt>
</event>
<event>
 4    1  0.2736402E+004  0.2306887E+02  0.7546771E-02  0.1690396E+00
         21   -1    0    0  501  502  0.00000000000E+00  0.00000000000E+00  0.40578475927E+01  0.40578475927E+01  0.00000000000E+00 0. -1.
         21   -1    0    0  502  503 -0.00000000000E+00 -0.00000000000E+00 -0.13205384147E+03  0.13205384147E+03  0.00000000000E+00 0.  1.
          2    1    1    2  501    0  0.20400752479E+02  0.10769487197E+02 -0.58356783607E+02  0.62750990026E+02  0.00000000000E+00 0.  1.
         -2    1    1    2    0  503 -0.20400752479E+02 -0.10769487197E+02 -0.69639210274E+02  0.73360699041E+02  0.00000000000E+00 0. -1.
<mgrwt>
<rscale>  2 0.23068866E+02</rscale>
<asrwt>0</asrwt>
<pdfrwt beam="1">  1       21 0.62428428E-03 0.23068866E+02</pdfrwt>
<pdfrwt beam="2">  1       21 0.20315974E-01 0.23068866E+02</pdfrwt>
<totfact> 0.12116872E+08</totfact>
</mgrwt>
</event>
<event>
 4    1  0.2736402E+004  0.2020039E+02  0.7546771E-02  0.1741372E+00
         21   -1    0    0  503  502  0.00000000000E+00  0.00000000000E+00  0.34651381922E+02  0.34651381922E+02  0.00000000000E+00 0.  1.
         21   -1    0    0  501  503 -0.00000000000E+00 -0.00000000000E+00 -0.21601246158E+02  0.21601246158E+02  0.00000000000E+00 0. -1.
          2    1    1    2  501    0  0.16203827805E+02 -0.12061989455E+02 -0.12443936266E+02  0.23725664899E+02  0.00000000000E+00 0. -1.
         -2    1    1    2    0  502 -0.16203827805E+02  0.12061989455E+02  0.25494072029E+02  0.32526963181E+02  0.00000000000E+00 0.  1.
<mgrwt>
<rscale>  2 0.20200387E+02</rscale>
<asrwt>0</asrwt>
<pdfrwt beam="1">  1       21 0.53309818E-02 0.20200387E+02</pdfrwt>
<pdfrwt beam="2">  1       21 0.33232686E-02 0.20200387E+02</pdfrwt>
<totfact> 0.84988343E+07</totfact>
</mgrwt>
</event>
<event>
 4    1  0.2736402E+004  0.2722581E+02  0.7546771E-02  0.1630947E+00
         21   -1    0    0  503  502  0.00000000000E+00  0.00000000000E+00  0.26081220595E+02  0.26081220595E+02  0.00000000000E+00 0. -1.
         21   -1    0    0  501  503 -0.00000000000E+00 -0.00000000000E+00 -0.29220689463E+02  0.29220689463E+02  0.00000000000E+00 0.  1.
          2    1    1    2  501    0 -0.22030499576E+02 -0.15996930552E+02 -0.61451049257E+01  0.27910697110E+02  0.00000000000E+00 0.  1.
         -2    1    1    2    0  502  0.22030499576E+02  0.15996930552E+02  0.30056360574E+01  0.27391212948E+02  0.00000000000E+00 0. -1.
<mgrwt>
<rscale>  2 0.27225809E+02</rscale>
<asrwt>0</asrwt>
<pdfrwt beam="1">  1       21 0.40124955E-02 0.27225809E+02</pdfrwt>
<pdfrwt beam="2">  1       21 0.44954907E-02 0.27225809E+02</pdfrwt>
<totfact> 0.90033060E+07</totfact>
</mgrwt>
</event>
<event>
 4    1  0.2736402E+004  0.2954851E+02  0.7546771E-02  0.1603134E+00
         21   -1    0    0  503  502  0.00000000000E+00  0.00000000000E+00  0.22666620054E+03  0.22666620054E+03  0.00000000000E+00 0.  1.
         21   -1    0    0  501  503 -0.00000000000E+00 -0.00000000000E+00 -0.39311083462E+01  0.39311083462E+01  0.00000000000E+00 0. -1.
          2    1    1    2  501    0  0.57779122682E+00  0.29542863853E+02  0.95009894363E+02  0.99498716948E+02  0.00000000000E+00 0. -1.
         -2    1    1    2    0  502 -0.57779122682E+00 -0.29542863853E+02  0.12772519783E+03  0.13109859193E+03  0.00000000000E+00 0.  1.
<mgrwt>
<rscale>  2 0.29548513E+02</rscale>
<asrwt>0</asrwt>
<pdfrwt beam="1">  1       21 0.34871713E-01 0.29548513E+02</pdfrwt>
<pdfrwt beam="2">  1       21 0.60478608E-03 0.29548513E+02</pdfrwt>
<totfact> 0.50870334E+07</totfact>
</mgrwt>
</event>
<event>
 4    1  0.2736402E+004  0.2096703E+02  0.7546771E-02  0.1726754E+00
         21   -1    0    0  503  502  0.00000000000E+00  0.00000000000E+00  0.12062493358E+01  0.12062493358E+01  0.00000000000E+00 0.  1.
         21   -1    0    0  501  503 -0.00000000000E+00 -0.00000000000E+00 -0.36563148255E+03  0.36563148255E+03  0.00000000000E+00 0. -1.
          2    1    1    2  501    0  0.15823684276E+02 -0.13755994319E+02 -0.17178176798E+03  0.17305661552E+03  0.00000000000E+00 0.  1.
         -2    1    1    2    0  502 -0.15823684276E+02  0.13755994319E+02 -0.19264346523E+03  0.19378111637E+03  0.00000000000E+00 0. -1.
<mgrwt>
<rscale>  2 0.20967030E+02</rscale>
<asrwt>0</asrwt>
<pdfrwt beam="1">  1       21 0.18557648E-03 0.20967030E+02</pdfrwt>
<pdfrwt beam="2">  1       21 0.56251100E-01 0.20967030E+02</pdfrwt>
<totfact> 0.10568494E+08</totfact>
</mgrwt>
</event>
<event>
 4    1  0.2736402E+004  0.2135980E+02  0.7546771E-02  0.1719565E+00
         21   -1    0    0  503  502  0.00000000000E+00  0.00000000000E+00  0.82136495554E+03  0.82136495554E+03  0.00000000000E+00 0.  1.
         21   -1    0    0  501  503 -0.00000000000E+00 -0.00000000000E+00 -0.15249215823E+01  0.15249215823E+01  0.00000000000E+00 0. -1.
          2    1    1    2  501    0  0.20233992446E+02  0.68429913189E+01  0.81861178674E+02  0.84601971339E+02  0.00000000000E+00 0. -1.
         -2    1    1    2    0  502 -0.20233992446E+02 -0.68429913189E+01  0.73797885528E+03  0.73828790578E+03  0.00000000000E+00 0.  1.
<mgrwt>
<rscale>  2 0.21359798E+02</rscale>
<asrwt>0</asrwt>
<pdfrwt beam="1">  1       21 0.12636349E+00 0.21359798E+02</pdfrwt>
<pdfrwt beam="2">  1       21 0.23460398E-03 0.21359798E+02</pdfrwt>
<totfact> 0.13667317E+07</totfact>
</mgrwt>
</event>
<event>
 4    1  0.2736402E+004  0.2183063E+02  0.7546771E-02  0.1711198E+00
         21   -1    0    0  503  502  0.00000000000E+00  0.00000000000E+00  0.81487604532E+03  0.81487604532E+03  0.00000000000E+00 0.  1.
         21   -1    0    0  501  503 -0.00000000000E+00 -0.00000000000E+00 -0.62888641821E+00  0.62888641821E+00  0.00000000000E+00 0. -1.
          2    1    1    2  501    0  0.41151187174E+01  0.21439266639E+02  0.29921895066E+03  0.30001426098E+03  0.00000000000E+00 0. -1.
         -2    1    1    2    0  502 -0.41151187174E+01 -0.21439266639E+02  0.51502820824E+03  0.51549067076E+03  0.00000000000E+00 0.  1.
<mgrwt>
<rscale>  2 0.21830629E+02</rscale>
<asrwt>0</asrwt>
<pdfrwt beam="1">  1       21 0.12536470E+00 0.21830629E+02</pdfrwt>
<pdfrwt beam="2">  1       21 0.96752408E-04 0.21830629E+02</pdfrwt>
<totfact> 0.49705498E+07</totfact>
</mgrwt>
</event>
<event>
 4    1  0.2736402E+004  0.2105822E+02  0.7546771E-02  0.1725068E+00
         21   -1    0    0  501  502  0.00000000000E+00  0.00000000000E+00  0.21407744669E+02  0.21407744669E+02  0.00000000000E+00 0.  1.
         21   -1    0    0  502  503 -0.00000000000E+00 -0.00000000000E+00 -0.57632254404E+02  0.57632254404E+02  0.00000000000E+00 0. -1.
          2    1    1    2  501    0 -0.18289172668E+02  0.10438139195E+02  0.13517975350E+02  0.25023673677E+02  0.00000000000E+00 0.  1.
         -2    1    1    2    0  503  0.18289172668E+02 -0.10438139195E+02 -0.49742485085E+02  0.54016325395E+02  0.00000000000E+00 0. -1.
<mgrwt>
<rscale>  2 0.21058219E+02</rscale>
<asrwt>0</asrwt>
<pdfrwt beam="1">  1       21 0.32934993E-02 0.21058219E+02</pdfrwt>
<pdfrwt beam="2">  1       21 0.88665004E-02 0.21058219E+02</pdfrwt>
<totfact> 0.38407087E+07</totfact>
</mgrwt>
</event>
<event>
 4    1  0.2736402E+004  0.2216654E+02  0.7546771E-02  0.1705388E+00
         21   -1    0    0  501  502  0.00000000000E+00  0.00000000000E+00  0.51534441013E+03  0.51534441013E+03  0.00000000000E+00 0. -1.
         21   -1    0    0  502  503 -0.00000000000E+00 -0.00000000000E+00 -0.96769794950E+00  0.96769794950E+00  0.00000000000E+00 0.  1.
          2    1    1    2  501    0 -0.99484644764E+01  0.19808676827E+02  0.28851211995E+03  0.28936240077E+03  0.00000000000E+00 0. -1.
         -2    1    1    2    0  503  0.99484644764E+01 -0.19808676827E+02  0.22586459223E+03  0.22694970731E+03  0.00000000000E+00 0.  1.
<mgrwt>
<rscale>  2 0.22166543E+02</rscale>
<asrwt>0</asrwt>
<pdfrwt beam="1">  1       21 0.79283536E-01 0.22166543E+02</pdfrwt>
<pdfrwt beam="2">  1       21 0.14887702E-03 0.22166543E+02</pdfrwt>
<totfact> 0.73293101E+07</totfact>
</mgrwt>
</event>
<event>
 4    1  0.2736402E+004  0.2028997E+02  0.7546771E-02  0.1739622E+00
         21   -1    0    0  503  502  0.00000000000E+00  0.00000000000E+00  0.19512058990E+03  0.19512058990E+03  0.00000000000E+00 0. -1.
         21   -1    0    0  501  503 -0.00000000000E+00 -0.00000000000E+00 -0.21897817239E+01  0.21897817239E+01  0.00000000000E+00 0.  1.
          2    1    1    2  501    0 -0.29606731692E+01 -0.20072795465E+02  0.77621352920E+02  0.80229403167E+02  0.00000000000E+00 0.  1.
         -2    1    1    2    0  502  0.29606731692E+01  0.20072795465E+02  0.11530945526E+03  0.11708096846E+03  0.00000000000E+00 0. -1.
<mgrwt>
<rscale>  2 0.20289966E+02</rscale>
<asrwt>0</asrwt>
<pdfrwt beam="1">  1       21 0.30018538E-01 0.20289966E+02</pdfrwt>
<pdfrwt beam="2">  1       21 0.33688965E-03 0.20289966E+02</pdfrwt>
<totfact> 0.14440520E+08</totfact>
</mgrwt>
</event>
<event>
 4    1  0.2736402E+004  0.2590928E+02  0.7546771E-02  0.1648275E+00
         21   -1    0    0  501  502  0.00000000000E+00  0.00000000000E+00  0.15270786918E+02  0.15270786918E+02  0.00000000000E+00 0. -1.
         21   -1    0    0  502  503 -0.00000000000E+00 -0.00000000000E+00 -0.51389536956E+02  0.51389536956E+02  0.00000000000E+00 0.  1.
          2    1    1    2  501    0 -0.25694620594E+02 -0.33282151909E+01 -0.53855910009E+01  0.26463090036E+02  0.00000000000E+00 0. -1.
         -2    1    1    2    0  503  0.25694620594E+02  0.33282151909E+01 -0.30733159037E+02  0.40197233838E+02  0.00000000000E+00 0.  1.
<mgrwt>
<rscale>  2 0.25909275E+02</rscale>
<asrwt>0</asrwt>
<pdfrwt beam="1">  1       21 0.23493519E-02 0.25909275E+02</pdfrwt>
<pdfrwt beam="2">  1       21 0.79060825E-02 0.25909275E+02</pdfrwt>
<totfact> 0.82632856E+07</totfact>
</mgrwt>
</event>
<event>
 4    1  0.2736402E+004  0.2252857E+02  0.7546771E-02  0.1699268E+00
         21   -1    0    0  503  502  0.00000000000E+00  0.00000000000E+00  0.26187827219E+02  0.26187827219E+02  0.00000000000E+00 0.  1.
         21   -1    0    0  501  503 -0.00000000000E+00 -0.00000000000E+00 -0.39877289070E+02  0.39877289070E+02  0.00000000000E+00 0. -1.
          2    1    1    2  501    0  0.12318851941E+02 -0.18862196753E+02 -0.30526870574E+02  0.37939773411E+02  0.00000000000E+00 0. -1.
         -2    1    1    2    0  502 -0.12318851941E+02  0.18862196753E+02  0.16837408724E+02  0.28125342878E+02  0.00000000000E+00 0.  1.
<mgrwt>
<rscale>  2 0.22528573E+02</rscale>
<asrwt>0</asrwt>
<pdfrwt beam="1">  1       21 0.40288965E-02 0.22528573E+02</pdfrwt>
<pdfrwt beam="2">  1       21 0.61349675E-02 0.22528573E+02</pdfrwt>
<totfact> 0.51776129E+07</totfact>
</mgrwt>
</event>
<event>
 4    1  0.2736402E+004  0.3430998E+02  0.7546771E-02  0.1554815E+00
         21   -1    0    0  501  502  0.00000000000E+00  0.00000000000E+00  0.79274157033E+03  0.79274157033E+03  0.00000000000E+00 0.  1.
         21   -1    0    0  502  503 -0.00000000000E+00 -0.00000000000E+00 -0.15190141526E+01  0.15190141526E+01  0.00000000000E+00 0. -1.
          2    1    1    2  501    0 -0.31631574261E+02 -0.13289770370E+02  0.33613304602E+03  0.33787956303E+03  0.00000000000E+00 0.  1.
         -2    1    1    2    0  503  0.31631574261E+02  0.13289770370E+02  0.45508951015E+03  0.45638102145E+03  0.00000000000E+00 0. -1.
<mgrwt>
<rscale>  2 0.34309976E+02</rscale>
<asrwt>0</asrwt>
<pdfrwt beam="1">  1       21 0.12195991E+00 0.34309976E+02</pdfrwt>
<pdfrwt beam="2">  1       21 0.23369512E-03 0.34309976E+02</pdfrwt>
<totfact> 0.16028399E+07</totfact>
</mgrwt>
</event>
<event>
 4    1  0.2736402E+004  0.2056550E+02  0.7546771E-02  0.1734311E+00
         21   -1    0    0  501  502  0.00000000000E+00  0.00000000000E+00  0.97600841345E+02  0.97600841345E+02  0.00000000000E+00 0.  1.
         21   -1    0    0  502  503 -0.00000000000E+00 -0.00000000000E+00 -0.50928990762E+01  0.50928990762E+01  0.00000000000E+00 0. -1.
          2    1    1    2  501    0  0.15184877334E+02 -0.13869359393E+02  0.66083224542E+02  0.69209336043E+02  0.00000000000E+00 0.  1.
         -2    1    1    2    0  503 -0.15184877334E+02  0.13869359393E+02  0.26424717726E+02  0.33484404378E+02  0.00000000000E+00 0. -1.
<mgrwt>
<rscale>  2 0.20565496E+02</rscale>
<asrwt>0</asrwt>
<pdfrwt beam="1">  1       21 0.15015513E-01 0.20565496E+02</pdfrwt>
<pdfrwt beam="2">  1       21 0.78352301E-03 0.20565496E+02</pdfrwt>
<totfact> 0.14067331E+08</totfact>
</mgrwt>
</event>
<event>
 4    1  0.2736402E+004  0.4206242E+02  0.7546771E-02  0.1493560E+00
         21   -1    0    0  501  502  0.00000000000E+00  0.00000000000E+00  0.13816188999E+02  0.13816188999E+02  0.00000000000E+00 0. -1.
         21   -1    0    0  502  503 -0.00000000000E+00 -0.00000000000E+00 -0.24081034554E+03  0.24081034554E+03  0.00000000000E+00 0.  1.
          2    1    1    2  501    0 -0.26401474390E+02  0.32744611122E+02 -0.26380155353E+02  0.49650377682E+02  0.00000000000E+00 0. -1.
         -2    1    1    2    0  503  0.26401474390E+02 -0.32744611122E+02 -0.20061400119E+03  0.20497615686E+03  0.00000000000E+00 0.  1.
<mgrwt>
<rscale>  2 0.42062423E+02</rscale>
<asrwt>0</asrwt>
<pdfrwt beam="1">  1       21 0.21255674E-02 0.42062423E+02</pdfrwt>
<pdfrwt beam="2">  1       21 0.37047748E-01 0.42062423E+02</pdfrwt>
<totfact> 0.70192269E+06</totfact>
</mgrwt>
</event>
<event>
 4    1  0.2736402E+004  0.2006840E+02  0.7546771E-02  0.1743971E+00
         21   -1    0    0  501  502  0.00000000000E+00  0.00000000000E+00  0.19051261325E+02  0.19051261325E+02  0.00000000000E+00 0. -1.
         21   -1    0    0  502  503 -0.00000000000E+00 -0.00000000000E+00 -0.35562273963E+02  0.35562273963E+02  0.00000000000E+00 0.  1.
          2    1    1    2  501    0 -0.93846406499E+01 -0.17738914688E+02  0.91343040344E+01  0.22049401004E+02  0.00000000000E+00 0. -1.
         -2    1    1    2    0  503  0.93846406499E+01  0.17738914688E+02 -0.25645316672E+02  0.32564134284E+02  0.00000000000E+00 0.  1.
<mgrwt>
<rscale>  2 0.20068397E+02</rscale>
<asrwt>0</asrwt>
<pdfrwt beam="1">  1       21 0.29309633E-02 0.20068397E+02</pdfrwt>
<pdfrwt beam="2">  1       21 0.54711191E-02 0.20068397E+02</pdfrwt>
<totfact> 0.98902749E+07</totfact>
</mgrwt>
</event>
<event>
 4    1  0.2736402E+004  0.2161320E+02  0.7546771E-02  0.1715029E+00
         21   -1    0    0  501  502  0.00000000000E+00  0.00000000000E+00  0.78373297912E+00  0.78373297912E+00  0.00000000000E+00 0. -1.
         21   -1    0    0  502  503 -0.00000000000E+00 -0.00000000000E+00 -0.72025660820E+03  0.72025660820E+03  0.00000000000E+00 0.  1.
          2    1    1    2  501    0 -0.16470443949E+02 -0.13994819825E+02 -0.21001344919E+03  0.21112266422E+03  0.00000000000E+00 0. -1.
         -2    1    1    2    0  503  0.16470443949E+02  0.13994819825E+02 -0.50945942603E+03  0.50991767696E+03  0.00000000000E+00 0.  1.
<mgrwt>
<rscale>  2 0.21613202E+02</rscale>
<asrwt>0</asrwt>
<pdfrwt beam="1">  1       21 0.12057466E-03 0.21613202E+02</pdfrwt>
<pdfrwt beam="2">  1       21 0.11080839E+00 0.21613202E+02</pdfrwt>
<totfact> 0.47862457E+07</totfact>
</mgrwt>
</event>
<event>
 4    1  0.2736402E+004  0.2129492E+02  0.7546771E-02  0.1720739E+00
         21   -1    0    0  503  502  0.00000000000E+00  0.00000000000E+00  0.61365914244E+02  0.61365914244E+02  0.00000000000E+00 0.  1.
         21   -1    0    0  501  503 -0.00000000000E+00 -0.00000000000E+00 -0.23152424513E+02  0.23152424513E+02  0.00000000000E+00 0. -1.
          2    1    1    2  501    0 -0.21249888503E+02  0.13841823702E+01 -0.15762199856E+02  0.26493785432E+02  0.00000000000E+00 0. -1.
         -2    1    1    2    0  502  0.21249888503E+02 -0.13841823702E+01  0.53975689587E+02  0.58024553326E+02  0.00000000000E+00 0.  1.
<mgrwt>
<rscale>  2 0.21294922E+02</rscale>
<asrwt>0</asrwt>
<pdfrwt beam="1">  1       21 0.94409099E-02 0.21294922E+02</pdfrwt>
<pdfrwt beam="2">  1       21 0.35619115E-02 0.21294922E+02</pdfrwt>
<totfact> 0.30749132E+07</totfact>
</mgrwt>
</event>
<event>
 4    1  0.2736402E+004  0.2722147E+02  0.7546771E-02  0.1631002E+00
         21   -1    0    0  503  502  0.00000000000E+00  0.00000000000E+00  0.23861206977E+02  0.23861206977E+02  0.00000000000E+00 0.  1.
         21   -1    0    0  501  503 -0.00000000000E+00 -0.00000000000E+00 -0.89149766667E+02  0.89149766667E+02  0.00000000000E+00 0. -1.
          2    1    1    2  501    0 -0.25935976886E+02  0.82664184391E+01 -0.78258390441E+02  0.82857614286E+02  0.00000000000E+00 0. -1.
         -2    1    1    2    0  502  0.25935976886E+02 -0.82664184391E+01  0.12969830751E+02  0.30153359357E+02  0.00000000000E+00 0.  1.
<mgrwt>
<rscale>  2 0.27221473E+02</rscale>
<asrwt>0</asrwt>
<pdfrwt beam="1">  1       21 0.36709549E-02 0.27221473E+02</pdfrwt>
<pdfrwt beam="2">  1       21 0.13715349E-01 0.27221473E+02</pdfrwt>
<totfact> 0.16573467E+07</totfact>
</mgrwt>
</event>
<event>
 4    1  0.2736402E+004  0.2299037E+02  0.7546771E-02  0.1691666E+00
         21   -1    0    0  501  502  0.00000000000E+00  0.00000000000E+00  0.61239933662E+01  0.61239933662E+01  0.00000000000E+00 0. -1.
         21   -1    0    0  502  503 -0.00000000000E+00 -0.00000000000E+00 -0.96387969939E+02  0.96387969939E+02  0.00000000000E+00 0.  1.
          2    1    1    2  501    0 -0.16439306956E+02  0.16071915509E+02 -0.28557665087E+02  0.36661935527E+02  0.00000000000E+00 0. -1.
         -2    1    1    2    0  503  0.16439306956E+02 -0.16071915509E+02 -0.61706311485E+02  0.65850027778E+02  0.00000000000E+00 0.  1.
<mgrwt>
<rscale>  2 0.22990374E+02</rscale>
<asrwt>0</asrwt>
<pdfrwt beam="1">  1       21 0.94215290E-03 0.22990374E+02</pdfrwt>
<pdfrwt beam="2">  1       21 0.14828917E-01 0.22990374E+02</pdfrwt>
<totfact> 0.11274011E+08</totfact>
</mgrwt>
</event>
<event>
 4    1  0.2736402E+004  0.3000095E+02  0.7546771E-02  0.1598078E+00
         21   -1    0    0  501  502  0.00000000000E+00  0.00000000000E+00  0.14448417104E+02  0.14448417104E+02  0.00000000000E+00 0. -1.
         21   -1    0    0  502  503 -0.00000000000E+00 -0.00000000000E+00 -0.73707999436E+02  0.73707999436E+02  0.00000000000E+00 0.  1.
          2    1    1    2  501    0  0.29859853251E+02 -0.29062427509E+01 -0.12284730792E+02  0.32418693585E+02  0.00000000000E+00 0.  1.
         -2    1    1    2    0  503 -0.29859853251E+02  0.29062427509E+01 -0.46974851540E+02  0.55737722956E+02  0.00000000000E+00 0. -1.
<mgrwt>
<rscale>  2 0.30000951E+02</rscale>
<asrwt>0</asrwt>
<pdfrwt beam="1">  1       21 0.22228335E-02 0.30000951E+02</pdfrwt>
<pdfrwt beam="2">  1       21 0.11339692E-01 0.30000951E+02</pdfrwt>
<totfact> 0.51236952E+07</totfact>
</mgrwt>
</event>
<event>
 4    1  0.2736402E+004  0.2099180E+02  0.7546771E-02  0.1726295E+00
         21   -1    0    0  501  502  0.00000000000E+00  0.00000000000E+00  0.81625718857E+03  0.81625718857E+03  0.00000000000E+00 0. -1.
         21   -1    0    0  502  503 -0.00000000000E+00 -0.00000000000E+00 -0.54176522462E+00  0.54176522462E+00  0.00000000000E+00 0.  1.
          2    1    1    2  501    0  0.15916828175E+02  0.13686127609E+02  0.43214725408E+03  0.43265679784E+03  0.00000000000E+00 0.  1.
         -2    1    1    2    0  503 -0.15916828175E+02 -0.13686127609E+02  0.38356816926E+03  0.38414215595E+03  0.00000000000E+00 0. -1.
<mgrwt>
<rscale>  2 0.20991796E+02</rscale>
<asrwt>0</asrwt>
<pdfrwt beam="1">  1       21 0.12557704E+00 0.20991796E+02</pdfrwt>
<pdfrwt beam="2">  1       21 0.83349149E-04 0.20991796E+02</pdfrwt>
<totfact> 0.60639733E+07</totfact>
</mgrwt>
</event>
<event>
 4    1  0.2736402E+004  0.3263430E+02  0.7546771E-02  0.1570671E+00
         21   -1    0    0  503  502  0.00000000000E+00  0.00000000000E+00  0.17312521703E+02  0.17312521703E+02  0.00000000000E+00 0. -1.
         21   -1    0    0  501  503 -0.00000000000E+00 -0.00000000000E+00 -0.66643199445E+02  0.66643199445E+02  0.00000000000E+00 0.  1.
          2    1    1    2  501    0  0.24982369600E+02  0.20997106878E+02 -0.36308797130E+02  0.48819320326E+02  0.00000000000E+00 0.  1.
         -2    1    1    2    0  502 -0.24982369600E+02 -0.20997106878E+02 -0.13021880612E+02  0.35136400822E+02  0.00000000000E+00 0. -1.
<mgrwt>
<rscale>  2 0.32634296E+02</rscale>
<asrwt>0</asrwt>
<pdfrwt beam="1">  1       21 0.26634649E-02 0.32634296E+02</pdfrwt>
<pdfrwt beam="2">  1       21 0.10252800E-01 0.32634296E+02</pdfrwt>
<totfact> 0.46588612E+07</totfact>
</mgrwt>
</event>
<event>
 4    1  0.2736402E+004  0.2415347E+02  0.7546771E-02  0.1673467E+00
         21   -1    0    0  503  502  0.00000000000E+00  0.00000000000E+00  0.24522658168E+03  0.24522658168E+03  0.00000000000E+00 0. -1.
         21   -1    0    0  501  503 -0.00000000000E+00 -0.00000000000E+00 -0.20184759431E+02  0.20184759431E+02  0.00000000000E+00 0.  1.
          2    1    1    2  501    0 -0.24121484861E+02 -0.12426297156E+01 -0.12119288383E+02  0.27023458540E+02  0.00000000000E+00 0.  1.
         -2    1    1    2    0  502  0.24121484861E+02  0.12426297156E+01  0.23716111064E+03  0.23838788258E+03  0.00000000000E+00 0. -1.
<mgrwt>
<rscale>  2 0.24153471E+02</rscale>
<asrwt>0</asrwt>
<pdfrwt beam="1">  1       21 0.37727164E-01 0.24153471E+02</pdfrwt>
<pdfrwt beam="2">  1       21 0.31053478E-02 0.24153471E+02</pdfrwt>
<totfact> 0.34939165E+06</totfact>
</mgrwt>
</event>
<event>
 4    1  0.2736402E+004  0.2084656E+02  0.7546771E-02  0.1728999E+00
         21   -1    0    0  501  502  0.00000000000E+00  0.00000000000E+00  0.36923075573E+02  0.36923075573E+02  0.00000000000E+00 0.  1.
         21   -1    0    0  502  503 -0.00000000000E+00 -0.00000000000E+00 -0.23174454975E+02  0.23174454975E+02  0.00000000000E+00 0. -1.
          2    1    1    2  501    0  0.16600774821E+02  0.12609249477E+02  0.27953896186E+02  0.34871180207E+02  0.00000000000E+00 0.  1.
         -2    1    1    2    0  503 -0.16600774821E+02 -0.12609249477E+02 -0.14205275588E+02  0.25226350342E+02  0.00000000000E+00 0. -1.
<mgrwt>
<rscale>  2 0.20846556E+02</rscale>
<asrwt>0</asrwt>
<pdfrwt beam="1">  1       21 0.56804732E-02 0.20846556E+02</pdfrwt>
<pdfrwt beam="2">  1       21 0.35653007E-02 0.20846556E+02</pdfrwt>
<totfact> 0.69465679E+07</totfact>
</mgrwt>
</event>
<event>
 4    1  0.2736402E+004  0.2565681E+02  0.7546771E-02  0.1651743E+00
         21   -1    0    0  503  502  0.00000000000E+00  0.00000000000E+00  0.20367092478E+02  0.20367092478E+02  0.00000000000E+00 0. -1.
         21   -1    0    0  501  503 -0.00000000000E+00 -0.00000000000E+00 -0.50495547663E+02  0.50495547663E+02  0.00000000000E+00 0.  1.
          2    1    1    2  501    0  0.12609189393E+02  0.22344576639E+02 -0.36321142836E+02  0.44469058673E+02  0.00000000000E+00 0.  1.
         -2    1    1    2    0  502 -0.12609189393E+02 -0.22344576639E+02  0.61926876513E+01  0.26393581468E+02  0.00000000000E+00 0. -1.
<mgrwt>
<rscale>  2 0.25656807E+02</rscale>
<asrwt>0</asrwt>
<pdfrwt beam="1">  1       21 0.31333989E-02 0.25656807E+02</pdfrwt>
<pdfrwt beam="2">  1       21 0.77685457E-02 0.25656807E+02</pdfrwt>
<totfact> 0.54166085E+07</totfact>
</mgrwt>
</event>
<event>
 4    1  0.2736402E+004  0.2680676E+02  0.7546771E-02  0.1636329E+00
         21   -1    0    0  501  502  0.00000000000E+00  0.00000000000E+00  0.92649041863E+01  0.92649041863E+01  0.00000000000E+00 0.  1.
         21   -1    0    0  502  503 -0.00000000000E+00 -0.00000000000E+00 -0.77565784642E+02  0.77565784642E+02  0.00000000000E+00 0. -1.
          2    1    1    2  501    0  0.87488653350E+00  0.26792481273E+02 -0.34462313976E+02  0.43660663804E+02  0.00000000000E+00 0.  1.
         -2    1    1    2    0  503 -0.87488653350E+00 -0.26792481273E+02 -0.33838566479E+02  0.43170025024E+02  0.00000000000E+00 0. -1.
<mgrwt>
<rscale>  2 0.26806762E+02</rscale>
<asrwt>0</asrwt>
<pdfrwt beam="1">  1       21 0.14253699E-02 0.26806762E+02</pdfrwt>
<pdfrwt beam="2">  1       21 0.11933197E-01 0.26806762E+02</pdfrwt>
<totfact> 0.90720415E+07</totfact>
</mgrwt>
</event>
<event>
 4    1  0.2736402E+004  0.3499230E+02  0.7546771E-02  0.1548669E+00
         21   -1    0    0  501  502  0.00000000000E+00  0.00000000000E+00  0.16219346195E+03  0.16219346195E+03  0.00000000000E+00 0.  1.
         21   -1    0    0  502  503 -0.00000000000E+00 -0.00000000000E+00 -0.75866722061E+01  0.75866722061E+01  0.00000000000E+00 0. -1.
          2    1    1    2  501    0 -0.39424622051E+01  0.34769501301E+02  0.83254517829E+02  0.90309334888E+02  0.00000000000E+00 0.  1.
         -2    1    1    2    0  503  0.39424622051E+01 -0.34769501301E+02  0.71352271920E+02  0.79470799273E+02  0.00000000000E+00 0. -1.
<mgrwt>
<rscale>  2 0.34992302E+02</rscale>
<asrwt>0</asrwt>
<pdfrwt beam="1">  1       21 0.24952838E-01 0.34992302E+02</pdfrwt>
<pdfrwt beam="2">  1       21 0.11671805E-02 0.34992302E+02</pdfrwt>
<totfact> 0.36052858E+07</totfact>
</mgrwt>
</event>
<event>
 4    1  0.2736402E+004  0.2062539E+02  0.7546771E-02  0.1733170E+00
         21   -1    0    0  501  502  0.00000000000E+00  0.00000000000E+00  0.69115795486E+02  0.69115795486E+02  0.00000000000E+00 0.  1.
         21   -1    0    0  502  503 -0.00000000000E+00 -0.00000000000E+00 -0.82294081343E+02  0.82294081343E+02  0.00000000000E+00 0. -1.
          2    1    1    2  501    0  0.10722835274E+02  0.17618947477E+02  0.66229700383E+02  0.69366993011E+02  0.00000000000E+00 0.  1.
         -2    1    1    2    0  503 -0.10722835274E+02 -0.17618947477E+02 -0.79407986240E+02  0.82042883818E+02  0.00000000000E+00 0. -1.
<mgrwt>
<rscale>  2 0.20625385E+02</rscale>
<asrwt>0</asrwt>
<pdfrwt beam="1">  1       21 0.10633199E-01 0.20625385E+02</pdfrwt>
<pdfrwt beam="2">  1       21 0.12660628E-01 0.20625385E+02</pdfrwt>
<totfact> 0.32499060E+06</totfact>
</mgrwt>
</event>
<event>
 4    1  0.2736402E+004  0.2272951E+02  0.7546771E-02  0.1695933E+00
         21   -1    0    0  503  502  0.00000000000E+00  0.00000000000E+00  0.96595291712E+01  0.96595291712E+01  0.00000000000E+00 0.  1.
         21   -1    0    0  501  503 -0.00000000000E+00 -0.00000000000E+00 -0.37896768141E+03  0.37896768141E+03  0.00000000000E+00 0. -1.
          2    1    1    2  501    0 -0.19642557565E+02  0.11436805740E+02 -0.36473458490E+03  0.36544212677E+03  0.00000000000E+00 0. -1.
         -2    1    1    2    0  502  0.19642557565E+02 -0.11436805740E+02 -0.45735673370E+01  0.23185083813E+02  0.00000000000E+00 0.  1.
<mgrwt>
<rscale>  2 0.22729509E+02</rscale>
<asrwt>0</asrwt>
<pdfrwt beam="1">  1       21 0.14860814E-02 0.22729509E+02</pdfrwt>
<pdfrwt beam="2">  1       21 0.58302719E-01 0.22729509E+02</pdfrwt>
<totfact> 0.46517381E+06</totfact>
</mgrwt>
</event>
<event>
 4    1  0.2736402E+004  0.2436055E+02  0.7546771E-02  0.1670360E+00
         21   -1    0    0  503  502  0.00000000000E+00  0.00000000000E+00  0.50931302506E+00  0.50931302506E+00  0.00000000000E+00 0. -1.
         21   -1    0    0  501  503 -0.00000000000E+00 -0.00000000000E+00 -0.17002034251E+04  0.17002034251E+04  0.00000000000E+00 0.  1.
          2    1    1    2  501    0 -0.23295186357E+02  0.71253462337E+01 -0.13268718752E+04  0.13270954787E+04  0.00000000000E+00 0.  1.
         -2    1    1    2    0  502  0.23295186357E+02 -0.71253462337E+01 -0.37282223682E+03  0.37361725942E+03  0.00000000000E+00 0. -1.
<mgrwt>
<rscale>  2 0.24360547E+02</rscale>
<asrwt>0</asrwt>
<pdfrwt beam="1">  1       21 0.78355313E-04 0.24360547E+02</pdfrwt>
<pdfrwt beam="2">  1       21 0.26157155E+00 0.24360547E+02</pdfrwt>
<totfact> 0.10591065E+07</totfact>
</mgrwt>
</event>
<event>
 4    1  0.2736402E+004  0.3774077E+02  0.7546771E-02  0.1525527E+00
         21   -1    0    0  501  502  0.00000000000E+00  0.00000000000E+00  0.90210237960E+01  0.90210237960E+01  0.00000000000E+00 0. -1.
         21   -1    0    0  502  503 -0.00000000000E+00 -0.00000000000E+00 -0.17425515474E+03  0.17425515474E+03  0.00000000000E+00 0.  1.
          2    1    1    2  501    0 -0.29760566863E+02  0.23209361507E+02 -0.54537538559E+02  0.66322763164E+02  0.00000000000E+00 0. -1.
         -2    1    1    2    0  503  0.29760566863E+02 -0.23209361507E+02 -0.11069659239E+03  0.11695341537E+03  0.00000000000E+00 0.  1.
<mgrwt>
<rscale>  2 0.37740771E+02</rscale>
<asrwt>0</asrwt>
<pdfrwt beam="1">  1       21 0.13878498E-02 0.37740771E+02</pdfrwt>
<pdfrwt beam="2">  1       21 0.26808485E-01 0.37740771E+02</pdfrwt>
<totfact> 0.24568154E+07</totfact>
</mgrwt>
</event>
<event>
 4    1  0.2736402E+004  0.2925889E+02  0.7546771E-02  0.1606428E+00
         21   -1    0    0  503  502  0.00000000000E+00  0.00000000000E+00  0.69067114876E+01  0.69067114876E+01  0.00000000000E+00 0.  1.
         21   -1    0    0  501  503 -0.00000000000E+00 -0.00000000000E+00 -0.33235884159E+03  0.33235884159E+03  0.00000000000E+00 0. -1.
          2    1    1    2  501    0 -0.24904260472E+02  0.15357743772E+02 -0.29705355104E+03  0.29849102946E+03  0.00000000000E+00 0. -1.
         -2    1    1    2    0  502  0.24904260472E+02 -0.15357743772E+02 -0.28398579065E+02  0.40774523618E+02  0.00000000000E+00 0.  1.
<mgrwt>
<rscale>  2 0.29258887E+02</rscale>
<asrwt>0</asrwt>
<pdfrwt beam="1">  1       21 0.10625712E-02 0.29258887E+02</pdfrwt>
<pdfrwt beam="2">  1       21 0.51132121E-01 0.29258887E+02</pdfrwt>
<totfact> 0.10431107E+07</totfact>
</mgrwt>
</event>
<event>
 4    1  0.2736402E+004  0.2359385E+02  0.7546771E-02  0.1682061E+00
         21   -1    0    0  501  502  0.00000000000E+00  0.00000000000E+00  0.35993416974E+02  0.35993416974E+02  0.00000000000E+00 0. -1.
         21   -1    0    0  502  503 -0.00000000000E+00 -0.00000000000E+00 -0.19210782501E+02  0.19210782501E+02  0.00000000000E+00 0.  1.
          2    1    1    2  501    0 -0.82461562740E+01 -0.22105892213E+02  0.20578135661E+02  0.31307015685E+02  0.00000000000E+00 0. -1.
         -2    1    1    2    0  503  0.82461562740E+01  0.22105892213E+02 -0.37955011882E+01  0.23897183790E+02  0.00000000000E+00 0.  1.
<mgrwt>
<rscale>  2 0.23593846E+02</rscale>
<asrwt>0</asrwt>
<pdfrwt beam="1">  1       21 0.55374488E-02 0.23593846E+02</pdfrwt>
<pdfrwt beam="2">  1       21 0.29555050E-02 0.23593846E+02</pdfrwt>
<totfact> 0.10041232E+08</totfact>
</mgrwt>
</event>
<event>
 4    1  0.2736402E+004  0.2060759E+02  0.7546771E-02  0.1733509E+00
         21   -1    0    0  503  502  0.00000000000E+00  0.00000000000E+00  0.16293420470E+02  0.16293420470E+02  0.00000000000E+00 0.  1.
         21   -1    0    0  501  503 -0.00000000000E+00 -0.00000000000E+00 -0.71752732454E+02  0.71752732454E+02  0.00000000000E+00 0. -1.
          2    1    1    2  501    0  0.18973634241E+02  0.80420015736E+01 -0.62858630065E+02  0.66150434309E+02  0.00000000000E+00 0. -1.
         -2    1    1    2    0  502 -0.18973634241E+02 -0.80420015736E+01  0.73993180814E+01  0.21895718615E+02  0.00000000000E+00 0.  1.
<mgrwt>
<rscale>  2 0.20607586E+02</rscale>
<asrwt>0</asrwt>
<pdfrwt beam="1">  1       21 0.25066801E-02 0.20607586E+02</pdfrwt>
<pdfrwt beam="2">  1       21 0.11038882E-01 0.20607586E+02</pdfrwt>
<totfact> 0.40639830E+07</totfact>
</mgrwt>
</event>
<event>
 4    1  0.2736402E+004  0.2187939E+02  0.7546771E-02  0.1710346E+00
         21   -1    0    0  501  502  0.00000000000E+00  0.00000000000E+00  0.13660064320E+02  0.13660064320E+02  0.00000000000E+00 0.  1.
         21   -1    0    0  502  503 -0.00000000000E+00 -0.00000000000E+00 -0.35046266035E+02  0.35046266035E+02  0.00000000000E+00 0. -1.
          2    1    1    2  501    0 -0.21846862194E+02 -0.11926602806E+01 -0.10874022452E+02  0.24432605071E+02  0.00000000000E+00 0.  1.
         -2    1    1    2    0  503  0.21846862194E+02  0.11926602806E+01 -0.10512179263E+02  0.24273725283E+02  0.00000000000E+00 0. -1.
<mgrwt>
<rscale>  2 0.21879393E+02</rscale>
<asrwt>0</asrwt>
<pdfrwt beam="1">  1       21 0.21015483E-02 0.21879393E+02</pdfrwt>
<pdfrwt beam="2">  1       21 0.53917333E-02 0.21879393E+02</pdfrwt>
<totfact> 0.17353127E+08</totfact>
</mgrwt>
</event>
<event>
 4    1  0.2736402E+004  0.2106237E+02  0.7546771E-02  0.1724991E+00
         21   -1    0    0  501  502  0.00000000000E+00  0.00000000000E+00  0.32314465145E+01  0.32314465145E+01  0.00000000000E+00 0.  1.
         21   -1    0    0  502  503 -0.00000000000E+00 -0.00000000000E+00 -0.14571950497E+03  0.14571950497E+03  0.00000000000E+00 0. -1.
          2    1    1    2  501    0  0.16064109751E+02  0.13622325399E+02 -0.89163705274E+02  0.91617627723E+02  0.00000000000E+00 0.  1.
         -2    1    1    2    0  503 -0.16064109751E+02 -0.13622325399E+02 -0.53324353186E+02  0.57333323766E+02  0.00000000000E+00 0. -1.
<mgrwt>
<rscale>  2 0.21062369E+02</rscale>
<asrwt>0</asrwt>
<pdfrwt beam="1">  1       21 0.49714560E-03 0.21062369E+02</pdfrwt>
<pdfrwt beam="2">  1       21 0.22418386E-01 0.21062369E+02</pdfrwt>
<totfact> 0.13903761E+08</totfact>
</mgrwt>
</event>
<event>
 4    1  0.2736402E+004  0.2350220E+02  0.7546771E-02  0.1683497E+00
         21   -1    0    0  503  502  0.00000000000E+00  0.00000000000E+00  0.87332575862E+00  0.87332575862E+00  0.00000000000E+00 0.  1.
         21   -1    0    0  501  503 -0.00000000000E+00 -0.00000000000E+00 -0.13357776625E+04  0.13357776625E+04  0.00000000000E+00 0. -1.
          2    1    1    2  501    0  0.13647019123E+02  0.19134054621E+02 -0.11523980989E+04  0.11526377278E+04  0.00000000000E+00 0.  1.
         -2    1    1    2    0  502 -0.13647019123E+02 -0.19134054621E+02 -0.18250623785E+03  0.18401326048E+03  0.00000000000E+00 0. -1.
<mgrwt>
<rscale>  2 0.23502195E+02</rscale>
<asrwt>0</asrwt>
<pdfrwt beam="1">  1       21 0.13435741E-03 0.23502195E+02</pdfrwt>
<pdfrwt beam="2">  1       21 0.20550487E+00 0.23502195E+02</pdfrwt>
<totfact> 0.95275051E+06</totfact>
</mgrwt>
</event>
<event>
 4    1  0.2736402E+004  0.2535294E+02  0.7546771E-02  0.1655984E+00
         21   -1    0    0  503  502  0.00000000000E+00  0.00000000000E+00  0.10583688336E+03  0.10583688336E+03  0.00000000000E+00 0. -1.
         21   -1    0    0  501  503 -0.00000000000E+00 -0.00000000000E+00 -0.14029424515E+02  0.14029424515E+02  0.00000000000E+00 0.  1.
          2    1    1    2  501    0 -0.24793695906E+02 -0.52956880670E+01  0.77013544808E+00  0.25364636355E+02  0.00000000000E+00 0.  1.
         -2    1    1    2    0  502  0.24793695906E+02  0.52956880670E+01  0.91037323395E+02  0.94501671518E+02  0.00000000000E+00 0. -1.
<mgrwt>
<rscale>  2 0.25352942E+02</rscale>
<asrwt>0</asrwt>
<pdfrwt beam="1">  1       21 0.16282597E-01 0.25352942E+02</pdfrwt>
<pdfrwt beam="2">  1       21 0.21583731E-02 0.25352942E+02</pdfrwt>
<totfact> 0.27910074E+07</totfact>
</mgrwt>
</event>
<event>
 4    1  0.2736402E+004  0.2592192E+02  0.7546771E-02  0.1648102E+00
         21   -1    0    0  503  502  0.00000000000E+00  0.00000000000E+00  0.85140774941E+02  0.85140774941E+02  0.00000000000E+00 0. -1.
         21   -1    0    0  501  503 -0.00000000000E+00 -0.00000000000E+00 -0.10034473369E+02  0.10034473369E+02  0.00000000000E+00 0.  1.
          2    1    1    2  501    0 -0.23561488507E+02 -0.10807515126E+02  0.15565114895E+02  0.30236053406E+02  0.00000000000E+00 0.  1.
         -2    1    1    2    0  502  0.23561488507E+02  0.10807515126E+02  0.59541186677E+02  0.64939194904E+02  0.00000000000E+00 0. -1.
<mgrwt>
<rscale>  2 0.25921924E+02</rscale>
<asrwt>0</asrwt>
<pdfrwt beam="1">  1       21 0.13098580E-01 0.25921924E+02</pdfrwt>
<pdfrwt beam="2">  1       21 0.15437652E-02 0.25921924E+02</pdfrwt>
<totfact> 0.68046153E+07</totfact>
</mgrwt>
</event>
<event>
 4    1  0.2736402E+004  0.2127811E+02  0.7546771E-02  0.1721044E+00
         21   -1    0    0  503  502  0.00000000000E+00  0.00000000000E+00  0.15721479128E+03  0.15721479128E+03  0.00000000000E+00 0.  1.
         21   -1    0    0  501  503 -0.00000000000E+00 -0.00000000000E+00 -0.76456618480E+01  0.76456618480E+01  0.00000000000E+00 0. -1.
          2    1    1    2  501    0  0.16544404385E+02  0.13380603334E+02  0.97047103943E+01  0.23386732689E+02  0.00000000000E+00 0. -1.
         -2    1    1    2    0  502 -0.16544404385E+02 -0.13380603334E+02  0.13986441904E+03  0.14147372044E+03  0.00000000000E+00 0.  1.
<mgrwt>
<rscale>  2 0.21278108E+02</rscale>
<asrwt>0</asrwt>
<pdfrwt beam="1">  1       21 0.24186889E-01 0.21278108E+02</pdfrwt>
<pdfrwt beam="2">  1       21 0.11762558E-02 0.21278108E+02</pdfrwt>
<totfact> 0.33886623E+07</totfact>
</mgrwt>
</event>
<event>
 4    1  0.2736402E+004  0.2111352E+02  0.7546771E-02  0.1724050E+00
         21   -1    0    0  501  502  0.00000000000E+00  0.00000000000E+00  0.36793983258E+03  0.36793983258E+03  0.00000000000E+00 0.  1.
         21   -1    0    0  502  503 -0.00000000000E+00 -0.00000000000E+00 -0.16858451699E+01  0.16858451699E+01  0.00000000000E+00 0. -1.
          2    1    1    2  501    0  0.48045787626E+01  0.20559592790E+02  0.28115349544E+03  0.28194515217E+03  0.00000000000E+00 0.  1.
         -2    1    1    2    0  503 -0.48045787626E+01 -0.20559592790E+02  0.85100491967E+02  0.87680525579E+02  0.00000000000E+00 0. -1.
<mgrwt>
<rscale>  2 0.21113523E+02</rscale>
<asrwt>0</asrwt>
<pdfrwt beam="1">  1       21 0.56606064E-01 0.21113523E+02</pdfrwt>
<pdfrwt beam="2">  1       21 0.25936109E-03 0.21113523E+02</pdfrwt>
<totfact> 0.64520698E+07</totfact>
</mgrwt>
</event>
<event>
 4    1  0.2736402E+004  0.2170859E+02  0.7546771E-02  0.1713341E+00
         21   -1    0    0  503  502  0.00000000000E+00  0.00000000000E+00  0.12328094894E+03  0.12328094894E+03  0.00000000000E+00 0. -1.
         21   -1    0    0  501  503 -0.00000000000E+00 -0.00000000000E+00 -0.43361878609E+01  0.43361878609E+01  0.00000000000E+00 0.  1.
          2    1    1    2  501    0  0.52334227969E+01 -0.21068321939E+02  0.37513967252E+02  0.43342365446E+02  0.00000000000E+00 0.  1.
         -2    1    1    2    0  502 -0.52334227969E+01  0.21068321939E+02  0.81430793826E+02  0.84274771354E+02  0.00000000000E+00 0. -1.
<mgrwt>
<rscale>  2 0.21708591E+02</rscale>
<asrwt>0</asrwt>
<pdfrwt beam="1">  1       21 0.18966297E-01 0.21708591E+02</pdfrwt>
<pdfrwt beam="2">  1       21 0.66710592E-03 0.21708591E+02</pdfrwt>
<totfact> 0.12164043E+08</totfact>
</mgrwt>
</event>
<event>
 4    1  0.2736402E+004  0.2466921E+02  0.7546771E-02  0.1665799E+00
         21   -1    0    0  503  502  0.00000000000E+00  0.00000000000E+00  0.17288639107E+02  0.17288639107E+02  0.00000000000E+00 0.  1.
         21   -1    0    0  501  503 -0.00000000000E+00 -0.00000000000E+00 -0.39392059975E+02  0.39392059975E+02  0.00000000000E+00 0. -1.
          2    1    1    2  501    0 -0.55099201082E+01 -0.24046009142E+02 -0.20296256670E+02  0.31945387932E+02  0.00000000000E+00 0.  1.
         -2    1    1    2    0  502  0.55099201082E+01  0.24046009142E+02 -0.18071641973E+01  0.24735311150E+02  0.00000000000E+00 0. -1.
<mgrwt>
<rscale>  2 0.24669207E+02</rscale>
<asrwt>0</asrwt>
<pdfrwt beam="1">  1       21 0.26597906E-02 0.24669207E+02</pdfrwt>
<pdfrwt beam="2">  1       21 0.60603170E-02 0.24669207E+02</pdfrwt>
<totfact> 0.10364318E+08</totfact>
</mgrwt>
</event>
<event>
 4    1  0.2736402E+004  0.2577148E+02  0.7546771E-02  0.1650162E+00
         21   -1    0    0  501  502  0.00000000000E+00  0.00000000000E+00  0.16254637802E+03  0.16254637802E+03  0.00000000000E+00 0. -1.
         21   -1    0    0  502  503 -0.00000000000E+00 -0.00000000000E+00 -0.50182818252E+01  0.50182818252E+01  0.00000000000E+00 0.  1.
          2    1    1    2  501    0  0.13979439778E+02 -0.21650507547E+02  0.11487523517E+03  0.11773057746E+03  0.00000000000E+00 0. -1.
         -2    1    1    2    0  503 -0.13979439778E+02  0.21650507547E+02  0.42652861017E+02  0.49834082378E+02  0.00000000000E+00 0.  1.
<mgrwt>
<rscale>  2 0.25771481E+02</rscale>
<asrwt>0</asrwt>
<pdfrwt beam="1">  1       21 0.25007131E-01 0.25771481E+02</pdfrwt>
<pdfrwt beam="2">  1       21 0.77204348E-03 0.25771481E+02</pdfrwt>
<totfact> 0.62913849E+07</totfact>
</mgrwt>
</event>
<event>
 4    1  0.2736402E+004  0.4723257E+02  0.7546771E-02  0.1460867E+00
         21   -1    0    0  501  502  0.00000000000E+00  0.00000000000E+00  0.21829993517E+03  0.21829993517E+03  0.00000000000E+00 0. -1.
         21   -1    0    0  502  503 -0.00000000000E+00 -0.00000000000E+00 -0.15483287586E+02  0.15483287586E+02  0.00000000000E+00 0.  1.
          2    1    1    2  501    0 -0.57507341101E+01 -0.46881176539E+02  0.16956384344E+03  0.17601935308E+03  0.00000000000E+00 0. -1.
         -2    1    1    2    0  503  0.57507341101E+01  0.46881176539E+02  0.33252804141E+02  0.57763869674E+02  0.00000000000E+00 0.  1.
<mgrwt>
<rscale>  2 0.47232570E+02</rscale>
<asrwt>0</asrwt>
<pdfrwt beam="1">  1       21 0.33584603E-01 0.47232570E+02</pdfrwt>
<pdfrwt beam="2">  1       21 0.23820444E-02 0.47232570E+02</pdfrwt>
<totfact> 0.71606131E+06</totfact>
</mgrwt>
</event>
<event>
 4    1  0.2736402E+004  0.2086151E+02  0.7546771E-02  0.1728719E+00
         21   -1    0    0  501  502  0.00000000000E+00  0.00000000000E+00  0.32956283887E+01  0.32956283887E+01  0.00000000000E+00 0. -1.
         21   -1    0    0  502  503 -0.00000000000E+00 -0.00000000000E+00 -0.33684407822E+03  0.33684407822E+03  0.00000000000E+00 0.  1.
          2    1    1    2  501    0  0.20209200822E+02 -0.51759715537E+01 -0.34167108857E+02  0.40032409458E+02  0.00000000000E+00 0. -1.
         -2    1    1    2    0  503 -0.20209200822E+02  0.51759715537E+01 -0.29938134097E+03  0.30010729715E+03  0.00000000000E+00 0.  1.
<mgrwt>
<rscale>  2 0.20861507E+02</rscale>
<asrwt>0</asrwt>
<pdfrwt beam="1">  1       21 0.50702011E-03 0.20861507E+02</pdfrwt>
<pdfrwt beam="2">  1       21 0.51822129E-01 0.20861507E+02</pdfrwt>
<totfact> 0.28762323E+07</totfact>
</mgrwt>
</event>
<event>
 4    1  0.2736402E+004  0.2813960E+02  0.7546771E-02  0.1619613E+00
         21   -1    0    0  503  502  0.00000000000E+00  0.00000000000E+00  0.10908077141E+02  0.10908077141E+02  0.00000000000E+00 0. -1.
         21   -1    0    0  501  503 -0.00000000000E+00 -0.00000000000E+00 -0.72694339243E+02  0.72694339243E+02  0.00000000000E+00 0.  1.
          2    1    1    2  501    0  0.15029124102E+02 -0.23789962958E+02 -0.32463104883E+02  0.42961495405E+02  0.00000000000E+00 0. -1.
         -2    1    1    2    0  502 -0.15029124102E+02  0.23789962958E+02 -0.29323157219E+02  0.40640920980E+02  0.00000000000E+00 0.  1.
<mgrwt>
<rscale>  2 0.28139597E+02</rscale>
<asrwt>0</asrwt>
<pdfrwt beam="1">  1       21 0.16781658E-02 0.28139597E+02</pdfrwt>
<pdfrwt beam="2">  1       21 0.11183744E-01 0.28139597E+02</pdfrwt>
<totfact> 0.79766355E+07</totfact>
</mgrwt>
</event>
<event>
 4    1  0.2736402E+004  0.4185950E+02  0.7546771E-02  0.1494957E+00
         21   -1    0    0  503  502  0.00000000000E+00  0.00000000000E+00  0.12230861906E+03  0.12230861906E+03  0.00000000000E+00 0.  1.
         21   -1    0    0  501  503 -0.00000000000E+00 -0.00000000000E+00 -0.17420278278E+02  0.17420278278E+02  0.00000000000E+00 0. -1.
          2    1    1    2  501    0  0.39331498216E+02 -0.14326581355E+02  0.23000335687E+02  0.47762256301E+02  0.00000000000E+00 0. -1.
         -2    1    1    2    0  502 -0.39331498216E+02  0.14326581355E+02  0.81888005090E+02  0.91966641033E+02  0.00000000000E+00 0.  1.
<mgrwt>
<rscale>  2 0.41859499E+02</rscale>
<asrwt>0</asrwt>
<pdfrwt beam="1">  1       21 0.18816710E-01 0.41859499E+02</pdfrwt>
<pdfrwt beam="2">  1       21 0.26800429E-02 0.41859499E+02</pdfrwt>
<totfact> 0.16917376E+07</totfact>
</mgrwt>
</event>
<event>
 4    1  0.2736402E+004  0.2568347E+02  0.7546771E-02  0.1651375E+00
         21   -1    0    0  501  502  0.00000000000E+00  0.00000000000E+00  0.58759809716E+02  0.58759809716E+02  0.00000000000E+00 0. -1.
         21   -1    0    0  502  503 -0.00000000000E+00 -0.00000000000E+00 -0.14233712808E+02  0.14233712808E+02  0.00000000000E+00 0.  1.
          2    1    1    2  501    0 -0.13870638564E+02 -0.21615874462E+02  0.39039870594E+02  0.46730633838E+02  0.00000000000E+00 0. -1.
         -2    1    1    2    0  503  0.13870638564E+02  0.21615874462E+02  0.54862263140E+01  0.26262888685E+02  0.00000000000E+00 0.  1.
<mgrwt>
<rscale>  2 0.25683470E+02</rscale>
<asrwt>0</asrwt>
<pdfrwt beam="1">  1       21 0.90399706E-02 0.25683470E+02</pdfrwt>
<pdfrwt beam="2">  1       21 0.21898020E-02 0.25683470E+02</pdfrwt>
<totfact> 0.73745912E+07</totfact>
</mgrwt>
</event>
<event>
 4    1  0.2736402E+004  0.2327923E+02  0.7546771E-02  0.1687023E+00
         21   -1    0    0  501  502  0.00000000000E+00  0.00000000000E+00  0.55643345256E+03  0.55643345256E+03  0.00000000000E+00 0.  1.
         21   -1    0    0  502  503 -0.00000000000E+00 -0.00000000000E+00 -0.15838812967E+01  0.15838812967E+01  0.00000000000E+00 0. -1.
          2    1    1    2  501    0  0.52371156688E+01  0.22682486679E+02  0.45056858108E+03  0.45116955664E+03  0.00000000000E+00 0.  1.
         -2    1    1    2    0  503 -0.52371156688E+01 -0.22682486679E+02  0.10428099018E+03  0.10684777721E+03  0.00000000000E+00 0. -1.
<mgrwt>
<rscale>  2 0.23279231E+02</rscale>
<asrwt>0</asrwt>
<pdfrwt beam="1">  1       21 0.85604991E-01 0.23279231E+02</pdfrwt>
<pdfrwt beam="2">  1       21 0.24367449E-03 0.23279231E+02</pdfrwt>
<totfact> 0.30981780E+07</totfact>
</mgrwt>
</event>
<event>
 4    1  0.2736402E+004  0.2108328E+02  0.7546771E-02  0.1724606E+00
         21   -1    0    0  503  502  0.00000000000E+00  0.00000000000E+00  0.12432601876E+03  0.12432601876E+03  0.00000000000E+00 0.  1.
         21   -1    0    0  501  503 -0.00000000000E+00 -0.00000000000E+00 -0.74740401784E+01  0.74740401784E+01  0.00000000000E+00 0. -1.
          2    1    1    2  501    0 -0.12206298773E+02 -0.17190430936E+02  0.10830124571E+02  0.23702241322E+02  0.00000000000E+00 0. -1.
         -2    1    1    2    0  502  0.12206298773E+02  0.17190430936E+02  0.10602185402E+03  0.10809781762E+03  0.00000000000E+00 0.  1.
<mgrwt>
<rscale>  2 0.21083279E+02</rscale>
<asrwt>0</asrwt>
<pdfrwt beam="1">  1       21 0.19127078E-01 0.21083279E+02</pdfrwt>
<pdfrwt beam="2">  1       21 0.11498524E-02 0.21083279E+02</pdfrwt>
<totfact> 0.52759927E+07</totfact>
</mgrwt>
</event>
<event>
 4    1  0.2736402E+004  0.2126389E+02  0.7546771E-02  0.1721303E+00
         21   -1    0    0  501  502  0.00000000000E+00  0.00000000000E+00  0.36354723948E+02  0.36354723948E+02  0.00000000000E+00 0.  1.
         21   -1    0    0  502  503 -0.00000000000E+00 -0.00000000000E+00 -0.13681328250E+02  0.13681328250E+02  0.00000000000E+00 0. -1.
          2    1    1    2  501    0 -0.18755555460E+02  0.10019081900E+02  0.18880884267E+02  0.28436607629E+02  0.00000000000E+00 0.  1.
         -2    1    1    2    0  503  0.18755555460E+02 -0.10019081900E+02  0.37925114310E+01  0.21599444569E+02  0.00000000000E+00 0. -1.
<mgrwt>
<rscale>  2 0.21263886E+02</rscale>
<asrwt>0</asrwt>
<pdfrwt beam="1">  1       21 0.55930344E-02 0.21263886E+02</pdfrwt>
<pdfrwt beam="2">  1       21 0.21048197E-02 0.21263886E+02</pdfrwt>
<totfact> 0.16183983E+08</totfact>
</mgrwt>
</event>
<event>
 4    1  0.2736402E+004  0.2161510E+02  0.7546771E-02  0.1714995E+00
         21   -1    0    0  501  502  0.00000000000E+00  0.00000000000E+00  0.54983207325E+01  0.54983207325E+01  0.00000000000E+00 0.  1.
         21   -1    0    0  502  503 -0.00000000000E+00 -0.00000000000E+00 -0.11962566600E+03  0.11962566600E+03  0.00000000000E+00 0. -1.
          2    1    1    2  501    0 -0.21063862749E+02  0.48504010916E+01 -0.23392187007E+02  0.31849758517E+02  0.00000000000E+00 0.  1.
         -2    1    1    2    0  503  0.21063862749E+02 -0.48504010916E+01 -0.90735158265E+02  0.93274228220E+02  0.00000000000E+00 0. -1.
<mgrwt>
<rscale>  2 0.21615104E+02</rscale>
<asrwt>0</asrwt>
<pdfrwt beam="1">  1       21 0.84589550E-03 0.21615104E+02</pdfrwt>
<pdfrwt beam="2">  1       21 0.18403949E-01 0.21615104E+02</pdfrwt>
<totfact> 0.89907020E+07</totfact>
</mgrwt>
</event>
<event>
 4    1  0.2736402E+004  0.2003834E+02  0.7546771E-02  0.1744567E+00
         21   -1    0    0  501  502  0.00000000000E+00  0.00000000000E+00  0.36448775424E+01  0.36448775424E+01  0.00000000000E+00 0. -1.
         21   -1    0    0  502  503 -0.00000000000E+00 -0.00000000000E+00 -0.15185175837E+03  0.15185175837E+03  0.00000000000E+00 0.  1.
          2    1    1    2  501    0 -0.15671666368E+02  0.12487356458E+02 -0.33366907580E+02  0.38921532852E+02  0.00000000000E+00 0. -1.
         -2    1    1    2    0  503  0.15671666368E+02 -0.12487356458E+02 -0.11483997325E+03  0.11657510306E+03  0.00000000000E+00 0.  1.
<mgrwt>
<rscale>  2 0.20038343E+02</rscale>
<asrwt>0</asrwt>
<pdfrwt beam="1">  1       21 0.56075026E-03 0.20038343E+02</pdfrwt>
<pdfrwt beam="2">  1       21 0.23361814E-01 0.20038343E+02</pdfrwt>
<totfact> 0.10675765E+08</totfact>
</mgrwt>
</event>
<event>
 4    1  0.2736402E+004  0.2109790E+02  0.7546771E-02  0.1724337E+00
         21   -1    0    0  501  502  0.00000000000E+00  0.00000000000E+00  0.90343047914E+01  0.90343047914E+01  0.00000000000E+00 0. -1.
         21   -1    0    0  502  503 -0.00000000000E+00 -0.00000000000E+00 -0.49275915632E+02  0.49275915632E+02  0.00000000000E+00 0.  1.
          2    1    1    2  501    0 -0.31015804119E+01 -0.20868673740E+02 -0.19804807544E+02  0.28937030714E+02  0.00000000000E+00 0.  1.
         -2    1    1    2    0  503  0.31015804119E+01  0.20868673740E+02 -0.20436803297E+02  0.29373189709E+02  0.00000000000E+00 0. -1.
<mgrwt>
<rscale>  2 0.21097899E+02</rscale>
<asrwt>0</asrwt>
<pdfrwt beam="1">  1       21 0.13898931E-02 0.21097899E+02</pdfrwt>
<pdfrwt beam="2">  1       21 0.75809100E-02 0.21097899E+02</pdfrwt>
<totfact> 0.18618486E+08</totfact>
</mgrwt>
</event>
<event>
 4    1  0.2736402E+004  0.2402692E+02  0.7546771E-02  0.1675385E+00
         21   -1    0    0  501  502  0.00000000000E+00  0.00000000000E+00  0.20756531061E+03  0.20756531061E+03  0.00000000000E+00 0.  1.
         21   -1    0    0  502  503 -0.00000000000E+00 -0.00000000000E+00 -0.28996346901E+01  0.28996346901E+01  0.00000000000E+00 0. -1.
          2    1    1    2  501    0  0.20667528218E+02 -0.12253412399E+02  0.12359511816E+03  0.12590888003E+03  0.00000000000E+00 0.  1.
         -2    1    1    2    0  503 -0.20667528218E+02  0.12253412399E+02  0.81070557760E+02  0.84556065268E+02  0.00000000000E+00 0. -1.
<mgrwt>
<rscale>  2 0.24026919E+02</rscale>
<asrwt>0</asrwt>
<pdfrwt beam="1">  1       21 0.31933113E-01 0.24026919E+02</pdfrwt>
<pdfrwt beam="2">  1       21 0.44609781E-03 0.24026919E+02</pdfrwt>
<totfact> 0.89633608E+07</totfact>
</mgrwt>
</event>
<event>
 4    1  0.2736402E+004  0.3336757E+02  0.7546771E-02  0.1563594E+00
         21   -1    0    0  501  502  0.00000000000E+00  0.00000000000E+00  0.64525981929E+02  0.64525981929E+02  0.00000000000E+00 0. -1.
         21   -1    0    0  502  503 -0.00000000000E+00 -0.00000000000E+00 -0.87930966483E+02  0.87930966483E+02  0.00000000000E+00 0.  1.
          2    1    1    2  501    0  0.24937909363E+02 -0.22169695712E+02  0.56638649998E+02  0.65736834461E+02  0.00000000000E+00 0. -1.
         -2    1    1    2    0  503 -0.24937909363E+02  0.22169695712E+02 -0.80043634552E+02  0.86720113951E+02  0.00000000000E+00 0.  1.
<mgrwt>
<rscale>  2 0.33367570E+02</rscale>
<asrwt>0</asrwt>
<pdfrwt beam="1">  1       21 0.99270742E-02 0.33367570E+02</pdfrwt>
<pdfrwt beam="2">  1       21 0.13527841E-01 0.33367570E+02</pdfrwt>
<totfact> 0.34744008E+06</totfact>
</mgrwt>
</event>
<event>
 4    1  0.2736402E+004  0.2158090E+02  0.7546771E-02  0.1715603E+00
         21   -1    0    0  501  502  0.00000000000E+00  0.00000000000E+00  0.13054102429E+03  0.13054102429E+03  0.00000000000E+00 0. -1.
         21   -1    0    0  502  503 -0.00000000000E+00 -0.00000000000E+00 -0.82357594488E+01  0.82357594488E+01  0.00000000000E+00 0.  1.
          2    1    1    2  501    0  0.61168509580E+01 -0.20695877616E+02  0.11339246282E+03  0.11542783824E+03  0.00000000000E+00 0. -1.
         -2    1    1    2    0  503 -0.61168509580E+01  0.20695877616E+02  0.89128020154E+01  0.23348945495E+02  0.00000000000E+00 0.  1.
<mgrwt>
<rscale>  2 0.21580899E+02</rscale>
<asrwt>0</asrwt>
<pdfrwt beam="1">  1       21 0.20083233E-01 0.21580899E+02</pdfrwt>
<pdfrwt beam="2">  1       21 0.12670400E-02 0.21580899E+02</pdfrwt>
<totfact> 0.42134097E+07</totfact>
</mgrwt>
</event>
<event>
 4    1  0.2736402E+004  0.2190456E+02  0.7546771E-02  0.1709908E+00
         21   -1    0    0  503  502  0.00000000000E+00  0.00000000000E+00  0.81342665229E+01  0.81342665229E+01  0.00000000000E+00 0.  1.
         21   -1    0    0  501  503 -0.00000000000E+00 -0.00000000000E+00 -0.65167713734E+02  0.65167713734E+02  0.00000000000E+00 0. -1.
          2    1    1    2  501    0  0.21899065306E+02  0.49056041513E+00 -0.39804693875E+02  0.45433724977E+02  0.00000000000E+00 0. -1.
         -2    1    1    2    0  502 -0.21899065306E+02 -0.49056041513E+00 -0.17228753336E+02  0.27868255279E+02  0.00000000000E+00 0.  1.
<mgrwt>
<rscale>  2 0.21904559E+02</rscale>
<asrwt>0</asrwt>
<pdfrwt beam="1">  1       21 0.12514256E-02 0.21904559E+02</pdfrwt>
<pdfrwt beam="2">  1       21 0.10025803E-01 0.21904559E+02</pdfrwt>
<totfact> 0.13971416E+08</totfact>
</mgrwt>
</event>
<event>
 4    1  0.2736402E+004  0.3353165E+02  0.7546771E-02  0.1562040E+00
         21   -1    0    0  503  502  0.00000000000E+00  0.00000000000E+00  0.21588431743E+02  0.21588431743E+02  0.00000000000E+00 0. -1.
         21   -1    0    0  501  503 -0.00000000000E+00 -0.00000000000E+00 -0.18425275025E+03  0.18425275025E+03  0.00000000000E+00 0.  1.
          2    1    1    2  501    0 -0.25086345475E+02 -0.22249654865E+02 -0.16850129062E+03  0.17180528750E+03  0.00000000000E+00 0.  1.
         -2    1    1    2    0  502  0.25086345475E+02  0.22249654865E+02  0.58369721126E+01  0.34035894499E+02  0.00000000000E+00 0. -1.
<mgrwt>
<rscale>  2 0.33531655E+02</rscale>
<asrwt>0</asrwt>
<pdfrwt beam="1">  1       21 0.33212973E-02 0.33531655E+02</pdfrwt>
<pdfrwt beam="2">  1       21 0.28346576E-01 0.33531655E+02</pdfrwt>
<totfact> 0.55760505E+06</totfact>
</mgrwt>
</event>
<event>
 4    1  0.2736402E+004  0.2039871E+02  0.7546771E-02  0.1737513E+00
         21   -1    0    0  501  502  0.00000000000E+00  0.00000000000E+00  0.65925427959E+00  0.65925427959E+00  0.00000000000E+00 0. -1.
         21   -1    0    0  502  503 -0.00000000000E+00 -0.00000000000E+00 -0.64209162404E+03  0.64209162404E+03  0.00000000000E+00 0.  1.
          2    1    1    2  501    0 -0.18323324507E+02 -0.89645608601E+01 -0.27881992140E+03  0.27956511968E+03  0.00000000000E+00 0. -1.
         -2    1    1    2    0  503  0.18323324507E+02  0.89645608601E+01 -0.36261244836E+03  0.36318575864E+03  0.00000000000E+00 0.  1.
<mgrwt>
<rscale>  2 0.20398715E+02</rscale>
<asrwt>0</asrwt>
<pdfrwt beam="1">  1       21 0.10142368E-03 0.20398715E+02</pdfrwt>
<pdfrwt beam="2">  1       21 0.98783381E-01 0.20398715E+02</pdfrwt>
<totfact> 0.77733157E+07</totfact>
</mgrwt>
</event>
<event>
 4    1  0.2736402E+004  0.2042765E+02  0.7546771E-02  0.1736955E+00
         21   -1    0    0  503  502  0.00000000000E+00  0.00000000000E+00  0.25698409305E+01  0.25698409305E+01  0.00000000000E+00 0. -1.
         21   -1    0    0  501  503 -0.00000000000E+00 -0.00000000000E+00 -0.26585619603E+03  0.26585619603E+03  0.00000000000E+00 0.  1.
          2    1    1    2  501    0  0.10160244632E+02  0.17721688296E+02 -0.21537548921E+03  0.21634206748E+03  0.00000000000E+00 0.  1.
         -2    1    1    2    0  502 -0.10160244632E+02 -0.17721688296E+02 -0.47910865885E+02  0.52083969481E+02  0.00000000000E+00 0. -1.
<mgrwt>
<rscale>  2 0.20427648E+02</rscale>
<asrwt>0</asrwt>
<pdfrwt beam="1">  1       21 0.39536033E-03 0.20427648E+02</pdfrwt>
<pdfrwt beam="2">  1       21 0.40900934E-01 0.20427648E+02</pdfrwt>
<totfact> 0.64783023E+07</totfact>
</mgrwt>
</event>
<event>
 4    1  0.2736402E+004  0.2799286E+02  0.7546771E-02  0.1621397E+00
         21   -1    0    0  503  502  0.00000000000E+00  0.00000000000E+00  0.88062679942E+03  0.88062679942E+03  0.00000000000E+00 0. -1.
         21   -1    0    0  501  503 -0.00000000000E+00 -0.00000000000E+00 -0.11525499095E+01  0.11525499095E+01  0.00000000000E+00 0.  1.
          2    1    1    2  501    0  0.15566620360E+02  0.23265437570E+02  0.22923622530E+03  0.23093905526E+03  0.00000000000E+00 0.  1.
         -2    1    1    2    0  502 -0.15566620360E+02 -0.23265437570E+02  0.65023802421E+03  0.65084029407E+03  0.00000000000E+00 0. -1.
<mgrwt>
<rscale>  2 0.27992861E+02</rscale>
<asrwt>0</asrwt>
<pdfrwt beam="1">  1       21 0.13548051E+00 0.27992861E+02</pdfrwt>
<pdfrwt beam="2">  1       21 0.17731607E-03 0.27992861E+02</pdfrwt>
<totfact> 0.18232589E+07</totfact>
</mgrwt>
</event>
<event>
 4    1  0.2736402E+004  0.3314440E+02  0.7546771E-02  0.1565724E+00
         21   -1    0    0  501  502  0.00000000000E+00  0.00000000000E+00  0.27868267387E+03  0.27868267387E+03  0.00000000000E+00 0.  1.
         21   -1    0    0  502  503 -0.00000000000E+00 -0.00000000000E+00 -0.51551096093E+01  0.51551096093E+01  0.00000000000E+00 0. -1.
          2    1    1    2  501    0 -0.31818839345E+02 -0.92796760178E+01  0.20561025103E+03  0.20826455832E+03  0.00000000000E+00 0.  1.
         -2    1    1    2    0  503  0.31818839345E+02  0.92796760178E+01  0.67917313230E+02  0.75573225157E+02  0.00000000000E+00 0. -1.
<mgrwt>
<rscale>  2 0.33144395E+02</rscale>
<asrwt>0</asrwt>
<pdfrwt beam="1">  1       21 0.42874246E-01 0.33144395E+02</pdfrwt>
<pdfrwt beam="2">  1       21 0.79309400E-03 0.33144395E+02</pdfrwt>
<totfact> 0.23361446E+07</totfact>
</mgrwt>
</event>
<event>
 4    1  0.2736402E+004  0.2558358E+02  0.7546771E-02  0.1652759E+00
         21   -1    0    0  503  502  0.00000000000E+00  0.00000000000E+00  0.79279674132E+00  0.79279674132E+00  0.00000000000E+00 0.  1.
         21   -1    0    0  501  503 -0.00000000000E+00 -0.00000000000E+00 -0.88706014739E+03  0.88706014739E+03  0.00000000000E+00 0. -1.
          2    1    1    2  501    0  0.22994617401E+02  0.11214584132E+02 -0.56000075429E+03  0.56058484116E+03  0.00000000000E+00 0. -1.
         -2    1    1    2    0  502 -0.22994617401E+02 -0.11214584132E+02 -0.32626659636E+03  0.32726810298E+03  0.00000000000E+00 0.  1.
<mgrwt>
<rscale>  2 0.25583575E+02</rscale>
<asrwt>0</asrwt>
<pdfrwt beam="1">  1       21 0.12196872E-03 0.25583575E+02</pdfrwt>
<pdfrwt beam="2">  1       21 0.13647080E+00 0.25583575E+02</pdfrwt>
<totfact> 0.30292642E+07</totfact>
</mgrwt>
</event>
<event>
 4    1  0.2736402E+004  0.9322353E+02  0.7546771E-02  0.1295228E+00
         21   -1    0    0  503  502  0.00000000000E+00  0.00000000000E+00  0.10148329627E+02  0.10148329627E+02  0.00000000000E+00 0.  1.
         21   -1    0    0  501  503 -0.00000000000E+00 -0.00000000000E+00 -0.86010958191E+03  0.86010958191E+03  0.00000000000E+00 0. -1.
          2    1    1    2  501    0 -0.51564112622E+02  0.77664464636E+02 -0.39625204709E+03  0.40707040128E+03  0.00000000000E+00 0.  1.
         -2    1    1    2    0  502  0.51564112622E+02 -0.77664464636E+02 -0.45370920519E+03  0.46318751025E+03  0.00000000000E+00 0. -1.
<mgrwt>
<rscale>  2 0.93223531E+02</rscale>
<asrwt>0</asrwt>
<pdfrwt beam="1">  1       21 0.15612806E-02 0.93223531E+02</pdfrwt>
<pdfrwt beam="2">  1       21 0.13232463E+00 0.93223531E+02</pdfrwt>
<totfact> 0.77180932E+05</totfact>
</mgrwt>
</event>
<event>
 4    1  0.2736402E+004  0.3338876E+02  0.7546771E-02  0.1563393E+00
         21   -1    0    0  501  502  0.00000000000E+00  0.00000000000E+00  0.14226671098E+03  0.14226671098E+03  0.00000000000E+00 0. -1.
         21   -1    0    0  502  503 -0.00000000000E+00 -0.00000000000E+00 -0.18541275698E+02  0.18541275698E+02  0.00000000000E+00 0.  1.
          2    1    1    2  501    0 -0.26541649577E+02  0.20257092646E+02  0.12295772772E+03  0.12741040684E+03  0.00000000000E+00 0. -1.
         -2    1    1    2    0  503  0.26541649577E+02 -0.20257092646E+02  0.76770757053E+00  0.33397579847E+02  0.00000000000E+00 0.  1.
<mgrwt>
<rscale>  2 0.33388755E+02</rscale>
<asrwt>0</asrwt>
<pdfrwt beam="1">  1       21 0.21887186E-01 0.33388755E+02</pdfrwt>
<pdfrwt beam="2">  1       21 0.28525040E-02 0.33388755E+02</pdfrwt>
<totfact> 0.11318141E+07</totfact>
</mgrwt>
</event>
<event>
 4    1  0.2736402E+004  0.4226582E+02  0.7546771E-02  0.1492170E+00
         21   -1    0    0  503  502  0.00000000000E+00  0.00000000000E+00  0.21361870881E+04  0.21361870881E+04  0.00000000000E+00 0.  1.
         21   -1    0    0  501  503 -0.00000000000E+00 -0.00000000000E+00 -0.20802395869E+01  0.20802395869E+01  0.00000000000E+00 0. -1.
          2    1    1    2  501    0 -0.33808457345E+02  0.25365080987E+02  0.24028731967E+03  0.24397621834E+03  0.00000000000E+00 0. -1.
         -2    1    1    2    0  502  0.33808457345E+02 -0.25365080987E+02  0.18938195289E+04  0.18942911094E+04  0.00000000000E+00 0.  1.
<mgrwt>
<rscale>  2 0.42265815E+02</rscale>
<asrwt>0</asrwt>
<pdfrwt beam="1">  1       21 0.32864241E+00 0.42265815E+02</pdfrwt>
<pdfrwt beam="2">  1       21 0.32003857E-03 0.42265815E+02</pdfrwt>
<totfact> 0.62232900E+05</totfact>
</mgrwt>
</event>
<event>
 4    1  0.2736402E+004  0.2742476E+02  0.7546771E-02  0.1628433E+00
         21   -1    0    0  501  502  0.00000000000E+00  0.00000000000E+00  0.87138944921E+01  0.87138944921E+01  0.00000000000E+00 0. -1.
         21   -1    0    0  502  503 -0.00000000000E+00 -0.00000000000E+00 -0.23459554316E+03  0.23459554316E+03  0.00000000000E+00 0.  1.
          2    1    1    2  501    0  0.27155225366E+02 -0.38354893175E+01 -0.16221120902E+02  0.31862862494E+02  0.00000000000E+00 0. -1.
         -2    1    1    2    0  503 -0.27155225366E+02  0.38354893175E+01 -0.20966052777E+03  0.21144657516E+03  0.00000000000E+00 0.  1.
<mgrwt>
<rscale>  2 0.27424756E+02</rscale>
<asrwt>0</asrwt>
<pdfrwt beam="1">  1       21 0.13405990E-02 0.27424756E+02</pdfrwt>
<pdfrwt beam="2">  1       21 0.36091626E-01 0.27424756E+02</pdfrwt>
<totfact> 0.14144798E+07</totfact>
</mgrwt>
</event>
<event>
 4    1  0.2736402E+004  0.3015361E+02  0.7546771E-02  0.1596397E+00
         21   -1    0    0  503  502  0.00000000000E+00  0.00000000000E+00  0.15308788486E+01  0.15308788486E+01  0.00000000000E+00 0. -1.
         21   -1    0    0  501  503 -0.00000000000E+00 -0.00000000000E+00 -0.59757858537E+03  0.59757858537E+03  0.00000000000E+00 0.  1.
          2    1    1    2  501    0 -0.22269987805E+02 -0.20329485155E+02 -0.27462853338E+03  0.27627897435E+03  0.00000000000E+00 0.  1.
         -2    1    1    2    0  502  0.22269987805E+02  0.20329485155E+02 -0.32141917315E+03  0.32283048987E+03  0.00000000000E+00 0. -1.
<mgrwt>
<rscale>  2 0.30153612E+02</rscale>
<asrwt>0</asrwt>
<pdfrwt beam="1">  1       21 0.23551981E-03 0.30153612E+02</pdfrwt>
<pdfrwt beam="2">  1       21 0.91935173E-01 0.30153612E+02</pdfrwt>
<totfact> 0.29318558E+07</totfact>
</mgrwt>
</event>
<event>
 4    1  0.2736402E+004  0.2312802E+02  0.7546771E-02  0.1689443E+00
         21   -1    0    0  503  502  0.00000000000E+00  0.00000000000E+00  0.51401692745E+02  0.51401692745E+02  0.00000000000E+00 0. -1.
         21   -1    0    0  501  503 -0.00000000000E+00 -0.00000000000E+00 -0.12314225687E+02  0.12314225687E+02  0.00000000000E+00 0.  1.
          2    1    1    2  501    0  0.10409726947E+02 -0.20652910813E+02  0.70040400287E+01  0.24165299851E+02  0.00000000000E+00 0.  1.
         -2    1    1    2    0  502 -0.10409726947E+02  0.20652910813E+02  0.32083427030E+02  0.39550618581E+02  0.00000000000E+00 0. -1.
<mgrwt>
<rscale>  2 0.23128016E+02</rscale>
<asrwt>0</asrwt>
<pdfrwt beam="1">  1       21 0.79079526E-02 0.23128016E+02</pdfrwt>
<pdfrwt beam="2">  1       21 0.18944963E-02 0.23128016E+02</pdfrwt>
<totfact> 0.11156566E+08</totfact>
</mgrwt>
</event>
<event>
 4    1  0.2736402E+004  0.2125110E+02  0.7546771E-02  0.1721535E+00
         21   -1    0    0  501  502  0.00000000000E+00  0.00000000000E+00  0.85273839966E+02  0.85273839966E+02  0.00000000000E+00 0.  1.
         21   -1    0    0  502  503 -0.00000000000E+00 -0.00000000000E+00 -0.15699754733E+02  0.15699754733E+02  0.00000000000E+00 0. -1.
          2    1    1    2  501    0  0.19793654167E+02  0.77343796389E+01  0.75885607469E+02  0.78805042952E+02  0.00000000000E+00 0.  1.
         -2    1    1    2    0  503 -0.19793654167E+02 -0.77343796389E+01 -0.63115222356E+01  0.22168551748E+02  0.00000000000E+00 0. -1.
<mgrwt>
<rscale>  2 0.21251103E+02</rscale>
<asrwt>0</asrwt>
<pdfrwt beam="1">  1       21 0.13119052E-01 0.21251103E+02</pdfrwt>
<pdfrwt beam="2">  1       21 0.24153469E-02 0.21251103E+02</pdfrwt>
<totfact> 0.32512299E+07</totfact>
</mgrwt>
</event>
<event>
 4    1  0.2736402E+004  0.3537555E+02  0.7546771E-02  0.1545291E+00
         21   -1    0    0  503  502  0.00000000000E+00  0.00000000000E+00  0.74997074706E+02  0.74997074706E+02  0.00000000000E+00 0.  1.
         21   -1    0    0  501  503 -0.00000000000E+00 -0.00000000000E+00 -0.67650263075E+02  0.67650263075E+02  0.00000000000E+00 0. -1.
          2    1    1    2  501    0 -0.31659032137E+02  0.15784015212E+02 -0.58232231499E+02  0.68135322979E+02  0.00000000000E+00 0. -1.
         -2    1    1    2    0  502  0.31659032137E+02 -0.15784015212E+02  0.65579043130E+02  0.74512014803E+02  0.00000000000E+00 0.  1.
<mgrwt>
<rscale>  2 0.35375549E+02</rscale>
<asrwt>0</asrwt>
<pdfrwt beam="1">  1       21 0.11538011E-01 0.35375549E+02</pdfrwt>
<pdfrwt beam="2">  1       21 0.10407733E-01 0.35375549E+02</pdfrwt>
<totfact> 0.42389394E+06</totfact>
</mgrwt>
</event>
<event>
 4    1  0.2736402E+004  0.2109301E+02  0.7546771E-02  0.1724427E+00
         21   -1    0    0  501  502  0.00000000000E+00  0.00000000000E+00  0.17968583646E+02  0.17968583646E+02  0.00000000000E+00 0.  1.
         21   -1    0    0  502  503 -0.00000000000E+00 -0.00000000000E+00 -0.24895057824E+02  0.24895057824E+02  0.00000000000E+00 0. -1.
          2    1    1    2  501    0 -0.17880305313E+02 -0.11189716539E+02 -0.18888876736E+01  0.21177416531E+02  0.00000000000E+00 0.  1.
         -2    1    1    2    0  503  0.17880305313E+02  0.11189716539E+02 -0.50375865044E+01  0.21686224938E+02  0.00000000000E+00 0. -1.
<mgrwt>
<rscale>  2 0.21093010E+02</rscale>
<asrwt>0</asrwt>
<pdfrwt beam="1">  1       21 0.27643975E-02 0.21093010E+02</pdfrwt>
<pdfrwt beam="2">  1       21 0.38300089E-02 0.21093010E+02</pdfrwt>
<totfact> 0.19306955E+08</totfact>
</mgrwt>
</event>
<event>
 4    1  0.2736402E+004  0.2589345E+02  0.7546771E-02  0.1648491E+00
         21   -1    0    0  503  502  0.00000000000E+00  0.00000000000E+00  0.36200113482E+02  0.36200113482E+02  0.00000000000E+00 0.  1.
         21   -1    0    0  501  503 -0.00000000000E+00 -0.00000000000E+00 -0.49720681785E+02  0.49720681785E+02  0.00000000000E+00 0. -1.
          2    1    1    2  501    0 -0.25339109813E+02 -0.53291980194E+01 -0.40791165437E+02  0.48315525614E+02  0.00000000000E+00 0. -1.
         -2    1    1    2    0  502  0.25339109813E+02  0.53291980194E+01  0.27270597134E+02  0.37605269653E+02  0.00000000000E+00 0.  1.
<mgrwt>
<rscale>  2 0.25893452E+02</rscale>
<asrwt>0</asrwt>
<pdfrwt beam="1">  1       21 0.55692483E-02 0.25893452E+02</pdfrwt>
<pdfrwt beam="2">  1       21 0.76493356E-02 0.25893452E+02</pdfrwt>
<totfact> 0.22356031E+07</totfact>
</mgrwt>
</event>
<event>
 4    1  0.2736402E+004  0.2563333E+02  0.7546771E-02  0.1652068E+00
         21   -1    0    0  501  502  0.00000000000E+00  0.00000000000E+00  0.11225345289E+02  0.11225345289E+02  0.00000000000E+00 0.  1.
         21   -1    0    0  502  503 -0.00000000000E+00 -0.00000000000E+00 -0.96854741926E+02  0.96854741926E+02  0.00000000000E+00 0. -1.
          2    1    1    2  501    0 -0.14409926703E+02  0.21199560849E+02 -0.88231706512E+01  0.27109328802E+02  0.00000000000E+00 0.  1.
         -2    1    1    2    0  503  0.14409926703E+02 -0.21199560849E+02 -0.76806225985E+02  0.80970758412E+02  0.00000000000E+00 0. -1.
<mgrwt>
<rscale>  2 0.25633325E+02</rscale>
<asrwt>0</asrwt>
<pdfrwt beam="1">  1       21 0.17269762E-02 0.25633325E+02</pdfrwt>
<pdfrwt beam="2">  1       21 0.14900730E-01 0.25633325E+02</pdfrwt>
<totfact> 0.45903990E+07</totfact>
</mgrwt>
</event>
<event>
 4    1  0.2736402E+004  0.2278564E+02  0.7546771E-02  0.1695008E+00
         21   -1    0    0  501  502  0.00000000000E+00  0.00000000000E+00  0.54916391541E+03  0.54916391541E+03  0.00000000000E+00 0.  1.
         21   -1    0    0  502  503 -0.00000000000E+00 -0.00000000000E+00 -0.24555397337E+01  0.24555397337E+01  0.00000000000E+00 0. -1.
          2    1    1    2  501    0  0.22001764847E+02 -0.59251961412E+01  0.48964749547E+03  0.49017737139E+03  0.00000000000E+00 0.  1.
         -2    1    1    2    0  503 -0.22001764847E+02  0.59251961412E+01  0.57060880207E+02  0.61442083752E+02  0.00000000000E+00 0. -1.
<mgrwt>
<rscale>  2 0.22785645E+02</rscale>
<asrwt>0</asrwt>
<pdfrwt beam="1">  1       21 0.84486658E-01 0.22785645E+02</pdfrwt>
<pdfrwt beam="2">  1       21 0.37777578E-03 0.22785645E+02</pdfrwt>
<totfact> 0.16742424E+07</totfact>
</mgrwt>
</event>
<event>
 4    1  0.2736402E+004  0.2059082E+02  0.7546771E-02  0.1733828E+00
         21   -1    0    0  503  502  0.00000000000E+00  0.00000000000E+00  0.32337138191E+01  0.32337138191E+01  0.00000000000E+00 0. -1.
         21   -1    0    0  501  503 -0.00000000000E+00 -0.00000000000E+00 -0.15784849945E+03  0.15784849945E+03  0.00000000000E+00 0.  1.
          2    1    1    2  501    0 -0.54859100104E+01 -0.19846582026E+02 -0.11045416521E+03  0.11235704090E+03  0.00000000000E+00 0.  1.
         -2    1    1    2    0  502  0.54859100104E+01  0.19846582026E+02 -0.44160620418E+02  0.48725172369E+02  0.00000000000E+00 0. -1.
<mgrwt>
<rscale>  2 0.20590824E+02</rscale>
<asrwt>0</asrwt>
<pdfrwt beam="1">  1       21 0.49749445E-03 0.20590824E+02</pdfrwt>
<pdfrwt beam="2">  1       21 0.24284384E-01 0.20590824E+02</pdfrwt>
<totfact> 0.11984381E+08</totfact>
</mgrwt>
</event>
<event>
 4    1  0.2736402E+004  0.2417628E+02  0.7546771E-02  0.1673123E+00
         21   -1    0    0  501  502  0.00000000000E+00  0.00000000000E+00  0.35057655313E+02  0.35057655313E+02  0.00000000000E+00 0.  1.
         21   -1    0    0  502  503 -0.00000000000E+00 -0.00000000000E+00 -0.55642474110E+02  0.55642474110E+02  0.00000000000E+00 0. -1.
          2    1    1    2  501    0  0.19854681927E+02  0.13794359745E+02  0.27660118455E+02  0.36736560919E+02  0.00000000000E+00 0.  1.
         -2    1    1    2    0  503 -0.19854681927E+02 -0.13794359745E+02 -0.48244937252E+02  0.53963568504E+02  0.00000000000E+00 0. -1.
<mgrwt>
<rscale>  2 0.24176285E+02</rscale>
<asrwt>0</asrwt>
<pdfrwt beam="1">  1       21 0.53934855E-02 0.24176285E+02</pdfrwt>
<pdfrwt beam="2">  1       21 0.85603806E-02 0.24176285E+02</pdfrwt>
<totfact> 0.19296717E+07</totfact>
</mgrwt>
</event>
<event>
 4    1  0.2736402E+004  0.3724762E+02  0.7546771E-02  0.1529501E+00
         21   -1    0    0  501  502  0.00000000000E+00  0.00000000000E+00  0.60216355872E+02  0.60216355872E+02  0.00000000000E+00 0.  1.
         21   -1    0    0  502  503 -0.00000000000E+00 -0.00000000000E+00 -0.97722637539E+02  0.97722637539E+02  0.00000000000E+00 0. -1.
          2    1    1    2  501    0  0.83312356602E+01 -0.36303939861E+02  0.50282215379E+02  0.62575448224E+02  0.00000000000E+00 0.  1.
         -2    1    1    2    0  503 -0.83312356602E+01  0.36303939861E+02 -0.87788497046E+02  0.95363545187E+02  0.00000000000E+00 0. -1.
<mgrwt>
<rscale>  2 0.37247625E+02</rscale>
<asrwt>0</asrwt>
<pdfrwt beam="1">  1       21 0.92640548E-02 0.37247625E+02</pdfrwt>
<pdfrwt beam="2">  1       21 0.15034252E-01 0.37247625E+02</pdfrwt>
<totfact> 0.32911360E+06</totfact>
</mgrwt>
</event>
<event>
 4    1  0.2736402E+004  0.3655292E+02  0.7546771E-02  0.1535227E+00
         21   -1    0    0  501  502  0.00000000000E+00  0.00000000000E+00  0.40554519633E+03  0.40554519633E+03  0.00000000000E+00 0. -1.
         21   -1    0    0  502  503 -0.00000000000E+00 -0.00000000000E+00 -0.76099445196E+01  0.76099445196E+01  0.00000000000E+00 0.  1.
          2    1    1    2  501    0 -0.35608420369E+02 -0.82556713090E+01  0.35452813281E+03  0.35640750927E+03  0.00000000000E+00 0. -1.
         -2    1    1    2    0  503  0.35608420369E+02  0.82556713090E+01  0.43407118996E+02  0.56747631576E+02  0.00000000000E+00 0.  1.
<mgrwt>
<rscale>  2 0.36552917E+02</rscale>
<asrwt>0</asrwt>
<pdfrwt beam="1">  1       21 0.62391552E-01 0.36552917E+02</pdfrwt>
<pdfrwt beam="2">  1       21 0.11707610E-02 0.36552917E+02</pdfrwt>
<totfact> 0.62140856E+06</totfact>
</mgrwt>
</event>
<event>
 4    1  0.2736402E+004  0.2123541E+02  0.7546771E-02  0.1721821E+00
         21   -1    0    0  503  502  0.00000000000E+00  0.00000000000E+00  0.64630312609E+01  0.64630312609E+01  0.00000000000E+00 0. -1.
         21   -1    0    0  501  503 -0.00000000000E+00 -0.00000000000E+00 -0.72256477998E+02  0.72256477998E+02  0.00000000000E+00 0.  1.
          2    1    1    2  501    0 -0.16144637492E+02  0.13794682921E+02 -0.40194284519E+02  0.45459026657E+02  0.00000000000E+00 0.  1.
         -2    1    1    2    0  502  0.16144637492E+02 -0.13794682921E+02 -0.25599162218E+02  0.33260482602E+02  0.00000000000E+00 0. -1.
<mgrwt>
<rscale>  2 0.21235409E+02</rscale>
<asrwt>0</asrwt>
<pdfrwt beam="1">  1       21 0.99431257E-03 0.21235409E+02</pdfrwt>
<pdfrwt beam="2">  1       21 0.11116380E-01 0.21235409E+02</pdfrwt>
<totfact> 0.16483414E+08</totfact>
</mgrwt>
</event>
<event>
 4    1  0.2736402E+004  0.2304229E+02  0.7546771E-02  0.1690826E+00
         21   -1    0    0  503  502  0.00000000000E+00  0.00000000000E+00  0.31520023152E+01  0.31520023152E+01  0.00000000000E+00 0. -1.
         21   -1    0    0  501  503 -0.00000000000E+00 -0.00000000000E+00 -0.20195823170E+03  0.20195823170E+03  0.00000000000E+00 0.  1.
          2    1    1    2  501    0  0.16608670646E+02 -0.15971818190E+02 -0.14117831066E+03  0.14304636423E+03  0.00000000000E+00 0. -1.
         -2    1    1    2    0  502 -0.16608670646E+02  0.15971818190E+02 -0.57627918727E+02  0.62063869793E+02  0.00000000000E+00 0.  1.
<mgrwt>
<rscale>  2 0.23042285E+02</rscale>
<asrwt>0</asrwt>
<pdfrwt beam="1">  1       21 0.48492350E-03 0.23042285E+02</pdfrwt>
<pdfrwt beam="2">  1       21 0.31070493E-01 0.23042285E+02</pdfrwt>
<totfact> 0.82431152E+07</totfact>
</mgrwt>
</event>
<event>
 4    1  0.2736402E+004  0.2175937E+02  0.7546771E-02  0.1712447E+00
         21   -1    0    0  501  502  0.00000000000E+00  0.00000000000E+00  0.16712465073E+03  0.16712465073E+03  0.00000000000E+00 0.  1.
         21   -1    0    0  502  503 -0.00000000000E+00 -0.00000000000E+00 -0.37093772424E+01  0.37093772424E+01  0.00000000000E+00 0. -1.
          2    1    1    2  501    0 -0.21224146015E+02  0.47964350506E+01  0.12322506964E+03  0.12513148265E+03  0.00000000000E+00 0. -1.
         -2    1    1    2    0  503  0.21224146015E+02 -0.47964350506E+01  0.40190203845E+02  0.45702545316E+02  0.00000000000E+00 0.  1.
<mgrwt>
<rscale>  2 0.21759370E+02</rscale>
<asrwt>0</asrwt>
<pdfrwt beam="1">  1       21 0.25711479E-01 0.21759370E+02</pdfrwt>
<pdfrwt beam="2">  1       21 0.57067355E-03 0.21759370E+02</pdfrwt>
<totfact> 0.89845721E+07</totfact>
</mgrwt>
</event>
<event>
 4    1  0.2736402E+004  0.7034141E+02  0.7546771E-02  0.1358936E+00
         21   -1    0    0  503  502  0.00000000000E+00  0.00000000000E+00  0.42952754480E+02  0.42952754480E+02  0.00000000000E+00 0.  1.
         21   -1    0    0  501  503 -0.00000000000E+00 -0.00000000000E+00 -0.12796822904E+03  0.12796822904E+03  0.00000000000E+00 0. -1.
          2    1    1    2  501    0  0.68471004450E+02 -0.16113223428E+02 -0.69508485046E+02  0.98890565339E+02  0.00000000000E+00 0. -1.
         -2    1    1    2    0  502 -0.68471004450E+02  0.16113223428E+02 -0.15506989515E+02  0.72030418182E+02  0.00000000000E+00 0.  1.
<mgrwt>
<rscale>  2 0.70341413E+02</rscale>
<asrwt>0</asrwt>
<pdfrwt beam="1">  1       21 0.66081162E-02 0.70341413E+02</pdfrwt>
<pdfrwt beam="2">  1       21 0.19687420E-01 0.70341413E+02</pdfrwt>
<totfact> 0.37929516E+06</totfact>
</mgrwt>
</event>
<event>
 4    1  0.2736402E+004  0.2164652E+02  0.7546771E-02  0.1714438E+00
         21   -1    0    0  503  502  0.00000000000E+00  0.00000000000E+00  0.17521726607E+01  0.17521726607E+01  0.00000000000E+00 0.  1.
         21   -1    0    0  501  503 -0.00000000000E+00 -0.00000000000E+00 -0.39572225574E+03  0.39572225574E+03  0.00000000000E+00 0. -1.
          2    1    1    2  501    0 -0.19079409251E+02  0.10224876120E+02 -0.31014567551E+03  0.31090016401E+03  0.00000000000E+00 0. -1.
         -2    1    1    2    0  502  0.19079409251E+02 -0.10224876120E+02 -0.83824407575E+02  0.86574264388E+02  0.00000000000E+00 0.  1.
<mgrwt>
<rscale>  2 0.21646523E+02</rscale>
<asrwt>0</asrwt>
<pdfrwt beam="1">  1       21 0.26956520E-03 0.21646523E+02</pdfrwt>
<pdfrwt beam="2">  1       21 0.60880307E-01 0.21646523E+02</pdfrwt>
<totfact> 0.53122990E+07</totfact>
</mgrwt>
</event>
<event>
 4    1  0.2736402E+004  0.2163479E+02  0.7546771E-02  0.1714646E+00
         21   -1    0    0  503  502  0.00000000000E+00  0.00000000000E+00  0.12160621980E+02  0.12160621980E+02  0.00000000000E+00 0. -1.
         21   -1    0    0  501  503 -0.00000000000E+00 -0.00000000000E+00 -0.70472478180E+02  0.70472478180E+02  0.00000000000E+00 0.  1.
          2    1    1    2  501    0  0.14060491424E+02  0.16442826658E+02 -0.56989530966E+02  0.60957941299E+02  0.00000000000E+00 0.  1.
         -2    1    1    2    0  502 -0.14060491424E+02 -0.16442826658E+02 -0.13223252341E+01  0.21675158861E+02  0.00000000000E+00 0. -1.
<mgrwt>
<rscale>  2 0.21634786E+02</rscale>
<asrwt>0</asrwt>
<pdfrwt beam="1">  1       21 0.18708650E-02 0.21634786E+02</pdfrwt>
<pdfrwt beam="2">  1       21 0.10841919E-01 0.21634786E+02</pdfrwt>
<totfact> 0.66428744E+07</totfact>
</mgrwt>
</event>
<event>
 4    1  0.2736402E+004  0.2430002E+02  0.7546771E-02  0.1671264E+00
         21   -1    0    0  501  502  0.00000000000E+00  0.00000000000E+00  0.52431093684E+01  0.52431093684E+01  0.00000000000E+00 0.  1.
         21   -1    0    0  502  503 -0.00000000000E+00 -0.00000000000E+00 -0.11301611974E+03  0.11301611974E+03  0.00000000000E+00 0. -1.
          2    1    1    2  501    0 -0.24286564896E+02  0.80846248099E+00 -0.50395876950E+02  0.55948505427E+02  0.00000000000E+00 0. -1.
         -2    1    1    2    0  503  0.24286564896E+02 -0.80846248099E+00 -0.57377133427E+02  0.62310723686E+02  0.00000000000E+00 0.  1.
<mgrwt>
<rscale>  2 0.24300017E+02</rscale>
<asrwt>0</asrwt>
<pdfrwt beam="1">  1       21 0.80663226E-03 0.24300017E+02</pdfrwt>
<pdfrwt beam="2">  1       21 0.17387094E-01 0.24300017E+02</pdfrwt>
<totfact> 0.11000154E+08</totfact>
</mgrwt>
</event>
<event>
 4    1  0.2736402E+004  0.3673860E+02  0.7546771E-02  0.1533682E+00
         21   -1    0    0  501  502  0.00000000000E+00  0.00000000000E+00  0.68804062275E+01  0.68804062275E+01  0.00000000000E+00 0. -1.
         21   -1    0    0  502  503 -0.00000000000E+00 -0.00000000000E+00 -0.23369337162E+03  0.23369337162E+03  0.00000000000E+00 0.  1.
          2    1    1    2  501    0  0.12336651371E+02 -0.34605376809E+02 -0.65206201638E+02  0.74843662411E+02  0.00000000000E+00 0. -1.
         -2    1    1    2    0  503 -0.12336651371E+02  0.34605376809E+02 -0.16160676375E+03  0.16573011543E+03  0.00000000000E+00 0.  1.
<mgrwt>
<rscale>  2 0.36738605E+02</rscale>
<asrwt>0</asrwt>
<pdfrwt beam="1">  1       21 0.10585243E-02 0.36738605E+02</pdfrwt>
<pdfrwt beam="2">  1       21 0.35952816E-01 0.36738605E+02</pdfrwt>
<totfact> 0.21462005E+07</totfact>
</mgrwt>
</event>
<event>
 4    1  0.2736402E+004  0.2053104E+02  0.7546771E-02  0.1734969E+00
         21   -1    0    0  503  502  0.00000000000E+00  0.00000000000E+00  0.18270217426E+02  0.18270217426E+02  0.00000000000E+00 0.  1.
         21   -1    0    0  501  503 -0.00000000000E+00 -0.00000000000E+00 -0.49789667271E+02  0.49789667271E+02  0.00000000000E+00 0. -1.
          2    1    1    2  501    0 -0.19956225842E+02  0.48241662803E+01 -0.40688098879E+02  0.45574608287E+02  0.00000000000E+00 0. -1.
         -2    1    1    2    0  502  0.19956225842E+02 -0.48241662803E+01  0.91686490342E+01  0.22485276410E+02  0.00000000000E+00 0.  1.
<mgrwt>
<rscale>  2 0.20531038E+02</rscale>
<asrwt>0</asrwt>
<pdfrwt beam="1">  1       21 0.28108027E-02 0.20531038E+02</pdfrwt>
<pdfrwt beam="2">  1       21 0.76599487E-02 0.20531038E+02</pdfrwt>
<totfact> 0.61904088E+07</totfact>
</mgrwt>
</event>
<event>
 4    1  0.2736402E+004  0.2369834E+02  0.7546771E-02  0.1680434E+00
         21   -1    0    0  503  502  0.00000000000E+00  0.00000000000E+00  0.35847376724E+00  0.35847376724E+00  0.00000000000E+00 0.  1.
         21   -1    0    0  501  503 -0.00000000000E+00 -0.00000000000E+00 -0.20316486864E+04  0.20316486864E+04  0.00000000000E+00 0. -1.
          2    1    1    2  501    0 -0.23504364454E+02  0.30259032480E+01 -0.15017007251E+04  0.15018877052E+04  0.00000000000E+00 0. -1.
         -2    1    1    2    0  502  0.23504364454E+02 -0.30259032480E+01 -0.52958948754E+03  0.53011945499E+03  0.00000000000E+00 0.  1.
<mgrwt>
<rscale>  2 0.23698338E+02</rscale>
<asrwt>0</asrwt>
<pdfrwt beam="1">  1       21 0.55149387E-04 0.23698338E+02</pdfrwt>
<pdfrwt beam="2">  1       21 0.31256374E+00 0.23698338E+02</pdfrwt>
<totfact> 0.98239207E+06</totfact>
</mgrwt>
</event>
<event>
 4    1  0.2736402E+004  0.2693240E+02  0.7546771E-02  0.1634703E+00
         21   -1    0    0  501  502  0.00000000000E+00  0.00000000000E+00  0.12150159495E+01  0.12150159495E+01  0.00000000000E+00 0.  1.
         21   -1    0    0  502  503 -0.00000000000E+00 -0.00000000000E+00 -0.11483983243E+04  0.11483983243E+04  0.00000000000E+00 0. -1.
          2    1    1    2  501    0 -0.24185332684E+02  0.11850046393E+02 -0.17529039224E+03  0.17734733020E+03  0.00000000000E+00 0.  1.
         -2    1    1    2    0  503  0.24185332684E+02 -0.11850046393E+02 -0.97189291606E+03  0.97226601000E+03  0.00000000000E+00 0. -1.
<mgrwt>
<rscale>  2 0.26932395E+02</rscale>
<asrwt>0</asrwt>
<pdfrwt beam="1">  1       21 0.18692501E-03 0.26932395E+02</pdfrwt>
<pdfrwt beam="2">  1       21 0.17667716E+00 0.26932395E+02</pdfrwt>
<totfact> 0.88423213E+06</totfact>
</mgrwt>
</event>
<event>
 4    1  0.2736402E+004  0.2517262E+02  0.7546771E-02  0.1658535E+00
         21   -1    0    0  503  502  0.00000000000E+00  0.00000000000E+00  0.12110492300E+04  0.12110492300E+04  0.00000000000E+00 0.  1.
         21   -1    0    0  501  503 -0.00000000000E+00 -0.00000000000E+00 -0.60470297547E+00  0.60470297547E+00  0.00000000000E+00 0. -1.
          2    1    1    2  501    0  0.19980251992E+02  0.15311764187E+02  0.38285181807E+03  0.38367847893E+03  0.00000000000E+00 0. -1.
         -2    1    1    2    0  502 -0.19980251992E+02 -0.15311764187E+02  0.82759270897E+03  0.82797545406E+03  0.00000000000E+00 0.  1.
<mgrwt>
<rscale>  2 0.25172616E+02</rscale>
<asrwt>0</asrwt>
<pdfrwt beam="1">  1       21 0.18631332E+00 0.25172616E+02</pdfrwt>
<pdfrwt beam="2">  1       21 0.93032196E-04 0.25172616E+02</pdfrwt>
<totfact> 0.20904877E+07</totfact>
</mgrwt>
</event>
<event>
 4    1  0.2736402E+004  0.2014427E+02  0.7546771E-02  0.1742474E+00
         21   -1    0    0  501  502  0.00000000000E+00  0.00000000000E+00  0.12219015220E+01  0.12219015220E+01  0.00000000000E+00 0. -1.
         21   -1    0    0  502  503 -0.00000000000E+00 -0.00000000000E+00 -0.36951104219E+03  0.36951104219E+03  0.00000000000E+00 0.  1.
          2    1    1    2  501    0 -0.20099411620E+02  0.13436563166E+01 -0.12516173824E+03  0.12677244369E+03  0.00000000000E+00 0.  1.
         -2    1    1    2    0  503  0.20099411620E+02 -0.13436563166E+01 -0.24312740243E+03  0.24396050002E+03  0.00000000000E+00 0. -1.
<mgrwt>
<rscale>  2 0.20144274E+02</rscale>
<asrwt>0</asrwt>
<pdfrwt beam="1">  1       21 0.18798487E-03 0.20144274E+02</pdfrwt>
<pdfrwt beam="2">  1       21 0.56847847E-01 0.20144274E+02</pdfrwt>
<totfact> 0.10051738E+08</totfact>
</mgrwt>
</event>
<event>
 4    1  0.2736402E+004  0.2511184E+02  0.7546771E-02  0.1659401E+00
         21   -1    0    0  501  502  0.00000000000E+00  0.00000000000E+00  0.18251766481E+02  0.18251766481E+02  0.00000000000E+00 0.  1.
         21   -1    0    0  502  503 -0.00000000000E+00 -0.00000000000E+00 -0.40019446152E+02  0.40019446152E+02  0.00000000000E+00 0. -1.
          2    1    1    2  501    0 -0.24706884357E+02 -0.44915893707E+01 -0.11305883984E+00  0.25112094536E+02  0.00000000000E+00 0.  1.
         -2    1    1    2    0  503  0.24706884357E+02  0.44915893707E+01 -0.21654620831E+02  0.33159118098E+02  0.00000000000E+00 0. -1.
<mgrwt>
<rscale>  2 0.25111840E+02</rscale>
<asrwt>0</asrwt>
<pdfrwt beam="1">  1       21 0.28079641E-02 0.25111840E+02</pdfrwt>
<pdfrwt beam="2">  1       21 0.61568378E-02 0.25111840E+02</pdfrwt>
<totfact> 0.93300150E+07</totfact>
</mgrwt>
</event>
<event>
 4    1  0.2736402E+004  0.2141894E+02  0.7546771E-02  0.1718499E+00
         21   -1    0    0  501  502  0.00000000000E+00  0.00000000000E+00  0.86448253895E+00  0.86448253895E+00  0.00000000000E+00 0.  1.
         21   -1    0    0  502  503 -0.00000000000E+00 -0.00000000000E+00 -0.56713753592E+03  0.56713753592E+03  0.00000000000E+00 0. -1.
          2    1    1    2  501    0 -0.20407844913E+02 -0.65031312567E+01 -0.21113870740E+03  0.21222234711E+03  0.00000000000E+00 0.  1.
         -2    1    1    2    0  503  0.20407844913E+02  0.65031312567E+01 -0.35513434598E+03  0.35577967135E+03  0.00000000000E+00 0. -1.
<mgrwt>
<rscale>  2 0.21418937E+02</rscale>
<asrwt>0</asrwt>
<pdfrwt beam="1">  1       21 0.13299695E-03 0.21418937E+02</pdfrwt>
<pdfrwt beam="2">  1       21 0.87252166E-01 0.21418937E+02</pdfrwt>
<totfact> 0.69809057E+07</totfact>
</mgrwt>
</event>
<event>
 4    1  0.2736402E+004  0.2172750E+02  0.7546771E-02  0.1713008E+00
         21   -1    0    0  503  502  0.00000000000E+00  0.00000000000E+00  0.78937236468E+01  0.78937236468E+01  0.00000000000E+00 0.  1.
         21   -1    0    0  501  503 -0.00000000000E+00 -0.00000000000E+00 -0.60960772306E+02  0.60960772306E+02  0.00000000000E+00 0. -1.
          2    1    1    2  501    0 -0.21725409403E+02 -0.30106870735E+00 -0.31273927511E+02  0.38080737887E+02  0.00000000000E+00 0. -1.
         -2    1    1    2    0  502  0.21725409403E+02  0.30106870735E+00 -0.21793121148E+02  0.30773758065E+02  0.00000000000E+00 0.  1.
<mgrwt>
<rscale>  2 0.21727495E+02</rscale>
<asrwt>0</asrwt>
<pdfrwt beam="1">  1       21 0.12144190E-02 0.21727495E+02</pdfrwt>
<pdfrwt beam="2">  1       21 0.93785804E-02 0.21727495E+02</pdfrwt>
<totfact> 0.16276969E+08</totfact>
</mgrwt>
</event>
<event>
 4    1  0.2736402E+004  0.2256871E+02  0.7546771E-02  0.1698598E+00
         21   -1    0    0  501  502  0.00000000000E+00  0.00000000000E+00  0.60862114652E+03  0.60862114652E+03  0.00000000000E+00 0. -1.
         21   -1    0    0  502  503 -0.00000000000E+00 -0.00000000000E+00 -0.13457884781E+01  0.13457884781E+01  0.00000000000E+00 0.  1.
          2    1    1    2  501    0  0.11361044116E+02 -0.19500593585E+02  0.49118255717E+03  0.49170077379E+03  0.00000000000E+00 0. -1.
         -2    1    1    2    0  503 -0.11361044116E+02  0.19500593585E+02  0.11609280086E+03  0.11826616120E+03  0.00000000000E+00 0.  1.
<mgrwt>
<rscale>  2 0.22568706E+02</rscale>
<asrwt>0</asrwt>
<pdfrwt beam="1">  1       21 0.93633803E-01 0.22568706E+02</pdfrwt>
<pdfrwt beam="2">  1       21 0.20704487E-03 0.22568706E+02</pdfrwt>
<totfact> 0.32167947E+07</totfact>
</mgrwt>
</event>
<event>
 4    1  0.2736402E+004  0.2210930E+02  0.7546771E-02  0.1706369E+00
         21   -1    0    0  501  502  0.00000000000E+00  0.00000000000E+00  0.88857872821E+03  0.88857872821E+03  0.00000000000E+00 0. -1.
         21   -1    0    0  502  503 -0.00000000000E+00 -0.00000000000E+00 -0.55277427189E+00  0.55277427189E+00  0.00000000000E+00 0.  1.
          2    1    1    2  501    0 -0.11083565542E+02 -0.19130490954E+02  0.47484388236E+03  0.47535832140E+03  0.00000000000E+00 0. -1.
         -2    1    1    2    0  503  0.11083565542E+02  0.19130490954E+02  0.41318207158E+03  0.41377318108E+03  0.00000000000E+00 0.  1.
<mgrwt>
<rscale>  2 0.22109299E+02</rscale>
<asrwt>0</asrwt>
<pdfrwt beam="1">  1       21 0.13670328E+00 0.22109299E+02</pdfrwt>
<pdfrwt beam="2">  1       21 0.85042907E-04 0.22109299E+02</pdfrwt>
<totfact> 0.49060700E+07</totfact>
</mgrwt>
</event>
<event>
 4    1  0.2736402E+004  0.3777638E+02  0.7546771E-02  0.1525243E+00
         21   -1    0    0  503  502  0.00000000000E+00  0.00000000000E+00  0.11460930435E+03  0.11460930435E+03  0.00000000000E+00 0. -1.
         21   -1    0    0  501  503 -0.00000000000E+00 -0.00000000000E+00 -0.20526891413E+02  0.20526891413E+02  0.00000000000E+00 0.  1.
          2    1    1    2  501    0  0.34554143527E+02  0.15266497723E+02  0.46610469180E+01  0.38062844691E+02  0.00000000000E+00 0. -1.
         -2    1    1    2    0  502 -0.34554143527E+02 -0.15266497723E+02  0.89421366019E+02  0.97073351072E+02  0.00000000000E+00 0.  1.
<mgrwt>
<rscale>  2 0.37776379E+02</rscale>
<asrwt>0</asrwt>
<pdfrwt beam="1">  1       21 0.17632200E-01 0.37776379E+02</pdfrwt>
<pdfrwt beam="2">  1       21 0.31579834E-02 0.37776379E+02</pdfrwt>
<totfact> 0.14405005E+07</totfact>
</mgrwt>
</event>
<event>
 4    1  0.2736402E+004  0.2258540E+02  0.7546771E-02  0.1698320E+00
         21   -1    0    0  503  502  0.00000000000E+00  0.00000000000E+00  0.15164738102E+02  0.15164738102E+02  0.00000000000E+00 0.  1.
         21   -1    0    0  501  503 -0.00000000000E+00 -0.00000000000E+00 -0.35446803145E+02  0.35446803145E+02  0.00000000000E+00 0. -1.
          2    1    1    2  501    0 -0.19433433955E+02  0.11508342571E+02 -0.15858648489E+02  0.27597047595E+02  0.00000000000E+00 0. -1.
         -2    1    1    2    0  502  0.19433433955E+02 -0.11508342571E+02 -0.44234165538E+01  0.23014493652E+02  0.00000000000E+00 0.  1.
<mgrwt>
<rscale>  2 0.22585400E+02</rscale>
<asrwt>0</asrwt>
<pdfrwt beam="1">  1       21 0.23330366E-02 0.22585400E+02</pdfrwt>
<pdfrwt beam="2">  1       21 0.54533543E-02 0.22585400E+02</pdfrwt>
<totfact> 0.14654181E+08</totfact>
</mgrwt>
</event>
<event>
 4    1  0.2736402E+004  0.2152945E+02  0.7546771E-02  0.1716519E+00
         21   -1    0    0  503  502  0.00000000000E+00  0.00000000000E+00  0.50904610562E+01  0.50904610562E+01  0.00000000000E+00 0.  1.
         21   -1    0    0  501  503 -0.00000000000E+00 -0.00000000000E+00 -0.17905031927E+03  0.17905031927E+03  0.00000000000E+00 0. -1.
          2    1    1    2  501    0  0.11932453846E+02 -0.17920201283E+02 -0.15152450164E+03  0.15304637097E+03  0.00000000000E+00 0.  1.
         -2    1    1    2    0  502 -0.11932453846E+02  0.17920201283E+02 -0.22435356574E+02  0.31094409360E+02  0.00000000000E+00 0. -1.
<mgrwt>
<rscale>  2 0.21529447E+02</rscale>
<asrwt>0</asrwt>
<pdfrwt beam="1">  1       21 0.78314782E-03 0.21529447E+02</pdfrwt>
<pdfrwt beam="2">  1       21 0.27546204E-01 0.21529447E+02</pdfrwt>
<totfact> 0.49535250E+07</totfact>
</mgrwt>
</event>
<event>
 4    1  0.2736402E+004  0.2248689E+02  0.7546771E-02  0.1699965E+00
         21   -1    0    0  501  502  0.00000000000E+00  0.00000000000E+00  0.68759703835E+01  0.68759703835E+01  0.00000000000E+00 0. -1.
         21   -1    0    0  502  503 -0.00000000000E+00 -0.00000000000E+00 -0.11301741703E+03  0.11301741703E+03  0.00000000000E+00 0.  1.
          2    1    1    2  501    0  0.11017483698E+02 -0.19602941982E+02 -0.17641161957E+02  0.28580953038E+02  0.00000000000E+00 0. -1.
         -2    1    1    2    0  503 -0.11017483698E+02  0.19602941982E+02 -0.88500284693E+02  0.91312434379E+02  0.00000000000E+00 0.  1.
<mgrwt>
<rscale>  2 0.22486891E+02</rscale>
<asrwt>0</asrwt>
<pdfrwt beam="1">  1       21 0.10578417E-02 0.22486891E+02</pdfrwt>
<pdfrwt beam="2">  1       21 0.17387293E-01 0.22486891E+02</pdfrwt>
<totfact> 0.71718575E+07</totfact>
</mgrwt>
</event>
<event>
 4    1  0.2736402E+004  0.3241251E+02  0.7546771E-02  0.1572857E+00
         21   -1    0    0  503  502  0.00000000000E+00  0.00000000000E+00  0.87195452895E+01  0.87195452895E+01  0.00000000000E+00 0. -1.
         21   -1    0    0  501  503 -0.00000000000E+00 -0.00000000000E+00 -0.26569521254E+03  0.26569521254E+03  0.00000000000E+00 0.  1.
          2    1    1    2  501    0 -0.31931180922E+02  0.55651322561E+01 -0.22992211752E+03  0.23219550197E+03  0.00000000000E+00 0.  1.
         -2    1    1    2    0  502  0.31931180922E+02 -0.55651322561E+01 -0.27053549734E+02  0.42219255859E+02  0.00000000000E+00 0. -1.
<mgrwt>
<rscale>  2 0.32412513E+02</rscale>
<asrwt>0</asrwt>
<pdfrwt beam="1">  1       21 0.13414687E-02 0.32412513E+02</pdfrwt>
<pdfrwt beam="2">  1       21 0.40876181E-01 0.32412513E+02</pdfrwt>
<totfact> 0.11469923E+07</totfact>
</mgrwt>
</event>
<event>
 4    1  0.2736402E+004  0.2374158E+02  0.7546771E-02  0.1679764E+00
         21   -1    0    0  503  502  0.00000000000E+00  0.00000000000E+00  0.11479505187E+03  0.11479505187E+03  0.00000000000E+00 0. -1.
         21   -1    0    0  501  503 -0.00000000000E+00 -0.00000000000E+00 -0.51488254939E+01  0.51488254939E+01  0.00000000000E+00 0.  1.
          2    1    1    2  501    0 -0.19845785667E+02 -0.13031025567E+02  0.41911432953E+02  0.48168776694E+02  0.00000000000E+00 0. -1.
         -2    1    1    2    0  502  0.19845785667E+02  0.13031025567E+02  0.67734793422E+02  0.71775100668E+02  0.00000000000E+00 0.  1.
<mgrwt>
<rscale>  2 0.23741585E+02</rscale>
<asrwt>0</asrwt>
<pdfrwt beam="1">  1       21 0.17660775E-01 0.23741585E+02</pdfrwt>
<pdfrwt beam="2">  1       21 0.79212709E-03 0.23741585E+02</pdfrwt>
<totfact> 0.10930741E+08</totfact>
</mgrwt>
</event>
<event>
 4    1  0.2736402E+004  0.2112401E+02  0.7546771E-02  0.1723857E+00
         21   -1    0    0  503  502  0.00000000000E+00  0.00000000000E+00  0.44451532174E+02  0.44451532174E+02  0.00000000000E+00 0. -1.
         21   -1    0    0  501  503 -0.00000000000E+00 -0.00000000000E+00 -0.32242547105E+02  0.32242547105E+02  0.00000000000E+00 0.  1.
          2    1    1    2  501    0  0.16461553120E+02 -0.13237866046E+02 -0.25717976597E+02  0.33281198128E+02  0.00000000000E+00 0.  1.
         -2    1    1    2    0  502 -0.16461553120E+02  0.13237866046E+02  0.37926961667E+02  0.43412881151E+02  0.00000000000E+00 0. -1.
<mgrwt>
<rscale>  2 0.21124011E+02</rscale>
<asrwt>0</asrwt>
<pdfrwt beam="1">  1       21 0.68386973E-02 0.21124011E+02</pdfrwt>
<pdfrwt beam="2">  1       21 0.49603919E-02 0.21124011E+02</pdfrwt>
<totfact> 0.30786303E+07</totfact>
</mgrwt>
</event>
<event>
 4    1  0.2736402E+004  0.2182111E+02  0.7546771E-02  0.1711364E+00
         21   -1    0    0  501  502  0.00000000000E+00  0.00000000000E+00  0.50088670724E+03  0.50088670724E+03  0.00000000000E+00 0.  1.
         21   -1    0    0  502  503 -0.00000000000E+00 -0.00000000000E+00 -0.31299786528E+01  0.31299786528E+01  0.00000000000E+00 0. -1.
          2    1    1    2  501    0  0.45669267744E+01 -0.21337856163E+02  0.45916273360E+03  0.45968095115E+03  0.00000000000E+00 0.  1.
         -2    1    1    2    0  503 -0.45669267744E+01  0.21337856163E+02  0.38593994982E+02  0.44335734735E+02  0.00000000000E+00 0. -1.
<mgrwt>
<rscale>  2 0.21821112E+02</rscale>
<asrwt>0</asrwt>
<pdfrwt beam="1">  1       21 0.77059430E-01 0.21821112E+02</pdfrwt>
<pdfrwt beam="2">  1       21 0.48153558E-03 0.21821112E+02</pdfrwt>
<totfact> 0.14106838E+07</totfact>
</mgrwt>
</event>
<event>
 4    1  0.2736402E+004  0.2310109E+02  0.7546771E-02  0.1689877E+00
         21   -1    0    0  503  502  0.00000000000E+00  0.00000000000E+00  0.28746494947E+02  0.28746494947E+02  0.00000000000E+00 0. -1.
         21   -1    0    0  501  503 -0.00000000000E+00 -0.00000000000E+00 -0.20715427015E+02  0.20715427015E+02  0.00000000000E+00 0.  1.
          2    1    1    2  501    0  0.12291906013E+02  0.19559376156E+02 -0.39537899775E+01  0.23436992218E+02  0.00000000000E+00 0.  1.
         -2    1    1    2    0  502 -0.12291906013E+02 -0.19559376156E+02  0.11984857909E+02  0.26024929743E+02  0.00000000000E+00 0. -1.
<mgrwt>
<rscale>  2 0.23101085E+02</rscale>
<asrwt>0</asrwt>
<pdfrwt beam="1">  1       21 0.44225377E-02 0.23101085E+02</pdfrwt>
<pdfrwt beam="2">  1       21 0.31869888E-02 0.23101085E+02</pdfrwt>
<totfact> 0.12690778E+08</totfact>
</mgrwt>
</event>
<event>
 4    1  0.2736402E+004  0.2432653E+02  0.7546771E-02  0.1670868E+00
         21   -1    0    0  503  502  0.00000000000E+00  0.00000000000E+00  0.46801955762E+02  0.46801955762E+02  0.00000000000E+00 0. -1.
         21   -1    0    0  501  503 -0.00000000000E+00 -0.00000000000E+00 -0.13842240637E+02  0.13842240637E+02  0.00000000000E+00 0.  1.
          2    1    1    2  501    0  0.22748170183E+02 -0.86197966373E+01  0.75598486001E+01  0.25474132990E+02  0.00000000000E+00 0.  1.
         -2    1    1    2    0  502 -0.22748170183E+02  0.86197966373E+01  0.25399866524E+02  0.35170063409E+02  0.00000000000E+00 0. -1.
<mgrwt>
<rscale>  2 0.24326532E+02</rscale>
<asrwt>0</asrwt>
<pdfrwt beam="1">  1       21 0.72003008E-02 0.24326532E+02</pdfrwt>
<pdfrwt beam="2">  1       21 0.21295755E-02 0.24326532E+02</pdfrwt>
<totfact> 0.11018541E+08</totfact>
</mgrwt>
</event>
<event>
 4    1  0.2736402E+004  0.2030919E+02  0.7546771E-02  0.1739248E+00
         21   -1    0    0  503  502  0.00000000000E+00  0.00000000000E+00  0.78497624956E+01  0.78497624956E+01  0.00000000000E+00 0.  1.
         21   -1    0    0  501  503 -0.00000000000E+00 -0.00000000000E+00 -0.52562368324E+02  0.52562368324E+02  0.00000000000E+00 0. -1.
          2    1    1    2  501    0  0.20239690821E+02 -0.16787762047E+01 -0.22910187257E+02  0.30616009770E+02  0.00000000000E+00 0. -1.
         -2    1    1    2    0  502 -0.20239690821E+02  0.16787762047E+01 -0.21802418571E+02  0.29796121050E+02  0.00000000000E+00 0.  1.
<mgrwt>
<rscale>  2 0.20309194E+02</rscale>
<asrwt>0</asrwt>
<pdfrwt beam="1">  1       21 0.12076558E-02 0.20309194E+02</pdfrwt>
<pdfrwt beam="2">  1       21 0.80865181E-02 0.20309194E+02</pdfrwt>
<totfact> 0.20473244E+08</totfact>
</mgrwt>
</event>
<event>
 4    1  0.2736402E+004  0.2349922E+02  0.7546771E-02  0.1683543E+00
         21   -1    0    0  501  502  0.00000000000E+00  0.00000000000E+00  0.27978859515E+01  0.27978859515E+01  0.00000000000E+00 0.  1.
         21   -1    0    0  502  503 -0.00000000000E+00 -0.00000000000E+00 -0.21437268565E+03  0.21437268565E+03  0.00000000000E+00 0. -1.
          2    1    1    2  501    0 -0.18223420711E+02 -0.14836450345E+02 -0.75205124294E+02  0.78791014978E+02  0.00000000000E+00 0.  1.
         -2    1    1    2    0  503  0.18223420711E+02  0.14836450345E+02 -0.13636967541E+03  0.13837955663E+03  0.00000000000E+00 0. -1.
<mgrwt>
<rscale>  2 0.23499220E+02</rscale>
<asrwt>0</asrwt>
<pdfrwt beam="1">  1       21 0.43044415E-03 0.23499220E+02</pdfrwt>
<pdfrwt beam="2">  1       21 0.32980401E-01 0.23499220E+02</pdfrwt>
<totfact> 0.88515394E+07</totfact>
</mgrwt>
</event>
<event>
 4    1  0.2736402E+004  0.2199169E+02  0.7546771E-02  0.1708396E+00
         21   -1    0    0  501  502  0.00000000000E+00  0.00000000000E+00  0.61441279465E+02  0.61441279465E+02  0.00000000000E+00 0. -1.
         21   -1    0    0  502  503 -0.00000000000E+00 -0.00000000000E+00 -0.30177784953E+02  0.30177784953E+02  0.00000000000E+00 0.  1.
          2    1    1    2  501    0 -0.14687910856E+02  0.16367644298E+02  0.55016296877E+02  0.59248860134E+02  0.00000000000E+00 0. -1.
         -2    1    1    2    0  503  0.14687910856E+02 -0.16367644298E+02 -0.23752802365E+02  0.32370204283E+02  0.00000000000E+00 0.  1.
<mgrwt>
<rscale>  2 0.21991692E+02</rscale>
<asrwt>0</asrwt>
<pdfrwt beam="1">  1       21 0.94525044E-02 0.21991692E+02</pdfrwt>
<pdfrwt beam="2">  1       21 0.46427362E-02 0.21991692E+02</pdfrwt>
<totfact> 0.20378798E+07</totfact>
</mgrwt>
</event>
<event>
 4    1  0.2736402E+004  0.2011622E+02  0.7546771E-02  0.1743027E+00
         21   -1    0    0  503  502  0.00000000000E+00  0.00000000000E+00  0.17402569888E+02  0.17402569888E+02  0.00000000000E+00 0. -1.
         21   -1    0    0  501  503 -0.00000000000E+00 -0.00000000000E+00 -0.77488228159E+02  0.77488228159E+02  0.00000000000E+00 0.  1.
          2    1    1    2  501    0  0.18143762224E+02  0.86871322190E+01 -0.69736099129E+02  0.72579514297E+02  0.00000000000E+00 0.  1.
         -2    1    1    2    0  502 -0.18143762224E+02 -0.86871322190E+01  0.96504408581E+01  0.22311283750E+02  0.00000000000E+00 0. -1.
<mgrwt>
<rscale>  2 0.20116222E+02</rscale>
<asrwt>0</asrwt>
<pdfrwt beam="1">  1       21 0.26773185E-02 0.20116222E+02</pdfrwt>
<pdfrwt beam="2">  1       21 0.11921266E-01 0.20116222E+02</pdfrwt>
<totfact> 0.32116681E+07</totfact>
</mgrwt>
</event>
<event>
 4    1  0.2736402E+004  0.2720021E+02  0.7546771E-02  0.1631273E+00
         21   -1    0    0  503  502  0.00000000000E+00  0.00000000000E+00  0.80035495206E+01  0.80035495206E+01  0.00000000000E+00 0. -1.
         21   -1    0    0  501  503 -0.00000000000E+00 -0.00000000000E+00 -0.18048448160E+03  0.18048448160E+03  0.00000000000E+00 0.  1.
          2    1    1    2  501    0 -0.50044298574E+01  0.26735873217E+02 -0.15206441888E+03  0.15447795546E+03  0.00000000000E+00 0.  1.
         -2    1    1    2    0  502  0.50044298574E+01 -0.26735873217E+02 -0.20416513194E+02  0.34010075652E+02  0.00000000000E+00 0. -1.
<mgrwt>
<rscale>  2 0.27200207E+02</rscale>
<asrwt>0</asrwt>
<pdfrwt beam="1">  1       21 0.12313153E-02 0.27200207E+02</pdfrwt>
<pdfrwt beam="2">  1       21 0.27766843E-01 0.27200207E+02</pdfrwt>
<totfact> 0.26068208E+07</totfact>
</mgrwt>
</event>
<event>
 4    1  0.2736402E+004  0.2191004E+02  0.7546771E-02  0.1709812E+00
         21   -1    0    0  503  502  0.00000000000E+00  0.00000000000E+00  0.12364946434E+01  0.12364946434E+01  0.00000000000E+00 0.  1.
         21   -1    0    0  501  503 -0.00000000000E+00 -0.00000000000E+00 -0.12603767434E+04  0.12603767434E+04  0.00000000000E+00 0. -1.
          2    1    1    2  501    0 -0.16386053913E+02 -0.14544663557E+02 -0.11543047081E+04  0.11545126284E+04  0.00000000000E+00 0. -1.
         -2    1    1    2    0  502  0.16386053913E+02  0.14544663557E+02 -0.10483554072E+03  0.10710060971E+03  0.00000000000E+00 0.  1.
<mgrwt>
<rscale>  2 0.21910043E+02</rscale>
<asrwt>0</asrwt>
<pdfrwt beam="1">  1       21 0.19022941E-03 0.21910043E+02</pdfrwt>
<pdfrwt beam="2">  1       21 0.19390466E+00 0.21910043E+02</pdfrwt>
<totfact> 0.66616851E+06</totfact>
</mgrwt>
</event>
<event>
 4    1  0.2736402E+004  0.2227238E+02  0.7546771E-02  0.1703583E+00
         21   -1    0    0  503  502  0.00000000000E+00  0.00000000000E+00  0.47107925327E+03  0.47107925327E+03  0.00000000000E+00 0.  1.
         21   -1    0    0  501  503 -0.00000000000E+00 -0.00000000000E+00 -0.10531917783E+01  0.10531917783E+01  0.00000000000E+00 0. -1.
          2    1    1    2  501    0 -0.21808529833E+02 -0.45218324363E+01  0.23205587077E+03  0.23312225570E+03  0.00000000000E+00 0. -1.
         -2    1    1    2    0  502  0.21808529833E+02  0.45218324363E+01  0.23797019072E+03  0.23901018935E+03  0.00000000000E+00 0.  1.
<mgrwt>
<rscale>  2 0.22272381E+02</rscale>
<asrwt>0</asrwt>
<pdfrwt beam="1">  1       21 0.72473563E-01 0.22272381E+02</pdfrwt>
<pdfrwt beam="2">  1       21 0.16202988E-03 0.22272381E+02</pdfrwt>
<totfact> 0.78298617E+07</totfact>
</mgrwt>
</event>
<event>
 4    1  0.2736402E+004  0.2045443E+02  0.7546771E-02  0.1736439E+00
         21   -1    0    0  503  502  0.00000000000E+00  0.00000000000E+00  0.43106365867E+03  0.43106365867E+03  0.00000000000E+00 0.  1.
         21   -1    0    0  501  503 -0.00000000000E+00 -0.00000000000E+00 -0.10964685221E+01  0.10964685221E+01  0.00000000000E+00 0. -1.
          2    1    1    2  501    0  0.17877785279E+02 -0.99382260398E+01  0.14176817311E+03  0.14323616321E+03  0.00000000000E+00 0. -1.
         -2    1    1    2    0  502 -0.17877785279E+02  0.99382260398E+01  0.28819901704E+03  0.28892396399E+03  0.00000000000E+00 0.  1.
<mgrwt>
<rscale>  2 0.20454426E+02</rscale>
<asrwt>0</asrwt>
<pdfrwt beam="1">  1       21 0.66317351E-01 0.20454426E+02</pdfrwt>
<pdfrwt beam="2">  1       21 0.16868781E-03 0.20454426E+02</pdfrwt>
<totfact> 0.86685195E+07</totfact>
</mgrwt>
</event>
<event>
 4    1  0.2736402E+004  0.2248013E+02  0.7546771E-02  0.1700078E+00
         21   -1    0    0  501  502  0.00000000000E+00  0.00000000000E+00  0.40793398283E+02  0.40793398283E+02  0.00000000000E+00 0.  1.
         21   -1    0    0  502  503 -0.00000000000E+00 -0.00000000000E+00 -0.48908806739E+02  0.48908806739E+02  0.00000000000E+00 0. -1.
          2    1    1    2  501    0  0.22479978232E+02  0.83565149743E-01  0.34699160386E+02  0.41344747380E+02  0.00000000000E+00 0.  1.
         -2    1    1    2    0  503 -0.22479978232E+02 -0.83565149743E-01 -0.42814568842E+02  0.48357457642E+02  0.00000000000E+00 0. -1.
<mgrwt>
<rscale>  2 0.22480134E+02</rscale>
<asrwt>0</asrwt>
<pdfrwt beam="1">  1       21 0.62759075E-02 0.22480134E+02</pdfrwt>
<pdfrwt beam="2">  1       21 0.75244318E-02 0.22480134E+02</pdfrwt>
<totfact> 0.18380883E+07</totfact>
</mgrwt>
</event>
<event>
 4    1  0.2736402E+004  0.2020334E+02  0.7546771E-02  0.1741314E+00
         21   -1    0    0  501  502  0.00000000000E+00  0.00000000000E+00  0.15066074881E+02  0.15066074881E+02  0.00000000000E+00 0.  1.
         21   -1    0    0  502  503 -0.00000000000E+00 -0.00000000000E+00 -0.14457255282E+03  0.14457255282E+03  0.00000000000E+00 0. -1.
          2    1    1    2  501    0 -0.30726190050E+01 -0.19968323708E+02  0.71995218465E+01  0.21447798350E+02  0.00000000000E+00 0.  1.
         -2    1    1    2    0  503  0.30726190050E+01  0.19968323708E+02 -0.13670599979E+03  0.13819082935E+03  0.00000000000E+00 0. -1.
<mgrwt>
<rscale>  2 0.20203340E+02</rscale>
<asrwt>0</asrwt>
<pdfrwt beam="1">  1       21 0.23178577E-02 0.20203340E+02</pdfrwt>
<pdfrwt beam="2">  1       21 0.22241931E-01 0.20203340E+02</pdfrwt>
<totfact> 0.13854729E+07</totfact>
</mgrwt>
</event>
<event>
 4    1  0.2736402E+004  0.3993990E+02  0.7546771E-02  0.1508654E+00
         21   -1    0    0  503  502  0.00000000000E+00  0.00000000000E+00  0.23069230556E+03  0.23069230556E+03  0.00000000000E+00 0.  1.
         21   -1    0    0  501  503 -0.00000000000E+00 -0.00000000000E+00 -0.10768952946E+02  0.10768952946E+02  0.00000000000E+00 0. -1.
          2    1    1    2  501    0 -0.12433558692E+02 -0.37955263705E+02  0.37735578094E+02  0.54946967876E+02  0.00000000000E+00 0. -1.
         -2    1    1    2    0  502  0.12433558692E+02  0.37955263705E+02  0.18218777452E+03  0.18651429063E+03  0.00000000000E+00 0.  1.
<mgrwt>
<rscale>  2 0.39939898E+02</rscale>
<asrwt>0</asrwt>
<pdfrwt beam="1">  1       21 0.35491120E-01 0.39939898E+02</pdfrwt>
<pdfrwt beam="2">  1       21 0.16567622E-02 0.39939898E+02</pdfrwt>
<totfact> 0.11166021E+07</totfact>
</mgrwt>
</event>
<event>
 4    1  0.2736402E+004  0.2635757E+02  0.7546771E-02  0.1642235E+00
         21   -1    0    0  503  502  0.00000000000E+00  0.00000000000E+00  0.53950248373E+02  0.53950248373E+02  0.00000000000E+00 0.  1.
         21   -1    0    0  501  503 -0.00000000000E+00 -0.00000000000E+00 -0.28946878518E+02  0.28946878518E+02  0.00000000000E+00 0. -1.
          2    1    1    2  501    0 -0.22697558178E+02 -0.13399333587E+02 -0.18380919876E+02  0.32133775118E+02  0.00000000000E+00 0. -1.
         -2    1    1    2    0  502  0.22697558178E+02  0.13399333587E+02  0.43384289730E+02  0.50763351773E+02  0.00000000000E+00 0.  1.
<mgrwt>
<rscale>  2 0.26357566E+02</rscale>
<asrwt>0</asrwt>
<pdfrwt beam="1">  1       21 0.83000382E-02 0.26357566E+02</pdfrwt>
<pdfrwt beam="2">  1       21 0.44533659E-02 0.26357566E+02</pdfrwt>
<totfact> 0.28069020E+07</totfact>
</mgrwt>
</event>
<event>
 4    1  0.2736402E+004  0.2297177E+02  0.7546771E-02  0.1691968E+00
         21   -1    0    0  503  502  0.00000000000E+00  0.00000000000E+00  0.29945603587E+03  0.29945603587E+03  0.00000000000E+00 0. -1.
         21   -1    0    0  501  503 -0.00000000000E+00 -0.00000000000E+00 -0.20992328301E+01  0.20992328301E+01  0.00000000000E+00 0.  1.
          2    1    1    2  501    0 -0.21709208798E+02  0.75108243713E+01  0.88263927848E+02  0.91204293696E+02  0.00000000000E+00 0. -1.
         -2    1    1    2    0  502  0.21709208798E+02 -0.75108243713E+01  0.20909287519E+03  0.21035097500E+03  0.00000000000E+00 0.  1.
<mgrwt>
<rscale>  2 0.22971770E+02</rscale>
<asrwt>0</asrwt>
<pdfrwt beam="1">  1       21 0.46070126E-01 0.22971770E+02</pdfrwt>
<pdfrwt beam="2">  1       21 0.32295913E-03 0.22971770E+02</pdfrwt>
<totfact> 0.71526879E+07</totfact>
</mgrwt>
</event>
<event>
 4    1  0.2736402E+004  0.2131901E+02  0.7546771E-02  0.1720303E+00
         21   -1    0    0  503  502  0.00000000000E+00  0.00000000000E+00  0.28650603388E+01  0.28650603388E+01  0.00000000000E+00 0. -1.
         21   -1    0    0  501  503 -0.00000000000E+00 -0.00000000000E+00 -0.16144661079E+03  0.16144661079E+03  0.00000000000E+00 0.  1.
          2    1    1    2  501    0 -0.18781770895E+01  0.21236120610E+02 -0.90131555689E+02  0.92618560228E+02  0.00000000000E+00 0.  1.
         -2    1    1    2    0  502  0.18781770895E+01 -0.21236120610E+02 -0.68449994765E+02  0.71693110904E+02  0.00000000000E+00 0. -1.
<mgrwt>
<rscale>  2 0.21319014E+02</rscale>
<asrwt>0</asrwt>
<pdfrwt beam="1">  1       21 0.44077846E-03 0.21319014E+02</pdfrwt>
<pdfrwt beam="2">  1       21 0.24837943E-01 0.21319014E+02</pdfrwt>
<totfact> 0.13892829E+08</totfact>
</mgrwt>
</event>
<event>
 4    1  0.2736402E+004  0.2847804E+02  0.7546771E-02  0.1615548E+00
         21   -1    0    0  501  502  0.00000000000E+00  0.00000000000E+00  0.20492769851E+03  0.20492769851E+03  0.00000000000E+00 0. -1.
         21   -1    0    0  502  503 -0.00000000000E+00 -0.00000000000E+00 -0.40648649335E+01  0.40648649335E+01  0.00000000000E+00 0.  1.
          2    1    1    2  501    0  0.34902980219E+01  0.28263348184E+02  0.11741510705E+03  0.12081931301E+03  0.00000000000E+00 0.  1.
         -2    1    1    2    0  503 -0.34902980219E+01 -0.28263348184E+02  0.83447726526E+02  0.88173250440E+02  0.00000000000E+00 0. -1.
<mgrwt>
<rscale>  2 0.28478045E+02</rscale>
<asrwt>0</asrwt>
<pdfrwt beam="1">  1       21 0.31527330E-01 0.28478045E+02</pdfrwt>
<pdfrwt beam="2">  1       21 0.62536400E-03 0.28478045E+02</pdfrwt>
<totfact> 0.57891441E+07</totfact>
</mgrwt>
</event>
<event>
 4    1  0.2736402E+004  0.3158397E+02  0.7546771E-02  0.1581212E+00
         21   -1    0    0  503  502  0.00000000000E+00  0.00000000000E+00  0.52532325452E+02  0.52532325452E+02  0.00000000000E+00 0.  1.
         21   -1    0    0  501  503 -0.00000000000E+00 -0.00000000000E+00 -0.29729092701E+02  0.29729092701E+02  0.00000000000E+00 0. -1.
          2    1    1    2  501    0  0.32731470317E+01  0.31413906017E+02 -0.13319910080E+02  0.34277791459E+02  0.00000000000E+00 0. -1.
         -2    1    1    2    0  502 -0.32731470317E+01 -0.31413906017E+02  0.36123142831E+02  0.47983626694E+02  0.00000000000E+00 0.  1.
<mgrwt>
<rscale>  2 0.31583967E+02</rscale>
<asrwt>0</asrwt>
<pdfrwt beam="1">  1       21 0.80818963E-02 0.31583967E+02</pdfrwt>
<pdfrwt beam="2">  1       21 0.45737066E-02 0.31583967E+02</pdfrwt>
<totfact> 0.29176968E+07</totfact>
</mgrwt>
</event>
<event>
 4    1  0.2736402E+004  0.2716586E+02  0.7546771E-02  0.1631710E+00
         21   -1    0    0  503  502  0.00000000000E+00  0.00000000000E+00  0.17733842556E+02  0.17733842556E+02  0.00000000000E+00 0.  1.
         21   -1    0    0  501  503 -0.00000000000E+00 -0.00000000000E+00 -0.49940241223E+02  0.49940241223E+02  0.00000000000E+00 0. -1.
          2    1    1    2  501    0 -0.24743676991E+02 -0.11213141937E+02 -0.29919120010E+02  0.40412100234E+02  0.00000000000E+00 0. -1.
         -2    1    1    2    0  502  0.24743676991E+02  0.11213141937E+02 -0.22872786563E+01  0.27261983545E+02  0.00000000000E+00 0.  1.
<mgrwt>
<rscale>  2 0.27165863E+02</rscale>
<asrwt>0</asrwt>
<pdfrwt beam="1">  1       21 0.27282834E-02 0.27165863E+02</pdfrwt>
<pdfrwt beam="2">  1       21 0.76831141E-02 0.27165863E+02</pdfrwt>
<totfact> 0.69450765E+07</totfact>
</mgrwt>
</event>
<event>
 4    1  0.2736402E+004  0.2969414E+02  0.7546771E-02  0.1601494E+00
         21   -1    0    0  503  502  0.00000000000E+00  0.00000000000E+00  0.13740770633E+02  0.13740770633E+02  0.00000000000E+00 0.  1.
         21   -1    0    0  501  503 -0.00000000000E+00 -0.00000000000E+00 -0.89776849172E+02  0.89776849172E+02  0.00000000000E+00 0. -1.
          2    1    1    2  501    0 -0.28635513559E+02  0.78580550269E+01 -0.65660861898E+02  0.72063100480E+02  0.00000000000E+00 0. -1.
         -2    1    1    2    0  502  0.28635513559E+02 -0.78580550269E+01 -0.10375216640E+02  0.31454519324E+02  0.00000000000E+00 0.  1.
<mgrwt>
<rscale>  2 0.29694135E+02</rscale>
<asrwt>0</asrwt>
<pdfrwt beam="1">  1       21 0.21139647E-02 0.29694135E+02</pdfrwt>
<pdfrwt beam="2">  1       21 0.13811823E-01 0.29694135E+02</pdfrwt>
<totfact> 0.39549242E+07</totfact>
</mgrwt>
</event>
<event>
 4    1  0.2736402E+004  0.2685194E+02  0.7546771E-02  0.1635743E+00
         21   -1    0    0  503  502  0.00000000000E+00  0.00000000000E+00  0.14248292378E+02  0.14248292378E+02  0.00000000000E+00 0. -1.
         21   -1    0    0  501  503 -0.00000000000E+00 -0.00000000000E+00 -0.79726723500E+02  0.79726723500E+02  0.00000000000E+00 0.  1.
          2    1    1    2  501    0  0.52123846940E+01  0.26341178087E+02 -0.61137577625E+02  0.66774471283E+02  0.00000000000E+00 0.  1.
         -2    1    1    2    0  502 -0.52123846940E+01 -0.26341178087E+02 -0.43408534978E+01  0.27200544595E+02  0.00000000000E+00 0. -1.
<mgrwt>
<rscale>  2 0.26851939E+02</rscale>
<asrwt>0</asrwt>
<pdfrwt beam="1">  1       21 0.21920450E-02 0.26851939E+02</pdfrwt>
<pdfrwt beam="2">  1       21 0.12265649E-01 0.26851939E+02</pdfrwt>
<totfact> 0.44722097E+07</totfact>
</mgrwt>
</event>
<event>
 4    1  0.2736402E+004  0.2206740E+02  0.7546771E-02  0.1707089E+00
         21   -1    0    0  501  502  0.00000000000E+00  0.00000000000E+00  0.42250074425E+03  0.42250074425E+03  0.00000000000E+00 0.  1.
         21   -1    0    0  502  503 -0.00000000000E+00 -0.00000000000E+00 -0.48603524498E+01  0.48603524498E+01  0.00000000000E+00 0. -1.
          2    1    1    2  501    0  0.24923946337E+01  0.21926199015E+02  0.39545259752E+03  0.39606783146E+03  0.00000000000E+00 0.  1.
         -2    1    1    2    0  503 -0.24923946337E+01 -0.21926199015E+02  0.22187794285E+02  0.31293265242E+02  0.00000000000E+00 0. -1.
<mgrwt>
<rscale>  2 0.22067402E+02</rscale>
<asrwt>0</asrwt>
<pdfrwt beam="1">  1       21 0.65000086E-01 0.22067402E+02</pdfrwt>
<pdfrwt beam="2">  1       21 0.74774686E-03 0.22067402E+02</pdfrwt>
<totfact> 0.10449799E+07</totfact>
</mgrwt>
</event>
<event>
 4    1  0.2736402E+004  0.2453476E+02  0.7546771E-02  0.1667776E+00
         21   -1    0    0  501  502  0.00000000000E+00  0.00000000000E+00  0.41885651964E+02  0.41885651964E+02  0.00000000000E+00 0. -1.
         21   -1    0    0  502  503 -0.00000000000E+00 -0.00000000000E+00 -0.51358018677E+02  0.51358018677E+02  0.00000000000E+00 0.  1.
          2    1    1    2  501    0 -0.13537346014E+02 -0.20462025906E+02  0.34828502440E+02  0.42602568273E+02  0.00000000000E+00 0. -1.
         -2    1    1    2    0  503  0.13537346014E+02  0.20462025906E+02 -0.44300869154E+02  0.50641102368E+02  0.00000000000E+00 0.  1.
<mgrwt>
<rscale>  2 0.24534756E+02</rscale>
<asrwt>0</asrwt>
<pdfrwt beam="1">  1       21 0.64439465E-02 0.24534756E+02</pdfrwt>
<pdfrwt beam="2">  1       21 0.79012336E-02 0.24534756E+02</pdfrwt>
<totfact> 0.16577854E+07</totfact>
</mgrwt>
</event>
<event>
 4    1  0.2736402E+004  0.2401545E+02  0.7546771E-02  0.1675560E+00
         21   -1    0    0  503  502  0.00000000000E+00  0.00000000000E+00  0.64098635592E+01  0.64098635592E+01  0.00000000000E+00 0. -1.
         21   -1    0    0  501  503 -0.00000000000E+00 -0.00000000000E+00 -0.14439569115E+03  0.14439569115E+03  0.00000000000E+00 0.  1.
          2    1    1    2  501    0  0.14071639340E+01 -0.23974187950E+02 -0.11528250391E+03  0.11775736710E+03  0.00000000000E+00 0.  1.
         -2    1    1    2    0  502 -0.14071639340E+01  0.23974187950E+02 -0.22703323681E+02  0.33048187611E+02  0.00000000000E+00 0. -1.
<mgrwt>
<rscale>  2 0.24015449E+02</rscale>
<asrwt>0</asrwt>
<pdfrwt beam="1">  1       21 0.98613294E-03 0.24015449E+02</pdfrwt>
<pdfrwt beam="2">  1       21 0.22214720E-01 0.24015449E+02</pdfrwt>
<totfact> 0.52892192E+07</totfact>
</mgrwt>
</event>
<event>
 4    1  0.2736402E+004  0.2143249E+02  0.7546771E-02  0.1718256E+00
         21   -1    0    0  501  502  0.00000000000E+00  0.00000000000E+00  0.10996919721E+02  0.10996919721E+02  0.00000000000E+00 0.  1.
         21   -1    0    0  502  503 -0.00000000000E+00 -0.00000000000E+00 -0.57687472382E+02  0.57687472382E+02  0.00000000000E+00 0. -1.
          2    1    1    2  501    0  0.16100761499E+02  0.14146282162E+02 -0.53063221536E+01  0.22079603137E+02  0.00000000000E+00 0.  1.
         -2    1    1    2    0  503 -0.16100761499E+02 -0.14146282162E+02 -0.41384230507E+02  0.46604788966E+02  0.00000000000E+00 0. -1.
<mgrwt>
<rscale>  2 0.21432494E+02</rscale>
<asrwt>0</asrwt>
<pdfrwt beam="1">  1       21 0.16918338E-02 0.21432494E+02</pdfrwt>
<pdfrwt beam="2">  1       21 0.88749957E-02 0.21432494E+02</pdfrwt>
<totfact> 0.10741129E+08</totfact>
</mgrwt>
</event>
<event>
 4    1  0.2736402E+004  0.3396607E+02  0.7546771E-02  0.1557979E+00
         21   -1    0    0  503  502  0.00000000000E+00  0.00000000000E+00  0.97280216035E+01  0.97280216035E+01  0.00000000000E+00 0. -1.
         21   -1    0    0  501  503 -0.00000000000E+00 -0.00000000000E+00 -0.17818342606E+03  0.17818342606E+03  0.00000000000E+00 0.  1.
          2    1    1    2  501    0 -0.29155023737E+02 -0.17426369106E+02 -0.13856160630E+03  0.14266398456E+03  0.00000000000E+00 0.  1.
         -2    1    1    2    0  502  0.29155023737E+02  0.17426369106E+02 -0.29893798157E+02  0.45247463106E+02  0.00000000000E+00 0. -1.
<mgrwt>
<rscale>  2 0.33966068E+02</rscale>
<asrwt>0</asrwt>
<pdfrwt beam="1">  1       21 0.14966188E-02 0.33966068E+02</pdfrwt>
<pdfrwt beam="2">  1       21 0.27412832E-01 0.33966068E+02</pdfrwt>
<totfact> 0.20629465E+07</totfact>
</mgrwt>
</event>
<event>
 4    1  0.2736402E+004  0.2547422E+02  0.7546771E-02  0.1654282E+00
         21   -1    0    0  503  502  0.00000000000E+00  0.00000000000E+00  0.69775768728E+03  0.69775768728E+03  0.00000000000E+00 0.  1.
         21   -1    0    0  501  503 -0.00000000000E+00 -0.00000000000E+00 -0.10005867295E+01  0.10005867295E+01  0.00000000000E+00 0. -1.
          2    1    1    2  501    0  0.25222510751E+02  0.35722287127E+01  0.25560214022E+03  0.25686842926E+03  0.00000000000E+00 0.  1.
         -2    1    1    2    0  502 -0.25222510751E+02 -0.35722287127E+01  0.44115496033E+03  0.44188984474E+03  0.00000000000E+00 0. -1.
<mgrwt>
<rscale>  2 0.25474220E+02</rscale>
<asrwt>0</asrwt>
<pdfrwt beam="1">  1       21 0.10734695E+00 0.25474220E+02</pdfrwt>
<pdfrwt beam="2">  1       21 0.15393698E-03 0.25474220E+02</pdfrwt>
<totfact> 0.37446713E+07</totfact>
</mgrwt>
</event>
<event>
 4    1  0.2736402E+004  0.2445077E+02  0.7546771E-02  0.1669018E+00
         21   -1    0    0  501  502  0.00000000000E+00  0.00000000000E+00  0.29801247218E+02  0.29801247218E+02  0.00000000000E+00 0.  1.
         21   -1    0    0  502  503 -0.00000000000E+00 -0.00000000000E+00 -0.20195996703E+02  0.20195996703E+02  0.00000000000E+00 0. -1.
          2    1    1    2  501    0  0.38271476104E+01  0.24149390433E+02  0.68471429317E+01  0.25391405700E+02  0.00000000000E+00 0.  1.
         -2    1    1    2    0  503 -0.38271476104E+01 -0.24149390433E+02  0.27581075828E+01  0.24605838221E+02  0.00000000000E+00 0. -1.
<mgrwt>
<rscale>  2 0.24450769E+02</rscale>
<asrwt>0</asrwt>
<pdfrwt beam="1">  1       21 0.45848073E-02 0.24450769E+02</pdfrwt>
<pdfrwt beam="2">  1       21 0.31070764E-02 0.24450769E+02</pdfrwt>
<totfact> 0.12682006E+08</totfact>
</mgrwt>
</event>
<event>
 4    1  0.2736402E+004  0.2855042E+02  0.7546771E-02  0.1614688E+00
         21   -1    0    0  503  502  0.00000000000E+00  0.00000000000E+00  0.20028881727E+03  0.20028881727E+03  0.00000000000E+00 0. -1.
         21   -1    0    0  501  503 -0.00000000000E+00 -0.00000000000E+00 -0.41783966413E+01  0.41783966413E+01  0.00000000000E+00 0.  1.
          2    1    1    2  501    0 -0.32849010212E+01  0.28360820732E+02  0.81570402075E+02  0.86422550425E+02  0.00000000000E+00 0.  1.
         -2    1    1    2    0  502  0.32849010212E+01 -0.28360820732E+02  0.11454001856E+03  0.11804466349E+03  0.00000000000E+00 0. -1.
<mgrwt>
<rscale>  2 0.28550424E+02</rscale>
<asrwt>0</asrwt>
<pdfrwt beam="1">  1       21 0.30813657E-01 0.28550424E+02</pdfrwt>
<pdfrwt beam="2">  1       21 0.64283041E-03 0.28550424E+02</pdfrwt>
<totfact> 0.57985097E+07</totfact>
</mgrwt>
</event>
<event>
 4    1  0.2736402E+004  0.2895731E+02  0.7546771E-02  0.1609909E+00
         21   -1    0    0  503  502  0.00000000000E+00  0.00000000000E+00  0.29645149906E+03  0.29645149906E+03  0.00000000000E+00 0.  1.
         21   -1    0    0  501  503 -0.00000000000E+00 -0.00000000000E+00 -0.41784717519E+01  0.41784717519E+01  0.00000000000E+00 0. -1.
          2    1    1    2  501    0  0.27387080258E+02  0.94060536615E+01  0.60698949110E+02  0.67252423255E+02  0.00000000000E+00 0. -1.
         -2    1    1    2    0  502 -0.27387080258E+02 -0.94060536615E+01  0.23157407820E+03  0.23337754756E+03  0.00000000000E+00 0.  1.
<mgrwt>
<rscale>  2 0.28957314E+02</rscale>
<asrwt>0</asrwt>
<pdfrwt beam="1">  1       21 0.45607907E-01 0.28957314E+02</pdfrwt>
<pdfrwt beam="2">  1       21 0.64284204E-03 0.28957314E+02</pdfrwt>
<totfact> 0.27748086E+07</totfact>
</mgrwt>
</event>
<event>
 4    1  0.2736402E+004  0.2318656E+02  0.7546771E-02  0.1688504E+00
         21   -1    0    0  501  502  0.00000000000E+00  0.00000000000E+00  0.13125081172E+03  0.13125081172E+03  0.00000000000E+00 0. -1.
         21   -1    0    0  502  503 -0.00000000000E+00 -0.00000000000E+00 -0.62072356930E+01  0.62072356930E+01  0.00000000000E+00 0.  1.
          2    1    1    2  501    0  0.19957009481E+02  0.11803992299E+02  0.10260376383E+03  0.10519101109E+03  0.00000000000E+00 0. -1.
         -2    1    1    2    0  503 -0.19957009481E+02 -0.11803992299E+02  0.22439812190E+02  0.32267036318E+02  0.00000000000E+00 0.  1.
<mgrwt>
<rscale>  2 0.23186558E+02</rscale>
<asrwt>0</asrwt>
<pdfrwt beam="1">  1       21 0.20192431E-01 0.23186558E+02</pdfrwt>
<pdfrwt beam="2">  1       21 0.95495943E-03 0.23186558E+02</pdfrwt>
<totfact> 0.65050216E+07</totfact>
</mgrwt>
</event>
<event>
 4    1  0.2736402E+004  0.2052945E+02  0.7546771E-02  0.1735000E+00
         21   -1    0    0  503  502  0.00000000000E+00  0.00000000000E+00  0.82475789772E+02  0.82475789772E+02  0.00000000000E+00 0.  1.
         21   -1    0    0  501  503 -0.00000000000E+00 -0.00000000000E+00 -0.53373657073E+01  0.53373657073E+01  0.00000000000E+00 0. -1.
          2    1    1    2  501    0 -0.62351761554E+00  0.20519976518E+02  0.29508790874E+02  0.35947558323E+02  0.00000000000E+00 0. -1.
         -2    1    1    2    0  502  0.62351761554E+00 -0.20519976518E+02  0.47629633190E+02  0.51865597156E+02  0.00000000000E+00 0.  1.
<mgrwt>
<rscale>  2 0.20529447E+02</rscale>
<asrwt>0</asrwt>
<pdfrwt beam="1">  1       21 0.12688582E-01 0.20529447E+02</pdfrwt>
<pdfrwt beam="2">  1       21 0.82113325E-03 0.20529447E+02</pdfrwt>
<totfact> 0.17411083E+08</totfact>
</mgrwt>
</event>
<event>
 4    1  0.2736402E+004  0.4237028E+02  0.7546771E-02  0.1491460E+00
         21   -1    0    0  503  502  0.00000000000E+00  0.00000000000E+00  0.28552494847E+04  0.28552494847E+04  0.00000000000E+00 0.  1.
         21   -1    0    0  501  503 -0.00000000000E+00 -0.00000000000E+00 -0.65854884103E+01  0.65854884103E+01  0.00000000000E+00 0. -1.
          2    1    1    2  501    0 -0.41757706822E+02  0.71787439815E+01  0.63436333311E+02  0.76285049834E+02  0.00000000000E+00 0. -1.
         -2    1    1    2    0  502  0.41757706822E+02 -0.71787439815E+01  0.27852276630E+04  0.27855499233E+04  0.00000000000E+00 0.  1.
<mgrwt>
<rscale>  2 0.42370278E+02</rscale>
<asrwt>0</asrwt>
<pdfrwt beam="1">  1       21 0.43926816E+00 0.42370278E+02</pdfrwt>
<pdfrwt beam="2">  1       21 0.10131543E-02 0.42370278E+02</pdfrwt>
<totfact> 0.26251380E+04</totfact>
</mgrwt>
</event>
<event>
 4    1  0.2736402E+004  0.2186007E+02  0.7546771E-02  0.1710683E+00
         21   -1    0    0  501  502  0.00000000000E+00  0.00000000000E+00  0.71541320027E+03  0.71541320027E+03  0.00000000000E+00 0. -1.
         21   -1    0    0  502  503 -0.00000000000E+00 -0.00000000000E+00 -0.76224786544E+00  0.76224786544E+00  0.00000000000E+00 0.  1.
          2    1    1    2  501    0 -0.21338110595E+02  0.47484261810E+01  0.48327164340E+03  0.48376579439E+03  0.00000000000E+00 0. -1.
         -2    1    1    2    0  503  0.21338110595E+02 -0.47484261810E+01  0.23137930900E+03  0.23240965374E+03  0.00000000000E+00 0.  1.
<mgrwt>
<rscale>  2 0.21860067E+02</rscale>
<asrwt>0</asrwt>
<pdfrwt beam="1">  1       21 0.11006303E+00 0.21860067E+02</pdfrwt>
<pdfrwt beam="2">  1       21 0.11726947E-03 0.21860067E+02</pdfrwt>
<totfact> 0.50676693E+07</totfact>
</mgrwt>
</event>
<event>
 4    1  0.2736402E+004  0.3152248E+02  0.7546771E-02  0.1581845E+00
         21   -1    0    0  503  502  0.00000000000E+00  0.00000000000E+00  0.65168502742E+02  0.65168502742E+02  0.00000000000E+00 0.  1.
         21   -1    0    0  501  503 -0.00000000000E+00 -0.00000000000E+00 -0.15377980015E+02  0.15377980015E+02  0.00000000000E+00 0. -1.
          2    1    1    2  501    0  0.30620711994E+02 -0.74859129817E+01  0.21187774983E+02  0.37981425788E+02  0.00000000000E+00 0.  1.
         -2    1    1    2    0  502 -0.30620711994E+02  0.74859129817E+01  0.28602747745E+02  0.42565056969E+02  0.00000000000E+00 0. -1.
<mgrwt>
<rscale>  2 0.31522482E+02</rscale>
<asrwt>0</asrwt>
<pdfrwt beam="1">  1       21 0.10025923E-01 0.31522482E+02</pdfrwt>
<pdfrwt beam="2">  1       21 0.23658431E-02 0.31522482E+02</pdfrwt>
<totfact> 0.57798378E+07</totfact>
</mgrwt>
</event>
<event>
 4    1  0.2736402E+004  0.2156299E+02  0.7546771E-02  0.1715921E+00
         21   -1    0    0  501  502  0.00000000000E+00  0.00000000000E+00  0.38813779495E+01  0.38813779495E+01  0.00000000000E+00 0.  1.
         21   -1    0    0  502  503 -0.00000000000E+00 -0.00000000000E+00 -0.24034696783E+03  0.24034696783E+03  0.00000000000E+00 0. -1.
          2    1    1    2  501    0 -0.11252687612E+02 -0.18394012803E+02 -0.31748521250E+02  0.38378786941E+02  0.00000000000E+00 0.  1.
         -2    1    1    2    0  503  0.11252687612E+02  0.18394012803E+02 -0.20471706863E+03  0.20584955884E+03  0.00000000000E+00 0. -1.
<mgrwt>
<rscale>  2 0.21562993E+02</rscale>
<asrwt>0</asrwt>
<pdfrwt beam="1">  1       21 0.59713501E-03 0.21562993E+02</pdfrwt>
<pdfrwt beam="2">  1       21 0.36976460E-01 0.21562993E+02</pdfrwt>
<totfact> 0.43265120E+07</totfact>
</mgrwt>
</event>
<event>
 4    1  0.2736402E+004  0.3352576E+02  0.7546771E-02  0.1562096E+00
         21   -1    0    0  503  502  0.00000000000E+00  0.00000000000E+00  0.11330847530E+04  0.11330847530E+04  0.00000000000E+00 0.  1.
         21   -1    0    0  501  503 -0.00000000000E+00 -0.00000000000E+00 -0.23211120958E+01  0.23211120958E+01  0.00000000000E+00 0. -1.
          2    1    1    2  501    0  0.24520579201E+02  0.22863026183E+02  0.13578591900E+03  0.13986347832E+03  0.00000000000E+00 0. -1.
         -2    1    1    2    0  502 -0.24520579201E+02 -0.22863026183E+02  0.99497772192E+03  0.99554238679E+03  0.00000000000E+00 0.  1.
<mgrwt>
<rscale>  2 0.33525763E+02</rscale>
<asrwt>0</asrwt>
<pdfrwt beam="1">  1       21 0.17432029E+00 0.33525763E+02</pdfrwt>
<pdfrwt beam="2">  1       21 0.35709507E-03 0.33525763E+02</pdfrwt>
<totfact> 0.36136739E+06</totfact>
</mgrwt>
</event>
<event>
 4    1  0.2736402E+004  0.2262193E+02  0.7546771E-02  0.1697713E+00
         21   -1    0    0  501  502  0.00000000000E+00  0.00000000000E+00  0.10747533847E+01  0.10747533847E+01  0.00000000000E+00 0.  1.
         21   -1    0    0  502  503 -0.00000000000E+00 -0.00000000000E+00 -0.95822691154E+03  0.95822691154E+03  0.00000000000E+00 0. -1.
          2    1    1    2  501    0 -0.18881656369E+02 -0.12459327005E+02 -0.13836703578E+03  0.14020409540E+03  0.00000000000E+00 0.  1.
         -2    1    1    2    0  503  0.18881656369E+02  0.12459327005E+02 -0.81878512238E+03  0.81909756953E+03  0.00000000000E+00 0. -1.
<mgrwt>
<rscale>  2 0.22621931E+02</rscale>
<asrwt>0</asrwt>
<pdfrwt beam="1">  1       21 0.16534628E-03 0.22621931E+02</pdfrwt>
<pdfrwt beam="2">  1       21 0.14741987E+00 0.22621931E+02</pdfrwt>
<totfact> 0.15987058E+07</totfact>
</mgrwt>
</event>
<event>
 4    1  0.2736402E+004  0.2042733E+02  0.7546771E-02  0.1736961E+00
         21   -1    0    0  501  502  0.00000000000E+00  0.00000000000E+00  0.59089123701E+02  0.59089123701E+02  0.00000000000E+00 0. -1.
         21   -1    0    0  502  503 -0.00000000000E+00 -0.00000000000E+00 -0.77636647340E+01  0.77636647340E+01  0.00000000000E+00 0.  1.
          2    1    1    2  501    0  0.16567630421E+02 -0.11949449179E+02  0.35713101179E+02  0.41142451426E+02  0.00000000000E+00 0.  1.
         -2    1    1    2    0  503 -0.16567630421E+02  0.11949449179E+02  0.15612357788E+02  0.25710337009E+02  0.00000000000E+00 0. -1.
<mgrwt>
<rscale>  2 0.20427328E+02</rscale>
<asrwt>0</asrwt>
<pdfrwt beam="1">  1       21 0.90906342E-02 0.20427328E+02</pdfrwt>
<pdfrwt beam="2">  1       21 0.11944100E-02 0.20427328E+02</pdfrwt>
<totfact> 0.17231783E+08</totfact>
</mgrwt>
</event>
<event>
 4    1  0.2736402E+004  0.2005114E+02  0.7546771E-02  0.1744313E+00
         21   -1    0    0  503  502  0.00000000000E+00  0.00000000000E+00  0.69058319223E+02  0.69058319223E+02  0.00000000000E+00 0.  1.
         21   -1    0    0  501  503 -0.00000000000E+00 -0.00000000000E+00 -0.58517621088E+01  0.58517621088E+01  0.00000000000E+00 0. -1.
          2    1    1    2  501    0 -0.12107518052E+02  0.15982996570E+02  0.28926048876E+02  0.35196086093E+02  0.00000000000E+00 0. -1.
         -2    1    1    2    0  502  0.12107518052E+02 -0.15982996570E+02  0.34280508238E+02  0.39713995239E+02  0.00000000000E+00 0.  1.
<mgrwt>
<rscale>  2 0.20051139E+02</rscale>
<asrwt>0</asrwt>
<pdfrwt beam="1">  1       21 0.10624356E-01 0.20051139E+02</pdfrwt>
<pdfrwt beam="2">  1       21 0.90027114E-03 0.20051139E+02</pdfrwt>
<totfact> 0.20238019E+08</totfact>
</mgrwt>
</event>
<event>
 4    1  0.2736402E+004  0.2008562E+02  0.7546771E-02  0.1743631E+00
         21   -1    0    0  501  502  0.00000000000E+00  0.00000000000E+00  0.10356511079E+01  0.10356511079E+01  0.00000000000E+00 0. -1.
         21   -1    0    0  502  503 -0.00000000000E+00 -0.00000000000E+00 -0.48039972978E+03  0.48039972978E+03  0.00000000000E+00 0.  1.
          2    1    1    2  501    0  0.55291099290E+01 -0.19309609161E+02 -0.13499765644E+03  0.13648369612E+03  0.00000000000E+00 0. -1.
         -2    1    1    2    0  503 -0.55291099290E+01  0.19309609161E+02 -0.34436642223E+03  0.34495168476E+03  0.00000000000E+00 0.  1.
<mgrwt>
<rscale>  2 0.20085618E+02</rscale>
<asrwt>0</asrwt>
<pdfrwt beam="1">  1       21 0.15933076E-03 0.20085618E+02</pdfrwt>
<pdfrwt beam="2">  1       21 0.73907734E-01 0.20085618E+02</pdfrwt>
<totfact> 0.75060676E+07</totfact>
</mgrwt>
</event>
<event>
 4    1  0.2736402E+004  0.2168029E+02  0.7546771E-02  0.1713841E+00
         21   -1    0    0  501  502  0.00000000000E+00  0.00000000000E+00  0.23326038673E+01  0.23326038673E+01  0.00000000000E+00 0. -1.
         21   -1    0    0  502  503 -0.00000000000E+00 -0.00000000000E+00 -0.22805154912E+03  0.22805154912E+03  0.00000000000E+00 0.  1.
          2    1    1    2  501    0 -0.18646279677E+02  0.11061244492E+02 -0.15215994225E+03  0.15369672378E+03  0.00000000000E+00 0. -1.
         -2    1    1    2    0  503  0.18646279677E+02 -0.11061244492E+02 -0.73559003003E+02  0.76687429207E+02  0.00000000000E+00 0.  1.
<mgrwt>
<rscale>  2 0.21680288E+02</rscale>
<asrwt>0</asrwt>
<pdfrwt beam="1">  1       21 0.35886214E-03 0.21680288E+02</pdfrwt>
<pdfrwt beam="2">  1       21 0.35084853E-01 0.21680288E+02</pdfrwt>
<totfact> 0.10090003E+08</totfact>
</mgrwt>
</event>
<event>
 4    1  0.2736402E+004  0.2067869E+02  0.7546771E-02  0.1732159E+00
         21   -1    0    0  501  502  0.00000000000E+00  0.00000000000E+00  0.33575387794E+01  0.33575387794E+01  0.00000000000E+00 0. -1.
         21   -1    0    0  502  503 -0.00000000000E+00 -0.00000000000E+00 -0.35374614152E+03  0.35374614152E+03  0.00000000000E+00 0.  1.
          2    1    1    2  501    0  0.20561698401E+02  0.21965623743E+01 -0.32355688184E+02  0.38399204227E+02  0.00000000000E+00 0. -1.
         -2    1    1    2    0  503 -0.20561698401E+02 -0.21965623743E+01 -0.31803291456E+03  0.31870447607E+03  0.00000000000E+00 0.  1.
<mgrwt>
<rscale>  2 0.20678693E+02</rscale>
<asrwt>0</asrwt>
<pdfrwt beam="1">  1       21 0.51654472E-03 0.20678693E+02</pdfrwt>
<pdfrwt beam="2">  1       21 0.54422452E-01 0.20678693E+02</pdfrwt>
<totfact> 0.25385121E+07</totfact>
</mgrwt>
</event>
<event>
 4    1  0.2736402E+004  0.2223780E+02  0.7546771E-02  0.1704171E+00
         21   -1    0    0  501  502  0.00000000000E+00  0.00000000000E+00  0.13247217885E+03  0.13247217885E+03  0.00000000000E+00 0.  1.
         21   -1    0    0  502  503 -0.00000000000E+00 -0.00000000000E+00 -0.20788637808E+02  0.20788637808E+02  0.00000000000E+00 0. -1.
          2    1    1    2  501    0 -0.20449702358E+02 -0.87366786026E+01  0.12525176134E+03  0.12721054830E+03  0.00000000000E+00 0.  1.
         -2    1    1    2    0  503  0.20449702358E+02  0.87366786026E+01 -0.13568220298E+02  0.26050268359E+02  0.00000000000E+00 0. -1.
<mgrwt>
<rscale>  2 0.22237803E+02</rscale>
<asrwt>0</asrwt>
<pdfrwt beam="1">  1       21 0.20380335E-01 0.22237803E+02</pdfrwt>
<pdfrwt beam="2">  1       21 0.31982520E-02 0.22237803E+02</pdfrwt>
<totfact> 0.10002792E+07</totfact>
</mgrwt>
</event>
<event>
 4    1  0.2736402E+004  0.2105380E+02  0.7546771E-02  0.1725149E+00
         21   -1    0    0  501  502  0.00000000000E+00  0.00000000000E+00  0.17135469219E+03  0.17135469219E+03  0.00000000000E+00 0.  1.
         21   -1    0    0  502  503 -0.00000000000E+00 -0.00000000000E+00 -0.36303400552E+01  0.36303400552E+01  0.00000000000E+00 0. -1.
          2    1    1    2  501    0  0.20835267087E+02 -0.30255836333E+01  0.13077041741E+03  0.13245438680E+03  0.00000000000E+00 0.  1.
         -2    1    1    2    0  503 -0.20835267087E+02  0.30255836333E+01  0.36953934718E+02  0.42530645447E+02  0.00000000000E+00 0. -1.
<mgrwt>
<rscale>  2 0.21053800E+02</rscale>
<asrwt>0</asrwt>
<pdfrwt beam="1">  1       21 0.26362254E-01 0.21053800E+02</pdfrwt>
<pdfrwt beam="2">  1       21 0.55851399E-03 0.21053800E+02</pdfrwt>
<totfact> 0.87904799E+07</totfact>
</mgrwt>
</event>
<event>
 4    1  0.2736402E+004  0.3461072E+02  0.7546771E-02  0.1552085E+00
         21   -1    0    0  501  502  0.00000000000E+00  0.00000000000E+00  0.19521494670E+03  0.19521494670E+03  0.00000000000E+00 0.  1.
         21   -1    0    0  502  503 -0.00000000000E+00 -0.00000000000E+00 -0.88651233045E+01  0.88651233045E+01  0.00000000000E+00 0. -1.
          2    1    1    2  501    0 -0.13975669187E+01 -0.34582490448E+02  0.14978764696E+03  0.15373431959E+03  0.00000000000E+00 0. -1.
         -2    1    1    2    0  503  0.13975669187E+01  0.34582490448E+02  0.36562176438E+02  0.50345750414E+02  0.00000000000E+00 0.  1.
<mgrwt>
<rscale>  2 0.34610719E+02</rscale>
<asrwt>0</asrwt>
<pdfrwt beam="1">  1       21 0.30033065E-01 0.34610719E+02</pdfrwt>
<pdfrwt beam="2">  1       21 0.13638653E-02 0.34610719E+02</pdfrwt>
<totfact> 0.20184520E+07</totfact>
</mgrwt>
</event>
<event>
 4    1  0.2736402E+004  0.2749856E+02  0.7546771E-02  0.1627508E+00
         21   -1    0    0  503  502  0.00000000000E+00  0.00000000000E+00  0.99282232560E+02  0.99282232560E+02  0.00000000000E+00 0. -1.
         21   -1    0    0  501  503 -0.00000000000E+00 -0.00000000000E+00 -0.76417185626E+01  0.76417185626E+01  0.00000000000E+00 0.  1.
          2    1    1    2  501    0  0.36495829634E+00  0.27496137325E+02  0.48899040445E+02  0.56100685547E+02  0.00000000000E+00 0. -1.
         -2    1    1    2    0  502 -0.36495829634E+00 -0.27496137325E+02  0.42741473552E+02  0.50823265576E+02  0.00000000000E+00 0.  1.
<mgrwt>
<rscale>  2 0.27498559E+02</rscale>
<asrwt>0</asrwt>
<pdfrwt beam="1">  1       21 0.15274189E-01 0.27498559E+02</pdfrwt>
<pdfrwt beam="2">  1       21 0.11756491E-02 0.27498559E+02</pdfrwt>
<totfact> 0.80442341E+07</totfact>
</mgrwt>
</event>
<event>
 4    1  0.2736402E+004  0.2010321E+02  0.7546771E-02  0.1743283E+00
         21   -1    0    0  503  502  0.00000000000E+00  0.00000000000E+00  0.58414509555E+01  0.58414509555E+01  0.00000000000E+00 0. -1.
         21   -1    0    0  501  503 -0.00000000000E+00 -0.00000000000E+00 -0.69205024296E+02  0.69205024296E+02  0.00000000000E+00 0.  1.
          2    1    1    2  501    0  0.90284268218E+01 -0.17961808245E+02 -0.31038783798E+02  0.36980334585E+02  0.00000000000E+00 0.  1.
         -2    1    1    2    0  502 -0.90284268218E+01  0.17961808245E+02 -0.32324789542E+02  0.38066140667E+02  0.00000000000E+00 0. -1.
<mgrwt>
<rscale>  2 0.20103210E+02</rscale>
<asrwt>0</asrwt>
<pdfrwt beam="1">  1       21 0.89868480E-03 0.20103210E+02</pdfrwt>
<pdfrwt beam="2">  1       21 0.10646926E-01 0.20103210E+02</pdfrwt>
<totfact> 0.20238015E+08</totfact>
</mgrwt>
</event>
<event>
 4    1  0.2736402E+004  0.2078792E+02  0.7546771E-02  0.1730099E+00
         21   -1    0    0  503  502  0.00000000000E+00  0.00000000000E+00  0.24652504653E+02  0.24652504653E+02  0.00000000000E+00 0.  1.
         21   -1    0    0  501  503 -0.00000000000E+00 -0.00000000000E+00 -0.32869785721E+02  0.32869785721E+02  0.00000000000E+00 0. -1.
          2    1    1    2  501    0  0.46485379048E+01  0.20261503185E+02 -0.23757142166E+02  0.31568009438E+02  0.00000000000E+00 0. -1.
         -2    1    1    2    0  502 -0.46485379048E+01 -0.20261503185E+02  0.15539861099E+02  0.25954280936E+02  0.00000000000E+00 0.  1.
<mgrwt>
<rscale>  2 0.20787915E+02</rscale>
<asrwt>0</asrwt>
<pdfrwt beam="1">  1       21 0.37926930E-02 0.20787915E+02</pdfrwt>
<pdfrwt beam="2">  1       21 0.50568901E-02 0.20787915E+02</pdfrwt>
<totfact> 0.75817200E+07</totfact>
</mgrwt>
</event>
<event>
 4    1  0.2736402E+004  0.1086775E+03  0.7546771E-02  0.1263039E+00
         21   -1    0    0  501  502  0.00000000000E+00  0.00000000000E+00  0.20869895174E+02  0.20869895174E+02  0.00000000000E+00 0.  1.
         21   -1    0    0  502  503 -0.00000000000E+00 -0.00000000000E+00 -0.64316121164E+03  0.64316121164E+03  0.00000000000E+00 0. -1.
          2    1    1    2  501    0  0.10866099468E+03 -0.18943430853E+01 -0.19608990712E+03  0.22419199801E+03  0.00000000000E+00 0.  1.
         -2    1    1    2    0  503 -0.10866099468E+03  0.18943430853E+01 -0.42620140935E+03  0.43983910880E+03  0.00000000000E+00 0. -1.
<mgrwt>
<rscale>  2 0.10867751E+03</rscale>
<asrwt>0</asrwt>
<pdfrwt beam="1">  1       21 0.32107526E-02 0.10867751E+03</pdfrwt>
<pdfrwt beam="2">  1       21 0.98947893E-01 0.10867751E+03</pdfrwt>
<totfact> 0.48323701E+05</totfact>
</mgrwt>
</event>
<event>
 4    1  0.2736402E+004  0.2291939E+02  0.7546771E-02  0.1692820E+00
         21   -1    0    0  503  502  0.00000000000E+00  0.00000000000E+00  0.68899737604E+01  0.68899737604E+01  0.00000000000E+00 0. -1.
         21   -1    0    0  501  503 -0.00000000000E+00 -0.00000000000E+00 -0.97702175648E+02  0.97702175648E+02  0.00000000000E+00 0.  1.
          2    1    1    2  501    0  0.35440417100E+01 -0.22643724177E+02 -0.69916125642E+02  0.73576919622E+02  0.00000000000E+00 0. -1.
         -2    1    1    2    0  502 -0.35440417100E+01  0.22643724177E+02 -0.20896076246E+02  0.31015229787E+02  0.00000000000E+00 0.  1.
<mgrwt>
<rscale>  2 0.22919391E+02</rscale>
<asrwt>0</asrwt>
<pdfrwt beam="1">  1       21 0.10599960E-02 0.22919391E+02</pdfrwt>
<pdfrwt beam="2">  1       21 0.15031104E-01 0.22919391E+02</pdfrwt>
<totfact> 0.92219433E+07</totfact>
</mgrwt>
</event>
<event>
 4    1  0.2736402E+004  0.4331505E+02  0.7546771E-02  0.1485143E+00
         21   -1    0    0  503  502  0.00000000000E+00  0.00000000000E+00  0.49895822111E+03  0.49895822111E+03  0.00000000000E+00 0.  1.
         21   -1    0    0  501  503 -0.00000000000E+00 -0.00000000000E+00 -0.44640065134E+01  0.44640065134E+01  0.00000000000E+00 0. -1.
          2    1    1    2  501    0  0.36087863688E+02  0.23955373235E+02  0.14730241095E+03  0.15353890089E+03  0.00000000000E+00 0. -1.
         -2    1    1    2    0  502 -0.36087863688E+02 -0.23955373235E+02  0.34719180364E+03  0.34988332674E+03  0.00000000000E+00 0.  1.
<mgrwt>
<rscale>  2 0.43315053E+02</rscale>
<asrwt>0</asrwt>
<pdfrwt beam="1">  1       21 0.76762759E-01 0.43315053E+02</pdfrwt>
<pdfrwt beam="2">  1       21 0.68677063E-03 0.43315053E+02</pdfrwt>
<totfact> 0.92542662E+06</totfact>
</mgrwt>
</event>
<event>
 4    1  0.2736402E+004  0.2189204E+02  0.7546771E-02  0.1710126E+00
         21   -1    0    0  503  502  0.00000000000E+00  0.00000000000E+00  0.17742209267E+02  0.17742209267E+02  0.00000000000E+00 0. -1.
         21   -1    0    0  501  503 -0.00000000000E+00 -0.00000000000E+00 -0.29108678708E+02  0.29108678708E+02  0.00000000000E+00 0.  1.
          2    1    1    2  501    0 -0.17415611244E+02 -0.13264919534E+02 -0.11969456533E+02  0.24950540976E+02  0.00000000000E+00 0.  1.
         -2    1    1    2    0  502  0.17415611244E+02  0.13264919534E+02  0.60298709244E+00  0.21900347000E+02  0.00000000000E+00 0. -1.
<mgrwt>
<rscale>  2 0.21892044E+02</rscale>
<asrwt>0</asrwt>
<pdfrwt beam="1">  1       21 0.27295707E-02 0.21892044E+02</pdfrwt>
<pdfrwt beam="2">  1       21 0.44782582E-02 0.21892044E+02</pdfrwt>
<totfact> 0.15574904E+08</totfact>
</mgrwt>
</event>
<event>
 4    1  0.2736402E+004  0.2342396E+02  0.7546771E-02  0.1684729E+00
         21   -1    0    0  503  502  0.00000000000E+00  0.00000000000E+00  0.17818244423E+01  0.17818244423E+01  0.00000000000E+00 0. -1.
         21   -1    0    0  501  503 -0.00000000000E+00 -0.00000000000E+00 -0.35154117168E+03  0.35154117168E+03  0.00000000000E+00 0.  1.
          2    1    1    2  501    0  0.20599015458E+02  0.11151785435E+02 -0.23710109924E+03  0.23825535254E+03  0.00000000000E+00 0. -1.
         -2    1    1    2    0  502 -0.20599015458E+02 -0.11151785435E+02 -0.11265824801E+03  0.11506764358E+03  0.00000000000E+00 0.  1.
<mgrwt>
<rscale>  2 0.23423957E+02</rscale>
<asrwt>0</asrwt>
<pdfrwt beam="1">  1       21 0.27412701E-03 0.23423957E+02</pdfrwt>
<pdfrwt beam="2">  1       21 0.54083223E-01 0.23423957E+02</pdfrwt>
<totfact> 0.66820348E+07</totfact>
</mgrwt>
</event>
<event>
 4    1  0.2736402E+004  0.2216232E+02  0.7546771E-02  0.1705460E+00
         21   -1    0    0  501  502  0.00000000000E+00  0.00000000000E+00  0.16358326810E+02  0.16358326810E+02  0.00000000000E+00 0. -1.
         21   -1    0    0  502  503 -0.00000000000E+00 -0.00000000000E+00 -0.50713295348E+02  0.50713295348E+02  0.00000000000E+00 0.  1.
          2    1    1    2  501    0 -0.21075711021E+01 -0.22061880061E+02  0.42417560419E+01  0.22564593993E+02  0.00000000000E+00 0. -1.
         -2    1    1    2    0  503  0.21075711021E+01  0.22061880061E+02 -0.38596724579E+02  0.44507028164E+02  0.00000000000E+00 0.  1.
<mgrwt>
<rscale>  2 0.22162320E+02</rscale>
<asrwt>0</asrwt>
<pdfrwt beam="1">  1       21 0.25166657E-02 0.22162320E+02</pdfrwt>
<pdfrwt beam="2">  1       21 0.78020454E-02 0.22162320E+02</pdfrwt>
<totfact> 0.72795532E+07</totfact>
</mgrwt>
</event>
<event>
 4    1  0.2736402E+004  0.2145692E+02  0.7546771E-02  0.1717817E+00
         21   -1    0    0  501  502  0.00000000000E+00  0.00000000000E+00  0.50470391089E+02  0.50470391089E+02  0.00000000000E+00 0.  1.
         21   -1    0    0  502  503 -0.00000000000E+00 -0.00000000000E+00 -0.92974765218E+01  0.92974765218E+01  0.00000000000E+00 0. -1.
          2    1    1    2  501    0  0.21448782797E+02  0.59082539612E+00  0.16482928990E+02  0.27057093455E+02  0.00000000000E+00 0. -1.
         -2    1    1    2    0  503 -0.21448782797E+02 -0.59082539612E+00  0.24689985576E+02  0.32710774156E+02  0.00000000000E+00 0.  1.
<mgrwt>
<rscale>  2 0.21456919E+02</rscale>
<asrwt>0</asrwt>
<pdfrwt beam="1">  1       21 0.77646754E-02 0.21456919E+02</pdfrwt>
<pdfrwt beam="2">  1       21 0.14303810E-02 0.21456919E+02</pdfrwt>
<totfact> 0.17238460E+08</totfact>
</mgrwt>
</event>
<event>
 4    1  0.2736402E+004  0.2572104E+02  0.7546771E-02  0.1650856E+00
         21   -1    0    0  503  502  0.00000000000E+00  0.00000000000E+00  0.10910035162E+04  0.10910035162E+04  0.00000000000E+00 0.  1.
         21   -1    0    0  501  503 -0.00000000000E+00 -0.00000000000E+00 -0.66601464478E+00  0.66601464478E+00  0.00000000000E+00 0. -1.
          2    1    1    2  501    0  0.24018603421E+02 -0.92021092854E+01  0.70848793510E+03  0.70895467155E+03  0.00000000000E+00 0.  1.
         -2    1    1    2    0  502 -0.24018603421E+02  0.92021092854E+01  0.38184956647E+03  0.38271485931E+03  0.00000000000E+00 0. -1.
<mgrwt>
<rscale>  2 0.25721044E+02</rscale>
<asrwt>0</asrwt>
<pdfrwt beam="1">  1       21 0.16784526E+00 0.25721044E+02</pdfrwt>
<pdfrwt beam="2">  1       21 0.10246466E-03 0.25721044E+02</pdfrwt>
<totfact> 0.23706331E+07</totfact>
</mgrwt>
</event>
<event>
 4    1  0.2736402E+004  0.2802478E+02  0.7546771E-02  0.1621008E+00
         21   -1    0    0  503  502  0.00000000000E+00  0.00000000000E+00  0.42589122570E+02  0.42589122570E+02  0.00000000000E+00 0. -1.
         21   -1    0    0  501  503 -0.00000000000E+00 -0.00000000000E+00 -0.37997131023E+02  0.37997131023E+02  0.00000000000E+00 0.  1.
          2    1    1    2  501    0 -0.72901561006E+01  0.27059967959E+02 -0.26610567051E+02  0.38645963834E+02  0.00000000000E+00 0.  1.
         -2    1    1    2    0  502  0.72901561006E+01 -0.27059967959E+02  0.31202558598E+02  0.41940289758E+02  0.00000000000E+00 0. -1.
<mgrwt>
<rscale>  2 0.28024779E+02</rscale>
<asrwt>0</asrwt>
<pdfrwt beam="1">  1       21 0.65521727E-02 0.28024779E+02</pdfrwt>
<pdfrwt beam="2">  1       21 0.58457125E-02 0.28024779E+02</pdfrwt>
<totfact> 0.27059968E+07</totfact>
</mgrwt>
</event>
<event>
 4    1  0.2736402E+004  0.2626465E+02  0.7546771E-02  0.1643475E+00
         21   -1    0    0  503  502  0.00000000000E+00  0.00000000000E+00  0.35918547424E+03  0.35918547424E+03  0.00000000000E+00 0.  1.
         21   -1    0    0  501  503 -0.00000000000E+00 -0.00000000000E+00 -0.50597310402E+01  0.50597310402E+01  0.00000000000E+00 0. -1.
          2    1    1    2  501    0 -0.22148543185E+02  0.14116434728E+02  0.33610182917E+02  0.42655317258E+02  0.00000000000E+00 0. -1.
         -2    1    1    2    0  502  0.22148543185E+02 -0.14116434728E+02  0.32051556029E+03  0.32158988803E+03  0.00000000000E+00 0.  1.
<mgrwt>
<rscale>  2 0.26264647E+02</rscale>
<asrwt>0</asrwt>
<pdfrwt beam="1">  1       21 0.55259284E-01 0.26264647E+02</pdfrwt>
<pdfrwt beam="2">  1       21 0.77842044E-03 0.26264647E+02</pdfrwt>
<totfact> 0.14049574E+07</totfact>
</mgrwt>
</event>
<event>
 4    1  0.2736402E+004  0.2229470E+02  0.7546771E-02  0.1703205E+00
         21   -1    0    0  503  502  0.00000000000E+00  0.00000000000E+00  0.28570500280E+03  0.28570500280E+03  0.00000000000E+00 0.  1.
         21   -1    0    0  501  503 -0.00000000000E+00 -0.00000000000E+00 -0.42818418631E+01  0.42818418631E+01  0.00000000000E+00 0. -1.
          2    1    1    2  501    0  0.20979112126E+02  0.75452346790E+01  0.28992056249E+02  0.36573119056E+02  0.00000000000E+00 0. -1.
         -2    1    1    2    0  502 -0.20979112126E+02 -0.75452346790E+01  0.25243110469E+03  0.25341372560E+03  0.00000000000E+00 0.  1.
<mgrwt>
<rscale>  2 0.22294701E+02</rscale>
<asrwt>0</asrwt>
<pdfrwt beam="1">  1       21 0.43954601E-01 0.22294701E+02</pdfrwt>
<pdfrwt beam="2">  1       21 0.65874512E-03 0.22294701E+02</pdfrwt>
<totfact> 0.27227522E+07</totfact>
</mgrwt>
</event>
<event>
 4    1  0.2736402E+004  0.2305573E+02  0.7546771E-02  0.1690608E+00
         21   -1    0    0  503  502  0.00000000000E+00  0.00000000000E+00  0.43496754699E+03  0.43496754699E+03  0.00000000000E+00 0.  1.
         21   -1    0    0  501  503 -0.00000000000E+00 -0.00000000000E+00 -0.15591250056E+01  0.15591250056E+01  0.00000000000E+00 0. -1.
          2    1    1    2  501    0 -0.45688194037E+01 -0.22598508128E+02  0.11522385396E+03  0.11750788570E+03  0.00000000000E+00 0. -1.
         -2    1    1    2    0  502  0.45688194037E+01  0.22598508128E+02  0.31818456803E+03  0.31901878630E+03  0.00000000000E+00 0.  1.
<mgrwt>
<rscale>  2 0.23055730E+02</rscale>
<asrwt>0</asrwt>
<pdfrwt beam="1">  1       21 0.66917988E-01 0.23055730E+02</pdfrwt>
<pdfrwt beam="2">  1       21 0.23986573E-03 0.23055730E+02</pdfrwt>
<totfact> 0.52775729E+07</totfact>
</mgrwt>
</event>
<event>
 4    1  0.2736402E+004  0.3631780E+02  0.7546771E-02  0.1537200E+00
         21   -1    0    0  501  502  0.00000000000E+00  0.00000000000E+00  0.21048467619E+02  0.21048467619E+02  0.00000000000E+00 0. -1.
         21   -1    0    0  502  503 -0.00000000000E+00 -0.00000000000E+00 -0.10491540421E+03  0.10491540421E+03  0.00000000000E+00 0.  1.
          2    1    1    2  501    0 -0.22406555146E+02 -0.28581970802E+02 -0.19650868872E+01  0.36370927056E+02  0.00000000000E+00 0. -1.
         -2    1    1    2    0  503  0.22406555146E+02  0.28581970802E+02 -0.81901849708E+02  0.89592944778E+02  0.00000000000E+00 0.  1.
<mgrwt>
<rscale>  2 0.36317802E+02</rscale>
<asrwt>0</asrwt>
<pdfrwt beam="1">  1       21 0.32382257E-02 0.36317802E+02</pdfrwt>
<pdfrwt beam="2">  1       21 0.16140832E-01 0.36317802E+02</pdfrwt>
<totfact> 0.16063084E+07</totfact>
</mgrwt>
</event>
<event>
 4    1  0.2736402E+004  0.3563534E+02  0.7546771E-02  0.1543030E+00
         21   -1    0    0  503  502  0.00000000000E+00  0.00000000000E+00  0.22571056339E+02  0.22571056339E+02  0.00000000000E+00 0. -1.
         21   -1    0    0  501  503 -0.00000000000E+00 -0.00000000000E+00 -0.29207334479E+03  0.29207334479E+03  0.00000000000E+00 0.  1.
          2    1    1    2  501    0  0.31738085916E+02  0.16204052371E+02 -0.27611130311E+03  0.27840138131E+03  0.00000000000E+00 0.  1.
         -2    1    1    2    0  502 -0.31738085916E+02 -0.16204052371E+02  0.66090146570E+01  0.36243019819E+02  0.00000000000E+00 0. -1.
<mgrwt>
<rscale>  2 0.35635339E+02</rscale>
<asrwt>0</asrwt>
<pdfrwt beam="1">  1       21 0.34724703E-02 0.35635339E+02</pdfrwt>
<pdfrwt beam="2">  1       21 0.44934360E-01 0.35635339E+02</pdfrwt>
<totfact> 0.21903915E+06</totfact>
</mgrwt>
</event>
<event>
 4    1  0.2736402E+004  0.2354895E+02  0.7546771E-02  0.1682763E+00
         21   -1    0    0  501  502  0.00000000000E+00  0.00000000000E+00  0.41619894221E+03  0.41619894221E+03  0.00000000000E+00 0. -1.
         21   -1    0    0  502  503 -0.00000000000E+00 -0.00000000000E+00 -0.13770559762E+01  0.13770559762E+01  0.00000000000E+00 0.  1.
          2    1    1    2  501    0 -0.21461339056E+02  0.96935046694E+01  0.24499960925E+03  0.24612875013E+03  0.00000000000E+00 0.  1.
         -2    1    1    2    0  503  0.21461339056E+02 -0.96935046694E+01  0.16982227699E+03  0.17144724806E+03  0.00000000000E+00 0. -1.
<mgrwt>
<rscale>  2 0.23548951E+02</rscale>
<asrwt>0</asrwt>
<pdfrwt beam="1">  1       21 0.64030506E-01 0.23548951E+02</pdfrwt>
<pdfrwt beam="2">  1       21 0.21185510E-03 0.23548951E+02</pdfrwt>
<totfact> 0.69432967E+07</totfact>
</mgrwt>
</event>
<event>
 4    1  0.2736402E+004  0.2353318E+02  0.7546771E-02  0.1683010E+00
         21   -1    0    0  501  502  0.00000000000E+00  0.00000000000E+00  0.88657868063E+02  0.88657868063E+02  0.00000000000E+00 0.  1.
         21   -1    0    0  502  503 -0.00000000000E+00 -0.00000000000E+00 -0.16183116328E+02  0.16183116328E+02  0.00000000000E+00 0. -1.
          2    1    1    2  501    0 -0.16133287302E+02 -0.17132652934E+02  0.77313264170E+02  0.80815540414E+02  0.00000000000E+00 0.  1.
         -2    1    1    2    0  503  0.16133287302E+02  0.17132652934E+02 -0.48385124358E+01  0.24025443977E+02  0.00000000000E+00 0. -1.
<mgrwt>
<rscale>  2 0.23533184E+02</rscale>
<asrwt>0</asrwt>
<pdfrwt beam="1">  1       21 0.13639672E-01 0.23533184E+02</pdfrwt>
<pdfrwt beam="2">  1       21 0.24897102E-02 0.23533184E+02</pdfrwt>
<totfact> 0.29776270E+07</totfact>
</mgrwt>
</event>
<event>
 4    1  0.2736402E+004  0.2671813E+02  0.7546771E-02  0.1637483E+00
         21   -1    0    0  503  502  0.00000000000E+00  0.00000000000E+00  0.16036596523E+02  0.16036596523E+02  0.00000000000E+00 0.  1.
         21   -1    0    0  501  503 -0.00000000000E+00 -0.00000000000E+00 -0.87171832677E+02  0.87171832677E+02  0.00000000000E+00 0. -1.
          2    1    1    2  501    0  0.63771774923E+01 -0.25945909345E+02 -0.71666580289E+02  0.76485013792E+02  0.00000000000E+00 0. -1.
         -2    1    1    2    0  502 -0.63771774923E+01  0.25945909345E+02  0.53134413421E+00  0.26723415408E+02  0.00000000000E+00 0.  1.
<mgrwt>
<rscale>  2 0.26718133E+02</rscale>
<asrwt>0</asrwt>
<pdfrwt beam="1">  1       21 0.24671687E-02 0.26718133E+02</pdfrwt>
<pdfrwt beam="2">  1       21 0.13411051E-01 0.26718133E+02</pdfrwt>
<totfact> 0.31969930E+07</totfact>
</mgrwt>
</event>
<event>
 4    1  0.2736402E+004  0.2632423E+02  0.7546771E-02  0.1642679E+00
         21   -1    0    0  501  502  0.00000000000E+00  0.00000000000E+00  0.68844693562E+02  0.68844693562E+02  0.00000000000E+00 0. -1.
         21   -1    0    0  502  503 -0.00000000000E+00 -0.00000000000E+00 -0.61436511134E+02  0.61436511134E+02  0.00000000000E+00 0.  1.
          2    1    1    2  501    0 -0.26192310596E+02  0.26320824055E+01  0.63269896664E+02  0.68527693789E+02  0.00000000000E+00 0. -1.
         -2    1    1    2    0  503  0.26192310596E+02 -0.26320824055E+01 -0.55861714235E+02  0.61753510908E+02  0.00000000000E+00 0.  1.
<mgrwt>
<rscale>  2 0.26324228E+02</rscale>
<asrwt>0</asrwt>
<pdfrwt beam="1">  1       21 0.10591491E-01 0.26324228E+02</pdfrwt>
<pdfrwt beam="2">  1       21 0.94517710E-02 0.26324228E+02</pdfrwt>
<totfact> 0.55263958E+06</totfact>
</mgrwt>
</event>
<event>
 4    1  0.2736402E+004  0.3285771E+02  0.7546771E-02  0.1568491E+00
         21   -1    0    0  501  502  0.00000000000E+00  0.00000000000E+00  0.20363089530E+02  0.20363089530E+02  0.00000000000E+00 0.  1.
         21   -1    0    0  502  503 -0.00000000000E+00 -0.00000000000E+00 -0.53169019589E+02  0.53169019589E+02  0.00000000000E+00 0. -1.
          2    1    1    2  501    0 -0.10822318575E+02  0.31024292404E+02 -0.18356347515E+02  0.37637544986E+02  0.00000000000E+00 0. -1.
         -2    1    1    2    0  503  0.10822318575E+02 -0.31024292404E+02 -0.14449582544E+02  0.35894564132E+02  0.00000000000E+00 0.  1.
<mgrwt>
<rscale>  2 0.32857713E+02</rscale>
<asrwt>0</asrwt>
<pdfrwt beam="1">  1       21 0.31327831E-02 0.32857713E+02</pdfrwt>
<pdfrwt beam="2">  1       21 0.81798490E-02 0.32857713E+02</pdfrwt>
<totfact> 0.52665119E+07</totfact>
</mgrwt>
</event>
<event>
 4    1  0.2736402E+004  0.2114272E+02  0.7546771E-02  0.1723514E+00
         21   -1    0    0  503  502  0.00000000000E+00  0.00000000000E+00  0.40253600670E+01  0.40253600670E+01  0.00000000000E+00 0. -1.
         21   -1    0    0  501  503 -0.00000000000E+00 -0.00000000000E+00 -0.29188802424E+03  0.29188802424E+03  0.00000000000E+00 0.  1.
          2    1    1    2  501    0  0.20913324360E+02 -0.31060549537E+01 -0.26038999665E+03  0.26124694269E+03  0.00000000000E+00 0.  1.
         -2    1    1    2    0  502 -0.20913324360E+02  0.31060549537E+01 -0.27472667529E+02  0.34666441616E+02  0.00000000000E+00 0. -1.
<mgrwt>
<rscale>  2 0.21142722E+02</rscale>
<asrwt>0</asrwt>
<pdfrwt beam="1">  1       21 0.61928612E-03 0.21142722E+02</pdfrwt>
<pdfrwt beam="2">  1       21 0.44905853E-01 0.21142722E+02</pdfrwt>
<totfact> 0.28305979E+07</totfact>
</mgrwt>
</event>
<event>
 4    1  0.2736402E+004  0.2265556E+02  0.7546771E-02  0.1697155E+00
         21   -1    0    0  501  502  0.00000000000E+00  0.00000000000E+00  0.21054014357E+01  0.21054014357E+01  0.00000000000E+00 0. -1.
         21   -1    0    0  502  503 -0.00000000000E+00 -0.00000000000E+00 -0.37996327677E+03  0.37996327677E+03  0.00000000000E+00 0.  1.
          2    1    1    2  501    0 -0.19052819027E+02 -0.12258249419E+02 -0.74565421522E+02  0.77931230444E+02  0.00000000000E+00 0. -1.
         -2    1    1    2    0  503  0.19052819027E+02  0.12258249419E+02 -0.30329245381E+03  0.30413744776E+03  0.00000000000E+00 0.  1.
<mgrwt>
<rscale>  2 0.22655564E+02</rscale>
<asrwt>0</asrwt>
<pdfrwt beam="1">  1       21 0.32390822E-03 0.22655564E+02</pdfrwt>
<pdfrwt beam="2">  1       21 0.58455834E-01 0.22655564E+02</pdfrwt>
<totfact> 0.44575537E+07</totfact>
</mgrwt>
</event>
<event>
 4    1  0.2736402E+004  0.3330941E+02  0.7546771E-02  0.1564147E+00
         21   -1    0    0  503  502  0.00000000000E+00  0.00000000000E+00  0.41488198100E+02  0.41488198100E+02  0.00000000000E+00 0.  1.
         21   -1    0    0  501  503 -0.00000000000E+00 -0.00000000000E+00 -0.98264859997E+03  0.98264859997E+03  0.00000000000E+00 0. -1.
          2    1    1    2  501    0 -0.10223860913E+02 -0.31701572070E+02 -0.97563251888E+03  0.97620096748E+03  0.00000000000E+00 0. -1.
         -2    1    1    2    0  502  0.10223860913E+02  0.31701572070E+02  0.34472117010E+02  0.47935830595E+02  0.00000000000E+00 0.  1.
<mgrwt>
<rscale>  2 0.33309413E+02</rscale>
<asrwt>0</asrwt>
<pdfrwt beam="1">  1       21 0.63827999E-02 0.33309413E+02</pdfrwt>
<pdfrwt beam="2">  1       21 0.15117670E+00 0.33309413E+02</pdfrwt>
<totfact> 0.59657651E+04</totfact>
</mgrwt>
</event>
<event>
 4    1  0.2736402E+004  0.2425209E+02  0.7546771E-02  0.1671983E+00
         21   -1    0    0  503  502  0.00000000000E+00  0.00000000000E+00  0.65747067911E+02  0.65747067911E+02  0.00000000000E+00 0.  1.
         21   -1    0    0  501  503 -0.00000000000E+00 -0.00000000000E+00 -0.13531136113E+03  0.13531136113E+03  0.00000000000E+00 0. -1.
          2    1    1    2  501    0 -0.23334013064E+02  0.66096818152E+01 -0.13193138942E+03  0.13414192325E+03  0.00000000000E+00 0. -1.
         -2    1    1    2    0  502  0.23334013064E+02 -0.66096818152E+01  0.62367096198E+02  0.66916505793E+02  0.00000000000E+00 0.  1.
<mgrwt>
<rscale>  2 0.24252094E+02</rscale>
<asrwt>0</asrwt>
<pdfrwt beam="1">  1       21 0.10114934E-01 0.24252094E+02</pdfrwt>
<pdfrwt beam="2">  1       21 0.20817132E-01 0.24252094E+02</pdfrwt>
<totfact> 0.15395621E+06</totfact>
</mgrwt>
</event>
<event>
 4    1  0.2736402E+004  0.3141273E+02  0.7546771E-02  0.1582978E+00
         21   -1    0    0  503  502  0.00000000000E+00  0.00000000000E+00  0.54479626628E+02  0.54479626628E+02  0.00000000000E+00 0. -1.
         21   -1    0    0  501  503 -0.00000000000E+00 -0.00000000000E+00 -0.25166020583E+02  0.25166020583E+02  0.00000000000E+00 0.  1.
          2    1    1    2  501    0 -0.31099213530E+02 -0.44270551114E+01 -0.64260347323E+01  0.32063278396E+02  0.00000000000E+00 0.  1.
         -2    1    1    2    0  502  0.31099213530E+02  0.44270551114E+01  0.35739640778E+02  0.47582368815E+02  0.00000000000E+00 0. -1.
<mgrwt>
<rscale>  2 0.31412735E+02</rscale>
<asrwt>0</asrwt>
<pdfrwt beam="1">  1       21 0.83814810E-02 0.31412735E+02</pdfrwt>
<pdfrwt beam="2">  1       21 0.38716955E-02 0.31412735E+02</pdfrwt>
<totfact> 0.35815014E+07</totfact>
</mgrwt>
</event>
<event>
 4    1  0.2736402E+004  0.3447967E+02  0.7546771E-02  0.1553270E+00
         21   -1    0    0  501  502  0.00000000000E+00  0.00000000000E+00  0.12815097620E+04  0.12815097620E+04  0.00000000000E+00 0. -1.
         21   -1    0    0  502  503 -0.00000000000E+00 -0.00000000000E+00 -0.17897012150E+01  0.17897012150E+01  0.00000000000E+00 0.  1.
          2    1    1    2  501    0  0.10962294805E+02 -0.32690606619E+02  0.10851710542E+04  0.10857186858E+04  0.00000000000E+00 0. -1.
         -2    1    1    2    0  503 -0.10962294805E+02  0.32690606619E+02  0.19454900657E+03  0.19758077747E+03  0.00000000000E+00 0.  1.
<mgrwt>
<rscale>  2 0.34479670E+02</rscale>
<asrwt>0</asrwt>
<pdfrwt beam="1">  1       21 0.19715461E+00 0.34479670E+02</pdfrwt>
<pdfrwt beam="2">  1       21 0.27533967E-03 0.34479670E+02</pdfrwt>
<totfact> 0.38645713E+06</totfact>
</mgrwt>
</event>
<event>
 4    1  0.2736402E+004  0.2611480E+02  0.7546771E-02  0.1645487E+00
         21   -1    0    0  501  502  0.00000000000E+00  0.00000000000E+00  0.10549502342E+02  0.10549502342E+02  0.00000000000E+00 0.  1.
         21   -1    0    0  502  503 -0.00000000000E+00 -0.00000000000E+00 -0.24894033092E+03  0.24894033092E+03  0.00000000000E+00 0. -1.
          2    1    1    2  501    0  0.80901900124E+01  0.24830058592E+02 -0.75608390619E+01  0.27187299819E+02  0.00000000000E+00 0.  1.
         -2    1    1    2    0  503 -0.80901900124E+01 -0.24830058592E+02 -0.23082998952E+03  0.23230253344E+03  0.00000000000E+00 0. -1.
<mgrwt>
<rscale>  2 0.26114804E+02</rscale>
<asrwt>0</asrwt>
<pdfrwt beam="1">  1       21 0.16230005E-02 0.26114804E+02</pdfrwt>
<pdfrwt beam="2">  1       21 0.38298509E-01 0.26114804E+02</pdfrwt>
<totfact> 0.93700965E+06</totfact>
</mgrwt>
</event>
<event>
 4    1  0.2736402E+004  0.2049408E+02  0.7546771E-02  0.1735678E+00
         21   -1    0    0  503  502  0.00000000000E+00  0.00000000000E+00  0.24906117846E+03  0.24906117846E+03  0.00000000000E+00 0.  1.
         21   -1    0    0  501  503 -0.00000000000E+00 -0.00000000000E+00 -0.16863627637E+01  0.16863627637E+01  0.00000000000E+00 0. -1.
          2    1    1    2  501    0  0.10657712044E+02  0.17504865942E+02  0.12380013796E+03  0.12548498443E+03  0.00000000000E+00 0. -1.
         -2    1    1    2    0  502 -0.10657712044E+02 -0.17504865942E+02  0.12357467773E+03  0.12526255679E+03  0.00000000000E+00 0.  1.
<mgrwt>
<rscale>  2 0.20494076E+02</rscale>
<asrwt>0</asrwt>
<pdfrwt beam="1">  1       21 0.38317075E-01 0.20494076E+02</pdfrwt>
<pdfrwt beam="2">  1       21 0.25944062E-03 0.20494076E+02</pdfrwt>
<totfact> 0.13515117E+08</totfact>
</mgrwt>
</event>
<event>
 4    1  0.2736402E+004  0.2377066E+02  0.7546771E-02  0.1679314E+00
         21   -1    0    0  503  502  0.00000000000E+00  0.00000000000E+00  0.53077585085E+01  0.53077585085E+01  0.00000000000E+00 0.  1.
         21   -1    0    0  501  503 -0.00000000000E+00 -0.00000000000E+00 -0.11917751569E+03  0.11917751569E+03  0.00000000000E+00 0. -1.
          2    1    1    2  501    0 -0.88177505064E+01 -0.22074681369E+02 -0.77270399006E+02  0.80844040251E+02  0.00000000000E+00 0.  1.
         -2    1    1    2    0  502  0.88177505064E+01  0.22074681369E+02 -0.36599358170E+02  0.43641233943E+02  0.00000000000E+00 0. -1.
<mgrwt>
<rscale>  2 0.23770660E+02</rscale>
<asrwt>0</asrwt>
<pdfrwt beam="1">  1       21 0.81657825E-03 0.23770660E+02</pdfrwt>
<pdfrwt beam="2">  1       21 0.18335002E-01 0.23770660E+02</pdfrwt>
<totfact> 0.97927746E+07</totfact>
</mgrwt>
</event>
<event>
 4    1  0.2736402E+004  0.2665365E+02  0.7546771E-02  0.1638326E+00
         21   -1    0    0  503  502  0.00000000000E+00  0.00000000000E+00  0.10182184636E+02  0.10182184636E+02  0.00000000000E+00 0. -1.
         21   -1    0    0  501  503 -0.00000000000E+00 -0.00000000000E+00 -0.92866377471E+02  0.92866377471E+02  0.00000000000E+00 0.  1.
          2    1    1    2  501    0 -0.66752499619E+01  0.25804227118E+02 -0.67037119431E+02  0.72141475455E+02  0.00000000000E+00 0. -1.
         -2    1    1    2    0  502  0.66752499619E+01 -0.25804227118E+02 -0.15647073404E+02  0.30907086652E+02  0.00000000000E+00 0.  1.
<mgrwt>
<rscale>  2 0.26653651E+02</rscale>
<asrwt>0</asrwt>
<pdfrwt beam="1">  1       21 0.15664899E-02 0.26653651E+02</pdfrwt>
<pdfrwt beam="2">  1       21 0.14287136E-01 0.26653651E+02</pdfrwt>
<totfact> 0.57794922E+07</totfact>
</mgrwt>
</event>
<event>
 4    1  0.2736402E+004  0.2121096E+02  0.7546771E-02  0.1722266E+00
         21   -1    0    0  503  502  0.00000000000E+00  0.00000000000E+00  0.14464515432E+04  0.14464515432E+04  0.00000000000E+00 0. -1.
         21   -1    0    0  501  503 -0.00000000000E+00 -0.00000000000E+00 -0.31504605869E+00  0.31504605869E+00  0.00000000000E+00 0.  1.
          2    1    1    2  501    0  0.35825950827E+01  0.20906214421E+02  0.80463653345E+03  0.80491605510E+03  0.00000000000E+00 0.  1.
         -2    1    1    2    0  502 -0.35825950827E+01 -0.20906214421E+02  0.64149996365E+03  0.64185053413E+03  0.00000000000E+00 0. -1.
<mgrwt>
<rscale>  2 0.21210959E+02</rscale>
<asrwt>0</asrwt>
<pdfrwt beam="1">  1       21 0.22252569E+00 0.21210959E+02</pdfrwt>
<pdfrwt beam="2">  1       21 0.48469782E-04 0.21210959E+02</pdfrwt>
<totfact> 0.32350807E+07</totfact>
</mgrwt>
</event>
<event>
 4    1  0.2736402E+004  0.2033285E+02  0.7546771E-02  0.1738789E+00
         21   -1    0    0  501  502  0.00000000000E+00  0.00000000000E+00  0.23901768650E+01  0.23901768650E+01  0.00000000000E+00 0. -1.
         21   -1    0    0  502  503 -0.00000000000E+00 -0.00000000000E+00 -0.17689111167E+03  0.17689111167E+03  0.00000000000E+00 0.  1.
          2    1    1    2  501    0  0.49093756041E+01  0.19731267781E+02 -0.73901455591E+02  0.76647570317E+02  0.00000000000E+00 0. -1.
         -2    1    1    2    0  503 -0.49093756041E+01 -0.19731267781E+02 -0.10059947922E+03  0.10263371822E+03  0.00000000000E+00 0.  1.
<mgrwt>
<rscale>  2 0.20332853E+02</rscale>
<asrwt>0</asrwt>
<pdfrwt beam="1">  1       21 0.36771945E-03 0.20332853E+02</pdfrwt>
<pdfrwt beam="2">  1       21 0.27214022E-01 0.20332853E+02</pdfrwt>
<totfact> 0.15174688E+08</totfact>
</mgrwt>
</event>
<event>
 4    1  0.2736402E+004  0.2878476E+02  0.7546771E-02  0.1611923E+00
         21   -1    0    0  501  502  0.00000000000E+00  0.00000000000E+00  0.14090865692E+01  0.14090865692E+01  0.00000000000E+00 0.  1.
         21   -1    0    0  502  503 -0.00000000000E+00 -0.00000000000E+00 -0.91509601916E+03  0.91509601916E+03  0.00000000000E+00 0. -1.
          2    1    1    2  501    0 -0.61946355993E+01  0.28110301678E+02 -0.18287541354E+03  0.18512692794E+03  0.00000000000E+00 0.  1.
         -2    1    1    2    0  503  0.61946355993E+01 -0.28110301678E+02 -0.73081151905E+03  0.73137817779E+03  0.00000000000E+00 0. -1.
<mgrwt>
<rscale>  2 0.28784763E+02</rscale>
<asrwt>0</asrwt>
<pdfrwt beam="1">  1       21 0.21678232E-03 0.28784763E+02</pdfrwt>
<pdfrwt beam="2">  1       21 0.14078415E+00 0.28784763E+02</pdfrwt>
<totfact> 0.12486142E+07</totfact>
</mgrwt>
</event>
<event>
 4    1  0.2736402E+004  0.2304725E+02  0.7546771E-02  0.1690745E+00
         21   -1    0    0  503  502  0.00000000000E+00  0.00000000000E+00  0.23351486565E+02  0.23351486565E+02  0.00000000000E+00 0.  1.
         21   -1    0    0  501  503 -0.00000000000E+00 -0.00000000000E+00 -0.24876905114E+02  0.24876905114E+02  0.00000000000E+00 0. -1.
          2    1    1    2  501    0 -0.52858457139E+01  0.22432912794E+02 -0.78186841030E+01  0.24337369669E+02  0.00000000000E+00 0. -1.
         -2    1    1    2    0  502  0.52858457139E+01 -0.22432912794E+02  0.62932655534E+01  0.23891022009E+02  0.00000000000E+00 0.  1.
<mgrwt>
<rscale>  2 0.23047250E+02</rscale>
<asrwt>0</asrwt>
<pdfrwt beam="1">  1       21 0.35925364E-02 0.23047250E+02</pdfrwt>
<pdfrwt beam="2">  1       21 0.38272162E-02 0.23047250E+02</pdfrwt>
<totfact> 0.13208433E+08</totfact>
</mgrwt>
</event>
<event>
 4    1  0.2736402E+004  0.2060518E+02  0.7546771E-02  0.1733554E+00
         21   -1    0    0  503  502  0.00000000000E+00  0.00000000000E+00  0.41723676387E+03  0.41723676387E+03  0.00000000000E+00 0.  1.
         21   -1    0    0  501  503 -0.00000000000E+00 -0.00000000000E+00 -0.85719854806E+01  0.85719854806E+01  0.00000000000E+00 0. -1.
          2    1    1    2  501    0  0.20141341417E+02  0.43473770063E+01  0.44640922029E+01  0.21083202795E+02  0.00000000000E+00 0. -1.
         -2    1    1    2    0  502 -0.20141341417E+02 -0.43473770063E+01  0.40420068619E+03  0.40472554656E+03  0.00000000000E+00 0.  1.
<mgrwt>
<rscale>  2 0.20605177E+02</rscale>
<asrwt>0</asrwt>
<pdfrwt beam="1">  1       21 0.64190256E-01 0.20605177E+02</pdfrwt>
<pdfrwt beam="2">  1       21 0.13187673E-02 0.20605177E+02</pdfrwt>
<totfact> 0.45294778E+06</totfact>
</mgrwt>
</event>
<event>
 4    1  0.2736402E+004  0.2260133E+02  0.7546771E-02  0.1698055E+00
         21   -1    0    0  501  502  0.00000000000E+00  0.00000000000E+00  0.68762685626E+02  0.68762685626E+02  0.00000000000E+00 0. -1.
         21   -1    0    0  502  503 -0.00000000000E+00 -0.00000000000E+00 -0.85117738147E+02  0.85117738147E+02  0.00000000000E+00 0.  1.
          2    1    1    2  501    0  0.89950252093E+01  0.20734263701E+02  0.65328525983E+02  0.69127682420E+02  0.00000000000E+00 0. -1.
         -2    1    1    2    0  503 -0.89950252093E+01 -0.20734263701E+02 -0.81683578503E+02  0.84752741353E+02  0.00000000000E+00 0.  1.
<mgrwt>
<rscale>  2 0.22601331E+02</rscale>
<asrwt>0</asrwt>
<pdfrwt beam="1">  1       21 0.10578875E-01 0.22601331E+02</pdfrwt>
<pdfrwt beam="2">  1       21 0.13095037E-01 0.22601331E+02</pdfrwt>
<totfact> 0.31397382E+06</totfact>
</mgrwt>
</event>
<event>
 4    1  0.2736402E+004  0.2052600E+02  0.7546771E-02  0.1735066E+00
         21   -1    0    0  501  502  0.00000000000E+00  0.00000000000E+00  0.57046813887E+00  0.57046813887E+00  0.00000000000E+00 0.  1.
         21   -1    0    0  502  503 -0.00000000000E+00 -0.00000000000E+00 -0.78315771101E+03  0.78315771101E+03  0.00000000000E+00 0. -1.
          2    1    1    2  501    0  0.12714874408E+02  0.16113613601E+02 -0.29776627783E+03  0.29847290126E+03  0.00000000000E+00 0.  1.
         -2    1    1    2    0  503 -0.12714874408E+02 -0.16113613601E+02 -0.48482096504E+03  0.48525527789E+03  0.00000000000E+00 0. -1.
<mgrwt>
<rscale>  2 0.20525998E+02</rscale>
<asrwt>0</asrwt>
<pdfrwt beam="1">  1       21 0.87763790E-04 0.20525998E+02</pdfrwt>
<pdfrwt beam="2">  1       21 0.12048654E+00 0.20525998E+02</pdfrwt>
<totfact> 0.61593546E+07</totfact>
</mgrwt>
</event>
<event>
 4    1  0.2736402E+004  0.2148646E+02  0.7546771E-02  0.1717288E+00
         21   -1    0    0  503  502  0.00000000000E+00  0.00000000000E+00  0.10203563100E+03  0.10203563100E+03  0.00000000000E+00 0.  1.
         21   -1    0    0  501  503 -0.00000000000E+00 -0.00000000000E+00 -0.14978652820E+02  0.14978652820E+02  0.00000000000E+00 0. -1.
          2    1    1    2  501    0 -0.62370077146E+01 -0.20561319828E+02 -0.53497233479E+01  0.22142440655E+02  0.00000000000E+00 0. -1.
         -2    1    1    2    0  502  0.62370077146E+01  0.20561319828E+02  0.92406701527E+02  0.94871843165E+02  0.00000000000E+00 0.  1.
<mgrwt>
<rscale>  2 0.21486464E+02</rscale>
<asrwt>0</asrwt>
<pdfrwt beam="1">  1       21 0.15697789E-01 0.21486464E+02</pdfrwt>
<pdfrwt beam="2">  1       21 0.23044082E-02 0.21486464E+02</pdfrwt>
<totfact> 0.25869244E+07</totfact>
</mgrwt>
</event>
<event>
 4    1  0.2736402E+004  0.2170302E+02  0.7546771E-02  0.1713439E+00
         21   -1    0    0  501  502  0.00000000000E+00  0.00000000000E+00  0.26932113782E+01  0.26932113782E+01  0.00000000000E+00 0. -1.
         21   -1    0    0  502  503 -0.00000000000E+00 -0.00000000000E+00 -0.17609436678E+03  0.17609436678E+03  0.00000000000E+00 0.  1.
          2    1    1    2  501    0 -0.62916759274E+01 -0.20771037161E+02 -0.79313885715E+02  0.82229639656E+02  0.00000000000E+00 0. -1.
         -2    1    1    2    0  503  0.62916759274E+01  0.20771037161E+02 -0.94087269682E+02  0.96557938497E+02  0.00000000000E+00 0.  1.
<mgrwt>
<rscale>  2 0.21703022E+02</rscale>
<asrwt>0</asrwt>
<pdfrwt beam="1">  1       21 0.41434025E-03 0.21703022E+02</pdfrwt>
<pdfrwt beam="2">  1       21 0.27091438E-01 0.21703022E+02</pdfrwt>
<totfact> 0.13094721E+08</totfact>
</mgrwt>
</event>
<event>
 4    1  0.2736402E+004  0.2603336E+02  0.7546771E-02  0.1646588E+00
         21   -1    0    0  501  502  0.00000000000E+00  0.00000000000E+00  0.33028408063E+02  0.33028408063E+02  0.00000000000E+00 0. -1.
         21   -1    0    0  502  503 -0.00000000000E+00 -0.00000000000E+00 -0.16802037593E+03  0.16802037593E+03  0.00000000000E+00 0.  1.
          2    1    1    2  501    0  0.46572460430E+01 -0.25613388593E+02  0.26690236319E+02  0.37284102922E+02  0.00000000000E+00 0. -1.
         -2    1    1    2    0  503 -0.46572460430E+01  0.25613388593E+02 -0.16168220419E+03  0.16376468108E+03  0.00000000000E+00 0.  1.
<mgrwt>
<rscale>  2 0.26033356E+02</rscale>
<asrwt>0</asrwt>
<pdfrwt beam="1">  1       21 0.50812936E-02 0.26033356E+02</pdfrwt>
<pdfrwt beam="2">  1       21 0.25849288E-01 0.26033356E+02</pdfrwt>
<totfact> 0.32417216E+06</totfact>
</mgrwt>
</event>
<event>
 4    1  0.2736402E+004  0.3114508E+02  0.7546771E-02  0.1585766E+00
         21   -1    0    0  501  502  0.00000000000E+00  0.00000000000E+00  0.13928518676E+02  0.13928518676E+02  0.00000000000E+00 0.  1.
         21   -1    0    0  502  503 -0.00000000000E+00 -0.00000000000E+00 -0.23972787596E+03  0.23972787596E+03  0.00000000000E+00 0. -1.
          2    1    1    2  501    0 -0.26469867482E+02 -0.16412254550E+02 -0.60704436210E+01  0.31731156135E+02  0.00000000000E+00 0.  1.
         -2    1    1    2    0  503  0.26469867482E+02  0.16412254550E+02 -0.21972891366E+03  0.22192523850E+03  0.00000000000E+00 0. -1.
<mgrwt>
<rscale>  2 0.31145080E+02</rscale>
<asrwt>0</asrwt>
<pdfrwt beam="1">  1       21 0.21428491E-02 0.31145080E+02</pdfrwt>
<pdfrwt beam="2">  1       21 0.36881210E-01 0.31145080E+02</pdfrwt>
<totfact> 0.67310399E+06</totfact>
</mgrwt>
</event>
<event>
 4    1  0.2736402E+004  0.2231353E+02  0.7546771E-02  0.1702885E+00
         21   -1    0    0  501  502  0.00000000000E+00  0.00000000000E+00  0.27299471264E+02  0.27299471264E+02  0.00000000000E+00 0.  1.
         21   -1    0    0  502  503 -0.00000000000E+00 -0.00000000000E+00 -0.58258841274E+02  0.58258841274E+02  0.00000000000E+00 0. -1.
          2    1    1    2  501    0 -0.10767620914E+02 -0.19543592328E+02  0.19976599764E+02  0.29949260415E+02  0.00000000000E+00 0.  1.
         -2    1    1    2    0  503  0.10767620914E+02  0.19543592328E+02 -0.50935969774E+02  0.55609052124E+02  0.00000000000E+00 0. -1.
<mgrwt>
<rscale>  2 0.22313531E+02</rscale>
<asrwt>0</asrwt>
<pdfrwt beam="1">  1       21 0.41999187E-02 0.22313531E+02</pdfrwt>
<pdfrwt beam="2">  1       21 0.89628985E-02 0.22313531E+02</pdfrwt>
<totfact> 0.26145306E+07</totfact>
</mgrwt>
</event>
<event>
 4    1  0.2736402E+004  0.2479826E+02  0.7546771E-02  0.1663917E+00
         21   -1    0    0  503  502  0.00000000000E+00  0.00000000000E+00  0.74185760140E+02  0.74185760140E+02  0.00000000000E+00 0.  1.
         21   -1    0    0  501  503 -0.00000000000E+00 -0.00000000000E+00 -0.40621889955E+02  0.40621889955E+02  0.00000000000E+00 0. -1.
          2    1    1    2  501    0 -0.22318599093E+02  0.10808978572E+02 -0.34431096632E+02  0.42431760493E+02  0.00000000000E+00 0. -1.
         -2    1    1    2    0  502  0.22318599093E+02 -0.10808978572E+02  0.67994966817E+02  0.72375889602E+02  0.00000000000E+00 0.  1.
<mgrwt>
<rscale>  2 0.24798264E+02</rscale>
<asrwt>0</asrwt>
<pdfrwt beam="1">  1       21 0.11413194E-01 0.24798264E+02</pdfrwt>
<pdfrwt beam="2">  1       21 0.62495215E-02 0.24798264E+02</pdfrwt>
<totfact> 0.95007942E+06</totfact>
</mgrwt>
</event>
<event>
 4    1  0.2736402E+004  0.5127755E+02  0.7546771E-02  0.1438570E+00
         21   -1    0    0  503  502  0.00000000000E+00  0.00000000000E+00  0.42228177509E+03  0.42228177509E+03  0.00000000000E+00 0. -1.
         21   -1    0    0  501  503 -0.00000000000E+00 -0.00000000000E+00 -0.66512330570E+01  0.66512330570E+01  0.00000000000E+00 0.  1.
          2    1    1    2  501    0  0.49611456531E+02 -0.12964991772E+02  0.15362695104E+03  0.16195872226E+03  0.00000000000E+00 0.  1.
         -2    1    1    2    0  502 -0.49611456531E+02  0.12964991772E+02  0.26200359100E+03  0.26697428589E+03  0.00000000000E+00 0. -1.
<mgrwt>
<rscale>  2 0.51277555E+02</rscale>
<asrwt>0</asrwt>
<pdfrwt beam="1">  1       21 0.64966406E-01 0.51277555E+02</pdfrwt>
<pdfrwt beam="2">  1       21 0.10232670E-02 0.51277555E+02</pdfrwt>
<totfact> 0.72819492E+06</totfact>
</mgrwt>
</event>
<event>
 4    1  0.2736402E+004  0.2064881E+02  0.7546771E-02  0.1732725E+00
         21   -1    0    0  503  502  0.00000000000E+00  0.00000000000E+00  0.24312538553E+01  0.24312538553E+01  0.00000000000E+00 0. -1.
         21   -1    0    0  501  503 -0.00000000000E+00 -0.00000000000E+00 -0.26862318306E+03  0.26862318306E+03  0.00000000000E+00 0.  1.
          2    1    1    2  501    0  0.60214182332E+01 -0.19751350316E+02 -0.21294735202E+03  0.21394613352E+03  0.00000000000E+00 0.  1.
         -2    1    1    2    0  502 -0.60214182332E+01  0.19751350316E+02 -0.53244577184E+02  0.57108303393E+02  0.00000000000E+00 0. -1.
<mgrwt>
<rscale>  2 0.20648809E+02</rscale>
<asrwt>0</asrwt>
<pdfrwt beam="1">  1       21 0.37403890E-03 0.20648809E+02</pdfrwt>
<pdfrwt beam="2">  1       21 0.41326661E-01 0.20648809E+02</pdfrwt>
<totfact> 0.69081066E+07</totfact>
</mgrwt>
</event>
<event>
 4    1  0.2736402E+004  0.2215263E+02  0.7546771E-02  0.1705626E+00
         21   -1    0    0  503  502  0.00000000000E+00  0.00000000000E+00  0.78053461909E+02  0.78053461909E+02  0.00000000000E+00 0. -1.
         21   -1    0    0  501  503 -0.00000000000E+00 -0.00000000000E+00 -0.62882699670E+01  0.62882699670E+01  0.00000000000E+00 0.  1.
          2    1    1    2  501    0 -0.91976827857E+01  0.20152952136E+02  0.35336218091E+02  0.41705960694E+02  0.00000000000E+00 0.  1.
         -2    1    1    2    0  502  0.91976827857E+01 -0.20152952136E+02  0.36428973850E+02  0.42635771181E+02  0.00000000000E+00 0. -1.
<mgrwt>
<rscale>  2 0.22152626E+02</rscale>
<asrwt>0</asrwt>
<pdfrwt beam="1">  1       21 0.12008224E-01 0.22152626E+02</pdfrwt>
<pdfrwt beam="2">  1       21 0.96742621E-03 0.22152626E+02</pdfrwt>
<totfact> 0.15297942E+08</totfact>
</mgrwt>
</event>
<event>
 4    1  0.2736402E+004  0.2024441E+02  0.7546771E-02  0.1740511E+00
         21   -1    0    0  503  502  0.00000000000E+00  0.00000000000E+00  0.67021710034E+02  0.67021710034E+02  0.00000000000E+00 0.  1.
         21   -1    0    0  501  503 -0.00000000000E+00 -0.00000000000E+00 -0.76463974981E+01  0.76463974981E+01  0.00000000000E+00 0. -1.
          2    1    1    2  501    0  0.16789238194E+02 -0.11311840218E+02  0.12979679166E+02  0.24048041906E+02  0.00000000000E+00 0. -1.
         -2    1    1    2    0  502 -0.16789238194E+02  0.11311840218E+02  0.46395633370E+02  0.50620065626E+02  0.00000000000E+00 0.  1.
<mgrwt>
<rscale>  2 0.20244413E+02</rscale>
<asrwt>0</asrwt>
<pdfrwt beam="1">  1       21 0.10311032E-01 0.20244413E+02</pdfrwt>
<pdfrwt beam="2">  1       21 0.11763689E-02 0.20244413E+02</pdfrwt>
<totfact> 0.14295744E+08</totfact>
</mgrwt>
</event>
<event>
 4    1  0.2736402E+004  0.2321737E+02  0.7546771E-02  0.1688011E+00
         21   -1    0    0  503  502  0.00000000000E+00  0.00000000000E+00  0.29729580781E+03  0.29729580781E+03  0.00000000000E+00 0.  1.
         21   -1    0    0  501  503 -0.00000000000E+00 -0.00000000000E+00 -0.46407526252E+01  0.46407526252E+01  0.00000000000E+00 0. -1.
          2    1    1    2  501    0 -0.13585255917E+02  0.18827829590E+02  0.28485681782E+02  0.36748883140E+02  0.00000000000E+00 0. -1.
         -2    1    1    2    0  502  0.13585255917E+02 -0.18827829590E+02  0.26416937340E+03  0.26518767730E+03  0.00000000000E+00 0.  1.
<mgrwt>
<rscale>  2 0.23217372E+02</rscale>
<asrwt>0</asrwt>
<pdfrwt beam="1">  1       21 0.45737801E-01 0.23217372E+02</pdfrwt>
<pdfrwt beam="2">  1       21 0.71396218E-03 0.23217372E+02</pdfrwt>
<totfact> 0.22584320E+07</totfact>
</mgrwt>
</event>
<event>
 4    1  0.2736402E+004  0.4360425E+02  0.7546771E-02  0.1483248E+00
         21   -1    0    0  503  502  0.00000000000E+00  0.00000000000E+00  0.28282333211E+02  0.28282333211E+02  0.00000000000E+00 0. -1.
         21   -1    0    0  501  503 -0.00000000000E+00 -0.00000000000E+00 -0.12294564463E+03  0.12294564463E+03  0.00000000000E+00 0.  1.
          2    1    1    2  501    0  0.37145606850E+01 -0.43445739323E+02 -0.98235044979E+02  0.10747769205E+03  0.00000000000E+00 0.  1.
         -2    1    1    2    0  502 -0.37145606850E+01  0.43445739323E+02  0.35717335561E+01  0.43750285794E+02  0.00000000000E+00 0. -1.
<mgrwt>
<rscale>  2 0.43604246E+02</rscale>
<asrwt>0</asrwt>
<pdfrwt beam="1">  1       21 0.43511282E-02 0.43604246E+02</pdfrwt>
<pdfrwt beam="2">  1       21 0.18914714E-01 0.43604246E+02</pdfrwt>
<totfact> 0.77619067E+06</totfact>
</mgrwt>
</event>
<event>
 4    1  0.2736402E+004  0.2158095E+02  0.7546771E-02  0.1715602E+00
         21   -1    0    0  501  502  0.00000000000E+00  0.00000000000E+00  0.70350471599E+02  0.70350471599E+02  0.00000000000E+00 0. -1.
         21   -1    0    0  502  503 -0.00000000000E+00 -0.00000000000E+00 -0.79503175482E+01  0.79503175482E+01  0.00000000000E+00 0.  1.
          2    1    1    2  501    0 -0.21039854296E+02  0.48022898694E+01  0.47213395505E+02  0.51911869277E+02  0.00000000000E+00 0. -1.
         -2    1    1    2    0  503  0.21039854296E+02 -0.48022898694E+01  0.15186758546E+02  0.26388919870E+02  0.00000000000E+00 0.  1.
<mgrwt>
<rscale>  2 0.21580951E+02</rscale>
<asrwt>0</asrwt>
<pdfrwt beam="1">  1       21 0.10823149E-01 0.21580951E+02</pdfrwt>
<pdfrwt beam="2">  1       21 0.12231258E-02 0.21580951E+02</pdfrwt>
<totfact> 0.12685317E+08</totfact>
</mgrwt>
</event>
<event>
 4    1  0.2736402E+004  0.4458234E+02  0.7546771E-02  0.1476966E+00
         21   -1    0    0  503  502  0.00000000000E+00  0.00000000000E+00  0.13863326709E+02  0.13863326709E+02  0.00000000000E+00 0.  1.
         21   -1    0    0  501  503 -0.00000000000E+00 -0.00000000000E+00 -0.16554868697E+03  0.16554868697E+03  0.00000000000E+00 0. -1.
          2    1    1    2  501    0  0.33109301536E+02 -0.29855633370E+02 -0.10867691451E+03  0.11746597992E+03  0.00000000000E+00 0. -1.
         -2    1    1    2    0  502 -0.33109301536E+02  0.29855633370E+02 -0.43008445756E+02  0.61946033759E+02  0.00000000000E+00 0.  1.
<mgrwt>
<rscale>  2 0.44582336E+02</rscale>
<asrwt>0</asrwt>
<pdfrwt beam="1">  1       21 0.21328195E-02 0.44582336E+02</pdfrwt>
<pdfrwt beam="2">  1       21 0.25469028E-01 0.44582336E+02</pdfrwt>
<totfact> 0.14174523E+07</totfact>
</mgrwt>
</event>
<event>
 4    1  0.2736402E+004  0.2136712E+02  0.7546771E-02  0.1719433E+00
         21   -1    0    0  503  502  0.00000000000E+00  0.00000000000E+00  0.32306694773E+01  0.32306694773E+01  0.00000000000E+00 0.  1.
         21   -1    0    0  501  503 -0.00000000000E+00 -0.00000000000E+00 -0.29956105036E+03  0.29956105036E+03  0.00000000000E+00 0. -1.
          2    1    1    2  501    0 -0.21292514882E+02  0.17840472138E+01 -0.25820065657E+03  0.25908325509E+03  0.00000000000E+00 0. -1.
         -2    1    1    2    0  502  0.21292514882E+02 -0.17840472138E+01 -0.38129724313E+02  0.43708464749E+02  0.00000000000E+00 0.  1.
<mgrwt>
<rscale>  2 0.21367125E+02</rscale>
<asrwt>0</asrwt>
<pdfrwt beam="1">  1       21 0.49702613E-03 0.21367125E+02</pdfrwt>
<pdfrwt beam="2">  1       21 0.46086310E-01 0.21367125E+02</pdfrwt>
<totfact> 0.37345893E+07</totfact>
</mgrwt>
</event>
<event>
 4    1  0.2736402E+004  0.2790411E+02  0.7546771E-02  0.1622483E+00
         21   -1    0    0  501  502  0.00000000000E+00  0.00000000000E+00  0.22853940450E+02  0.22853940450E+02  0.00000000000E+00 0. -1.
         21   -1    0    0  502  503 -0.00000000000E+00 -0.00000000000E+00 -0.34078972809E+02  0.34078972809E+02  0.00000000000E+00 0.  1.
          2    1    1    2  501    0 -0.91173806733E+01 -0.26372578741E+02 -0.60678568769E+01  0.28556232715E+02  0.00000000000E+00 0.  1.
         -2    1    1    2    0  503  0.91173806733E+01  0.26372578741E+02 -0.51571754821E+01  0.28376680545E+02  0.00000000000E+00 0. -1.
<mgrwt>
<rscale>  2 0.27904113E+02</rscale>
<asrwt>0</asrwt>
<pdfrwt beam="1">  1       21 0.35159909E-02 0.27904113E+02</pdfrwt>
<pdfrwt beam="2">  1       21 0.52429189E-02 0.27904113E+02</pdfrwt>
<totfact> 0.87294852E+07</totfact>
</mgrwt>
</event>
<event>
 4    1  0.2736402E+004  0.2384096E+02  0.7546771E-02  0.1678230E+00
         21   -1    0    0  501  502  0.00000000000E+00  0.00000000000E+00  0.39449958118E+01  0.39449958118E+01  0.00000000000E+00 0. -1.
         21   -1    0    0  502  503 -0.00000000000E+00 -0.00000000000E+00 -0.15024398312E+03  0.15024398312E+03  0.00000000000E+00 0.  1.
          2    1    1    2  501    0  0.11551319990E+02  0.20855652507E+02 -0.57532799657E+02  0.62276916039E+02  0.00000000000E+00 0. -1.
         -2    1    1    2    0  503 -0.11551319990E+02 -0.20855652507E+02 -0.88766187648E+02  0.91912062889E+02  0.00000000000E+00 0.  1.
<mgrwt>
<rscale>  2 0.23840957E+02</rscale>
<asrwt>0</asrwt>
<pdfrwt beam="1">  1       21 0.60692247E-03 0.23840957E+02</pdfrwt>
<pdfrwt beam="2">  1       21 0.23114458E-01 0.23840957E+02</pdfrwt>
<totfact> 0.10160404E+08</totfact>
</mgrwt>
</event>
<event>
 4    1  0.2736402E+004  0.3556110E+02  0.7546771E-02  0.1543674E+00
         21   -1    0    0  501  502  0.00000000000E+00  0.00000000000E+00  0.15878790006E+01  0.15878790006E+01  0.00000000000E+00 0.  1.
         21   -1    0    0  502  503 -0.00000000000E+00 -0.00000000000E+00 -0.18068652936E+04  0.18068652936E+04  0.00000000000E+00 0. -1.
          2    1    1    2  501    0 -0.24950896980E+02 -0.25338596306E+02 -0.22643986411E+03  0.22921519099E+03  0.00000000000E+00 0.  1.
         -2    1    1    2    0  503  0.24950896980E+02  0.25338596306E+02 -0.15788375505E+04  0.15792379817E+04  0.00000000000E+00 0. -1.
<mgrwt>
<rscale>  2 0.35561098E+02</rscale>
<asrwt>0</asrwt>
<pdfrwt beam="1">  1       21 0.24428798E-03 0.35561098E+02</pdfrwt>
<pdfrwt beam="2">  1       21 0.27798053E+00 0.35561098E+02</pdfrwt>
<totfact> 0.17061669E+06</totfact>
</mgrwt>
</event>
<event>
 4    1  0.2736402E+004  0.2183638E+02  0.7546771E-02  0.1711097E+00
         21   -1    0    0  503  502  0.00000000000E+00  0.00000000000E+00  0.15164048964E+01  0.15164048964E+01  0.00000000000E+00 0. -1.
         21   -1    0    0  501  503 -0.00000000000E+00 -0.00000000000E+00 -0.31612073712E+03  0.31612073712E+03  0.00000000000E+00 0.  1.
          2    1    1    2  501    0 -0.21053875431E+02 -0.57932396949E+01 -0.16886226523E+03  0.17026829392E+03  0.00000000000E+00 0.  1.
         -2    1    1    2    0  502  0.21053875431E+02  0.57932396949E+01 -0.14574206699E+03  0.14736884809E+03  0.00000000000E+00 0. -1.
<mgrwt>
<rscale>  2 0.21836376E+02</rscale>
<asrwt>0</asrwt>
<pdfrwt beam="1">  1       21 0.23329321E-03 0.21836376E+02</pdfrwt>
<pdfrwt beam="2">  1       21 0.48633928E-01 0.21836376E+02</pdfrwt>
<totfact> 0.10202538E+08</totfact>
</mgrwt>
</event>
<event>
 4    1  0.2736402E+004  0.2351849E+02  0.7546771E-02  0.1683241E+00
         21   -1    0    0  501  502  0.00000000000E+00  0.00000000000E+00  0.66051100229E+03  0.66051100229E+03  0.00000000000E+00 0. -1.
         21   -1    0    0  502  503 -0.00000000000E+00 -0.00000000000E+00 -0.92842332833E+00  0.92842332833E+00  0.00000000000E+00 0.  1.
          2    1    1    2  501    0 -0.23482053407E+02 -0.13086435637E+01  0.43333803307E+03  0.43397577154E+03  0.00000000000E+00 0. -1.
         -2    1    1    2    0  503  0.23482053407E+02  0.13086435637E+01  0.22624454589E+03  0.22746365408E+03  0.00000000000E+00 0.  1.
<mgrwt>
<rscale>  2 0.23518490E+02</rscale>
<asrwt>0</asrwt>
<pdfrwt beam="1">  1       21 0.10161670E+00 0.23518490E+02</pdfrwt>
<pdfrwt beam="2">  1       21 0.14283489E-03 0.23518490E+02</pdfrwt>
<totfact> 0.46335695E+07</totfact>
</mgrwt>
</event>
<event>
 4    1  0.2736402E+004  0.2175642E+02  0.7546771E-02  0.1712499E+00
         21   -1    0    0  503  502  0.00000000000E+00  0.00000000000E+00  0.39834807615E+02  0.39834807615E+02  0.00000000000E+00 0. -1.
         21   -1    0    0  501  503 -0.00000000000E+00 -0.00000000000E+00 -0.15485135687E+02  0.15485135687E+02  0.00000000000E+00 0.  1.
          2    1    1    2  501    0 -0.16644892586E+02 -0.14010327246E+02 -0.11664412991E+01  0.21787664034E+02  0.00000000000E+00 0.  1.
         -2    1    1    2    0  502  0.16644892586E+02  0.14010327246E+02  0.25516113227E+02  0.33532279269E+02  0.00000000000E+00 0. -1.
<mgrwt>
<rscale>  2 0.21756418E+02</rscale>
<asrwt>0</asrwt>
<pdfrwt beam="1">  1       21 0.61284319E-02 0.21756418E+02</pdfrwt>
<pdfrwt beam="2">  1       21 0.23823286E-02 0.21756418E+02</pdfrwt>
<totfact> 0.11639933E+08</totfact>
</mgrwt>
</event>
<event>
 4    1  0.2736402E+004  0.2027614E+02  0.7546771E-02  0.1739892E+00
         21   -1    0    0  501  502  0.00000000000E+00  0.00000000000E+00  0.64024407090E+01  0.64024407090E+01  0.00000000000E+00 0.  1.
         21   -1    0    0  502  503 -0.00000000000E+00 -0.00000000000E+00 -0.83339902856E+02  0.83339902856E+02  0.00000000000E+00 0. -1.
          2    1    1    2  501    0 -0.20813245270E+01 -0.20169031315E+02 -0.16972613377E+02  0.26442226472E+02  0.00000000000E+00 0.  1.
         -2    1    1    2    0  503  0.20813245270E+01  0.20169031315E+02 -0.59964848770E+02  0.63300117093E+02  0.00000000000E+00 0. -1.
<mgrwt>
<rscale>  2 0.20276137E+02</rscale>
<asrwt>0</asrwt>
<pdfrwt beam="1">  1       21 0.98499095E-03 0.20276137E+02</pdfrwt>
<pdfrwt beam="2">  1       21 0.12821523E-01 0.20276137E+02</pdfrwt>
<totfact> 0.12995327E+08</totfact>
</mgrwt>
</event>
<event>
 4    1  0.2736402E+004  0.2556040E+02  0.7546771E-02  0.1653081E+00
         21   -1    0    0  503  502  0.00000000000E+00  0.00000000000E+00  0.10036993595E+03  0.10036993595E+03  0.00000000000E+00 0. -1.
         21   -1    0    0  501  503 -0.00000000000E+00 -0.00000000000E+00 -0.13756555395E+02  0.13756555395E+02  0.00000000000E+00 0.  1.
          2    1    1    2  501    0 -0.21789367595E+02  0.13362538355E+02  0.18886436880E+01  0.25630078940E+02  0.00000000000E+00 0.  1.
         -2    1    1    2    0  502  0.21789367595E+02 -0.13362538355E+02  0.84724736866E+02  0.88496412404E+02  0.00000000000E+00 0. -1.
<mgrwt>
<rscale>  2 0.25560399E+02</rscale>
<asrwt>0</asrwt>
<pdfrwt beam="1">  1       21 0.15441528E-01 0.25560399E+02</pdfrwt>
<pdfrwt beam="2">  1       21 0.21163932E-02 0.25560399E+02</pdfrwt>
<totfact> 0.31568071E+07</totfact>
</mgrwt>
</event>
<event>
 4    1  0.2736402E+004  0.2042240E+02  0.7546771E-02  0.1737056E+00
         21   -1    0    0  501  502  0.00000000000E+00  0.00000000000E+00  0.86609825959E+02  0.86609825959E+02  0.00000000000E+00 0.  1.
         21   -1    0    0  502  503 -0.00000000000E+00 -0.00000000000E+00 -0.71614443585E+01  0.71614443585E+01  0.00000000000E+00 0. -1.
          2    1    1    2  501    0  0.11268359272E+02 -0.17032280396E+02  0.66558667572E+02  0.69621338146E+02  0.00000000000E+00 0.  1.
         -2    1    1    2    0  503 -0.11268359272E+02  0.17032280396E+02  0.12889714028E+02  0.24149932171E+02  0.00000000000E+00 0. -1.
<mgrwt>
<rscale>  2 0.20422402E+02</rscale>
<asrwt>0</asrwt>
<pdfrwt beam="1">  1       21 0.13324588E-01 0.20422402E+02</pdfrwt>
<pdfrwt beam="2">  1       21 0.11017607E-02 0.20422402E+02</pdfrwt>
<totfact> 0.10324223E+08</totfact>
</mgrwt>
</event>
<event>
 4    1  0.2736402E+004  0.5601504E+02  0.7546771E-02  0.1415359E+00
         21   -1    0    0  503  502  0.00000000000E+00  0.00000000000E+00  0.10578324166E+02  0.10578324166E+02  0.00000000000E+00 0.  1.
         21   -1    0    0  501  503 -0.00000000000E+00 -0.00000000000E+00 -0.10799091761E+04  0.10799091761E+04  0.00000000000E+00 0. -1.
          2    1    1    2  501    0  0.97917410860E+01  0.55152578022E+02 -0.99903060787E+03  0.10005997404E+04  0.00000000000E+00 0. -1.
         -2    1    1    2    0  502 -0.97917410860E+01 -0.55152578022E+02 -0.70300244070E+02  0.89887759858E+02  0.00000000000E+00 0.  1.
<mgrwt>
<rscale>  2 0.56015043E+02</rscale>
<asrwt>0</asrwt>
<pdfrwt beam="1">  1       21 0.16274356E-02 0.56015043E+02</pdfrwt>
<pdfrwt beam="2">  1       21 0.16613976E+00 0.56015043E+02</pdfrwt>
<totfact> 0.41054579E+05</totfact>
</mgrwt>
</event>
<event>
 4    1  0.2736402E+004  0.2076674E+02  0.7546771E-02  0.1730497E+00
         21   -1    0    0  501  502  0.00000000000E+00  0.00000000000E+00  0.33288221946E+02  0.33288221946E+02  0.00000000000E+00 0. -1.
         21   -1    0    0  502  503 -0.00000000000E+00 -0.00000000000E+00 -0.16984514784E+02  0.16984514784E+02  0.00000000000E+00 0.  1.
          2    1    1    2  501    0 -0.20583922813E+02  0.27494580852E+01  0.20394874843E+02  0.29106843147E+02  0.00000000000E+00 0. -1.
         -2    1    1    2    0  503  0.20583922813E+02 -0.27494580852E+01 -0.40911676817E+01  0.21165893582E+02  0.00000000000E+00 0.  1.
<mgrwt>
<rscale>  2 0.20766738E+02</rscale>
<asrwt>0</asrwt>
<pdfrwt beam="1">  1       21 0.51212649E-02 0.20766738E+02</pdfrwt>
<pdfrwt beam="2">  1       21 0.26130023E-02 0.20766738E+02</pdfrwt>
<totfact> 0.13255320E+08</totfact>
</mgrwt>
</event>
<event>
 4    1  0.2736402E+004  0.2944183E+02  0.7546771E-02  0.1604342E+00
         21   -1    0    0  501  502  0.00000000000E+00  0.00000000000E+00  0.57896217807E+01  0.57896217807E+01  0.00000000000E+00 0.  1.
         21   -1    0    0  502  503 -0.00000000000E+00 -0.00000000000E+00 -0.15744803704E+03  0.15744803704E+03  0.00000000000E+00 0. -1.
          2    1    1    2  501    0  0.19579155644E+02 -0.21988129363E+02 -0.93911821490E+02  0.98418755246E+02  0.00000000000E+00 0. -1.
         -2    1    1    2    0  503 -0.19579155644E+02  0.21988129363E+02 -0.57746593765E+02  0.64818903570E+02  0.00000000000E+00 0.  1.
<mgrwt>
<rscale>  2 0.29441827E+02</rscale>
<asrwt>0</asrwt>
<pdfrwt beam="1">  1       21 0.89071092E-03 0.29441827E+02</pdfrwt>
<pdfrwt beam="2">  1       21 0.24222778E-01 0.29441827E+02</pdfrwt>
<totfact> 0.55403161E+07</totfact>
</mgrwt>
</event>
<event>
 4    1  0.2736402E+004  0.2469896E+02  0.7546771E-02  0.1665364E+00
         21   -1    0    0  501  502  0.00000000000E+00  0.00000000000E+00  0.11676905870E+01  0.11676905870E+01  0.00000000000E+00 0. -1.
         21   -1    0    0  502  503 -0.00000000000E+00 -0.00000000000E+00 -0.80360587057E+03  0.80360587057E+03  0.00000000000E+00 0.  1.
          2    1    1    2  501    0  0.24240999912E+02 -0.47341960505E+01 -0.16320109500E+03  0.16505949260E+03  0.00000000000E+00 0. -1.
         -2    1    1    2    0  503 -0.24240999912E+02  0.47341960505E+01 -0.63923708499E+03  0.63971406856E+03  0.00000000000E+00 0.  1.
<mgrwt>
<rscale>  2 0.24698961E+02</rscale>
<asrwt>0</asrwt>
<pdfrwt beam="1">  1       21 0.17964481E-03 0.24698961E+02</pdfrwt>
<pdfrwt beam="2">  1       21 0.12363160E+00 0.24698961E+02</pdfrwt>
<totfact> 0.21669545E+07</totfact>
</mgrwt>
</event>
<event>
 4    1  0.2736402E+004  0.2393679E+02  0.7546771E-02  0.1676760E+00
         21   -1    0    0  503  502  0.00000000000E+00  0.00000000000E+00  0.14796653956E+02  0.14796653956E+02  0.00000000000E+00 0.  1.
         21   -1    0    0  501  503 -0.00000000000E+00 -0.00000000000E+00 -0.38727817667E+02  0.38727817667E+02  0.00000000000E+00 0. -1.
          2    1    1    2  501    0 -0.35165913731E+01 -0.23677065102E+02 -0.11664996737E+02  0.26627842113E+02  0.00000000000E+00 0.  1.
         -2    1    1    2    0  502  0.35165913731E+01  0.23677065102E+02 -0.12266166974E+02  0.26896629510E+02  0.00000000000E+00 0. -1.
<mgrwt>
<rscale>  2 0.23936788E+02</rscale>
<asrwt>0</asrwt>
<pdfrwt beam="1">  1       21 0.22764083E-02 0.23936788E+02</pdfrwt>
<pdfrwt beam="2">  1       21 0.59581258E-02 0.23936788E+02</pdfrwt>
<totfact> 0.13439757E+08</totfact>
</mgrwt>
</event>
<event>
 4    1  0.2736402E+004  0.2295683E+02  0.7546771E-02  0.1692211E+00
         21   -1    0    0  501  502  0.00000000000E+00  0.00000000000E+00  0.83257706209E+02  0.83257706209E+02  0.00000000000E+00 0. -1.
         21   -1    0    0  502  503 -0.00000000000E+00 -0.00000000000E+00 -0.29410875471E+02  0.29410875471E+02  0.00000000000E+00 0.  1.
          2    1    1    2  501    0  0.22581209874E+02 -0.41358346240E+01  0.76828589137E+02  0.80185087617E+02  0.00000000000E+00 0. -1.
         -2    1    1    2    0  503 -0.22581209874E+02  0.41358346240E+01 -0.22981758400E+02  0.32483494063E+02  0.00000000000E+00 0.  1.
<mgrwt>
<rscale>  2 0.22956833E+02</rscale>
<asrwt>0</asrwt>
<pdfrwt beam="1">  1       21 0.12808878E-01 0.22956833E+02</pdfrwt>
<pdfrwt beam="2">  1       21 0.45247501E-02 0.22956833E+02</pdfrwt>
<totfact> 0.12925316E+07</totfact>
</mgrwt>
</event>
<event>
 4    1  0.2736402E+004  0.2562322E+02  0.7546771E-02  0.1652208E+00
         21   -1    0    0  503  502  0.00000000000E+00  0.00000000000E+00  0.70941949110E+03  0.70941949110E+03  0.00000000000E+00 0. -1.
         21   -1    0    0  501  503 -0.00000000000E+00 -0.00000000000E+00 -0.32723757370E+01  0.32723757370E+01  0.00000000000E+00 0.  1.
          2    1    1    2  501    0 -0.22178388917E+02 -0.12832324816E+02  0.51295504816E+02  0.57339151628E+02  0.00000000000E+00 0.  1.
         -2    1    1    2    0  502  0.22178388917E+02  0.12832324816E+02  0.65485161054E+03  0.65535271521E+03  0.00000000000E+00 0. -1.
<mgrwt>
<rscale>  2 0.25623222E+02</rscale>
<asrwt>0</asrwt>
<pdfrwt beam="1">  1       21 0.10914134E+00 0.25623222E+02</pdfrwt>
<pdfrwt beam="2">  1       21 0.50344298E-03 0.25623222E+02</pdfrwt>
<totfact> 0.64044297E+06</totfact>
</mgrwt>
</event>
<event>
 4    1  0.2736402E+004  0.2112992E+02  0.7546771E-02  0.1723749E+00
         21   -1    0    0  503  502  0.00000000000E+00  0.00000000000E+00  0.31586210210E+02  0.31586210210E+02  0.00000000000E+00 0. -1.
         21   -1    0    0  501  503 -0.00000000000E+00 -0.00000000000E+00 -0.54679320388E+02  0.54679320388E+02  0.00000000000E+00 0.  1.
          2    1    1    2  501    0 -0.98810734488E+00  0.21106808135E+02 -0.48688130051E+02  0.53075490706E+02  0.00000000000E+00 0.  1.
         -2    1    1    2    0  502  0.98810734488E+00 -0.21106808135E+02  0.25595019872E+02  0.33190039892E+02  0.00000000000E+00 0. -1.
<mgrwt>
<rscale>  2 0.21129924E+02</rscale>
<asrwt>0</asrwt>
<pdfrwt beam="1">  1       21 0.48594170E-02 0.21129924E+02</pdfrwt>
<pdfrwt beam="2">  1       21 0.84122030E-02 0.21129924E+02</pdfrwt>
<totfact> 0.22738075E+07</totfact>
</mgrwt>
</event>
<event>
 4    1  0.2736402E+004  0.2607454E+02  0.7546771E-02  0.1646031E+00
         21   -1    0    0  503  502  0.00000000000E+00  0.00000000000E+00  0.14276667383E+02  0.14276667383E+02  0.00000000000E+00 0. -1.
         21   -1    0    0  501  503 -0.00000000000E+00 -0.00000000000E+00 -0.49483473564E+02  0.49483473564E+02  0.00000000000E+00 0.  1.
          2    1    1    2  501    0  0.67831973515E+01 -0.25176774315E+02 -0.23786865111E+02  0.35294428498E+02  0.00000000000E+00 0.  1.
         -2    1    1    2    0  502 -0.67831973515E+01  0.25176774315E+02 -0.11419941070E+02  0.28465712449E+02  0.00000000000E+00 0. -1.
<mgrwt>
<rscale>  2 0.26074542E+02</rscale>
<asrwt>0</asrwt>
<pdfrwt beam="1">  1       21 0.21964103E-02 0.26074542E+02</pdfrwt>
<pdfrwt beam="2">  1       21 0.76128421E-02 0.26074542E+02</pdfrwt>
<totfact> 0.97722754E+07</totfact>
</mgrwt>
</event>
<event>
 4    1  0.2736402E+004  0.2431388E+02  0.7546771E-02  0.1671057E+00
         21   -1    0    0  503  502  0.00000000000E+00  0.00000000000E+00  0.41766347037E+02  0.41766347037E+02  0.00000000000E+00 0.  1.
         21   -1    0    0  501  503 -0.00000000000E+00 -0.00000000000E+00 -0.21087190346E+02  0.21087190346E+02  0.00000000000E+00 0. -1.
          2    1    1    2  501    0 -0.69876228187E+01  0.23288145681E+02 -0.76803947271E+01  0.25498099245E+02  0.00000000000E+00 0. -1.
         -2    1    1    2    0  502  0.69876228187E+01 -0.23288145681E+02  0.28359551418E+02  0.37355438139E+02  0.00000000000E+00 0.  1.
<mgrwt>
<rscale>  2 0.24313877E+02</rscale>
<asrwt>0</asrwt>
<pdfrwt beam="1">  1       21 0.64255918E-02 0.24313877E+02</pdfrwt>
<pdfrwt beam="2">  1       21 0.32441831E-02 0.24313877E+02</pdfrwt>
<totfact> 0.68914700E+07</totfact>
</mgrwt>
</event>
<event>
 4    1  0.2736402E+004  0.2901386E+02  0.7546771E-02  0.1609252E+00
         21   -1    0    0  501  502  0.00000000000E+00  0.00000000000E+00  0.23353744231E+01  0.23353744231E+01  0.00000000000E+00 0. -1.
         21   -1    0    0  502  503 -0.00000000000E+00 -0.00000000000E+00 -0.39917855636E+03  0.39917855636E+03  0.00000000000E+00 0.  1.
          2    1    1    2  501    0 -0.28944668857E+02  0.20024977751E+01 -0.13589581145E+03  0.13895853850E+03  0.00000000000E+00 0. -1.
         -2    1    1    2    0  503  0.28944668857E+02 -0.20024977751E+01 -0.26094737048E+03  0.26255539228E+03  0.00000000000E+00 0.  1.
<mgrwt>
<rscale>  2 0.29013856E+02</rscale>
<asrwt>0</asrwt>
<pdfrwt beam="1">  1       21 0.35928848E-03 0.29013856E+02</pdfrwt>
<pdfrwt beam="2">  1       21 0.61412067E-01 0.29013856E+02</pdfrwt>
<totfact> 0.36530773E+07</totfact>
</mgrwt>
</event>
<event>
 4    1  0.2736402E+004  0.2466332E+02  0.7546771E-02  0.1665885E+00
         21   -1    0    0  503  502  0.00000000000E+00  0.00000000000E+00  0.16461532371E+03  0.16461532371E+03  0.00000000000E+00 0.  1.
         21   -1    0    0  501  503 -0.00000000000E+00 -0.00000000000E+00 -0.42418758747E+01  0.42418758747E+01  0.00000000000E+00 0. -1.
          2    1    1    2  501    0 -0.15188988020E+02 -0.19431267447E+02  0.49876263618E+02  0.55641002724E+02  0.00000000000E+00 0. -1.
         -2    1    1    2    0  502  0.15188988020E+02  0.19431267447E+02  0.11049718422E+03  0.11321619686E+03  0.00000000000E+00 0.  1.
<mgrwt>
<rscale>  2 0.24663323E+02</rscale>
<asrwt>0</asrwt>
<pdfrwt beam="1">  1       21 0.25325430E-01 0.24663323E+02</pdfrwt>
<pdfrwt beam="2">  1       21 0.65259641E-03 0.24663323E+02</pdfrwt>
<totfact> 0.78212762E+07</totfact>
</mgrwt>
</event>
<event>
 4    1  0.2736402E+004  0.2762184E+02  0.7546771E-02  0.1625969E+00
         21   -1    0    0  503  502  0.00000000000E+00  0.00000000000E+00  0.30135029414E+02  0.30135029414E+02  0.00000000000E+00 0.  1.
         21   -1    0    0  501  503 -0.00000000000E+00 -0.00000000000E+00 -0.64092210025E+02  0.64092210025E+02  0.00000000000E+00 0. -1.
          2    1    1    2  501    0 -0.18715695904E+02  0.20314748577E+02 -0.53623521777E+02  0.60319552143E+02  0.00000000000E+00 0. -1.
         -2    1    1    2    0  502  0.18715695904E+02 -0.20314748577E+02  0.19666341165E+02  0.33907687296E+02  0.00000000000E+00 0.  1.
<mgrwt>
<rscale>  2 0.27621844E+02</rscale>
<asrwt>0</asrwt>
<pdfrwt beam="1">  1       21 0.46361584E-02 0.27621844E+02</pdfrwt>
<pdfrwt beam="2">  1       21 0.98603399E-02 0.27621844E+02</pdfrwt>
<totfact> 0.19990471E+07</totfact>
</mgrwt>
</event>
<event>
 4    1  0.2736402E+004  0.3378846E+02  0.7546771E-02  0.1559630E+00
         21   -1    0    0  501  502  0.00000000000E+00  0.00000000000E+00  0.69668232237E+02  0.69668232237E+02  0.00000000000E+00 0. -1.
         21   -1    0    0  502  503 -0.00000000000E+00 -0.00000000000E+00 -0.20444936679E+02  0.20444936679E+02  0.00000000000E+00 0.  1.
          2    1    1    2  501    0  0.33668441002E+02  0.28453587999E+01  0.44684676023E+02  0.56021248268E+02  0.00000000000E+00 0. -1.
         -2    1    1    2    0  503 -0.33668441002E+02 -0.28453587999E+01  0.45386195350E+01  0.34091920648E+02  0.00000000000E+00 0.  1.
<mgrwt>
<rscale>  2 0.33788459E+02</rscale>
<asrwt>0</asrwt>
<pdfrwt beam="1">  1       21 0.10718189E-01 0.33788459E+02</pdfrwt>
<pdfrwt beam="2">  1       21 0.31453749E-02 0.33788459E+02</pdfrwt>
<totfact> 0.33502629E+07</totfact>
</mgrwt>
</event>
<event>
 4    1  0.2736402E+004  0.2055203E+02  0.7546771E-02  0.1734568E+00
         21   -1    0    0  503  502  0.00000000000E+00  0.00000000000E+00  0.41243763240E+02  0.41243763240E+02  0.00000000000E+00 0. -1.
         21   -1    0    0  501  503 -0.00000000000E+00 -0.00000000000E+00 -0.12899585046E+02  0.12899585046E+02  0.00000000000E+00 0.  1.
          2    1    1    2  501    0  0.20179422221E+02 -0.38957607307E+01  0.18825559615E+01  0.20638072821E+02  0.00000000000E+00 0.  1.
         -2    1    1    2    0  502 -0.20179422221E+02  0.38957607307E+01  0.26461622232E+02  0.33505275465E+02  0.00000000000E+00 0. -1.
<mgrwt>
<rscale>  2 0.20552032E+02</rscale>
<asrwt>0</asrwt>
<pdfrwt beam="1">  1       21 0.63451943E-02 0.20552032E+02</pdfrwt>
<pdfrwt beam="2">  1       21 0.19845516E-02 0.20552032E+02</pdfrwt>
<totfact> 0.14320368E+08</totfact>
</mgrwt>
</event>
<event>
 4    1  0.2736402E+004  0.3021881E+02  0.7546771E-02  0.1595683E+00
         21   -1    0    0  503  502  0.00000000000E+00  0.00000000000E+00  0.10389342118E+02  0.10389342118E+02  0.00000000000E+00 0.  1.
         21   -1    0    0  501  503 -0.00000000000E+00 -0.00000000000E+00 -0.87897288272E+02  0.87897288272E+02  0.00000000000E+00 0. -1.
          2    1    1    2  501    0 -0.48122427350E+01  0.29833177959E+02 -0.38977021207E+02  0.49319208929E+02  0.00000000000E+00 0. -1.
         -2    1    1    2    0  502  0.48122427350E+01 -0.29833177959E+02 -0.38530924947E+02  0.48967421461E+02  0.00000000000E+00 0.  1.
<mgrwt>
<rscale>  2 0.30218805E+02</rscale>
<asrwt>0</asrwt>
<pdfrwt beam="1">  1       21 0.15983603E-02 0.30218805E+02</pdfrwt>
<pdfrwt beam="2">  1       21 0.13522660E-01 0.30218805E+02</pdfrwt>
<totfact> 0.63386102E+07</totfact>
</mgrwt>
</event>
<event>
 4    1  0.2736402E+004  0.2271838E+02  0.7546771E-02  0.1696116E+00
         21   -1    0    0  503  502  0.00000000000E+00  0.00000000000E+00  0.65502843731E+02  0.65502843731E+02  0.00000000000E+00 0.  1.
         21   -1    0    0  501  503 -0.00000000000E+00 -0.00000000000E+00 -0.11419628911E+03  0.11419628911E+03  0.00000000000E+00 0. -1.
          2    1    1    2  501    0  0.16294256354E+02  0.15831045593E+02 -0.11104112715E+03  0.11334132835E+03  0.00000000000E+00 0. -1.
         -2    1    1    2    0  502 -0.16294256354E+02 -0.15831045593E+02  0.62347681768E+02  0.66357804489E+02  0.00000000000E+00 0.  1.
<mgrwt>
<rscale>  2 0.22718380E+02</rscale>
<asrwt>0</asrwt>
<pdfrwt beam="1">  1       21 0.10077361E-01 0.22718380E+02</pdfrwt>
<pdfrwt beam="2">  1       21 0.17568660E-01 0.22718380E+02</pdfrwt>
<totfact> 0.20642040E+06</totfact>
</mgrwt>
</event>
<event>
 4    1  0.2736402E+004  0.2809111E+02  0.7546771E-02  0.1620201E+00
         21   -1    0    0  503  502  0.00000000000E+00  0.00000000000E+00  0.79602775356E+02  0.79602775356E+02  0.00000000000E+00 0.  1.
         21   -1    0    0  501  503 -0.00000000000E+00 -0.00000000000E+00 -0.12836782310E+02  0.12836782310E+02  0.00000000000E+00 0. -1.
          2    1    1    2  501    0  0.79805009401E+01 -0.26933659450E+02  0.11325067267E+02  0.30288076123E+02  0.00000000000E+00 0. -1.
         -2    1    1    2    0  502 -0.79805009401E+01  0.26933659450E+02  0.55440925780E+02  0.62151481543E+02  0.00000000000E+00 0.  1.
<mgrwt>
<rscale>  2 0.28091109E+02</rscale>
<asrwt>0</asrwt>
<pdfrwt beam="1">  1       21 0.12246580E-01 0.28091109E+02</pdfrwt>
<pdfrwt beam="2">  1       21 0.19748896E-02 0.28091109E+02</pdfrwt>
<totfact> 0.53243818E+07</totfact>
</mgrwt>
</event>
<event>
 4    1  0.2736402E+004  0.2853177E+02  0.7546771E-02  0.1614909E+00
         21   -1    0    0  503  502  0.00000000000E+00  0.00000000000E+00  0.10550279158E+02  0.10550279158E+02  0.00000000000E+00 0.  1.
         21   -1    0    0  501  503 -0.00000000000E+00 -0.00000000000E+00 -0.86321754000E+02  0.86321754000E+02  0.00000000000E+00 0. -1.
          2    1    1    2  501    0  0.26135953617E+02  0.11444388025E+02 -0.53665188017E+02  0.60778404829E+02  0.00000000000E+00 0.  1.
         -2    1    1    2    0  502 -0.26135953617E+02 -0.11444388025E+02 -0.22106286825E+02  0.36093628329E+02  0.00000000000E+00 0. -1.
<mgrwt>
<rscale>  2 0.28531773E+02</rscale>
<asrwt>0</asrwt>
<pdfrwt beam="1">  1       21 0.16231199E-02 0.28531773E+02</pdfrwt>
<pdfrwt beam="2">  1       21 0.13280270E-01 0.28531773E+02</pdfrwt>
<totfact> 0.63005371E+07</totfact>
</mgrwt>
</event>
<event>
 4    1  0.2736402E+004  0.3745717E+02  0.7546771E-02  0.1527804E+00
         21   -1    0    0  503  502  0.00000000000E+00  0.00000000000E+00  0.57748689405E+03  0.57748689405E+03  0.00000000000E+00 0. -1.
         21   -1    0    0  501  503 -0.00000000000E+00 -0.00000000000E+00 -0.25961339384E+01  0.25961339384E+01  0.00000000000E+00 0.  1.
          2    1    1    2  501    0 -0.12072477944E+01 -0.37437710403E+02  0.21397726396E+03  0.21723100400E+03  0.00000000000E+00 0. -1.
         -2    1    1    2    0  502  0.12072477944E+01  0.37437710403E+02  0.36091349615E+03  0.36285202399E+03  0.00000000000E+00 0.  1.
<mgrwt>
<rscale>  2 0.37457170E+02</rscale>
<asrwt>0</asrwt>
<pdfrwt beam="1">  1       21 0.88844035E-01 0.37457170E+02</pdfrwt>
<pdfrwt beam="2">  1       21 0.39940568E-03 0.37457170E+02</pdfrwt>
<totfact> 0.14973699E+07</totfact>
</mgrwt>
</event>
<event>
 4    1  0.2736402E+004  0.2115659E+02  0.7546771E-02  0.1723260E+00
         21   -1    0    0  503  502  0.00000000000E+00  0.00000000000E+00  0.41594530713E+01  0.41594530713E+01  0.00000000000E+00 0. -1.
         21   -1    0    0  501  503 -0.00000000000E+00 -0.00000000000E+00 -0.50026542795E+03  0.50026542795E+03  0.00000000000E+00 0.  1.
          2    1    1    2  501    0  0.19574732880E+02 -0.80268958696E+01 -0.47149854884E+03  0.47197296827E+03  0.00000000000E+00 0.  1.
         -2    1    1    2    0  502 -0.19574732880E+02  0.80268958696E+01 -0.24607426040E+02  0.32451912747E+02  0.00000000000E+00 0. -1.
<mgrwt>
<rscale>  2 0.21156588E+02</rscale>
<asrwt>0</asrwt>
<pdfrwt beam="1">  1       21 0.63991538E-03 0.21156588E+02</pdfrwt>
<pdfrwt beam="2">  1       21 0.76963970E-01 0.21156588E+02</pdfrwt>
<totfact> 0.92451957E+06</totfact>
</mgrwt>
</event>
<event>
 4    1  0.2736402E+004  0.2042529E+02  0.7546771E-02  0.1737000E+00
         21   -1    0    0  501  502  0.00000000000E+00  0.00000000000E+00  0.32673243743E+01  0.32673243743E+01  0.00000000000E+00 0.  1.
         21   -1    0    0  502  503 -0.00000000000E+00 -0.00000000000E+00 -0.13168029864E+03  0.13168029864E+03  0.00000000000E+00 0. -1.
          2    1    1    2  501    0 -0.99867334428E+01 -0.17817344239E+02 -0.75957576457E+02  0.78655870867E+02  0.00000000000E+00 0. -1.
         -2    1    1    2    0  503  0.99867334428E+01  0.17817344239E+02 -0.52455397809E+02  0.56291752148E+02  0.00000000000E+00 0.  1.
<mgrwt>
<rscale>  2 0.20425293E+02</rscale>
<asrwt>0</asrwt>
<pdfrwt beam="1">  1       21 0.50266535E-03 0.20425293E+02</pdfrwt>
<pdfrwt beam="2">  1       21 0.20258505E-01 0.20425293E+02</pdfrwt>
<totfact> 0.16180578E+08</totfact>
</mgrwt>
</event>
<event>
 4    1  0.2736402E+004  0.2009937E+02  0.7546771E-02  0.1743359E+00
         21   -1    0    0  503  502  0.00000000000E+00  0.00000000000E+00  0.14875269539E+02  0.14875269539E+02  0.00000000000E+00 0. -1.
         21   -1    0    0  501  503 -0.00000000000E+00 -0.00000000000E+00 -0.27203471098E+02  0.27203471098E+02  0.00000000000E+00 0.  1.
          2    1    1    2  501    0  0.47851574285E+01  0.19521444883E+02 -0.70230240311E+01  0.21291017084E+02  0.00000000000E+00 0. -1.
         -2    1    1    2    0  502 -0.47851574285E+01 -0.19521444883E+02 -0.53051775280E+01  0.20787723553E+02  0.00000000000E+00 0.  1.
<mgrwt>
<rscale>  2 0.20099367E+02</rscale>
<asrwt>0</asrwt>
<pdfrwt beam="1">  1       21 0.22885030E-02 0.20099367E+02</pdfrwt>
<pdfrwt beam="2">  1       21 0.41851494E-02 0.20099367E+02</pdfrwt>
<totfact> 0.22121762E+08</totfact>
</mgrwt>
</event>
<event>
 4    1  0.2736402E+004  0.2457041E+02  0.7546771E-02  0.1667250E+00
         21   -1    0    0  503  502  0.00000000000E+00  0.00000000000E+00  0.19007109844E+03  0.19007109844E+03  0.00000000000E+00 0. -1.
         21   -1    0    0  501  503 -0.00000000000E+00 -0.00000000000E+00 -0.34659759407E+01  0.34659759407E+01  0.00000000000E+00 0.  1.
          2    1    1    2  501    0  0.13186002677E+02 -0.20732447330E+02  0.65322557253E+02  0.69790697983E+02  0.00000000000E+00 0.  1.
         -2    1    1    2    0  502 -0.13186002677E+02  0.20732447330E+02  0.12128256525E+03  0.12374637640E+03  0.00000000000E+00 0. -1.
<mgrwt>
<rscale>  2 0.24570410E+02</rscale>
<asrwt>0</asrwt>
<pdfrwt beam="1">  1       21 0.29241699E-01 0.24570410E+02</pdfrwt>
<pdfrwt beam="2">  1       21 0.53322722E-03 0.24570410E+02</pdfrwt>
<totfact> 0.81360113E+07</totfact>
</mgrwt>
</event>
<event>
 4    1  0.2736402E+004  0.2760261E+02  0.7546771E-02  0.1626208E+00
         21   -1    0    0  503  502  0.00000000000E+00  0.00000000000E+00  0.10115343859E+02  0.10115343859E+02  0.00000000000E+00 0.  1.
         21   -1    0    0  501  503 -0.00000000000E+00 -0.00000000000E+00 -0.25669824210E+03  0.25669824210E+03  0.00000000000E+00 0. -1.
          2    1    1    2  501    0 -0.27099255286E+02 -0.52473054096E+01 -0.23543057834E+03  0.23704316288E+03  0.00000000000E+00 0. -1.
         -2    1    1    2    0  502  0.27099255286E+02  0.52473054096E+01 -0.11152319901E+02  0.29770423079E+02  0.00000000000E+00 0.  1.
<mgrwt>
<rscale>  2 0.27602606E+02</rscale>
<asrwt>0</asrwt>
<pdfrwt beam="1">  1       21 0.15562068E-02 0.27602606E+02</pdfrwt>
<pdfrwt beam="2">  1       21 0.39492037E-01 0.27602606E+02</pdfrwt>
<totfact> 0.95156938E+06</totfact>
</mgrwt>
</event>
<event>
 4    1  0.2736402E+004  0.2084212E+02  0.7546771E-02  0.1729082E+00
         21   -1    0    0  503  502  0.00000000000E+00  0.00000000000E+00  0.20352919265E+02  0.20352919265E+02  0.00000000000E+00 0. -1.
         21   -1    0    0  501  503 -0.00000000000E+00 -0.00000000000E+00 -0.49121100832E+02  0.49121100832E+02  0.00000000000E+00 0.  1.
          2    1    1    2  501    0  0.13707563908E+02  0.15700210282E+02 -0.40506249653E+02  0.45553816219E+02  0.00000000000E+00 0.  1.
         -2    1    1    2    0  502 -0.13707563908E+02 -0.15700210282E+02  0.11738068085E+02  0.23920203878E+02  0.00000000000E+00 0. -1.
<mgrwt>
<rscale>  2 0.20842119E+02</rscale>
<asrwt>0</asrwt>
<pdfrwt beam="1">  1       21 0.31312184E-02 0.20842119E+02</pdfrwt>
<pdfrwt beam="2">  1       21 0.75570924E-02 0.20842119E+02</pdfrwt>
<totfact> 0.53743459E+07</totfact>
</mgrwt>
</event>
<event>
 4    1  0.2736402E+004  0.2087136E+02  0.7546771E-02  0.1728535E+00
         21   -1    0    0  503  502  0.00000000000E+00  0.00000000000E+00  0.56290605126E+01  0.56290605126E+01  0.00000000000E+00 0. -1.
         21   -1    0    0  501  503 -0.00000000000E+00 -0.00000000000E+00 -0.39413501123E+03  0.39413501123E+03  0.00000000000E+00 0.  1.
          2    1    1    2  501    0  0.51689059916E+01 -0.20221182009E+02 -0.37344079581E+03  0.37402358450E+03  0.00000000000E+00 0.  1.
         -2    1    1    2    0  502 -0.51689059916E+01  0.20221182009E+02 -0.15065154915E+02  0.25740487245E+02  0.00000000000E+00 0. -1.
<mgrwt>
<rscale>  2 0.20871363E+02</rscale>
<asrwt>0</asrwt>
<pdfrwt beam="1">  1       21 0.86600891E-03 0.20871363E+02</pdfrwt>
<pdfrwt beam="2">  1       21 0.60636184E-01 0.20871363E+02</pdfrwt>
<totfact> 0.95574828E+06</totfact>
</mgrwt>
</event>
<event>
 4    1  0.2736402E+004  0.2785517E+02  0.7546771E-02  0.1623084E+00
         21   -1    0    0  501  502  0.00000000000E+00  0.00000000000E+00  0.41400058832E+02  0.41400058832E+02  0.00000000000E+00 0. -1.
         21   -1    0    0  502  503 -0.00000000000E+00 -0.00000000000E+00 -0.68631572785E+02  0.68631572785E+02  0.00000000000E+00 0.  1.
          2    1    1    2  501    0 -0.24360834715E+02 -0.13507779581E+02  0.33290575284E+02  0.43407059103E+02  0.00000000000E+00 0. -1.
         -2    1    1    2    0  503  0.24360834715E+02  0.13507779581E+02 -0.60522089237E+02  0.66624572515E+02  0.00000000000E+00 0.  1.
<mgrwt>
<rscale>  2 0.27855168E+02</rscale>
<asrwt>0</asrwt>
<pdfrwt beam="1">  1       21 0.63692399E-02 0.27855168E+02</pdfrwt>
<pdfrwt beam="2">  1       21 0.10558703E-01 0.27855168E+02</pdfrwt>
<totfact> 0.10710887E+07</totfact>
</mgrwt>
</event>
<event>
 4    1  0.2736402E+004  0.2245532E+02  0.7546771E-02  0.1700494E+00
         21   -1    0    0  501  502  0.00000000000E+00  0.00000000000E+00  0.36292294011E+01  0.36292294011E+01  0.00000000000E+00 0. -1.
         21   -1    0    0  502  503 -0.00000000000E+00 -0.00000000000E+00 -0.14254354465E+03  0.14254354465E+03  0.00000000000E+00 0.  1.
          2    1    1    2  501    0  0.19879112612E+02 -0.10443290087E+02 -0.57834934456E+02  0.62041285202E+02  0.00000000000E+00 0. -1.
         -2    1    1    2    0  503 -0.19879112612E+02  0.10443290087E+02 -0.81079380791E+02  0.84131488846E+02  0.00000000000E+00 0.  1.
<mgrwt>
<rscale>  2 0.22455321E+02</rscale>
<asrwt>0</asrwt>
<pdfrwt beam="1">  1       21 0.55834294E-03 0.22455321E+02</pdfrwt>
<pdfrwt beam="2">  1       21 0.21929778E-01 0.22455321E+02</pdfrwt>
<totfact> 0.12406786E+08</totfact>
</mgrwt>
</event>
<event>
 4    1  0.2736402E+004  0.2018070E+02  0.7546771E-02  0.1741758E+00
         21   -1    0    0  503  502  0.00000000000E+00  0.00000000000E+00  0.35882466882E+01  0.35882466882E+01  0.00000000000E+00 0. -1.
         21   -1    0    0  501  503 -0.00000000000E+00 -0.00000000000E+00 -0.63012149821E+03  0.63012149821E+03  0.00000000000E+00 0.  1.
          2    1    1    2  501    0 -0.14884854924E+02 -0.13627244592E+02 -0.60016963224E+03  0.60050882438E+03  0.00000000000E+00 0.  1.
         -2    1    1    2    0  502  0.14884854924E+02  0.13627244592E+02 -0.26363619282E+02  0.33200920513E+02  0.00000000000E+00 0. -1.
<mgrwt>
<rscale>  2 0.20180701E+02</rscale>
<asrwt>0</asrwt>
<pdfrwt beam="1">  1       21 0.55203769E-03 0.20180701E+02</pdfrwt>
<pdfrwt beam="2">  1       21 0.96941815E-01 0.20180701E+02</pdfrwt>
<totfact> 0.69985418E+06</totfact>
</mgrwt>
</event>
<event>
 4    1  0.2736402E+004  0.2794692E+02  0.7546771E-02  0.1621958E+00
         21   -1    0    0  503  502  0.00000000000E+00  0.00000000000E+00  0.53468388343E+01  0.53468388343E+01  0.00000000000E+00 0. -1.
         21   -1    0    0  501  503 -0.00000000000E+00 -0.00000000000E+00 -0.35031554882E+03  0.35031554882E+03  0.00000000000E+00 0.  1.
          2    1    1    2  501    0  0.27859765006E+02  0.22054123477E+01 -0.30826911763E+03  0.30953332492E+03  0.00000000000E+00 0.  1.
         -2    1    1    2    0  502 -0.27859765006E+02 -0.22054123477E+01 -0.36699592348E+02  0.46129062730E+02  0.00000000000E+00 0. -1.
<mgrwt>
<rscale>  2 0.27946920E+02</rscale>
<asrwt>0</asrwt>
<pdfrwt beam="1">  1       21 0.82259027E-03 0.27946920E+02</pdfrwt>
<pdfrwt beam="2">  1       21 0.53894721E-01 0.27946920E+02</pdfrwt>
<totfact> 0.13734772E+07</totfact>
</mgrwt>
</event>
<event>
 4    1  0.2736402E+004  0.2202680E+02  0.7546771E-02  0.1707789E+00
         21   -1    0    0  501  502  0.00000000000E+00  0.00000000000E+00  0.14699682002E+03  0.14699682002E+03  0.00000000000E+00 0.  1.
         21   -1    0    0  502  503 -0.00000000000E+00 -0.00000000000E+00 -0.56759090866E+01  0.56759090866E+01  0.00000000000E+00 0. -1.
          2    1    1    2  501    0 -0.26865141998E+01 -0.21862354041E+02  0.12004288676E+03  0.12204701776E+03  0.00000000000E+00 0.  1.
         -2    1    1    2    0  503  0.26865141998E+01  0.21862354041E+02  0.21278024177E+02  0.30625711349E+02  0.00000000000E+00 0. -1.
<mgrwt>
<rscale>  2 0.22026799E+02</rscale>
<asrwt>0</asrwt>
<pdfrwt beam="1">  1       21 0.22614892E-01 0.22026799E+02</pdfrwt>
<pdfrwt beam="2">  1       21 0.87321689E-03 0.22026799E+02</pdfrwt>
<totfact> 0.60160039E+07</totfact>
</mgrwt>
</event>
<event>
 4    1  0.2736402E+004  0.2102316E+02  0.7546771E-02  0.1725715E+00
         21   -1    0    0  501  502  0.00000000000E+00  0.00000000000E+00  0.50431386637E+01  0.50431386637E+01  0.00000000000E+00 0. -1.
         21   -1    0    0  502  503 -0.00000000000E+00 -0.00000000000E+00 -0.10419255480E+03  0.10419255480E+03  0.00000000000E+00 0.  1.
          2    1    1    2  501    0 -0.69969583335E+01 -0.19824625846E+02 -0.27804221074E+02  0.34857537569E+02  0.00000000000E+00 0. -1.
         -2    1    1    2    0  503  0.69969583335E+01  0.19824625846E+02 -0.71345195065E+02  0.74378155897E+02  0.00000000000E+00 0.  1.
<mgrwt>
<rscale>  2 0.21023159E+02</rscale>
<asrwt>0</asrwt>
<pdfrwt beam="1">  1       21 0.77586755E-03 0.21023159E+02</pdfrwt>
<pdfrwt beam="2">  1       21 0.16029622E-01 0.21023159E+02</pdfrwt>
<totfact> 0.12857351E+08</totfact>
</mgrwt>
</event>
<event>
 4    1  0.2736402E+004  0.2226507E+02  0.7546771E-02  0.1703708E+00
         21   -1    0    0  503  502  0.00000000000E+00  0.00000000000E+00  0.88188513512E+02  0.88188513512E+02  0.00000000000E+00 0.  1.
         21   -1    0    0  501  503 -0.00000000000E+00 -0.00000000000E+00 -0.11670253882E+02  0.11670253882E+02  0.00000000000E+00 0. -1.
          2    1    1    2  501    0  0.22248676964E+02 -0.85418873513E+00  0.23126368161E+01  0.22384850995E+02  0.00000000000E+00 0. -1.
         -2    1    1    2    0  502 -0.22248676964E+02  0.85418873513E+00  0.74205622814E+02  0.77473916399E+02  0.00000000000E+00 0.  1.
<mgrwt>
<rscale>  2 0.22265068E+02</rscale>
<asrwt>0</asrwt>
<pdfrwt beam="1">  1       21 0.13567463E-01 0.22265068E+02</pdfrwt>
<pdfrwt beam="2">  1       21 0.17954237E-02 0.22265068E+02</pdfrwt>
<totfact> 0.48985656E+07</totfact>
</mgrwt>
</event>
<event>
 4    1  0.2736402E+004  0.2841428E+02  0.7546771E-02  0.1616308E+00
         21   -1    0    0  503  502  0.00000000000E+00  0.00000000000E+00  0.30155108911E+03  0.30155108911E+03  0.00000000000E+00 0.  1.
         21   -1    0    0  501  503 -0.00000000000E+00 -0.00000000000E+00 -0.32950155197E+01  0.32950155197E+01  0.00000000000E+00 0. -1.
          2    1    1    2  501    0  0.10141493181E+02  0.26542818927E+02  0.83137284291E+02  0.87858859313E+02  0.00000000000E+00 0. -1.
         -2    1    1    2    0  502 -0.10141493181E+02 -0.26542818927E+02  0.21511878930E+03  0.21698724531E+03  0.00000000000E+00 0.  1.
<mgrwt>
<rscale>  2 0.28414277E+02</rscale>
<asrwt>0</asrwt>
<pdfrwt beam="1">  1       21 0.46392454E-01 0.28414277E+02</pdfrwt>
<pdfrwt beam="2">  1       21 0.50692570E-03 0.28414277E+02</pdfrwt>
<totfact> 0.38107720E+07</totfact>
</mgrwt>
</event>
<event>
 4    1  0.2736402E+004  0.2378238E+02  0.7546771E-02  0.1679133E+00
         21   -1    0    0  501  502  0.00000000000E+00  0.00000000000E+00  0.52693146973E+01  0.52693146973E+01  0.00000000000E+00 0. -1.
         21   -1    0    0  502  503 -0.00000000000E+00 -0.00000000000E+00 -0.30215790485E+03  0.30215790485E+03  0.00000000000E+00 0.  1.
          2    1    1    2  501    0 -0.76454565214E+01 -0.22519954984E+02 -0.25016995588E+02  0.34517407872E+02  0.00000000000E+00 0. -1.
         -2    1    1    2    0  503  0.76454565214E+01  0.22519954984E+02 -0.27187159456E+03  0.27290981168E+03  0.00000000000E+00 0.  1.
<mgrwt>
<rscale>  2 0.23782375E+02</rscale>
<asrwt>0</asrwt>
<pdfrwt beam="1">  1       21 0.81066353E-03 0.23782375E+02</pdfrwt>
<pdfrwt beam="2">  1       21 0.46485847E-01 0.23782375E+02</pdfrwt>
<totfact> 0.18201392E+07</totfact>
</mgrwt>
</event>
<event>
 4    1  0.2736402E+004  0.4090011E+02  0.7546771E-02  0.1501690E+00
         21   -1    0    0  503  502  0.00000000000E+00  0.00000000000E+00  0.66002503110E+02  0.66002503110E+02  0.00000000000E+00 0.  1.
         21   -1    0    0  501  503 -0.00000000000E+00 -0.00000000000E+00 -0.44143150348E+02  0.44143150348E+02  0.00000000000E+00 0. -1.
          2    1    1    2  501    0 -0.29651699952E+02  0.28170834803E+02 -0.25009303891E+02  0.47940426830E+02  0.00000000000E+00 0. -1.
         -2    1    1    2    0  502  0.29651699952E+02 -0.28170834803E+02  0.46868656653E+02  0.62205226629E+02  0.00000000000E+00 0.  1.
<mgrwt>
<rscale>  2 0.40900113E+02</rscale>
<asrwt>0</asrwt>
<pdfrwt beam="1">  1       21 0.10154231E-01 0.40900113E+02</pdfrwt>
<pdfrwt beam="2">  1       21 0.67912539E-02 0.40900113E+02</pdfrwt>
<totfact> 0.10929392E+07</totfact>
</mgrwt>
</event>
<event>
 4    1  0.2736402E+004  0.2612875E+02  0.7546771E-02  0.1645299E+00
         21   -1    0    0  501  502  0.00000000000E+00  0.00000000000E+00  0.46760651617E+03  0.46760651617E+03  0.00000000000E+00 0. -1.
         21   -1    0    0  502  503 -0.00000000000E+00 -0.00000000000E+00 -0.53500392460E+01  0.53500392460E+01  0.00000000000E+00 0.  1.
          2    1    1    2  501    0 -0.80041984131E+01  0.24872562952E+02  0.43277397176E+03  0.43356201657E+03  0.00000000000E+00 0. -1.
         -2    1    1    2    0  503  0.80041984131E+01 -0.24872562952E+02  0.29482505161E+02  0.39394538842E+02  0.00000000000E+00 0.  1.
<mgrwt>
<rscale>  2 0.26128750E+02</rscale>
<asrwt>0</asrwt>
<pdfrwt beam="1">  1       21 0.71939432E-01 0.26128750E+02</pdfrwt>
<pdfrwt beam="2">  1       21 0.82308333E-03 0.26128750E+02</pdfrwt>
<totfact> 0.75642178E+06</totfact>
</mgrwt>
</event>
<event>
 4    1  0.2736402E+004  0.2357066E+02  0.7546771E-02  0.1682423E+00
         21   -1    0    0  503  502  0.00000000000E+00  0.00000000000E+00  0.95944637527E+03  0.95944637527E+03  0.00000000000E+00 0. -1.
         21   -1    0    0  501  503 -0.00000000000E+00 -0.00000000000E+00 -0.59985516787E+00  0.59985516787E+00  0.00000000000E+00 0.  1.
          2    1    1    2  501    0 -0.22117782857E+02 -0.81473837967E+01  0.39004554011E+03  0.39075708508E+03  0.00000000000E+00 0. -1.
         -2    1    1    2    0  502  0.22117782857E+02  0.81473837967E+01  0.56880097999E+03  0.56928914535E+03  0.00000000000E+00 0.  1.
<mgrwt>
<rscale>  2 0.23570664E+02</rscale>
<asrwt>0</asrwt>
<pdfrwt beam="1">  1       21 0.14760591E+00 0.23570664E+02</pdfrwt>
<pdfrwt beam="2">  1       21 0.92286178E-04 0.23570664E+02</pdfrwt>
<totfact> 0.36957145E+07</totfact>
</mgrwt>
</event>
<event>
 4    1  0.2736402E+004  0.2925300E+02  0.7546771E-02  0.1606496E+00
         21   -1    0    0  501  502  0.00000000000E+00  0.00000000000E+00  0.36156029835E+03  0.36156029835E+03  0.00000000000E+00 0.  1.
         21   -1    0    0  502  503 -0.00000000000E+00 -0.00000000000E+00 -0.24768012677E+01  0.24768012677E+01  0.00000000000E+00 0. -1.
          2    1    1    2  501    0  0.28285532376E+02 -0.74610174790E+01  0.14118125824E+03  0.14418004648E+03  0.00000000000E+00 0. -1.
         -2    1    1    2    0  503 -0.28285532376E+02  0.74610174790E+01  0.21790223884E+03  0.21985705314E+03  0.00000000000E+00 0.  1.
<mgrwt>
<rscale>  2 0.29253002E+02</rscale>
<asrwt>0</asrwt>
<pdfrwt beam="1">  1       21 0.55624620E-01 0.29253002E+02</pdfrwt>
<pdfrwt beam="2">  1       21 0.38104663E-03 0.29253002E+02</pdfrwt>
<totfact> 0.40938088E+07</totfact>
</mgrwt>
</event>
<event>
 4    1  0.2736402E+004  0.2357069E+02  0.7546771E-02  0.1682423E+00
         21   -1    0    0  503  502  0.00000000000E+00  0.00000000000E+00  0.16182215998E+02  0.16182215998E+02  0.00000000000E+00 0. -1.
         21   -1    0    0  501  503 -0.00000000000E+00 -0.00000000000E+00 -0.76810767322E+02  0.76810767322E+02  0.00000000000E+00 0.  1.
          2    1    1    2  501    0 -0.20996094220E+02  0.10711733797E+02 -0.64891659003E+02  0.69039877039E+02  0.00000000000E+00 0.  1.
         -2    1    1    2    0  502  0.20996094220E+02 -0.10711733797E+02  0.42631076791E+01  0.23953106281E+02  0.00000000000E+00 0. -1.
<mgrwt>
<rscale>  2 0.23570685E+02</rscale>
<asrwt>0</asrwt>
<pdfrwt beam="1">  1       21 0.24895717E-02 0.23570685E+02</pdfrwt>
<pdfrwt beam="2">  1       21 0.11817041E-01 0.23570685E+02</pdfrwt>
<totfact> 0.37924096E+07</totfact>
</mgrwt>
</event>
<event>
 4    1  0.2736402E+004  0.2145283E+02  0.7546771E-02  0.1717890E+00
         21   -1    0    0  503  502  0.00000000000E+00  0.00000000000E+00  0.16225845364E+02  0.16225845364E+02  0.00000000000E+00 0. -1.
         21   -1    0    0  501  503 -0.00000000000E+00 -0.00000000000E+00 -0.74590087346E+02  0.74590087346E+02  0.00000000000E+00 0.  1.
          2    1    1    2  501    0 -0.40231177555E+01  0.21072224456E+02 -0.64928884641E+02  0.68381168320E+02  0.00000000000E+00 0.  1.
         -2    1    1    2    0  502  0.40231177555E+01 -0.21072224456E+02  0.65646426592E+01  0.22434764390E+02  0.00000000000E+00 0. -1.
<mgrwt>
<rscale>  2 0.21452835E+02</rscale>
<asrwt>0</asrwt>
<pdfrwt beam="1">  1       21 0.24962839E-02 0.21452835E+02</pdfrwt>
<pdfrwt beam="2">  1       21 0.11475398E-01 0.21452835E+02</pdfrwt>
<totfact> 0.38742970E+07</totfact>
</mgrwt>
</event>
<event>
 4    1  0.2736402E+004  0.2247398E+02  0.7546771E-02  0.1700181E+00
         21   -1    0    0  501  502  0.00000000000E+00  0.00000000000E+00  0.14831011416E+02  0.14831011416E+02  0.00000000000E+00 0. -1.
         21   -1    0    0  502  503 -0.00000000000E+00 -0.00000000000E+00 -0.42139092875E+02  0.42139092875E+02  0.00000000000E+00 0.  1.
          2    1    1    2  501    0  0.19879108064E+02  0.10483370803E+02 -0.11781336627E+01  0.22504843918E+02  0.00000000000E+00 0. -1.
         -2    1    1    2    0  503 -0.19879108064E+02 -0.10483370803E+02 -0.26129947795E+02  0.34465260374E+02  0.00000000000E+00 0.  1.
<mgrwt>
<rscale>  2 0.22473985E+02</rscale>
<asrwt>0</asrwt>
<pdfrwt beam="1">  1       21 0.22816941E-02 0.22473985E+02</pdfrwt>
<pdfrwt beam="2">  1       21 0.64829374E-02 0.22473985E+02</pdfrwt>
<totfact> 0.11474114E+08</totfact>
</mgrwt>
</event>
<event>
 4    1  0.2736402E+004  0.2221252E+02  0.7546771E-02  0.1704602E+00
         21   -1    0    0  501  502  0.00000000000E+00  0.00000000000E+00  0.27620434397E+03  0.27620434397E+03  0.00000000000E+00 0. -1.
         21   -1    0    0  502  503 -0.00000000000E+00 -0.00000000000E+00 -0.19775729817E+01  0.19775729817E+01  0.00000000000E+00 0.  1.
          2    1    1    2  501    0  0.21532630466E+02  0.54536127555E+01  0.93861095255E+02  0.96453622375E+02  0.00000000000E+00 0. -1.
         -2    1    1    2    0  503 -0.21532630466E+02 -0.54536127555E+01  0.18036567574E+03  0.18172829458E+03  0.00000000000E+00 0.  1.
<mgrwt>
<rscale>  2 0.22212520E+02</rscale>
<asrwt>0</asrwt>
<pdfrwt beam="1">  1       21 0.42492945E-01 0.22212520E+02</pdfrwt>
<pdfrwt beam="2">  1       21 0.30424222E-03 0.22212520E+02</pdfrwt>
<totfact> 0.90267629E+07</totfact>
</mgrwt>
</event>
<event>
 4    1  0.2736402E+004  0.2715947E+02  0.7546771E-02  0.1631791E+00
         21   -1    0    0  501  502  0.00000000000E+00  0.00000000000E+00  0.26243099387E+01  0.26243099387E+01  0.00000000000E+00 0. -1.
         21   -1    0    0  502  503 -0.00000000000E+00 -0.00000000000E+00 -0.32631738619E+03  0.32631738619E+03  0.00000000000E+00 0.  1.
          2    1    1    2  501    0 -0.21856730938E+02  0.16122032055E+02 -0.22308519889E+03  0.22473237989E+03  0.00000000000E+00 0.  1.
         -2    1    1    2    0  503  0.21856730938E+02 -0.16122032055E+02 -0.10060787736E+03  0.10420931624E+03  0.00000000000E+00 0. -1.
<mgrwt>
<rscale>  2 0.27159466E+02</rscale>
<asrwt>0</asrwt>
<pdfrwt beam="1">  1       21 0.40373984E-03 0.27159466E+02</pdfrwt>
<pdfrwt beam="2">  1       21 0.50202693E-01 0.27159466E+02</pdfrwt>
<totfact> 0.45338085E+07</totfact>
</mgrwt>
</event>
<event>
 4    1  0.2736402E+004  0.2425363E+02  0.7546771E-02  0.1671960E+00
         21   -1    0    0  503  502  0.00000000000E+00  0.00000000000E+00  0.66830981578E+02  0.66830981578E+02  0.00000000000E+00 0.  1.
         21   -1    0    0  501  503 -0.00000000000E+00 -0.00000000000E+00 -0.94548114327E+01  0.94548114327E+01  0.00000000000E+00 0. -1.
          2    1    1    2  501    0 -0.22238749554E+02  0.96786725807E+01  0.18664593976E+02  0.30604015308E+02  0.00000000000E+00 0. -1.
         -2    1    1    2    0  502  0.22238749554E+02 -0.96786725807E+01  0.38711576169E+02  0.45681777703E+02  0.00000000000E+00 0.  1.
<mgrwt>
<rscale>  2 0.24253632E+02</rscale>
<asrwt>0</asrwt>
<pdfrwt beam="1">  1       21 0.10281689E-01 0.24253632E+02</pdfrwt>
<pdfrwt beam="2">  1       21 0.14545864E-02 0.24253632E+02</pdfrwt>
<totfact> 0.10991622E+08</totfact>
</mgrwt>
</event>
<event>
 4    1  0.2736402E+004  0.3042326E+02  0.7546771E-02  0.1593457E+00
         21   -1    0    0  501  502  0.00000000000E+00  0.00000000000E+00  0.26420746572E+02  0.26420746572E+02  0.00000000000E+00 0.  1.
         21   -1    0    0  502  503 -0.00000000000E+00 -0.00000000000E+00 -0.13259357573E+03  0.13259357573E+03  0.00000000000E+00 0. -1.
          2    1    1    2  501    0 -0.28387439447E+02 -0.10942023761E+02  0.15113550968E+02  0.33970487562E+02  0.00000000000E+00 0.  1.
         -2    1    1    2    0  503  0.28387439447E+02  0.10942023761E+02 -0.12128638012E+03  0.12504383474E+03  0.00000000000E+00 0. -1.
<mgrwt>
<rscale>  2 0.30423258E+02</rscale>
<asrwt>0</asrwt>
<pdfrwt beam="1">  1       21 0.40647302E-02 0.30423258E+02</pdfrwt>
<pdfrwt beam="2">  1       21 0.20399012E-01 0.30423258E+02</pdfrwt>
<totfact> 0.72184875E+06</totfact>
</mgrwt>
</event>
<event>
 4    1  0.2736402E+004  0.2377412E+02  0.7546771E-02  0.1679261E+00
         21   -1    0    0  501  502  0.00000000000E+00  0.00000000000E+00  0.28867654122E+01  0.28867654122E+01  0.00000000000E+00 0. -1.
         21   -1    0    0  502  503 -0.00000000000E+00 -0.00000000000E+00 -0.43962736023E+03  0.43962736023E+03  0.00000000000E+00 0.  1.
          2    1    1    2  501    0  0.13607062746E+02  0.19495035369E+02 -0.53591166542E+02  0.58627823531E+02  0.00000000000E+00 0. -1.
         -2    1    1    2    0  503 -0.13607062746E+02 -0.19495035369E+02 -0.38314942827E+03  0.38388630211E+03  0.00000000000E+00 0.  1.
<mgrwt>
<rscale>  2 0.23774115E+02</rscale>
<asrwt>0</asrwt>
<pdfrwt beam="1">  1       21 0.44411781E-03 0.23774115E+02</pdfrwt>
<pdfrwt beam="2">  1       21 0.67634970E-01 0.23774115E+02</pdfrwt>
<totfact> 0.21136466E+07</totfact>
</mgrwt>
</event>
<event>
 4    1  0.2736402E+004  0.5742381E+02  0.7546771E-02  0.1408972E+00
         21   -1    0    0  503  502  0.00000000000E+00  0.00000000000E+00  0.34176891289E+03  0.34176891289E+03  0.00000000000E+00 0.  1.
         21   -1    0    0  501  503 -0.00000000000E+00 -0.00000000000E+00 -0.10953610406E+02  0.10953610406E+02  0.00000000000E+00 0. -1.
          2    1    1    2  501    0 -0.59609855504E+01  0.57113578118E+02  0.22628825411E+03  0.23346063501E+03  0.00000000000E+00 0.  1.
         -2    1    1    2    0  502  0.59609855504E+01 -0.57113578118E+02  0.10452704837E+03  0.11926188828E+03  0.00000000000E+00 0. -1.
<mgrwt>
<rscale>  2 0.57423812E+02</rscale>
<asrwt>0</asrwt>
<pdfrwt beam="1">  1       21 0.52579825E-01 0.57423812E+02</pdfrwt>
<pdfrwt beam="2">  1       21 0.16851711E-02 0.57423812E+02</pdfrwt>
<totfact> 0.52307168E+06</totfact>
</mgrwt>
</event>
<event>
 4    1  0.2736402E+004  0.3085216E+02  0.7546771E-02  0.1588856E+00
         21   -1    0    0  503  502  0.00000000000E+00  0.00000000000E+00  0.41697808879E+02  0.41697808879E+02  0.00000000000E+00 0. -1.
         21   -1    0    0  501  503 -0.00000000000E+00 -0.00000000000E+00 -0.49083409978E+02  0.49083409978E+02  0.00000000000E+00 0.  1.
          2    1    1    2  501    0 -0.34168756651E+01  0.30662366087E+02 -0.36890836106E+02  0.48091470366E+02  0.00000000000E+00 0.  1.
         -2    1    1    2    0  502  0.34168756651E+01 -0.30662366087E+02  0.29505235007E+02  0.42689748490E+02  0.00000000000E+00 0. -1.
<mgrwt>
<rscale>  2 0.30852159E+02</rscale>
<asrwt>0</asrwt>
<pdfrwt beam="1">  1       21 0.64150475E-02 0.30852159E+02</pdfrwt>
<pdfrwt beam="2">  1       21 0.75512938E-02 0.30852159E+02</pdfrwt>
<totfact> 0.18800931E+07</totfact>
</mgrwt>
</event>
<event>
 4    1  0.2736402E+004  0.2539403E+02  0.7546771E-02  0.1655406E+00
         21   -1    0    0  503  502  0.00000000000E+00  0.00000000000E+00  0.11059024630E+03  0.11059024630E+03  0.00000000000E+00 0. -1.
         21   -1    0    0  501  503 -0.00000000000E+00 -0.00000000000E+00 -0.10462601709E+02  0.10462601709E+02  0.00000000000E+00 0.  1.
          2    1    1    2  501    0 -0.27310555727E+01 -0.25246746516E+02  0.97931769137E+01  0.27216965082E+02  0.00000000000E+00 0.  1.
         -2    1    1    2    0  502  0.27310555727E+01  0.25246746516E+02  0.90334467681E+02  0.93835882931E+02  0.00000000000E+00 0. -1.
<mgrwt>
<rscale>  2 0.25394032E+02</rscale>
<asrwt>0</asrwt>
<pdfrwt beam="1">  1       21 0.17013883E-01 0.25394032E+02</pdfrwt>
<pdfrwt beam="2">  1       21 0.16096311E-02 0.25394032E+02</pdfrwt>
<totfact> 0.40620299E+07</totfact>
</mgrwt>
</event>
<event>
 4    1  0.2736402E+004  0.2142019E+02  0.7546771E-02  0.1718477E+00
         21   -1    0    0  503  502  0.00000000000E+00  0.00000000000E+00  0.30057578851E+01  0.30057578851E+01  0.00000000000E+00 0. -1.
         21   -1    0    0  501  503 -0.00000000000E+00 -0.00000000000E+00 -0.20584398406E+03  0.20584398406E+03  0.00000000000E+00 0.  1.
          2    1    1    2  501    0 -0.17007527109E+01  0.21352561317E+02 -0.15450416393E+03  0.15598192558E+03  0.00000000000E+00 0.  1.
         -2    1    1    2    0  502  0.17007527109E+01 -0.21352561317E+02 -0.48334062243E+02  0.52867816367E+02  0.00000000000E+00 0. -1.
<mgrwt>
<rscale>  2 0.21420188E+02</rscale>
<asrwt>0</asrwt>
<pdfrwt beam="1">  1       21 0.46242427E-03 0.21420188E+02</pdfrwt>
<pdfrwt beam="2">  1       21 0.31668306E-01 0.21420188E+02</pdfrwt>
<totfact> 0.83740197E+07</totfact>
</mgrwt>
</event>
<event>
 4    1  0.2736402E+004  0.2059868E+02  0.7546771E-02  0.1733678E+00
         21   -1    0    0  503  502  0.00000000000E+00  0.00000000000E+00  0.13058420735E+02  0.13058420735E+02  0.00000000000E+00 0. -1.
         21   -1    0    0  501  503 -0.00000000000E+00 -0.00000000000E+00 -0.82672320502E+02  0.82672320502E+02  0.00000000000E+00 0.  1.
          2    1    1    2  501    0  0.58661527246E+01  0.19745730186E+02 -0.72097973019E+02  0.74982820178E+02  0.00000000000E+00 0.  1.
         -2    1    1    2    0  502 -0.58661527246E+01 -0.19745730186E+02  0.24840732527E+01  0.20747921059E+02  0.00000000000E+00 0. -1.
<mgrwt>
<rscale>  2 0.20598680E+02</rscale>
<asrwt>0</asrwt>
<pdfrwt beam="1">  1       21 0.20089878E-02 0.20598680E+02</pdfrwt>
<pdfrwt beam="2">  1       21 0.12718819E-01 0.20598680E+02</pdfrwt>
<totfact> 0.45073834E+07</totfact>
</mgrwt>
</event>
<event>
 4    1  0.2736402E+004  0.2540706E+02  0.7546771E-02  0.1655223E+00
         21   -1    0    0  501  502  0.00000000000E+00  0.00000000000E+00  0.20102549408E+03  0.20102549408E+03  0.00000000000E+00 0. -1.
         21   -1    0    0  502  503 -0.00000000000E+00 -0.00000000000E+00 -0.44268193838E+01  0.44268193838E+01  0.00000000000E+00 0.  1.
          2    1    1    2  501    0  0.21082208188E+02 -0.14179525841E+02  0.15213213253E+03  0.15423911373E+03  0.00000000000E+00 0. -1.
         -2    1    1    2    0  503 -0.21082208188E+02  0.14179525841E+02  0.44466542170E+02  0.51213199741E+02  0.00000000000E+00 0.  1.
<mgrwt>
<rscale>  2 0.25407055E+02</rscale>
<asrwt>0</asrwt>
<pdfrwt beam="1">  1       21 0.30926992E-01 0.25407055E+02</pdfrwt>
<pdfrwt beam="2">  1       21 0.68104929E-03 0.25407055E+02</pdfrwt>
<totfact> 0.51464414E+07</totfact>
</mgrwt>
</event>
<event>
 4    1  0.2736402E+004  0.5784360E+02  0.7546771E-02  0.1407111E+00
         21   -1    0    0  501  502  0.00000000000E+00  0.00000000000E+00  0.36631546713E+03  0.36631546713E+03  0.00000000000E+00 0. -1.
         21   -1    0    0  502  503 -0.00000000000E+00 -0.00000000000E+00 -0.94022443123E+01  0.94022443123E+01  0.00000000000E+00 0.  1.
          2    1    1    2  501    0  0.60204029310E+01 -0.57529439082E+02  0.21019450361E+03  0.21800828186E+03  0.00000000000E+00 0. -1.
         -2    1    1    2    0  503 -0.60204029310E+01  0.57529439082E+02  0.14671871921E+03  0.15770942958E+03  0.00000000000E+00 0.  1.
<mgrwt>
<rscale>  2 0.57843596E+02</rscale>
<asrwt>0</asrwt>
<pdfrwt beam="1">  1       21 0.56356215E-01 0.57843596E+02</pdfrwt>
<pdfrwt beam="2">  1       21 0.14464994E-02 0.57843596E+02</pdfrwt>
<totfact> 0.57723628E+06</totfact>
</mgrwt>
</event>
<event>
 4    1  0.2736402E+004  0.2007022E+02  0.7546771E-02  0.1743935E+00
         21   -1    0    0  503  502  0.00000000000E+00  0.00000000000E+00  0.39712471101E+02  0.39712471101E+02  0.00000000000E+00 0. -1.
         21   -1    0    0  501  503 -0.00000000000E+00 -0.00000000000E+00 -0.17414752160E+02  0.17414752160E+02  0.00000000000E+00 0.  1.
          2    1    1    2  501    0  0.19669459752E+02 -0.39907465384E+01 -0.73083653408E+01  0.21359445425E+02  0.00000000000E+00 0.  1.
         -2    1    1    2    0  502 -0.19669459752E+02  0.39907465384E+01  0.29606084282E+02  0.35767777837E+02  0.00000000000E+00 0. -1.
<mgrwt>
<rscale>  2 0.20070219E+02</rscale>
<asrwt>0</asrwt>
<pdfrwt beam="1">  1       21 0.61096109E-02 0.20070219E+02</pdfrwt>
<pdfrwt beam="2">  1       21 0.26791927E-02 0.20070219E+02</pdfrwt>
<totfact> 0.95291570E+07</totfact>
</mgrwt>
</event>
<event>
 4    1  0.2736402E+004  0.2911035E+02  0.7546771E-02  0.1608136E+00
         21   -1    0    0  503  502  0.00000000000E+00  0.00000000000E+00  0.56177462971E+01  0.56177462971E+01  0.00000000000E+00 0. -1.
         21   -1    0    0  501  503 -0.00000000000E+00 -0.00000000000E+00 -0.15868940762E+03  0.15868940762E+03  0.00000000000E+00 0.  1.
          2    1    1    2  501    0 -0.25139072705E+02  0.14677864149E+02 -0.94800600022E+02  0.99169382558E+02  0.00000000000E+00 0.  1.
         -2    1    1    2    0  502  0.25139072705E+02 -0.14677864149E+02 -0.58271061297E+02  0.65137771355E+02  0.00000000000E+00 0. -1.
<mgrwt>
<rscale>  2 0.29110353E+02</rscale>
<asrwt>0</asrwt>
<pdfrwt beam="1">  1       21 0.86426871E-03 0.29110353E+02</pdfrwt>
<pdfrwt beam="2">  1       21 0.24413754E-01 0.29110353E+02</pdfrwt>
<totfact> 0.57022438E+07</totfact>
</mgrwt>
</event>
<event>
 4    1  0.2736402E+004  0.1469839E+03  0.7546771E-02  0.1204229E+00
         21   -1    0    0  501  502  0.00000000000E+00  0.00000000000E+00  0.75094120395E+02  0.75094120395E+02  0.00000000000E+00 0. -1.
         21   -1    0    0  502  503 -0.00000000000E+00 -0.00000000000E+00 -0.29809861855E+03  0.29809861855E+03  0.00000000000E+00 0.  1.
          2    1    1    2  501    0  0.14387424465E+03 -0.30074364389E+02 -0.76644608268E+02  0.16576688946E+03  0.00000000000E+00 0.  1.
         -2    1    1    2    0  503 -0.14387424465E+03  0.30074364389E+02 -0.14635988989E+03  0.20742584948E+03  0.00000000000E+00 0. -1.
<mgrwt>
<rscale>  2 0.14698390E+03</rscale>
<asrwt>0</asrwt>
<pdfrwt beam="1">  1       21 0.11552942E-01 0.14698390E+03</pdfrwt>
<pdfrwt beam="2">  1       21 0.45861326E-01 0.14698390E+03</pdfrwt>
<totfact> 0.28922883E+05</totfact>
</mgrwt>
</event>
<event>
 4    1  0.2736402E+004  0.2540430E+02  0.7546771E-02  0.1655262E+00
         21   -1    0    0  501  502  0.00000000000E+00  0.00000000000E+00  0.13517417819E+04  0.13517417819E+04  0.00000000000E+00 0. -1.
         21   -1    0    0  502  503 -0.00000000000E+00 -0.00000000000E+00 -0.23934892358E+01  0.23934892358E+01  0.00000000000E+00 0.  1.
          2    1    1    2  501    0  0.94146933448E+01  0.23595379298E+02  0.12804604007E+04  0.12807123862E+04  0.00000000000E+00 0. -1.
         -2    1    1    2    0  503 -0.94146933448E+01 -0.23595379298E+02  0.68887891990E+02  0.73422884973E+02  0.00000000000E+00 0.  1.
<mgrwt>
<rscale>  2 0.25404298E+02</rscale>
<asrwt>0</asrwt>
<pdfrwt beam="1">  1       21 0.20795966E+00 0.25404298E+02</pdfrwt>
<pdfrwt beam="2">  1       21 0.36823019E-03 0.25404298E+02</pdfrwt>
<totfact> 0.21536452E+06</totfact>
</mgrwt>
</event>
<event>
 4    1  0.2736402E+004  0.2150877E+02  0.7546771E-02  0.1716889E+00
         21   -1    0    0  501  502  0.00000000000E+00  0.00000000000E+00  0.10726565977E+03  0.10726565977E+03  0.00000000000E+00 0. -1.
         21   -1    0    0  502  503 -0.00000000000E+00 -0.00000000000E+00 -0.14577124512E+02  0.14577124512E+02  0.00000000000E+00 0.  1.
          2    1    1    2  501    0  0.14748464215E+02  0.15655986475E+02  0.97464962998E+02  0.99810050203E+02  0.00000000000E+00 0. -1.
         -2    1    1    2    0  503 -0.14748464215E+02 -0.15655986475E+02 -0.47764277367E+01  0.22032734082E+02  0.00000000000E+00 0.  1.
<mgrwt>
<rscale>  2 0.21508768E+02</rscale>
<asrwt>0</asrwt>
<pdfrwt beam="1">  1       21 0.16502409E-01 0.21508768E+02</pdfrwt>
<pdfrwt beam="2">  1       21 0.22426346E-02 0.21508768E+02</pdfrwt>
<totfact> 0.24772485E+07</totfact>
</mgrwt>
</event>
<event>
 4    1  0.2736402E+004  0.2150551E+02  0.7546771E-02  0.1716947E+00
         21   -1    0    0  503  502  0.00000000000E+00  0.00000000000E+00  0.56329302282E+01  0.56329302282E+01  0.00000000000E+00 0.  1.
         21   -1    0    0  501  503 -0.00000000000E+00 -0.00000000000E+00 -0.97356632053E+02  0.97356632053E+02  0.00000000000E+00 0. -1.
          2    1    1    2  501    0  0.18739893814E+02  0.10550038293E+02 -0.66244036816E+02  0.69647392929E+02  0.00000000000E+00 0. -1.
         -2    1    1    2    0  502 -0.18739893814E+02 -0.10550038293E+02 -0.25479665009E+02  0.33342169352E+02  0.00000000000E+00 0.  1.
<mgrwt>
<rscale>  2 0.21505509E+02</rscale>
<asrwt>0</asrwt>
<pdfrwt beam="1">  1       21 0.86660475E-03 0.21505509E+02</pdfrwt>
<pdfrwt beam="2">  1       21 0.14977942E-01 0.21505509E+02</pdfrwt>
<totfact> 0.12320536E+08</totfact>
</mgrwt>
</event>
<event>
 4    1  0.2736402E+004  0.2680651E+02  0.7546771E-02  0.1636333E+00
         21   -1    0    0  503  502  0.00000000000E+00  0.00000000000E+00  0.15245919491E+02  0.15245919491E+02  0.00000000000E+00 0. -1.
         21   -1    0    0  501  503 -0.00000000000E+00 -0.00000000000E+00 -0.59606970083E+02  0.59606970083E+02  0.00000000000E+00 0.  1.
          2    1    1    2  501    0  0.73906352168E+01 -0.25767568959E+02 -0.39301511384E+02  0.47573079531E+02  0.00000000000E+00 0.  1.
         -2    1    1    2    0  502 -0.73906352168E+01  0.25767568959E+02 -0.50595392081E+01  0.27279810043E+02  0.00000000000E+00 0. -1.
<mgrwt>
<rscale>  2 0.26806512E+02</rscale>
<asrwt>0</asrwt>
<pdfrwt beam="1">  1       21 0.23455261E-02 0.26806512E+02</pdfrwt>
<pdfrwt beam="2">  1       21 0.91703031E-02 0.26806512E+02</pdfrwt>
<totfact> 0.65444281E+07</totfact>
</mgrwt>
</event>
<event>
 4    1  0.2736402E+004  0.4503786E+02  0.7546771E-02  0.1474105E+00
         21   -1    0    0  503  502  0.00000000000E+00  0.00000000000E+00  0.19290208375E+03  0.19290208375E+03  0.00000000000E+00 0. -1.
         21   -1    0    0  501  503 -0.00000000000E+00 -0.00000000000E+00 -0.34677266358E+02  0.34677266358E+02  0.00000000000E+00 0.  1.
          2    1    1    2  501    0  0.44285152867E+02 -0.81996566824E+01 -0.15870885320E+02  0.47752425436E+02  0.00000000000E+00 0.  1.
         -2    1    1    2    0  502 -0.44285152867E+02  0.81996566824E+01  0.17409570271E+03  0.17982692467E+03  0.00000000000E+00 0. -1.
<mgrwt>
<rscale>  2 0.45037863E+02</rscale>
<asrwt>0</asrwt>
<pdfrwt beam="1">  1       21 0.29677243E-01 0.45037863E+02</pdfrwt>
<pdfrwt beam="2">  1       21 0.53349642E-02 0.45037863E+02</pdfrwt>
<totfact> 0.24613449E+06</totfact>
</mgrwt>
</event>
<event>
 4    1  0.2736402E+004  0.3616875E+02  0.7546771E-02  0.1538460E+00
         21   -1    0    0  501  502  0.00000000000E+00  0.00000000000E+00  0.17865506563E+02  0.17865506563E+02  0.00000000000E+00 0.  1.
         21   -1    0    0  502  503 -0.00000000000E+00 -0.00000000000E+00 -0.15901975357E+03  0.15901975357E+03  0.00000000000E+00 0. -1.
          2    1    1    2  501    0 -0.36151909595E+02 -0.11034258024E+01 -0.56135629081E+01  0.36601778705E+02  0.00000000000E+00 0.  1.
         -2    1    1    2    0  503  0.36151909595E+02  0.11034258024E+01 -0.13554068410E+03  0.14028348143E+03  0.00000000000E+00 0. -1.
<mgrwt>
<rscale>  2 0.36168745E+02</rscale>
<asrwt>0</asrwt>
<pdfrwt beam="1">  1       21 0.27485393E-02 0.36168745E+02</pdfrwt>
<pdfrwt beam="2">  1       21 0.24464579E-01 0.36168745E+02</pdfrwt>
<totfact> 0.99403852E+06</totfact>
</mgrwt>
</event>
<event>
 4    1  0.2736402E+004  0.2380158E+02  0.7546771E-02  0.1678837E+00
         21   -1    0    0  501  502  0.00000000000E+00  0.00000000000E+00  0.35278348526E+02  0.35278348526E+02  0.00000000000E+00 0.  1.
         21   -1    0    0  502  503 -0.00000000000E+00 -0.00000000000E+00 -0.16081359715E+02  0.16081359715E+02  0.00000000000E+00 0. -1.
          2    1    1    2  501    0 -0.16725000853E+02  0.16934862511E+02  0.10567980305E+02  0.26042223974E+02  0.00000000000E+00 0.  1.
         -2    1    1    2    0  503  0.16725000853E+02 -0.16934862511E+02  0.86290085060E+01  0.25317484266E+02  0.00000000000E+00 0. -1.
<mgrwt>
<rscale>  2 0.23801580E+02</rscale>
<asrwt>0</asrwt>
<pdfrwt beam="1">  1       21 0.54274382E-02 0.23801580E+02</pdfrwt>
<pdfrwt beam="2">  1       21 0.24740553E-02 0.23801580E+02</pdfrwt>
<totfact> 0.13701263E+08</totfact>
</mgrwt>
</event>
<event>
 4    1  0.2736402E+004  0.2030445E+02  0.7546771E-02  0.1739341E+00
         21   -1    0    0  503  502  0.00000000000E+00  0.00000000000E+00  0.35100290167E+02  0.35100290167E+02  0.00000000000E+00 0.  1.
         21   -1    0    0  501  503 -0.00000000000E+00 -0.00000000000E+00 -0.94894816844E+02  0.94894816844E+02  0.00000000000E+00 0. -1.
          2    1    1    2  501    0  0.18316755228E+02  0.87616807535E+01 -0.90739489834E+02  0.92983469429E+02  0.00000000000E+00 0. -1.
         -2    1    1    2    0  502 -0.18316755228E+02 -0.87616807535E+01  0.30944963157E+02  0.37011637582E+02  0.00000000000E+00 0.  1.
<mgrwt>
<rscale>  2 0.20304447E+02</rscale>
<asrwt>0</asrwt>
<pdfrwt beam="1">  1       21 0.54000447E-02 0.20304447E+02</pdfrwt>
<pdfrwt beam="2">  1       21 0.14599202E-01 0.20304447E+02</pdfrwt>
<totfact> 0.76432986E+06</totfact>
</mgrwt>
</event>
<event>
 4    1  0.2736402E+004  0.2943077E+02  0.7546771E-02  0.1604467E+00
         21   -1    0    0  501  502  0.00000000000E+00  0.00000000000E+00  0.90744642371E+02  0.90744642371E+02  0.00000000000E+00 0.  1.
         21   -1    0    0  502  503 -0.00000000000E+00 -0.00000000000E+00 -0.10843657074E+02  0.10843657074E+02  0.00000000000E+00 0. -1.
          2    1    1    2  501    0  0.28504809457E+02  0.73243280393E+01  0.57527718205E+02  0.64618946953E+02  0.00000000000E+00 0. -1.
         -2    1    1    2    0  503 -0.28504809457E+02 -0.73243280393E+01  0.22373267091E+02  0.36969352493E+02  0.00000000000E+00 0.  1.
<mgrwt>
<rscale>  2 0.29430765E+02</rscale>
<asrwt>0</asrwt>
<pdfrwt beam="1">  1       21 0.13960714E-01 0.29430765E+02</pdfrwt>
<pdfrwt beam="2">  1       21 0.16682550E-02 0.29430765E+02</pdfrwt>
<totfact> 0.55874592E+07</totfact>
</mgrwt>
</event>
<event>
 4    1  0.2736402E+004  0.2758303E+02  0.7546771E-02  0.1626452E+00
         21   -1    0    0  501  502  0.00000000000E+00  0.00000000000E+00  0.13198248675E+01  0.13198248675E+01  0.00000000000E+00 0.  1.
         21   -1    0    0  502  503 -0.00000000000E+00 -0.00000000000E+00 -0.17291438587E+04  0.17291438587E+04  0.00000000000E+00 0. -1.
          2    1    1    2  501    0 -0.40178064716E+01  0.27288842782E+02 -0.15747670797E+03  0.15987412944E+03  0.00000000000E+00 0.  1.
         -2    1    1    2    0  503  0.40178064716E+01 -0.27288842782E+02 -0.15703473259E+04  0.15705895542E+04  0.00000000000E+00 0. -1.
<mgrwt>
<rscale>  2 0.27583033E+02</rscale>
<asrwt>0</asrwt>
<pdfrwt beam="1">  1       21 0.20304782E-03 0.27583033E+02</pdfrwt>
<pdfrwt beam="2">  1       21 0.26602496E+00 0.27583033E+02</pdfrwt>
<totfact> 0.25771882E+06</totfact>
</mgrwt>
</event>
<event>
 4    1  0.2736402E+004  0.2469949E+02  0.7546771E-02  0.1665356E+00
         21   -1    0    0  503  502  0.00000000000E+00  0.00000000000E+00  0.21068241180E+01  0.21068241180E+01  0.00000000000E+00 0.  1.
         21   -1    0    0  501  503 -0.00000000000E+00 -0.00000000000E+00 -0.28970175060E+03  0.28970175060E+03  0.00000000000E+00 0. -1.
          2    1    1    2  501    0  0.12023184665E+02  0.21575633357E+02 -0.14064070162E+03  0.14279310864E+03  0.00000000000E+00 0. -1.
         -2    1    1    2    0  502 -0.12023184665E+02 -0.21575633357E+02 -0.14695422486E+03  0.14901546607E+03  0.00000000000E+00 0.  1.
<mgrwt>
<rscale>  2 0.24699492E+02</rscale>
<asrwt>0</asrwt>
<pdfrwt beam="1">  1       21 0.32412666E-03 0.24699492E+02</pdfrwt>
<pdfrwt beam="2">  1       21 0.44569517E-01 0.24699492E+02</pdfrwt>
<totfact> 0.77189279E+07</totfact>
</mgrwt>
</event>
<event>
 4    1  0.2736402E+004  0.2160037E+02  0.7546771E-02  0.1715256E+00
         21   -1    0    0  501  502  0.00000000000E+00  0.00000000000E+00  0.18766082688E+01  0.18766082688E+01  0.00000000000E+00 0. -1.
         21   -1    0    0  502  503 -0.00000000000E+00 -0.00000000000E+00 -0.35748084174E+03  0.35748084174E+03  0.00000000000E+00 0.  1.
          2    1    1    2  501    0  0.68243675452E+01 -0.20494001242E+02 -0.78652390593E+02  0.81564542697E+02  0.00000000000E+00 0. -1.
         -2    1    1    2    0  503 -0.68243675452E+01  0.20494001242E+02 -0.27695184288E+03  0.27779290731E+03  0.00000000000E+00 0.  1.
<mgrwt>
<rscale>  2 0.21600372E+02</rscale>
<asrwt>0</asrwt>
<pdfrwt beam="1">  1       21 0.28870919E-03 0.21600372E+02</pdfrwt>
<pdfrwt beam="2">  1       21 0.54997009E-01 0.21600372E+02</pdfrwt>
<totfact> 0.58788286E+07</totfact>
</mgrwt>
</event>
<event>
 4    1  0.2736402E+004  0.2145035E+02  0.7546771E-02  0.1717935E+00
         21   -1    0    0  501  502  0.00000000000E+00  0.00000000000E+00  0.14845757088E+01  0.14845757088E+01  0.00000000000E+00 0. -1.
         21   -1    0    0  502  503 -0.00000000000E+00 -0.00000000000E+00 -0.10016543657E+04  0.10016543657E+04  0.00000000000E+00 0.  1.
          2    1    1    2  501    0 -0.21066967951E+02 -0.40373870613E+01 -0.83274986127E+02  0.85993261058E+02  0.00000000000E+00 0. -1.
         -2    1    1    2    0  503  0.21066967951E+02  0.40373870613E+01 -0.91689480381E+03  0.91714568030E+03  0.00000000000E+00 0.  1.
<mgrwt>
<rscale>  2 0.21450353E+02</rscale>
<asrwt>0</asrwt>
<pdfrwt beam="1">  1       21 0.22839591E-03 0.21450353E+02</pdfrwt>
<pdfrwt beam="2">  1       21 0.15410091E+00 0.21450353E+02</pdfrwt>
<totfact> 0.89636908E+06</totfact>
</mgrwt>
</event>
<event>
 4    1  0.2736402E+004  0.2716749E+02  0.7546771E-02  0.1631689E+00
         21   -1    0    0  501  502  0.00000000000E+00  0.00000000000E+00  0.68699985408E+01  0.68699985408E+01  0.00000000000E+00 0.  1.
         21   -1    0    0  502  503 -0.00000000000E+00 -0.00000000000E+00 -0.41942670751E+03  0.41942670751E+03  0.00000000000E+00 0. -1.
          2    1    1    2  501    0 -0.18221950413E+01  0.27106308486E+02 -0.22444256807E+02  0.35239424203E+02  0.00000000000E+00 0.  1.
         -2    1    1    2    0  503  0.18221950413E+01 -0.27106308486E+02 -0.39011245216E+03  0.39105728185E+03  0.00000000000E+00 0. -1.
<mgrwt>
<rscale>  2 0.27167487E+02</rscale>
<asrwt>0</asrwt>
<pdfrwt beam="1">  1       21 0.10569228E-02 0.27167487E+02</pdfrwt>
<pdfrwt beam="2">  1       21 0.64527187E-01 0.27167487E+02</pdfrwt>
<totfact> 0.65253521E+06</totfact>
</mgrwt>
</event>
<event>
 4    1  0.2736402E+004  0.2321331E+02  0.7546771E-02  0.1688076E+00
         21   -1    0    0  503  502  0.00000000000E+00  0.00000000000E+00  0.10902034525E+02  0.10902034525E+02  0.00000000000E+00 0.  1.
         21   -1    0    0  501  503 -0.00000000000E+00 -0.00000000000E+00 -0.22253591402E+03  0.22253591402E+03  0.00000000000E+00 0. -1.
          2    1    1    2  501    0  0.11423551876E+02  0.20207927447E+02 -0.20876087764E+03  0.21004752296E+03  0.00000000000E+00 0. -1.
         -2    1    1    2    0  502 -0.11423551876E+02 -0.20207927447E+02 -0.28730018515E+01  0.23390425580E+02  0.00000000000E+00 0.  1.
<mgrwt>
<rscale>  2 0.23213312E+02</rscale>
<asrwt>0</asrwt>
<pdfrwt beam="1">  1       21 0.16772360E-02 0.23213312E+02</pdfrwt>
<pdfrwt beam="2">  1       21 0.34236295E-01 0.23213312E+02</pdfrwt>
<totfact> 0.10759450E+07</totfact>
</mgrwt>
</event>
<event>
 4    1  0.2736402E+004  0.4152433E+02  0.7546771E-02  0.1497285E+00
         21   -1    0    0  501  502  0.00000000000E+00  0.00000000000E+00  0.71210079603E+02  0.71210079603E+02  0.00000000000E+00 0.  1.
         21   -1    0    0  502  503 -0.00000000000E+00 -0.00000000000E+00 -0.30646892452E+02  0.30646892452E+02  0.00000000000E+00 0. -1.
          2    1    1    2  501    0 -0.37410532877E+02  0.18020044788E+02  0.43614876554E+02  0.60220656266E+02  0.00000000000E+00 0.  1.
         -2    1    1    2    0  503  0.37410532877E+02 -0.18020044788E+02 -0.30516894026E+01  0.41636315789E+02  0.00000000000E+00 0. -1.
<mgrwt>
<rscale>  2 0.41524330E+02</rscale>
<asrwt>0</asrwt>
<pdfrwt beam="1">  1       21 0.10955397E-01 0.41524330E+02</pdfrwt>
<pdfrwt beam="2">  1       21 0.47149065E-02 0.41524330E+02</pdfrwt>
<totfact> 0.17495152E+07</totfact>
</mgrwt>
</event>
<event>
 4    1  0.2736402E+004  0.2088950E+02  0.7546771E-02  0.1728197E+00
         21   -1    0    0  501  502  0.00000000000E+00  0.00000000000E+00  0.15047446822E+03  0.15047446822E+03  0.00000000000E+00 0. -1.
         21   -1    0    0  502  503 -0.00000000000E+00 -0.00000000000E+00 -0.10857003825E+02  0.10857003825E+02  0.00000000000E+00 0.  1.
          2    1    1    2  501    0  0.14812504463E+02  0.14729596821E+02  0.13886605402E+03  0.14042845961E+03  0.00000000000E+00 0. -1.
         -2    1    1    2    0  503 -0.14812504463E+02 -0.14729596821E+02  0.75141037380E+00  0.20903012427E+02  0.00000000000E+00 0.  1.
<mgrwt>
<rscale>  2 0.20889502E+02</rscale>
<asrwt>0</asrwt>
<pdfrwt beam="1">  1       21 0.23149917E-01 0.20889502E+02</pdfrwt>
<pdfrwt beam="2">  1       21 0.16703084E-02 0.20889502E+02</pdfrwt>
<totfact> 0.21453666E+07</totfact>
</mgrwt>
</event>
<event>
 4    1  0.2736402E+004  0.3608450E+02  0.7546771E-02  0.1539176E+00
         21   -1    0    0  503  502  0.00000000000E+00  0.00000000000E+00  0.23511249123E+03  0.23511249123E+03  0.00000000000E+00 0.  1.
         21   -1    0    0  501  503 -0.00000000000E+00 -0.00000000000E+00 -0.11412776991E+02  0.11412776991E+02  0.00000000000E+00 0. -1.
          2    1    1    2  501    0 -0.30531097953E+02 -0.19233916761E+02  0.23414605561E+02  0.43015523358E+02  0.00000000000E+00 0. -1.
         -2    1    1    2    0  502  0.30531097953E+02  0.19233916761E+02  0.20028510867E+03  0.20350974486E+03  0.00000000000E+00 0.  1.
<mgrwt>
<rscale>  2 0.36084505E+02</rscale>
<asrwt>0</asrwt>
<pdfrwt beam="1">  1       21 0.36171149E-01 0.36084505E+02</pdfrwt>
<pdfrwt beam="2">  1       21 0.17558120E-02 0.36084505E+02</pdfrwt>
<totfact> 0.97106024E+06</totfact>
</mgrwt>
</event>
<event>
 4    1  0.2736402E+004  0.3094423E+02  0.7546771E-02  0.1587880E+00
         21   -1    0    0  503  502  0.00000000000E+00  0.00000000000E+00  0.78304780851E+01  0.78304780851E+01  0.00000000000E+00 0. -1.
         21   -1    0    0  501  503 -0.00000000000E+00 -0.00000000000E+00 -0.12317147782E+03  0.12317147782E+03  0.00000000000E+00 0.  1.
          2    1    1    2  501    0 -0.20778769713E+02 -0.22930066805E+02 -0.63229236093E+02  0.70395181165E+02  0.00000000000E+00 0. -1.
         -2    1    1    2    0  502  0.20778769713E+02  0.22930066805E+02 -0.52111763640E+02  0.60606774738E+02  0.00000000000E+00 0.  1.
<mgrwt>
<rscale>  2 0.30944228E+02</rscale>
<asrwt>0</asrwt>
<pdfrwt beam="1">  1       21 0.12046891E-02 0.30944228E+02</pdfrwt>
<pdfrwt beam="2">  1       21 0.18949456E-01 0.30944228E+02</pdfrwt>
<totfact> 0.54767407E+07</totfact>
</mgrwt>
</event>
<event>
 4    1  0.2736402E+004  0.2174939E+02  0.7546771E-02  0.1712623E+00
         21   -1    0    0  503  502  0.00000000000E+00  0.00000000000E+00  0.29767854423E+03  0.29767854423E+03  0.00000000000E+00 0. -1.
         21   -1    0    0  501  503 -0.00000000000E+00 -0.00000000000E+00 -0.30852245301E+01  0.30852245301E+01  0.00000000000E+00 0.  1.
          2    1    1    2  501    0 -0.81758880793E+01 -0.20154177897E+02  0.42574542133E+02  0.47808238521E+02  0.00000000000E+00 0.  1.
         -2    1    1    2    0  502  0.81758880793E+01  0.20154177897E+02  0.25201877756E+03  0.25295553024E+03  0.00000000000E+00 0. -1.
<mgrwt>
<rscale>  2 0.21749392E+02</rscale>
<asrwt>0</asrwt>
<pdfrwt beam="1">  1       21 0.45796676E-01 0.21749392E+02</pdfrwt>
<pdfrwt beam="2">  1       21 0.47465016E-03 0.21749392E+02</pdfrwt>
<totfact> 0.40617354E+07</totfact>
</mgrwt>
</event>
<event>
 4    1  0.2736402E+004  0.2031844E+02  0.7546771E-02  0.1739069E+00
         21   -1    0    0  501  502  0.00000000000E+00  0.00000000000E+00  0.18970049211E+01  0.18970049211E+01  0.00000000000E+00 0. -1.
         21   -1    0    0  502  503 -0.00000000000E+00 -0.00000000000E+00 -0.45714606703E+03  0.45714606703E+03  0.00000000000E+00 0.  1.
          2    1    1    2  501    0  0.11232820487E+02 -0.16931119444E+02 -0.61487594533E+02  0.64757728057E+02  0.00000000000E+00 0. -1.
         -2    1    1    2    0  503 -0.11232820487E+02  0.16931119444E+02 -0.39376146758E+03  0.39428534390E+03  0.00000000000E+00 0.  1.
<mgrwt>
<rscale>  2 0.20318441E+02</rscale>
<asrwt>0</asrwt>
<pdfrwt beam="1">  1       21 0.29184644E-03 0.20318441E+02</pdfrwt>
<pdfrwt beam="2">  1       21 0.70330279E-01 0.20318441E+02</pdfrwt>
<totfact> 0.34856894E+07</totfact>
</mgrwt>
</event>
<event>
 4    1  0.2736402E+004  0.2006517E+02  0.7546771E-02  0.1744035E+00
         21   -1    0    0  503  502  0.00000000000E+00  0.00000000000E+00  0.29992981276E+02  0.29992981276E+02  0.00000000000E+00 0. -1.
         21   -1    0    0  501  503 -0.00000000000E+00 -0.00000000000E+00 -0.13937719913E+02  0.13937719913E+02  0.00000000000E+00 0.  1.
          2    1    1    2  501    0 -0.10664384942E+02  0.16996521715E+02  0.38085707107E+01  0.20423419583E+02  0.00000000000E+00 0.  1.
         -2    1    1    2    0  502  0.10664384942E+02 -0.16996521715E+02  0.12246690653E+02  0.23507281607E+02  0.00000000000E+00 0. -1.
<mgrwt>
<rscale>  2 0.20065165E+02</rscale>
<asrwt>0</asrwt>
<pdfrwt beam="1">  1       21 0.46143048E-02 0.20065165E+02</pdfrwt>
<pdfrwt beam="2">  1       21 0.21442646E-02 0.20065165E+02</pdfrwt>
<totfact> 0.20948251E+08</totfact>
</mgrwt>
</event>
<event>
 4    1  0.2736402E+004  0.2007187E+02  0.7546771E-02  0.1743903E+00
         21   -1    0    0  501  502  0.00000000000E+00  0.00000000000E+00  0.42456164784E+02  0.42456164784E+02  0.00000000000E+00 0.  1.
         21   -1    0    0  502  503 -0.00000000000E+00 -0.00000000000E+00 -0.11105937157E+02  0.11105937157E+02  0.00000000000E+00 0. -1.
          2    1    1    2  501    0 -0.17798615378E+02 -0.92784371325E+01  0.25892826643E+02  0.32761541120E+02  0.00000000000E+00 0.  1.
         -2    1    1    2    0  503  0.17798615378E+02  0.92784371325E+01  0.54574009836E+01  0.20800560822E+02  0.00000000000E+00 0. -1.
<mgrwt>
<rscale>  2 0.20071873E+02</rscale>
<asrwt>0</asrwt>
<pdfrwt beam="1">  1       21 0.65317176E-02 0.20071873E+02</pdfrwt>
<pdfrwt beam="2">  1       21 0.17086057E-02 0.20071873E+02</pdfrwt>
<totfact> 0.17041615E+08</totfact>
</mgrwt>
</event>
<event>
 4    1  0.2736402E+004  0.2878482E+02  0.7546771E-02  0.1611923E+00
         21   -1    0    0  501  502  0.00000000000E+00  0.00000000000E+00  0.23950045378E+03  0.23950045378E+03  0.00000000000E+00 0.  1.
         21   -1    0    0  502  503 -0.00000000000E+00 -0.00000000000E+00 -0.37435279212E+01  0.37435279212E+01  0.00000000000E+00 0. -1.
          2    1    1    2  501    0 -0.12476022264E+01 -0.28757768960E+02  0.15137558513E+03  0.15408807079E+03  0.00000000000E+00 0.  1.
         -2    1    1    2    0  503  0.12476022264E+01  0.28757768960E+02  0.84381340729E+02  0.89155910909E+02  0.00000000000E+00 0. -1.
<mgrwt>
<rscale>  2 0.28784819E+02</rscale>
<asrwt>0</asrwt>
<pdfrwt beam="1">  1       21 0.36846212E-01 0.28784819E+02</pdfrwt>
<pdfrwt beam="2">  1       21 0.57592756E-03 0.28784819E+02</pdfrwt>
<totfact> 0.49073015E+07</totfact>
</mgrwt>
</event>
<event>
 4    1  0.2736402E+004  0.6343530E+02  0.7546771E-02  0.1383956E+00
         21   -1    0    0  501  502  0.00000000000E+00  0.00000000000E+00  0.78648880226E+01  0.78648880226E+01  0.00000000000E+00 0.  1.
         21   -1    0    0  502  503 -0.00000000000E+00 -0.00000000000E+00 -0.12632512708E+04  0.12632512708E+04  0.00000000000E+00 0. -1.
          2    1    1    2  501    0 -0.13177905986E+02 -0.62051427766E+02 -0.13745703403E+03  0.15138848403E+03  0.00000000000E+00 0.  1.
         -2    1    1    2    0  503  0.13177905986E+02  0.62051427766E+02 -0.11179293487E+04  0.11197276748E+04  0.00000000000E+00 0. -1.
<mgrwt>
<rscale>  2 0.63435297E+02</rscale>
<asrwt>0</asrwt>
<pdfrwt beam="1">  1       21 0.12099834E-02 0.63435297E+02</pdfrwt>
<pdfrwt beam="2">  1       21 0.19434625E+00 0.63435297E+02</pdfrwt>
<totfact> 0.42892111E+05</totfact>
</mgrwt>
</event>
<event>
 4    1  0.2736402E+004  0.2212283E+02  0.7546771E-02  0.1706136E+00
         21   -1    0    0  501  502  0.00000000000E+00  0.00000000000E+00  0.15158926721E+03  0.15158926721E+03  0.00000000000E+00 0. -1.
         21   -1    0    0  502  503 -0.00000000000E+00 -0.00000000000E+00 -0.13840099968E+02  0.13840099968E+02  0.00000000000E+00 0.  1.
          2    1    1    2  501    0  0.10449709998E+02 -0.19499313517E+02  0.14130176469E+03  0.14302310432E+03  0.00000000000E+00 0. -1.
         -2    1    1    2    0  503 -0.10449709998E+02  0.19499313517E+02 -0.35525974424E+01  0.22406262858E+02  0.00000000000E+00 0.  1.
<mgrwt>
<rscale>  2 0.22122831E+02</rscale>
<asrwt>0</asrwt>
<pdfrwt beam="1">  1       21 0.23321425E-01 0.22122831E+02</pdfrwt>
<pdfrwt beam="2">  1       21 0.21292463E-02 0.22122831E+02</pdfrwt>
<totfact> 0.14797252E+07</totfact>
</mgrwt>
</event>
<event>
 4    1  0.2736402E+004  0.3334833E+02  0.7546771E-02  0.1563777E+00
         21   -1    0    0  503  502  0.00000000000E+00  0.00000000000E+00  0.11236183145E+01  0.11236183145E+01  0.00000000000E+00 0. -1.
         21   -1    0    0  501  503 -0.00000000000E+00 -0.00000000000E+00 -0.20788596598E+04  0.20788596598E+04  0.00000000000E+00 0.  1.
          2    1    1    2  501    0 -0.30843038844E+02  0.12681400789E+02 -0.17916190151E+04  0.17919293530E+04  0.00000000000E+00 0.  1.
         -2    1    1    2    0  502  0.30843038844E+02 -0.12681400789E+02 -0.28611702648E+03  0.28805392518E+03  0.00000000000E+00 0. -1.
<mgrwt>
<rscale>  2 0.33348328E+02</rscale>
<asrwt>0</asrwt>
<pdfrwt beam="1">  1       21 0.17286654E-03 0.33348328E+02</pdfrwt>
<pdfrwt beam="2">  1       21 0.31982052E+00 0.33348328E+02</pdfrwt>
<totfact> 0.17452593E+06</totfact>
</mgrwt>
</event>
<event>
 4    1  0.2736402E+004  0.2199649E+02  0.7546771E-02  0.1708313E+00
         21   -1    0    0  501  502  0.00000000000E+00  0.00000000000E+00  0.51914632307E+03  0.51914632307E+03  0.00000000000E+00 0.  1.
         21   -1    0    0  502  503 -0.00000000000E+00 -0.00000000000E+00 -0.15512558508E+01  0.15512558508E+01  0.00000000000E+00 0. -1.
          2    1    1    2  501    0 -0.19276640808E+02 -0.10595132862E+02  0.42329075096E+03  0.42386189446E+03  0.00000000000E+00 0.  1.
         -2    1    1    2    0  503  0.19276640808E+02  0.10595132862E+02  0.94304316261E+02  0.96835684469E+02  0.00000000000E+00 0. -1.
<mgrwt>
<rscale>  2 0.21996493E+02</rscale>
<asrwt>0</asrwt>
<pdfrwt beam="1">  1       21 0.79868526E-01 0.21996493E+02</pdfrwt>
<pdfrwt beam="2">  1       21 0.23865516E-03 0.21996493E+02</pdfrwt>
<totfact> 0.36514840E+07</totfact>
</mgrwt>
</event>
<event>
 4    1  0.2736402E+004  0.3389349E+02  0.7546771E-02  0.1558652E+00
         21   -1    0    0  501  502  0.00000000000E+00  0.00000000000E+00  0.23462360902E+02  0.23462360902E+02  0.00000000000E+00 0. -1.
         21   -1    0    0  502  503 -0.00000000000E+00 -0.00000000000E+00 -0.13921472854E+03  0.13921472854E+03  0.00000000000E+00 0.  1.
          2    1    1    2  501    0  0.33298654302E+02 -0.63220428634E+01  0.76151017090E+01  0.34738427977E+02  0.00000000000E+00 0. -1.
         -2    1    1    2    0  503 -0.33298654302E+02  0.63220428634E+01 -0.12336746934E+03  0.12793866146E+03  0.00000000000E+00 0.  1.
<mgrwt>
<rscale>  2 0.33893489E+02</rscale>
<asrwt>0</asrwt>
<pdfrwt beam="1">  1       21 0.36095939E-02 0.33893489E+02</pdfrwt>
<pdfrwt beam="2">  1       21 0.21417651E-01 0.33893489E+02</pdfrwt>
<totfact> 0.81228833E+06</totfact>
</mgrwt>
</event>
<event>
 4    1  0.2736402E+004  0.2047445E+02  0.7546771E-02  0.1736054E+00
         21   -1    0    0  501  502  0.00000000000E+00  0.00000000000E+00  0.88657772862E+03  0.88657772862E+03  0.00000000000E+00 0. -1.
         21   -1    0    0  502  503 -0.00000000000E+00 -0.00000000000E+00 -0.18824083088E+01  0.18824083088E+01  0.00000000000E+00 0.  1.
          2    1    1    2  501    0  0.16385169143E+02  0.12277183312E+02  0.82675813546E+03  0.82701161875E+03  0.00000000000E+00 0. -1.
         -2    1    1    2    0  503 -0.16385169143E+02 -0.12277183312E+02  0.57937184854E+02  0.61448518182E+02  0.00000000000E+00 0.  1.
<mgrwt>
<rscale>  2 0.20474447E+02</rscale>
<asrwt>0</asrwt>
<pdfrwt beam="1">  1       21 0.13639624E+00 0.20474447E+02</pdfrwt>
<pdfrwt beam="2">  1       21 0.28960199E-03 0.20474447E+02</pdfrwt>
<totfact> 0.83979050E+06</totfact>
</mgrwt>
</event>
<event>
 4    1  0.2736402E+004  0.2055960E+02  0.7546771E-02  0.1734423E+00
         21   -1    0    0  503  502  0.00000000000E+00  0.00000000000E+00  0.11560112355E+02  0.11560112355E+02  0.00000000000E+00 0.  1.
         21   -1    0    0  501  503 -0.00000000000E+00 -0.00000000000E+00 -0.73308532336E+02  0.73308532336E+02  0.00000000000E+00 0. -1.
          2    1    1    2  501    0  0.20551337960E+02 -0.58276897615E+00 -0.60916265304E+02  0.64292211738E+02  0.00000000000E+00 0.  1.
         -2    1    1    2    0  502 -0.20551337960E+02  0.58276897615E+00 -0.83215467720E+00  0.20576432952E+02  0.00000000000E+00 0. -1.
<mgrwt>
<rscale>  2 0.20559599E+02</rscale>
<asrwt>0</asrwt>
<pdfrwt beam="1">  1       21 0.17784789E-02 0.20559599E+02</pdfrwt>
<pdfrwt beam="2">  1       21 0.11278236E-01 0.20559599E+02</pdfrwt>
<totfact> 0.66283198E+07</totfact>
</mgrwt>
</event>
<event>
 4    1  0.2736402E+004  0.2251636E+02  0.7546771E-02  0.1699472E+00
         21   -1    0    0  501  502  0.00000000000E+00  0.00000000000E+00  0.14092900972E+03  0.14092900972E+03  0.00000000000E+00 0. -1.
         21   -1    0    0  502  503 -0.00000000000E+00 -0.00000000000E+00 -0.48906883166E+02  0.48906883166E+02  0.00000000000E+00 0.  1.
          2    1    1    2  501    0 -0.19251435268E+02 -0.11677697676E+02  0.13737138292E+03  0.13920446554E+03  0.00000000000E+00 0. -1.
         -2    1    1    2    0  503  0.19251435268E+02  0.11677697676E+02 -0.45349256358E+02  0.50631427347E+02  0.00000000000E+00 0.  1.
<mgrwt>
<rscale>  2 0.22516358E+02</rscale>
<asrwt>0</asrwt>
<pdfrwt beam="1">  1       21 0.21681386E-01 0.22516358E+02</pdfrwt>
<pdfrwt beam="2">  1       21 0.75241359E-02 0.22516358E+02</pdfrwt>
<totfact> 0.23082261E+06</totfact>
</mgrwt>
</event>
<event>
 4    1  0.2736402E+004  0.2036612E+02  0.7546771E-02  0.1738144E+00
         21   -1    0    0  501  502  0.00000000000E+00  0.00000000000E+00  0.95625799806E+02  0.95625799806E+02  0.00000000000E+00 0.  1.
         21   -1    0    0  502  503 -0.00000000000E+00 -0.00000000000E+00 -0.21083180136E+02  0.21083180136E+02  0.00000000000E+00 0. -1.
          2    1    1    2  501    0  0.16699911971E+02  0.11657262914E+02  0.89277776851E+02  0.91571285226E+02  0.00000000000E+00 0.  1.
         -2    1    1    2    0  503 -0.16699911971E+02 -0.11657262914E+02 -0.14735157181E+02  0.25137694716E+02  0.00000000000E+00 0. -1.
<mgrwt>
<rscale>  2 0.20366120E+02</rscale>
<asrwt>0</asrwt>
<pdfrwt beam="1">  1       21 0.14711661E-01 0.20366120E+02</pdfrwt>
<pdfrwt beam="2">  1       21 0.32435662E-02 0.20366120E+02</pdfrwt>
<totfact> 0.16819209E+07</totfact>
</mgrwt>
</event>
<event>
 4    1  0.2736402E+004  0.2078924E+02  0.7546771E-02  0.1730074E+00
         21   -1    0    0  501  502  0.00000000000E+00  0.00000000000E+00  0.71650573170E+02  0.71650573170E+02  0.00000000000E+00 0.  1.
         21   -1    0    0  502  503 -0.00000000000E+00 -0.00000000000E+00 -0.68699563701E+01  0.68699563701E+01  0.00000000000E+00 0. -1.
          2    1    1    2  501    0 -0.19888821593E+02 -0.60520527784E+01  0.46102291962E+02  0.50572857259E+02  0.00000000000E+00 0.  1.
         -2    1    1    2    0  503  0.19888821593E+02  0.60520527784E+01  0.18678324838E+02  0.27947672281E+02  0.00000000000E+00 0. -1.
<mgrwt>
<rscale>  2 0.20789242E+02</rscale>
<asrwt>0</asrwt>
<pdfrwt beam="1">  1       21 0.11023165E-01 0.20789242E+02</pdfrwt>
<pdfrwt beam="2">  1       21 0.10569164E-02 0.20789242E+02</pdfrwt>
<totfact> 0.15155143E+08</totfact>
</mgrwt>
</event>
<event>
 4    1  0.2736402E+004  0.2720057E+02  0.7546771E-02  0.1631268E+00
         21   -1    0    0  503  502  0.00000000000E+00  0.00000000000E+00  0.15193415633E+03  0.15193415633E+03  0.00000000000E+00 0. -1.
         21   -1    0    0  501  503 -0.00000000000E+00 -0.00000000000E+00 -0.67926311155E+01  0.67926311155E+01  0.00000000000E+00 0.  1.
          2    1    1    2  501    0  0.23752326188E+02 -0.13255103213E+02  0.30344240881E+02  0.40750996493E+02  0.00000000000E+00 0.  1.
         -2    1    1    2    0  502 -0.23752326188E+02  0.13255103213E+02  0.11479728433E+03  0.11797579095E+03  0.00000000000E+00 0. -1.
<mgrwt>
<rscale>  2 0.27200565E+02</rscale>
<asrwt>0</asrwt>
<pdfrwt beam="1">  1       21 0.23374483E-01 0.27200565E+02</pdfrwt>
<pdfrwt beam="2">  1       21 0.10450203E-02 0.27200565E+02</pdfrwt>
<totfact> 0.45570603E+07</totfact>
</mgrwt>
</event>
<event>
 4    1  0.2736402E+004  0.2470484E+02  0.7546771E-02  0.1665278E+00
         21   -1    0    0  503  502  0.00000000000E+00  0.00000000000E+00  0.48416546632E+02  0.48416546632E+02  0.00000000000E+00 0. -1.
         21   -1    0    0  501  503 -0.00000000000E+00 -0.00000000000E+00 -0.15920695638E+02  0.15920695638E+02  0.00000000000E+00 0.  1.
          2    1    1    2  501    0 -0.24365317152E+02 -0.40817090746E+01  0.15692547997E+01  0.24754627638E+02  0.00000000000E+00 0.  1.
         -2    1    1    2    0  502  0.24365317152E+02  0.40817090746E+01  0.30926596195E+02  0.39582614632E+02  0.00000000000E+00 0. -1.
<mgrwt>
<rscale>  2 0.24704838E+02</rscale>
<asrwt>0</asrwt>
<pdfrwt beam="1">  1       21 0.74486994E-02 0.24704838E+02</pdfrwt>
<pdfrwt beam="2">  1       21 0.24493378E-02 0.24704838E+02</pdfrwt>
<totfact> 0.84347213E+07</totfact>
</mgrwt>
</event>
<event>
 4    1  0.2736402E+004  0.2001101E+02  0.7546771E-02  0.1745109E+00
         21   -1    0    0  501  502  0.00000000000E+00  0.00000000000E+00  0.18995432795E+03  0.18995432795E+03  0.00000000000E+00 0. -1.
         21   -1    0    0  502  503 -0.00000000000E+00 -0.00000000000E+00 -0.26391787837E+01  0.26391787837E+01  0.00000000000E+00 0.  1.
          2    1    1    2  501    0 -0.10806268489E+02 -0.16842356449E+02  0.13685538024E+03  0.13831064858E+03  0.00000000000E+00 0. -1.
         -2    1    1    2    0  503  0.10806268489E+02  0.16842356449E+02  0.50459768920E+02  0.54282858150E+02  0.00000000000E+00 0.  1.
<mgrwt>
<rscale>  2 0.20011007E+02</rscale>
<asrwt>0</asrwt>
<pdfrwt beam="1">  1       21 0.29223732E-01 0.20011007E+02</pdfrwt>
<pdfrwt beam="2">  1       21 0.40602765E-03 0.20011007E+02</pdfrwt>
<totfact> 0.11499069E+08</totfact>
</mgrwt>
</event>
<event>
 4    1  0.2736402E+004  0.3225810E+02  0.7546771E-02  0.1574391E+00
         21   -1    0    0  501  502  0.00000000000E+00  0.00000000000E+00  0.54477839177E+02  0.54477839177E+02  0.00000000000E+00 0.  1.
         21   -1    0    0  502  503 -0.00000000000E+00 -0.00000000000E+00 -0.40689056879E+02  0.40689056879E+02  0.00000000000E+00 0. -1.
          2    1    1    2  501    0  0.28732862492E+02 -0.14663143825E+02  0.41553958842E+02  0.52605291266E+02  0.00000000000E+00 0.  1.
         -2    1    1    2    0  503 -0.28732862492E+02  0.14663143825E+02 -0.27765176544E+02  0.42561604790E+02  0.00000000000E+00 0. -1.
<mgrwt>
<rscale>  2 0.32258102E+02</rscale>
<asrwt>0</asrwt>
<pdfrwt beam="1">  1       21 0.83812060E-02 0.32258102E+02</pdfrwt>
<pdfrwt beam="2">  1       21 0.62598549E-02 0.32258102E+02</pdfrwt>
<totfact> 0.16602353E+07</totfact>
</mgrwt>
</event>
<event>
 4    1  0.2736402E+004  0.2651869E+02  0.7546771E-02  0.1640100E+00
         21   -1    0    0  503  502  0.00000000000E+00  0.00000000000E+00  0.69407065582E+02  0.69407065582E+02  0.00000000000E+00 0.  1.
         21   -1    0    0  501  503 -0.00000000000E+00 -0.00000000000E+00 -0.14543834193E+02  0.14543834193E+02  0.00000000000E+00 0. -1.
          2    1    1    2  501    0  0.23754115677E+02  0.11789110436E+02  0.43131349962E+01  0.26867159693E+02  0.00000000000E+00 0. -1.
         -2    1    1    2    0  502 -0.23754115677E+02 -0.11789110436E+02  0.50550096393E+02  0.57083740083E+02  0.00000000000E+00 0.  1.
<mgrwt>
<rscale>  2 0.26518694E+02</rscale>
<asrwt>0</asrwt>
<pdfrwt beam="1">  1       21 0.10678010E-01 0.26518694E+02</pdfrwt>
<pdfrwt beam="2">  1       21 0.22375130E-02 0.26518694E+02</pdfrwt>
<totfact> 0.54517263E+07</totfact>
</mgrwt>
</event>
<event>
 4    1  0.2736402E+004  0.2223754E+02  0.7546771E-02  0.1704176E+00
         21   -1    0    0  501  502  0.00000000000E+00  0.00000000000E+00  0.14098962717E+04  0.14098962717E+04  0.00000000000E+00 0.  1.
         21   -1    0    0  502  503 -0.00000000000E+00 -0.00000000000E+00 -0.38262060444E+00  0.38262060444E+00  0.00000000000E+00 0. -1.
          2    1    1    2  501    0  0.13048986075E+02 -0.18006451078E+02  0.90829591533E+03  0.90856809218E+03  0.00000000000E+00 0.  1.
         -2    1    1    2    0  503 -0.13048986075E+02  0.18006451078E+02  0.50121773577E+03  0.50171080013E+03  0.00000000000E+00 0. -1.
<mgrwt>
<rscale>  2 0.22237543E+02</rscale>
<asrwt>0</asrwt>
<pdfrwt beam="1">  1       21 0.21690296E+00 0.22237543E+02</pdfrwt>
<pdfrwt beam="2">  1       21 0.58865837E-04 0.22237543E+02</pdfrwt>
<totfact> 0.26524529E+07</totfact>
</mgrwt>
</event>
<event>
 4    1  0.2736402E+004  0.2764167E+02  0.7546771E-02  0.1625722E+00
         21   -1    0    0  501  502  0.00000000000E+00  0.00000000000E+00  0.25436387904E+03  0.25436387904E+03  0.00000000000E+00 0. -1.
         21   -1    0    0  502  503 -0.00000000000E+00 -0.00000000000E+00 -0.32146140897E+01  0.32146140897E+01  0.00000000000E+00 0.  1.
          2    1    1    2  501    0 -0.11810360213E+02 -0.24991544809E+02  0.15855458393E+03  0.16094600960E+03  0.00000000000E+00 0. -1.
         -2    1    1    2    0  503  0.11810360213E+02  0.24991544809E+02  0.92594681022E+02  0.96632483533E+02  0.00000000000E+00 0.  1.
<mgrwt>
<rscale>  2 0.27641670E+02</rscale>
<asrwt>0</asrwt>
<pdfrwt beam="1">  1       21 0.39132889E-01 0.27641670E+02</pdfrwt>
<pdfrwt beam="2">  1       21 0.49455621E-03 0.27641670E+02</pdfrwt>
<totfact> 0.54456841E+07</totfact>
</mgrwt>
</event>
<event>
 4    1  0.2736402E+004  0.2551757E+02  0.7546771E-02  0.1653677E+00
         21   -1    0    0  501  502  0.00000000000E+00  0.00000000000E+00  0.12204164626E+01  0.12204164626E+01  0.00000000000E+00 0.  1.
         21   -1    0    0  502  503 -0.00000000000E+00 -0.00000000000E+00 -0.53398036400E+03  0.53398036400E+03  0.00000000000E+00 0. -1.
          2    1    1    2  501    0 -0.75529074932E+01 -0.24374161798E+02 -0.25873231149E+03  0.25998760583E+03  0.00000000000E+00 0.  1.
         -2    1    1    2    0  503  0.75529074932E+01  0.24374161798E+02 -0.27402763605E+03  0.27521317464E+03  0.00000000000E+00 0. -1.
<mgrwt>
<rscale>  2 0.25517566E+02</rscale>
<asrwt>0</asrwt>
<pdfrwt beam="1">  1       21 0.18775661E-03 0.25517566E+02</pdfrwt>
<pdfrwt beam="2">  1       21 0.82150724E-01 0.25517566E+02</pdfrwt>
<totfact> 0.50272931E+07</totfact>
</mgrwt>
</event>
<event>
 4    1  0.2736402E+004  0.2032474E+02  0.7546771E-02  0.1738946E+00
         21   -1    0    0  503  502  0.00000000000E+00  0.00000000000E+00  0.67199876357E+01  0.67199876357E+01  0.00000000000E+00 0.  1.
         21   -1    0    0  501  503 -0.00000000000E+00 -0.00000000000E+00 -0.68425306072E+02  0.68425306072E+02  0.00000000000E+00 0. -1.
          2    1    1    2  501    0  0.72780639365E+01  0.18976953941E+02 -0.42829461832E+02  0.47407360149E+02  0.00000000000E+00 0. -1.
         -2    1    1    2    0  502 -0.72780639365E+01 -0.18976953941E+02 -0.18875856604E+02  0.27737933558E+02  0.00000000000E+00 0.  1.
<mgrwt>
<rscale>  2 0.20324739E+02</rscale>
<asrwt>0</asrwt>
<pdfrwt beam="1">  1       21 0.10338442E-02 0.20324739E+02</pdfrwt>
<pdfrwt beam="2">  1       21 0.10526970E-01 0.20324739E+02</pdfrwt>
<totfact> 0.16787178E+08</totfact>
</mgrwt>
</event>
<event>
 4    1  0.2736402E+004  0.4088835E+02  0.7546771E-02  0.1501774E+00
         21   -1    0    0  503  502  0.00000000000E+00  0.00000000000E+00  0.80090274332E+01  0.80090274332E+01  0.00000000000E+00 0.  1.
         21   -1    0    0  501  503 -0.00000000000E+00 -0.00000000000E+00 -0.25061786469E+03  0.25061786469E+03  0.00000000000E+00 0. -1.
          2    1    1    2  501    0  0.19944044866E+02 -0.35694429704E+02 -0.17416059189E+03  0.17889597258E+03  0.00000000000E+00 0.  1.
         -2    1    1    2    0  502 -0.19944044866E+02  0.35694429704E+02 -0.68448245363E+02  0.79730919541E+02  0.00000000000E+00 0. -1.
<mgrwt>
<rscale>  2 0.40888351E+02</rscale>
<asrwt>0</asrwt>
<pdfrwt beam="1">  1       21 0.12321581E-02 0.40888351E+02</pdfrwt>
<pdfrwt beam="2">  1       21 0.38556593E-01 0.40888351E+02</pdfrwt>
<totfact> 0.15120235E+07</totfact>
</mgrwt>
</event>
<event>
 4    1  0.2736402E+004  0.2289986E+02  0.7546771E-02  0.1693138E+00
         21   -1    0    0  503  502  0.00000000000E+00  0.00000000000E+00  0.25019006568E+01  0.25019006568E+01  0.00000000000E+00 0. -1.
         21   -1    0    0  501  503 -0.00000000000E+00 -0.00000000000E+00 -0.24466157719E+03  0.24466157719E+03  0.00000000000E+00 0.  1.
          2    1    1    2  501    0 -0.89405401368E+01  0.21082469570E+02 -0.16786129747E+03  0.16941611189E+03  0.00000000000E+00 0.  1.
         -2    1    1    2    0  502  0.89405401368E+01 -0.21082469570E+02 -0.74298379063E+02  0.77747365952E+02  0.00000000000E+00 0. -1.
<mgrwt>
<rscale>  2 0.22899864E+02</rscale>
<asrwt>0</asrwt>
<pdfrwt beam="1">  1       21 0.38490775E-03 0.22899864E+02</pdfrwt>
<pdfrwt beam="2">  1       21 0.37640247E-01 0.22899864E+02</pdfrwt>
<totfact> 0.81085465E+07</totfact>
</mgrwt>
</event>
<event>
 4    1  0.2736402E+004  0.2531291E+02  0.7546771E-02  0.1656548E+00
         21   -1    0    0  501  502  0.00000000000E+00  0.00000000000E+00  0.72053187967E+02  0.72053187967E+02  0.00000000000E+00 0. -1.
         21   -1    0    0  502  503 -0.00000000000E+00 -0.00000000000E+00 -0.22235987119E+02  0.22235987119E+02  0.00000000000E+00 0.  1.
          2    1    1    2  501    0  0.25253191423E+02  0.17377341227E+01  0.61429036104E+02  0.66439971956E+02  0.00000000000E+00 0. -1.
         -2    1    1    2    0  503 -0.25253191423E+02 -0.17377341227E+01 -0.11611835256E+02  0.27849203129E+02  0.00000000000E+00 0.  1.
<mgrwt>
<rscale>  2 0.25312910E+02</rscale>
<asrwt>0</asrwt>
<pdfrwt beam="1">  1       21 0.11085106E-01 0.25312910E+02</pdfrwt>
<pdfrwt beam="2">  1       21 0.34209211E-02 0.25312910E+02</pdfrwt>
<totfact> 0.26138526E+07</totfact>
</mgrwt>
</event>
<event>
 4    1  0.2736402E+004  0.3432822E+02  0.7546771E-02  0.1554648E+00
         21   -1    0    0  503  502  0.00000000000E+00  0.00000000000E+00  0.63801140991E+03  0.63801140991E+03  0.00000000000E+00 0.  1.
         21   -1    0    0  501  503 -0.00000000000E+00 -0.00000000000E+00 -0.18859535450E+01  0.18859535450E+01  0.00000000000E+00 0. -1.
          2    1    1    2  501    0  0.26489958118E+02 -0.21833660744E+02  0.27209876647E+03  0.27425565689E+03  0.00000000000E+00 0. -1.
         -2    1    1    2    0  502 -0.26489958118E+02  0.21833660744E+02  0.36402668989E+03  0.36564170656E+03  0.00000000000E+00 0.  1.
<mgrwt>
<rscale>  2 0.34328219E+02</rscale>
<asrwt>0</asrwt>
<pdfrwt beam="1">  1       21 0.98155429E-01 0.34328219E+02</pdfrwt>
<pdfrwt beam="2">  1       21 0.29014721E-03 0.34328219E+02</pdfrwt>
<totfact> 0.19079901E+07</totfact>
</mgrwt>
</event>
<event>
 4    1  0.2736402E+004  0.2128899E+02  0.7546771E-02  0.1720847E+00
         21   -1    0    0  503  502  0.00000000000E+00  0.00000000000E+00  0.46211291367E+03  0.46211291367E+03  0.00000000000E+00 0.  1.
         21   -1    0    0  501  503 -0.00000000000E+00 -0.00000000000E+00 -0.10162016583E+01  0.10162016583E+01  0.00000000000E+00 0. -1.
          2    1    1    2  501    0 -0.10207702057E+02 -0.18682179610E+02  0.18730191640E+03  0.18850790143E+03  0.00000000000E+00 0.  1.
         -2    1    1    2    0  502  0.10207702057E+02  0.18682179610E+02  0.27379479561E+03  0.27462121390E+03  0.00000000000E+00 0. -1.
<mgrwt>
<rscale>  2 0.21288988E+02</rscale>
<asrwt>0</asrwt>
<pdfrwt beam="1">  1       21 0.71094127E-01 0.21288988E+02</pdfrwt>
<pdfrwt beam="2">  1       21 0.15633909E-03 0.21288988E+02</pdfrwt>
<totfact> 0.84773748E+07</totfact>
</mgrwt>
</event>
<event>
 4    1  0.2736402E+004  0.2216631E+02  0.7546771E-02  0.1705392E+00
         21   -1    0    0  501  502  0.00000000000E+00  0.00000000000E+00  0.45845751893E+01  0.45845751893E+01  0.00000000000E+00 0. -1.
         21   -1    0    0  502  503 -0.00000000000E+00 -0.00000000000E+00 -0.28766417810E+03  0.28766417810E+03  0.00000000000E+00 0.  1.
          2    1    1    2  501    0  0.18381087631E+02  0.12388738861E+02 -0.25793506392E+02  0.34009560495E+02  0.00000000000E+00 0. -1.
         -2    1    1    2    0  503 -0.18381087631E+02 -0.12388738861E+02 -0.25728609651E+03  0.25823919279E+03  0.00000000000E+00 0.  1.
<mgrwt>
<rscale>  2 0.22166309E+02</rscale>
<asrwt>0</asrwt>
<pdfrwt beam="1">  1       21 0.70531933E-03 0.22166309E+02</pdfrwt>
<pdfrwt beam="2">  1       21 0.44256023E-01 0.22166309E+02</pdfrwt>
<totfact> 0.24252159E+07</totfact>
</mgrwt>
</event>
<event>
 4    1  0.2736402E+004  0.3605558E+02  0.7546771E-02  0.1539422E+00
         21   -1    0    0  501  502  0.00000000000E+00  0.00000000000E+00  0.64931634962E+01  0.64931634962E+01  0.00000000000E+00 0.  1.
         21   -1    0    0  502  503 -0.00000000000E+00 -0.00000000000E+00 -0.21434004160E+03  0.21434004160E+03  0.00000000000E+00 0. -1.
          2    1    1    2  501    0 -0.34428940007E+02 -0.10707601216E+02 -0.75574642079E+02  0.83734886154E+02  0.00000000000E+00 0.  1.
         -2    1    1    2    0  503  0.34428940007E+02  0.10707601216E+02 -0.13227223602E+03  0.13709831894E+03  0.00000000000E+00 0. -1.
<mgrwt>
<rscale>  2 0.36055577E+02</rscale>
<asrwt>0</asrwt>
<pdfrwt beam="1">  1       21 0.99894812E-03 0.36055577E+02</pdfrwt>
<pdfrwt beam="2">  1       21 0.32975395E-01 0.36055577E+02</pdfrwt>
<totfact> 0.27507294E+07</totfact>
</mgrwt>
</event>
<event>
 4    1  0.2736402E+004  0.2303191E+02  0.7546771E-02  0.1690993E+00
         21   -1    0    0  501  502  0.00000000000E+00  0.00000000000E+00  0.72134293621E+02  0.72134293621E+02  0.00000000000E+00 0. -1.
         21   -1    0    0  502  503 -0.00000000000E+00 -0.00000000000E+00 -0.95491408856E+01  0.95491408856E+01  0.00000000000E+00 0.  1.
          2    1    1    2  501    0 -0.10065269958E+02  0.20716155458E+02  0.50874818751E+02  0.55845464804E+02  0.00000000000E+00 0. -1.
         -2    1    1    2    0  503  0.10065269958E+02 -0.20716155458E+02  0.11710333984E+02  0.25837969702E+02  0.00000000000E+00 0.  1.
<mgrwt>
<rscale>  2 0.23031907E+02</rscale>
<asrwt>0</asrwt>
<pdfrwt beam="1">  1       21 0.11097583E-01 0.23031907E+02</pdfrwt>
<pdfrwt beam="2">  1       21 0.14690986E-02 0.23031907E+02</pdfrwt>
<totfact> 0.93969961E+07</totfact>
</mgrwt>
</event>
<event>
 4    1  0.2736402E+004  0.2163422E+02  0.7546771E-02  0.1714656E+00
         21   -1    0    0  503  502  0.00000000000E+00  0.00000000000E+00  0.90058608769E+02  0.90058608769E+02  0.00000000000E+00 0.  1.
         21   -1    0    0  501  503 -0.00000000000E+00 -0.00000000000E+00 -0.49765221669E+02  0.49765221669E+02  0.00000000000E+00 0. -1.
          2    1    1    2  501    0  0.17729926416E+02  0.12397148747E+02 -0.46014085524E+02  0.50846196066E+02  0.00000000000E+00 0. -1.
         -2    1    1    2    0  502 -0.17729926416E+02 -0.12397148747E+02  0.86307472624E+02  0.88977634372E+02  0.00000000000E+00 0.  1.
<mgrwt>
<rscale>  2 0.21634223E+02</rscale>
<asrwt>0</asrwt>
<pdfrwt beam="1">  1       21 0.13855171E-01 0.21634223E+02</pdfrwt>
<pdfrwt beam="2">  1       21 0.76561880E-02 0.21634223E+02</pdfrwt>
<totfact> 0.48194717E+06</totfact>
</mgrwt>
</event>
<event>
 4    1  0.2736402E+004  0.2123244E+02  0.7546771E-02  0.1721875E+00
         21   -1    0    0  503  502  0.00000000000E+00  0.00000000000E+00  0.79982174123E+02  0.79982174123E+02  0.00000000000E+00 0.  1.
         21   -1    0    0  501  503 -0.00000000000E+00 -0.00000000000E+00 -0.66499604695E+01  0.66499604695E+01  0.00000000000E+00 0. -1.
          2    1    1    2  501    0  0.20460545085E+02 -0.56729775855E+01  0.19755827447E+02  0.29001884386E+02  0.00000000000E+00 0. -1.
         -2    1    1    2    0  502 -0.20460545085E+02  0.56729775855E+01  0.53576386207E+02  0.57630250207E+02  0.00000000000E+00 0.  1.
<mgrwt>
<rscale>  2 0.21232442E+02</rscale>
<asrwt>0</asrwt>
<pdfrwt beam="1">  1       21 0.12304949E-01 0.21232442E+02</pdfrwt>
<pdfrwt beam="2">  1       21 0.10230709E-02 0.21232442E+02</pdfrwt>
<totfact> 0.13334981E+08</totfact>
</mgrwt>
</event>
<event>
 4    1  0.2736402E+004  0.9741921E+02  0.7546771E-02  0.1285819E+00
         21   -1    0    0  503  502  0.00000000000E+00  0.00000000000E+00  0.16150072102E+03  0.16150072102E+03  0.00000000000E+00 0. -1.
         21   -1    0    0  501  503 -0.00000000000E+00 -0.00000000000E+00 -0.58956674280E+02  0.58956674280E+02  0.00000000000E+00 0.  1.
          2    1    1    2  501    0  0.45178390393E+02 -0.86309992797E+02  0.44978020674E+02  0.10730109114E+03  0.00000000000E+00 0. -1.
         -2    1    1    2    0  502 -0.45178390393E+02  0.86309992797E+02  0.57566026064E+02  0.11315630416E+03  0.00000000000E+00 0.  1.
<mgrwt>
<rscale>  2 0.97419207E+02</rscale>
<asrwt>0</asrwt>
<pdfrwt beam="1">  1       21 0.24846265E-01 0.97419207E+02</pdfrwt>
<pdfrwt beam="2">  1       21 0.90702576E-02 0.97419207E+02</pdfrwt>
<totfact> 0.14633565E+06</totfact>
</mgrwt>
</event>
<event>
 4    1  0.2736402E+004  0.3101499E+02  0.7546771E-02  0.1587133E+00
         21   -1    0    0  503  502  0.00000000000E+00  0.00000000000E+00  0.63191396114E+03  0.63191396114E+03  0.00000000000E+00 0. -1.
         21   -1    0    0  501  503 -0.00000000000E+00 -0.00000000000E+00 -0.15225366961E+01  0.15225366961E+01  0.00000000000E+00 0.  1.
          2    1    1    2  501    0 -0.24568414812E+02  0.18929403250E+02  0.31956232139E+03  0.32106386680E+03  0.00000000000E+00 0. -1.
         -2    1    1    2    0  502  0.24568414812E+02 -0.18929403250E+02  0.31082910305E+03  0.31237263103E+03  0.00000000000E+00 0.  1.
<mgrwt>
<rscale>  2 0.31014985E+02</rscale>
<asrwt>0</asrwt>
<pdfrwt beam="1">  1       21 0.97217323E-01 0.31014985E+02</pdfrwt>
<pdfrwt beam="2">  1       21 0.23423692E-03 0.31014985E+02</pdfrwt>
<totfact> 0.26273922E+07</totfact>
</mgrwt>
</event>
<event>
 4    1  0.2736402E+004  0.2159531E+02  0.7546771E-02  0.1715346E+00
         21   -1    0    0  501  502  0.00000000000E+00  0.00000000000E+00  0.28202937036E+01  0.28202937036E+01  0.00000000000E+00 0.  1.
         21   -1    0    0  502  503 -0.00000000000E+00 -0.00000000000E+00 -0.26654633403E+03  0.26654633403E+03  0.00000000000E+00 0. -1.
          2    1    1    2  501    0  0.19886394478E+02  0.84195533961E+01 -0.48879264369E+02  0.53437253391E+02  0.00000000000E+00 0.  1.
         -2    1    1    2    0  503 -0.19886394478E+02 -0.84195533961E+01 -0.21484677596E+03  0.21592937434E+03  0.00000000000E+00 0. -1.
<mgrwt>
<rscale>  2 0.21595313E+02</rscale>
<asrwt>0</asrwt>
<pdfrwt beam="1">  1       21 0.43389125E-03 0.21595313E+02</pdfrwt>
<pdfrwt beam="2">  1       21 0.41007137E-01 0.21595313E+02</pdfrwt>
<totfact> 0.57065002E+07</totfact>
</mgrwt>
</event>
<event>
 4    1  0.2736402E+004  0.2343481E+02  0.7546771E-02  0.1684557E+00
         21   -1    0    0  501  502  0.00000000000E+00  0.00000000000E+00  0.12236864804E+02  0.12236864804E+02  0.00000000000E+00 0.  1.
         21   -1    0    0  502  503 -0.00000000000E+00 -0.00000000000E+00 -0.30664976257E+03  0.30664976257E+03  0.00000000000E+00 0. -1.
          2    1    1    2  501    0 -0.18085176179E+02  0.14903587894E+02  0.10779204959E+00  0.23435062378E+02  0.00000000000E+00 0.  1.
         -2    1    1    2    0  503  0.18085176179E+02 -0.14903587894E+02 -0.29452068982E+03  0.29545156500E+03  0.00000000000E+00 0. -1.
<mgrwt>
<rscale>  2 0.23434814E+02</rscale>
<asrwt>0</asrwt>
<pdfrwt beam="1">  1       21 0.18825945E-02 0.23434814E+02</pdfrwt>
<pdfrwt beam="2">  1       21 0.47176888E-01 0.23434814E+02</pdfrwt>
<totfact> 0.49319521E+06</totfact>
</mgrwt>
</event>
<event>
 4    1  0.2736402E+004  0.2289542E+02  0.7546771E-02  0.1693211E+00
         21   -1    0    0  503  502  0.00000000000E+00  0.00000000000E+00  0.36693644833E+00  0.36693644833E+00  0.00000000000E+00 0.  1.
         21   -1    0    0  501  503 -0.00000000000E+00 -0.00000000000E+00 -0.15338341218E+04  0.15338341218E+04  0.00000000000E+00 0. -1.
          2    1    1    2  501    0 -0.20112298612E+02 -0.10940556806E+02 -0.56579197571E+03  0.56625503099E+03  0.00000000000E+00 0.  1.
         -2    1    1    2    0  502  0.20112298612E+02  0.10940556806E+02 -0.96767520968E+03  0.96794602731E+03  0.00000000000E+00 0. -1.
<mgrwt>
<rscale>  2 0.22895422E+02</rscale>
<asrwt>0</asrwt>
<pdfrwt beam="1">  1       21 0.56452160E-04 0.22895422E+02</pdfrwt>
<pdfrwt beam="2">  1       21 0.23597281E+00 0.22895422E+02</pdfrwt>
<totfact> 0.22494953E+07</totfact>
</mgrwt>
</event>
<event>
 4    1  0.2736402E+004  0.2698903E+02  0.7546771E-02  0.1633974E+00
         21   -1    0    0  503  502  0.00000000000E+00  0.00000000000E+00  0.19142439176E+02  0.19142439176E+02  0.00000000000E+00 0.  1.
         21   -1    0    0  501  503 -0.00000000000E+00 -0.00000000000E+00 -0.43453548566E+02  0.43453548566E+02  0.00000000000E+00 0. -1.
          2    1    1    2  501    0 -0.26393694619E+02 -0.56374218760E+01 -0.23190342191E+02  0.35583698683E+02  0.00000000000E+00 0. -1.
         -2    1    1    2    0  502  0.26393694619E+02  0.56374218760E+01 -0.11207671989E+01  0.27012289059E+02  0.00000000000E+00 0.  1.
<mgrwt>
<rscale>  2 0.26989028E+02</rscale>
<asrwt>0</asrwt>
<pdfrwt beam="1">  1       21 0.29449907E-02 0.26989028E+02</pdfrwt>
<pdfrwt beam="2">  1       21 0.66851613E-02 0.26989028E+02</pdfrwt>
<totfact> 0.77215493E+07</totfact>
</mgrwt>
</event>
<event>
 4    1  0.2736402E+004  0.5261744E+02  0.7546771E-02  0.1431714E+00
         21   -1    0    0  501  502  0.00000000000E+00  0.00000000000E+00  0.13800159906E+03  0.13800159906E+03  0.00000000000E+00 0.  1.
         21   -1    0    0  502  503 -0.00000000000E+00 -0.00000000000E+00 -0.13437858006E+03  0.13437858006E+03  0.00000000000E+00 0. -1.
          2    1    1    2  501    0 -0.24417378619E+02 -0.46608870859E+02  0.12742462725E+03  0.13786091125E+03  0.00000000000E+00 0.  1.
         -2    1    1    2    0  503  0.24417378619E+02  0.46608870859E+02 -0.12380160826E+03  0.13451926787E+03  0.00000000000E+00 0. -1.
<mgrwt>
<rscale>  2 0.52617442E+02</rscale>
<asrwt>0</asrwt>
<pdfrwt beam="1">  1       21 0.21231015E-01 0.52617442E+02</pdfrwt>
<pdfrwt beam="2">  1       21 0.20673628E-01 0.52617442E+02</pdfrwt>
<totfact> 0.45182681E+05</totfact>
</mgrwt>
</event>
<event>
 4    1  0.2736402E+004  0.2583774E+02  0.7546771E-02  0.1649253E+00
         21   -1    0    0  503  502  0.00000000000E+00  0.00000000000E+00  0.34857606473E+02  0.34857606473E+02  0.00000000000E+00 0. -1.
         21   -1    0    0  501  503 -0.00000000000E+00 -0.00000000000E+00 -0.32649804177E+02  0.32649804177E+02  0.00000000000E+00 0.  1.
          2    1    1    2  501    0 -0.16143772192E+02 -0.20173437460E+02 -0.20598837214E+02  0.33043926130E+02  0.00000000000E+00 0.  1.
         -2    1    1    2    0  502  0.16143772192E+02  0.20173437460E+02  0.22806639510E+02  0.34463484520E+02  0.00000000000E+00 0. -1.
<mgrwt>
<rscale>  2 0.25837743E+02</rscale>
<asrwt>0</asrwt>
<pdfrwt beam="1">  1       21 0.53627087E-02 0.25837743E+02</pdfrwt>
<pdfrwt beam="2">  1       21 0.50230468E-02 0.25837743E+02</pdfrwt>
<totfact> 0.46867335E+07</totfact>
</mgrwt>
</event>
<event>
 4    1  0.2736402E+004  0.3316411E+02  0.7546771E-02  0.1565535E+00
         21   -1    0    0  503  502  0.00000000000E+00  0.00000000000E+00  0.10454078438E+02  0.10454078438E+02  0.00000000000E+00 0.  1.
         21   -1    0    0  501  503 -0.00000000000E+00 -0.00000000000E+00 -0.15930752639E+03  0.15930752639E+03  0.00000000000E+00 0. -1.
          2    1    1    2  501    0  0.25691985610E+02  0.20970938667E+02 -0.12389034077E+03  0.12825238762E+03  0.00000000000E+00 0. -1.
         -2    1    1    2    0  502 -0.25691985610E+02 -0.20970938667E+02 -0.24963107176E+02  0.41509217205E+02  0.00000000000E+00 0.  1.
<mgrwt>
<rscale>  2 0.33164113E+02</rscale>
<asrwt>0</asrwt>
<pdfrwt beam="1">  1       21 0.16083199E-02 0.33164113E+02</pdfrwt>
<pdfrwt beam="2">  1       21 0.24508848E-01 0.33164113E+02</pdfrwt>
<totfact> 0.22534989E+07</totfact>
</mgrwt>
</event>
<event>
 4    1  0.2736402E+004  0.4315378E+02  0.7546771E-02  0.1486208E+00
         21   -1    0    0  503  502  0.00000000000E+00  0.00000000000E+00  0.12307356447E+02  0.12307356447E+02  0.00000000000E+00 0. -1.
         21   -1    0    0  501  503 -0.00000000000E+00 -0.00000000000E+00 -0.20264988989E+03  0.20264988989E+03  0.00000000000E+00 0.  1.
          2    1    1    2  501    0  0.27603586660E+02 -0.33170630373E+02 -0.14926769650E+03  0.15538048119E+03  0.00000000000E+00 0. -1.
         -2    1    1    2    0  502 -0.27603586660E+02  0.33170630373E+02 -0.41074836945E+02  0.59576765151E+02  0.00000000000E+00 0.  1.
<mgrwt>
<rscale>  2 0.43153780E+02</rscale>
<asrwt>0</asrwt>
<pdfrwt beam="1">  1       21 0.18934396E-02 0.43153780E+02</pdfrwt>
<pdfrwt beam="2">  1       21 0.31176905E-01 0.43153780E+02</pdfrwt>
<totfact> 0.11697157E+07</totfact>
</mgrwt>
</event>
<event>
 4    1  0.2736402E+004  0.2584550E+02  0.7546771E-02  0.1649146E+00
         21   -1    0    0  501  502  0.00000000000E+00  0.00000000000E+00  0.17827047751E+01  0.17827047751E+01  0.00000000000E+00 0. -1.
         21   -1    0    0  502  503 -0.00000000000E+00 -0.00000000000E+00 -0.76093077849E+03  0.76093077849E+03  0.00000000000E+00 0.  1.
          2    1    1    2  501    0 -0.25836597113E+02 -0.67828977428E+00 -0.10788067422E+03  0.11093344715E+03  0.00000000000E+00 0. -1.
         -2    1    1    2    0  503  0.25836597113E+02  0.67828977428E+00 -0.65126739949E+03  0.65178003611E+03  0.00000000000E+00 0.  1.
<mgrwt>
<rscale>  2 0.25845499E+02</rscale>
<asrwt>0</asrwt>
<pdfrwt beam="1">  1       21 0.27426164E-03 0.25845499E+02</pdfrwt>
<pdfrwt beam="2">  1       21 0.11706655E+00 0.25845499E+02</pdfrwt>
<totfact> 0.13376679E+07</totfact>
</mgrwt>
</event>
<event>
 4    1  0.2736402E+004  0.2604955E+02  0.7546771E-02  0.1646369E+00
         21   -1    0    0  503  502  0.00000000000E+00  0.00000000000E+00  0.53491543581E+01  0.53491543581E+01  0.00000000000E+00 0. -1.
         21   -1    0    0  501  503 -0.00000000000E+00 -0.00000000000E+00 -0.19285860513E+03  0.19285860513E+03  0.00000000000E+00 0.  1.
          2    1    1    2  501    0 -0.20196018812E+01 -0.25971144137E+02 -0.15173062628E+03  0.15395051826E+03  0.00000000000E+00 0.  1.
         -2    1    1    2    0  502  0.20196018812E+01  0.25971144137E+02 -0.35778824489E+02  0.44257241231E+02  0.00000000000E+00 0. -1.
<mgrwt>
<rscale>  2 0.26049551E+02</rscale>
<asrwt>0</asrwt>
<pdfrwt beam="1">  1       21 0.82294693E-03 0.26049551E+02</pdfrwt>
<pdfrwt beam="2">  1       21 0.29670551E-01 0.26049551E+02</pdfrwt>
<totfact> 0.42066298E+07</totfact>
</mgrwt>
</event>
<event>
 4    1  0.2736402E+004  0.2903284E+02  0.7546771E-02  0.1609032E+00
         21   -1    0    0  503  502  0.00000000000E+00  0.00000000000E+00  0.84005141344E+02  0.84005141344E+02  0.00000000000E+00 0. -1.
         21   -1    0    0  501  503 -0.00000000000E+00 -0.00000000000E+00 -0.10434032526E+02  0.10434032526E+02  0.00000000000E+00 0.  1.
          2    1    1    2  501    0  0.14426253993E+02  0.25195017083E+02  0.27539509295E+02  0.40016624824E+02  0.00000000000E+00 0.  1.
         -2    1    1    2    0  502 -0.14426253993E+02 -0.25195017083E+02  0.46031599523E+02  0.54422549046E+02  0.00000000000E+00 0. -1.
<mgrwt>
<rscale>  2 0.29032838E+02</rscale>
<asrwt>0</asrwt>
<pdfrwt beam="1">  1       21 0.12923868E-01 0.29032838E+02</pdfrwt>
<pdfrwt beam="2">  1       21 0.16052358E-02 0.29032838E+02</pdfrwt>
<totfact> 0.67401575E+07</totfact>
</mgrwt>
</event>
<event>
 4    1  0.2736402E+004  0.2185167E+02  0.7546771E-02  0.1710830E+00
         21   -1    0    0  501  502  0.00000000000E+00  0.00000000000E+00  0.47680174627E+03  0.47680174627E+03  0.00000000000E+00 0. -1.
         21   -1    0    0  502  503 -0.00000000000E+00 -0.00000000000E+00 -0.22312618082E+01  0.22312618082E+01  0.00000000000E+00 0.  1.
          2    1    1    2  501    0  0.10486919386E+02  0.19170807710E+02  0.41510445322E+03  0.41567920616E+03  0.00000000000E+00 0. -1.
         -2    1    1    2    0  503 -0.10486919386E+02 -0.19170807710E+02  0.59466031237E+02  0.63353801919E+02  0.00000000000E+00 0.  1.
<mgrwt>
<rscale>  2 0.21851667E+02</rscale>
<asrwt>0</asrwt>
<pdfrwt beam="1">  1       21 0.73354034E-01 0.21851667E+02</pdfrwt>
<pdfrwt beam="2">  1       21 0.34327143E-03 0.21851667E+02</pdfrwt>
<totfact> 0.25656231E+07</totfact>
</mgrwt>
</event>
<event>
 4    1  0.2736402E+004  0.2252530E+02  0.7546771E-02  0.1699322E+00
         21   -1    0    0  503  502  0.00000000000E+00  0.00000000000E+00  0.77066772470E+01  0.77066772470E+01  0.00000000000E+00 0. -1.
         21   -1    0    0  501  503 -0.00000000000E+00 -0.00000000000E+00 -0.66642360067E+02  0.66642360067E+02  0.00000000000E+00 0.  1.
          2    1    1    2  501    0 -0.12294159034E+02  0.18874390693E+02 -0.33553001722E+02  0.40412781332E+02  0.00000000000E+00 0.  1.
         -2    1    1    2    0  502  0.12294159034E+02 -0.18874390693E+02 -0.25382681098E+02  0.33936255983E+02  0.00000000000E+00 0. -1.
<mgrwt>
<rscale>  2 0.22525296E+02</rscale>
<asrwt>0</asrwt>
<pdfrwt beam="1">  1       21 0.11856427E-02 0.22525296E+02</pdfrwt>
<pdfrwt beam="2">  1       21 0.10252671E-01 0.22525296E+02</pdfrwt>
<totfact> 0.14729696E+08</totfact>
</mgrwt>
</event>
<event>
 4    1  0.2736402E+004  0.2512690E+02  0.7546771E-02  0.1659186E+00
         21   -1    0    0  503  502  0.00000000000E+00  0.00000000000E+00  0.44032700312E+03  0.44032700312E+03  0.00000000000E+00 0. -1.
         21   -1    0    0  501  503 -0.00000000000E+00 -0.00000000000E+00 -0.23757783180E+01  0.23757783180E+01  0.00000000000E+00 0.  1.
          2    1    1    2  501    0 -0.23999262578E+02 -0.74428689229E+01  0.79599207969E+02  0.83470921951E+02  0.00000000000E+00 0.  1.
         -2    1    1    2    0  502  0.23999262578E+02  0.74428689229E+01  0.35835201683E+03  0.35923185949E+03  0.00000000000E+00 0. -1.
<mgrwt>
<rscale>  2 0.25126896E+02</rscale>
<asrwt>0</asrwt>
<pdfrwt beam="1">  1       21 0.67742551E-01 0.25126896E+02</pdfrwt>
<pdfrwt beam="2">  1       21 0.36550471E-03 0.25126896E+02</pdfrwt>
<totfact> 0.28361446E+07</totfact>
</mgrwt>
</event>
<event>
 4    1  0.2736402E+004  0.2902291E+02  0.7546771E-02  0.1609147E+00
         21   -1    0    0  503  502  0.00000000000E+00  0.00000000000E+00  0.21600420409E+03  0.21600420409E+03  0.00000000000E+00 0.  1.
         21   -1    0    0  501  503 -0.00000000000E+00 -0.00000000000E+00 -0.39199067133E+01  0.39199067133E+01  0.00000000000E+00 0. -1.
          2    1    1    2  501    0  0.22427931527E+02  0.18420567560E+02  0.98127108248E+02  0.10232916884E+03  0.00000000000E+00 0. -1.
         -2    1    1    2    0  502 -0.22427931527E+02 -0.18420567560E+02  0.11395718912E+03  0.11759494196E+03  0.00000000000E+00 0.  1.
<mgrwt>
<rscale>  2 0.29022912E+02</rscale>
<asrwt>0</asrwt>
<pdfrwt beam="1">  1       21 0.33231407E-01 0.29022912E+02</pdfrwt>
<pdfrwt beam="2">  1       21 0.60306274E-03 0.29022912E+02</pdfrwt>
<totfact> 0.55673514E+07</totfact>
</mgrwt>
</event>
<event>
 4    1  0.2736402E+004  0.2062867E+02  0.7546771E-02  0.1733108E+00
         21   -1    0    0  501  502  0.00000000000E+00  0.00000000000E+00  0.61163075927E+02  0.61163075927E+02  0.00000000000E+00 0. -1.
         21   -1    0    0  502  503 -0.00000000000E+00 -0.00000000000E+00 -0.98582244633E+01  0.98582244633E+01  0.00000000000E+00 0.  1.
          2    1    1    2  501    0 -0.13401959905E+02  0.15682139442E+02  0.44914923544E+02  0.49425624768E+02  0.00000000000E+00 0. -1.
         -2    1    1    2    0  503  0.13401959905E+02 -0.15682139442E+02  0.63899279198E+01  0.21595675622E+02  0.00000000000E+00 0.  1.
<mgrwt>
<rscale>  2 0.20628670E+02</rscale>
<asrwt>0</asrwt>
<pdfrwt beam="1">  1       21 0.94097037E-02 0.20628670E+02</pdfrwt>
<pdfrwt beam="2">  1       21 0.15166500E-02 0.20628670E+02</pdfrwt>
<totfact> 0.11391756E+08</totfact>
</mgrwt>
</event>
<event>
 4    1  0.2736402E+004  0.2387522E+02  0.7546771E-02  0.1677704E+00
         21   -1    0    0  503  502  0.00000000000E+00  0.00000000000E+00  0.21682451236E+01  0.21682451236E+01  0.00000000000E+00 0.  1.
         21   -1    0    0  501  503 -0.00000000000E+00 -0.00000000000E+00 -0.30416437612E+03  0.30416437612E+03  0.00000000000E+00 0. -1.
          2    1    1    2  501    0 -0.17353841751E+02 -0.16397263961E+02 -0.20741509276E+03  0.20878469004E+03  0.00000000000E+00 0.  1.
         -2    1    1    2    0  502  0.17353841751E+02  0.16397263961E+02 -0.94581038232E+02  0.97547931203E+02  0.00000000000E+00 0. -1.
<mgrwt>
<rscale>  2 0.23875219E+02</rscale>
<asrwt>0</asrwt>
<pdfrwt beam="1">  1       21 0.33357633E-03 0.23875219E+02</pdfrwt>
<pdfrwt beam="2">  1       21 0.46794497E-01 0.23875219E+02</pdfrwt>
<totfact> 0.66840512E+07</totfact>
</mgrwt>
</event>
<event>
 4    1  0.2736402E+004  0.3307121E+02  0.7546771E-02  0.1566428E+00
         21   -1    0    0  501  502  0.00000000000E+00  0.00000000000E+00  0.44785941355E+02  0.44785941355E+02  0.00000000000E+00 0. -1.
         21   -1    0    0  502  503 -0.00000000000E+00 -0.00000000000E+00 -0.51185293232E+02  0.51185293232E+02  0.00000000000E+00 0.  1.
          2    1    1    2  501    0  0.29493767374E+02  0.14960700956E+02  0.31499459820E+02  0.45671882553E+02  0.00000000000E+00 0. -1.
         -2    1    1    2    0  503 -0.29493767374E+02 -0.14960700956E+02 -0.37898811697E+02  0.50299352034E+02  0.00000000000E+00 0.  1.
<mgrwt>
<rscale>  2 0.33071209E+02</rscale>
<asrwt>0</asrwt>
<pdfrwt beam="1">  1       21 0.68901448E-02 0.33071209E+02</pdfrwt>
<pdfrwt beam="2">  1       21 0.78746605E-02 0.33071209E+02</pdfrwt>
<totfact> 0.15801690E+07</totfact>
</mgrwt>
</event>
<event>
 4    1  0.2736402E+004  0.2502001E+02  0.7546771E-02  0.1660715E+00
         21   -1    0    0  501  502  0.00000000000E+00  0.00000000000E+00  0.35404107392E+02  0.35404107392E+02  0.00000000000E+00 0. -1.
         21   -1    0    0  502  503 -0.00000000000E+00 -0.00000000000E+00 -0.67689977605E+02  0.67689977605E+02  0.00000000000E+00 0.  1.
          2    1    1    2  501    0 -0.10705996756E+02  0.22613766983E+02  0.28163111941E+02  0.37671762606E+02  0.00000000000E+00 0. -1.
         -2    1    1    2    0  503  0.10705996756E+02 -0.22613766983E+02 -0.60448982153E+02  0.65422322391E+02  0.00000000000E+00 0.  1.
<mgrwt>
<rscale>  2 0.25020008E+02</rscale>
<asrwt>0</asrwt>
<pdfrwt beam="1">  1       21 0.54467858E-02 0.25020008E+02</pdfrwt>
<pdfrwt beam="2">  1       21 0.10413843E-01 0.25020008E+02</pdfrwt>
<totfact> 0.13834220E+07</totfact>
</mgrwt>
</event>
<event>
 4    1  0.2736402E+004  0.2067595E+02  0.7546771E-02  0.1732211E+00
         21   -1    0    0  501  502  0.00000000000E+00  0.00000000000E+00  0.15374649874E+02  0.15374649874E+02  0.00000000000E+00 0.  1.
         21   -1    0    0  502  503 -0.00000000000E+00 -0.00000000000E+00 -0.36694187162E+02  0.36694187162E+02  0.00000000000E+00 0. -1.
          2    1    1    2  501    0 -0.56984858470E+01 -0.19875162257E+02  0.21539746626E+01  0.20787843143E+02  0.00000000000E+00 0.  1.
         -2    1    1    2    0  503  0.56984858470E+01  0.19875162257E+02 -0.23473511950E+02  0.31280993893E+02  0.00000000000E+00 0. -1.
<mgrwt>
<rscale>  2 0.20675948E+02</rscale>
<asrwt>0</asrwt>
<pdfrwt beam="1">  1       21 0.23653308E-02 0.20675948E+02</pdfrwt>
<pdfrwt beam="2">  1       21 0.56452595E-02 0.20675948E+02</pdfrwt>
<totfact> 0.13216372E+08</totfact>
</mgrwt>
</event>
<event>
 4    1  0.2736402E+004  0.2179076E+02  0.7546771E-02  0.1711896E+00
         21   -1    0    0  503  502  0.00000000000E+00  0.00000000000E+00  0.31823852292E+01  0.31823852292E+01  0.00000000000E+00 0.  1.
         21   -1    0    0  501  503 -0.00000000000E+00 -0.00000000000E+00 -0.16719555525E+03  0.16719555525E+03  0.00000000000E+00 0. -1.
          2    1    1    2  501    0  0.18911808695E+02  0.10825013345E+02 -0.10994853725E+03  0.11208710124E+03  0.00000000000E+00 0.  1.
         -2    1    1    2    0  502 -0.18911808695E+02 -0.10825013345E+02 -0.54064632775E+02  0.58290839239E+02  0.00000000000E+00 0. -1.
<mgrwt>
<rscale>  2 0.21790765E+02</rscale>
<asrwt>0</asrwt>
<pdfrwt beam="1">  1       21 0.48959779E-03 0.21790765E+02</pdfrwt>
<pdfrwt beam="2">  1       21 0.25722390E-01 0.21790765E+02</pdfrwt>
<totfact> 0.11257564E+08</totfact>
</mgrwt>
</event>
<event>
 4    1  0.2736402E+004  0.2082108E+02  0.7546771E-02  0.1729476E+00
         21   -1    0    0  501  502  0.00000000000E+00  0.00000000000E+00  0.16641129708E+03  0.16641129708E+03  0.00000000000E+00 0.  1.
         21   -1    0    0  502  503 -0.00000000000E+00 -0.00000000000E+00 -0.27586083684E+01  0.27586083684E+01  0.00000000000E+00 0. -1.
          2    1    1    2  501    0 -0.85384831164E+01  0.18989777345E+02  0.10177990202E+03  0.10388775574E+03  0.00000000000E+00 0. -1.
         -2    1    1    2    0  503  0.85384831164E+01 -0.18989777345E+02  0.61872786695E+02  0.65282149712E+02  0.00000000000E+00 0.  1.
<mgrwt>
<rscale>  2 0.20821079E+02</rscale>
<asrwt>0</asrwt>
<pdfrwt beam="1">  1       21 0.25601730E-01 0.20821079E+02</pdfrwt>
<pdfrwt beam="2">  1       21 0.42440142E-03 0.20821079E+02</pdfrwt>
<totfact> 0.13820285E+08</totfact>
</mgrwt>
</event>
<event>
 4    1  0.2736402E+004  0.3618280E+02  0.7546771E-02  0.1538341E+00
         21   -1    0    0  503  502  0.00000000000E+00  0.00000000000E+00  0.86942417403E+02  0.86942417403E+02  0.00000000000E+00 0. -1.
         21   -1    0    0  501  503 -0.00000000000E+00 -0.00000000000E+00 -0.15960779804E+02  0.15960779804E+02  0.00000000000E+00 0.  1.
          2    1    1    2  501    0  0.38590306377E+00 -0.36180744068E+02  0.23255429270E+02  0.43011744361E+02  0.00000000000E+00 0.  1.
         -2    1    1    2    0  502 -0.38590306377E+00  0.36180744068E+02  0.47726208330E+02  0.59891452846E+02  0.00000000000E+00 0. -1.
<mgrwt>
<rscale>  2 0.36182802E+02</rscale>
<asrwt>0</asrwt>
<pdfrwt beam="1">  1       21 0.13375756E-01 0.36182802E+02</pdfrwt>
<pdfrwt beam="2">  1       21 0.24555046E-02 0.36182802E+02</pdfrwt>
<totfact> 0.34398417E+07</totfact>
</mgrwt>
</event>
<event>
 4    1  0.2736402E+004  0.2598268E+02  0.7546771E-02  0.1647276E+00
         21   -1    0    0  503  502  0.00000000000E+00  0.00000000000E+00  0.19556878006E+02  0.19556878006E+02  0.00000000000E+00 0. -1.
         21   -1    0    0  501  503 -0.00000000000E+00 -0.00000000000E+00 -0.65184384517E+02  0.65184384517E+02  0.00000000000E+00 0.  1.
          2    1    1    2  501    0  0.15055444354E+02 -0.21176248412E+02 -0.51874820079E+02  0.58018073561E+02  0.00000000000E+00 0.  1.
         -2    1    1    2    0  502 -0.15055444354E+02  0.21176248412E+02  0.62473135689E+01  0.26723188962E+02  0.00000000000E+00 0. -1.
<mgrwt>
<rscale>  2 0.25982685E+02</rscale>
<asrwt>0</asrwt>
<pdfrwt beam="1">  1       21 0.30087505E-02 0.25982685E+02</pdfrwt>
<pdfrwt beam="2">  1       21 0.10028367E-01 0.25982685E+02</pdfrwt>
<totfact> 0.37995983E+07</totfact>
</mgrwt>
</event>
<event>
 4    1  0.2736402E+004  0.4836740E+02  0.7546771E-02  0.1454352E+00
         21   -1    0    0  501  502  0.00000000000E+00  0.00000000000E+00  0.68147745191E+01  0.68147745191E+01  0.00000000000E+00 0. -1.
         21   -1    0    0  502  503 -0.00000000000E+00 -0.00000000000E+00 -0.41661421724E+03  0.41661421724E+03  0.00000000000E+00 0.  1.
          2    1    1    2  501    0 -0.37439082677E+02 -0.30622224215E+02 -0.11607702283E+03  0.12575086782E+03  0.00000000000E+00 0.  1.
         -2    1    1    2    0  503  0.37439082677E+02  0.30622224215E+02 -0.29372241989E+03  0.29767812394E+03  0.00000000000E+00 0. -1.
<mgrwt>
<rscale>  2 0.48367401E+02</rscale>
<asrwt>0</asrwt>
<pdfrwt beam="1">  1       21 0.10484269E-02 0.48367401E+02</pdfrwt>
<pdfrwt beam="2">  1       21 0.64094495E-01 0.48367401E+02</pdfrwt>
<totfact> 0.71736814E+06</totfact>
</mgrwt>
</event>
<event>
 4    1  0.2736402E+004  0.2110080E+02  0.7546771E-02  0.1724284E+00
         21   -1    0    0  501  502  0.00000000000E+00  0.00000000000E+00  0.16656765154E+01  0.16656765154E+01  0.00000000000E+00 0.  1.
         21   -1    0    0  502  503 -0.00000000000E+00 -0.00000000000E+00 -0.62277864562E+03  0.62277864562E+03  0.00000000000E+00 0. -1.
          2    1    1    2  501    0 -0.21711505550E+00 -0.21099684053E+02 -0.74671378588E+02  0.77595480450E+02  0.00000000000E+00 0.  1.
         -2    1    1    2    0  503  0.21711505550E+00  0.21099684053E+02 -0.54644159052E+03  0.54684884169E+03  0.00000000000E+00 0. -1.
<mgrwt>
<rscale>  2 0.21100801E+02</rscale>
<asrwt>0</asrwt>
<pdfrwt beam="1">  1       21 0.25625770E-03 0.21100801E+02</pdfrwt>
<pdfrwt beam="2">  1       21 0.95812184E-01 0.21100801E+02</pdfrwt>
<totfact> 0.22181112E+07</totfact>
</mgrwt>
</event>
<event>
 4    1  0.2736402E+004  0.2366327E+02  0.7546771E-02  0.1680979E+00
         21   -1    0    0  501  502  0.00000000000E+00  0.00000000000E+00  0.19260737475E+01  0.19260737475E+01  0.00000000000E+00 0. -1.
         21   -1    0    0  502  503 -0.00000000000E+00 -0.00000000000E+00 -0.41119267383E+03  0.41119267383E+03  0.00000000000E+00 0.  1.
          2    1    1    2  501    0 -0.15792096897E+02 -0.17622719222E+02 -0.92827520134E+02  0.95796132758E+02  0.00000000000E+00 0. -1.
         -2    1    1    2    0  503  0.15792096897E+02  0.17622719222E+02 -0.31643907995E+03  0.31732261482E+03  0.00000000000E+00 0.  1.
<mgrwt>
<rscale>  2 0.23663274E+02</rscale>
<asrwt>0</asrwt>
<pdfrwt beam="1">  1       21 0.29631857E-03 0.23663274E+02</pdfrwt>
<pdfrwt beam="2">  1       21 0.63260511E-01 0.23663274E+02</pdfrwt>
<totfact> 0.43754759E+07</totfact>
</mgrwt>
</event>
<event>
 4    1  0.2736402E+004  0.2007904E+02  0.7546771E-02  0.1743761E+00
         21   -1    0    0  501  502  0.00000000000E+00  0.00000000000E+00  0.14527334550E+03  0.14527334550E+03  0.00000000000E+00 0. -1.
         21   -1    0    0  502  503 -0.00000000000E+00 -0.00000000000E+00 -0.10020401253E+02  0.10020401253E+02  0.00000000000E+00 0.  1.
          2    1    1    2  501    0  0.13210611980E+02 -0.15121096976E+02  0.13365103872E+03  0.13515090823E+03  0.00000000000E+00 0. -1.
         -2    1    1    2    0  503 -0.13210611980E+02  0.15121096976E+02  0.16019055259E+01  0.20142838528E+02  0.00000000000E+00 0.  1.
<mgrwt>
<rscale>  2 0.20079040E+02</rscale>
<asrwt>0</asrwt>
<pdfrwt beam="1">  1       21 0.22349744E-01 0.20079040E+02</pdfrwt>
<pdfrwt beam="2">  1       21 0.15416003E-02 0.20079040E+02</pdfrwt>
<totfact> 0.25537364E+07</totfact>
</mgrwt>
</event>
<event>
 4    1  0.2736402E+004  0.2296864E+02  0.7546771E-02  0.1692019E+00
         21   -1    0    0  503  502  0.00000000000E+00  0.00000000000E+00  0.63967824872E+02  0.63967824872E+02  0.00000000000E+00 0. -1.
         21   -1    0    0  501  503 -0.00000000000E+00 -0.00000000000E+00 -0.10999892636E+02  0.10999892636E+02  0.00000000000E+00 0.  1.
          2    1    1    2  501    0 -0.22533913891E+02  0.44476118235E+01  0.77329360291E+01  0.24235445649E+02  0.00000000000E+00 0.  1.
         -2    1    1    2    0  502  0.22533913891E+02 -0.44476118235E+01  0.45234996207E+02  0.50732271859E+02  0.00000000000E+00 0. -1.
<mgrwt>
<rscale>  2 0.22968642E+02</rscale>
<asrwt>0</asrwt>
<pdfrwt beam="1">  1       21 0.98412036E-02 0.22968642E+02</pdfrwt>
<pdfrwt beam="2">  1       21 0.16922912E-02 0.22968642E+02</pdfrwt>
<totfact> 0.92405574E+07</totfact>
</mgrwt>
</event>
<event>
 4    1  0.2736402E+004  0.2656498E+02  0.7546771E-02  0.1639490E+00
         21   -1    0    0  501  502  0.00000000000E+00  0.00000000000E+00  0.25145901771E+01  0.25145901771E+01  0.00000000000E+00 0.  1.
         21   -1    0    0  502  503 -0.00000000000E+00 -0.00000000000E+00 -0.49432998621E+03  0.49432998621E+03  0.00000000000E+00 0. -1.
          2    1    1    2  501    0 -0.15805760628E+02 -0.21351252338E+02 -0.82575138455E+02  0.86743020102E+02  0.00000000000E+00 0.  1.
         -2    1    1    2    0  503  0.15805760628E+02  0.21351252338E+02 -0.40924025758E+03  0.41010155628E+03  0.00000000000E+00 0. -1.
<mgrwt>
<rscale>  2 0.26564978E+02</rscale>
<asrwt>0</asrwt>
<pdfrwt beam="1">  1       21 0.38685992E-03 0.26564978E+02</pdfrwt>
<pdfrwt beam="2">  1       21 0.76050789E-01 0.26564978E+02</pdfrwt>
<totfact> 0.20750008E+07</totfact>
</mgrwt>
</event>
<event>
 4    1  0.2736402E+004  0.2156618E+02  0.7546771E-02  0.1715864E+00
         21   -1    0    0  503  502  0.00000000000E+00  0.00000000000E+00  0.65397341267E+02  0.65397341267E+02  0.00000000000E+00 0. -1.
         21   -1    0    0  501  503 -0.00000000000E+00 -0.00000000000E+00 -0.12495248769E+02  0.12495248769E+02  0.00000000000E+00 0.  1.
          2    1    1    2  501    0 -0.13184216359E+02  0.17066829152E+02  0.88759892089E+00  0.21584440000E+02  0.00000000000E+00 0.  1.
         -2    1    1    2    0  502  0.13184216359E+02 -0.17066829152E+02  0.52014493578E+02  0.56308150036E+02  0.00000000000E+00 0. -1.
<mgrwt>
<rscale>  2 0.21566182E+02</rscale>
<asrwt>0</asrwt>
<pdfrwt beam="1">  1       21 0.10061129E-01 0.21566182E+02</pdfrwt>
<pdfrwt beam="2">  1       21 0.19223460E-02 0.21566182E+02</pdfrwt>
<totfact> 0.72055490E+07</totfact>
</mgrwt>
</event>
<event>
 4    1  0.2736402E+004  0.2245016E+02  0.7546771E-02  0.1700581E+00
         21   -1    0    0  503  502  0.00000000000E+00  0.00000000000E+00  0.26316657034E+03  0.26316657034E+03  0.00000000000E+00 0. -1.
         21   -1    0    0  501  503 -0.00000000000E+00 -0.00000000000E+00 -0.27895169549E+01  0.27895169549E+01  0.00000000000E+00 0.  1.
          2    1    1    2  501    0 -0.19182107408E+02 -0.11664319085E+02  0.55739928899E+02  0.60091174543E+02  0.00000000000E+00 0.  1.
         -2    1    1    2    0  502  0.19182107408E+02  0.11664319085E+02  0.20463712449E+03  0.20586491276E+03  0.00000000000E+00 0. -1.
<mgrwt>
<rscale>  2 0.22450158E+02</rscale>
<asrwt>0</asrwt>
<pdfrwt beam="1">  1       21 0.40487145E-01 0.22450158E+02</pdfrwt>
<pdfrwt beam="2">  1       21 0.42915666E-03 0.22450158E+02</pdfrwt>
<totfact> 0.59980621E+07</totfact>
</mgrwt>
</event>
<event>
 4    1  0.2736402E+004  0.5433234E+02  0.7546771E-02  0.1423283E+00
         21   -1    0    0  501  502  0.00000000000E+00  0.00000000000E+00  0.49538774562E+02  0.49538774562E+02  0.00000000000E+00 0.  1.
         21   -1    0    0  502  503 -0.00000000000E+00 -0.00000000000E+00 -0.59616465011E+02  0.59616465011E+02  0.00000000000E+00 0. -1.
          2    1    1    2  501    0 -0.24132427122E+02 -0.48678836138E+02 -0.38834786163E+01  0.54470951274E+02  0.00000000000E+00 0. -1.
         -2    1    1    2    0  503  0.24132427122E+02  0.48678836138E+02 -0.61942118330E+01  0.54684288299E+02  0.00000000000E+00 0.  1.
<mgrwt>
<rscale>  2 0.54332340E+02</rscale>
<asrwt>0</asrwt>
<pdfrwt beam="1">  1       21 0.76213499E-02 0.54332340E+02</pdfrwt>
<pdfrwt beam="2">  1       21 0.91717638E-02 0.54332340E+02</pdfrwt>
<totfact> 0.11113010E+07</totfact>
</mgrwt>
</event>
<event>
 4    1  0.2736402E+004  0.2290604E+02  0.7546771E-02  0.1693038E+00
         21   -1    0    0  503  502  0.00000000000E+00  0.00000000000E+00  0.16418682847E+02  0.16418682847E+02  0.00000000000E+00 0.  1.
         21   -1    0    0  501  503 -0.00000000000E+00 -0.00000000000E+00 -0.54424251289E+02  0.54424251289E+02  0.00000000000E+00 0. -1.
          2    1    1    2  501    0  0.22174675800E+02 -0.57419989782E+01 -0.41761526419E+02  0.47630997134E+02  0.00000000000E+00 0. -1.
         -2    1    1    2    0  502 -0.22174675800E+02  0.57419989782E+01  0.37559579773E+01  0.23211937003E+02  0.00000000000E+00 0.  1.
<mgrwt>
<rscale>  2 0.22906043E+02</rscale>
<asrwt>0</asrwt>
<pdfrwt beam="1">  1       21 0.25259512E-02 0.22906043E+02</pdfrwt>
<pdfrwt beam="2">  1       21 0.83729616E-02 0.22906043E+02</pdfrwt>
<totfact> 0.65091641E+07</totfact>
</mgrwt>
</event>
<event>
 4    1  0.2736402E+004  0.2514840E+02  0.7546771E-02  0.1658880E+00
         21   -1    0    0  503  502  0.00000000000E+00  0.00000000000E+00  0.41232221370E+03  0.41232221370E+03  0.00000000000E+00 0.  1.
         21   -1    0    0  501  503 -0.00000000000E+00 -0.00000000000E+00 -0.17428158940E+01  0.17428158940E+01  0.00000000000E+00 0. -1.
          2    1    1    2  501    0 -0.23590449013E+02 -0.87139326305E+01  0.13360164702E+03  0.13594793854E+03  0.00000000000E+00 0.  1.
         -2    1    1    2    0  502  0.23590449013E+02  0.87139326305E+01  0.27697775079E+03  0.27811709106E+03  0.00000000000E+00 0. -1.
<mgrwt>
<rscale>  2 0.25148398E+02</rscale>
<asrwt>0</asrwt>
<pdfrwt beam="1">  1       21 0.63434109E-01 0.25148398E+02</pdfrwt>
<pdfrwt beam="2">  1       21 0.26812585E-03 0.25148398E+02</pdfrwt>
<totfact> 0.51019356E+07</totfact>
</mgrwt>
</event>
<event>
 4    1  0.2736402E+004  0.2777612E+02  0.7546771E-02  0.1624057E+00
         21   -1    0    0  503  502  0.00000000000E+00  0.00000000000E+00  0.12931652407E+03  0.12931652407E+03  0.00000000000E+00 0. -1.
         21   -1    0    0  501  503 -0.00000000000E+00 -0.00000000000E+00 -0.12216017052E+02  0.12216017052E+02  0.00000000000E+00 0.  1.
          2    1    1    2  501    0 -0.36876715783E+01 -0.27530239698E+02  0.79329230716E+01  0.28886749349E+02  0.00000000000E+00 0.  1.
         -2    1    1    2    0  502  0.36876715783E+01  0.27530239698E+02  0.10916758394E+03  0.11264579177E+03  0.00000000000E+00 0. -1.
<mgrwt>
<rscale>  2 0.27776123E+02</rscale>
<asrwt>0</asrwt>
<pdfrwt beam="1">  1       21 0.19894849E-01 0.27776123E+02</pdfrwt>
<pdfrwt beam="2">  1       21 0.18793873E-02 0.27776123E+02</pdfrwt>
<totfact> 0.24856182E+07</totfact>
</mgrwt>
</event>
<event>
 4    1  0.2736402E+004  0.3558476E+02  0.7546771E-02  0.1543468E+00
         21   -1    0    0  503  502  0.00000000000E+00  0.00000000000E+00  0.65244573027E+01  0.65244573027E+01  0.00000000000E+00 0.  1.
         21   -1    0    0  501  503 -0.00000000000E+00 -0.00000000000E+00 -0.20915563507E+03  0.20915563507E+03  0.00000000000E+00 0. -1.
          2    1    1    2  501    0  0.71297772373E+01  0.34863177915E+02 -0.13026667963E+03  0.13503955983E+03  0.00000000000E+00 0.  1.
         -2    1    1    2    0  502 -0.71297772373E+01 -0.34863177915E+02 -0.72364498137E+02  0.80640532541E+02  0.00000000000E+00 0. -1.
<mgrwt>
<rscale>  2 0.35584757E+02</rscale>
<asrwt>0</asrwt>
<pdfrwt beam="1">  1       21 0.10037626E-02 0.35584757E+02</pdfrwt>
<pdfrwt beam="2">  1       21 0.32177792E-01 0.35584757E+02</pdfrwt>
<totfact> 0.28522777E+07</totfact>
</mgrwt>
</event>
<event>
 4    1  0.2736402E+004  0.2011046E+02  0.7546771E-02  0.1743140E+00
         21   -1    0    0  503  502  0.00000000000E+00  0.00000000000E+00  0.93654076652E+03  0.93654076652E+03  0.00000000000E+00 0. -1.
         21   -1    0    0  501  503 -0.00000000000E+00 -0.00000000000E+00 -0.13200044557E+01  0.13200044557E+01  0.00000000000E+00 0.  1.
          2    1    1    2  501    0  0.19752725789E+02 -0.37762800312E+01  0.82957709074E+02  0.85360482437E+02  0.00000000000E+00 0.  1.
         -2    1    1    2    0  502 -0.19752725789E+02  0.37762800312E+01  0.85226305299E+03  0.85250028854E+03  0.00000000000E+00 0. -1.
<mgrwt>
<rscale>  2 0.20110457E+02</rscale>
<asrwt>0</asrwt>
<pdfrwt beam="1">  1       21 0.14408266E+00 0.20110457E+02</pdfrwt>
<pdfrwt beam="2">  1       21 0.20307836E-03 0.20110457E+02</pdfrwt>
<totfact> 0.12307069E+07</totfact>
</mgrwt>
</event>
<event>
 4    1  0.2736402E+004  0.3395763E+02  0.7546771E-02  0.1558057E+00
         21   -1    0    0  501  502  0.00000000000E+00  0.00000000000E+00  0.55058295003E+02  0.55058295003E+02  0.00000000000E+00 0.  1.
         21   -1    0    0  502  503 -0.00000000000E+00 -0.00000000000E+00 -0.23506746389E+02  0.23506746389E+02  0.00000000000E+00 0. -1.
          2    1    1    2  501    0  0.10211920991E+02 -0.32385753886E+02  0.28747194216E+02  0.44491814532E+02  0.00000000000E+00 0. -1.
         -2    1    1    2    0  503 -0.10211920991E+02  0.32385753886E+02  0.28043543979E+01  0.34073226860E+02  0.00000000000E+00 0.  1.
<mgrwt>
<rscale>  2 0.33957626E+02</rscale>
<asrwt>0</asrwt>
<pdfrwt beam="1">  1       21 0.84705069E-02 0.33957626E+02</pdfrwt>
<pdfrwt beam="2">  1       21 0.36164226E-02 0.33957626E+02</pdfrwt>
<totfact> 0.39854255E+07</totfact>
</mgrwt>
</event>
<event>
 4    1  0.2736402E+004  0.6041380E+02  0.7546771E-02  0.1396103E+00
         21   -1    0    0  503  502  0.00000000000E+00  0.00000000000E+00  0.12436894309E+03  0.12436894309E+03  0.00000000000E+00 0. -1.
         21   -1    0    0  501  503 -0.00000000000E+00 -0.00000000000E+00 -0.63585615215E+02  0.63585615215E+02  0.00000000000E+00 0.  1.
          2    1    1    2  501    0 -0.56191529545E+02 -0.22188721331E+02 -0.38569241194E+02  0.71675754013E+02  0.00000000000E+00 0.  1.
         -2    1    1    2    0  502  0.56191529545E+02  0.22188721331E+02  0.99352569069E+02  0.11627880429E+03  0.00000000000E+00 0. -1.
<mgrwt>
<rscale>  2 0.60413801E+02</rscale>
<asrwt>0</asrwt>
<pdfrwt beam="1">  1       21 0.19133684E-01 0.60413801E+02</pdfrwt>
<pdfrwt beam="2">  1       21 0.97824023E-02 0.60413801E+02</pdfrwt>
<totfact> 0.20361774E+06</totfact>
</mgrwt>
</event>
<event>
 4    1  0.2736402E+004  0.2031524E+02  0.7546771E-02  0.1739131E+00
         21   -1    0    0  501  502  0.00000000000E+00  0.00000000000E+00  0.41759328156E+02  0.41759328156E+02  0.00000000000E+00 0. -1.
         21   -1    0    0  502  503 -0.00000000000E+00 -0.00000000000E+00 -0.99914135440E+01  0.99914135440E+01  0.00000000000E+00 0.  1.
          2    1    1    2  501    0  0.17854163933E+02 -0.96921490339E+01  0.18578864220E+02  0.27529677048E+02  0.00000000000E+00 0. -1.
         -2    1    1    2    0  503 -0.17854163933E+02  0.96921490339E+01  0.13189050392E+02  0.24221064653E+02  0.00000000000E+00 0.  1.
<mgrwt>
<rscale>  2 0.20315239E+02</rscale>
<asrwt>0</asrwt>
<pdfrwt beam="1">  1       21 0.64245120E-02 0.20315239E+02</pdfrwt>
<pdfrwt beam="2">  1       21 0.15371406E-02 0.20315239E+02</pdfrwt>
<totfact> 0.20626603E+08</totfact>
</mgrwt>
</event>
<event>
 4    1  0.2736402E+004  0.2149173E+02  0.7546771E-02  0.1717193E+00
         21   -1    0    0  501  502  0.00000000000E+00  0.00000000000E+00  0.52702260805E+01  0.52702260805E+01  0.00000000000E+00 0. -1.
         21   -1    0    0  502  503 -0.00000000000E+00 -0.00000000000E+00 -0.87656117556E+02  0.87656117556E+02  0.00000000000E+00 0.  1.
          2    1    1    2  501    0  0.19482236065E+02  0.90739637336E+01 -0.41777882487E+02  0.46981760344E+02  0.00000000000E+00 0.  1.
         -2    1    1    2    0  503 -0.19482236065E+02 -0.90739637336E+01 -0.40608008989E+02  0.45944583293E+02  0.00000000000E+00 0. -1.
<mgrwt>
<rscale>  2 0.21491727E+02</rscale>
<asrwt>0</asrwt>
<pdfrwt beam="1">  1       21 0.81080405E-03 0.21491727E+02</pdfrwt>
<pdfrwt beam="2">  1       21 0.13485556E-01 0.21491727E+02</pdfrwt>
<totfact> 0.16244749E+08</totfact>
</mgrwt>
</event>
<event>
 4    1  0.2736402E+004  0.2381519E+02  0.7546771E-02  0.1678627E+00
         21   -1    0    0  503  502  0.00000000000E+00  0.00000000000E+00  0.38945291062E+01  0.38945291062E+01  0.00000000000E+00 0. -1.
         21   -1    0    0  501  503 -0.00000000000E+00 -0.00000000000E+00 -0.31400036188E+03  0.31400036188E+03  0.00000000000E+00 0.  1.
          2    1    1    2  501    0 -0.11689666759E+02 -0.20748858912E+02 -0.27144414363E+03  0.27248685576E+03  0.00000000000E+00 0.  1.
         -2    1    1    2    0  502  0.11689666759E+02  0.20748858912E+02 -0.38661689152E+02  0.45408035226E+02  0.00000000000E+00 0. -1.
<mgrwt>
<rscale>  2 0.23815194E+02</rscale>
<asrwt>0</asrwt>
<pdfrwt beam="1">  1       21 0.59915819E-03 0.23815194E+02</pdfrwt>
<pdfrwt beam="2">  1       21 0.48307759E-01 0.23815194E+02</pdfrwt>
<totfact> 0.26515299E+07</totfact>
</mgrwt>
</event>
<event>
 4    1  0.2736402E+004  0.2575316E+02  0.7546771E-02  0.1650414E+00
         21   -1    0    0  503  502  0.00000000000E+00  0.00000000000E+00  0.14659058291E+04  0.14659058291E+04  0.00000000000E+00 0. -1.
         21   -1    0    0  501  503 -0.00000000000E+00 -0.00000000000E+00 -0.14782724721E+01  0.14782724721E+01  0.00000000000E+00 0.  1.
          2    1    1    2  501    0 -0.17776182785E+02  0.18634183745E+02  0.12102399894E+03  0.12373372135E+03  0.00000000000E+00 0.  1.
         -2    1    1    2    0  502  0.17776182785E+02 -0.18634183745E+02  0.13434035577E+04  0.13436503803E+04  0.00000000000E+00 0. -1.
<mgrwt>
<rscale>  2 0.25753164E+02</rscale>
<asrwt>0</asrwt>
<pdfrwt beam="1">  1       21 0.22552281E+00 0.25753164E+02</pdfrwt>
<pdfrwt beam="2">  1       21 0.22742771E-03 0.25753164E+02</pdfrwt>
<totfact> 0.35065639E+06</totfact>
</mgrwt>
</event>
<event>
 4    1  0.2736402E+004  0.2792849E+02  0.7546771E-02  0.1622184E+00
         21   -1    0    0  501  502  0.00000000000E+00  0.00000000000E+00  0.17013895159E+01  0.17013895159E+01  0.00000000000E+00 0. -1.
         21   -1    0    0  502  503 -0.00000000000E+00 -0.00000000000E+00 -0.71675120119E+03  0.71675120119E+03  0.00000000000E+00 0.  1.
          2    1    1    2  501    0 -0.15850142958E+02 -0.22995074250E+02 -0.14187568937E+03  0.14459844987E+03  0.00000000000E+00 0. -1.
         -2    1    1    2    0  503  0.15850142958E+02  0.22995074250E+02 -0.57317412231E+03  0.57385414083E+03  0.00000000000E+00 0.  1.
<mgrwt>
<rscale>  2 0.27928489E+02</rscale>
<asrwt>0</asrwt>
<pdfrwt beam="1">  1       21 0.26175272E-03 0.27928489E+02</pdfrwt>
<pdfrwt beam="2">  1       21 0.11026921E+00 0.27928489E+02</pdfrwt>
<totfact> 0.16586232E+07</totfact>
</mgrwt>
</event>
<event>
 4    1  0.2736402E+004  0.2540111E+02  0.7546771E-02  0.1655307E+00
         21   -1    0    0  503  502  0.00000000000E+00  0.00000000000E+00  0.10569777195E+01  0.10569777195E+01  0.00000000000E+00 0. -1.
         21   -1    0    0  501  503 -0.00000000000E+00 -0.00000000000E+00 -0.65252590855E+03  0.65252590855E+03  0.00000000000E+00 0.  1.
          2    1    1    2  501    0  0.25265222275E+02  0.26239309865E+01 -0.40873188649E+03  0.40952041647E+03  0.00000000000E+00 0.  1.
         -2    1    1    2    0  502 -0.25265222275E+02 -0.26239309865E+01 -0.24273704434E+03  0.24406246980E+03  0.00000000000E+00 0. -1.
<mgrwt>
<rscale>  2 0.25401112E+02</rscale>
<asrwt>0</asrwt>
<pdfrwt beam="1">  1       21 0.16261198E-03 0.25401112E+02</pdfrwt>
<pdfrwt beam="2">  1       21 0.10038859E+00 0.25401112E+02</pdfrwt>
<totfact> 0.40123248E+07</totfact>
</mgrwt>
</event>
<event>
 4    1  0.2736402E+004  0.2021302E+02  0.7546771E-02  0.1741125E+00
         21   -1    0    0  501  502  0.00000000000E+00  0.00000000000E+00  0.17772038409E+03  0.17772038409E+03  0.00000000000E+00 0. -1.
         21   -1    0    0  502  503 -0.00000000000E+00 -0.00000000000E+00 -0.42818468867E+01  0.42818468867E+01  0.00000000000E+00 0.  1.
          2    1    1    2  501    0  0.84113131192E+01  0.18379773899E+02  0.14864678734E+03  0.15001477815E+03  0.00000000000E+00 0. -1.
         -2    1    1    2    0  503 -0.84113131192E+01 -0.18379773899E+02  0.24791749860E+02  0.31987452823E+02  0.00000000000E+00 0.  1.
<mgrwt>
<rscale>  2 0.20213022E+02</rscale>
<asrwt>0</asrwt>
<pdfrwt beam="1">  1       21 0.27341592E-01 0.20213022E+02</pdfrwt>
<pdfrwt beam="2">  1       21 0.65874581E-03 0.20213022E+02</pdfrwt>
<totfact> 0.63838676E+07</totfact>
</mgrwt>
</event>
<event>
 4    1  0.2736402E+004  0.2483692E+02  0.7546771E-02  0.1663355E+00
         21   -1    0    0  501  502  0.00000000000E+00  0.00000000000E+00  0.34202074338E+01  0.34202074338E+01  0.00000000000E+00 0. -1.
         21   -1    0    0  502  503 -0.00000000000E+00 -0.00000000000E+00 -0.31394404511E+03  0.31394404511E+03  0.00000000000E+00 0.  1.
          2    1    1    2  501    0  0.40428755082E+01  0.24505666766E+02 -0.51753109699E+02  0.57404328318E+02  0.00000000000E+00 0. -1.
         -2    1    1    2    0  503 -0.40428755082E+01 -0.24505666766E+02 -0.25877072797E+03  0.25995992422E+03  0.00000000000E+00 0.  1.
<mgrwt>
<rscale>  2 0.24836919E+02</rscale>
<asrwt>0</asrwt>
<pdfrwt beam="1">  1       21 0.52618574E-03 0.24836919E+02</pdfrwt>
<pdfrwt beam="2">  1       21 0.48299086E-01 0.24836919E+02</pdfrwt>
<totfact> 0.32439548E+07</totfact>
</mgrwt>
</event>
<event>
 4    1  0.2736402E+004  0.3064770E+02  0.7546771E-02  0.1591038E+00
         21   -1    0    0  501  502  0.00000000000E+00  0.00000000000E+00  0.15262076959E+03  0.15262076959E+03  0.00000000000E+00 0.  1.
         21   -1    0    0  502  503 -0.00000000000E+00 -0.00000000000E+00 -0.65172222898E+01  0.65172222898E+01  0.00000000000E+00 0. -1.
          2    1    1    2  501    0  0.17391923334E+02 -0.25234951506E+02  0.54276384000E+02  0.62331433762E+02  0.00000000000E+00 0. -1.
         -2    1    1    2    0  503 -0.17391923334E+02  0.25234951506E+02  0.91827163301E+02  0.96806558118E+02  0.00000000000E+00 0.  1.
<mgrwt>
<rscale>  2 0.30647704E+02</rscale>
<asrwt>0</asrwt>
<pdfrwt beam="1">  1       21 0.23480116E-01 0.30647704E+02</pdfrwt>
<pdfrwt beam="2">  1       21 0.10026497E-02 0.30647704E+02</pdfrwt>
<totfact> 0.49392546E+07</totfact>
</mgrwt>
</event>
<event>
 4    1  0.2736402E+004  0.2282740E+02  0.7546771E-02  0.1694323E+00
         21   -1    0    0  503  502  0.00000000000E+00  0.00000000000E+00  0.35103258064E+03  0.35103258064E+03  0.00000000000E+00 0. -1.
         21   -1    0    0  501  503 -0.00000000000E+00 -0.00000000000E+00 -0.50403100270E+01  0.50403100270E+01  0.00000000000E+00 0.  1.
          2    1    1    2  501    0 -0.18986494337E+02  0.12672925946E+02  0.23457756088E+02  0.32731580162E+02  0.00000000000E+00 0.  1.
         -2    1    1    2    0  502  0.18986494337E+02 -0.12672925946E+02  0.32253451453E+03  0.32334131051E+03  0.00000000000E+00 0. -1.
<mgrwt>
<rscale>  2 0.22827396E+02</rscale>
<asrwt>0</asrwt>
<pdfrwt beam="1">  1       21 0.54004993E-01 0.22827396E+02</pdfrwt>
<pdfrwt beam="2">  1       21 0.77543259E-03 0.22827396E+02</pdfrwt>
<totfact> 0.14412306E+07</totfact>
</mgrwt>
</event>
<event>
 4    1  0.2736402E+004  0.5055697E+02  0.7546771E-02  0.1442360E+00
         21   -1    0    0  501  502  0.00000000000E+00  0.00000000000E+00  0.22336584437E+03  0.22336584437E+03  0.00000000000E+00 0.  1.
         21   -1    0    0  502  503 -0.00000000000E+00 -0.00000000000E+00 -0.16889497679E+02  0.16889497679E+02  0.00000000000E+00 0. -1.
          2    1    1    2  501    0 -0.36127088735E+02 -0.35367228059E+02  0.17145439162E+03  0.17875294617E+03  0.00000000000E+00 0.  1.
         -2    1    1    2    0  503  0.36127088735E+02  0.35367228059E+02  0.35021955072E+02  0.61502395873E+02  0.00000000000E+00 0. -1.
<mgrwt>
<rscale>  2 0.50556971E+02</rscale>
<asrwt>0</asrwt>
<pdfrwt beam="1">  1       21 0.34363974E-01 0.50556971E+02</pdfrwt>
<pdfrwt beam="2">  1       21 0.25983844E-02 0.50556971E+02</pdfrwt>
<totfact> 0.60147438E+06</totfact>
</mgrwt>
</event>
<event>
 4    1  0.2736402E+004  0.2608613E+02  0.7546771E-02  0.1645874E+00
         21   -1    0    0  501  502  0.00000000000E+00  0.00000000000E+00  0.36267227527E+02  0.36267227527E+02  0.00000000000E+00 0.  1.
         21   -1    0    0  502  503 -0.00000000000E+00 -0.00000000000E+00 -0.18793430106E+02  0.18793430106E+02  0.00000000000E+00 0. -1.
          2    1    1    2  501    0 -0.54471202922E+01 -0.25511080685E+02  0.98425014970E+01  0.27881197839E+02  0.00000000000E+00 0. -1.
         -2    1    1    2    0  503  0.54471202922E+01  0.25511080685E+02  0.76312959247E+01  0.27179459794E+02  0.00000000000E+00 0.  1.
<mgrwt>
<rscale>  2 0.26086133E+02</rscale>
<asrwt>0</asrwt>
<pdfrwt beam="1">  1       21 0.55795735E-02 0.26086133E+02</pdfrwt>
<pdfrwt beam="2">  1       21 0.28912969E-02 0.26086133E+02</pdfrwt>
<totfact> 0.10551610E+08</totfact>
</mgrwt>
</event>
<event>
 4    1  0.2736402E+004  0.2778670E+02  0.7546771E-02  0.1623927E+00
         21   -1    0    0  501  502  0.00000000000E+00  0.00000000000E+00  0.50901744928E+01  0.50901744928E+01  0.00000000000E+00 0. -1.
         21   -1    0    0  502  503 -0.00000000000E+00 -0.00000000000E+00 -0.15484233495E+03  0.15484233495E+03  0.00000000000E+00 0.  1.
          2    1    1    2  501    0 -0.13459454242E+02 -0.24309338625E+02 -0.86295731211E+02  0.90658998881E+02  0.00000000000E+00 0.  1.
         -2    1    1    2    0  503  0.13459454242E+02  0.24309338625E+02 -0.63456429247E+02  0.69273510562E+02  0.00000000000E+00 0. -1.
<mgrwt>
<rscale>  2 0.27786703E+02</rscale>
<asrwt>0</asrwt>
<pdfrwt beam="1">  1       21 0.78310394E-03 0.27786703E+02</pdfrwt>
<pdfrwt beam="2">  1       21 0.23821893E-01 0.27786703E+02</pdfrwt>
<totfact> 0.68379852E+07</totfact>
</mgrwt>
</event>
<event>
 4    1  0.2736402E+004  0.5321774E+02  0.7546771E-02  0.1428720E+00
         21   -1    0    0  503  502  0.00000000000E+00  0.00000000000E+00  0.52138038335E+01  0.52138038335E+01  0.00000000000E+00 0.  1.
         21   -1    0    0  501  503 -0.00000000000E+00 -0.00000000000E+00 -0.64371583770E+03  0.64371583770E+03  0.00000000000E+00 0. -1.
          2    1    1    2  501    0  0.75667803346E+01 -0.52677050951E+02 -0.44746697110E+03  0.45062048121E+03  0.00000000000E+00 0.  1.
         -2    1    1    2    0  502 -0.75667803346E+01  0.52677050951E+02 -0.19103506277E+03  0.19830916032E+03  0.00000000000E+00 0. -1.
<mgrwt>
<rscale>  2 0.53217740E+02</rscale>
<asrwt>0</asrwt>
<pdfrwt beam="1">  1       21 0.80212394E-03 0.53217740E+02</pdfrwt>
<pdfrwt beam="2">  1       21 0.99033172E-01 0.53217740E+02</pdfrwt>
<totfact> 0.42508845E+06</totfact>
</mgrwt>
</event>
<event>
 4    1  0.2736402E+004  0.2372681E+02  0.7546771E-02  0.1679993E+00
         21   -1    0    0  501  502  0.00000000000E+00  0.00000000000E+00  0.54941288945E+02  0.54941288945E+02  0.00000000000E+00 0. -1.
         21   -1    0    0  502  503 -0.00000000000E+00 -0.00000000000E+00 -0.25361028839E+02  0.25361028839E+02  0.00000000000E+00 0.  1.
          2    1    1    2  501    0  0.88329410539E+00 -0.23710365221E+02  0.45786473518E+02  0.51569009924E+02  0.00000000000E+00 0. -1.
         -2    1    1    2    0  503 -0.88329410539E+00  0.23710365221E+02 -0.16206213412E+02  0.28733307859E+02  0.00000000000E+00 0.  1.
<mgrwt>
<rscale>  2 0.23726812E+02</rscale>
<asrwt>0</asrwt>
<pdfrwt beam="1">  1       21 0.84525060E-02 0.23726812E+02</pdfrwt>
<pdfrwt beam="2">  1       21 0.39016967E-02 0.23726812E+02</pdfrwt>
<totfact> 0.32806276E+07</totfact>
</mgrwt>
</event>
<event>
 4    1  0.2736402E+004  0.2499461E+02  0.7546771E-02  0.1661079E+00
         21   -1    0    0  503  502  0.00000000000E+00  0.00000000000E+00  0.45649577033E+02  0.45649577033E+02  0.00000000000E+00 0. -1.
         21   -1    0    0  501  503 -0.00000000000E+00 -0.00000000000E+00 -0.30806331791E+02  0.30806331791E+02  0.00000000000E+00 0.  1.
          2    1    1    2  501    0 -0.24544062955E+02  0.47243263558E+01 -0.21077103021E+02  0.32695176367E+02  0.00000000000E+00 0.  1.
         -2    1    1    2    0  502  0.24544062955E+02 -0.47243263558E+01  0.35920348263E+02  0.43760732457E+02  0.00000000000E+00 0. -1.
<mgrwt>
<rscale>  2 0.24994605E+02</rscale>
<asrwt>0</asrwt>
<pdfrwt beam="1">  1       21 0.70230118E-02 0.24994605E+02</pdfrwt>
<pdfrwt beam="2">  1       21 0.47394357E-02 0.24994605E+02</pdfrwt>
<totfact> 0.33015039E+07</totfact>
</mgrwt>
</event>
<event>
 4    1  0.2736402E+004  0.4225163E+02  0.7546771E-02  0.1492267E+00
         21   -1    0    0  503  502  0.00000000000E+00  0.00000000000E+00  0.10848453386E+04  0.10848453386E+04  0.00000000000E+00 0.  1.
         21   -1    0    0  501  503 -0.00000000000E+00 -0.00000000000E+00 -0.16533295585E+01  0.16533295585E+01  0.00000000000E+00 0. -1.
          2    1    1    2  501    0  0.27104532423E+02  0.32412108387E+02  0.50440473243E+03  0.50617125022E+03  0.00000000000E+00 0. -1.
         -2    1    1    2    0  502 -0.27104532423E+02 -0.32412108387E+02  0.57878727664E+03  0.58032741797E+03  0.00000000000E+00 0.  1.
<mgrwt>
<rscale>  2 0.42251632E+02</rscale>
<asrwt>0</asrwt>
<pdfrwt beam="1">  1       21 0.16689871E+00 0.42251632E+02</pdfrwt>
<pdfrwt beam="2">  1       21 0.25435926E-03 0.42251632E+02</pdfrwt>
<totfact> 0.67711412E+06</totfact>
</mgrwt>
</event>
<event>
 4    1  0.2736402E+004  0.2991278E+02  0.7546771E-02  0.1599055E+00
         21   -1    0    0  501  502  0.00000000000E+00  0.00000000000E+00  0.25849858896E+02  0.25849858896E+02  0.00000000000E+00 0. -1.
         21   -1    0    0  502  503 -0.00000000000E+00 -0.00000000000E+00 -0.44340022213E+02  0.44340022213E+02  0.00000000000E+00 0.  1.
          2    1    1    2  501    0 -0.29217258625E+02  0.64129784435E+01  0.71913571577E+01  0.30765079422E+02  0.00000000000E+00 0. -1.
         -2    1    1    2    0  503  0.29217258625E+02 -0.64129784435E+01 -0.25681520475E+02  0.39424801686E+02  0.00000000000E+00 0.  1.
<mgrwt>
<rscale>  2 0.29912781E+02</rscale>
<asrwt>0</asrwt>
<pdfrwt beam="1">  1       21 0.39769014E-02 0.29912781E+02</pdfrwt>
<pdfrwt beam="2">  1       21 0.68215419E-02 0.29912781E+02</pdfrwt>
<totfact> 0.47667049E+07</totfact>
</mgrwt>
</event>
<event>
 4    1  0.2736402E+004  0.2760428E+02  0.7546771E-02  0.1626187E+00
         21   -1    0    0  503  502  0.00000000000E+00  0.00000000000E+00  0.30654726969E+03  0.30654726969E+03  0.00000000000E+00 0.  1.
         21   -1    0    0  501  503 -0.00000000000E+00 -0.00000000000E+00 -0.72906204681E+01  0.72906204681E+01  0.00000000000E+00 0. -1.
          2    1    1    2  501    0  0.10323488343E+02 -0.25601203904E+02  0.22238558492E+02  0.35447842483E+02  0.00000000000E+00 0. -1.
         -2    1    1    2    0  502 -0.10323488343E+02  0.25601203904E+02  0.27701809073E+03  0.27839004767E+03  0.00000000000E+00 0.  1.
<mgrwt>
<rscale>  2 0.27604276E+02</rscale>
<asrwt>0</asrwt>
<pdfrwt beam="1">  1       21 0.47161109E-01 0.27604276E+02</pdfrwt>
<pdfrwt beam="2">  1       21 0.11216342E-02 0.27604276E+02</pdfrwt>
<totfact> 0.11150215E+07</totfact>
</mgrwt>
</event>
<event>
 4    1  0.2736402E+004  0.2055180E+02  0.7546771E-02  0.1734572E+00
         21   -1    0    0  501  502  0.00000000000E+00  0.00000000000E+00  0.91471069879E+01  0.91471069879E+01  0.00000000000E+00 0.  1.
         21   -1    0    0  502  503 -0.00000000000E+00 -0.00000000000E+00 -0.80683528085E+02  0.80683528085E+02  0.00000000000E+00 0. -1.
          2    1    1    2  501    0 -0.16030553081E+02  0.12860705077E+02 -0.63944692686E+01  0.21523605748E+02  0.00000000000E+00 0.  1.
         -2    1    1    2    0  503  0.16030553081E+02 -0.12860705077E+02 -0.65141951828E+02  0.68307029325E+02  0.00000000000E+00 0. -1.
<mgrwt>
<rscale>  2 0.20551797E+02</rscale>
<asrwt>0</asrwt>
<pdfrwt beam="1">  1       21 0.14072473E-02 0.20551797E+02</pdfrwt>
<pdfrwt beam="2">  1       21 0.12412850E-01 0.20551797E+02</pdfrwt>
<totfact> 0.80579741E+07</totfact>
</mgrwt>
</event>
<event>
 4    1  0.2736402E+004  0.2107976E+02  0.7546771E-02  0.1724671E+00
         21   -1    0    0  501  502  0.00000000000E+00  0.00000000000E+00  0.81974174030E+03  0.81974174030E+03  0.00000000000E+00 0.  1.
         21   -1    0    0  502  503 -0.00000000000E+00 -0.00000000000E+00 -0.30107002176E+01  0.30107002176E+01  0.00000000000E+00 0. -1.
          2    1    1    2  501    0 -0.23408977976E+01 -0.20949383806E+02  0.78087175451E+03  0.78115622860E+03  0.00000000000E+00 0.  1.
         -2    1    1    2    0  503  0.23408977976E+01  0.20949383806E+02  0.35859285570E+02  0.41596211918E+02  0.00000000000E+00 0. -1.
<mgrwt>
<rscale>  2 0.21079765E+02</rscale>
<asrwt>0</asrwt>
<pdfrwt beam="1">  1       21 0.12611394E+00 0.21079765E+02</pdfrwt>
<pdfrwt beam="2">  1       21 0.46318530E-03 0.21079765E+02</pdfrwt>
<totfact> 0.50873732E+06</totfact>
</mgrwt>
</event>
<event>
 4    1  0.2736402E+004  0.3765811E+02  0.7546771E-02  0.1526188E+00
         21   -1    0    0  503  502  0.00000000000E+00  0.00000000000E+00  0.51769032342E+02  0.51769032342E+02  0.00000000000E+00 0. -1.
         21   -1    0    0  501  503 -0.00000000000E+00 -0.00000000000E+00 -0.27441651929E+02  0.27441651929E+02  0.00000000000E+00 0.  1.
          2    1    1    2  501    0 -0.22291674367E+02  0.30351521018E+02  0.13823195189E+02  0.40115013392E+02  0.00000000000E+00 0.  1.
         -2    1    1    2    0  502  0.22291674367E+02 -0.30351521018E+02  0.10504185224E+02  0.39095670879E+02  0.00000000000E+00 0. -1.
<mgrwt>
<rscale>  2 0.37658114E+02</rscale>
<asrwt>0</asrwt>
<pdfrwt beam="1">  1       21 0.79644665E-02 0.37658114E+02</pdfrwt>
<pdfrwt beam="2">  1       21 0.42217926E-02 0.37658114E+02</pdfrwt>
<totfact> 0.35160067E+07</totfact>
</mgrwt>
</event>
<event>
 4    1  0.2736402E+004  0.2653887E+02  0.7546771E-02  0.1639834E+00
         21   -1    0    0  501  502  0.00000000000E+00  0.00000000000E+00  0.25787952630E+03  0.25787952630E+03  0.00000000000E+00 0. -1.
         21   -1    0    0  502  503 -0.00000000000E+00 -0.00000000000E+00 -0.47903861458E+01  0.47903861458E+01  0.00000000000E+00 0.  1.
          2    1    1    2  501    0  0.26211161015E+02 -0.41577491182E+01  0.21265315317E+03  0.21430276572E+03  0.00000000000E+00 0. -1.
         -2    1    1    2    0  503 -0.26211161015E+02  0.41577491182E+01  0.40435986979E+02  0.48367146726E+02  0.00000000000E+00 0.  1.
<mgrwt>
<rscale>  2 0.26538874E+02</rscale>
<asrwt>0</asrwt>
<pdfrwt beam="1">  1       21 0.39673763E-01 0.26538874E+02</pdfrwt>
<pdfrwt beam="2">  1       21 0.73698268E-03 0.26538874E+02</pdfrwt>
<totfact> 0.29033642E+07</totfact>
</mgrwt>
</event>
<event>
 4    1  0.2736402E+004  0.2149344E+02  0.7546771E-02  0.1717163E+00
         21   -1    0    0  503  502  0.00000000000E+00  0.00000000000E+00  0.28911988015E+01  0.28911988015E+01  0.00000000000E+00 0. -1.
         21   -1    0    0  501  503 -0.00000000000E+00 -0.00000000000E+00 -0.23879147504E+03  0.23879147504E+03  0.00000000000E+00 0.  1.
          2    1    1    2  501    0  0.21082878388E+02  0.41809088602E+01 -0.18745893559E+03  0.18868709626E+03  0.00000000000E+00 0.  1.
         -2    1    1    2    0  502 -0.21082878388E+02 -0.41809088602E+01 -0.48441340646E+02  0.52995577585E+02  0.00000000000E+00 0. -1.
<mgrwt>
<rscale>  2 0.21493435E+02</rscale>
<asrwt>0</asrwt>
<pdfrwt beam="1">  1       21 0.44479968E-03 0.21493435E+02</pdfrwt>
<pdfrwt beam="2">  1       21 0.36737162E-01 0.21493435E+02</pdfrwt>
<totfact> 0.67513936E+07</totfact>
</mgrwt>
</event>
<event>
 4    1  0.2736402E+004  0.2468747E+02  0.7546771E-02  0.1665532E+00
         21   -1    0    0  501  502  0.00000000000E+00  0.00000000000E+00  0.13887656224E+03  0.13887656224E+03  0.00000000000E+00 0.  1.
         21   -1    0    0  502  503 -0.00000000000E+00 -0.00000000000E+00 -0.45391415714E+02  0.45391415714E+02  0.00000000000E+00 0. -1.
          2    1    1    2  501    0 -0.22199561754E+02  0.10800482402E+02  0.13430946912E+03  0.13655952716E+03  0.00000000000E+00 0.  1.
         -2    1    1    2    0  503  0.22199561754E+02 -0.10800482402E+02 -0.40824322594E+02  0.47708450797E+02  0.00000000000E+00 0. -1.
<mgrwt>
<rscale>  2 0.24687466E+02</rscale>
<asrwt>0</asrwt>
<pdfrwt beam="1">  1       21 0.21365625E-01 0.24687466E+02</pdfrwt>
<pdfrwt beam="2">  1       21 0.69832948E-02 0.24687466E+02</pdfrwt>
<totfact> 0.27069137E+06</totfact>
</mgrwt>
</event>
<event>
 4    1  0.2736402E+004  0.2459008E+02  0.7546771E-02  0.1666961E+00
         21   -1    0    0  501  502  0.00000000000E+00  0.00000000000E+00  0.27472204966E+03  0.27472204966E+03  0.00000000000E+00 0. -1.
         21   -1    0    0  502  503 -0.00000000000E+00 -0.00000000000E+00 -0.23370528400E+01  0.23370528400E+01  0.00000000000E+00 0.  1.
          2    1    1    2  501    0  0.19049961273E+02 -0.15548981439E+02  0.16961291812E+03  0.17138615417E+03  0.00000000000E+00 0. -1.
         -2    1    1    2    0  503 -0.19049961273E+02  0.15548981439E+02  0.10277207871E+03  0.10567294833E+03  0.00000000000E+00 0.  1.
<mgrwt>
<rscale>  2 0.24590076E+02</rscale>
<asrwt>0</asrwt>
<pdfrwt beam="1">  1       21 0.42264905E-01 0.24590076E+02</pdfrwt>
<pdfrwt beam="2">  1       21 0.35954681E-03 0.24590076E+02</pdfrwt>
<totfact> 0.73314386E+07</totfact>
</mgrwt>
</event>
<event>
 4    1  0.2736402E+004  0.3309280E+02  0.7546771E-02  0.1566220E+00
         21   -1    0    0  501  502  0.00000000000E+00  0.00000000000E+00  0.26022590424E+02  0.26022590424E+02  0.00000000000E+00 0.  1.
         21   -1    0    0  502  503 -0.00000000000E+00 -0.00000000000E+00 -0.94282048150E+02  0.94282048150E+02  0.00000000000E+00 0. -1.
          2    1    1    2  501    0  0.22059207472E+02  0.24668290405E+02  0.10627711947E+02  0.34757466062E+02  0.00000000000E+00 0.  1.
         -2    1    1    2    0  503 -0.22059207472E+02 -0.24668290405E+02 -0.78887169673E+02  0.85547172512E+02  0.00000000000E+00 0. -1.
<mgrwt>
<rscale>  2 0.33092797E+02</rscale>
<asrwt>0</asrwt>
<pdfrwt beam="1">  1       21 0.40034754E-02 0.33092797E+02</pdfrwt>
<pdfrwt beam="2">  1       21 0.14504931E-01 0.33092797E+02</pdfrwt>
<totfact> 0.13582150E+07</totfact>
</mgrwt>
</event>
<event>
 4    1  0.2736402E+004  0.2015458E+02  0.7546771E-02  0.1742271E+00
         21   -1    0    0  503  502  0.00000000000E+00  0.00000000000E+00  0.12876665571E+02  0.12876665571E+02  0.00000000000E+00 0. -1.
         21   -1    0    0  501  503 -0.00000000000E+00 -0.00000000000E+00 -0.51813400544E+02  0.51813400544E+02  0.00000000000E+00 0.  1.
          2    1    1    2  501    0 -0.66387721441E+01 -0.19029814656E+02 -0.39697893251E+02  0.44521117124E+02  0.00000000000E+00 0.  1.
         -2    1    1    2    0  502  0.66387721441E+01  0.19029814656E+02  0.76115827773E+00  0.20168948990E+02  0.00000000000E+00 0. -1.
<mgrwt>
<rscale>  2 0.20154581E+02</rscale>
<asrwt>0</asrwt>
<pdfrwt beam="1">  1       21 0.19810255E-02 0.20154581E+02</pdfrwt>
<pdfrwt beam="2">  1       21 0.79712923E-02 0.20154581E+02</pdfrwt>
<totfact> 0.98796952E+07</totfact>
</mgrwt>
</event>
<event>
 4    1  0.2736402E+004  0.2208189E+02  0.7546771E-02  0.1706840E+00
         21   -1    0    0  501  502  0.00000000000E+00  0.00000000000E+00  0.25161904909E+02  0.25161904909E+02  0.00000000000E+00 0.  1.
         21   -1    0    0  502  503 -0.00000000000E+00 -0.00000000000E+00 -0.28972482408E+02  0.28972482408E+02  0.00000000000E+00 0. -1.
          2    1    1    2  501    0 -0.84888377584E+01 -0.20385034168E+02  0.13670169412E+02  0.25970820478E+02  0.00000000000E+00 0.  1.
         -2    1    1    2    0  503  0.84888377584E+01  0.20385034168E+02 -0.17480746912E+02  0.28163566840E+02  0.00000000000E+00 0. -1.
<mgrwt>
<rscale>  2 0.22081893E+02</rscale>
<asrwt>0</asrwt>
<pdfrwt beam="1">  1       21 0.38710623E-02 0.22081893E+02</pdfrwt>
<pdfrwt beam="2">  1       21 0.44573050E-02 0.22081893E+02</pdfrwt>
<totfact> 0.91225586E+07</totfact>
</mgrwt>
</event>
<event>
 4    1  0.2736402E+004  0.3028794E+02  0.7546771E-02  0.1594927E+00
         21   -1    0    0  501  502  0.00000000000E+00  0.00000000000E+00  0.32347853555E+03  0.32347853555E+03  0.00000000000E+00 0.  1.
         21   -1    0    0  502  503 -0.00000000000E+00 -0.00000000000E+00 -0.28704313077E+01  0.28704313077E+01  0.00000000000E+00 0. -1.
          2    1    1    2  501    0 -0.62493857804E+01  0.29636205595E+02  0.14241223736E+03  0.14559740676E+03  0.00000000000E+00 0. -1.
         -2    1    1    2    0  503  0.62493857804E+01 -0.29636205595E+02  0.17819586688E+03  0.18075156010E+03  0.00000000000E+00 0.  1.
<mgrwt>
<rscale>  2 0.30287943E+02</rscale>
<asrwt>0</asrwt>
<pdfrwt beam="1">  1       21 0.49765900E-01 0.30287943E+02</pdfrwt>
<pdfrwt beam="2">  1       21 0.44160507E-03 0.30287943E+02</pdfrwt>
<totfact> 0.41298646E+07</totfact>
</mgrwt>
</event>
<event>
 4    1  0.2736402E+004  0.2433306E+02  0.7546771E-02  0.1670770E+00
         21   -1    0    0  501  502  0.00000000000E+00  0.00000000000E+00  0.28171424807E+03  0.28171424807E+03  0.00000000000E+00 0.  1.
         21   -1    0    0  502  503 -0.00000000000E+00 -0.00000000000E+00 -0.42735421784E+01  0.42735421784E+01  0.00000000000E+00 0. -1.
          2    1    1    2  501    0  0.22658716867E+02 -0.88701956889E+01  0.24065712853E+03  0.24188416925E+03  0.00000000000E+00 0.  1.
         -2    1    1    2    0  503 -0.22658716867E+02  0.88701956889E+01  0.36783577362E+02  0.44103620999E+02  0.00000000000E+00 0. -1.
<mgrwt>
<rscale>  2 0.24333060E+02</rscale>
<asrwt>0</asrwt>
<pdfrwt beam="1">  1       21 0.43340639E-01 0.24333060E+02</pdfrwt>
<pdfrwt beam="2">  1       21 0.65746825E-03 0.24333060E+02</pdfrwt>
<totfact> 0.28589466E+07</totfact>
</mgrwt>
</event>
<event>
 4    1  0.2736402E+004  0.2478565E+02  0.7546771E-02  0.1664100E+00
         21   -1    0    0  501  502  0.00000000000E+00  0.00000000000E+00  0.10153728073E+02  0.10153728073E+02  0.00000000000E+00 0. -1.
         21   -1    0    0  502  503 -0.00000000000E+00 -0.00000000000E+00 -0.84139858065E+02  0.84139858065E+02  0.00000000000E+00 0.  1.
          2    1    1    2  501    0  0.14533252801E+02 -0.20077673440E+02 -0.12004086832E+02  0.27539544448E+02  0.00000000000E+00 0. -1.
         -2    1    1    2    0  503 -0.14533252801E+02  0.20077673440E+02 -0.61982043160E+02  0.66754041690E+02  0.00000000000E+00 0.  1.
<mgrwt>
<rscale>  2 0.24785649E+02</rscale>
<asrwt>0</asrwt>
<pdfrwt beam="1">  1       21 0.15621119E-02 0.24785649E+02</pdfrwt>
<pdfrwt beam="2">  1       21 0.12944594E-01 0.24785649E+02</pdfrwt>
<totfact> 0.67430650E+07</totfact>
</mgrwt>
</event>
<event>
 4    1  0.2736402E+004  0.2187903E+02  0.7546771E-02  0.1710353E+00
         21   -1    0    0  503  502  0.00000000000E+00  0.00000000000E+00  0.28543279232E+02  0.28543279232E+02  0.00000000000E+00 0.  1.
         21   -1    0    0  501  503 -0.00000000000E+00 -0.00000000000E+00 -0.17014842115E+02  0.17014842115E+02  0.00000000000E+00 0. -1.
          2    1    1    2  501    0  0.21229474350E+02 -0.52916229107E+01  0.30358093401E+01  0.22088639445E+02  0.00000000000E+00 0.  1.
         -2    1    1    2    0  502 -0.21229474350E+02  0.52916229107E+01  0.84926277762E+01  0.23469481902E+02  0.00000000000E+00 0. -1.
<mgrwt>
<rscale>  2 0.21879028E+02</rscale>
<asrwt>0</asrwt>
<pdfrwt beam="1">  1       21 0.43912737E-02 0.21879028E+02</pdfrwt>
<pdfrwt beam="2">  1       21 0.26176680E-02 0.21879028E+02</pdfrwt>
<totfact> 0.17137011E+08</totfact>
</mgrwt>
</event>
<event>
 4    1  0.2736402E+004  0.4954108E+02  0.7546771E-02  0.1447833E+00
         21   -1    0    0  503  502  0.00000000000E+00  0.00000000000E+00  0.56880266344E+02  0.56880266344E+02  0.00000000000E+00 0.  1.
         21   -1    0    0  501  503 -0.00000000000E+00 -0.00000000000E+00 -0.47971380102E+02  0.47971380102E+02  0.00000000000E+00 0. -1.
          2    1    1    2  501    0 -0.40193077687E+02 -0.28962658069E+02 -0.12167846813E+02  0.51013484026E+02  0.00000000000E+00 0. -1.
         -2    1    1    2    0  502  0.40193077687E+02  0.28962658069E+02  0.21076733056E+02  0.53838162419E+02  0.00000000000E+00 0.  1.
<mgrwt>
<rscale>  2 0.49541085E+02</rscale>
<asrwt>0</asrwt>
<pdfrwt beam="1">  1       21 0.87508102E-02 0.49541085E+02</pdfrwt>
<pdfrwt beam="2">  1       21 0.73802123E-02 0.49541085E+02</pdfrwt>
<totfact> 0.12555244E+07</totfact>
</mgrwt>
</event>
<event>
 4    1  0.2736402E+004  0.2028895E+02  0.7546771E-02  0.1739642E+00
         21   -1    0    0  501  502  0.00000000000E+00  0.00000000000E+00  0.26636987822E+03  0.26636987822E+03  0.00000000000E+00 0.  1.
         21   -1    0    0  502  503 -0.00000000000E+00 -0.00000000000E+00 -0.18610263039E+01  0.18610263039E+01  0.00000000000E+00 0. -1.
          2    1    1    2  501    0  0.14749226043E+02 -0.13932035790E+02  0.77020423802E+02  0.79647893713E+02  0.00000000000E+00 0. -1.
         -2    1    1    2    0  503 -0.14749226043E+02  0.13932035790E+02  0.18748842812E+03  0.18858301081E+03  0.00000000000E+00 0.  1.
<mgrwt>
<rscale>  2 0.20288945E+02</rscale>
<asrwt>0</asrwt>
<pdfrwt beam="1">  1       21 0.40979951E-01 0.20288945E+02</pdfrwt>
<pdfrwt beam="2">  1       21 0.28631195E-03 0.20288945E+02</pdfrwt>
<totfact> 0.10303801E+08</totfact>
</mgrwt>
</event>
<event>
 4    1  0.2736402E+004  0.2237870E+02  0.7546771E-02  0.1701784E+00
         21   -1    0    0  501  502  0.00000000000E+00  0.00000000000E+00  0.19385545877E+02  0.19385545877E+02  0.00000000000E+00 0. -1.
         21   -1    0    0  502  503 -0.00000000000E+00 -0.00000000000E+00 -0.80449553631E+02  0.80449553631E+02  0.00000000000E+00 0.  1.
          2    1    1    2  501    0 -0.22329608014E+02  0.14814782142E+01  0.10597134784E+02  0.24760966003E+02  0.00000000000E+00 0. -1.
         -2    1    1    2    0  503  0.22329608014E+02 -0.14814782142E+01 -0.71661142538E+02  0.75074133505E+02  0.00000000000E+00 0.  1.
<mgrwt>
<rscale>  2 0.22378699E+02</rscale>
<asrwt>0</asrwt>
<pdfrwt beam="1">  1       21 0.29823917E-02 0.22378699E+02</pdfrwt>
<pdfrwt beam="2">  1       21 0.12376854E-01 0.22378699E+02</pdfrwt>
<totfact> 0.26190016E+07</totfact>
</mgrwt>
</event>
<event>
 4    1  0.2736402E+004  0.2682819E+02  0.7546771E-02  0.1636051E+00
         21   -1    0    0  501  502  0.00000000000E+00  0.00000000000E+00  0.10484914124E+04  0.10484914124E+04  0.00000000000E+00 0. -1.
         21   -1    0    0  502  503 -0.00000000000E+00 -0.00000000000E+00 -0.10244604899E+01  0.10244604899E+01  0.00000000000E+00 0.  1.
          2    1    1    2  501    0  0.26000867266E+02  0.66111218022E+01  0.82515013079E+03  0.82558614958E+03  0.00000000000E+00 0. -1.
         -2    1    1    2    0  503 -0.26000867266E+02 -0.66111218022E+01  0.22231682107E+03  0.22392972326E+03  0.00000000000E+00 0.  1.
<mgrwt>
<rscale>  2 0.26828195E+02</rscale>
<asrwt>0</asrwt>
<pdfrwt beam="1">  1       21 0.16130551E+00 0.26828195E+02</pdfrwt>
<pdfrwt beam="2">  1       21 0.15761014E-03 0.26828195E+02</pdfrwt>
<totfact> 0.14162288E+07</totfact>
</mgrwt>
</event>
<event>
 4    1  0.2736402E+004  0.2116766E+02  0.7546771E-02  0.1723058E+00
         21   -1    0    0  503  502  0.00000000000E+00  0.00000000000E+00  0.10039317725E+03  0.10039317725E+03  0.00000000000E+00 0. -1.
         21   -1    0    0  501  503 -0.00000000000E+00 -0.00000000000E+00 -0.30463582375E+02  0.30463582375E+02  0.00000000000E+00 0.  1.
          2    1    1    2  501    0  0.20862199232E+02 -0.35830535713E+01 -0.25480981650E+02  0.33126274399E+02  0.00000000000E+00 0.  1.
         -2    1    1    2    0  502 -0.20862199232E+02  0.35830535713E+01  0.95410576523E+02  0.97730485225E+02  0.00000000000E+00 0. -1.
<mgrwt>
<rscale>  2 0.21167655E+02</rscale>
<asrwt>0</asrwt>
<pdfrwt beam="1">  1       21 0.15445104E-01 0.21167655E+02</pdfrwt>
<pdfrwt beam="2">  1       21 0.46867050E-02 0.21167655E+02</pdfrwt>
<totfact> 0.87660956E+06</totfact>
</mgrwt>
</event>
<event>
 4    1  0.2736402E+004  0.2451898E+02  0.7546771E-02  0.1668009E+00
         21   -1    0    0  501  502  0.00000000000E+00  0.00000000000E+00  0.38545096134E+02  0.38545096134E+02  0.00000000000E+00 0.  1.
         21   -1    0    0  502  503 -0.00000000000E+00 -0.00000000000E+00 -0.17066773917E+02  0.17066773917E+02  0.00000000000E+00 0. -1.
          2    1    1    2  501    0 -0.21656494509E+02  0.11496809558E+02  0.25786807745E+01  0.24654208139E+02  0.00000000000E+00 0. -1.
         -2    1    1    2    0  503  0.21656494509E+02 -0.11496809558E+02  0.18899641442E+02  0.30957661912E+02  0.00000000000E+00 0.  1.
<mgrwt>
<rscale>  2 0.24518980E+02</rscale>
<asrwt>0</asrwt>
<pdfrwt beam="1">  1       21 0.59300148E-02 0.24518980E+02</pdfrwt>
<pdfrwt beam="2">  1       21 0.26256575E-02 0.24518980E+02</pdfrwt>
<totfact> 0.10933108E+08</totfact>
</mgrwt>
</event>
<event>
 4    1  0.2736402E+004  0.2779545E+02  0.7546771E-02  0.1623819E+00
         21   -1    0    0  503  502  0.00000000000E+00  0.00000000000E+00  0.21372777954E+01  0.21372777954E+01  0.00000000000E+00 0.  1.
         21   -1    0    0  501  503 -0.00000000000E+00 -0.00000000000E+00 -0.38750709384E+03  0.38750709384E+03  0.00000000000E+00 0. -1.
          2    1    1    2  501    0  0.20518586242E+02  0.18750328131E+02 -0.14219602391E+03  0.14488718508E+03  0.00000000000E+00 0. -1.
         -2    1    1    2    0  502 -0.20518586242E+02 -0.18750328131E+02 -0.24317379214E+03  0.24475718656E+03  0.00000000000E+00 0.  1.
<mgrwt>
<rscale>  2 0.27795453E+02</rscale>
<asrwt>0</asrwt>
<pdfrwt beam="1">  1       21 0.32881159E-03 0.27795453E+02</pdfrwt>
<pdfrwt beam="2">  1       21 0.59616545E-01 0.27795453E+02</pdfrwt>
<totfact> 0.43815669E+07</totfact>
</mgrwt>
</event>
<event>
 4    1  0.2736402E+004  0.2235372E+02  0.7546771E-02  0.1702205E+00
         21   -1    0    0  501  502  0.00000000000E+00  0.00000000000E+00  0.38005608379E+00  0.38005608379E+00  0.00000000000E+00 0.  1.
         21   -1    0    0  502  503 -0.00000000000E+00 -0.00000000000E+00 -0.14677772228E+04  0.14677772228E+04  0.00000000000E+00 0. -1.
          2    1    1    2  501    0  0.14876951135E+02  0.16684277832E+02 -0.49669261760E+03  0.49719537928E+03  0.00000000000E+00 0.  1.
         -2    1    1    2    0  503 -0.14876951135E+02 -0.16684277832E+02 -0.97070454915E+03  0.97096189964E+03  0.00000000000E+00 0. -1.
<mgrwt>
<rscale>  2 0.22353720E+02</rscale>
<asrwt>0</asrwt>
<pdfrwt beam="1">  1       21 0.58470777E-04 0.22353720E+02</pdfrwt>
<pdfrwt beam="2">  1       21 0.22580952E+00 0.22353720E+02</pdfrwt>
<totfact> 0.24067508E+07</totfact>
</mgrwt>
</event>
<event>
 4    1  0.2736402E+004  0.2467280E+02  0.7546771E-02  0.1665747E+00
         21   -1    0    0  503  502  0.00000000000E+00  0.00000000000E+00  0.13783717382E+01  0.13783717382E+01  0.00000000000E+00 0.  1.
         21   -1    0    0  501  503 -0.00000000000E+00 -0.00000000000E+00 -0.64113701237E+03  0.64113701237E+03  0.00000000000E+00 0. -1.
          2    1    1    2  501    0 -0.88117765336E+01 -0.23045597347E+02 -0.49908181181E+03  0.49969130655E+03  0.00000000000E+00 0. -1.
         -2    1    1    2    0  502  0.88117765336E+01  0.23045597347E+02 -0.14067682882E+03  0.14282407756E+03  0.00000000000E+00 0.  1.
<mgrwt>
<rscale>  2 0.24672798E+02</rscale>
<asrwt>0</asrwt>
<pdfrwt beam="1">  1       21 0.21205743E-03 0.24672798E+02</pdfrwt>
<pdfrwt beam="2">  1       21 0.98636353E-01 0.24672798E+02</pdfrwt>
<totfact> 0.28252780E+07</totfact>
</mgrwt>
</event>
<event>
 4    1  0.2736402E+004  0.2362475E+02  0.7546771E-02  0.1681579E+00
         21   -1    0    0  501  502  0.00000000000E+00  0.00000000000E+00  0.18476931939E+02  0.18476931939E+02  0.00000000000E+00 0. -1.
         21   -1    0    0  502  503 -0.00000000000E+00 -0.00000000000E+00 -0.56489879543E+02  0.56489879543E+02  0.00000000000E+00 0.  1.
          2    1    1    2  501    0  0.11157914684E+02 -0.20823778940E+02  0.65612411090E+01  0.24518946028E+02  0.00000000000E+00 0. -1.
         -2    1    1    2    0  503 -0.11157914684E+02  0.20823778940E+02 -0.44574188713E+02  0.50447865454E+02  0.00000000000E+00 0.  1.
<mgrwt>
<rscale>  2 0.23624750E+02</rscale>
<asrwt>0</asrwt>
<pdfrwt beam="1">  1       21 0.28426049E-02 0.23624750E+02</pdfrwt>
<pdfrwt beam="2">  1       21 0.86907508E-02 0.23624750E+02</pdfrwt>
<totfact> 0.51406341E+07</totfact>
</mgrwt>
</event>
<event>
 4    1  0.2736402E+004  0.4537266E+02  0.7546771E-02  0.1472029E+00
         21   -1    0    0  501  502  0.00000000000E+00  0.00000000000E+00  0.40155234321E+03  0.40155234321E+03  0.00000000000E+00 0.  1.
         21   -1    0    0  502  503 -0.00000000000E+00 -0.00000000000E+00 -0.99079446881E+01  0.99079446881E+01  0.00000000000E+00 0. -1.
          2    1    1    2  501    0 -0.34535560663E+01 -0.45241036392E+02  0.33873531947E+03  0.34176058152E+03  0.00000000000E+00 0.  1.
         -2    1    1    2    0  503  0.34535560663E+01  0.45241036392E+02  0.52909079052E+02  0.69699706380E+02  0.00000000000E+00 0. -1.
<mgrwt>
<rscale>  2 0.45372662E+02</rscale>
<asrwt>0</asrwt>
<pdfrwt beam="1">  1       21 0.61777271E-01 0.45372662E+02</pdfrwt>
<pdfrwt beam="2">  1       21 0.15242995E-02 0.45372662E+02</pdfrwt>
<totfact> 0.43132868E+06</totfact>
</mgrwt>
</event>
<event>
 4    1  0.2736402E+004  0.2057666E+02  0.7546771E-02  0.1734098E+00
         21   -1    0    0  501  502  0.00000000000E+00  0.00000000000E+00  0.16234746500E+03  0.16234746500E+03  0.00000000000E+00 0.  1.
         21   -1    0    0  502  503 -0.00000000000E+00 -0.00000000000E+00 -0.75288002317E+01  0.75288002317E+01  0.00000000000E+00 0. -1.
          2    1    1    2  501    0 -0.85461227239E+01  0.18717976684E+02  0.14607799552E+03  0.14752009911E+03  0.00000000000E+00 0.  1.
         -2    1    1    2    0  503  0.85461227239E+01 -0.18717976684E+02  0.87406692401E+01  0.22356166119E+02  0.00000000000E+00 0. -1.
<mgrwt>
<rscale>  2 0.20576658E+02</rscale>
<asrwt>0</asrwt>
<pdfrwt beam="1">  1       21 0.24976531E-01 0.20576658E+02</pdfrwt>
<pdfrwt beam="2">  1       21 0.11582771E-02 0.20576658E+02</pdfrwt>
<totfact> 0.32498453E+07</totfact>
</mgrwt>
</event>
<event>
 4    1  0.2736402E+004  0.2760231E+02  0.7546771E-02  0.1626212E+00
         21   -1    0    0  501  502  0.00000000000E+00  0.00000000000E+00  0.37573055738E+03  0.37573055738E+03  0.00000000000E+00 0. -1.
         21   -1    0    0  502  503 -0.00000000000E+00 -0.00000000000E+00 -0.12007844404E+02  0.12007844404E+02  0.00000000000E+00 0.  1.
          2    1    1    2  501    0 -0.12236958232E+02  0.24741548279E+02  0.35860493148E+03  0.35966565618E+03  0.00000000000E+00 0. -1.
         -2    1    1    2    0  503  0.12236958232E+02 -0.24741548279E+02  0.51177814979E+01  0.28072745599E+02  0.00000000000E+00 0.  1.
<mgrwt>
<rscale>  2 0.27602307E+02</rscale>
<asrwt>0</asrwt>
<pdfrwt beam="1">  1       21 0.57804692E-01 0.27602307E+02</pdfrwt>
<pdfrwt beam="2">  1       21 0.18473610E-02 0.27602307E+02</pdfrwt>
<totfact> 0.34825645E+06</totfact>
</mgrwt>
</event>
<event>
 4    1  0.2736402E+004  0.2645976E+02  0.7546771E-02  0.1640879E+00
         21   -1    0    0  503  502  0.00000000000E+00  0.00000000000E+00  0.29863018219E+02  0.29863018219E+02  0.00000000000E+00 0. -1.
         21   -1    0    0  501  503 -0.00000000000E+00 -0.00000000000E+00 -0.23478522765E+02  0.23478522765E+02  0.00000000000E+00 0.  1.
          2    1    1    2  501    0 -0.12137585870E+02 -0.23511655719E+02  0.42098140989E+01  0.26792563896E+02  0.00000000000E+00 0.  1.
         -2    1    1    2    0  502  0.12137585870E+02  0.23511655719E+02  0.21746813559E+01  0.26548977088E+02  0.00000000000E+00 0. -1.
<mgrwt>
<rscale>  2 0.26459761E+02</rscale>
<asrwt>0</asrwt>
<pdfrwt beam="1">  1       21 0.45943106E-02 0.26459761E+02</pdfrwt>
<pdfrwt beam="2">  1       21 0.36120804E-02 0.26459761E+02</pdfrwt>
<totfact> 0.10193465E+08</totfact>
</mgrwt>
</event>
<event>
 4    1  0.2736402E+004  0.2141049E+02  0.7546771E-02  0.1718651E+00
         21   -1    0    0  503  502  0.00000000000E+00  0.00000000000E+00  0.18654216946E+02  0.18654216946E+02  0.00000000000E+00 0. -1.
         21   -1    0    0  501  503 -0.00000000000E+00 -0.00000000000E+00 -0.29496748504E+02  0.29496748504E+02  0.00000000000E+00 0.  1.
          2    1    1    2  501    0  0.12686421403E+02  0.17247132948E+02 -0.15256651289E+02  0.26290193828E+02  0.00000000000E+00 0.  1.
         -2    1    1    2    0  502 -0.12686421403E+02 -0.17247132948E+02  0.44141197317E+01  0.21860771623E+02  0.00000000000E+00 0. -1.
<mgrwt>
<rscale>  2 0.21410485E+02</rscale>
<asrwt>0</asrwt>
<pdfrwt beam="1">  1       21 0.28698795E-02 0.21410485E+02</pdfrwt>
<pdfrwt beam="2">  1       21 0.45379613E-02 0.21410485E+02</pdfrwt>
<totfact> 0.14016397E+08</totfact>
</mgrwt>
</event>
<event>
 4    1  0.2736402E+004  0.2423976E+02  0.7546771E-02  0.1672168E+00
         21   -1    0    0  501  502  0.00000000000E+00  0.00000000000E+00  0.70593924941E+02  0.70593924941E+02  0.00000000000E+00 0.  1.
         21   -1    0    0  502  503 -0.00000000000E+00 -0.00000000000E+00 -0.95632104766E+01  0.95632104766E+01  0.00000000000E+00 0. -1.
          2    1    1    2  501    0 -0.39817566103E+01 -0.23910490352E+02  0.16083356609E+02  0.29090209597E+02  0.00000000000E+00 0. -1.
         -2    1    1    2    0  503  0.39817566103E+01  0.23910490352E+02  0.44947357856E+02  0.51066925821E+02  0.00000000000E+00 0.  1.
<mgrwt>
<rscale>  2 0.24239759E+02</rscale>
<asrwt>0</asrwt>
<pdfrwt beam="1">  1       21 0.10860604E-01 0.24239759E+02</pdfrwt>
<pdfrwt beam="2">  1       21 0.14712632E-02 0.24239759E+02</pdfrwt>
<totfact> 0.98600011E+07</totfact>
</mgrwt>
</event>
<event>
 4    1  0.2736402E+004  0.3514543E+02  0.7546771E-02  0.1547313E+00
         21   -1    0    0  501  502  0.00000000000E+00  0.00000000000E+00  0.36652182480E+03  0.36652182480E+03  0.00000000000E+00 0.  1.
         21   -1    0    0  502  503 -0.00000000000E+00 -0.00000000000E+00 -0.73968958569E+01  0.73968958569E+01  0.00000000000E+00 0. -1.
          2    1    1    2  501    0  0.22715366672E+02 -0.26818153204E+02  0.31750694383E+03  0.31944617795E+03  0.00000000000E+00 0.  1.
         -2    1    1    2    0  503 -0.22715366672E+02  0.26818153204E+02  0.41617985108E+02  0.54472542705E+02  0.00000000000E+00 0. -1.
<mgrwt>
<rscale>  2 0.35145430E+02</rscale>
<asrwt>0</asrwt>
<pdfrwt beam="1">  1       21 0.56387959E-01 0.35145430E+02</pdfrwt>
<pdfrwt beam="2">  1       21 0.11379843E-02 0.35145430E+02</pdfrwt>
<totfact> 0.79342953E+06</totfact>
</mgrwt>
</event>
<event>
 4    1  0.2736402E+004  0.2667253E+02  0.7546771E-02  0.1638079E+00
         21   -1    0    0  501  502  0.00000000000E+00  0.00000000000E+00  0.98081826158E+01  0.98081826158E+01  0.00000000000E+00 0.  1.
         21   -1    0    0  502  503 -0.00000000000E+00 -0.00000000000E+00 -0.14723310002E+03  0.14723310002E+03  0.00000000000E+00 0. -1.
          2    1    1    2  501    0 -0.18153445624E+02  0.19541648771E+02 -0.12783116523E+02  0.29577553867E+02  0.00000000000E+00 0.  1.
         -2    1    1    2    0  503  0.18153445624E+02 -0.19541648771E+02 -0.12464180089E+03  0.12746372877E+03  0.00000000000E+00 0. -1.
<mgrwt>
<rscale>  2 0.26672526E+02</rscale>
<asrwt>0</asrwt>
<pdfrwt beam="1">  1       21 0.15089512E-02 0.26672526E+02</pdfrwt>
<pdfrwt beam="2">  1       21 0.22651246E-01 0.26672526E+02</pdfrwt>
<totfact> 0.27452558E+07</totfact>
</mgrwt>
</event>
<event>
 4    1  0.2736402E+004  0.2952957E+02  0.7546771E-02  0.1603348E+00
         21   -1    0    0  503  502  0.00000000000E+00  0.00000000000E+00  0.86034822866E+03  0.86034822866E+03  0.00000000000E+00 0. -1.
         21   -1    0    0  501  503 -0.00000000000E+00 -0.00000000000E+00 -0.10138189914E+01  0.10138189914E+01  0.00000000000E+00 0.  1.
          2    1    1    2  501    0 -0.18571456983E+02 -0.22958581598E+02  0.43683932067E+03  0.43783625657E+03  0.00000000000E+00 0. -1.
         -2    1    1    2    0  502  0.18571456983E+02  0.22958581598E+02  0.42249508900E+03  0.42352579109E+03  0.00000000000E+00 0.  1.
<mgrwt>
<rscale>  2 0.29529570E+02</rscale>
<asrwt>0</asrwt>
<pdfrwt beam="1">  1       21 0.13236068E+00 0.29529570E+02</pdfrwt>
<pdfrwt beam="2">  1       21 0.15597284E-03 0.29529570E+02</pdfrwt>
<totfact> 0.23372178E+07</totfact>
</mgrwt>
</event>
<event>
 4    1  0.2736402E+004  0.7824064E+02  0.7546771E-02  0.1334120E+00
         21   -1    0    0  503  502  0.00000000000E+00  0.00000000000E+00  0.10231969058E+04  0.10231969058E+04  0.00000000000E+00 0.  1.
         21   -1    0    0  501  503 -0.00000000000E+00 -0.00000000000E+00 -0.61603976229E+01  0.61603976229E+01  0.00000000000E+00 0. -1.
          2    1    1    2  501    0 -0.62952874339E+02 -0.46460015732E+02  0.42113415164E+03  0.42834048504E+03  0.00000000000E+00 0. -1.
         -2    1    1    2    0  502  0.62952874339E+02  0.46460015732E+02  0.59590235659E+03  0.60101681843E+03  0.00000000000E+00 0.  1.
<mgrwt>
<rscale>  2 0.78240638E+02</rscale>
<asrwt>0</asrwt>
<pdfrwt beam="1">  1       21 0.15741477E+00 0.78240638E+02</pdfrwt>
<pdfrwt beam="2">  1       21 0.94775429E-03 0.78240638E+02</pdfrwt>
<totfact> 0.10929274E+06</totfact>
</mgrwt>
</event>
<event>
 4    1  0.2736402E+004  0.2057724E+02  0.7546771E-02  0.1734087E+00
         21   -1    0    0  503  502  0.00000000000E+00  0.00000000000E+00  0.78785470502E+02  0.78785470502E+02  0.00000000000E+00 0. -1.
         21   -1    0    0  501  503 -0.00000000000E+00 -0.00000000000E+00 -0.13660965649E+02  0.13660965649E+02  0.00000000000E+00 0.  1.
          2    1    1    2  501    0  0.90490149503E+01  0.18480754057E+02 -0.34381477406E+01  0.20862497501E+02  0.00000000000E+00 0.  1.
         -2    1    1    2    0  502 -0.90490149503E+01 -0.18480754057E+02  0.68562652593E+02  0.71583938650E+02  0.00000000000E+00 0. -1.
<mgrwt>
<rscale>  2 0.20577243E+02</rscale>
<asrwt>0</asrwt>
<pdfrwt beam="1">  1       21 0.12120841E-01 0.20577243E+02</pdfrwt>
<pdfrwt beam="2">  1       21 0.21016871E-02 0.20577243E+02</pdfrwt>
<totfact> 0.45580632E+07</totfact>
</mgrwt>
</event>
<event>
 4    1  0.2736402E+004  0.2050554E+02  0.7546771E-02  0.1735458E+00
         21   -1    0    0  501  502  0.00000000000E+00  0.00000000000E+00  0.43348126246E+00  0.43348126246E+00  0.00000000000E+00 0.  1.
         21   -1    0    0  502  503 -0.00000000000E+00 -0.00000000000E+00 -0.10685367941E+04  0.10685367941E+04  0.00000000000E+00 0. -1.
          2    1    1    2  501    0  0.19787259775E+02 -0.53797154753E+01 -0.37174389942E+03  0.37230901647E+03  0.00000000000E+00 0.  1.
         -2    1    1    2    0  503 -0.19787259775E+02  0.53797154753E+01 -0.69635941337E+03  0.69666125885E+03  0.00000000000E+00 0. -1.
<mgrwt>
<rscale>  2 0.20505536E+02</rscale>
<asrwt>0</asrwt>
<pdfrwt beam="1">  1       21 0.66689972E-04 0.20505536E+02</pdfrwt>
<pdfrwt beam="2">  1       21 0.16438893E+00 0.20505536E+02</pdfrwt>
<totfact> 0.44061257E+07</totfact>
</mgrwt>
</event>
<event>
 4    1  0.2736402E+004  0.2795467E+02  0.7546771E-02  0.1621864E+00
         21   -1    0    0  503  502  0.00000000000E+00  0.00000000000E+00  0.10349161691E+03  0.10349161691E+03  0.00000000000E+00 0. -1.
         21   -1    0    0  501  503 -0.00000000000E+00 -0.00000000000E+00 -0.93733204282E+01  0.93733204282E+01  0.00000000000E+00 0.  1.
          2    1    1    2  501    0 -0.12873119452E+02 -0.24814241494E+02  0.22176516215E+02  0.35682792166E+02  0.00000000000E+00 0. -1.
         -2    1    1    2    0  502  0.12873119452E+02  0.24814241494E+02  0.71941780267E+02  0.77182145172E+02  0.00000000000E+00 0.  1.
<mgrwt>
<rscale>  2 0.27954674E+02</rscale>
<asrwt>0</asrwt>
<pdfrwt beam="1">  1       21 0.15921786E-01 0.27954674E+02</pdfrwt>
<pdfrwt beam="2">  1       21 0.14420494E-02 0.27954674E+02</pdfrwt>
<totfact> 0.55084753E+07</totfact>
</mgrwt>
</event>
<event>
 4    1  0.2736402E+004  0.2287349E+02  0.7546771E-02  0.1693569E+00
         21   -1    0    0  503  502  0.00000000000E+00  0.00000000000E+00  0.13416962139E+03  0.13416962139E+03  0.00000000000E+00 0.  1.
         21   -1    0    0  501  503 -0.00000000000E+00 -0.00000000000E+00 -0.64330653532E+01  0.64330653532E+01  0.00000000000E+00 0. -1.
          2    1    1    2  501    0  0.22777791481E+02 -0.20902078080E+01  0.19749932338E+02  0.30220135353E+02  0.00000000000E+00 0. -1.
         -2    1    1    2    0  502 -0.22777791481E+02  0.20902078080E+01  0.10798662370E+03  0.11038255139E+03  0.00000000000E+00 0.  1.
<mgrwt>
<rscale>  2 0.22873495E+02</rscale>
<asrwt>0</asrwt>
<pdfrwt beam="1">  1       21 0.20641478E-01 0.22873495E+02</pdfrwt>
<pdfrwt beam="2">  1       21 0.98970246E-03 0.22873495E+02</pdfrwt>
<totfact> 0.59118545E+07</totfact>
</mgrwt>
</event>
<event>
 4    1  0.2736402E+004  0.2415713E+02  0.7546771E-02  0.1673412E+00
         21   -1    0    0  501  502  0.00000000000E+00  0.00000000000E+00  0.53606786627E+01  0.53606786627E+01  0.00000000000E+00 0.  1.
         21   -1    0    0  502  503 -0.00000000000E+00 -0.00000000000E+00 -0.11454286546E+03  0.11454286546E+03  0.00000000000E+00 0. -1.
          2    1    1    2  501    0  0.18589121322E+02  0.15427628464E+02 -0.41238195996E+02  0.47792844240E+02  0.00000000000E+00 0.  1.
         -2    1    1    2    0  503 -0.18589121322E+02 -0.15427628464E+02 -0.67943990798E+02  0.72110699880E+02  0.00000000000E+00 0. -1.
<mgrwt>
<rscale>  2 0.24157135E+02</rscale>
<asrwt>0</asrwt>
<pdfrwt beam="1">  1       21 0.82471985E-03 0.24157135E+02</pdfrwt>
<pdfrwt beam="2">  1       21 0.17621978E-01 0.24157135E+02</pdfrwt>
<totfact> 0.10380289E+08</totfact>
</mgrwt>
</event>
<event>
 4    1  0.2736402E+004  0.2876063E+02  0.7546771E-02  0.1612207E+00
         21   -1    0    0  503  502  0.00000000000E+00  0.00000000000E+00  0.24041992806E+02  0.24041992806E+02  0.00000000000E+00 0. -1.
         21   -1    0    0  501  503 -0.00000000000E+00 -0.00000000000E+00 -0.71056420721E+02  0.71056420721E+02  0.00000000000E+00 0.  1.
          2    1    1    2  501    0 -0.24802113792E+02 -0.14561217194E+02 -0.57656746962E+02  0.64431935909E+02  0.00000000000E+00 0.  1.
         -2    1    1    2    0  502  0.24802113792E+02  0.14561217194E+02  0.10642319048E+02  0.30666477617E+02  0.00000000000E+00 0. -1.
<mgrwt>
<rscale>  2 0.28760631E+02</rscale>
<asrwt>0</asrwt>
<pdfrwt beam="1">  1       21 0.36987681E-02 0.28760631E+02</pdfrwt>
<pdfrwt beam="2">  1       21 0.10931757E-01 0.28760631E+02</pdfrwt>
<totfact> 0.24295410E+07</totfact>
</mgrwt>
</event>
<event>
 4    1  0.2736402E+004  0.2224016E+02  0.7546771E-02  0.1704131E+00
         21   -1    0    0  503  502  0.00000000000E+00  0.00000000000E+00  0.86617009972E+01  0.86617009972E+01  0.00000000000E+00 0.  1.
         21   -1    0    0  501  503 -0.00000000000E+00 -0.00000000000E+00 -0.60768684865E+02  0.60768684865E+02  0.00000000000E+00 0. -1.
          2    1    1    2  501    0  0.17261071835E+02 -0.14024264114E+02 -0.34577647804E+02  0.41112507981E+02  0.00000000000E+00 0.  1.
         -2    1    1    2    0  502 -0.17261071835E+02  0.14024264114E+02 -0.17529336063E+02  0.28317877881E+02  0.00000000000E+00 0. -1.
<mgrwt>
<rscale>  2 0.22240157E+02</rscale>
<asrwt>0</asrwt>
<pdfrwt beam="1">  1       21 0.13325694E-02 0.22240157E+02</pdfrwt>
<pdfrwt beam="2">  1       21 0.93490284E-02 0.22240157E+02</pdfrwt>
<totfact> 0.14322647E+08</totfact>
</mgrwt>
</event>
<event>
 4    1  0.2736402E+004  0.2198256E+02  0.7546771E-02  0.1708554E+00
         21   -1    0    0  503  502  0.00000000000E+00  0.00000000000E+00  0.35977550277E+02  0.35977550277E+02  0.00000000000E+00 0. -1.
         21   -1    0    0  501  503 -0.00000000000E+00 -0.00000000000E+00 -0.23049272606E+02  0.23049272606E+02  0.00000000000E+00 0.  1.
          2    1    1    2  501    0  0.16047976135E+02 -0.15023166082E+02 -0.12600460471E+02  0.25337810901E+02  0.00000000000E+00 0.  1.
         -2    1    1    2    0  502 -0.16047976135E+02  0.15023166082E+02  0.25528738143E+02  0.33689011982E+02  0.00000000000E+00 0. -1.
<mgrwt>
<rscale>  2 0.21982563E+02</rscale>
<asrwt>0</asrwt>
<pdfrwt beam="1">  1       21 0.55350077E-02 0.21982563E+02</pdfrwt>
<pdfrwt beam="2">  1       21 0.35460420E-02 0.21982563E+02</pdfrwt>
<totfact> 0.74107575E+07</totfact>
</mgrwt>
</event>
<event>
 4    1  0.2736402E+004  0.2107671E+02  0.7546771E-02  0.1724727E+00
         21   -1    0    0  503  502  0.00000000000E+00  0.00000000000E+00  0.61318989949E+01  0.61318989949E+01  0.00000000000E+00 0.  1.
         21   -1    0    0  501  503 -0.00000000000E+00 -0.00000000000E+00 -0.15224971433E+03  0.15224971433E+03  0.00000000000E+00 0. -1.
          2    1    1    2  501    0 -0.10231198457E+02  0.18426885572E+02 -0.13039259327E+03  0.13208503288E+03  0.00000000000E+00 0. -1.
         -2    1    1    2    0  502  0.10231198457E+02 -0.18426885572E+02 -0.15725222071E+02  0.26296580442E+02  0.00000000000E+00 0.  1.
<mgrwt>
<rscale>  2 0.21076706E+02</rscale>
<asrwt>0</asrwt>
<pdfrwt beam="1">  1       21 0.94336915E-03 0.21076706E+02</pdfrwt>
<pdfrwt beam="2">  1       21 0.23423031E-01 0.21076706E+02</pdfrwt>
<totfact> 0.49813159E+07</totfact>
</mgrwt>
</event>
<event>
 4    1  0.2736402E+004  0.2381313E+02  0.7546771E-02  0.1678659E+00
         21   -1    0    0  503  502  0.00000000000E+00  0.00000000000E+00  0.12906552612E+01  0.12906552612E+01  0.00000000000E+00 0.  1.
         21   -1    0    0  501  503 -0.00000000000E+00 -0.00000000000E+00 -0.14301057528E+04  0.14301057528E+04  0.00000000000E+00 0. -1.
          2    1    1    2  501    0 -0.23634799742E+02  0.29088249048E+01 -0.13101060362E+04  0.13103224378E+04  0.00000000000E+00 0. -1.
         -2    1    1    2    0  502  0.23634799742E+02 -0.29088249048E+01 -0.11870906137E+03  0.12107397026E+03  0.00000000000E+00 0.  1.
<mgrwt>
<rscale>  2 0.23813127E+02</rscale>
<asrwt>0</asrwt>
<pdfrwt beam="1">  1       21 0.19856414E-03 0.23813127E+02</pdfrwt>
<pdfrwt beam="2">  1       21 0.22001428E+00 0.23813127E+02</pdfrwt>
<totfact> 0.45407172E+06</totfact>
</mgrwt>
</event>
<event>
 4    1  0.2736402E+004  0.2274833E+02  0.7546771E-02  0.1695622E+00
         21   -1    0    0  501  502  0.00000000000E+00  0.00000000000E+00  0.10715781098E+01  0.10715781098E+01  0.00000000000E+00 0. -1.
         21   -1    0    0  502  503 -0.00000000000E+00 -0.00000000000E+00 -0.82344314917E+03  0.82344314917E+03  0.00000000000E+00 0.  1.
          2    1    1    2  501    0 -0.17804514819E+02  0.14159292142E+02 -0.14607643228E+03  0.14783710755E+03  0.00000000000E+00 0. -1.
         -2    1    1    2    0  503  0.17804514819E+02 -0.14159292142E+02 -0.67629513878E+03  0.67667761972E+03  0.00000000000E+00 0.  1.
<mgrwt>
<rscale>  2 0.22748325E+02</rscale>
<asrwt>0</asrwt>
<pdfrwt beam="1">  1       21 0.16485734E-03 0.22748325E+02</pdfrwt>
<pdfrwt beam="2">  1       21 0.12668420E+00 0.22748325E+02</pdfrwt>
<totfact> 0.22852522E+07</totfact>
</mgrwt>
</event>
<event>
 4    1  0.2736402E+004  0.2418190E+02  0.7546771E-02  0.1673038E+00
         21   -1    0    0  501  502  0.00000000000E+00  0.00000000000E+00  0.72019797707E+02  0.72019797707E+02  0.00000000000E+00 0. -1.
         21   -1    0    0  502  503 -0.00000000000E+00 -0.00000000000E+00 -0.84416501907E+01  0.84416501907E+01  0.00000000000E+00 0.  1.
          2    1    1    2  501    0 -0.12249104796E+02 -0.20850031483E+02  0.39648245820E+02  0.46440798634E+02  0.00000000000E+00 0. -1.
         -2    1    1    2    0  503  0.12249104796E+02  0.20850031483E+02  0.23929901696E+02  0.34020649264E+02  0.00000000000E+00 0.  1.
<mgrwt>
<rscale>  2 0.24181902E+02</rscale>
<asrwt>0</asrwt>
<pdfrwt beam="1">  1       21 0.11079968E-01 0.24181902E+02</pdfrwt>
<pdfrwt beam="2">  1       21 0.12987155E-02 0.24181902E+02</pdfrwt>
<totfact> 0.11518430E+08</totfact>
</mgrwt>
</event>
<event>
 4    1  0.2736402E+004  0.3717903E+02  0.7546771E-02  0.1530060E+00
         21   -1    0    0  503  502  0.00000000000E+00  0.00000000000E+00  0.21311777953E+03  0.21311777953E+03  0.00000000000E+00 0.  1.
         21   -1    0    0  501  503 -0.00000000000E+00 -0.00000000000E+00 -0.14790920334E+02  0.14790920334E+02  0.00000000000E+00 0. -1.
          2    1    1    2  501    0 -0.11066281245E+02 -0.35493915441E+02  0.13774571771E+02  0.39648700375E+02  0.00000000000E+00 0. -1.
         -2    1    1    2    0  502  0.11066281245E+02  0.35493915441E+02  0.18455228743E+03  0.18825999949E+03  0.00000000000E+00 0.  1.
<mgrwt>
<rscale>  2 0.37179035E+02</rscale>
<asrwt>0</asrwt>
<pdfrwt beam="1">  1       21 0.32787348E-01 0.37179035E+02</pdfrwt>
<pdfrwt beam="2">  1       21 0.22755264E-02 0.37179035E+02</pdfrwt>
<totfact> 0.78287239E+06</totfact>
</mgrwt>
</event>
<event>
 4    1  0.2736402E+004  0.2344846E+02  0.7546771E-02  0.1684342E+00
         21   -1    0    0  501  502  0.00000000000E+00  0.00000000000E+00  0.21982563062E+02  0.21982563062E+02  0.00000000000E+00 0.  1.
         21   -1    0    0  502  503 -0.00000000000E+00 -0.00000000000E+00 -0.29867078746E+02  0.29867078746E+02  0.00000000000E+00 0. -1.
          2    1    1    2  501    0  0.22352205366E+02 -0.70858585298E+01  0.65100507458E+01  0.24335390618E+02  0.00000000000E+00 0.  1.
         -2    1    1    2    0  503 -0.22352205366E+02  0.70858585298E+01 -0.14394566429E+02  0.27514251189E+02  0.00000000000E+00 0. -1.
<mgrwt>
<rscale>  2 0.23448464E+02</rscale>
<asrwt>0</asrwt>
<pdfrwt beam="1">  1       21 0.33819328E-02 0.23448464E+02</pdfrwt>
<pdfrwt beam="2">  1       21 0.45949352E-02 0.23448464E+02</pdfrwt>
<totfact> 0.10933401E+08</totfact>
</mgrwt>
</event>
<event>
 4    1  0.2736402E+004  0.2242241E+02  0.7546771E-02  0.1701047E+00
         21   -1    0    0  503  502  0.00000000000E+00  0.00000000000E+00  0.50185372967E+01  0.50185372967E+01  0.00000000000E+00 0.  1.
         21   -1    0    0  501  503 -0.00000000000E+00 -0.00000000000E+00 -0.13883922272E+03  0.13883922272E+03  0.00000000000E+00 0. -1.
          2    1    1    2  501    0  0.13191126049E+01  0.22383569682E+02 -0.10486505731E+03  0.10723546286E+03  0.00000000000E+00 0. -1.
         -2    1    1    2    0  502 -0.13191126049E+01 -0.22383569682E+02 -0.28955628115E+02  0.36622297160E+02  0.00000000000E+00 0.  1.
<mgrwt>
<rscale>  2 0.22422405E+02</rscale>
<asrwt>0</asrwt>
<pdfrwt beam="1">  1       21 0.77208263E-03 0.22422405E+02</pdfrwt>
<pdfrwt beam="2">  1       21 0.21359881E-01 0.22422405E+02</pdfrwt>
<totfact> 0.80296626E+07</totfact>
</mgrwt>
</event>
<event>
 4    1  0.2736402E+004  0.2404730E+02  0.7546771E-02  0.1675075E+00
         21   -1    0    0  501  502  0.00000000000E+00  0.00000000000E+00  0.22257479784E+02  0.22257479784E+02  0.00000000000E+00 0.  1.
         21   -1    0    0  502  503 -0.00000000000E+00 -0.00000000000E+00 -0.66565784577E+02  0.66565784577E+02  0.00000000000E+00 0. -1.
          2    1    1    2  501    0 -0.18690407412E+02  0.15130810227E+02  0.12523728383E+02  0.27113032290E+02  0.00000000000E+00 0.  1.
         -2    1    1    2    0  503  0.18690407412E+02 -0.15130810227E+02 -0.56832033176E+02  0.61710232071E+02  0.00000000000E+00 0. -1.
<mgrwt>
<rscale>  2 0.24047302E+02</rscale>
<asrwt>0</asrwt>
<pdfrwt beam="1">  1       21 0.34242277E-02 0.24047302E+02</pdfrwt>
<pdfrwt beam="2">  1       21 0.10240890E-01 0.24047302E+02</pdfrwt>
<totfact> 0.29444398E+07</totfact>
</mgrwt>
</event>
<event>
 4    1  0.2736402E+004  0.2563760E+02  0.7546771E-02  0.1652009E+00
         21   -1    0    0  501  502  0.00000000000E+00  0.00000000000E+00  0.11397979757E+02  0.11397979757E+02  0.00000000000E+00 0. -1.
         21   -1    0    0  502  503 -0.00000000000E+00 -0.00000000000E+00 -0.78057667252E+02  0.78057667252E+02  0.00000000000E+00 0.  1.
          2    1    1    2  501    0  0.21916022828E+02  0.13303177676E+02 -0.10469310338E+02  0.27692833943E+02  0.00000000000E+00 0. -1.
         -2    1    1    2    0  503 -0.21916022828E+02 -0.13303177676E+02 -0.56190377156E+02  0.61762813066E+02  0.00000000000E+00 0.  1.
<mgrwt>
<rscale>  2 0.25637601E+02</rscale>
<asrwt>0</asrwt>
<pdfrwt beam="1">  1       21 0.17535353E-02 0.25637601E+02</pdfrwt>
<pdfrwt beam="2">  1       21 0.12008872E-01 0.25637601E+02</pdfrwt>
<totfact> 0.64652433E+07</totfact>
</mgrwt>
</event>
<event>
 4    1  0.2736402E+004  0.2695392E+02  0.7546771E-02  0.1634426E+00
         21   -1    0    0  503  502  0.00000000000E+00  0.00000000000E+00  0.66947468286E+02  0.66947468286E+02  0.00000000000E+00 0. -1.
         21   -1    0    0  501  503 -0.00000000000E+00 -0.00000000000E+00 -0.11045777308E+02  0.11045777308E+02  0.00000000000E+00 0.  1.
          2    1    1    2  501    0 -0.13347552083E+02 -0.23417011535E+02  0.22785657012E+02  0.35294471823E+02  0.00000000000E+00 0.  1.
         -2    1    1    2    0  502  0.13347552083E+02  0.23417011535E+02  0.33116033966E+02  0.42698773770E+02  0.00000000000E+00 0. -1.
<mgrwt>
<rscale>  2 0.26953916E+02</rscale>
<asrwt>0</asrwt>
<pdfrwt beam="1">  1       21 0.10299610E-01 0.26953916E+02</pdfrwt>
<pdfrwt beam="2">  1       21 0.16993504E-02 0.26953916E+02</pdfrwt>
<totfact> 0.88842146E+07</totfact>
</mgrwt>
</event>
<event>
 4    1  0.2736402E+004  0.2416589E+02  0.7546771E-02  0.1673280E+00
         21   -1    0    0  503  502  0.00000000000E+00  0.00000000000E+00  0.17274513164E+03  0.17274513164E+03  0.00000000000E+00 0.  1.
         21   -1    0    0  501  503 -0.00000000000E+00 -0.00000000000E+00 -0.49477765915E+01  0.49477765915E+01  0.00000000000E+00 0. -1.
          2    1    1    2  501    0  0.16446885876E+02  0.17705649240E+02  0.33896639286E+02  0.41628982991E+02  0.00000000000E+00 0. -1.
         -2    1    1    2    0  502 -0.16446885876E+02 -0.17705649240E+02  0.13390071576E+03  0.13606392524E+03  0.00000000000E+00 0.  1.
<mgrwt>
<rscale>  2 0.24165886E+02</rscale>
<asrwt>0</asrwt>
<pdfrwt beam="1">  1       21 0.26576169E-01 0.24165886E+02</pdfrwt>
<pdfrwt beam="2">  1       21 0.76119653E-03 0.24165886E+02</pdfrwt>
<totfact> 0.56735572E+07</totfact>
</mgrwt>
</event>
<event>
 4    1  0.2736402E+004  0.3127134E+02  0.7546771E-02  0.1584446E+00
         21   -1    0    0  501  502  0.00000000000E+00  0.00000000000E+00  0.17580964603E+01  0.17580964603E+01  0.00000000000E+00 0.  1.
         21   -1    0    0  502  503 -0.00000000000E+00 -0.00000000000E+00 -0.55741323222E+03  0.55741323222E+03  0.00000000000E+00 0. -1.
          2    1    1    2  501    0 -0.30138067145E+02 -0.83422938770E+01 -0.29073685968E+03  0.29241377966E+03  0.00000000000E+00 0. -1.
         -2    1    1    2    0  503  0.30138067145E+02  0.83422938770E+01 -0.26491827608E+03  0.26675754902E+03  0.00000000000E+00 0.  1.
<mgrwt>
<rscale>  2 0.31271344E+02</rscale>
<asrwt>0</asrwt>
<pdfrwt beam="1">  1       21 0.27047676E-03 0.31271344E+02</pdfrwt>
<pdfrwt beam="2">  1       21 0.85755760E-01 0.31271344E+02</pdfrwt>
<totfact> 0.28000740E+07</totfact>
</mgrwt>
</event>
<event>
 4    1  0.2736402E+004  0.2203827E+02  0.7546771E-02  0.1707591E+00
         21   -1    0    0  503  502  0.00000000000E+00  0.00000000000E+00  0.81118326244E+00  0.81118326244E+00  0.00000000000E+00 0.  1.
         21   -1    0    0  501  503 -0.00000000000E+00 -0.00000000000E+00 -0.10845375706E+04  0.10845375706E+04  0.00000000000E+00 0. -1.
          2    1    1    2  501    0 -0.14362884429E+02  0.16715044218E+02 -0.90506347859E+03  0.90533175435E+03  0.00000000000E+00 0. -1.
         -2    1    1    2    0  502  0.14362884429E+02 -0.16715044218E+02 -0.17866290877E+03  0.18001699954E+03  0.00000000000E+00 0.  1.
<mgrwt>
<rscale>  2 0.22038266E+02</rscale>
<asrwt>0</asrwt>
<pdfrwt beam="1">  1       21 0.12479734E-03 0.22038266E+02</pdfrwt>
<pdfrwt beam="2">  1       21 0.16685204E+00 0.22038266E+02</pdfrwt>
<totfact> 0.17713456E+07</totfact>
</mgrwt>
</event>
<event>
 4    1  0.2736402E+004  0.2141883E+02  0.7546771E-02  0.1718501E+00
         21   -1    0    0  501  502  0.00000000000E+00  0.00000000000E+00  0.33856392333E+03  0.33856392333E+03  0.00000000000E+00 0. -1.
         21   -1    0    0  502  503 -0.00000000000E+00 -0.00000000000E+00 -0.23084005313E+01  0.23084005313E+01  0.00000000000E+00 0.  1.
          2    1    1    2  501    0 -0.20332973238E+02  0.67332291041E+01  0.27765843167E+03  0.27848334035E+03  0.00000000000E+00 0. -1.
         -2    1    1    2    0  503  0.20332973238E+02 -0.67332291041E+01  0.58597091130E+02  0.62388983513E+02  0.00000000000E+00 0.  1.
<mgrwt>
<rscale>  2 0.21418828E+02</rscale>
<asrwt>0</asrwt>
<pdfrwt beam="1">  1       21 0.52086718E-01 0.21418828E+02</pdfrwt>
<pdfrwt beam="2">  1       21 0.35513881E-03 0.21418828E+02</pdfrwt>
<totfact> 0.48269520E+07</totfact>
</mgrwt>
</event>
<event>
 4    1  0.2736402E+004  0.4575489E+02  0.7546771E-02  0.1469683E+00
         21   -1    0    0  501  502  0.00000000000E+00  0.00000000000E+00  0.99731189746E+02  0.99731189746E+02  0.00000000000E+00 0.  1.
         21   -1    0    0  502  503 -0.00000000000E+00 -0.00000000000E+00 -0.21038979683E+02  0.21038979683E+02  0.00000000000E+00 0. -1.
          2    1    1    2  501    0  0.43028283156E+02 -0.15558808212E+02  0.36478222204E+02  0.58516411027E+02  0.00000000000E+00 0.  1.
         -2    1    1    2    0  503 -0.43028283156E+02  0.15558808212E+02  0.42213987858E+02  0.62253758402E+02  0.00000000000E+00 0. -1.
<mgrwt>
<rscale>  2 0.45754887E+02</rscale>
<asrwt>0</asrwt>
<pdfrwt beam="1">  1       21 0.15343260E-01 0.45754887E+02</pdfrwt>
<pdfrwt beam="2">  1       21 0.32367662E-02 0.45754887E+02</pdfrwt>
<totfact> 0.18186296E+07</totfact>
</mgrwt>
</event>
<event>
 4    1  0.2736402E+004  0.2006871E+02  0.7546771E-02  0.1743965E+00
         21   -1    0    0  501  502  0.00000000000E+00  0.00000000000E+00  0.28789121465E+01  0.28789121465E+01  0.00000000000E+00 0.  1.
         21   -1    0    0  502  503 -0.00000000000E+00 -0.00000000000E+00 -0.15973858805E+03  0.15973858805E+03  0.00000000000E+00 0. -1.
          2    1    1    2  501    0 -0.81274623610E+01 -0.18349317791E+02 -0.49773992799E+02  0.53667527118E+02  0.00000000000E+00 0.  1.
         -2    1    1    2    0  503  0.81274623610E+01  0.18349317791E+02 -0.10708568310E+03  0.10894997308E+03  0.00000000000E+00 0. -1.
<mgrwt>
<rscale>  2 0.20068710E+02</rscale>
<asrwt>0</asrwt>
<pdfrwt beam="1">  1       21 0.44290959E-03 0.20068710E+02</pdfrwt>
<pdfrwt beam="2">  1       21 0.24575166E-01 0.20068710E+02</pdfrwt>
<totfact> 0.13809374E+08</totfact>
</mgrwt>
</event>
<event>
 4    1  0.2736402E+004  0.3378283E+02  0.7546771E-02  0.1559683E+00
         21   -1    0    0  501  502  0.00000000000E+00  0.00000000000E+00  0.68417273214E+02  0.68417273214E+02  0.00000000000E+00 0. -1.
         21   -1    0    0  502  503 -0.00000000000E+00 -0.00000000000E+00 -0.68820864845E+02  0.68820864845E+02  0.00000000000E+00 0.  1.
          2    1    1    2  501    0  0.33463143567E+02  0.46365495285E+01  0.59524975362E+02  0.68443423795E+02  0.00000000000E+00 0. -1.
         -2    1    1    2    0  503 -0.33463143567E+02 -0.46365495285E+01 -0.59928566993E+02  0.68794714264E+02  0.00000000000E+00 0.  1.
<mgrwt>
<rscale>  2 0.33782829E+02</rscale>
<asrwt>0</asrwt>
<pdfrwt beam="1">  1       21 0.10525734E-01 0.33782829E+02</pdfrwt>
<pdfrwt beam="2">  1       21 0.10587825E-01 0.33782829E+02</pdfrwt>
<totfact> 0.47823792E+06</totfact>
</mgrwt>
</event>
<event>
 4    1  0.2736402E+004  0.2201362E+02  0.7546771E-02  0.1708017E+00
         21   -1    0    0  503  502  0.00000000000E+00  0.00000000000E+00  0.24739300450E+01  0.24739300450E+01  0.00000000000E+00 0. -1.
         21   -1    0    0  501  503 -0.00000000000E+00 -0.00000000000E+00 -0.27266736339E+03  0.27266736339E+03  0.00000000000E+00 0.  1.
          2    1    1    2  501    0 -0.11377275197E+02  0.18845610151E+02 -0.20810081204E+03  0.20926191098E+03  0.00000000000E+00 0.  1.
         -2    1    1    2    0  502  0.11377275197E+02 -0.18845610151E+02 -0.62092621301E+02  0.65879382457E+02  0.00000000000E+00 0. -1.
<mgrwt>
<rscale>  2 0.22013619E+02</rscale>
<asrwt>0</asrwt>
<pdfrwt beam="1">  1       21 0.38060470E-03 0.22013619E+02</pdfrwt>
<pdfrwt beam="2">  1       21 0.41948817E-01 0.22013619E+02</pdfrwt>
<totfact> 0.66556926E+07</totfact>
</mgrwt>
</event>
<event>
 4    1  0.2736402E+004  0.2306446E+02  0.7546771E-02  0.1690467E+00
         21   -1    0    0  501  502  0.00000000000E+00  0.00000000000E+00  0.62514359061E+02  0.62514359061E+02  0.00000000000E+00 0.  1.
         21   -1    0    0  502  503 -0.00000000000E+00 -0.00000000000E+00 -0.19447697542E+02  0.19447697542E+02  0.00000000000E+00 0. -1.
          2    1    1    2  501    0  0.22826191229E+02 -0.33066985051E+01  0.52267436551E+02  0.57130151275E+02  0.00000000000E+00 0.  1.
         -2    1    1    2    0  503 -0.22826191229E+02  0.33066985051E+01 -0.92007750324E+01  0.24831905328E+02  0.00000000000E+00 0. -1.
<mgrwt>
<rscale>  2 0.23064459E+02</rscale>
<asrwt>0</asrwt>
<pdfrwt beam="1">  1       21 0.96175937E-02 0.23064459E+02</pdfrwt>
<pdfrwt beam="2">  1       21 0.29919535E-02 0.23064459E+02</pdfrwt>
<totfact> 0.39930891E+07</totfact>
</mgrwt>
</event>
<event>
 4    1  0.2736402E+004  0.2109151E+02  0.7546771E-02  0.1724455E+00
         21   -1    0    0  501  502  0.00000000000E+00  0.00000000000E+00  0.13950736439E+02  0.13950736439E+02  0.00000000000E+00 0. -1.
         21   -1    0    0  502  503 -0.00000000000E+00 -0.00000000000E+00 -0.10101951539E+03  0.10101951539E+03  0.00000000000E+00 0.  1.
          2    1    1    2  501    0 -0.70990221566E+01  0.19860909424E+02  0.40202579953E+01  0.21471243864E+02  0.00000000000E+00 0. -1.
         -2    1    1    2    0  503  0.70990221566E+01 -0.19860909424E+02 -0.91089036950E+02  0.93499007969E+02  0.00000000000E+00 0.  1.
<mgrwt>
<rscale>  2 0.21091511E+02</rscale>
<asrwt>0</asrwt>
<pdfrwt beam="1">  1       21 0.21462672E-02 0.21091511E+02</pdfrwt>
<pdfrwt beam="2">  1       21 0.15541463E-01 0.21091511E+02</pdfrwt>
<totfact> 0.29220549E+07</totfact>
</mgrwt>
</event>
<event>
 4    1  0.2736402E+004  0.2291943E+02  0.7546771E-02  0.1692819E+00
         21   -1    0    0  501  502  0.00000000000E+00  0.00000000000E+00  0.14788230747E+02  0.14788230747E+02  0.00000000000E+00 0.  1.
         21   -1    0    0  502  503 -0.00000000000E+00 -0.00000000000E+00 -0.35646479218E+02  0.35646479218E+02  0.00000000000E+00 0. -1.
          2    1    1    2  501    0 -0.22238084356E+02 -0.55468939445E+01 -0.89360683364E+01  0.24599872877E+02  0.00000000000E+00 0. -1.
         -2    1    1    2    0  503  0.22238084356E+02  0.55468939445E+01 -0.11922180134E+02  0.25834837088E+02  0.00000000000E+00 0.  1.
<mgrwt>
<rscale>  2 0.22919433E+02</rscale>
<asrwt>0</asrwt>
<pdfrwt beam="1">  1       21 0.22751124E-02 0.22919433E+02</pdfrwt>
<pdfrwt beam="2">  1       21 0.54840737E-02 0.22919433E+02</pdfrwt>
<totfact> 0.15164669E+08</totfact>
</mgrwt>
</event>
<event>
 4    1  0.2736402E+004  0.2040182E+02  0.7546771E-02  0.1737453E+00
         21   -1    0    0  501  502  0.00000000000E+00  0.00000000000E+00  0.39340708307E+02  0.39340708307E+02  0.00000000000E+00 0.  1.
         21   -1    0    0  502  503 -0.00000000000E+00 -0.00000000000E+00 -0.25314548983E+02  0.25314548983E+02  0.00000000000E+00 0. -1.
          2    1    1    2  501    0  0.84487505476E+01  0.18570216779E+02  0.31676514645E+02  0.37678056175E+02  0.00000000000E+00 0.  1.
         -2    1    1    2    0  503 -0.84487505476E+01 -0.18570216779E+02 -0.17650355321E+02  0.26977201115E+02  0.00000000000E+00 0. -1.
<mgrwt>
<rscale>  2 0.20401822E+02</rscale>
<asrwt>0</asrwt>
<pdfrwt beam="1">  1       21 0.60524166E-02 0.20401822E+02</pdfrwt>
<pdfrwt beam="2">  1       21 0.38945460E-02 0.20401822E+02</pdfrwt>
<totfact> 0.54350362E+07</totfact>
</mgrwt>
</event>
<event>
 4    1  0.2736402E+004  0.2345840E+02  0.7546771E-02  0.1684186E+00
         21   -1    0    0  501  502  0.00000000000E+00  0.00000000000E+00  0.24668598806E+02  0.24668598806E+02  0.00000000000E+00 0.  1.
         21   -1    0    0  502  503 -0.00000000000E+00 -0.00000000000E+00 -0.77345873243E+02  0.77345873243E+02  0.00000000000E+00 0. -1.
          2    1    1    2  501    0 -0.52254151463E+01  0.22869012433E+02  0.16688822208E+02  0.28789120859E+02  0.00000000000E+00 0.  1.
         -2    1    1    2    0  503  0.52254151463E+01 -0.22869012433E+02 -0.69366096645E+02  0.73225351190E+02  0.00000000000E+00 0. -1.
<mgrwt>
<rscale>  2 0.23458403E+02</rscale>
<asrwt>0</asrwt>
<pdfrwt beam="1">  1       21 0.37951690E-02 0.23458403E+02</pdfrwt>
<pdfrwt beam="2">  1       21 0.11899365E-01 0.23458403E+02</pdfrwt>
<totfact> 0.19395209E+07</totfact>
</mgrwt>
</event>
<event>
 4    1  0.2736402E+004  0.5833442E+02  0.7546771E-02  0.1404957E+00
         21   -1    0    0  501  502  0.00000000000E+00  0.00000000000E+00  0.12617801605E+03  0.12617801605E+03  0.00000000000E+00 0.  1.
         21   -1    0    0  502  503 -0.00000000000E+00 -0.00000000000E+00 -0.27247090607E+02  0.27247090607E+02  0.00000000000E+00 0. -1.
          2    1    1    2  501    0  0.23594533130E+02  0.53349816350E+02  0.57214321370E+02  0.81709139440E+02  0.00000000000E+00 0.  1.
         -2    1    1    2    0  503 -0.23594533130E+02 -0.53349816350E+02  0.41716604069E+02  0.71715967213E+02  0.00000000000E+00 0. -1.
<mgrwt>
<rscale>  2 0.58334423E+02</rscale>
<asrwt>0</asrwt>
<pdfrwt beam="1">  1       21 0.19412002E-01 0.58334423E+02</pdfrwt>
<pdfrwt beam="2">  1       21 0.41918602E-02 0.58334423E+02</pdfrwt>
<totfact> 0.81270125E+06</totfact>
</mgrwt>
</event>
<event>
 4    1  0.2736402E+004  0.2354460E+02  0.7546771E-02  0.1682831E+00
         21   -1    0    0  503  502  0.00000000000E+00  0.00000000000E+00  0.10480470607E+03  0.10480470607E+03  0.00000000000E+00 0.  1.
         21   -1    0    0  501  503 -0.00000000000E+00 -0.00000000000E+00 -0.67724945351E+01  0.67724945351E+01  0.00000000000E+00 0. -1.
          2    1    1    2  501    0  0.11880893376E+01 -0.23514605391E+02  0.22908704830E+02  0.32850524805E+02  0.00000000000E+00 0. -1.
         -2    1    1    2    0  502 -0.11880893376E+01  0.23514605391E+02  0.75123506704E+02  0.78726675800E+02  0.00000000000E+00 0.  1.
<mgrwt>
<rscale>  2 0.23544601E+02</rscale>
<asrwt>0</asrwt>
<pdfrwt beam="1">  1       21 0.16123800E-01 0.23544601E+02</pdfrwt>
<pdfrwt beam="2">  1       21 0.10419223E-02 0.23544601E+02</pdfrwt>
<totfact> 0.84568863E+07</totfact>
</mgrwt>
</event>
<event>
 4    1  0.2736402E+004  0.3893572E+02  0.7546771E-02  0.1516193E+00
         21   -1    0    0  503  502  0.00000000000E+00  0.00000000000E+00  0.10703508325E+04  0.10703508325E+04  0.00000000000E+00 0.  1.
         21   -1    0    0  501  503 -0.00000000000E+00 -0.00000000000E+00 -0.16473536449E+01  0.16473536449E+01  0.00000000000E+00 0. -1.
          2    1    1    2  501    0  0.83004928389E+01 -0.38040666937E+02  0.33363628052E+03  0.33590051831E+03  0.00000000000E+00 0. -1.
         -2    1    1    2    0  502 -0.83004928389E+01  0.38040666937E+02  0.73506719837E+03  0.73609766787E+03  0.00000000000E+00 0.  1.
<mgrwt>
<rscale>  2 0.38935723E+02</rscale>
<asrwt>0</asrwt>
<pdfrwt beam="1">  1       21 0.16466880E+00 0.38935723E+02</pdfrwt>
<pdfrwt beam="2">  1       21 0.25343988E-03 0.38935723E+02</pdfrwt>
<totfact> 0.69993146E+06</totfact>
</mgrwt>
</event>
<event>
 4    1  0.2736402E+004  0.2518540E+02  0.7546771E-02  0.1658353E+00
         21   -1    0    0  503  502  0.00000000000E+00  0.00000000000E+00  0.18497988171E+02  0.18497988171E+02  0.00000000000E+00 0. -1.
         21   -1    0    0  501  503 -0.00000000000E+00 -0.00000000000E+00 -0.34984856286E+02  0.34984856286E+02  0.00000000000E+00 0.  1.
          2    1    1    2  501    0 -0.24579808511E+02  0.54897356770E+01 -0.12010939457E+02  0.27902810806E+02  0.00000000000E+00 0.  1.
         -2    1    1    2    0  502  0.24579808511E+02 -0.54897356770E+01 -0.44759286589E+01  0.25580033651E+02  0.00000000000E+00 0. -1.
<mgrwt>
<rscale>  2 0.25185396E+02</rscale>
<asrwt>0</asrwt>
<pdfrwt beam="1">  1       21 0.28458444E-02 0.25185396E+02</pdfrwt>
<pdfrwt beam="2">  1       21 0.53822855E-02 0.25185396E+02</pdfrwt>
<totfact> 0.11352033E+08</totfact>
</mgrwt>
</event>
<event>
 4    1  0.2736402E+004  0.2215818E+02  0.7546771E-02  0.1705531E+00
         21   -1    0    0  503  502  0.00000000000E+00  0.00000000000E+00  0.67569707333E+02  0.67569707333E+02  0.00000000000E+00 0.  1.
         21   -1    0    0  501  503 -0.00000000000E+00 -0.00000000000E+00 -0.74536640662E+01  0.74536640662E+01  0.00000000000E+00 0. -1.
          2    1    1    2  501    0  0.71939143892E+00 -0.22146499904E+02  0.36004633984E+02  0.42276691573E+02  0.00000000000E+00 0.  1.
         -2    1    1    2    0  502 -0.71939143892E+00  0.22146499904E+02  0.24111409282E+02  0.32746679826E+02  0.00000000000E+00 0. -1.
<mgrwt>
<rscale>  2 0.22158181E+02</rscale>
<asrwt>0</asrwt>
<pdfrwt beam="1">  1       21 0.10395339E-01 0.22158181E+02</pdfrwt>
<pdfrwt beam="2">  1       21 0.11467176E-02 0.22158181E+02</pdfrwt>
<totfact> 0.15064589E+08</totfact>
</mgrwt>
</event>
<event>
 4    1  0.2736402E+004  0.2525450E+02  0.7546771E-02  0.1657373E+00
         21   -1    0    0  501  502  0.00000000000E+00  0.00000000000E+00  0.55084974294E+03  0.55084974294E+03  0.00000000000E+00 0. -1.
         21   -1    0    0  502  503 -0.00000000000E+00 -0.00000000000E+00 -0.12511834743E+01  0.12511834743E+01  0.00000000000E+00 0.  1.
          2    1    1    2  501    0  0.15027112665E+02  0.20297183108E+02  0.35020351846E+03  0.35111293639E+03  0.00000000000E+00 0. -1.
         -2    1    1    2    0  503 -0.15027112665E+02 -0.20297183108E+02  0.19939504100E+03  0.20098799002E+03  0.00000000000E+00 0.  1.
<mgrwt>
<rscale>  2 0.25254500E+02</rscale>
<asrwt>0</asrwt>
<pdfrwt beam="1">  1       21 0.84745921E-01 0.25254500E+02</pdfrwt>
<pdfrwt beam="2">  1       21 0.19249020E-03 0.25254500E+02</pdfrwt>
<totfact> 0.45299054E+07</totfact>
</mgrwt>
</event>
<event>
 4    1  0.2736402E+004  0.2267896E+02  0.7546771E-02  0.1696767E+00
         21   -1    0    0  501  502  0.00000000000E+00  0.00000000000E+00  0.48028785503E+01  0.48028785503E+01  0.00000000000E+00 0.  1.
         21   -1    0    0  502  503 -0.00000000000E+00 -0.00000000000E+00 -0.33251233588E+03  0.33251233588E+03  0.00000000000E+00 0. -1.
          2    1    1    2  501    0 -0.52377461892E+01 -0.22065843293E+02 -0.24986947305E+02  0.33744376732E+02  0.00000000000E+00 0.  1.
         -2    1    1    2    0  503  0.52377461892E+01  0.22065843293E+02 -0.30272251003E+03  0.30357083770E+03  0.00000000000E+00 0. -1.
<mgrwt>
<rscale>  2 0.22678964E+02</rscale>
<asrwt>0</asrwt>
<pdfrwt beam="1">  1       21 0.73890444E-03 0.22678964E+02</pdfrwt>
<pdfrwt beam="2">  1       21 0.51155740E-01 0.22678964E+02</pdfrwt>
<totfact> 0.17197674E+07</totfact>
</mgrwt>
</event>
<event>
 4    1  0.2736402E+004  0.2186601E+02  0.7546771E-02  0.1710580E+00
         21   -1    0    0  503  502  0.00000000000E+00  0.00000000000E+00  0.74444502690E+01  0.74444502690E+01  0.00000000000E+00 0.  1.
         21   -1    0    0  501  503 -0.00000000000E+00 -0.00000000000E+00 -0.69692627872E+02  0.69692627872E+02  0.00000000000E+00 0. -1.
          2    1    1    2  501    0  0.19448779945E+02 -0.99933599137E+01 -0.41926633971E+02  0.47285990736E+02  0.00000000000E+00 0. -1.
         -2    1    1    2    0  502 -0.19448779945E+02  0.99933599137E+01 -0.20321543632E+02  0.29851087405E+02  0.00000000000E+00 0.  1.
<mgrwt>
<rscale>  2 0.21866007E+02</rscale>
<asrwt>0</asrwt>
<pdfrwt beam="1">  1       21 0.11453000E-02 0.21866007E+02</pdfrwt>
<pdfrwt beam="2">  1       21 0.10721943E-01 0.21866007E+02</pdfrwt>
<totfact> 0.14281372E+08</totfact>
</mgrwt>
</event>
<event>
 4    1  0.2736402E+004  0.2338552E+02  0.7546771E-02  0.1685336E+00
         21   -1    0    0  503  502  0.00000000000E+00  0.00000000000E+00  0.22013003270E+02  0.22013003270E+02  0.00000000000E+00 0.  1.
         21   -1    0    0  501  503 -0.00000000000E+00 -0.00000000000E+00 -0.24857013393E+02  0.24857013393E+02  0.00000000000E+00 0. -1.
          2    1    1    2  501    0 -0.15729340817E+02 -0.17305209744E+02 -0.19662115780E+01  0.23468030058E+02  0.00000000000E+00 0.  1.
         -2    1    1    2    0  502  0.15729340817E+02  0.17305209744E+02 -0.87779854510E+00  0.23401986606E+02  0.00000000000E+00 0. -1.
<mgrwt>
<rscale>  2 0.23385518E+02</rscale>
<asrwt>0</asrwt>
<pdfrwt beam="1">  1       21 0.33866159E-02 0.23385518E+02</pdfrwt>
<pdfrwt beam="2">  1       21 0.38241559E-02 0.23385518E+02</pdfrwt>
<totfact> 0.14570740E+08</totfact>
</mgrwt>
</event>
<event>
 4    1  0.2736402E+004  0.2022451E+02  0.7546771E-02  0.1740900E+00
         21   -1    0    0  501  502  0.00000000000E+00  0.00000000000E+00  0.45726811323E+01  0.45726811323E+01  0.00000000000E+00 0.  1.
         21   -1    0    0  502  503 -0.00000000000E+00 -0.00000000000E+00 -0.13470265263E+03  0.13470265263E+03  0.00000000000E+00 0. -1.
          2    1    1    2  501    0  0.17299279088E+02 -0.10476908203E+02 -0.24702899165E+02  0.31925912511E+02  0.00000000000E+00 0.  1.
         -2    1    1    2    0  503 -0.17299279088E+02  0.10476908203E+02 -0.10542707234E+03  0.10734942125E+03  0.00000000000E+00 0. -1.
<mgrwt>
<rscale>  2 0.20224506E+02</rscale>
<asrwt>0</asrwt>
<pdfrwt beam="1">  1       21 0.70348947E-03 0.20224506E+02</pdfrwt>
<pdfrwt beam="2">  1       21 0.20723483E-01 0.20224506E+02</pdfrwt>
<totfact> 0.94469801E+07</totfact>
</mgrwt>
</event>
<event>
 4    1  0.2736402E+004  0.9272636E+02  0.7546771E-02  0.1296381E+00
         21   -1    0    0  503  502  0.00000000000E+00  0.00000000000E+00  0.98041994000E+02  0.98041994000E+02  0.00000000000E+00 0. -1.
         21   -1    0    0  501  503 -0.00000000000E+00 -0.00000000000E+00 -0.36146588794E+03  0.36146588794E+03  0.00000000000E+00 0.  1.
          2    1    1    2  501    0  0.92706913329E+02 -0.18988808556E+01 -0.33166121976E+03  0.34437964839E+03  0.00000000000E+00 0.  1.
         -2    1    1    2    0  502 -0.92706913329E+02  0.18988808556E+01  0.68237325818E+02  0.11512823356E+03  0.00000000000E+00 0. -1.
<mgrwt>
<rscale>  2 0.92726358E+02</rscale>
<asrwt>0</asrwt>
<pdfrwt beam="1">  1       21 0.15083384E-01 0.92726358E+02</pdfrwt>
<pdfrwt beam="2">  1       21 0.55610136E-01 0.92726358E+02</pdfrwt>
<totfact> 0.12292711E+05</totfact>
</mgrwt>
</event>
<event>
 4    1  0.2736402E+004  0.2381798E+02  0.7546771E-02  0.1678584E+00
         21   -1    0    0  501  502  0.00000000000E+00  0.00000000000E+00  0.15000453838E+04  0.15000453838E+04  0.00000000000E+00 0.  1.
         21   -1    0    0  502  503 -0.00000000000E+00 -0.00000000000E+00 -0.79493680698E+00  0.79493680698E+00  0.00000000000E+00 0. -1.
          2    1    1    2  501    0  0.15063056717E+02  0.18449942630E+02  0.12929711937E+04  0.12931905521E+04  0.00000000000E+00 0.  1.
         -2    1    1    2    0  503 -0.15063056717E+02 -0.18449942630E+02  0.20627925329E+03  0.20764976859E+03  0.00000000000E+00 0. -1.
<mgrwt>
<rscale>  2 0.23817978E+02</rscale>
<asrwt>0</asrwt>
<pdfrwt beam="1">  1       21 0.23077395E+00 0.23817978E+02</pdfrwt>
<pdfrwt beam="2">  1       21 0.12229917E-03 0.23817978E+02</pdfrwt>
<totfact> 0.80093743E+06</totfact>
</mgrwt>
</event>
<event>
 4    1  0.2736402E+004  0.2102878E+02  0.7546771E-02  0.1725611E+00
         21   -1    0    0  501  502  0.00000000000E+00  0.00000000000E+00  0.28320160652E+01  0.28320160652E+01  0.00000000000E+00 0.  1.
         21   -1    0    0  502  503 -0.00000000000E+00 -0.00000000000E+00 -0.26645035377E+03  0.26645035377E+03  0.00000000000E+00 0. -1.
          2    1    1    2  501    0  0.21023355312E+02  0.47757360019E+00 -0.45179827165E+02  0.49833987677E+02  0.00000000000E+00 0.  1.
         -2    1    1    2    0  503 -0.21023355312E+02 -0.47757360019E+00 -0.21843851054E+03  0.21944838216E+03  0.00000000000E+00 0. -1.
<mgrwt>
<rscale>  2 0.21028779E+02</rscale>
<asrwt>0</asrwt>
<pdfrwt beam="1">  1       21 0.43569478E-03 0.21028779E+02</pdfrwt>
<pdfrwt beam="2">  1       21 0.40992362E-01 0.21028779E+02</pdfrwt>
<totfact> 0.56380754E+07</totfact>
</mgrwt>
</event>
<event>
 4    1  0.2736402E+004  0.2099971E+02  0.7546771E-02  0.1726148E+00
         21   -1    0    0  501  502  0.00000000000E+00  0.00000000000E+00  0.76599920575E+01  0.76599920575E+01  0.00000000000E+00 0.  1.
         21   -1    0    0  502  503 -0.00000000000E+00 -0.00000000000E+00 -0.11437210725E+03  0.11437210725E+03  0.00000000000E+00 0. -1.
          2    1    1    2  501    0  0.20014234155E+02  0.63575477610E+01 -0.10356386724E+02  0.23414583667E+02  0.00000000000E+00 0.  1.
         -2    1    1    2    0  503 -0.20014234155E+02 -0.63575477610E+01 -0.96355728471E+02  0.98617515643E+02  0.00000000000E+00 0. -1.
<mgrwt>
<rscale>  2 0.20999714E+02</rscale>
<asrwt>0</asrwt>
<pdfrwt beam="1">  1       21 0.11784602E-02 0.20999714E+02</pdfrwt>
<pdfrwt beam="2">  1       21 0.17595711E-01 0.20999714E+02</pdfrwt>
<totfact> 0.58654602E+07</totfact>
</mgrwt>
</event>
<event>
 4    1  0.2736402E+004  0.3327256E+02  0.7546771E-02  0.1564498E+00
         21   -1    0    0  503  502  0.00000000000E+00  0.00000000000E+00  0.71839544890E+01  0.71839544890E+01  0.00000000000E+00 0. -1.
         21   -1    0    0  501  503 -0.00000000000E+00 -0.00000000000E+00 -0.21674540257E+03  0.21674540257E+03  0.00000000000E+00 0.  1.
          2    1    1    2  501    0  0.33223222396E+02  0.18113344013E+01 -0.16497330247E+03  0.16829513946E+03  0.00000000000E+00 0.  1.
         -2    1    1    2    0  502 -0.33223222396E+02 -0.18113344013E+01 -0.44588145614E+02  0.55634217600E+02  0.00000000000E+00 0. -1.
<mgrwt>
<rscale>  2 0.33272563E+02</rscale>
<asrwt>0</asrwt>
<pdfrwt beam="1">  1       21 0.11052236E-02 0.33272563E+02</pdfrwt>
<pdfrwt beam="2">  1       21 0.33345451E-01 0.33272563E+02</pdfrwt>
<totfact> 0.22770515E+07</totfact>
</mgrwt>
</event>
<event>
 4    1  0.2736402E+004  0.2898067E+02  0.7546771E-02  0.1609637E+00
         21   -1    0    0  503  502  0.00000000000E+00  0.00000000000E+00  0.38220741066E+03  0.38220741066E+03  0.00000000000E+00 0.  1.
         21   -1    0    0  501  503 -0.00000000000E+00 -0.00000000000E+00 -0.37682434239E+01  0.37682434239E+01  0.00000000000E+00 0. -1.
          2    1    1    2  501    0  0.18611535248E+02 -0.22214637631E+02  0.64618788932E+02  0.70819963658E+02  0.00000000000E+00 0. -1.
         -2    1    1    2    0  502 -0.18611535248E+02  0.22214637631E+02  0.31382037830E+03  0.31515569043E+03  0.00000000000E+00 0.  1.
<mgrwt>
<rscale>  2 0.28980672E+02</rscale>
<asrwt>0</asrwt>
<pdfrwt beam="1">  1       21 0.58801109E-01 0.28980672E+02</pdfrwt>
<pdfrwt beam="2">  1       21 0.57973006E-03 0.28980672E+02</pdfrwt>
<totfact> 0.19614195E+07</totfact>
</mgrwt>
</event>
<event>
 4    1  0.2736402E+004  0.6135801E+02  0.7546771E-02  0.1392220E+00
         21   -1    0    0  501  502  0.00000000000E+00  0.00000000000E+00  0.36431840506E+03  0.36431840506E+03  0.00000000000E+00 0.  1.
         21   -1    0    0  502  503 -0.00000000000E+00 -0.00000000000E+00 -0.13239848041E+02  0.13239848041E+02  0.00000000000E+00 0. -1.
          2    1    1    2  501    0 -0.46572009434E+02  0.39948138133E+02  0.26398184780E+03  0.27101885870E+03  0.00000000000E+00 0.  1.
         -2    1    1    2    0  503  0.46572009434E+02 -0.39948138133E+02  0.87096709225E+02  0.10653939441E+03  0.00000000000E+00 0. -1.
<mgrwt>
<rscale>  2 0.61358013E+02</rscale>
<asrwt>0</asrwt>
<pdfrwt beam="1">  1       21 0.56048978E-01 0.61358013E+02</pdfrwt>
<pdfrwt beam="2">  1       21 0.20369000E-02 0.61358013E+02</pdfrwt>
<totfact> 0.34215594E+06</totfact>
</mgrwt>
</event>
<event>
 4    1  0.2736402E+004  0.3902948E+02  0.7546771E-02  0.1515477E+00
         21   -1    0    0  501  502  0.00000000000E+00  0.00000000000E+00  0.93262415980E+02  0.93262415980E+02  0.00000000000E+00 0.  1.
         21   -1    0    0  502  503 -0.00000000000E+00 -0.00000000000E+00 -0.18961214255E+02  0.18961214255E+02  0.00000000000E+00 0. -1.
          2    1    1    2  501    0 -0.36710914609E+02 -0.13251747507E+02  0.58039316512E+02  0.69941849594E+02  0.00000000000E+00 0.  1.
         -2    1    1    2    0  503  0.36710914609E+02  0.13251747507E+02  0.16261885214E+02  0.42281780641E+02  0.00000000000E+00 0. -1.
<mgrwt>
<rscale>  2 0.39029477E+02</rscale>
<asrwt>0</asrwt>
<pdfrwt beam="1">  1       21 0.14348064E-01 0.39029477E+02</pdfrwt>
<pdfrwt beam="2">  1       21 0.29171099E-02 0.39029477E+02</pdfrwt>
<totfact> 0.23532027E+07</totfact>
</mgrwt>
</event>
<event>
 4    1  0.2736402E+004  0.4027218E+02  0.7546771E-02  0.1506218E+00
         21   -1    0    0  503  502  0.00000000000E+00  0.00000000000E+00  0.68309056682E+02  0.68309056682E+02  0.00000000000E+00 0.  1.
         21   -1    0    0  501  503 -0.00000000000E+00 -0.00000000000E+00 -0.30725821790E+02  0.30725821790E+02  0.00000000000E+00 0. -1.
          2    1    1    2  501    0  0.39683743480E+02  0.68592111482E+01 -0.48146933596E+01  0.40558963822E+02  0.00000000000E+00 0. -1.
         -2    1    1    2    0  502 -0.39683743480E+02 -0.68592111482E+01  0.42397928252E+02  0.58475914650E+02  0.00000000000E+00 0.  1.
<mgrwt>
<rscale>  2 0.40272177E+02</rscale>
<asrwt>0</asrwt>
<pdfrwt beam="1">  1       21 0.10509086E-01 0.40272177E+02</pdfrwt>
<pdfrwt beam="2">  1       21 0.47270495E-02 0.40272177E+02</pdfrwt>
<totfact> 0.18607629E+07</totfact>
</mgrwt>
</event>
<event>
 4    1  0.2736402E+004  0.4603596E+02  0.7546771E-02  0.1467976E+00
         21   -1    0    0  503  502  0.00000000000E+00  0.00000000000E+00  0.26332924156E+01  0.26332924156E+01  0.00000000000E+00 0. -1.
         21   -1    0    0  501  503 -0.00000000000E+00 -0.00000000000E+00 -0.12242790479E+04  0.12242790479E+04  0.00000000000E+00 0.  1.
          2    1    1    2  501    0 -0.24488159169E+02 -0.38982554006E+02 -0.96990306673E+03  0.97099498882E+03  0.00000000000E+00 0.  1.
         -2    1    1    2    0  502  0.24488159169E+02  0.38982554006E+02 -0.25174268872E+03  0.25591735147E+03  0.00000000000E+00 0. -1.
<mgrwt>
<rscale>  2 0.46035958E+02</rscale>
<asrwt>0</asrwt>
<pdfrwt beam="1">  1       21 0.40512243E-03 0.46035958E+02</pdfrwt>
<pdfrwt beam="2">  1       21 0.18835038E+00 0.46035958E+02</pdfrwt>
<totfact> 0.24864638E+06</totfact>
</mgrwt>
</event>
<event>
 4    1  0.2736402E+004  0.3830402E+02  0.7546771E-02  0.1521076E+00
         21   -1    0    0  503  502  0.00000000000E+00  0.00000000000E+00  0.95503946060E+02  0.95503946060E+02  0.00000000000E+00 0. -1.
         21   -1    0    0  501  503 -0.00000000000E+00 -0.00000000000E+00 -0.16771781427E+02  0.16771781427E+02  0.00000000000E+00 0.  1.
          2    1    1    2  501    0  0.17395843391E+02 -0.34125977827E+02  0.23094284925E+02  0.44727438180E+02  0.00000000000E+00 0.  1.
         -2    1    1    2    0  502 -0.17395843391E+02  0.34125977827E+02  0.55637879709E+02  0.67548289308E+02  0.00000000000E+00 0. -1.
<mgrwt>
<rscale>  2 0.38304017E+02</rscale>
<asrwt>0</asrwt>
<pdfrwt beam="1">  1       21 0.14692915E-01 0.38304017E+02</pdfrwt>
<pdfrwt beam="2">  1       21 0.25802741E-02 0.38304017E+02</pdfrwt>
<totfact> 0.27328730E+07</totfact>
</mgrwt>
</event>
<event>
 4    1  0.2736402E+004  0.3293442E+02  0.7546771E-02  0.1567748E+00
         21   -1    0    0  501  502  0.00000000000E+00  0.00000000000E+00  0.54410741357E+02  0.54410741357E+02  0.00000000000E+00 0.  1.
         21   -1    0    0  502  503 -0.00000000000E+00 -0.00000000000E+00 -0.10204890058E+03  0.10204890058E+03  0.00000000000E+00 0. -1.
          2    1    1    2  501    0  0.20551610782E+02 -0.25735332006E+02  0.46354982194E+02  0.56863524279E+02  0.00000000000E+00 0.  1.
         -2    1    1    2    0  503 -0.20551610782E+02  0.25735332006E+02 -0.93993141413E+02  0.99596117655E+02  0.00000000000E+00 0. -1.
<mgrwt>
<rscale>  2 0.32934420E+02</rscale>
<asrwt>0</asrwt>
<pdfrwt beam="1">  1       21 0.83708833E-02 0.32934420E+02</pdfrwt>
<pdfrwt beam="2">  1       21 0.15699831E-01 0.32934420E+02</pdfrwt>
<totfact> 0.35667200E+06</totfact>
</mgrwt>
</event>
<event>
 4    1  0.2736402E+004  0.2737434E+02  0.7546771E-02  0.1629068E+00
         21   -1    0    0  503  502  0.00000000000E+00  0.00000000000E+00  0.10751252030E+02  0.10751252030E+02  0.00000000000E+00 0.  1.
         21   -1    0    0  501  503 -0.00000000000E+00 -0.00000000000E+00 -0.96265156615E+02  0.96265156615E+02  0.00000000000E+00 0. -1.
          2    1    1    2  501    0  0.22584054452E+01  0.27281024674E+02 -0.70866105142E+02  0.75969464658E+02  0.00000000000E+00 0. -1.
         -2    1    1    2    0  502 -0.22584054452E+01 -0.27281024674E+02 -0.14647799443E+02  0.31046943987E+02  0.00000000000E+00 0.  1.
<mgrwt>
<rscale>  2 0.27374344E+02</rscale>
<asrwt>0</asrwt>
<pdfrwt beam="1">  1       21 0.16540387E-02 0.27374344E+02</pdfrwt>
<pdfrwt beam="2">  1       21 0.14810025E-01 0.27374344E+02</pdfrwt>
<totfact> 0.50318251E+07</totfact>
</mgrwt>
</event>
<event>
 4    1  0.2736402E+004  0.2440478E+02  0.7546771E-02  0.1669701E+00
         21   -1    0    0  501  502  0.00000000000E+00  0.00000000000E+00  0.44584959577E+00  0.44584959577E+00  0.00000000000E+00 0.  1.
         21   -1    0    0  502  503 -0.00000000000E+00 -0.00000000000E+00 -0.13800042995E+04  0.13800042995E+04  0.00000000000E+00 0. -1.
          2    1    1    2  501    0  0.10044248221E+02  0.22241990929E+02 -0.56633153912E+03  0.56685712952E+03  0.00000000000E+00 0.  1.
         -2    1    1    2    0  503 -0.10044248221E+02 -0.22241990929E+02 -0.81322691080E+03  0.81359301959E+03  0.00000000000E+00 0. -1.
<mgrwt>
<rscale>  2 0.24404776E+02</rscale>
<asrwt>0</asrwt>
<pdfrwt beam="1">  1       21 0.68591687E-04 0.24404776E+02</pdfrwt>
<pdfrwt beam="2">  1       21 0.21231008E+00 0.24404776E+02</pdfrwt>
<totfact> 0.22894400E+07</totfact>
</mgrwt>
</event>
<event>
 4    1  0.2736402E+004  0.2148224E+02  0.7546771E-02  0.1717363E+00
         21   -1    0    0  501  502  0.00000000000E+00  0.00000000000E+00  0.33281214795E+02  0.33281214795E+02  0.00000000000E+00 0.  1.
         21   -1    0    0  502  503 -0.00000000000E+00 -0.00000000000E+00 -0.14555465923E+02  0.14555465923E+02  0.00000000000E+00 0. -1.
          2    1    1    2  501    0 -0.14599186837E+02 -0.15759135394E+02  0.14567464741E+02  0.25955685961E+02  0.00000000000E+00 0.  1.
         -2    1    1    2    0  503  0.14599186837E+02  0.15759135394E+02  0.41582841303E+01  0.21880994758E+02  0.00000000000E+00 0. -1.
<mgrwt>
<rscale>  2 0.21482239E+02</rscale>
<asrwt>0</asrwt>
<pdfrwt beam="1">  1       21 0.51201869E-02 0.21482239E+02</pdfrwt>
<pdfrwt beam="2">  1       21 0.22393025E-02 0.21482239E+02</pdfrwt>
<totfact> 0.16993453E+08</totfact>
</mgrwt>
</event>
<event>
 4    1  0.2736402E+004  0.2452085E+02  0.7546771E-02  0.1667981E+00
         21   -1    0    0  503  502  0.00000000000E+00  0.00000000000E+00  0.82161333041E+01  0.82161333041E+01  0.00000000000E+00 0. -1.
         21   -1    0    0  501  503 -0.00000000000E+00 -0.00000000000E+00 -0.77159771798E+02  0.77159771798E+02  0.00000000000E+00 0.  1.
          2    1    1    2  501    0 -0.24280180556E+02  0.34270917493E+01 -0.24779313942E+02  0.34860959900E+02  0.00000000000E+00 0. -1.
         -2    1    1    2    0  502  0.24280180556E+02 -0.34270917493E+01 -0.44164324551E+02  0.50514945202E+02  0.00000000000E+00 0.  1.
<mgrwt>
<rscale>  2 0.24520851E+02</rscale>
<asrwt>0</asrwt>
<pdfrwt beam="1">  1       21 0.12640205E-02 0.24520851E+02</pdfrwt>
<pdfrwt beam="2">  1       21 0.11870734E-01 0.24520851E+02</pdfrwt>
<totfact> 0.10735252E+08</totfact>
</mgrwt>
</event>
<event>
 4    1  0.2736402E+004  0.3915035E+02  0.7546771E-02  0.1514559E+00
         21   -1    0    0  501  502  0.00000000000E+00  0.00000000000E+00  0.31094292948E+01  0.31094292948E+01  0.00000000000E+00 0.  1.
         21   -1    0    0  502  503 -0.00000000000E+00 -0.00000000000E+00 -0.16740302844E+04  0.16740302844E+04  0.00000000000E+00 0. -1.
          2    1    1    2  501    0  0.39148951722E+02 -0.33090157192E+00 -0.13109203486E+03  0.13681327245E+03  0.00000000000E+00 0.  1.
         -2    1    1    2    0  503 -0.39148951722E+02  0.33090157192E+00 -0.15398288203E+04  0.15403264413E+04  0.00000000000E+00 0. -1.
<mgrwt>
<rscale>  2 0.39150350E+02</rscale>
<asrwt>0</asrwt>
<pdfrwt beam="1">  1       21 0.47837241E-03 0.39150350E+02</pdfrwt>
<pdfrwt beam="2">  1       21 0.25754384E+00 0.39150350E+02</pdfrwt>
<totfact> 0.79885289E+05</totfact>
</mgrwt>
</event>
<event>
 4    1  0.2736402E+004  0.3506377E+02  0.7546771E-02  0.1548035E+00
         21   -1    0    0  503  502  0.00000000000E+00  0.00000000000E+00  0.76085923472E+02  0.76085923472E+02  0.00000000000E+00 0. -1.
         21   -1    0    0  501  503 -0.00000000000E+00 -0.00000000000E+00 -0.27504608337E+02  0.27504608337E+02  0.00000000000E+00 0.  1.
          2    1    1    2  501    0  0.27419333833E+02 -0.21855165723E+02 -0.89754746960E+01  0.36194299035E+02  0.00000000000E+00 0.  1.
         -2    1    1    2    0  502 -0.27419333833E+02  0.21855165723E+02  0.57556789831E+02  0.67396232775E+02  0.00000000000E+00 0. -1.
<mgrwt>
<rscale>  2 0.35063772E+02</rscale>
<asrwt>0</asrwt>
<pdfrwt beam="1">  1       21 0.11705527E-01 0.35063772E+02</pdfrwt>
<pdfrwt beam="2">  1       21 0.42314782E-02 0.35063772E+02</pdfrwt>
<totfact> 0.18116217E+07</totfact>
</mgrwt>
</event>
<event>
 4    1  0.2736402E+004  0.2246230E+02  0.7546771E-02  0.1700377E+00
         21   -1    0    0  501  502  0.00000000000E+00  0.00000000000E+00  0.56718529191E+02  0.56718529191E+02  0.00000000000E+00 0. -1.
         21   -1    0    0  502  503 -0.00000000000E+00 -0.00000000000E+00 -0.92991963253E+01  0.92991963253E+01  0.00000000000E+00 0.  1.
          2    1    1    2  501    0  0.22399123916E+02 -0.16835404007E+01  0.30584929273E+02  0.37947239151E+02  0.00000000000E+00 0. -1.
         -2    1    1    2    0  503 -0.22399123916E+02  0.16835404007E+01  0.16834403592E+02  0.28070486365E+02  0.00000000000E+00 0.  1.
<mgrwt>
<rscale>  2 0.22462303E+02</rscale>
<asrwt>0</asrwt>
<pdfrwt beam="1">  1       21 0.87259274E-02 0.22462303E+02</pdfrwt>
<pdfrwt beam="2">  1       21 0.14306456E-02 0.22462303E+02</pdfrwt>
<totfact> 0.14447241E+08</totfact>
</mgrwt>
</event>
<event>
 4    1  0.2736402E+004  0.2460662E+02  0.7546771E-02  0.1666717E+00
         21   -1    0    0  501  502  0.00000000000E+00  0.00000000000E+00  0.77329902910E+01  0.77329902910E+01  0.00000000000E+00 0. -1.
         21   -1    0    0  502  503 -0.00000000000E+00 -0.00000000000E+00 -0.21854070152E+03  0.21854070152E+03  0.00000000000E+00 0.  1.
          2    1    1    2  501    0  0.23761546359E+02  0.63933193281E+01 -0.14772923915E+02  0.28700607979E+02  0.00000000000E+00 0. -1.
         -2    1    1    2    0  503 -0.23761546359E+02 -0.63933193281E+01 -0.19603478732E+03  0.19757308384E+03  0.00000000000E+00 0.  1.
<mgrwt>
<rscale>  2 0.24606617E+02</rscale>
<asrwt>0</asrwt>
<pdfrwt beam="1">  1       21 0.11896909E-02 0.24606617E+02</pdfrwt>
<pdfrwt beam="2">  1       21 0.33621643E-01 0.24606617E+02</pdfrwt>
<totfact> 0.18963792E+07</totfact>
</mgrwt>
</event>
<event>
 4    1  0.2736402E+004  0.2528441E+02  0.7546771E-02  0.1656950E+00
         21   -1    0    0  501  502  0.00000000000E+00  0.00000000000E+00  0.74804819311E+02  0.74804819311E+02  0.00000000000E+00 0.  1.
         21   -1    0    0  502  503 -0.00000000000E+00 -0.00000000000E+00 -0.92622152187E+01  0.92622152187E+01  0.00000000000E+00 0. -1.
          2    1    1    2  501    0  0.10562497576E+02  0.22972480887E+02  0.44457737005E+02  0.51144810224E+02  0.00000000000E+00 0.  1.
         -2    1    1    2    0  503 -0.10562497576E+02 -0.22972480887E+02  0.21084867087E+02  0.32922224306E+02  0.00000000000E+00 0. -1.
<mgrwt>
<rscale>  2 0.25284407E+02</rscale>
<asrwt>0</asrwt>
<pdfrwt beam="1">  1       21 0.11508433E-01 0.25284407E+02</pdfrwt>
<pdfrwt beam="2">  1       21 0.14249562E-02 0.25284407E+02</pdfrwt>
<totfact> 0.95019794E+07</totfact>
</mgrwt>
</event>
<event>
 4    1  0.2736402E+004  0.4056702E+02  0.7546771E-02  0.1504080E+00
         21   -1    0    0  503  502  0.00000000000E+00  0.00000000000E+00  0.83227395831E+01  0.83227395831E+01  0.00000000000E+00 0. -1.
         21   -1    0    0  501  503 -0.00000000000E+00 -0.00000000000E+00 -0.21208468785E+03  0.21208468785E+03  0.00000000000E+00 0.  1.
          2    1    1    2  501    0  0.39884739914E+02  0.74088196581E+01 -0.13054834960E+03  0.13670608864E+03  0.00000000000E+00 0. -1.
         -2    1    1    2    0  502 -0.39884739914E+02 -0.74088196581E+01 -0.73213598665E+02  0.83701338796E+02  0.00000000000E+00 0.  1.
<mgrwt>
<rscale>  2 0.40567020E+02</rscale>
<asrwt>0</asrwt>
<pdfrwt beam="1">  1       21 0.12804216E-02 0.40567020E+02</pdfrwt>
<pdfrwt beam="2">  1       21 0.32628410E-01 0.40567020E+02</pdfrwt>
<totfact> 0.19541624E+07</totfact>
</mgrwt>
</event>
<event>
 4    1  0.2736402E+004  0.2773743E+02  0.7546771E-02  0.1624535E+00
         21   -1    0    0  501  502  0.00000000000E+00  0.00000000000E+00  0.91227723588E+01  0.91227723588E+01  0.00000000000E+00 0. -1.
         21   -1    0    0  502  503 -0.00000000000E+00 -0.00000000000E+00 -0.15508885776E+03  0.15508885776E+03  0.00000000000E+00 0.  1.
          2    1    1    2  501    0  0.59003989659E+01 -0.27102590278E+02 -0.17525580509E+02  0.32810228282E+02  0.00000000000E+00 0. -1.
         -2    1    1    2    0  503 -0.59003989659E+01  0.27102590278E+02 -0.12844050489E+03  0.13140140183E+03  0.00000000000E+00 0.  1.
<mgrwt>
<rscale>  2 0.27737432E+02</rscale>
<asrwt>0</asrwt>
<pdfrwt beam="1">  1       21 0.14035035E-02 0.27737432E+02</pdfrwt>
<pdfrwt beam="2">  1       21 0.23859823E-01 0.27737432E+02</pdfrwt>
<totfact> 0.28178436E+07</totfact>
</mgrwt>
</event>
<event>
 4    1  0.2736402E+004  0.2945572E+02  0.7546771E-02  0.1604184E+00
         21   -1    0    0  503  502  0.00000000000E+00  0.00000000000E+00  0.65442900854E+02  0.65442900854E+02  0.00000000000E+00 0. -1.
         21   -1    0    0  501  503 -0.00000000000E+00 -0.00000000000E+00 -0.18039279398E+02  0.18039279398E+02  0.00000000000E+00 0.  1.
          2    1    1    2  501    0 -0.26135567596E+01 -0.29339537970E+02  0.22122168735E+01  0.29538670768E+02  0.00000000000E+00 0.  1.
         -2    1    1    2    0  502  0.26135567596E+01  0.29339537970E+02  0.45191404582E+02  0.53943509483E+02  0.00000000000E+00 0. -1.
<mgrwt>
<rscale>  2 0.29455715E+02</rscale>
<asrwt>0</asrwt>
<pdfrwt beam="1">  1       21 0.10068138E-01 0.29455715E+02</pdfrwt>
<pdfrwt beam="2">  1       21 0.27752738E-02 0.29455715E+02</pdfrwt>
<totfact> 0.44069533E+07</totfact>
</mgrwt>
</event>
<event>
 4    1  0.2736402E+004  0.2307140E+02  0.7546771E-02  0.1690355E+00
         21   -1    0    0  503  502  0.00000000000E+00  0.00000000000E+00  0.55951734959E+03  0.55951734959E+03  0.00000000000E+00 0. -1.
         21   -1    0    0  501  503 -0.00000000000E+00 -0.00000000000E+00 -0.19714684868E+01  0.19714684868E+01  0.00000000000E+00 0.  1.
          2    1    1    2  501    0 -0.11093293554E+02  0.20229389489E+02  0.76822712859E+02  0.80212334289E+02  0.00000000000E+00 0.  1.
         -2    1    1    2    0  502  0.11093293554E+02 -0.20229389489E+02  0.48072316824E+03  0.48127648378E+03  0.00000000000E+00 0. -1.
<mgrwt>
<rscale>  2 0.23071397E+02</rscale>
<asrwt>0</asrwt>
<pdfrwt beam="1">  1       21 0.86079466E-01 0.23071397E+02</pdfrwt>
<pdfrwt beam="2">  1       21 0.30330329E-03 0.23071397E+02</pdfrwt>
<totfact> 0.22232038E+07</totfact>
</mgrwt>
</event>
<event>
 4    1  0.2736402E+004  0.2829634E+02  0.7546771E-02  0.1617722E+00
         21   -1    0    0  501  502  0.00000000000E+00  0.00000000000E+00  0.42491334134E+01  0.42491334134E+01  0.00000000000E+00 0. -1.
         21   -1    0    0  502  503 -0.00000000000E+00 -0.00000000000E+00 -0.28568878745E+03  0.28568878745E+03  0.00000000000E+00 0.  1.
          2    1    1    2  501    0 -0.14509487830E+02  0.24293155188E+02 -0.56136809465E+02  0.62865125491E+02  0.00000000000E+00 0. -1.
         -2    1    1    2    0  503  0.14509487830E+02 -0.24293155188E+02 -0.22530284457E+03  0.22707279537E+03  0.00000000000E+00 0.  1.
<mgrwt>
<rscale>  2 0.28296336E+02</rscale>
<asrwt>0</asrwt>
<pdfrwt beam="1">  1       21 0.65371278E-03 0.28296336E+02</pdfrwt>
<pdfrwt beam="2">  1       21 0.43952125E-01 0.28296336E+02</pdfrwt>
<totfact> 0.28934054E+07</totfact>
</mgrwt>
</event>
<event>
 4    1  0.2736402E+004  0.4347212E+02  0.7546771E-02  0.1484112E+00
         21   -1    0    0  501  502  0.00000000000E+00  0.00000000000E+00  0.49692429287E+01  0.49692429287E+01  0.00000000000E+00 0. -1.
         21   -1    0    0  502  503 -0.00000000000E+00 -0.00000000000E+00 -0.46024839658E+03  0.46024839658E+03  0.00000000000E+00 0.  1.
          2    1    1    2  501    0 -0.58216208661E+01 -0.43080556642E+02 -0.13069520697E+03  0.13773548111E+03  0.00000000000E+00 0. -1.
         -2    1    1    2    0  503  0.58216208661E+01  0.43080556642E+02 -0.32458394668E+03  0.32748215841E+03  0.00000000000E+00 0.  1.
<mgrwt>
<rscale>  2 0.43472125E+02</rscale>
<asrwt>0</asrwt>
<pdfrwt beam="1">  1       21 0.76449868E-03 0.43472125E+02</pdfrwt>
<pdfrwt beam="2">  1       21 0.70807467E-01 0.43472125E+02</pdfrwt>
<totfact> 0.93374948E+06</totfact>
</mgrwt>
</event>
<event>
 4    1  0.2736402E+004  0.2933723E+02  0.7546771E-02  0.1605532E+00
         21   -1    0    0  503  502  0.00000000000E+00  0.00000000000E+00  0.17264482315E+02  0.17264482315E+02  0.00000000000E+00 0.  1.
         21   -1    0    0  501  503 -0.00000000000E+00 -0.00000000000E+00 -0.52341785688E+02  0.52341785688E+02  0.00000000000E+00 0. -1.
          2    1    1    2  501    0 -0.19673293661E+02 -0.21763151108E+02 -0.25128857671E+02  0.38628133756E+02  0.00000000000E+00 0. -1.
         -2    1    1    2    0  502  0.19673293661E+02  0.21763151108E+02 -0.99484457024E+01  0.30978134248E+02  0.00000000000E+00 0.  1.
<mgrwt>
<rscale>  2 0.29337233E+02</rscale>
<asrwt>0</asrwt>
<pdfrwt beam="1">  1       21 0.26560742E-02 0.29337233E+02</pdfrwt>
<pdfrwt beam="2">  1       21 0.80525823E-02 0.29337233E+02</pdfrwt>
<totfact> 0.68322311E+07</totfact>
</mgrwt>
</event>
<event>
 4    1  0.2736402E+004  0.2009208E+02  0.7546771E-02  0.1743503E+00
         21   -1    0    0  501  502  0.00000000000E+00  0.00000000000E+00  0.38566781482E+01  0.38566781482E+01  0.00000000000E+00 0.  1.
         21   -1    0    0  502  503 -0.00000000000E+00 -0.00000000000E+00 -0.14378211909E+03  0.14378211909E+03  0.00000000000E+00 0. -1.
          2    1    1    2  501    0  0.18786696412E+02  0.71240180327E+01 -0.31463238419E+02  0.37331313489E+02  0.00000000000E+00 0.  1.
         -2    1    1    2    0  503 -0.18786696412E+02 -0.71240180327E+01 -0.10846220252E+03  0.11030748375E+03  0.00000000000E+00 0. -1.
<mgrwt>
<rscale>  2 0.20092078E+02</rscale>
<asrwt>0</asrwt>
<pdfrwt beam="1">  1       21 0.59333506E-03 0.20092078E+02</pdfrwt>
<pdfrwt beam="2">  1       21 0.22120328E-01 0.20092078E+02</pdfrwt>
<totfact> 0.10820521E+08</totfact>
</mgrwt>
</event>
<event>
 4    1  0.2736402E+004  0.2969818E+02  0.7546771E-02  0.1601449E+00
         21   -1    0    0  503  502  0.00000000000E+00  0.00000000000E+00  0.28892425155E+01  0.28892425155E+01  0.00000000000E+00 0. -1.
         21   -1    0    0  501  503 -0.00000000000E+00 -0.00000000000E+00 -0.60524793783E+03  0.60524793783E+03  0.00000000000E+00 0.  1.
          2    1    1    2  501    0 -0.27495402044E+02  0.11224287875E+02 -0.51524840221E+03  0.51610357269E+03  0.00000000000E+00 0.  1.
         -2    1    1    2    0  502  0.27495402044E+02 -0.11224287875E+02 -0.87110293112E+02  0.92033607654E+02  0.00000000000E+00 0. -1.
<mgrwt>
<rscale>  2 0.29698178E+02</rscale>
<asrwt>0</asrwt>
<pdfrwt beam="1">  1       21 0.44449899E-03 0.29698178E+02</pdfrwt>
<pdfrwt beam="2">  1       21 0.93115038E-01 0.29698178E+02</pdfrwt>
<totfact> 0.11168359E+07</totfact>
</mgrwt>
</event>
<event>
 4    1  0.2736402E+004  0.2031370E+02  0.7546771E-02  0.1739161E+00
         21   -1    0    0  503  502  0.00000000000E+00  0.00000000000E+00  0.26840827455E+03  0.26840827455E+03  0.00000000000E+00 0. -1.
         21   -1    0    0  501  503 -0.00000000000E+00 -0.00000000000E+00 -0.11991361410E+02  0.11991361410E+02  0.00000000000E+00 0.  1.
          2    1    1    2  501    0  0.26931572510E+01  0.20134382998E+02 -0.26958670031E+01  0.20491807475E+02  0.00000000000E+00 0.  1.
         -2    1    1    2    0  502 -0.26931572510E+01 -0.20134382998E+02  0.25911278014E+03  0.25990782848E+03  0.00000000000E+00 0. -1.
<mgrwt>
<rscale>  2 0.20313702E+02</rscale>
<asrwt>0</asrwt>
<pdfrwt beam="1">  1       21 0.41293576E-01 0.20313702E+02</pdfrwt>
<pdfrwt beam="2">  1       21 0.18448250E-02 0.20313702E+02</pdfrwt>
<totfact> 0.64045572E+06</totfact>
</mgrwt>
</event>
<event>
 4    1  0.2736402E+004  0.2665281E+02  0.7546771E-02  0.1638337E+00
         21   -1    0    0  503  502  0.00000000000E+00  0.00000000000E+00  0.30237117888E+03  0.30237117888E+03  0.00000000000E+00 0. -1.
         21   -1    0    0  501  503 -0.00000000000E+00 -0.00000000000E+00 -0.39072262710E+01  0.39072262710E+01  0.00000000000E+00 0.  1.
          2    1    1    2  501    0 -0.42312417835E+01  0.26314806583E+02  0.52533397385E+02  0.58907811819E+02  0.00000000000E+00 0.  1.
         -2    1    1    2    0  502  0.42312417835E+01 -0.26314806583E+02  0.24593055523E+03  0.24737059334E+03  0.00000000000E+00 0. -1.
<mgrwt>
<rscale>  2 0.26652813E+02</rscale>
<asrwt>0</asrwt>
<pdfrwt beam="1">  1       21 0.46518625E-01 0.26652813E+02</pdfrwt>
<pdfrwt beam="2">  1       21 0.60111197E-03 0.26652813E+02</pdfrwt>
<totfact> 0.29043889E+07</totfact>
</mgrwt>
</event>
<event>
 4    1  0.2736402E+004  0.3358073E+02  0.7546771E-02  0.1561578E+00
         21   -1    0    0  501  502  0.00000000000E+00  0.00000000000E+00  0.28236663520E+03  0.28236663520E+03  0.00000000000E+00 0.  1.
         21   -1    0    0  502  503 -0.00000000000E+00 -0.00000000000E+00 -0.76977303054E+01  0.76977303054E+01  0.00000000000E+00 0. -1.
          2    1    1    2  501    0 -0.33529891747E+02 -0.18470767147E+01  0.23794069579E+03  0.24029864762E+03  0.00000000000E+00 0.  1.
         -2    1    1    2    0  503  0.33529891747E+02  0.18470767147E+01  0.36728209101E+02  0.49765717886E+02  0.00000000000E+00 0. -1.
<mgrwt>
<rscale>  2 0.33580729E+02</rscale>
<asrwt>0</asrwt>
<pdfrwt beam="1">  1       21 0.43441013E-01 0.33580729E+02</pdfrwt>
<pdfrwt beam="2">  1       21 0.11842664E-02 0.33580729E+02</pdfrwt>
<totfact> 0.12411518E+07</totfact>
</mgrwt>
</event>
<event>
 4    1  0.2736402E+004  0.2806268E+02  0.7546771E-02  0.1620546E+00
         21   -1    0    0  501  502  0.00000000000E+00  0.00000000000E+00  0.60860946100E+02  0.60860946100E+02  0.00000000000E+00 0.  1.
         21   -1    0    0  502  503 -0.00000000000E+00 -0.00000000000E+00 -0.17737312562E+02  0.17737312562E+02  0.00000000000E+00 0. -1.
          2    1    1    2  501    0 -0.23495272728E+02  0.15345554741E+02  0.42000735744E+02  0.50513123977E+02  0.00000000000E+00 0.  1.
         -2    1    1    2    0  503  0.23495272728E+02 -0.15345554741E+02  0.11228977938E+01  0.28085134686E+02  0.00000000000E+00 0. -1.
<mgrwt>
<rscale>  2 0.28062678E+02</rscale>
<asrwt>0</asrwt>
<pdfrwt beam="1">  1       21 0.93632224E-02 0.28062678E+02</pdfrwt>
<pdfrwt beam="2">  1       21 0.27288173E-02 0.28062678E+02</pdfrwt>
<totfact> 0.50498745E+07</totfact>
</mgrwt>
</event>
<event>
 4    1  0.2736402E+004  0.3182030E+02  0.7546771E-02  0.1578797E+00
         21   -1    0    0  501  502  0.00000000000E+00  0.00000000000E+00  0.69251351422E+01  0.69251351422E+01  0.00000000000E+00 0. -1.
         21   -1    0    0  502  503 -0.00000000000E+00 -0.00000000000E+00 -0.15036169158E+03  0.15036169158E+03  0.00000000000E+00 0.  1.
          2    1    1    2  501    0 -0.14651869311E+02  0.28246311608E+02 -0.58652041732E+02  0.66727755792E+02  0.00000000000E+00 0.  1.
         -2    1    1    2    0  503  0.14651869311E+02 -0.28246311608E+02 -0.84784514704E+02  0.90559070928E+02  0.00000000000E+00 0. -1.
<mgrwt>
<rscale>  2 0.31820298E+02</rscale>
<asrwt>0</asrwt>
<pdfrwt beam="1">  1       21 0.10654055E-02 0.31820298E+02</pdfrwt>
<pdfrwt beam="2">  1       21 0.23132565E-01 0.31820298E+02</pdfrwt>
<totfact> 0.46619478E+07</totfact>
</mgrwt>
</event>
<event>
 4    1  0.2736402E+004  0.3494294E+02  0.7546771E-02  0.1549108E+00
         21   -1    0    0  501  502  0.00000000000E+00  0.00000000000E+00  0.17817808567E+04  0.17817808567E+04  0.00000000000E+00 0.  1.
         21   -1    0    0  502  503 -0.00000000000E+00 -0.00000000000E+00 -0.30864080462E+01  0.30864080462E+01  0.00000000000E+00 0. -1.
          2    1    1    2  501    0  0.13482243792E+02  0.32237215014E+02  0.16764970762E+04  0.16768611914E+04  0.00000000000E+00 0.  1.
         -2    1    1    2    0  503 -0.13482243792E+02 -0.32237215014E+02  0.10219737246E+03  0.10800607329E+03  0.00000000000E+00 0. -1.
<mgrwt>
<rscale>  2 0.34942938E+02</rscale>
<asrwt>0</asrwt>
<pdfrwt beam="1">  1       21 0.27411931E+00 0.34942938E+02</pdfrwt>
<pdfrwt beam="2">  1       21 0.47483343E-03 0.34942938E+02</pdfrwt>
<totfact> 0.66757476E+05</totfact>
</mgrwt>
</event>
<event>
 4    1  0.2736402E+004  0.2128932E+02  0.7546771E-02  0.1720841E+00
         21   -1    0    0  501  502  0.00000000000E+00  0.00000000000E+00  0.80047186754E+02  0.80047186754E+02  0.00000000000E+00 0. -1.
         21   -1    0    0  502  503 -0.00000000000E+00 -0.00000000000E+00 -0.11182465168E+02  0.11182465168E+02  0.00000000000E+00 0.  1.
          2    1    1    2  501    0 -0.15943186824E+02 -0.14108504318E+02  0.66481855436E+02  0.69807393608E+02  0.00000000000E+00 0. -1.
         -2    1    1    2    0  503  0.15943186824E+02  0.14108504318E+02  0.23828661504E+01  0.21422258315E+02  0.00000000000E+00 0.  1.
<mgrwt>
<rscale>  2 0.21289319E+02</rscale>
<asrwt>0</asrwt>
<pdfrwt beam="1">  1       21 0.12314951E-01 0.21289319E+02</pdfrwt>
<pdfrwt beam="2">  1       21 0.17203793E-02 0.21289319E+02</pdfrwt>
<totfact> 0.60794923E+07</totfact>
</mgrwt>
</event>
<event>
 4    1  0.2736402E+004  0.2620846E+02  0.7546771E-02  0.1644227E+00
         21   -1    0    0  501  502  0.00000000000E+00  0.00000000000E+00  0.83182623387E+03  0.83182623387E+03  0.00000000000E+00 0.  1.
         21   -1    0    0  502  503 -0.00000000000E+00 -0.00000000000E+00 -0.94246917013E+00  0.94246917013E+00  0.00000000000E+00 0. -1.
          2    1    1    2  501    0 -0.17292264070E+02  0.19694192392E+02  0.56197135609E+03  0.56258216171E+03  0.00000000000E+00 0.  1.
         -2    1    1    2    0  503  0.17292264070E+02 -0.19694192392E+02  0.26891240861E+03  0.27018654133E+03  0.00000000000E+00 0. -1.
<mgrwt>
<rscale>  2 0.26208464E+02</rscale>
<asrwt>0</asrwt>
<pdfrwt beam="1">  1       21 0.12797268E+00 0.26208464E+02</pdfrwt>
<pdfrwt beam="2">  1       21 0.14499592E-03 0.26208464E+02</pdfrwt>
<totfact> 0.27544083E+07</totfact>
</mgrwt>
</event>
<event>
 4    1  0.2736402E+004  0.3194837E+02  0.7546771E-02  0.1577499E+00
         21   -1    0    0  501  502  0.00000000000E+00  0.00000000000E+00  0.70914439983E+02  0.70914439983E+02  0.00000000000E+00 0. -1.
         21   -1    0    0  502  503 -0.00000000000E+00 -0.00000000000E+00 -0.18663863334E+02  0.18663863334E+02  0.00000000000E+00 0.  1.
          2    1    1    2  501    0  0.17707269451E+01 -0.31899257040E+02  0.47549797063E+02  0.57285960535E+02  0.00000000000E+00 0. -1.
         -2    1    1    2    0  503 -0.17707269451E+01  0.31899257040E+02  0.47007795857E+01  0.32292342782E+02  0.00000000000E+00 0.  1.
<mgrwt>
<rscale>  2 0.31948366E+02</rscale>
<asrwt>0</asrwt>
<pdfrwt beam="1">  1       21 0.10909914E-01 0.31948366E+02</pdfrwt>
<pdfrwt beam="2">  1       21 0.28713636E-02 0.31948366E+02</pdfrwt>
<totfact> 0.37127403E+07</totfact>
</mgrwt>
</event>
<event>
 4    1  0.2736402E+004  0.2632575E+02  0.7546771E-02  0.1642659E+00
         21   -1    0    0  501  502  0.00000000000E+00  0.00000000000E+00  0.73337437888E+01  0.73337437888E+01  0.00000000000E+00 0.  1.
         21   -1    0    0  502  503 -0.00000000000E+00 -0.00000000000E+00 -0.95557379458E+02  0.95557379458E+02  0.00000000000E+00 0. -1.
          2    1    1    2  501    0 -0.21842045992E-01  0.26325742008E+02 -0.49521259790E+02  0.56083868809E+02  0.00000000000E+00 0. -1.
         -2    1    1    2    0  503  0.21842045992E-01 -0.26325742008E+02 -0.38702375879E+02  0.46807254438E+02  0.00000000000E+00 0.  1.
<mgrwt>
<rscale>  2 0.26325751E+02</rscale>
<asrwt>0</asrwt>
<pdfrwt beam="1">  1       21 0.11282683E-02 0.26325751E+02</pdfrwt>
<pdfrwt beam="2">  1       21 0.14701134E-01 0.26325751E+02</pdfrwt>
<totfact> 0.90426611E+07</totfact>
</mgrwt>
</event>
<event>
 4    1  0.2736402E+004  0.2132187E+02  0.7546771E-02  0.1720251E+00
         21   -1    0    0  503  502  0.00000000000E+00  0.00000000000E+00  0.69020624099E+02  0.69020624099E+02  0.00000000000E+00 0.  1.
         21   -1    0    0  501  503 -0.00000000000E+00 -0.00000000000E+00 -0.69609249315E+01  0.69609249315E+01  0.00000000000E+00 0. -1.
          2    1    1    2  501    0 -0.18521025932E+02 -0.10563802145E+02  0.22221877094E+02  0.30796657918E+02  0.00000000000E+00 0. -1.
         -2    1    1    2    0  502  0.18521025932E+02  0.10563802145E+02  0.39837822073E+02  0.45184891113E+02  0.00000000000E+00 0.  1.
<mgrwt>
<rscale>  2 0.21321874E+02</rscale>
<asrwt>0</asrwt>
<pdfrwt beam="1">  1       21 0.10618557E-01 0.21321874E+02</pdfrwt>
<pdfrwt beam="2">  1       21 0.10709116E-02 0.21321874E+02</pdfrwt>
<totfact> 0.15931435E+08</totfact>
</mgrwt>
</event>
<event>
 4    1  0.2736402E+004  0.2079313E+02  0.7546771E-02  0.1730001E+00
         21   -1    0    0  503  502  0.00000000000E+00  0.00000000000E+00  0.21411120308E+03  0.21411120308E+03  0.00000000000E+00 0. -1.
         21   -1    0    0  501  503 -0.00000000000E+00 -0.00000000000E+00 -0.52032914106E+01  0.52032914106E+01  0.00000000000E+00 0.  1.
          2    1    1    2  501    0 -0.19424529830E+02 -0.74190313132E+01  0.18674294814E+02  0.27947874187E+02  0.00000000000E+00 0.  1.
         -2    1    1    2    0  502  0.19424529830E+02  0.74190313132E+01  0.19023361686E+03  0.19136662031E+03  0.00000000000E+00 0. -1.
<mgrwt>
<rscale>  2 0.20793133E+02</rscale>
<asrwt>0</asrwt>
<pdfrwt beam="1">  1       21 0.32940178E-01 0.20793133E+02</pdfrwt>
<pdfrwt beam="2">  1       21 0.80050654E-03 0.20793133E+02</pdfrwt>
<totfact> 0.34373231E+07</totfact>
</mgrwt>
</event>
<event>
 4    1  0.2736402E+004  0.2341251E+02  0.7546771E-02  0.1684909E+00
         21   -1    0    0  501  502  0.00000000000E+00  0.00000000000E+00  0.56030007926E+00  0.56030007926E+00  0.00000000000E+00 0.  1.
         21   -1    0    0  502  503 -0.00000000000E+00 -0.00000000000E+00 -0.10553784617E+04  0.10553784617E+04  0.00000000000E+00 0. -1.
          2    1    1    2  501    0  0.22414003207E+02  0.67644790163E+01 -0.38473329197E+03  0.38544500472E+03  0.00000000000E+00 0.  1.
         -2    1    1    2    0  503 -0.22414003207E+02 -0.67644790163E+01 -0.67008486968E+03  0.67049375708E+03  0.00000000000E+00 0. -1.
<mgrwt>
<rscale>  2 0.23412512E+02</rscale>
<asrwt>0</asrwt>
<pdfrwt beam="1">  1       21 0.86199940E-04 0.23412512E+02</pdfrwt>
<pdfrwt beam="2">  1       21 0.16236605E+00 0.23412512E+02</pdfrwt>
<totfact> 0.32380725E+07</totfact>
</mgrwt>
</event>
<event>
 4    1  0.2736402E+004  0.2363991E+02  0.7546771E-02  0.1681343E+00
         21   -1    0    0  503  502  0.00000000000E+00  0.00000000000E+00  0.65734501781E+02  0.65734501781E+02  0.00000000000E+00 0.  1.
         21   -1    0    0  501  503 -0.00000000000E+00 -0.00000000000E+00 -0.16307467934E+02  0.16307467934E+02  0.00000000000E+00 0. -1.
          2    1    1    2  501    0  0.16062773567E+02  0.17344524083E+02 -0.36672928589E+01  0.23922672243E+02  0.00000000000E+00 0.  1.
         -2    1    1    2    0  502 -0.16062773567E+02 -0.17344524083E+02  0.53094326705E+02  0.58119297472E+02  0.00000000000E+00 0. -1.
<mgrwt>
<rscale>  2 0.23639907E+02</rscale>
<asrwt>0</asrwt>
<pdfrwt beam="1">  1       21 0.10113000E-01 0.23639907E+02</pdfrwt>
<pdfrwt beam="2">  1       21 0.25088413E-02 0.23639907E+02</pdfrwt>
<totfact> 0.48607122E+07</totfact>
</mgrwt>
</event>
<event>
 4    1  0.2736402E+004  0.2038676E+02  0.7546771E-02  0.1737745E+00
         21   -1    0    0  503  502  0.00000000000E+00  0.00000000000E+00  0.74074234067E+00  0.74074234067E+00  0.00000000000E+00 0. -1.
         21   -1    0    0  501  503 -0.00000000000E+00 -0.00000000000E+00 -0.70953809510E+03  0.70953809510E+03  0.00000000000E+00 0.  1.
          2    1    1    2  501    0  0.20173055191E+02 -0.29440848031E+01 -0.51684313788E+03  0.51724505698E+03  0.00000000000E+00 0. -1.
         -2    1    1    2    0  502 -0.20173055191E+02  0.29440848031E+01 -0.19195421488E+03  0.19303378046E+03  0.00000000000E+00 0.  1.
<mgrwt>
<rscale>  2 0.20386755E+02</rscale>
<asrwt>0</asrwt>
<pdfrwt beam="1">  1       21 0.11396043E-03 0.20386755E+02</pdfrwt>
<pdfrwt beam="2">  1       21 0.10915964E+00 0.20386755E+02</pdfrwt>
<totfact> 0.52911076E+07</totfact>
</mgrwt>
</event>
<event>
 4    1  0.2736402E+004  0.5551390E+02  0.7546771E-02  0.1417684E+00
         21   -1    0    0  501  502  0.00000000000E+00  0.00000000000E+00  0.30299808183E+04  0.30299808183E+04  0.00000000000E+00 0.  1.
         21   -1    0    0  502  503 -0.00000000000E+00 -0.00000000000E+00 -0.13134810941E+01  0.13134810941E+01  0.00000000000E+00 0. -1.
          2    1    1    2  501    0  0.47884315414E+02  0.28087096636E+02  0.22342990979E+04  0.22349886468E+04  0.00000000000E+00 0.  1.
         -2    1    1    2    0  503 -0.47884315414E+02 -0.28087096636E+02  0.79436823938E+03  0.79630565262E+03  0.00000000000E+00 0. -1.
<mgrwt>
<rscale>  2 0.55513896E+02</rscale>
<asrwt>0</asrwt>
<pdfrwt beam="1">  1       21 0.46614530E+00 0.55513896E+02</pdfrwt>
<pdfrwt beam="2">  1       21 0.20207644E-03 0.55513896E+02</pdfrwt>
<totfact> 0.18871950E+05</totfact>
</mgrwt>
</event>
<event>
 4    1  0.2736402E+004  0.2441818E+02  0.7546771E-02  0.1669502E+00
         21   -1    0    0  501  502  0.00000000000E+00  0.00000000000E+00  0.47034946948E+02  0.47034946948E+02  0.00000000000E+00 0. -1.
         21   -1    0    0  502  503 -0.00000000000E+00 -0.00000000000E+00 -0.12773869850E+02  0.12773869850E+02  0.00000000000E+00 0.  1.
          2    1    1    2  501    0 -0.21546430606E+02 -0.11489079325E+02  0.19738816191E+02  0.31398542645E+02  0.00000000000E+00 0.  1.
         -2    1    1    2    0  503  0.21546430606E+02  0.11489079325E+02  0.14522260906E+02  0.28410274153E+02  0.00000000000E+00 0. -1.
<mgrwt>
<rscale>  2 0.24418182E+02</rscale>
<asrwt>0</asrwt>
<pdfrwt beam="1">  1       21 0.72361456E-02 0.24418182E+02</pdfrwt>
<pdfrwt beam="2">  1       21 0.19652108E-02 0.24418182E+02</pdfrwt>
<totfact> 0.12381487E+08</totfact>
</mgrwt>
</event>
<event>
 4    1  0.2736402E+004  0.2524292E+02  0.7546771E-02  0.1657537E+00
         21   -1    0    0  501  502  0.00000000000E+00  0.00000000000E+00  0.33490226504E+03  0.33490226504E+03  0.00000000000E+00 0.  1.
         21   -1    0    0  502  503 -0.00000000000E+00 -0.00000000000E+00 -0.22513607491E+01  0.22513607491E+01  0.00000000000E+00 0. -1.
          2    1    1    2  501    0  0.19307553110E+02 -0.16261097945E+02  0.23266952996E+03  0.23403485869E+03  0.00000000000E+00 0.  1.
         -2    1    1    2    0  503 -0.19307553110E+02  0.16261097945E+02  0.99981374331E+02  0.10311876709E+03  0.00000000000E+00 0. -1.
<mgrwt>
<rscale>  2 0.25242918E+02</rscale>
<asrwt>0</asrwt>
<pdfrwt beam="1">  1       21 0.51523386E-01 0.25242918E+02</pdfrwt>
<pdfrwt beam="2">  1       21 0.34636346E-03 0.25242918E+02</pdfrwt>
<totfact> 0.53140897E+07</totfact>
</mgrwt>
</event>
<event>
 4    1  0.2736402E+004  0.2042862E+02  0.7546771E-02  0.1736936E+00
         21   -1    0    0  501  502  0.00000000000E+00  0.00000000000E+00  0.25636893395E+02  0.25636893395E+02  0.00000000000E+00 0. -1.
         21   -1    0    0  502  503 -0.00000000000E+00 -0.00000000000E+00 -0.19183834151E+02  0.19183834151E+02  0.00000000000E+00 0.  1.
          2    1    1    2  501    0  0.29198990533E+01 -0.20218867866E+02  0.11947891765E+02  0.23666020914E+02  0.00000000000E+00 0. -1.
         -2    1    1    2    0  503 -0.29198990533E+01  0.20218867866E+02 -0.54948325203E+01  0.21154706632E+02  0.00000000000E+00 0.  1.
<mgrwt>
<rscale>  2 0.20428618E+02</rscale>
<asrwt>0</asrwt>
<pdfrwt beam="1">  1       21 0.39441374E-02 0.20428618E+02</pdfrwt>
<pdfrwt beam="2">  1       21 0.29513591E-02 0.20428618E+02</pdfrwt>
<totfact> 0.16493504E+08</totfact>
</mgrwt>
</event>
<event>
 4    1  0.2736402E+004  0.2107602E+02  0.7546771E-02  0.1724740E+00
         21   -1    0    0  503  502  0.00000000000E+00  0.00000000000E+00  0.15739977880E+03  0.15739977880E+03  0.00000000000E+00 0.  1.
         21   -1    0    0  501  503 -0.00000000000E+00 -0.00000000000E+00 -0.85900550213E+01  0.85900550213E+01  0.00000000000E+00 0. -1.
          2    1    1    2  501    0  0.11967830710E+02  0.17348475250E+02  0.63961892086E+01  0.22025208325E+02  0.00000000000E+00 0. -1.
         -2    1    1    2    0  502 -0.11967830710E+02 -0.17348475250E+02  0.14241353457E+03  0.14396462549E+03  0.00000000000E+00 0.  1.
<mgrwt>
<rscale>  2 0.21076019E+02</rscale>
<asrwt>0</asrwt>
<pdfrwt beam="1">  1       21 0.24215349E-01 0.21076019E+02</pdfrwt>
<pdfrwt beam="2">  1       21 0.13215470E-02 0.21076019E+02</pdfrwt>
<totfact> 0.28308732E+07</totfact>
</mgrwt>
</event>
<event>
 4    1  0.2736402E+004  0.2051133E+02  0.7546771E-02  0.1735347E+00
         21   -1    0    0  501  502  0.00000000000E+00  0.00000000000E+00  0.91494465245E+02  0.91494465245E+02  0.00000000000E+00 0. -1.
         21   -1    0    0  502  503 -0.00000000000E+00 -0.00000000000E+00 -0.10178053064E+02  0.10178053064E+02  0.00000000000E+00 0.  1.
          2    1    1    2  501    0 -0.19071339701E+02 -0.75497512488E+01  0.78298285436E+02  0.80940325204E+02  0.00000000000E+00 0. -1.
         -2    1    1    2    0  503  0.19071339701E+02  0.75497512488E+01  0.30181267453E+01  0.20732193106E+02  0.00000000000E+00 0.  1.
<mgrwt>
<rscale>  2 0.20511332E+02</rscale>
<asrwt>0</asrwt>
<pdfrwt beam="1">  1       21 0.14076071E-01 0.20511332E+02</pdfrwt>
<pdfrwt beam="2">  1       21 0.15658544E-02 0.20511332E+02</pdfrwt>
<totfact> 0.55483747E+07</totfact>
</mgrwt>
</event>
<event>
 4    1  0.2736402E+004  0.2565085E+02  0.7546771E-02  0.1651826E+00
         21   -1    0    0  503  502  0.00000000000E+00  0.00000000000E+00  0.69161523800E+03  0.69161523800E+03  0.00000000000E+00 0.  1.
         21   -1    0    0  501  503 -0.00000000000E+00 -0.00000000000E+00 -0.24794195529E+01  0.24794195529E+01  0.00000000000E+00 0. -1.
          2    1    1    2  501    0 -0.60588273825E+01  0.24925020305E+02  0.72118610737E+02  0.76544497131E+02  0.00000000000E+00 0. -1.
         -2    1    1    2    0  502  0.60588273825E+01 -0.24925020305E+02  0.61701720771E+03  0.61755016042E+03  0.00000000000E+00 0.  1.
<mgrwt>
<rscale>  2 0.25650848E+02</rscale>
<asrwt>0</asrwt>
<pdfrwt beam="1">  1       21 0.10640219E+00 0.25650848E+02</pdfrwt>
<pdfrwt beam="2">  1       21 0.38144971E-03 0.25650848E+02</pdfrwt>
<totfact> 0.10209211E+07</totfact>
</mgrwt>
</event>
<event>
 4    1  0.2736402E+004  0.3047881E+02  0.7546771E-02  0.1592856E+00
         21   -1    0    0  501  502  0.00000000000E+00  0.00000000000E+00  0.26431897506E+02  0.26431897506E+02  0.00000000000E+00 0.  1.
         21   -1    0    0  502  503 -0.00000000000E+00 -0.00000000000E+00 -0.18221317239E+03  0.18221317239E+03  0.00000000000E+00 0. -1.
          2    1    1    2  501    0  0.43889184275E+01  0.30161156390E+02  0.15832559932E+02  0.34345711722E+02  0.00000000000E+00 0.  1.
         -2    1    1    2    0  503 -0.43889184275E+01 -0.30161156390E+02 -0.17161383482E+03  0.17429935818E+03  0.00000000000E+00 0. -1.
<mgrwt>
<rscale>  2 0.30478812E+02</rscale>
<asrwt>0</asrwt>
<pdfrwt beam="1">  1       21 0.40664456E-02 0.30478812E+02</pdfrwt>
<pdfrwt beam="2">  1       21 0.28032797E-01 0.30478812E+02</pdfrwt>
<totfact> 0.40764891E+06</totfact>
</mgrwt>
</event>
<event>
 4    1  0.2736402E+004  0.2229853E+02  0.7546771E-02  0.1703140E+00
         21   -1    0    0  503  502  0.00000000000E+00  0.00000000000E+00  0.41385011922E+01  0.41385011922E+01  0.00000000000E+00 0.  1.
         21   -1    0    0  501  503 -0.00000000000E+00 -0.00000000000E+00 -0.12847457632E+03  0.12847457632E+03  0.00000000000E+00 0. -1.
          2    1    1    2  501    0  0.21038734872E+02 -0.73889113513E+01 -0.79050394262E+02  0.82135188616E+02  0.00000000000E+00 0. -1.
         -2    1    1    2    0  502 -0.21038734872E+02  0.73889113513E+01 -0.45285680869E+02  0.50477888900E+02  0.00000000000E+00 0.  1.
<mgrwt>
<rscale>  2 0.22298529E+02</rscale>
<asrwt>0</asrwt>
<pdfrwt beam="1">  1       21 0.63669250E-03 0.22298529E+02</pdfrwt>
<pdfrwt beam="2">  1       21 0.19765319E-01 0.22298529E+02</pdfrwt>
<totfact> 0.12227597E+08</totfact>
</mgrwt>
</event>
<event>
 4    1  0.2736402E+004  0.3543835E+02  0.7546771E-02  0.1544742E+00
         21   -1    0    0  503  502  0.00000000000E+00  0.00000000000E+00  0.26068177101E+03  0.26068177101E+03  0.00000000000E+00 0.  1.
         21   -1    0    0  501  503 -0.00000000000E+00 -0.00000000000E+00 -0.54353632266E+01  0.54353632266E+01  0.00000000000E+00 0. -1.
          2    1    1    2  501    0  0.17214783888E+02 -0.30976242731E+02  0.82767451616E+02  0.90035145610E+02  0.00000000000E+00 0. -1.
         -2    1    1    2    0  502 -0.17214783888E+02  0.30976242731E+02  0.17247895617E+03  0.17608198863E+03  0.00000000000E+00 0.  1.
<mgrwt>
<rscale>  2 0.35438346E+02</rscale>
<asrwt>0</asrwt>
<pdfrwt beam="1">  1       21 0.40104878E-01 0.35438346E+02</pdfrwt>
<pdfrwt beam="2">  1       21 0.83620993E-03 0.35438346E+02</pdfrwt>
<totfact> 0.24803229E+07</totfact>
</mgrwt>
</event>
<event>
 4    1  0.2736402E+004  0.3037612E+02  0.7546771E-02  0.1593968E+00
         21   -1    0    0  503  502  0.00000000000E+00  0.00000000000E+00  0.11259398471E+03  0.11259398471E+03  0.00000000000E+00 0. -1.
         21   -1    0    0  501  503 -0.00000000000E+00 -0.00000000000E+00 -0.11804820571E+02  0.11804820571E+02  0.00000000000E+00 0.  1.
          2    1    1    2  501    0 -0.21839544659E+02  0.21112631294E+02  0.15999315332E+02  0.34332011333E+02  0.00000000000E+00 0.  1.
         -2    1    1    2    0  502  0.21839544659E+02 -0.21112631294E+02  0.84789848803E+02  0.90066793942E+02  0.00000000000E+00 0. -1.
<mgrwt>
<rscale>  2 0.30376124E+02</rscale>
<asrwt>0</asrwt>
<pdfrwt beam="1">  1       21 0.17322151E-01 0.30376124E+02</pdfrwt>
<pdfrwt beam="2">  1       21 0.18161263E-02 0.30376124E+02</pdfrwt>
<totfact> 0.34001657E+07</totfact>
</mgrwt>
</event>
<event>
 4    1  0.2736402E+004  0.2464143E+02  0.7546771E-02  0.1666206E+00
         21   -1    0    0  501  502  0.00000000000E+00  0.00000000000E+00  0.35572547968E+02  0.35572547968E+02  0.00000000000E+00 0. -1.
         21   -1    0    0  502  503 -0.00000000000E+00 -0.00000000000E+00 -0.23074445482E+02  0.23074445482E+02  0.00000000000E+00 0.  1.
          2    1    1    2  501    0 -0.24637058627E+02  0.46433609994E+00  0.21208310370E+02  0.32511424062E+02  0.00000000000E+00 0. -1.
         -2    1    1    2    0  503  0.24637058627E+02 -0.46433609994E+00 -0.87102078848E+01  0.26135569388E+02  0.00000000000E+00 0.  1.
<mgrwt>
<rscale>  2 0.24641434E+02</rscale>
<asrwt>0</asrwt>
<pdfrwt beam="1">  1       21 0.54726997E-02 0.24641434E+02</pdfrwt>
<pdfrwt beam="2">  1       21 0.35499147E-02 0.24641434E+02</pdfrwt>
<totfact> 0.77742940E+07</totfact>
</mgrwt>
</event>
<event>
 4    1  0.2736402E+004  0.2469835E+02  0.7546771E-02  0.1665373E+00
         21   -1    0    0  503  502  0.00000000000E+00  0.00000000000E+00  0.33668852068E+01  0.33668852068E+01  0.00000000000E+00 0.  1.
         21   -1    0    0  501  503 -0.00000000000E+00 -0.00000000000E+00 -0.26007300905E+03  0.26007300905E+03  0.00000000000E+00 0. -1.
          2    1    1    2  501    0 -0.34569213486E+01  0.24455227705E+02 -0.20090119964E+03  0.20241368651E+03  0.00000000000E+00 0. -1.
         -2    1    1    2    0  502  0.34569213486E+01 -0.24455227705E+02 -0.55804924200E+02  0.61026207749E+02  0.00000000000E+00 0.  1.
<mgrwt>
<rscale>  2 0.24698349E+02</rscale>
<asrwt>0</asrwt>
<pdfrwt beam="1">  1       21 0.51798226E-03 0.24698349E+02</pdfrwt>
<pdfrwt beam="2">  1       21 0.40011239E-01 0.24698349E+02</pdfrwt>
<totfact> 0.47557481E+07</totfact>
</mgrwt>
</event>
<event>
 4    1  0.2736402E+004  0.3584284E+02  0.7546771E-02  0.1541241E+00
         21   -1    0    0  501  502  0.00000000000E+00  0.00000000000E+00  0.44962230579E+01  0.44962230579E+01  0.00000000000E+00 0.  1.
         21   -1    0    0  502  503 -0.00000000000E+00 -0.00000000000E+00 -0.55646538884E+03  0.55646538884E+03  0.00000000000E+00 0. -1.
          2    1    1    2  501    0  0.21418873482E+02  0.28739187230E+02 -0.80345323797E+02  0.87977724907E+02  0.00000000000E+00 0.  1.
         -2    1    1    2    0  503 -0.21418873482E+02 -0.28739187230E+02 -0.47162384199E+03  0.47298388699E+03  0.00000000000E+00 0. -1.
<mgrwt>
<rscale>  2 0.35842838E+02</rscale>
<asrwt>0</asrwt>
<pdfrwt beam="1">  1       21 0.69172676E-03 0.35842838E+02</pdfrwt>
<pdfrwt beam="2">  1       21 0.85610043E-01 0.35842838E+02</pdfrwt>
<totfact> 0.70877647E+06</totfact>
</mgrwt>
</event>
<event>
 4    1  0.2736402E+004  0.3004490E+02  0.7546771E-02  0.1597593E+00
         21   -1    0    0  501  502  0.00000000000E+00  0.00000000000E+00  0.34188793241E+02  0.34188793241E+02  0.00000000000E+00 0. -1.
         21   -1    0    0  502  503 -0.00000000000E+00 -0.00000000000E+00 -0.12258418078E+03  0.12258418078E+03  0.00000000000E+00 0.  1.
          2    1    1    2  501    0  0.24328591658E+02  0.17629961049E+02  0.25235706228E+02  0.39236931168E+02  0.00000000000E+00 0. -1.
         -2    1    1    2    0  503 -0.24328591658E+02 -0.17629961049E+02 -0.11363109377E+03  0.11753604286E+03  0.00000000000E+00 0.  1.
<mgrwt>
<rscale>  2 0.30044898E+02</rscale>
<asrwt>0</asrwt>
<pdfrwt beam="1">  1       21 0.52598144E-02 0.30044898E+02</pdfrwt>
<pdfrwt beam="2">  1       21 0.18859105E-01 0.30044898E+02</pdfrwt>
<totfact> 0.54743980E+06</totfact>
</mgrwt>
</event>
<event>
 4    1  0.2736402E+004  0.2477447E+02  0.7546771E-02  0.1664263E+00
         21   -1    0    0  501  502  0.00000000000E+00  0.00000000000E+00  0.14462902534E+02  0.14462902534E+02  0.00000000000E+00 0.  1.
         21   -1    0    0  502  503 -0.00000000000E+00 -0.00000000000E+00 -0.67734549999E+02  0.67734549999E+02  0.00000000000E+00 0. -1.
          2    1    1    2  501    0  0.21863446422E+02  0.11651780189E+02 -0.15195445638E+01  0.24821025094E+02  0.00000000000E+00 0.  1.
         -2    1    1    2    0  503 -0.21863446422E+02 -0.11651780189E+02 -0.51752102900E+02  0.57376427439E+02  0.00000000000E+00 0. -1.
<mgrwt>
<rscale>  2 0.24774468E+02</rscale>
<asrwt>0</asrwt>
<pdfrwt beam="1">  1       21 0.22250619E-02 0.24774468E+02</pdfrwt>
<pdfrwt beam="2">  1       21 0.10420700E-01 0.24774468E+02</pdfrwt>
<totfact> 0.56343686E+07</totfact>
</mgrwt>
</event>
<event>
 4    1  0.2736402E+004  0.2582948E+02  0.7546771E-02  0.1649366E+00
         21   -1    0    0  501  502  0.00000000000E+00  0.00000000000E+00  0.12725361379E+03  0.12725361379E+03  0.00000000000E+00 0.  1.
         21   -1    0    0  502  503 -0.00000000000E+00 -0.00000000000E+00 -0.53356337188E+01  0.53356337188E+01  0.00000000000E+00 0. -1.
          2    1    1    2  501    0 -0.83170505689E+00 -0.25816087769E+02  0.69704711090E+02  0.74336457200E+02  0.00000000000E+00 0.  1.
         -2    1    1    2    0  503  0.83170505689E+00  0.25816087769E+02  0.52213268981E+02  0.58252790308E+02  0.00000000000E+00 0. -1.
<mgrwt>
<rscale>  2 0.25829482E+02</rscale>
<asrwt>0</asrwt>
<pdfrwt beam="1">  1       21 0.19577477E-01 0.25829482E+02</pdfrwt>
<pdfrwt beam="2">  1       21 0.82086682E-03 0.25829482E+02</pdfrwt>
<totfact> 0.88568153E+07</totfact>
</mgrwt>
</event>
<event>
 4    1  0.2736402E+004  0.2272417E+02  0.7546771E-02  0.1696021E+00
         21   -1    0    0  501  502  0.00000000000E+00  0.00000000000E+00  0.26406199279E+02  0.26406199279E+02  0.00000000000E+00 0. -1.
         21   -1    0    0  502  503 -0.00000000000E+00 -0.00000000000E+00 -0.21152261023E+02  0.21152261023E+02  0.00000000000E+00 0.  1.
          2    1    1    2  501    0  0.10213847459E+02  0.20299388547E+02  0.91602602830E+01  0.24500984138E+02  0.00000000000E+00 0. -1.
         -2    1    1    2    0  503 -0.10213847459E+02 -0.20299388547E+02 -0.39063220273E+01  0.23057476164E+02  0.00000000000E+00 0.  1.
<mgrwt>
<rscale>  2 0.22724169E+02</rscale>
<asrwt>0</asrwt>
<pdfrwt beam="1">  1       21 0.40624922E-02 0.22724169E+02</pdfrwt>
<pdfrwt beam="2">  1       21 0.32541940E-02 0.22724169E+02</pdfrwt>
<totfact> 0.13978064E+08</totfact>
</mgrwt>
</event>
<event>
 4    1  0.2736402E+004  0.2391093E+02  0.7546771E-02  0.1677156E+00
         21   -1    0    0  503  502  0.00000000000E+00  0.00000000000E+00  0.14688359611E+04  0.14688359611E+04  0.00000000000E+00 0. -1.
         21   -1    0    0  501  503 -0.00000000000E+00 -0.00000000000E+00 -0.24284185323E+01  0.24284185323E+01  0.00000000000E+00 0.  1.
          2    1    1    2  501    0 -0.38572800269E+00  0.23907822102E+02  0.59100614645E+02  0.63754336285E+02  0.00000000000E+00 0.  1.
         -2    1    1    2    0  502  0.38572800269E+00 -0.23907822102E+02  0.14073069280E+04  0.14075100434E+04  0.00000000000E+00 0. -1.
<mgrwt>
<rscale>  2 0.23910934E+02</rscale>
<asrwt>0</asrwt>
<pdfrwt beam="1">  1       21 0.22597405E+00 0.23910934E+02</pdfrwt>
<pdfrwt beam="2">  1       21 0.37360402E-03 0.23910934E+02</pdfrwt>
<totfact> 0.16839262E+06</totfact>
</mgrwt>
</event>
<event>
 4    1  0.2736402E+004  0.2372758E+02  0.7546771E-02  0.1679981E+00
         21   -1    0    0  501  502  0.00000000000E+00  0.00000000000E+00  0.89766544498E+01  0.89766544498E+01  0.00000000000E+00 0.  1.
         21   -1    0    0  502  503 -0.00000000000E+00 -0.00000000000E+00 -0.63753326155E+02  0.63753326155E+02  0.00000000000E+00 0. -1.
          2    1    1    2  501    0 -0.16702907754E+02  0.16852623316E+02 -0.22754236320E+02  0.32874812708E+02  0.00000000000E+00 0.  1.
         -2    1    1    2    0  503  0.16702907754E+02 -0.16852623316E+02 -0.32022435386E+02  0.39855167897E+02  0.00000000000E+00 0. -1.
<mgrwt>
<rscale>  2 0.23727580E+02</rscale>
<asrwt>0</asrwt>
<pdfrwt beam="1">  1       21 0.13810238E-02 0.23727580E+02</pdfrwt>
<pdfrwt beam="2">  1       21 0.98082040E-02 0.23727580E+02</pdfrwt>
<totfact> 0.12779233E+08</totfact>
</mgrwt>
</event>
<event>
 4    1  0.2736402E+004  0.2096785E+02  0.7546771E-02  0.1726739E+00
         21   -1    0    0  501  502  0.00000000000E+00  0.00000000000E+00  0.18139364818E+04  0.18139364818E+04  0.00000000000E+00 0. -1.
         21   -1    0    0  502  503 -0.00000000000E+00 -0.00000000000E+00 -0.26439617821E+00  0.26439617821E+00  0.00000000000E+00 0.  1.
          2    1    1    2  501    0 -0.15691980415E+02  0.13907288831E+02  0.11686293373E+04  0.11688174276E+04  0.00000000000E+00 0. -1.
         -2    1    1    2    0  503  0.15691980415E+02 -0.13907288831E+02  0.64504274827E+03  0.64538345038E+03  0.00000000000E+00 0.  1.
<mgrwt>
<rscale>  2 0.20967855E+02</rscale>
<asrwt>0</asrwt>
<pdfrwt beam="1">  1       21 0.27905719E+00 0.20967855E+02</pdfrwt>
<pdfrwt beam="2">  1       21 0.40677788E-04 0.20967855E+02</pdfrwt>
<totfact> 0.21711715E+07</totfact>
</mgrwt>
</event>
<event>
 4    1  0.2736402E+004  0.2165753E+02  0.7546771E-02  0.1714243E+00
         21   -1    0    0  503  502  0.00000000000E+00  0.00000000000E+00  0.44146474102E+00  0.44146474102E+00  0.00000000000E+00 0.  1.
         21   -1    0    0  501  503 -0.00000000000E+00 -0.00000000000E+00 -0.17647789608E+04  0.17647789608E+04  0.00000000000E+00 0. -1.
          2    1    1    2  501    0 -0.20966114903E+02  0.54286718623E+01 -0.14389493627E+04  0.14391123364E+04  0.00000000000E+00 0. -1.
         -2    1    1    2    0  502  0.20966114903E+02 -0.54286718623E+01 -0.32538813336E+03  0.32610808911E+03  0.00000000000E+00 0.  1.
<mgrwt>
<rscale>  2 0.21657526E+02</rscale>
<asrwt>0</asrwt>
<pdfrwt beam="1">  1       21 0.67916656E-04 0.21657526E+02</pdfrwt>
<pdfrwt beam="2">  1       21 0.27150844E+00 0.21657526E+02</pdfrwt>
<totfact> 0.11511371E+07</totfact>
</mgrwt>
</event>
<event>
 4    1  0.2736402E+004  0.3868588E+02  0.7546771E-02  0.1518111E+00
         21   -1    0    0  503  502  0.00000000000E+00  0.00000000000E+00  0.29883094076E+01  0.29883094076E+01  0.00000000000E+00 0.  1.
         21   -1    0    0  501  503 -0.00000000000E+00 -0.00000000000E+00 -0.85428743756E+03  0.85428743756E+03  0.00000000000E+00 0. -1.
          2    1    1    2  501    0 -0.23446032733E+02 -0.30771424630E+02 -0.70136742542E+03  0.70243352886E+03  0.00000000000E+00 0. -1.
         -2    1    1    2    0  502  0.23446032733E+02  0.30771424630E+02 -0.14993170273E+03  0.15484221811E+03  0.00000000000E+00 0.  1.
<mgrwt>
<rscale>  2 0.38685876E+02</rscale>
<asrwt>0</asrwt>
<pdfrwt beam="1">  1       21 0.45974013E-03 0.38685876E+02</pdfrwt>
<pdfrwt beam="2">  1       21 0.13142877E+00 0.38685876E+02</pdfrwt>
<totfact> 0.50015175E+06</totfact>
</mgrwt>
</event>
<event>
 4    1  0.2736402E+004  0.4546029E+02  0.7546771E-02  0.1471488E+00
         21   -1    0    0  501  502  0.00000000000E+00  0.00000000000E+00  0.11505868814E+02  0.11505868814E+02  0.00000000000E+00 0.  1.
         21   -1    0    0  502  503 -0.00000000000E+00 -0.00000000000E+00 -0.23487195538E+03  0.23487195538E+03  0.00000000000E+00 0. -1.
          2    1    1    2  501    0  0.44577898972E+02  0.89133875104E+01 -0.51931960172E+02  0.69018591995E+02  0.00000000000E+00 0.  1.
         -2    1    1    2    0  503 -0.44577898972E+02 -0.89133875104E+01 -0.17143412640E+03  0.17735923220E+03  0.00000000000E+00 0. -1.
<mgrwt>
<rscale>  2 0.45460285E+02</rscale>
<asrwt>0</asrwt>
<pdfrwt beam="1">  1       21 0.17701335E-02 0.45460285E+02</pdfrwt>
<pdfrwt beam="2">  1       21 0.36134150E-01 0.45460285E+02</pdfrwt>
<totfact> 0.98937894E+06</totfact>
</mgrwt>
</event>
<event>
 4    1  0.2736402E+004  0.4066929E+02  0.7546771E-02  0.1503343E+00
         21   -1    0    0  503  502  0.00000000000E+00  0.00000000000E+00  0.68817219847E+02  0.68817219847E+02  0.00000000000E+00 0. -1.
         21   -1    0    0  501  503 -0.00000000000E+00 -0.00000000000E+00 -0.82831610428E+02  0.82831610428E+02  0.00000000000E+00 0.  1.
          2    1    1    2  501    0  0.35779710088E+02  0.19334003791E+02 -0.70890709670E+02  0.81728110672E+02  0.00000000000E+00 0.  1.
         -2    1    1    2    0  502 -0.35779710088E+02 -0.19334003791E+02  0.56876319089E+02  0.69920719602E+02  0.00000000000E+00 0. -1.
<mgrwt>
<rscale>  2 0.40669293E+02</rscale>
<asrwt>0</asrwt>
<pdfrwt beam="1">  1       21 0.10587265E-01 0.40669293E+02</pdfrwt>
<pdfrwt beam="2">  1       21 0.12743325E-01 0.40669293E+02</pdfrwt>
<totfact> 0.35270404E+06</totfact>
</mgrwt>
</event>
<event>
 4    1  0.2736402E+004  0.2601437E+02  0.7546771E-02  0.1646846E+00
         21   -1    0    0  503  502  0.00000000000E+00  0.00000000000E+00  0.33235202843E+02  0.33235202843E+02  0.00000000000E+00 0. -1.
         21   -1    0    0  501  503 -0.00000000000E+00 -0.00000000000E+00 -0.20427905862E+02  0.20427905862E+02  0.00000000000E+00 0.  1.
          2    1    1    2  501    0 -0.10820809871E+02 -0.23657078795E+02  0.48838264037E+01  0.26468831929E+02  0.00000000000E+00 0.  1.
         -2    1    1    2    0  502  0.10820809871E+02  0.23657078795E+02  0.79234705776E+01  0.27194276776E+02  0.00000000000E+00 0. -1.
<mgrwt>
<rscale>  2 0.26014367E+02</rscale>
<asrwt>0</asrwt>
<pdfrwt beam="1">  1       21 0.51131081E-02 0.26014367E+02</pdfrwt>
<pdfrwt beam="2">  1       21 0.31427547E-02 0.26014367E+02</pdfrwt>
<totfact> 0.10645549E+08</totfact>
</mgrwt>
</event>
<event>
 4    1  0.2736402E+004  0.2087612E+02  0.7546771E-02  0.1728446E+00
         21   -1    0    0  503  502  0.00000000000E+00  0.00000000000E+00  0.91822193342E+01  0.91822193342E+01  0.00000000000E+00 0. -1.
         21   -1    0    0  501  503 -0.00000000000E+00 -0.00000000000E+00 -0.87821847102E+03  0.87821847102E+03  0.00000000000E+00 0.  1.
          2    1    1    2  501    0 -0.10018745775E+02  0.18314947131E+02 -0.86606221939E+03  0.86631378865E+03  0.00000000000E+00 0.  1.
         -2    1    1    2    0  502  0.10018745775E+02 -0.18314947131E+02 -0.29740322970E+01  0.21086901703E+02  0.00000000000E+00 0. -1.
<mgrwt>
<rscale>  2 0.20876124E+02</rscale>
<asrwt>0</asrwt>
<pdfrwt beam="1">  1       21 0.14126495E-02 0.20876124E+02</pdfrwt>
<pdfrwt beam="2">  1       21 0.13511050E+00 0.20876124E+02</pdfrwt>
<totfact> 0.82514352E+05</totfact>
</mgrwt>
</event>
<event>
 4    1  0.2736402E+004  0.2719147E+02  0.7546771E-02  0.1631384E+00
         21   -1    0    0  501  502  0.00000000000E+00  0.00000000000E+00  0.78930666056E+02  0.78930666056E+02  0.00000000000E+00 0.  1.
         21   -1    0    0  502  503 -0.00000000000E+00 -0.00000000000E+00 -0.15850322285E+02  0.15850322285E+02  0.00000000000E+00 0. -1.
          2    1    1    2  501    0  0.66125920287E+00 -0.27183429949E+02  0.61848164272E+02  0.67561613002E+02  0.00000000000E+00 0.  1.
         -2    1    1    2    0  503 -0.66125920287E+00  0.27183429949E+02  0.12321794987E+01  0.27219375339E+02  0.00000000000E+00 0. -1.
<mgrwt>
<rscale>  2 0.27191472E+02</rscale>
<asrwt>0</asrwt>
<pdfrwt beam="1">  1       21 0.12143179E-01 0.27191472E+02</pdfrwt>
<pdfrwt beam="2">  1       21 0.24385112E-02 0.27191472E+02</pdfrwt>
<totfact> 0.38665635E+07</totfact>
</mgrwt>
</event>
<event>
 4    1  0.2736402E+004  0.2548840E+02  0.7546771E-02  0.1654084E+00
         21   -1    0    0  503  502  0.00000000000E+00  0.00000000000E+00  0.51543389615E+01  0.51543389615E+01  0.00000000000E+00 0.  1.
         21   -1    0    0  501  503 -0.00000000000E+00 -0.00000000000E+00 -0.49128182165E+03  0.49128182165E+03  0.00000000000E+00 0. -1.
          2    1    1    2  501    0  0.25263411596E+02  0.33791233372E+01 -0.45708537473E+03  0.45779547642E+03  0.00000000000E+00 0. -1.
         -2    1    1    2    0  502 -0.25263411596E+02 -0.33791233372E+01 -0.29042107958E+02  0.38640684189E+02  0.00000000000E+00 0.  1.
<mgrwt>
<rscale>  2 0.25488398E+02</rscale>
<asrwt>0</asrwt>
<pdfrwt beam="1">  1       21 0.79297540E-03 0.25488398E+02</pdfrwt>
<pdfrwt beam="2">  1       21 0.75581802E-01 0.25488398E+02</pdfrwt>
<totfact> 0.71919522E+06</totfact>
</mgrwt>
</event>
<event>
 4    1  0.2736402E+004  0.2258554E+02  0.7546771E-02  0.1698318E+00
         21   -1    0    0  501  502  0.00000000000E+00  0.00000000000E+00  0.22706458436E+03  0.22706458436E+03  0.00000000000E+00 0. -1.
         21   -1    0    0  502  503 -0.00000000000E+00 -0.00000000000E+00 -0.36000268996E+01  0.36000268996E+01  0.00000000000E+00 0.  1.
          2    1    1    2  501    0 -0.19400534915E+02 -0.11563996428E+02  0.18244982458E+03  0.18384244683E+03  0.00000000000E+00 0. -1.
         -2    1    1    2    0  503  0.19400534915E+02  0.11563996428E+02  0.41014732886E+02  0.46822164432E+02  0.00000000000E+00 0.  1.
<mgrwt>
<rscale>  2 0.22585543E+02</rscale>
<asrwt>0</asrwt>
<pdfrwt beam="1">  1       21 0.34933002E-01 0.22585543E+02</pdfrwt>
<pdfrwt beam="2">  1       21 0.55385047E-03 0.22585543E+02</pdfrwt>
<totfact> 0.54344108E+07</totfact>
</mgrwt>
</event>
<event>
 4    1  0.2736402E+004  0.2501037E+02  0.7546771E-02  0.1660853E+00
         21   -1    0    0  501  502  0.00000000000E+00  0.00000000000E+00  0.36904661209E+03  0.36904661209E+03  0.00000000000E+00 0.  1.
         21   -1    0    0  502  503 -0.00000000000E+00 -0.00000000000E+00 -0.23587844291E+01  0.23587844291E+01  0.00000000000E+00 0. -1.
          2    1    1    2  501    0 -0.75662638565E+01  0.23838422648E+02  0.28185863868E+03  0.28296609504E+03  0.00000000000E+00 0.  1.
         -2    1    1    2    0  503  0.75662638565E+01 -0.23838422648E+02  0.84829188979E+02  0.88439301479E+02  0.00000000000E+00 0. -1.
<mgrwt>
<rscale>  2 0.25010373E+02</rscale>
<asrwt>0</asrwt>
<pdfrwt beam="1">  1       21 0.56776356E-01 0.25010373E+02</pdfrwt>
<pdfrwt beam="2">  1       21 0.36289020E-03 0.25010373E+02</pdfrwt>
<totfact> 0.40891408E+07</totfact>
</mgrwt>
</event>
<event>
 4    1  0.2736402E+004  0.2990333E+02  0.7546771E-02  0.1599160E+00
         21   -1    0    0  503  502  0.00000000000E+00  0.00000000000E+00  0.71564030565E+02  0.71564030565E+02  0.00000000000E+00 0. -1.
         21   -1    0    0  501  503 -0.00000000000E+00 -0.00000000000E+00 -0.13288057977E+02  0.13288057977E+02  0.00000000000E+00 0.  1.
          2    1    1    2  501    0 -0.20729073386E+02 -0.21552604209E+02  0.39501104778E+02  0.49543380085E+02  0.00000000000E+00 0. -1.
         -2    1    1    2    0  502  0.20729073386E+02  0.21552604209E+02  0.18774867809E+02  0.35308708457E+02  0.00000000000E+00 0.  1.
<mgrwt>
<rscale>  2 0.29903331E+02</rscale>
<asrwt>0</asrwt>
<pdfrwt beam="1">  1       21 0.11009851E-01 0.29903331E+02</pdfrwt>
<pdfrwt beam="2">  1       21 0.20443167E-02 0.29903331E+02</pdfrwt>
<totfact> 0.61278614E+07</totfact>
</mgrwt>
</event>
<event>
 4    1  0.2736402E+004  0.2248407E+02  0.7546771E-02  0.1700012E+00
         21   -1    0    0  501  502  0.00000000000E+00  0.00000000000E+00  0.77639184858E+01  0.77639184858E+01  0.00000000000E+00 0.  1.
         21   -1    0    0  502  503 -0.00000000000E+00 -0.00000000000E+00 -0.10179928686E+03  0.10179928686E+03  0.00000000000E+00 0. -1.
          2    1    1    2  501    0  0.27943768772E+01 -0.22309749831E+02 -0.14131526476E+02  0.26556233171E+02  0.00000000000E+00 0.  1.
         -2    1    1    2    0  503 -0.27943768772E+01  0.22309749831E+02 -0.79903841893E+02  0.83006972171E+02  0.00000000000E+00 0. -1.
<mgrwt>
<rscale>  2 0.22484072E+02</rscale>
<asrwt>0</asrwt>
<pdfrwt beam="1">  1       21 0.11944490E-02 0.22484072E+02</pdfrwt>
<pdfrwt beam="2">  1       21 0.15661428E-01 0.22484072E+02</pdfrwt>
<totfact> 0.71451207E+07</totfact>
</mgrwt>
</event>
<event>
 4    1  0.2736402E+004  0.2420084E+02  0.7546771E-02  0.1672753E+00
         21   -1    0    0  503  502  0.00000000000E+00  0.00000000000E+00  0.16286846958E+02  0.16286846958E+02  0.00000000000E+00 0. -1.
         21   -1    0    0  501  503 -0.00000000000E+00 -0.00000000000E+00 -0.27631253927E+03  0.27631253927E+03  0.00000000000E+00 0.  1.
          2    1    1    2  501    0  0.17299995058E+02 -0.16923079413E+02 -0.26646084615E+03  0.26755758815E+03  0.00000000000E+00 0.  1.
         -2    1    1    2    0  502 -0.17299995058E+02  0.16923079413E+02  0.64351538421E+01  0.25041798074E+02  0.00000000000E+00 0. -1.
<mgrwt>
<rscale>  2 0.24200836E+02</rscale>
<asrwt>0</asrwt>
<pdfrwt beam="1">  1       21 0.25056689E-02 0.24200836E+02</pdfrwt>
<pdfrwt beam="2">  1       21 0.42509619E-01 0.24200836E+02</pdfrwt>
<totfact> 0.38950805E+06</totfact>
</mgrwt>
</event>
<event>
 4    1  0.2736402E+004  0.2388101E+02  0.7546771E-02  0.1677615E+00
         21   -1    0    0  501  502  0.00000000000E+00  0.00000000000E+00  0.36755951821E+02  0.36755951821E+02  0.00000000000E+00 0. -1.
         21   -1    0    0  502  503 -0.00000000000E+00 -0.00000000000E+00 -0.48885548200E+02  0.48885548200E+02  0.00000000000E+00 0.  1.
          2    1    1    2  501    0 -0.21177355189E+02  0.11037318920E+02  0.29313720316E+02  0.37810011643E+02  0.00000000000E+00 0. -1.
         -2    1    1    2    0  503  0.21177355189E+02 -0.11037318920E+02 -0.41443316695E+02  0.47831488377E+02  0.00000000000E+00 0.  1.
<mgrwt>
<rscale>  2 0.23881013E+02</rscale>
<asrwt>0</asrwt>
<pdfrwt beam="1">  1       21 0.56547618E-02 0.23881013E+02</pdfrwt>
<pdfrwt beam="2">  1       21 0.75208536E-02 0.23881013E+02</pdfrwt>
<totfact> 0.22043966E+07</totfact>
</mgrwt>
</event>
<event>
 4    1  0.2736402E+004  0.2178399E+02  0.7546771E-02  0.1712015E+00
         21   -1    0    0  503  502  0.00000000000E+00  0.00000000000E+00  0.23258539779E+01  0.23258539779E+01  0.00000000000E+00 0.  1.
         21   -1    0    0  501  503 -0.00000000000E+00 -0.00000000000E+00 -0.25620062517E+03  0.25620062517E+03  0.00000000000E+00 0. -1.
          2    1    1    2  501    0 -0.13095181036E+02  0.17408575432E+02 -0.18526860371E+03  0.18654489483E+03  0.00000000000E+00 0. -1.
         -2    1    1    2    0  502  0.13095181036E+02 -0.17408575432E+02 -0.68606167484E+02  0.71981584324E+02  0.00000000000E+00 0.  1.
<mgrwt>
<rscale>  2 0.21783991E+02</rscale>
<asrwt>0</asrwt>
<pdfrwt beam="1">  1       21 0.35782389E-03 0.21783991E+02</pdfrwt>
<pdfrwt beam="2">  1       21 0.39415458E-01 0.21783991E+02</pdfrwt>
<totfact> 0.81693068E+07</totfact>
</mgrwt>
</event>
<event>
 4    1  0.2736402E+004  0.3196822E+02  0.7546771E-02  0.1577299E+00
         21   -1    0    0  503  502  0.00000000000E+00  0.00000000000E+00  0.73156827283E+03  0.73156827283E+03  0.00000000000E+00 0. -1.
         21   -1    0    0  501  503 -0.00000000000E+00 -0.00000000000E+00 -0.26935543907E+01  0.26935543907E+01  0.00000000000E+00 0.  1.
          2    1    1    2  501    0 -0.28765172286E+02 -0.13947480601E+02  0.10971848579E+03  0.11428085349E+03  0.00000000000E+00 0.  1.
         -2    1    1    2    0  502  0.28765172286E+02  0.13947480601E+02  0.61915623266E+03  0.61998097373E+03  0.00000000000E+00 0. -1.
<mgrwt>
<rscale>  2 0.31968224E+02</rscale>
<asrwt>0</asrwt>
<pdfrwt beam="1">  1       21 0.11254881E+00 0.31968224E+02</pdfrwt>
<pdfrwt beam="2">  1       21 0.41439357E-03 0.31968224E+02</pdfrwt>
<totfact> 0.82030223E+06</totfact>
</mgrwt>
</event>
<event>
 4    1  0.2736402E+004  0.2121036E+02  0.7546771E-02  0.1722277E+00
         21   -1    0    0  501  502  0.00000000000E+00  0.00000000000E+00  0.14275567527E+04  0.14275567527E+04  0.00000000000E+00 0.  1.
         21   -1    0    0  502  503 -0.00000000000E+00 -0.00000000000E+00 -0.61932370521E+00  0.61932370521E+00  0.00000000000E+00 0. -1.
          2    1    1    2  501    0  0.57303281116E+00 -0.21202619841E+02  0.12139193782E+04  0.12141046645E+04  0.00000000000E+00 0.  1.
         -2    1    1    2    0  503 -0.57303281116E+00  0.21202619841E+02  0.21301805080E+03  0.21407141196E+03  0.00000000000E+00 0. -1.
<mgrwt>
<rscale>  2 0.21210362E+02</rscale>
<asrwt>0</asrwt>
<pdfrwt beam="1">  1       21 0.21962148E+00 0.21210362E+02</pdfrwt>
<pdfrwt beam="2">  1       21 0.95281713E-04 0.21210362E+02</pdfrwt>
<totfact> 0.12906876E+07</totfact>
</mgrwt>
</event>
<event>
 4    1  0.2736402E+004  0.2345450E+02  0.7546771E-02  0.1684247E+00
         21   -1    0    0  503  502  0.00000000000E+00  0.00000000000E+00  0.39724866922E+02  0.39724866922E+02  0.00000000000E+00 0.  1.
         21   -1    0    0  501  503 -0.00000000000E+00 -0.00000000000E+00 -0.16362934029E+02  0.16362934029E+02  0.00000000000E+00 0. -1.
          2    1    1    2  501    0 -0.10706455730E+02  0.20868285008E+02  0.68677244531E+00  0.23464551346E+02  0.00000000000E+00 0. -1.
         -2    1    1    2    0  502  0.10706455730E+02 -0.20868285008E+02  0.22675160447E+02  0.32623249605E+02  0.00000000000E+00 0.  1.
<mgrwt>
<rscale>  2 0.23454499E+02</rscale>
<asrwt>0</asrwt>
<pdfrwt beam="1">  1       21 0.61115180E-02 0.23454499E+02</pdfrwt>
<pdfrwt beam="2">  1       21 0.25173745E-02 0.23454499E+02</pdfrwt>
<totfact> 0.10977106E+08</totfact>
</mgrwt>
</event>
<event>
 4    1  0.2736402E+004  0.4289272E+02  0.7546771E-02  0.1487943E+00
         21   -1    0    0  501  502  0.00000000000E+00  0.00000000000E+00  0.20429060393E+02  0.20429060393E+02  0.00000000000E+00 0.  1.
         21   -1    0    0  502  503 -0.00000000000E+00 -0.00000000000E+00 -0.91253658025E+02  0.91253658025E+02  0.00000000000E+00 0. -1.
          2    1    1    2  501    0  0.42480935201E+02  0.59292199208E+01 -0.41806201305E+02  0.59896109823E+02  0.00000000000E+00 0. -1.
         -2    1    1    2    0  503 -0.42480935201E+02 -0.59292199208E+01 -0.29018396327E+02  0.51786608595E+02  0.00000000000E+00 0.  1.
<mgrwt>
<rscale>  2 0.42892721E+02</rscale>
<asrwt>0</asrwt>
<pdfrwt beam="1">  1       21 0.31429324E-02 0.42892721E+02</pdfrwt>
<pdfrwt beam="2">  1       21 0.14039024E-01 0.42892721E+02</pdfrwt>
<totfact> 0.22044450E+07</totfact>
</mgrwt>
</event>
<event>
 4    1  0.2736402E+004  0.3943663E+02  0.7546771E-02  0.1512399E+00
         21   -1    0    0  503  502  0.00000000000E+00  0.00000000000E+00  0.40810621416E+03  0.40810621416E+03  0.00000000000E+00 0.  1.
         21   -1    0    0  501  503 -0.00000000000E+00 -0.00000000000E+00 -0.14999593466E+02  0.14999593466E+02  0.00000000000E+00 0. -1.
          2    1    1    2  501    0 -0.39435127853E+02  0.34401356115E+00  0.13840440176E+02  0.41794801571E+02  0.00000000000E+00 0. -1.
         -2    1    1    2    0  502  0.39435127853E+02 -0.34401356115E+00  0.37926618051E+03  0.38131100605E+03  0.00000000000E+00 0.  1.
<mgrwt>
<rscale>  2 0.39436628E+02</rscale>
<asrwt>0</asrwt>
<pdfrwt beam="1">  1       21 0.62785563E-01 0.39436628E+02</pdfrwt>
<pdfrwt beam="2">  1       21 0.23076301E-02 0.39436628E+02</pdfrwt>
<totfact> 0.21568288E+06</totfact>
</mgrwt>
</event>
<event>
 4    1  0.2736402E+004  0.2544387E+02  0.7546771E-02  0.1654707E+00
         21   -1    0    0  503  502  0.00000000000E+00  0.00000000000E+00  0.58429844443E+02  0.58429844443E+02  0.00000000000E+00 0. -1.
         21   -1    0    0  501  503 -0.00000000000E+00 -0.00000000000E+00 -0.69092669083E+02  0.69092669083E+02  0.00000000000E+00 0.  1.
          2    1    1    2  501    0 -0.12857706542E+02 -0.21956087516E+02 -0.63757000591E+02  0.68646525920E+02  0.00000000000E+00 0.  1.
         -2    1    1    2    0  502  0.12857706542E+02  0.21956087516E+02  0.53094175951E+02  0.58875987605E+02  0.00000000000E+00 0. -1.
<mgrwt>
<rscale>  2 0.25443868E+02</rscale>
<asrwt>0</asrwt>
<pdfrwt beam="1">  1       21 0.89892069E-02 0.25443868E+02</pdfrwt>
<pdfrwt beam="2">  1       21 0.10629641E-01 0.25443868E+02</pdfrwt>
<totfact> 0.59375194E+06</totfact>
</mgrwt>
</event>
<event>
 4    1  0.2736402E+004  0.2200788E+02  0.7546771E-02  0.1708116E+00
         21   -1    0    0  501  502  0.00000000000E+00  0.00000000000E+00  0.57318828662E+02  0.57318828662E+02  0.00000000000E+00 0. -1.
         21   -1    0    0  502  503 -0.00000000000E+00 -0.00000000000E+00 -0.27281916738E+02  0.27281916738E+02  0.00000000000E+00 0.  1.
          2    1    1    2  501    0 -0.20048557382E+02 -0.90775564399E+01  0.50162642675E+02  0.54778074119E+02  0.00000000000E+00 0. -1.
         -2    1    1    2    0  503  0.20048557382E+02  0.90775564399E+01 -0.20125730751E+02  0.29822671280E+02  0.00000000000E+00 0.  1.
<mgrwt>
<rscale>  2 0.22007878E+02</rscale>
<asrwt>0</asrwt>
<pdfrwt beam="1">  1       21 0.88182813E-02 0.22007878E+02</pdfrwt>
<pdfrwt beam="2">  1       21 0.41972180E-02 0.22007878E+02</pdfrwt>
<totfact> 0.26791579E+07</totfact>
</mgrwt>
</event>
<event>
 4    1  0.2736402E+004  0.2895369E+02  0.7546771E-02  0.1609951E+00
         21   -1    0    0  503  502  0.00000000000E+00  0.00000000000E+00  0.35065215804E+03  0.35065215804E+03  0.00000000000E+00 0.  1.
         21   -1    0    0  501  503 -0.00000000000E+00 -0.00000000000E+00 -0.28120965241E+01  0.28120965241E+01  0.00000000000E+00 0. -1.
          2    1    1    2  501    0  0.10670361295E+02 -0.26915782045E+02  0.10550862760E+03  0.10940926117E+03  0.00000000000E+00 0. -1.
         -2    1    1    2    0  502 -0.10670361295E+02  0.26915782045E+02  0.24233143392E+03  0.24405499339E+03  0.00000000000E+00 0.  1.
<mgrwt>
<rscale>  2 0.28953686E+02</rscale>
<asrwt>0</asrwt>
<pdfrwt beam="1">  1       21 0.53946451E-01 0.28953686E+02</pdfrwt>
<pdfrwt beam="2">  1       21 0.43263051E-03 0.28953686E+02</pdfrwt>
<totfact> 0.35990063E+07</totfact>
</mgrwt>
</event>
<event>
 4    1  0.2736402E+004  0.3348465E+02  0.7546771E-02  0.1562484E+00
         21   -1    0    0  503  502  0.00000000000E+00  0.00000000000E+00  0.10877452884E+04  0.10877452884E+04  0.00000000000E+00 0.  1.
         21   -1    0    0  501  503 -0.00000000000E+00 -0.00000000000E+00 -0.12607553546E+01  0.12607553546E+01  0.00000000000E+00 0. -1.
          2    1    1    2  501    0  0.82731427897E+01  0.32446519803E+02  0.31068523172E+03  0.31248445521E+03  0.00000000000E+00 0. -1.
         -2    1    1    2    0  502 -0.82731427897E+01 -0.32446519803E+02  0.77579930131E+03  0.77652158853E+03  0.00000000000E+00 0.  1.
<mgrwt>
<rscale>  2 0.33484646E+02</rscale>
<asrwt>0</asrwt>
<pdfrwt beam="1">  1       21 0.16734468E+00 0.33484646E+02</pdfrwt>
<pdfrwt beam="2">  1       21 0.19396323E-03 0.33484646E+02</pdfrwt>
<totfact> 0.98202555E+06</totfact>
</mgrwt>
</event>
<event>
 4    1  0.2736402E+004  0.2179209E+02  0.7546771E-02  0.1711873E+00
         21   -1    0    0  503  502  0.00000000000E+00  0.00000000000E+00  0.27517303381E+02  0.27517303381E+02  0.00000000000E+00 0. -1.
         21   -1    0    0  501  503 -0.00000000000E+00 -0.00000000000E+00 -0.27477788087E+02  0.27477788087E+02  0.00000000000E+00 0.  1.
          2    1    1    2  501    0  0.44327544790E+01  0.21336495921E+02 -0.16749840016E+02  0.27485496375E+02  0.00000000000E+00 0.  1.
         -2    1    1    2    0  502 -0.44327544790E+01 -0.21336495921E+02  0.16789355310E+02  0.27509595093E+02  0.00000000000E+00 0. -1.
<mgrwt>
<rscale>  2 0.21792094E+02</rscale>
<asrwt>0</asrwt>
<pdfrwt beam="1">  1       21 0.42334313E-02 0.21792094E+02</pdfrwt>
<pdfrwt beam="2">  1       21 0.42273520E-02 0.21792094E+02</pdfrwt>
<totfact> 0.85829321E+07</totfact>
</mgrwt>
</event>
<event>
 4    1  0.2736402E+004  0.3311892E+02  0.7546771E-02  0.1565969E+00
         21   -1    0    0  501  502  0.00000000000E+00  0.00000000000E+00  0.29138700360E+02  0.29138700360E+02  0.00000000000E+00 0. -1.
         21   -1    0    0  502  503 -0.00000000000E+00 -0.00000000000E+00 -0.51727163781E+02  0.51727163781E+02  0.00000000000E+00 0.  1.
          2    1    1    2  501    0 -0.13358454933E+02  0.30305360018E+02  0.98039023085E+01  0.34539537700E+02  0.00000000000E+00 0. -1.
         -2    1    1    2    0  503  0.13358454933E+02 -0.30305360018E+02 -0.32392365729E+02  0.46326326442E+02  0.00000000000E+00 0.  1.
<mgrwt>
<rscale>  2 0.33118925E+02</rscale>
<asrwt>0</asrwt>
<pdfrwt beam="1">  1       21 0.44828770E-02 0.33118925E+02</pdfrwt>
<pdfrwt beam="2">  1       21 0.79580252E-02 0.33118925E+02</pdfrwt>
<totfact> 0.31199451E+07</totfact>
</mgrwt>
</event>
<event>
 4    1  0.2736402E+004  0.2237734E+02  0.7546771E-02  0.1701807E+00
         21   -1    0    0  501  502  0.00000000000E+00  0.00000000000E+00  0.17773633931E+02  0.17773633931E+02  0.00000000000E+00 0. -1.
         21   -1    0    0  502  503 -0.00000000000E+00 -0.00000000000E+00 -0.98243248303E+02  0.98243248303E+02  0.00000000000E+00 0.  1.
          2    1    1    2  501    0 -0.19921264891E+02 -0.10192565349E+02  0.87549365433E+01  0.24029026137E+02  0.00000000000E+00 0. -1.
         -2    1    1    2    0  503  0.19921264891E+02  0.10192565349E+02 -0.89224550915E+02  0.91987856096E+02  0.00000000000E+00 0.  1.
<mgrwt>
<rscale>  2 0.22377336E+02</rscale>
<asrwt>0</asrwt>
<pdfrwt beam="1">  1       21 0.27344052E-02 0.22377336E+02</pdfrwt>
<pdfrwt beam="2">  1       21 0.15114346E-01 0.22377336E+02</pdfrwt>
<totfact> 0.21385446E+07</totfact>
</mgrwt>
</event>
<event>
 4    1  0.2736402E+004  0.2343166E+02  0.7546771E-02  0.1684607E+00
         21   -1    0    0  503  502  0.00000000000E+00  0.00000000000E+00  0.18083952029E+03  0.18083952029E+03  0.00000000000E+00 0. -1.
         21   -1    0    0  501  503 -0.00000000000E+00 -0.00000000000E+00 -0.50286289769E+01  0.50286289769E+01  0.00000000000E+00 0.  1.
          2    1    1    2  501    0 -0.23080818894E+02 -0.40396332938E+01  0.29405571282E+02  0.37599607184E+02  0.00000000000E+00 0.  1.
         -2    1    1    2    0  502  0.23080818894E+02  0.40396332938E+01  0.14640532003E+03  0.14826854208E+03  0.00000000000E+00 0. -1.
<mgrwt>
<rscale>  2 0.23431663E+02</rscale>
<asrwt>0</asrwt>
<pdfrwt beam="1">  1       21 0.27821460E-01 0.23431663E+02</pdfrwt>
<pdfrwt beam="2">  1       21 0.77363537E-03 0.23431663E+02</pdfrwt>
<totfact> 0.50605367E+07</totfact>
</mgrwt>
</event>
<event>
 4    1  0.2736402E+004  0.2254082E+02  0.7546771E-02  0.1699063E+00
         21   -1    0    0  503  502  0.00000000000E+00  0.00000000000E+00  0.16399256655E+04  0.16399256655E+04  0.00000000000E+00 0.  1.
         21   -1    0    0  501  503 -0.00000000000E+00 -0.00000000000E+00 -0.35349530232E+00  0.35349530232E+00  0.00000000000E+00 0. -1.
          2    1    1    2  501    0  0.15432664717E+02 -0.16429287304E+02  0.53152027616E+03  0.53199801935E+03  0.00000000000E+00 0. -1.
         -2    1    1    2    0  502 -0.15432664717E+02  0.16429287304E+02  0.11080518941E+04  0.11082811415E+04  0.00000000000E+00 0.  1.
<mgrwt>
<rscale>  2 0.22540821E+02</rscale>
<asrwt>0</asrwt>
<pdfrwt beam="1">  1       21 0.25229017E+00 0.22540821E+02</pdfrwt>
<pdfrwt beam="2">  1       21 0.54385206E-04 0.22540821E+02</pdfrwt>
<totfact> 0.19611031E+07</totfact>
</mgrwt>
</event>
<event>
 4    1  0.2736402E+004  0.2480753E+02  0.7546771E-02  0.1663782E+00
         21   -1    0    0  501  502  0.00000000000E+00  0.00000000000E+00  0.16417879072E+03  0.16417879072E+03  0.00000000000E+00 0. -1.
         21   -1    0    0  502  503 -0.00000000000E+00 -0.00000000000E+00 -0.51482320246E+01  0.51482320246E+01  0.00000000000E+00 0.  1.
          2    1    1    2  501    0 -0.60479921394E+01  0.24058991963E+02  0.12366215403E+03  0.12612589601E+03  0.00000000000E+00 0.  1.
         -2    1    1    2    0  503  0.60479921394E+01 -0.24058991963E+02  0.35368404665E+02  0.43201126741E+02  0.00000000000E+00 0. -1.
<mgrwt>
<rscale>  2 0.24807525E+02</rscale>
<asrwt>0</asrwt>
<pdfrwt beam="1">  1       21 0.25258271E-01 0.24807525E+02</pdfrwt>
<pdfrwt beam="2">  1       21 0.79203582E-03 0.24807525E+02</pdfrwt>
<totfact> 0.58945513E+07</totfact>
</mgrwt>
</event>
<event>
 4    1  0.2736402E+004  0.2399316E+02  0.7546771E-02  0.1675899E+00
         21   -1    0    0  501  502  0.00000000000E+00  0.00000000000E+00  0.14520309967E+02  0.14520309967E+02  0.00000000000E+00 0.  1.
         21   -1    0    0  502  503 -0.00000000000E+00 -0.00000000000E+00 -0.47070069920E+02  0.47070069920E+02  0.00000000000E+00 0. -1.
          2    1    1    2  501    0 -0.11470690967E+02  0.21073565765E+02 -0.40447220940E+01  0.24331701587E+02  0.00000000000E+00 0.  1.
         -2    1    1    2    0  503  0.11470690967E+02 -0.21073565765E+02 -0.28505037858E+02  0.37258678300E+02  0.00000000000E+00 0. -1.
<mgrwt>
<rscale>  2 0.23993164E+02</rscale>
<asrwt>0</asrwt>
<pdfrwt beam="1">  1       21 0.22338938E-02 0.23993164E+02</pdfrwt>
<pdfrwt beam="2">  1       21 0.72415493E-02 0.23993164E+02</pdfrwt>
<totfact> 0.10100670E+08</totfact>
</mgrwt>
</event>
<event>
 4    1  0.2736402E+004  0.2899313E+02  0.7546771E-02  0.1609493E+00
         21   -1    0    0  501  502  0.00000000000E+00  0.00000000000E+00  0.73959240833E+02  0.73959240833E+02  0.00000000000E+00 0. -1.
         21   -1    0    0  502  503 -0.00000000000E+00 -0.00000000000E+00 -0.16248052996E+02  0.16248052996E+02  0.00000000000E+00 0.  1.
          2    1    1    2  501    0 -0.21433459220E+02 -0.19524553301E+02  0.53579887512E+02  0.60921307451E+02  0.00000000000E+00 0. -1.
         -2    1    1    2    0  503  0.21433459220E+02  0.19524553301E+02  0.41313003244E+01  0.29285986377E+02  0.00000000000E+00 0.  1.
<mgrwt>
<rscale>  2 0.28993126E+02</rscale>
<asrwt>0</asrwt>
<pdfrwt beam="1">  1       21 0.11378345E-01 0.28993126E+02</pdfrwt>
<pdfrwt beam="2">  1       21 0.24997005E-02 0.28993126E+02</pdfrwt>
<totfact> 0.42115752E+07</totfact>
</mgrwt>
</event>
<event>
 4    1  0.2736402E+004  0.2320790E+02  0.7546771E-02  0.1688162E+00
         21   -1    0    0  501  502  0.00000000000E+00  0.00000000000E+00  0.26092358558E+03  0.26092358558E+03  0.00000000000E+00 0.  1.
         21   -1    0    0  502  503 -0.00000000000E+00 -0.00000000000E+00 -0.29661101576E+01  0.29661101576E+01  0.00000000000E+00 0. -1.
          2    1    1    2  501    0  0.20113662219E+02 -0.11577876720E+02  0.20173542169E+03  0.20306596712E+03  0.00000000000E+00 0.  1.
         -2    1    1    2    0  503 -0.20113662219E+02  0.11577876720E+02  0.56222053726E+02  0.60823728613E+02  0.00000000000E+00 0. -1.
<mgrwt>
<rscale>  2 0.23207900E+02</rscale>
<asrwt>0</asrwt>
<pdfrwt beam="1">  1       21 0.40142072E-01 0.23207900E+02</pdfrwt>
<pdfrwt beam="2">  1       21 0.45632484E-03 0.23207900E+02</pdfrwt>
<totfact> 0.56153779E+07</totfact>
</mgrwt>
</event>
<event>
 4    1  0.2736402E+004  0.4100000E+02  0.7546771E-02  0.1500979E+00
         21   -1    0    0  501  502  0.00000000000E+00  0.00000000000E+00  0.39933360242E+02  0.39933360242E+02  0.00000000000E+00 0. -1.
         21   -1    0    0  502  503 -0.00000000000E+00 -0.00000000000E+00 -0.84675544969E+02  0.84675544969E+02  0.00000000000E+00 0.  1.
          2    1    1    2  501    0  0.36420850123E+02 -0.18828736951E+02  0.21810877155E+02  0.46440435195E+02  0.00000000000E+00 0. -1.
         -2    1    1    2    0  503 -0.36420850123E+02  0.18828736951E+02 -0.66553061881E+02  0.78168470016E+02  0.00000000000E+00 0.  1.
<mgrwt>
<rscale>  2 0.40999996E+02</rscale>
<asrwt>0</asrwt>
<pdfrwt beam="1">  1       21 0.61435939E-02 0.40999996E+02</pdfrwt>
<pdfrwt beam="2">  1       21 0.13027007E-01 0.40999996E+02</pdfrwt>
<totfact> 0.84288170E+06</totfact>
</mgrwt>
</event>
<event>
 4    1  0.2736402E+004  0.3258419E+02  0.7546771E-02  0.1571163E+00
         21   -1    0    0  501  502  0.00000000000E+00  0.00000000000E+00  0.73181944227E+02  0.73181944227E+02  0.00000000000E+00 0. -1.
         21   -1    0    0  502  503 -0.00000000000E+00 -0.00000000000E+00 -0.23473106466E+02  0.23473106466E+02  0.00000000000E+00 0.  1.
          2    1    1    2  501    0  0.26480873703E+02  0.18986648501E+02  0.54720969234E+02  0.63687628056E+02  0.00000000000E+00 0. -1.
         -2    1    1    2    0  503 -0.26480873703E+02 -0.18986648501E+02 -0.50121314738E+01  0.32967422637E+02  0.00000000000E+00 0.  1.
<mgrwt>
<rscale>  2 0.32584191E+02</rscale>
<asrwt>0</asrwt>
<pdfrwt beam="1">  1       21 0.11258761E-01 0.32584191E+02</pdfrwt>
<pdfrwt beam="2">  1       21 0.36112472E-02 0.32584191E+02</pdfrwt>
<totfact> 0.24595396E+07</totfact>
</mgrwt>
</event>
<event>
 4    1  0.2736402E+004  0.2544712E+02  0.7546771E-02  0.1654662E+00
         21   -1    0    0  501  502  0.00000000000E+00  0.00000000000E+00  0.31827036812E+02  0.31827036812E+02  0.00000000000E+00 0. -1.
         21   -1    0    0  502  503 -0.00000000000E+00 -0.00000000000E+00 -0.31655375167E+02  0.31655375167E+02  0.00000000000E+00 0.  1.
          2    1    1    2  501    0  0.20246678291E+02 -0.15415180729E+02  0.19058011612E+02  0.31792508321E+02  0.00000000000E+00 0. -1.
         -2    1    1    2    0  503 -0.20246678291E+02  0.15415180729E+02 -0.18886349967E+02  0.31689903657E+02  0.00000000000E+00 0.  1.
<mgrwt>
<rscale>  2 0.25447117E+02</rscale>
<asrwt>0</asrwt>
<pdfrwt beam="1">  1       21 0.48964672E-02 0.25447117E+02</pdfrwt>
<pdfrwt beam="2">  1       21 0.48700577E-02 0.25447117E+02</pdfrwt>
<totfact> 0.56751286E+07</totfact>
</mgrwt>
</event>
<event>
 4    1  0.2736402E+004  0.2169356E+02  0.7546771E-02  0.1713606E+00
         21   -1    0    0  501  502  0.00000000000E+00  0.00000000000E+00  0.74507679151E+01  0.74507679151E+01  0.00000000000E+00 0. -1.
         21   -1    0    0  502  503 -0.00000000000E+00 -0.00000000000E+00 -0.72327016512E+02  0.72327016512E+02  0.00000000000E+00 0.  1.
          2    1    1    2  501    0 -0.10460634162E+02  0.19004890531E+02 -0.18239332795E+02  0.28342265117E+02  0.00000000000E+00 0. -1.
         -2    1    1    2    0  503  0.10460634162E+02 -0.19004890531E+02 -0.46636915802E+02  0.51435519310E+02  0.00000000000E+00 0.  1.
<mgrwt>
<rscale>  2 0.21693564E+02</rscale>
<asrwt>0</asrwt>
<pdfrwt beam="1">  1       21 0.11462720E-02 0.21693564E+02</pdfrwt>
<pdfrwt beam="2">  1       21 0.11127233E-01 0.21693564E+02</pdfrwt>
<totfact> 0.13379494E+08</totfact>
</mgrwt>
</event>
<event>
 4    1  0.2736402E+004  0.3306626E+02  0.7546771E-02  0.1566475E+00
         21   -1    0    0  501  502  0.00000000000E+00  0.00000000000E+00  0.31405277814E+03  0.31405277814E+03  0.00000000000E+00 0. -1.
         21   -1    0    0  502  503 -0.00000000000E+00 -0.00000000000E+00 -0.14809976665E+02  0.14809976665E+02  0.00000000000E+00 0.  1.
          2    1    1    2  501    0 -0.14776211719E+02  0.29581091037E+02  0.29343273121E+03  0.29528993401E+03  0.00000000000E+00 0. -1.
         -2    1    1    2    0  503  0.14776211719E+02 -0.29581091037E+02  0.58100702618E+01  0.33572820796E+02  0.00000000000E+00 0.  1.
<mgrwt>
<rscale>  2 0.33066257E+02</rscale>
<asrwt>0</asrwt>
<pdfrwt beam="1">  1       21 0.48315807E-01 0.33066257E+02</pdfrwt>
<pdfrwt beam="2">  1       21 0.22784582E-02 0.33066257E+02</pdfrwt>
<totfact> 0.36645099E+06</totfact>
</mgrwt>
</event>
<event>
 4    1  0.2736402E+004  0.2837111E+02  0.7546771E-02  0.1616825E+00
         21   -1    0    0  503  502  0.00000000000E+00  0.00000000000E+00  0.94371366829E+02  0.94371366829E+02  0.00000000000E+00 0.  1.
         21   -1    0    0  501  503 -0.00000000000E+00 -0.00000000000E+00 -0.35247079832E+02  0.35247079832E+02  0.00000000000E+00 0. -1.
          2    1    1    2  501    0 -0.28325833982E+02  0.16021966633E+01 -0.26863378272E+02  0.39071229788E+02  0.00000000000E+00 0. -1.
         -2    1    1    2    0  502  0.28325833982E+02 -0.16021966633E+01  0.85987665269E+02  0.90547216873E+02  0.00000000000E+00 0.  1.
<mgrwt>
<rscale>  2 0.28371110E+02</rscale>
<asrwt>0</asrwt>
<pdfrwt beam="1">  1       21 0.14518672E-01 0.28371110E+02</pdfrwt>
<pdfrwt beam="2">  1       21 0.54226277E-02 0.28371110E+02</pdfrwt>
<totfact> 0.81304876E+06</totfact>
</mgrwt>
</event>
<event>
 4    1  0.2736402E+004  0.2329284E+02  0.7546771E-02  0.1686807E+00
         21   -1    0    0  503  502  0.00000000000E+00  0.00000000000E+00  0.92368660609E+03  0.92368660609E+03  0.00000000000E+00 0. -1.
         21   -1    0    0  501  503 -0.00000000000E+00 -0.00000000000E+00 -0.31289190457E+01  0.31289190457E+01  0.00000000000E+00 0.  1.
          2    1    1    2  501    0  0.41719637073E+01  0.22916178654E+02  0.42627005925E+02  0.48575901015E+02  0.00000000000E+00 0.  1.
         -2    1    1    2    0  502 -0.41719637073E+01 -0.22916178654E+02  0.87793068112E+03  0.87823962412E+03  0.00000000000E+00 0. -1.
<mgrwt>
<rscale>  2 0.23292843E+02</rscale>
<asrwt>0</asrwt>
<pdfrwt beam="1">  1       21 0.14210541E+00 0.23292843E+02</pdfrwt>
<pdfrwt beam="2">  1       21 0.48137290E-03 0.23292843E+02</pdfrwt>
<totfact> 0.36960381E+06</totfact>
</mgrwt>
</event>
<event>
 4    1  0.2736402E+004  0.2921875E+02  0.7546771E-02  0.1606888E+00
         21   -1    0    0  501  502  0.00000000000E+00  0.00000000000E+00  0.21681103755E+02  0.21681103755E+02  0.00000000000E+00 0.  1.
         21   -1    0    0  502  503 -0.00000000000E+00 -0.00000000000E+00 -0.51993483344E+02  0.51993483344E+02  0.00000000000E+00 0. -1.
          2    1    1    2  501    0 -0.29217372852E+02 -0.28392258344E+00  0.29899175719E+01  0.29371331184E+02  0.00000000000E+00 0. -1.
         -2    1    1    2    0  503  0.29217372852E+02  0.28392258344E+00 -0.33302297161E+02  0.44303255914E+02  0.00000000000E+00 0.  1.
<mgrwt>
<rscale>  2 0.29218752E+02</rscale>
<asrwt>0</asrwt>
<pdfrwt beam="1">  1       21 0.33355545E-02 0.29218752E+02</pdfrwt>
<pdfrwt beam="2">  1       21 0.79989973E-02 0.29218752E+02</pdfrwt>
<totfact> 0.48253765E+07</totfact>
</mgrwt>
</event>
<event>
 4    1  0.2736402E+004  0.2088389E+02  0.7546771E-02  0.1728301E+00
         21   -1    0    0  503  502  0.00000000000E+00  0.00000000000E+00  0.11345919550E+03  0.11345919550E+03  0.00000000000E+00 0. -1.
         21   -1    0    0  501  503 -0.00000000000E+00 -0.00000000000E+00 -0.70449380799E+01  0.70449380799E+01  0.00000000000E+00 0.  1.
          2    1    1    2  501    0 -0.95647943113E+01 -0.18564788685E+02  0.12593454450E+02  0.24387122916E+02  0.00000000000E+00 0.  1.
         -2    1    1    2    0  502  0.95647943113E+01  0.18564788685E+02  0.93820802974E+02  0.96117010668E+02  0.00000000000E+00 0. -1.
<mgrwt>
<rscale>  2 0.20883885E+02</rscale>
<asrwt>0</asrwt>
<pdfrwt beam="1">  1       21 0.17455260E-01 0.20883885E+02</pdfrwt>
<pdfrwt beam="2">  1       21 0.10838367E-02 0.20883885E+02</pdfrwt>
<totfact> 0.67334453E+07</totfact>
</mgrwt>
</event>
<event>
 4    1  0.2736402E+004  0.2925760E+02  0.7546771E-02  0.1606443E+00
         21   -1    0    0  501  502  0.00000000000E+00  0.00000000000E+00  0.42195384773E+02  0.42195384773E+02  0.00000000000E+00 0.  1.
         21   -1    0    0  502  503 -0.00000000000E+00 -0.00000000000E+00 -0.20423906128E+02  0.20423906128E+02  0.00000000000E+00 0. -1.
          2    1    1    2  501    0  0.17568287832E+02 -0.23395783909E+02  0.83200261864E+01  0.30417598160E+02  0.00000000000E+00 0.  1.
         -2    1    1    2    0  503 -0.17568287832E+02  0.23395783909E+02  0.13451452458E+02  0.32201692740E+02  0.00000000000E+00 0. -1.
<mgrwt>
<rscale>  2 0.29257605E+02</rscale>
<asrwt>0</asrwt>
<pdfrwt beam="1">  1       21 0.64915976E-02 0.29257605E+02</pdfrwt>
<pdfrwt beam="2">  1       21 0.31421394E-02 0.29257605E+02</pdfrwt>
<totfact> 0.74654245E+07</totfact>
</mgrwt>
</event>
<event>
 4    1  0.2736402E+004  0.2643284E+02  0.7546771E-02  0.1641235E+00
         21   -1    0    0  501  502  0.00000000000E+00  0.00000000000E+00  0.73465451853E+03  0.73465451853E+03  0.00000000000E+00 0. -1.
         21   -1    0    0  502  503 -0.00000000000E+00 -0.00000000000E+00 -0.96020599273E+00  0.96020599273E+00  0.00000000000E+00 0.  1.
          2    1    1    2  501    0  0.13137244433E+01  0.26400176065E+02  0.40275809307E+03  0.40362454918E+03  0.00000000000E+00 0. -1.
         -2    1    1    2    0  503 -0.13137244433E+01 -0.26400176065E+02  0.33093621947E+03  0.33199017535E+03  0.00000000000E+00 0.  1.
<mgrwt>
<rscale>  2 0.26432843E+02</rscale>
<asrwt>0</asrwt>
<pdfrwt beam="1">  1       21 0.11302332E+00 0.26432843E+02</pdfrwt>
<pdfrwt beam="2">  1       21 0.14772459E-03 0.26432843E+02</pdfrwt>
<totfact> 0.35653435E+07</totfact>
</mgrwt>
</event>
<event>
 4    1  0.2736402E+004  0.2147144E+02  0.7546771E-02  0.1717557E+00
         21   -1    0    0  501  502  0.00000000000E+00  0.00000000000E+00  0.87023700471E+00  0.87023700471E+00  0.00000000000E+00 0. -1.
         21   -1    0    0  502  503 -0.00000000000E+00 -0.00000000000E+00 -0.13709692394E+04  0.13709692394E+04  0.00000000000E+00 0.  1.
          2    1    1    2  501    0 -0.18612213639E+02 -0.10705516170E+02 -0.14775829006E+03  0.14931019675E+03  0.00000000000E+00 0. -1.
         -2    1    1    2    0  503  0.18612213639E+02  0.10705516170E+02 -0.12223407124E+04  0.12225292797E+04  0.00000000000E+00 0.  1.
<mgrwt>
<rscale>  2 0.21471436E+02</rscale>
<asrwt>0</asrwt>
<pdfrwt beam="1">  1       21 0.13388251E-03 0.21471436E+02</pdfrwt>
<pdfrwt beam="2">  1       21 0.21091852E+00 0.21471436E+02</pdfrwt>
<totfact> 0.88584177E+06</totfact>
</mgrwt>
</event>
<event>
 4    1  0.2736402E+004  0.4267027E+02  0.7546771E-02  0.1489433E+00
         21   -1    0    0  501  502  0.00000000000E+00  0.00000000000E+00  0.18664303566E+02  0.18664303566E+02  0.00000000000E+00 0.  1.
         21   -1    0    0  502  503 -0.00000000000E+00 -0.00000000000E+00 -0.10258553573E+03  0.10258553573E+03  0.00000000000E+00 0. -1.
          2    1    1    2  501    0 -0.38055647032E+02  0.19300760493E+02 -0.28532405595E+02  0.51330787990E+02  0.00000000000E+00 0.  1.
         -2    1    1    2    0  503  0.38055647032E+02 -0.19300760493E+02 -0.55388826564E+02  0.69919051301E+02  0.00000000000E+00 0. -1.
<mgrwt>
<rscale>  2 0.42670266E+02</rscale>
<asrwt>0</asrwt>
<pdfrwt beam="1">  1       21 0.28714313E-02 0.42670266E+02</pdfrwt>
<pdfrwt beam="2">  1       21 0.15782390E-01 0.42670266E+02</pdfrwt>
<totfact> 0.20738627E+07</totfact>
</mgrwt>
</event>
<event>
 4    1  0.2736402E+004  0.3081065E+02  0.7546771E-02  0.1589297E+00
         21   -1    0    0  503  502  0.00000000000E+00  0.00000000000E+00  0.17020894123E+01  0.17020894123E+01  0.00000000000E+00 0. -1.
         21   -1    0    0  501  503 -0.00000000000E+00 -0.00000000000E+00 -0.17476070953E+04  0.17476070953E+04  0.00000000000E+00 0.  1.
          2    1    1    2  501    0  0.23384546910E+02 -0.20061389082E+02 -0.15946692808E+04  0.15949668998E+04  0.00000000000E+00 0.  1.
         -2    1    1    2    0  502 -0.23384546910E+02  0.20061389082E+02 -0.15123572515E+03  0.15434228496E+03  0.00000000000E+00 0. -1.
<mgrwt>
<rscale>  2 0.30810653E+02</rscale>
<asrwt>0</asrwt>
<pdfrwt beam="1">  1       21 0.26185947E-03 0.30810653E+02</pdfrwt>
<pdfrwt beam="2">  1       21 0.26886308E+00 0.30810653E+02</pdfrwt>
<totfact> 0.17195698E+06</totfact>
</mgrwt>
</event>
<event>
 4    1  0.2736402E+004  0.2775036E+02  0.7546771E-02  0.1624375E+00
         21   -1    0    0  503  502  0.00000000000E+00  0.00000000000E+00  0.17622932191E+01  0.17622932191E+01  0.00000000000E+00 0. -1.
         21   -1    0    0  501  503 -0.00000000000E+00 -0.00000000000E+00 -0.93959482238E+03  0.93959482238E+03  0.00000000000E+00 0.  1.
          2    1    1    2  501    0  0.99101468718E+00 -0.27732659658E+02 -0.81316537265E+03  0.81363874404E+03  0.00000000000E+00 0.  1.
         -2    1    1    2    0  502 -0.99101468718E+00  0.27732659658E+02 -0.12466715650E+03  0.12771837155E+03  0.00000000000E+00 0. -1.
<mgrwt>
<rscale>  2 0.27750361E+02</rscale>
<asrwt>0</asrwt>
<pdfrwt beam="1">  1       21 0.27112151E-03 0.27750361E+02</pdfrwt>
<pdfrwt beam="2">  1       21 0.14455333E+00 0.27750361E+02</pdfrwt>
<totfact> 0.84204846E+06</totfact>
</mgrwt>
</event>
<event>
 4    1  0.2736402E+004  0.2793006E+02  0.7546771E-02  0.1622165E+00
         21   -1    0    0  501  502  0.00000000000E+00  0.00000000000E+00  0.97739627085E+02  0.97739627085E+02  0.00000000000E+00 0. -1.
         21   -1    0    0  502  503 -0.00000000000E+00 -0.00000000000E+00 -0.10471039393E+02  0.10471039393E+02  0.00000000000E+00 0.  1.
          2    1    1    2  501    0  0.25969690055E+02 -0.10279260663E+02  0.70017238775E+02  0.75382370134E+02  0.00000000000E+00 0. -1.
         -2    1    1    2    0  503 -0.25969690055E+02  0.10279260663E+02  0.17251348917E+02  0.32828296344E+02  0.00000000000E+00 0.  1.
<mgrwt>
<rscale>  2 0.27930056E+02</rscale>
<asrwt>0</asrwt>
<pdfrwt beam="1">  1       21 0.15036865E-01 0.27930056E+02</pdfrwt>
<pdfrwt beam="2">  1       21 0.16109292E-02 0.27930056E+02</pdfrwt>
<totfact> 0.51288227E+07</totfact>
</mgrwt>
</event>
<event>
 4    1  0.2736402E+004  0.2105379E+02  0.7546771E-02  0.1725149E+00
         21   -1    0    0  501  502  0.00000000000E+00  0.00000000000E+00  0.18969442826E+03  0.18969442826E+03  0.00000000000E+00 0.  1.
         21   -1    0    0  502  503 -0.00000000000E+00 -0.00000000000E+00 -0.42861467893E+01  0.42861467893E+01  0.00000000000E+00 0. -1.
          2    1    1    2  501    0 -0.11699103869E+02 -0.17504089545E+02  0.15811480107E+03  0.15951035232E+03  0.00000000000E+00 0.  1.
         -2    1    1    2    0  503  0.11699103869E+02  0.17504089545E+02  0.27293480401E+02  0.34470222723E+02  0.00000000000E+00 0. -1.
<mgrwt>
<rscale>  2 0.21053793E+02</rscale>
<asrwt>0</asrwt>
<pdfrwt beam="1">  1       21 0.29183752E-01 0.21053793E+02</pdfrwt>
<pdfrwt beam="2">  1       21 0.65940735E-03 0.21053793E+02</pdfrwt>
<totfact> 0.57299048E+07</totfact>
</mgrwt>
</event>
<event>
 4    1  0.2736402E+004  0.3372195E+02  0.7546771E-02  0.1560252E+00
         21   -1    0    0  501  502  0.00000000000E+00  0.00000000000E+00  0.17297644174E+03  0.17297644174E+03  0.00000000000E+00 0.  1.
         21   -1    0    0  502  503 -0.00000000000E+00 -0.00000000000E+00 -0.13419905325E+02  0.13419905325E+02  0.00000000000E+00 0. -1.
          2    1    1    2  501    0 -0.33117021140E+02 -0.63586595577E+01  0.14634297011E+03  0.15017800951E+03  0.00000000000E+00 0.  1.
         -2    1    1    2    0  503  0.33117021140E+02  0.63586595577E+01  0.13213566305E+02  0.36218337552E+02  0.00000000000E+00 0. -1.
<mgrwt>
<rscale>  2 0.33721946E+02</rscale>
<asrwt>0</asrwt>
<pdfrwt beam="1">  1       21 0.26611759E-01 0.33721946E+02</pdfrwt>
<pdfrwt beam="2">  1       21 0.20646009E-02 0.33721946E+02</pdfrwt>
<totfact> 0.13217024E+07</totfact>
</mgrwt>
</event>
<event>
 4    1  0.2736402E+004  0.2587138E+02  0.7546771E-02  0.1648792E+00
         21   -1    0    0  501  502  0.00000000000E+00  0.00000000000E+00  0.21467674323E+03  0.21467674323E+03  0.00000000000E+00 0.  1.
         21   -1    0    0  502  503 -0.00000000000E+00 -0.00000000000E+00 -0.48520797366E+01  0.48520797366E+01  0.00000000000E+00 0. -1.
          2    1    1    2  501    0 -0.50041550163E+01  0.25382807466E+02  0.17053467292E+03  0.17248595059E+03  0.00000000000E+00 0.  1.
         -2    1    1    2    0  503  0.50041550163E+01 -0.25382807466E+02  0.39289990568E+02  0.47042872373E+02  0.00000000000E+00 0. -1.
<mgrwt>
<rscale>  2 0.25871383E+02</rscale>
<asrwt>0</asrwt>
<pdfrwt beam="1">  1       21 0.33027184E-01 0.25871383E+02</pdfrwt>
<pdfrwt beam="2">  1       21 0.74647397E-03 0.25871383E+02</pdfrwt>
<totfact> 0.39922680E+07</totfact>
</mgrwt>
</event>
<event>
 4    1  0.2736402E+004  0.5205812E+02  0.7546771E-02  0.1434546E+00
         21   -1    0    0  501  502  0.00000000000E+00  0.00000000000E+00  0.25290968588E+02  0.25290968588E+02  0.00000000000E+00 0. -1.
         21   -1    0    0  502  503 -0.00000000000E+00 -0.00000000000E+00 -0.15051105731E+03  0.15051105731E+03  0.00000000000E+00 0.  1.
          2    1    1    2  501    0  0.52047764386E+02  0.10384793397E+01 -0.15432464235E+02  0.54297414020E+02  0.00000000000E+00 0. -1.
         -2    1    1    2    0  503 -0.52047764386E+02 -0.10384793397E+01 -0.10978762449E+03  0.12150461188E+03  0.00000000000E+00 0.  1.
<mgrwt>
<rscale>  2 0.52058123E+02</rscale>
<asrwt>0</asrwt>
<pdfrwt beam="1">  1       21 0.38909182E-02 0.52058123E+02</pdfrwt>
<pdfrwt beam="2">  1       21 0.23155547E-01 0.52058123E+02</pdfrwt>
<totfact> 0.65873469E+06</totfact>
</mgrwt>
</event>
<event>
 4    1  0.2736402E+004  0.2326971E+02  0.7546771E-02  0.1687175E+00
         21   -1    0    0  503  502  0.00000000000E+00  0.00000000000E+00  0.22637670017E+03  0.22637670017E+03  0.00000000000E+00 0. -1.
         21   -1    0    0  501  503 -0.00000000000E+00 -0.00000000000E+00 -0.11763938016E+02  0.11763938016E+02  0.00000000000E+00 0.  1.
          2    1    1    2  501    0 -0.21921833433E+02  0.78046462312E+01  0.10284067241E+01  0.23292421605E+02  0.00000000000E+00 0.  1.
         -2    1    1    2    0  502  0.21921833433E+02 -0.78046462312E+01  0.21358435543E+03  0.21484821658E+03  0.00000000000E+00 0. -1.
<mgrwt>
<rscale>  2 0.23269707E+02</rscale>
<asrwt>0</asrwt>
<pdfrwt beam="1">  1       21 0.34827181E-01 0.23269707E+02</pdfrwt>
<pdfrwt beam="2">  1       21 0.18098368E-02 0.23269707E+02</pdfrwt>
<totfact> 0.92842815E+06</totfact>
</mgrwt>
</event>
<event>
 4    1  0.2736402E+004  0.2418499E+02  0.7546771E-02  0.1672992E+00
         21   -1    0    0  501  502  0.00000000000E+00  0.00000000000E+00  0.18274754951E+02  0.18274754951E+02  0.00000000000E+00 0. -1.
         21   -1    0    0  502  503 -0.00000000000E+00 -0.00000000000E+00 -0.64697404136E+02  0.64697404136E+02  0.00000000000E+00 0.  1.
          2    1    1    2  501    0  0.24075354936E+02 -0.23002395742E+01  0.62784456949E+01  0.24986650390E+02  0.00000000000E+00 0. -1.
         -2    1    1    2    0  503 -0.24075354936E+02  0.23002395742E+01 -0.52701094880E+02  0.57985508697E+02  0.00000000000E+00 0.  1.
<mgrwt>
<rscale>  2 0.24184992E+02</rscale>
<asrwt>0</asrwt>
<pdfrwt beam="1">  1       21 0.28115008E-02 0.24184992E+02</pdfrwt>
<pdfrwt beam="2">  1       21 0.99534466E-02 0.24184992E+02</pdfrwt>
<totfact> 0.42060718E+07</totfact>
</mgrwt>
</event>
<event>
 4    1  0.2736402E+004  0.2706933E+02  0.7546771E-02  0.1632943E+00
         21   -1    0    0  503  502  0.00000000000E+00  0.00000000000E+00  0.88992684498E+02  0.88992684498E+02  0.00000000000E+00 0. -1.
         21   -1    0    0  501  503 -0.00000000000E+00 -0.00000000000E+00 -0.96733952297E+01  0.96733952297E+01  0.00000000000E+00 0.  1.
          2    1    1    2  501    0 -0.25051170652E+02 -0.10256099882E+02  0.20628395040E+02  0.34033504341E+02  0.00000000000E+00 0.  1.
         -2    1    1    2    0  502  0.25051170652E+02  0.10256099882E+02  0.58690894229E+02  0.64632575387E+02  0.00000000000E+00 0. -1.
<mgrwt>
<rscale>  2 0.27069332E+02</rscale>
<asrwt>0</asrwt>
<pdfrwt beam="1">  1       21 0.13691182E-01 0.27069332E+02</pdfrwt>
<pdfrwt beam="2">  1       21 0.14882147E-02 0.27069332E+02</pdfrwt>
<totfact> 0.67466873E+07</totfact>
</mgrwt>
</event>
<event>
 4    1  0.2736402E+004  0.3439401E+02  0.7546771E-02  0.1554049E+00
         21   -1    0    0  503  502  0.00000000000E+00  0.00000000000E+00  0.63586092269E+01  0.63586092269E+01  0.00000000000E+00 0. -1.
         21   -1    0    0  501  503 -0.00000000000E+00 -0.00000000000E+00 -0.24712842233E+03  0.24712842233E+03  0.00000000000E+00 0.  1.
          2    1    1    2  501    0  0.79882039159E+01 -0.33453501540E+02 -0.18340050213E+03  0.18659767509E+03  0.00000000000E+00 0.  1.
         -2    1    1    2    0  502 -0.79882039159E+01  0.33453501540E+02 -0.57369310972E+02  0.66889356467E+02  0.00000000000E+00 0. -1.
<mgrwt>
<rscale>  2 0.34394014E+02</rscale>
<asrwt>0</asrwt>
<pdfrwt beam="1">  1       21 0.97824759E-03 0.34394014E+02</pdfrwt>
<pdfrwt beam="2">  1       21 0.38019757E-01 0.34394014E+02</pdfrwt>
<totfact> 0.21534708E+07</totfact>
</mgrwt>
</event>
<event>
 4    1  0.2736402E+004  0.2569584E+02  0.7546771E-02  0.1651204E+00
         21   -1    0    0  501  502  0.00000000000E+00  0.00000000000E+00  0.94661165935E+00  0.94661165935E+00  0.00000000000E+00 0.  1.
         21   -1    0    0  502  503 -0.00000000000E+00 -0.00000000000E+00 -0.90115616762E+03  0.90115616762E+03  0.00000000000E+00 0. -1.
          2    1    1    2  501    0 -0.13178100062E+02  0.22059326989E+02 -0.23568821129E+03  0.23708481429E+03  0.00000000000E+00 0.  1.
         -2    1    1    2    0  503  0.13178100062E+02 -0.22059326989E+02 -0.66452134467E+03  0.66501796499E+03  0.00000000000E+00 0. -1.
<mgrwt>
<rscale>  2 0.25695841E+02</rscale>
<asrwt>0</asrwt>
<pdfrwt beam="1">  1       21 0.14563328E-03 0.25695841E+02</pdfrwt>
<pdfrwt beam="2">  1       21 0.13863873E+00 0.25695841E+02</pdfrwt>
<totfact> 0.22645580E+07</totfact>
</mgrwt>
</event>
<event>
 4    1  0.2736402E+004  0.2653503E+02  0.7546771E-02  0.1639885E+00
         21   -1    0    0  503  502  0.00000000000E+00  0.00000000000E+00  0.40134273897E+02  0.40134273897E+02  0.00000000000E+00 0.  1.
         21   -1    0    0  501  503 -0.00000000000E+00 -0.00000000000E+00 -0.17548599733E+02  0.17548599733E+02  0.00000000000E+00 0. -1.
          2    1    1    2  501    0 -0.18894637271E+02 -0.18630629239E+02  0.10815839081E+02  0.28654668703E+02  0.00000000000E+00 0.  1.
         -2    1    1    2    0  502  0.18894637271E+02  0.18630629239E+02  0.11769835083E+02  0.29028204928E+02  0.00000000000E+00 0. -1.
<mgrwt>
<rscale>  2 0.26535027E+02</rscale>
<asrwt>0</asrwt>
<pdfrwt beam="1">  1       21 0.61745036E-02 0.26535027E+02</pdfrwt>
<pdfrwt beam="2">  1       21 0.26997846E-02 0.26535027E+02</pdfrwt>
<totfact> 0.10017473E+08</totfact>
</mgrwt>
</event>
<event>
 4    1  0.2736402E+004  0.2328675E+02  0.7546771E-02  0.1686904E+00
         21   -1    0    0  503  502  0.00000000000E+00  0.00000000000E+00  0.10739431155E+03  0.10739431155E+03  0.00000000000E+00 0. -1.
         21   -1    0    0  501  503 -0.00000000000E+00 -0.00000000000E+00 -0.97444610543E+01  0.97444610543E+01  0.00000000000E+00 0.  1.
          2    1    1    2  501    0  0.19382568272E+02 -0.12906926686E+02  0.81699069433E+01  0.24678332374E+02  0.00000000000E+00 0.  1.
         -2    1    1    2    0  502 -0.19382568272E+02  0.12906926686E+02  0.89479943551E+02  0.92460440228E+02  0.00000000000E+00 0. -1.
<mgrwt>
<rscale>  2 0.23286750E+02</rscale>
<asrwt>0</asrwt>
<pdfrwt beam="1">  1       21 0.16522201E-01 0.23286750E+02</pdfrwt>
<pdfrwt beam="2">  1       21 0.14991479E-02 0.23286750E+02</pdfrwt>
<totfact> 0.46640087E+07</totfact>
</mgrwt>
</event>
<event>
 4    1  0.2736402E+004  0.2632819E+02  0.7546771E-02  0.1642626E+00
         21   -1    0    0  501  502  0.00000000000E+00  0.00000000000E+00  0.12537411149E+02  0.12537411149E+02  0.00000000000E+00 0.  1.
         21   -1    0    0  502  503 -0.00000000000E+00 -0.00000000000E+00 -0.56147487694E+02  0.56147487694E+02  0.00000000000E+00 0. -1.
          2    1    1    2  501    0  0.22268741299E+02  0.14045531365E+02 -0.17557111388E+02  0.31645314829E+02  0.00000000000E+00 0. -1.
         -2    1    1    2    0  503 -0.22268741299E+02 -0.14045531365E+02 -0.26052965158E+02  0.37039584013E+02  0.00000000000E+00 0.  1.
<mgrwt>
<rscale>  2 0.26328194E+02</rscale>
<asrwt>0</asrwt>
<pdfrwt beam="1">  1       21 0.19288324E-02 0.26328194E+02</pdfrwt>
<pdfrwt beam="2">  1       21 0.86380752E-02 0.26328194E+02</pdfrwt>
<totfact> 0.97295660E+07</totfact>
</mgrwt>
</event>
<event>
 4    1  0.2736402E+004  0.2239693E+02  0.7546771E-02  0.1701476E+00
         21   -1    0    0  503  502  0.00000000000E+00  0.00000000000E+00  0.14876640136E+01  0.14876640136E+01  0.00000000000E+00 0.  1.
         21   -1    0    0  501  503 -0.00000000000E+00 -0.00000000000E+00 -0.38001811404E+03  0.38001811404E+03  0.00000000000E+00 0. -1.
          2    1    1    2  501    0 -0.17833066889E+02 -0.13550067991E+02 -0.25330400246E+03  0.25429223401E+03  0.00000000000E+00 0.  1.
         -2    1    1    2    0  502  0.17833066889E+02  0.13550067991E+02 -0.12522644757E+03  0.12721354404E+03  0.00000000000E+00 0. -1.
<mgrwt>
<rscale>  2 0.22396933E+02</rscale>
<asrwt>0</asrwt>
<pdfrwt beam="1">  1       21 0.22887110E-03 0.22396933E+02</pdfrwt>
<pdfrwt beam="2">  1       21 0.58464398E-01 0.22396933E+02</pdfrwt>
<totfact> 0.73606887E+07</totfact>
</mgrwt>
</event>
<event>
 4    1  0.2736402E+004  0.3460977E+02  0.7546771E-02  0.1552093E+00
         21   -1    0    0  501  502  0.00000000000E+00  0.00000000000E+00  0.44576663794E+03  0.44576663794E+03  0.00000000000E+00 0.  1.
         21   -1    0    0  502  503 -0.00000000000E+00 -0.00000000000E+00 -0.35225336619E+01  0.35225336619E+01  0.00000000000E+00 0. -1.
          2    1    1    2  501    0 -0.67817705363E+01  0.33938823320E+02  0.33052138699E+03  0.33232848719E+03  0.00000000000E+00 0.  1.
         -2    1    1    2    0  503  0.67817705363E+01 -0.33938823320E+02  0.11172271728E+03  0.11696068441E+03  0.00000000000E+00 0. -1.
<mgrwt>
<rscale>  2 0.34609769E+02</rscale>
<asrwt>0</asrwt>
<pdfrwt beam="1">  1       21 0.68579438E-01 0.34609769E+02</pdfrwt>
<pdfrwt beam="2">  1       21 0.54192861E-03 0.34609769E+02</pdfrwt>
<totfact> 0.16293899E+07</totfact>
</mgrwt>
</event>
<event>
 4    1  0.2736402E+004  0.2538123E+02  0.7546771E-02  0.1655586E+00
         21   -1    0    0  501  502  0.00000000000E+00  0.00000000000E+00  0.11616067512E+02  0.11616067512E+02  0.00000000000E+00 0. -1.
         21   -1    0    0  502  503 -0.00000000000E+00 -0.00000000000E+00 -0.61927604396E+02  0.61927604396E+02  0.00000000000E+00 0.  1.
          2    1    1    2  501    0  0.41128925427E+01  0.25045779351E+02 -0.13270660032E+02  0.28641183042E+02  0.00000000000E+00 0. -1.
         -2    1    1    2    0  503 -0.41128925427E+01 -0.25045779351E+02 -0.37040876852E+02  0.44902488866E+02  0.00000000000E+00 0.  1.
<mgrwt>
<rscale>  2 0.25381232E+02</rscale>
<asrwt>0</asrwt>
<pdfrwt beam="1">  1       21 0.17870873E-02 0.25381232E+02</pdfrwt>
<pdfrwt beam="2">  1       21 0.95273239E-02 0.25381232E+02</pdfrwt>
<totfact> 0.92174047E+07</totfact>
</mgrwt>
</event>
<event>
 4    1  0.2736402E+004  0.2442561E+02  0.7546771E-02  0.1669392E+00
         21   -1    0    0  503  502  0.00000000000E+00  0.00000000000E+00  0.49006110109E+01  0.49006110109E+01  0.00000000000E+00 0.  1.
         21   -1    0    0  501  503 -0.00000000000E+00 -0.00000000000E+00 -0.16697002135E+03  0.16697002135E+03  0.00000000000E+00 0. -1.
          2    1    1    2  501    0 -0.17165180560E+02 -0.17377199660E+02 -0.12576027911E+03  0.12811033640E+03  0.00000000000E+00 0. -1.
         -2    1    1    2    0  502  0.17165180560E+02  0.17377199660E+02 -0.36309131232E+02  0.43760295960E+02  0.00000000000E+00 0.  1.
<mgrwt>
<rscale>  2 0.24425611E+02</rscale>
<asrwt>0</asrwt>
<pdfrwt beam="1">  1       21 0.75394023E-03 0.24425611E+02</pdfrwt>
<pdfrwt beam="2">  1       21 0.25687693E-01 0.24425611E+02</pdfrwt>
<totfact> 0.61339500E+07</totfact>
</mgrwt>
</event>
<event>
 4    1  0.2736402E+004  0.2938251E+02  0.7546771E-02  0.1605016E+00
         21   -1    0    0  503  502  0.00000000000E+00  0.00000000000E+00  0.14516139944E+03  0.14516139944E+03  0.00000000000E+00 0. -1.
         21   -1    0    0  501  503 -0.00000000000E+00 -0.00000000000E+00 -0.27325484793E+02  0.27325484793E+02  0.00000000000E+00 0.  1.
          2    1    1    2  501    0 -0.21909076930E+02  0.19578670713E+02 -0.17364839036E+02  0.34130186545E+02  0.00000000000E+00 0.  1.
         -2    1    1    2    0  502  0.21909076930E+02 -0.19578670713E+02  0.13520075368E+03  0.13835669769E+03  0.00000000000E+00 0. -1.
<mgrwt>
<rscale>  2 0.29382512E+02</rscale>
<asrwt>0</asrwt>
<pdfrwt beam="1">  1       21 0.22332523E-01 0.29382512E+02</pdfrwt>
<pdfrwt beam="2">  1       21 0.42039208E-02 0.29382512E+02</pdfrwt>
<totfact> 0.57973705E+06</totfact>
</mgrwt>
</event>
<event>
 4    1  0.2736402E+004  0.2945477E+02  0.7546771E-02  0.1604195E+00
         21   -1    0    0  501  502  0.00000000000E+00  0.00000000000E+00  0.12197579549E+03  0.12197579549E+03  0.00000000000E+00 0.  1.
         21   -1    0    0  502  503 -0.00000000000E+00 -0.00000000000E+00 -0.90447527474E+01  0.90447527474E+01  0.00000000000E+00 0. -1.
          2    1    1    2  501    0 -0.27376544941E+02  0.10867768473E+02  0.86742650464E+02  0.91607155910E+02  0.00000000000E+00 0.  1.
         -2    1    1    2    0  503  0.27376544941E+02 -0.10867768473E+02  0.26188392275E+02  0.39413392324E+02  0.00000000000E+00 0. -1.
<mgrwt>
<rscale>  2 0.29454772E+02</rscale>
<asrwt>0</asrwt>
<pdfrwt beam="1">  1       21 0.18765506E-01 0.29454772E+02</pdfrwt>
<pdfrwt beam="2">  1       21 0.13915005E-02 0.29454772E+02</pdfrwt>
<totfact> 0.44241991E+07</totfact>
</mgrwt>
</event>
<event>
 4    1  0.2736402E+004  0.2054222E+02  0.7546771E-02  0.1734755E+00
         21   -1    0    0  503  502  0.00000000000E+00  0.00000000000E+00  0.91640044209E+01  0.91640044209E+01  0.00000000000E+00 0. -1.
         21   -1    0    0  501  503 -0.00000000000E+00 -0.00000000000E+00 -0.85727510662E+02  0.85727510662E+02  0.00000000000E+00 0.  1.
          2    1    1    2  501    0 -0.20542056217E+02  0.82971466092E-01 -0.70560829538E+02  0.73490228078E+02  0.00000000000E+00 0.  1.
         -2    1    1    2    0  502  0.20542056217E+02 -0.82971466092E-01 -0.60026767039E+01  0.21401287006E+02  0.00000000000E+00 0. -1.
<mgrwt>
<rscale>  2 0.20542224E+02</rscale>
<asrwt>0</asrwt>
<pdfrwt beam="1">  1       21 0.14098469E-02 0.20542224E+02</pdfrwt>
<pdfrwt beam="2">  1       21 0.13188847E-01 0.20542224E+02</pdfrwt>
<totfact> 0.72589283E+07</totfact>
</mgrwt>
</event>
<event>
 4    1  0.2736402E+004  0.2552642E+02  0.7546771E-02  0.1653554E+00
         21   -1    0    0  503  502  0.00000000000E+00  0.00000000000E+00  0.15443289108E+02  0.15443289108E+02  0.00000000000E+00 0.  1.
         21   -1    0    0  501  503 -0.00000000000E+00 -0.00000000000E+00 -0.12765292228E+03  0.12765292228E+03  0.00000000000E+00 0. -1.
          2    1    1    2  501    0 -0.23677528848E+02  0.95379521423E+01 -0.11464635574E+03  0.11745375596E+03  0.00000000000E+00 0. -1.
         -2    1    1    2    0  502  0.23677528848E+02 -0.95379521423E+01  0.24367225750E+01  0.25642455427E+02  0.00000000000E+00 0.  1.
<mgrwt>
<rscale>  2 0.25526416E+02</rscale>
<asrwt>0</asrwt>
<pdfrwt beam="1">  1       21 0.23758905E-02 0.25526416E+02</pdfrwt>
<pdfrwt beam="2">  1       21 0.19638912E-01 0.25526416E+02</pdfrwt>
<totfact> 0.17404261E+07</totfact>
</mgrwt>
</event>
<event>
 4    1  0.2736402E+004  0.2285922E+02  0.7546771E-02  0.1693802E+00
         21   -1    0    0  503  502  0.00000000000E+00  0.00000000000E+00  0.10285126129E+02  0.10285126129E+02  0.00000000000E+00 0. -1.
         21   -1    0    0  501  503 -0.00000000000E+00 -0.00000000000E+00 -0.62527267091E+02  0.62527267091E+02  0.00000000000E+00 0.  1.
          2    1    1    2  501    0 -0.14152622018E+02  0.17951240850E+02 -0.41883825237E+02  0.47715810530E+02  0.00000000000E+00 0.  1.
         -2    1    1    2    0  502  0.14152622018E+02 -0.17951240850E+02 -0.10358315724E+02  0.25096582689E+02  0.00000000000E+00 0. -1.
<mgrwt>
<rscale>  2 0.22859216E+02</rscale>
<asrwt>0</asrwt>
<pdfrwt beam="1">  1       21 0.15823271E-02 0.22859216E+02</pdfrwt>
<pdfrwt beam="2">  1       21 0.96195794E-02 0.22859216E+02</pdfrwt>
<totfact> 0.10614742E+08</totfact>
</mgrwt>
</event>
<event>
 4    1  0.2736402E+004  0.2784548E+02  0.7546771E-02  0.1623203E+00
         21   -1    0    0  503  502  0.00000000000E+00  0.00000000000E+00  0.17005584893E+02  0.17005584893E+02  0.00000000000E+00 0. -1.
         21   -1    0    0  501  503 -0.00000000000E+00 -0.00000000000E+00 -0.20900719908E+03  0.20900719908E+03  0.00000000000E+00 0.  1.
          2    1    1    2  501    0  0.89247711117E+00 -0.27831171665E+02 -0.19592359591E+03  0.19789246086E+03  0.00000000000E+00 0.  1.
         -2    1    1    2    0  502 -0.89247711117E+00  0.27831171665E+02  0.39219817169E+01  0.28120323117E+02  0.00000000000E+00 0. -1.
<mgrwt>
<rscale>  2 0.27845478E+02</rscale>
<asrwt>0</asrwt>
<pdfrwt beam="1">  1       21 0.26162439E-02 0.27845478E+02</pdfrwt>
<pdfrwt beam="2">  1       21 0.32154953E-01 0.27845478E+02</pdfrwt>
<totfact> 0.62717961E+06</totfact>
</mgrwt>
</event>
<event>
 4    1  0.2736402E+004  0.2705285E+02  0.7546771E-02  0.1633154E+00
         21   -1    0    0  503  502  0.00000000000E+00  0.00000000000E+00  0.43046241710E+02  0.43046241710E+02  0.00000000000E+00 0.  1.
         21   -1    0    0  501  503 -0.00000000000E+00 -0.00000000000E+00 -0.25568559396E+02  0.25568559396E+02  0.00000000000E+00 0. -1.
          2    1    1    2  501    0 -0.13817637453E+02 -0.23257893575E+02 -0.11119685121E+02  0.29249001958E+02  0.00000000000E+00 0. -1.
         -2    1    1    2    0  502  0.13817637453E+02  0.23257893575E+02  0.28597367435E+02  0.39365799148E+02  0.00000000000E+00 0.  1.
<mgrwt>
<rscale>  2 0.27052850E+02</rscale>
<asrwt>0</asrwt>
<pdfrwt beam="1">  1       21 0.66224987E-02 0.27052850E+02</pdfrwt>
<pdfrwt beam="2">  1       21 0.39336245E-02 0.27052850E+02</pdfrwt>
<totfact> 0.49732104E+07</totfact>
</mgrwt>
</event>
<event>
 4    1  0.2736402E+004  0.2368620E+02  0.7546771E-02  0.1680623E+00
         21   -1    0    0  503  502  0.00000000000E+00  0.00000000000E+00  0.50096417466E+03  0.50096417466E+03  0.00000000000E+00 0.  1.
         21   -1    0    0  501  503 -0.00000000000E+00 -0.00000000000E+00 -0.47420575164E+01  0.47420575164E+01  0.00000000000E+00 0. -1.
          2    1    1    2  501    0  0.70351972775E+01 -0.22617296392E+02  0.27123506204E+02  0.36010008131E+02  0.00000000000E+00 0. -1.
         -2    1    1    2    0  502 -0.70351972775E+01  0.22617296392E+02  0.46909861094E+03  0.46969622404E+03  0.00000000000E+00 0.  1.
<mgrwt>
<rscale>  2 0.23686201E+02</rscale>
<asrwt>0</asrwt>
<pdfrwt beam="1">  1       21 0.77071370E-01 0.23686201E+02</pdfrwt>
<pdfrwt beam="2">  1       21 0.72954771E-03 0.23686201E+02</pdfrwt>
<totfact> 0.77334209E+06</totfact>
</mgrwt>
</event>
<event>
 4    1  0.2736402E+004  0.2247443E+02  0.7546771E-02  0.1700174E+00
         21   -1    0    0  501  502  0.00000000000E+00  0.00000000000E+00  0.23134750724E+03  0.23134750724E+03  0.00000000000E+00 0. -1.
         21   -1    0    0  502  503 -0.00000000000E+00 -0.00000000000E+00 -0.58411948911E+01  0.58411948911E+01  0.00000000000E+00 0.  1.
          2    1    1    2  501    0 -0.59799831675E+01  0.21664256869E+02  0.20660200890E+03  0.20782081298E+03  0.00000000000E+00 0. -1.
         -2    1    1    2    0  503  0.59799831675E+01 -0.21664256869E+02  0.18904303441E+02  0.29367889147E+02  0.00000000000E+00 0.  1.
<mgrwt>
<rscale>  2 0.22474435E+02</rscale>
<asrwt>0</asrwt>
<pdfrwt beam="1">  1       21 0.35591917E-01 0.22474435E+02</pdfrwt>
<pdfrwt beam="2">  1       21 0.89864555E-03 0.22474435E+02</pdfrwt>
<totfact> 0.25532641E+07</totfact>
</mgrwt>
</event>
<event>
 4    1  0.2736402E+004  0.2202584E+02  0.7546771E-02  0.1707805E+00
         21   -1    0    0  501  502  0.00000000000E+00  0.00000000000E+00  0.12688359431E+01  0.12688359431E+01  0.00000000000E+00 0.  1.
         21   -1    0    0  502  503 -0.00000000000E+00 -0.00000000000E+00 -0.39870112270E+03  0.39870112270E+03  0.00000000000E+00 0. -1.
          2    1    1    2  501    0  0.18817086265E+02 -0.11447924467E+02 -0.15821517921E+03  0.15974097984E+03  0.00000000000E+00 0.  1.
         -2    1    1    2    0  503 -0.18817086265E+02  0.11447924467E+02 -0.23921710755E+03  0.24022897880E+03  0.00000000000E+00 0. -1.
<mgrwt>
<rscale>  2 0.22025842E+02</rscale>
<asrwt>0</asrwt>
<pdfrwt beam="1">  1       21 0.19520570E-03 0.22025842E+02</pdfrwt>
<pdfrwt beam="2">  1       21 0.61338582E-01 0.22025842E+02</pdfrwt>
<totfact> 0.83807275E+07</totfact>
</mgrwt>
</event>
<event>
 4    1  0.2736402E+004  0.2672938E+02  0.7546771E-02  0.1637337E+00
         21   -1    0    0  501  502  0.00000000000E+00  0.00000000000E+00  0.38970861293E+03  0.38970861293E+03  0.00000000000E+00 0.  1.
         21   -1    0    0  502  503 -0.00000000000E+00 -0.00000000000E+00 -0.34852517439E+01  0.34852517439E+01  0.00000000000E+00 0. -1.
          2    1    1    2  501    0 -0.15969559282E+02 -0.21434387554E+02  0.32846096992E+03  0.32954676232E+03  0.00000000000E+00 0.  1.
         -2    1    1    2    0  503  0.15969559282E+02  0.21434387554E+02  0.57762391262E+02  0.63647102352E+02  0.00000000000E+00 0. -1.
<mgrwt>
<rscale>  2 0.26729381E+02</rscale>
<asrwt>0</asrwt>
<pdfrwt beam="1">  1       21 0.59955137E-01 0.26729381E+02</pdfrwt>
<pdfrwt beam="2">  1       21 0.53619288E-03 0.26729381E+02</pdfrwt>
<totfact> 0.20879754E+07</totfact>
</mgrwt>
</event>
<event>
 4    1  0.2736402E+004  0.2225705E+02  0.7546771E-02  0.1703844E+00
         21   -1    0    0  501  502  0.00000000000E+00  0.00000000000E+00  0.22417057513E+03  0.22417057513E+03  0.00000000000E+00 0.  1.
         21   -1    0    0  502  503 -0.00000000000E+00 -0.00000000000E+00 -0.90050963397E+01  0.90050963397E+01  0.00000000000E+00 0. -1.
          2    1    1    2  501    0  0.14469014033E+02 -0.16912241622E+02  0.20886016840E+03  0.21004272477E+03  0.00000000000E+00 0.  1.
         -2    1    1    2    0  503 -0.14469014033E+02  0.16912241622E+02  0.63053103828E+01  0.23132946695E+02  0.00000000000E+00 0. -1.
<mgrwt>
<rscale>  2 0.22257050E+02</rscale>
<asrwt>0</asrwt>
<pdfrwt beam="1">  1       21 0.34487777E-01 0.22257050E+02</pdfrwt>
<pdfrwt beam="2">  1       21 0.13853996E-02 0.22257050E+02</pdfrwt>
<totfact> 0.14078973E+07</totfact>
</mgrwt>
</event>
<event>
 4    1  0.2736402E+004  0.2355315E+02  0.7546771E-02  0.1682697E+00
         21   -1    0    0  503  502  0.00000000000E+00  0.00000000000E+00  0.17782506850E+02  0.17782506850E+02  0.00000000000E+00 0. -1.
         21   -1    0    0  501  503 -0.00000000000E+00 -0.00000000000E+00 -0.38479551597E+02  0.38479551597E+02  0.00000000000E+00 0.  1.
          2    1    1    2  501    0 -0.21830160483E+02 -0.88428008531E+01 -0.22587042100E+02  0.32633196357E+02  0.00000000000E+00 0.  1.
         -2    1    1    2    0  502  0.21830160483E+02  0.88428008531E+01  0.18899973536E+01  0.23628862089E+02  0.00000000000E+00 0. -1.
<mgrwt>
<rscale>  2 0.23553153E+02</rscale>
<asrwt>0</asrwt>
<pdfrwt beam="1">  1       21 0.27357703E-02 0.23553153E+02</pdfrwt>
<pdfrwt beam="2">  1       21 0.59199310E-02 0.23553153E+02</pdfrwt>
<totfact> 0.10167909E+08</totfact>
</mgrwt>
</event>
<event>
 4    1  0.2736402E+004  0.2213732E+02  0.7546771E-02  0.1705888E+00
         21   -1    0    0  501  502  0.00000000000E+00  0.00000000000E+00  0.65600662704E+03  0.65600662704E+03  0.00000000000E+00 0.  1.
         21   -1    0    0  502  503 -0.00000000000E+00 -0.00000000000E+00 -0.40494554546E+01  0.40494554546E+01  0.00000000000E+00 0. -1.
          2    1    1    2  501    0  0.21357462049E+02 -0.58240832568E+01  0.62401449198E+03  0.62440703658E+03  0.00000000000E+00 0.  1.
         -2    1    1    2    0  503 -0.21357462049E+02  0.58240832568E+01  0.27942679602E+02  0.35649045910E+02  0.00000000000E+00 0. -1.
<mgrwt>
<rscale>  2 0.22137324E+02</rscale>
<asrwt>0</asrwt>
<pdfrwt beam="1">  1       21 0.10092401E+00 0.22137324E+02</pdfrwt>
<pdfrwt beam="2">  1       21 0.62299367E-03 0.22137324E+02</pdfrwt>
<totfact> 0.54420056E+06</totfact>
</mgrwt>
</event>
<event>
 4    1  0.2736402E+004  0.5462953E+02  0.7546771E-02  0.1421859E+00
         21   -1    0    0  503  502  0.00000000000E+00  0.00000000000E+00  0.17236101149E+04  0.17236101149E+04  0.00000000000E+00 0. -1.
         21   -1    0    0  501  503 -0.00000000000E+00 -0.00000000000E+00 -0.37889767732E+01  0.37889767732E+01  0.00000000000E+00 0.  1.
          2    1    1    2  501    0  0.52166450104E+02 -0.16218731771E+02  0.22344933851E+03  0.23003041681E+03  0.00000000000E+00 0.  1.
         -2    1    1    2    0  502 -0.52166450104E+02  0.16218731771E+02  0.14963717996E+04  0.14973686748E+04  0.00000000000E+00 0. -1.
<mgrwt>
<rscale>  2 0.54629532E+02</rscale>
<asrwt>0</asrwt>
<pdfrwt beam="1">  1       21 0.26517016E+00 0.54629532E+02</pdfrwt>
<pdfrwt beam="2">  1       21 0.58292088E-03 0.54629532E+02</pdfrwt>
<totfact> 0.53040222E+05</totfact>
</mgrwt>
</event>
<event>
 4    1  0.2736402E+004  0.2453602E+02  0.7546771E-02  0.1667757E+00
         21   -1    0    0  503  502  0.00000000000E+00  0.00000000000E+00  0.27270136621E+03  0.27270136621E+03  0.00000000000E+00 0. -1.
         21   -1    0    0  501  503 -0.00000000000E+00 -0.00000000000E+00 -0.39698589773E+01  0.39698589773E+01  0.00000000000E+00 0.  1.
          2    1    1    2  501    0  0.20062947943E+01 -0.24453855663E+02  0.42197578332E+02  0.48812415354E+02  0.00000000000E+00 0.  1.
         -2    1    1    2    0  502 -0.20062947943E+01  0.24453855663E+02  0.22653392890E+03  0.22785880984E+03  0.00000000000E+00 0. -1.
<mgrwt>
<rscale>  2 0.24536020E+02</rscale>
<asrwt>0</asrwt>
<pdfrwt beam="1">  1       21 0.41954042E-01 0.24536020E+02</pdfrwt>
<pdfrwt beam="2">  1       21 0.61074775E-03 0.24536020E+02</pdfrwt>
<totfact> 0.33999959E+07</totfact>
</mgrwt>
</event>
<event>
 4    1  0.2736402E+004  0.8939481E+02  0.7546771E-02  0.1304324E+00
         21   -1    0    0  503  502  0.00000000000E+00  0.00000000000E+00  0.67074585198E+03  0.67074585198E+03  0.00000000000E+00 0.  1.
         21   -1    0    0  501  503 -0.00000000000E+00 -0.00000000000E+00 -0.30297777600E+02  0.30297777600E+02  0.00000000000E+00 0. -1.
          2    1    1    2  501    0  0.63856504851E+02  0.62560207400E+02  0.47185399554E+02  0.10108360249E+03  0.00000000000E+00 0. -1.
         -2    1    1    2    0  502 -0.63856504851E+02 -0.62560207400E+02  0.59326267483E+03  0.59996002709E+03  0.00000000000E+00 0.  1.
<mgrwt>
<rscale>  2 0.89394814E+02</rscale>
<asrwt>0</asrwt>
<pdfrwt beam="1">  1       21 0.10319166E+00 0.89394814E+02</pdfrwt>
<pdfrwt beam="2">  1       21 0.46611971E-02 0.89394814E+02</pdfrwt>
<totfact> 0.23816397E+05</totfact>
</mgrwt>
</event>
<event>
 4    1  0.2736402E+004  0.2492814E+02  0.7546771E-02  0.1662036E+00
         21   -1    0    0  503  502  0.00000000000E+00  0.00000000000E+00  0.28590673287E+03  0.28590673287E+03  0.00000000000E+00 0. -1.
         21   -1    0    0  501  503 -0.00000000000E+00 -0.00000000000E+00 -0.22513348707E+01  0.22513348707E+01  0.00000000000E+00 0.  1.
          2    1    1    2  501    0  0.22443645909E+02 -0.10848721341E+02  0.11503421519E+03  0.11770421684E+03  0.00000000000E+00 0.  1.
         -2    1    1    2    0  502 -0.22443645909E+02  0.10848721341E+02  0.16862118281E+03  0.17045385091E+03  0.00000000000E+00 0. -1.
<mgrwt>
<rscale>  2 0.24928137E+02</rscale>
<asrwt>0</asrwt>
<pdfrwt beam="1">  1       21 0.43985622E-01 0.24928137E+02</pdfrwt>
<pdfrwt beam="2">  1       21 0.34635944E-03 0.24928137E+02</pdfrwt>
<totfact> 0.71991782E+07</totfact>
</mgrwt>
</event>
<event>
 4    1  0.2736402E+004  0.2208390E+02  0.7546771E-02  0.1706805E+00
         21   -1    0    0  501  502  0.00000000000E+00  0.00000000000E+00  0.22568841982E+01  0.22568841982E+01  0.00000000000E+00 0.  1.
         21   -1    0    0  502  503 -0.00000000000E+00 -0.00000000000E+00 -0.22978796859E+03  0.22978796859E+03  0.00000000000E+00 0. -1.
          2    1    1    2  501    0 -0.12893053443E+02  0.17929523228E+02 -0.85442069310E+02  0.88249905599E+02  0.00000000000E+00 0.  1.
         -2    1    1    2    0  503  0.12893053443E+02 -0.17929523228E+02 -0.14208901508E+03  0.14379494719E+03  0.00000000000E+00 0. -1.
<mgrwt>
<rscale>  2 0.22083900E+02</rscale>
<asrwt>0</asrwt>
<pdfrwt beam="1">  1       21 0.34721308E-03 0.22083900E+02</pdfrwt>
<pdfrwt beam="2">  1       21 0.35351983E-01 0.22083900E+02</pdfrwt>
<totfact> 0.10493030E+08</totfact>
</mgrwt>
</event>
<event>
 4    1  0.2736402E+004  0.2595748E+02  0.7546771E-02  0.1647618E+00
         21   -1    0    0  501  502  0.00000000000E+00  0.00000000000E+00  0.22607088395E+01  0.22607088395E+01  0.00000000000E+00 0. -1.
         21   -1    0    0  502  503 -0.00000000000E+00 -0.00000000000E+00 -0.29892389721E+03  0.29892389721E+03  0.00000000000E+00 0.  1.
          2    1    1    2  501    0 -0.51245456945E+01  0.25446603240E+02 -0.14016103904E+03  0.14254440518E+03  0.00000000000E+00 0. -1.
         -2    1    1    2    0  503  0.51245456945E+01 -0.25446603240E+02 -0.15650214934E+03  0.15864020087E+03  0.00000000000E+00 0.  1.
<mgrwt>
<rscale>  2 0.25957476E+02</rscale>
<asrwt>0</asrwt>
<pdfrwt beam="1">  1       21 0.34780134E-03 0.25957476E+02</pdfrwt>
<pdfrwt beam="2">  1       21 0.45988294E-01 0.25957476E+02</pdfrwt>
<totfact> 0.66300045E+07</totfact>
</mgrwt>
</event>
